Protein in INSANE! Membrane UpperLeaflet>POPC=1.0 LowerLeaflet>POPC=1.0
248799
    1AU     AUC    1  41.901  20.848   7.533
    1AU     AUC    2  42.165  20.850   7.377
    1AU     AUC    3  42.136  20.852   7.711
    1AU     AUC    4  41.637  20.835   7.365
    1AU     AUC    5  41.644  20.888   7.692
    1AU     AUC    6  41.739  21.105   7.489
    1AU     AUC    7  42.079  21.119   7.509
    1AU     AUC    8  41.729  20.587   7.552
    1AU     AUC    9  42.063  20.578   7.562
    1AU     AUC   10  41.886  20.705   7.812
    1AU     AUC   11  41.897  21.048   7.774
    1AU     AUC   12  41.912  20.659   7.284
    1AU     AUC   13  41.922  20.972   7.259
    1AU     AUC   14  42.486  20.854   7.233
    1AU     AUC   15  42.461  20.838   7.571
    1AU     AUC   16  42.408  20.838   7.924
    1AU     AUC   17  41.343  20.791   7.213
    1AU     AUC   18  41.328  20.874   7.538
    1AU     AUC   19  41.342  20.938   7.862
    1AU     AUC   20  41.573  21.403   7.420
    1AU     AUC   21  41.932  21.399   7.422
    1AU     AUC   22  42.268  21.394   7.474
    1AU     AUC   23  41.541  20.302   7.568
    1AU     AUC   24  41.889  20.284   7.563
    1AU     AUC   25  42.240  20.285   7.583
    1AU     AUC   26  41.850  20.551   8.116
    1AU     AUC   27  41.868  20.904   8.097
    1AU     AUC   28  41.917  21.263   8.052
    1AU     AUC   29  41.962  20.468   7.010
    1AU     AUC   30  41.910  20.795   6.957
    1AU     AUC   31  41.895  21.113   6.943
    1AU     AUC   32  42.121  20.673   8.030
    1AU     AUC   33  42.169  21.036   8.001
    1AU     AUC   34  42.227  20.680   7.089
    1AU     AUC   35  42.191  20.995   7.091
    1AU     AUC   36  41.590  20.768   8.004
    1AU     AUC   37  41.627  21.120   7.951
    1AU     AUC   38  41.641  20.612   7.104
    1AU     AUC   39  41.600  20.921   7.055
    1AU     AUC   40  42.398  21.124   7.363
    1AU     AUC   41  42.335  21.122   7.709
    1AU     AUC   42  41.441  21.107   7.339
    1AU     AUC   43  41.470  21.198   7.668
    1AU     AUC   44  42.373  20.569   7.420
    1AU     AUC   45  42.309  20.542   7.765
    1AU     AUC   46  41.444  20.529   7.392
    1AU     AUC   47  41.454  20.618   7.728
    1AU     AUC   48  41.775  21.354   7.745
    1AU     AUC   49  42.098  21.329   7.777
    1AU     AUC   50  41.700  20.425   7.843
    1AU     AUC   51  42.013  20.378   7.839
    1AU     AUC   52  41.720  21.256   7.175
    1AU     AUC   53  42.080  21.289   7.202
    1AU     AUC   54  41.759  20.366   7.278
    1AU     AUC   55  42.130  20.408   7.292
    1AU    AUSL   56  42.366  20.784   8.321
    1AU    AUSL   57  42.131  20.396   8.241
    1AU     AUL   58  42.424  20.428   8.435
    1AU    AUSL   59  41.955  20.725   8.442
    1AU    AUSL   60  41.715  21.114   8.416
    1AU     AUL   61  41.945  21.033   8.706
    1AU    AUSL   62  42.064  21.079   8.195
    1AU    AUSL   63  42.508  21.137   8.133
    1AU     AUL   64  42.344  21.102   8.464
    1AU    AUSL   65  42.362  20.874   6.896
    1AU    AUSL   66  42.210  21.265   6.974
    1AU     AUL   67  42.431  21.200   6.694
    1AU    AUSL   68  42.201  20.583   6.634
    1AU    AUSL   69  42.669  20.626   7.033
    1AU     AUL   70  42.577  20.744   6.683
    1AU    AUSL   71  42.001  20.998   6.706
    1AU    AUSL   72  41.822  20.604   6.814
    1AU     AUL   73  41.934  20.647   6.490
    1AU    AUSL   74  41.339  21.064   8.200
    1AU    AUSL   75  41.664  21.375   8.088
    1AU     AUL   76  41.489  21.357   8.413
    1AU    AUSL   77  41.628  20.756   8.185
    1AU    AUSL   78  41.213  20.645   8.120
    1AU     AUL   79  41.159  20.867   8.289
    1AU    AUSL   80  41.396  20.595   6.801
    1AU    AUSL   81  41.626  20.277   6.991
    1AU     AUL   82  41.688  20.287   6.663
    1AU    AUSL   83  41.583  20.946   6.652
    1AU    AUSL   84  41.273  20.958   7.003
    1AU     AUL   85  41.166  20.785   6.744
    1AU    AUSL   86  42.675  21.330   7.521
    1AU    AUSL   87  42.611  21.131   7.117
    1AU     AUL   88  42.944  21.323   7.200
    1AU    AUSL   89  42.848  20.942   7.421
    1AU    AUSL   90  42.796  20.649   7.801
    1AU     AUL   91  43.108  20.731   7.601
    1AU    AUSL   92  42.559  20.985   7.746
    1AU    AUSL   93  42.378  21.389   7.806
    1AU     AUL   94  42.748  21.162   7.897
    1AU    AUSL   95  41.317  21.465   7.454
    1AU    AUSL   96  41.342  21.254   7.826
    1AU     AUL   97  41.026  21.482   7.642
    1AU    AUSL   98  41.153  21.068   7.389
    1AU    AUSL   99  41.297  21.380   7.047
    1AU     AUL  100  41.039  21.298   7.185
    1AU    AUSL  101  40.985  21.052   7.802
    1AU    AUSL  102  40.983  20.688   7.366
    1AU     AUL  103  40.803  21.021   7.492
    1AU    AUSL  104  42.579  20.297   7.660
    1AU    AUSL  105  42.407  20.579   7.959
    1AU     AUL  106  42.708  20.494   8.055
    1AU    AUSL  107  42.553  20.651   7.431
    1AU    AUSL  108  42.557  20.246   7.236
    1AU     AUL  109  42.816  20.462   7.328
    1AU    AUSL  110  41.162  20.333   7.574
    1AU    AUSL  111  41.334  20.526   7.205
    1AU     AUL  112  40.960  20.409   7.246
    1AU    AUSL  113  41.230  20.731   7.713
    1AU    AUSL  114  41.446  20.375   7.887
    1AU     AUL  115  41.133  20.352   7.907
    1AU    AUSL  116  41.943  21.642   7.912
    1AU    AUSL  117  41.501  21.653   7.792
    1AU     AUL  118  41.698  21.719   8.160
    1AU    AUSL  119  41.796  21.539   7.524
    1AU    AUSL  120  42.047  21.657   7.188
    1AU     AUL  121  41.772  21.890   7.458
    1AU    AUSL  122  42.209  21.695   7.576
    1AU    AUSL  123  42.208  21.468   8.186
    1AU     AUL  124  42.302  21.729   7.930
    1AU    AUSL  125  41.831  20.209   8.001
    1AU    AUSL  126  42.255  20.179   7.897
    1AU     AUL  127  42.003  20.103   8.270
    1AU    AUSL  128  41.545  20.006   7.724
    1AU    AUSL  129  41.590  20.367   8.304
    1AU     AUL  130  41.499  20.070   8.080
    1AU    AUSL  131  41.977  19.929   7.709
    1AU    AUSL  132  41.777  20.138   7.390
    1AU     AUL  133  41.659  19.781   7.504
    1AU    AUSL  134  41.898  21.482   6.803
    1AU    AUSL  135  42.432  21.511   7.237
    1AU     AUL  136  42.223  21.601   6.877
    1AU    AUSL  137  41.634  21.601   7.141
    1AU    AUSL  138  41.664  21.182   6.978
    1AU     AUL  139  41.576  21.456   6.774
    1AU    AUSL  140  42.007  20.098   7.024
    1AU    AUSL  141  41.375  20.100   7.296
    1AU     AUL  142  41.671  19.941   7.066
    1AU    AUSL  143  42.202  20.138   7.421
    1AU    AUSL  144  42.244  20.446   7.025
    1AU     AUL  145  42.330  20.080   7.036
    1AU       S  146  42.445  19.977   8.294
    1AU     LIG  147  42.682  19.628   8.446
    1AU     LIG  148  42.912  19.228   8.487
    1AU     LIG  149  43.347  19.061   8.446
    1AU       S  150  42.315  20.730   8.766
    1AU     LIG  151  42.748  20.755   8.662
    1AU     LIG  152  42.994  20.804   9.046
    1AU     LIG  153  42.908  20.712   9.500
    1AU       S  154  41.970  20.559   8.657
    1AU     LIG  155  42.008  20.538   9.114
    1AU     LIG  156  42.424  20.476   9.369
    1AU     LIG  157  42.756  20.235   9.639
    1AU       S  158  41.507  20.914   8.637
    1AU     LIG  159  41.550  20.860   9.096
    1AU     LIG  160  41.173  20.751   9.353
    1AU     LIG  161  40.946  20.865   9.761
    1AU       S  162  41.952  21.490   8.558
    1AU     LIG  163  42.241  21.814   8.713
    1AU     LIG  164  42.638  21.650   8.865
    1AU     LIG  165  42.780  21.244   8.777
    1AU       S  166  42.676  21.403   8.293
    1AU     LIG  167  43.057  21.289   8.340
    1AU     LIG  168  43.163  21.596   8.662
    1AU     LIG  169  43.410  21.822   8.989
    1AU       S  170  42.289  20.965   6.333
    1AU     LIG  171  42.652  21.113   6.130
    1AU     LIG  172  42.804  20.745   5.926
    1AU     LIG  173  42.742  20.397   5.642
    1AU       S  174  42.676  21.586   6.850
    1AU     LIG  175  42.597  21.931   6.595
    1AU     LIG  176  42.815  22.042   6.195
    1AU     LIG  177  43.178  22.138   5.919
    1AU       S  178  42.872  20.411   6.852
    1AU     LIG  179  42.985  20.156   6.477
    1AU     LIG  180  42.703  19.796   6.486
    1AU     LIG  181  42.824  19.378   6.625
    1AU       S  182  42.320  20.775   6.286
    1AU     LIG  183  42.300  20.470   5.971
    1AU     LIG  184  42.250  20.363   5.516
    1AU     LIG  185  42.341  20.548   5.103
    1AU       S  186  41.510  20.599   6.332
    1AU     LIG  187  41.760  20.457   5.980
    1AU     LIG  188  41.742  20.421   5.511
    1AU     LIG  189  41.426  20.516   5.176
    1AU       S  190  42.041  21.101   6.442
    1AU     LIG  191  41.851  20.948   6.060
    1AU     LIG  192  42.055  20.818   5.679
    1AU     LIG  193  42.490  20.835   5.515
    1AU       S  194  41.306  21.028   8.694
    1AU     LIG  195  41.022  20.714   8.762
    1AU     LIG  196  40.998  20.306   8.898
    1AU     LIG  197  40.865  20.288   9.350
    1AU       S  198  41.223  21.633   8.151
    1AU     LIG  199  41.150  21.762   8.544
    1AU     LIG  200  40.803  21.837   8.829
    1AU     LIG  201  40.391  21.898   9.053
    1AU       S  202  41.118  20.414   8.383
    1AU     LIG  203  40.743  20.589   8.320
    1AU     LIG  204  40.517  20.318   8.540
    1AU     LIG  205  40.731  19.924   8.586
    1AU       S  206  41.497  20.735   8.589
    1AU     LIG  207  41.524  20.402   8.906
    1AU     LIG  208  41.385  20.285   9.327
    1AU     LIG  209  41.194  20.394   9.758
    1AU       S  210  41.342  20.498   6.434
    1AU     LIG  211  41.292  20.219   6.087
    1AU     LIG  212  41.280  20.486   5.723
    1AU     LIG  213  41.054  20.762   5.435
    1AU       S  214  41.290  20.105   6.830
    1AU     LIG  215  41.378  19.806   6.542
    1AU     LIG  216  41.184  19.662   6.153
    1AU     LIG  217  40.828  19.422   5.955
    1AU       S  218  41.006  21.208   6.698
    1AU     LIG  219  40.712  21.493   6.669
    1AU     LIG  220  40.719  21.866   6.413
    1AU     LIG  221  40.691  22.066   5.994
    1AU       S  222  41.521  20.887   6.432
    1AU     LIG  223  41.138  20.931   6.238
    1AU     LIG  224  41.231  21.020   5.834
    1AU     LIG  225  41.558  20.897   5.544
    1AU       S  226  42.764  21.485   6.822
    1AU     LIG  227  42.880  21.546   6.384
    1AU     LIG  228  43.261  21.751   6.232
    1AU     LIG  229  43.644  21.921   6.000
    1AU       S  230  42.835  21.534   7.608
    1AU     LIG  231  43.187  21.729   7.387
    1AU     LIG  232  43.611  21.563   7.480
    1AU     LIG  233  44.026  21.651   7.672
    1AU       S  234  43.128  21.200   7.607
    1AU     LIG  235  43.525  21.042   7.484
    1AU     LIG  236  43.939  21.199   7.306
    1AU     LIG  237  43.993  21.647   7.135
    1AU       S  238  43.052  20.304   7.820
    1AU     LIG  239  43.354  20.106   8.073
    1AU     LIG  240  43.568  19.779   7.873
    1AU     LIG  241  43.868  19.814   7.571
    1AU       S  242  42.711  21.588   8.084
    1AU     LIG  243  43.143  21.756   8.154
    1AU     LIG  244  43.382  22.042   8.474
    1AU     LIG  245  43.407  22.317   8.867
    1AU       S  246  43.094  21.388   7.729
    1AU     LIG  247  43.469  21.344   7.947
    1AU     LIG  248  43.879  21.189   7.855
    1AU     LIG  249  44.225  21.082   8.149
    1AU       S  250  41.137  21.460   8.088
    1AU     LIG  251  40.936  21.306   8.458
    1AU     LIG  252  40.514  21.450   8.658
    1AU     LIG  253  40.074  21.645   8.732
    1AU       S  254  41.250  21.787   7.354
    1AU     LIG  255  41.031  22.163   7.436
    1AU     LIG  256  40.895  22.328   7.038
    1AU     LIG  257  40.718  21.941   6.915
    1AU       S  258  40.780  20.932   7.026
    1AU     LIG  259  40.332  21.042   7.042
    1AU     LIG  260  39.921  21.221   7.171
    1AU     LIG  261  39.734  21.644   7.111
    1AU       S  262  41.158  21.637   6.872
    1AU     LIG  263  41.171  22.048   6.696
    1AU     LIG  264  40.856  22.348   6.486
    1AU     LIG  265  40.553  22.539   6.164
    1AU       S  266  40.752  20.577   7.645
    1AU     LIG  267  40.461  20.645   7.336
    1AU     LIG  268  39.998  20.688   7.276
    1AU     LIG  269  39.590  20.433   7.263
    1AU       S  270  40.852  21.075   7.979
    1AU     LIG  271  40.508  21.162   8.226
    1AU     LIG  272  40.215  21.521   8.220
    1AU     LIG  273  40.005  21.563   7.812
    1AU       S  274  42.748  20.150   7.688
    1AU     LIG  275  42.828  19.762   7.530
    1AU     LIG  276  43.186  19.516   7.592
    1AU     LIG  277  43.547  19.498   7.316
    1AU       S  278  42.623  20.064   8.159
    1AU     LIG  279  42.949  19.796   8.017
    1AU     LIG  280  43.259  19.603   8.260
    1AU     LIG  281  43.274  19.523   8.703
    1AU       S  282  43.032  20.230   7.650
    1AU     LIG  283  43.168  20.077   7.293
    1AU     LIG  284  43.585  19.998   7.163
    1AU     LIG  285  43.976  19.754   7.074
    1AU       S  286  42.791  20.158   6.955
    1AU     LIG  287  42.743  19.768   7.037
    1AU     LIG  288  42.434  19.591   6.874
    1AU     LIG  289  42.308  19.361   6.555
    1AU       S  290  41.144  20.214   6.875
    1AU     LIG  291  40.949  20.140   6.470
    1AU     LIG  292  40.697  19.817   6.275
    1AU     LIG  293  40.405  19.455   6.318
    1AU       S  294  40.741  20.328   7.664
    1AU     LIG  295  40.302  20.264   7.631
    1AU     LIG  296  40.032  20.182   7.260
    1AU     LIG  297  39.737  19.854   7.106
    1AU       S  298  41.126  20.214   8.343
    1AU     LIG  299  40.999  19.891   8.101
    1AU     LIG  300  40.724  19.555   8.173
    1AU     LIG  301  40.501  19.457   8.534
    1AU       S  302  40.782  20.622   7.800
    1AU     LIG  303  40.385  20.675   7.977
    1AU     LIG  304  40.069  20.376   8.075
    1AU     LIG  305  39.796  20.265   7.728
    1AU       S  306  41.365  21.822   7.831
    1AU     LIG  307  40.922  21.911   7.882
    1AU     LIG  308  40.698  21.720   8.231
    1AU     LIG  309  40.415  21.940   8.497
    1AU       S  310  41.935  22.008   7.870
    1AU     LIG  311  42.102  22.099   8.250
    1AU     LIG  312  42.046  22.577   8.272
    1AU     LIG  313  41.839  22.921   8.529
    1AU       S  314  42.095  22.165   7.741
    1AU     LIG  315  41.806  22.519   7.776
    1AU     LIG  316  41.669  22.898   8.020
    1AU     LIG  317  41.632  23.306   8.256
    1AU       S  318  41.966  21.959   7.036
    1AU     LIG  319  41.906  22.342   7.273
    1AU     LIG  320  41.943  22.777   7.349
    1AU     LIG  321  42.074  23.162   7.163
    1AU       S  322  42.460  21.572   8.348
    1AU     LIG  323  42.751  21.918   8.455
    1AU     LIG  324  42.966  22.053   8.827
    1AU     LIG  325  42.980  21.943   9.280
    1AU       S  326  42.235  21.988   7.532
    1AU     LIG  327  42.370  22.475   7.487
    1AU     LIG  328  42.241  22.807   7.801
    1AU     LIG  329  42.130  23.111   8.152
    1AU       S  330  41.818  19.711   8.101
    1AU     LIG  331  42.194  19.438   8.221
    1AU     LIG  332  42.360  18.988   8.288
    1AU     LIG  333  42.130  18.571   8.350
    1AU       S  334  42.390  20.026   8.006
    1AU     LIG  335  42.474  19.658   7.869
    1AU     LIG  336  42.689  19.332   8.043
    1AU     LIG  337  43.106  19.201   8.008
    1AU       S  338  41.625  19.640   7.943
    1AU     LIG  339  41.635  19.204   7.837
    1AU     LIG  340  41.710  18.853   8.108
    1AU     LIG  341  41.470  18.627   8.435
    1AU       S  342  41.359  20.299   8.464
    1AU     LIG  343  41.282  19.894   8.673
    1AU     LIG  344  41.025  19.506   8.629
    1AU     LIG  345  40.758  19.337   8.959
    1AU       S  346  42.056  19.700   7.295
    1AU     LIG  347  41.801  19.333   7.041
    1AU     LIG  348  41.991  19.011   6.743
    1AU     LIG  349  42.194  18.648   6.927
    1AU       S  350  41.967  19.761   7.882
    1AU     LIG  351  42.056  19.431   7.704
    1AU     LIG  352  42.300  19.123   7.800
    1AU     LIG  353  42.220  18.696   7.869
    1AU       S  354  41.833  21.861   6.755
    1AU     LIG  355  41.766  22.332   6.759
    1AU     LIG  356  41.982  22.740   6.836
    1AU     LIG  357  42.104  23.174   6.657
    1AU       S  358  42.605  21.669   7.153
    1AU     LIG  359  42.896  21.993   7.042
    1AU     LIG  360  43.092  22.108   6.639
    1AU     LIG  361  43.440  22.226   6.375
    1AU       S  362  41.626  21.872   7.003
    1AU     LIG  363  41.425  22.237   7.127
    1AU     LIG  364  41.495  22.691   7.057
    1AU     LIG  365  41.632  23.113   6.875
    1AU       S  366  41.207  21.259   6.609
    1AU     LIG  367  41.169  21.626   6.364
    1AU     LIG  368  41.170  22.060   6.177
    1AU     LIG  369  41.026  22.461   5.965
    1AU       S  370  41.217  20.039   7.129
    1AU     LIG  371  40.860  19.875   7.120
    1AU     LIG  372  40.888  19.695   6.748
    1AU     LIG  373  40.899  19.372   6.473
    1AU       S  374  42.075  19.723   7.166
    1AU     LIG  375  41.942  19.697   6.714
    1AU     LIG  376  41.837  19.389   6.392
    1AU     LIG  377  41.975  18.970   6.230
    1AU       S  378  42.328  19.823   7.423
    1AU     LIG  379  42.449  19.431   7.392
    1AU     LIG  380  42.298  19.173   7.109
    1AU     LIG  381  42.520  18.997   6.795
    1AU       S  382  42.581  20.277   6.717
    1AU     LIG  383  42.233  20.075   6.533
    1AU     LIG  384  42.225  19.712   6.215
    1AU     LIG  385  42.384  19.254   6.068
    2AU     AUC  386  29.268  39.997   7.540
    2AU     AUC  387  29.529  40.001   7.381
    2AU     AUC  388  29.505  40.005   7.716
    2AU     AUC  389  29.001  39.979   7.377
    2AU     AUC  390  29.012  40.035   7.702
    2AU     AUC  391  29.101  40.251   7.496
    2AU     AUC  392  29.441  40.269   7.512
    2AU     AUC  393  29.102  39.734   7.564
    2AU     AUC  394  29.436  39.729   7.569
    2AU     AUC  395  29.259  39.854   7.820
    2AU     AUC  396  29.262  40.197   7.780
    2AU     AUC  397  29.278  39.806   7.293
    2AU     AUC  398  29.282  40.118   7.266
    2AU     AUC  399  29.847  40.008   7.233
    2AU     AUC  400  29.829  39.996   7.574
    2AU     AUC  401  29.779  39.997   7.928
    2AU     AUC  402  28.705  39.930   7.229
    2AU     AUC  403  28.694  40.015   7.554
    2AU     AUC  404  28.711  40.081   7.874
    2AU     AUC  405  28.930  40.546   7.426
    2AU     AUC  406  29.289  40.546   7.423
    2AU     AUC  407  29.625  40.546   7.471
    2AU     AUC  408  28.920  39.445   7.586
    2AU     AUC  409  29.269  39.433   7.573
    2AU     AUC  410  29.619  39.440   7.590
    2AU     AUC  411  29.231  39.701   8.124
    2AU     AUC  412  29.238  40.053   8.103
    2AU     AUC  413  29.280  40.413   8.055
    2AU     AUC  414  29.326  39.612   7.020
    2AU     AUC  415  29.268  39.938   6.965
    2AU     AUC  416  29.248  40.255   6.949
    2AU     AUC  417  29.497  39.826   8.036
    2AU     AUC  418  29.535  40.188   8.007
    2AU     AUC  419  29.590  39.828   7.092
    2AU     AUC  420  29.548  40.141   7.094
    2AU     AUC  421  28.964  39.913   8.014
    2AU     AUC  422  28.992  40.267   7.958
    2AU     AUC  423  29.004  39.754   7.118
    2AU     AUC  424  28.957  40.062   7.066
    2AU     AUC  425  29.758  40.278   7.365
    2AU     AUC  426  29.697  40.277   7.712
    2AU     AUC  427  28.801  40.249   7.350
    2AU     AUC  428  28.834  40.344   7.677
    2AU     AUC  429  29.743  39.725   7.423
    2AU     AUC  430  29.687  39.699   7.768
    2AU     AUC  431  28.813  39.671   7.411
    2AU     AUC  432  28.829  39.761   7.742
    2AU     AUC  433  29.137  40.503   7.749
    2AU     AUC  434  29.457  40.479   7.779
    2AU     AUC  435  29.082  39.572   7.854
    2AU     AUC  436  29.396  39.530   7.848
    2AU     AUC  437  29.076  40.398   7.181
    2AU     AUC  438  29.437  40.436   7.203
    2AU     AUC  439  29.130  39.512   7.292
    2AU     AUC  440  29.501  39.560   7.299
    2AU    AUSL  441  29.738  39.942   8.327
    2AU    AUSL  442  29.518  39.549   8.250
    2AU     AUL  443  29.818  39.592   8.440
    2AU    AUSL  444  29.328  39.874   8.447
    2AU    AUSL  445  29.080  40.263   8.421
    2AU     AUL  446  29.308  40.180   8.710
    2AU    AUSL  447  29.429  40.230   8.201
    2AU    AUSL  448  29.870  40.298   8.137
    2AU     AUL  449  29.707  40.259   8.471
    2AU    AUSL  450  29.718  40.020   6.894
    2AU    AUSL  451  29.562  40.408   6.976
    2AU     AUL  452  29.786  40.336   6.696
    2AU    AUSL  453  29.555  39.721   6.640
    2AU    AUSL  454  30.031  39.779   7.029
    2AU     AUL  455  29.922  39.876   6.678
    2AU    AUSL  456  29.353  40.140   6.709
    2AU    AUSL  457  29.179  39.747   6.826
    2AU     AUL  458  29.289  39.788   6.500
    2AU    AUSL  459  28.701  40.204   8.206
    2AU    AUSL  460  29.031  40.525   8.093
    2AU     AUL  461  28.854  40.504   8.414
    2AU    AUSL  462  29.000  39.905   8.191
    2AU    AUSL  463  28.594  39.775   8.142
    2AU     AUL  464  28.511  39.992   8.288
    2AU    AUSL  465  28.751  39.732   6.821
    2AU    AUSL  466  28.995  39.418   7.010
    2AU     AUL  467  29.043  39.432   6.682
    2AU    AUSL  468  28.934  40.084   6.664
    2AU    AUSL  469  28.627  40.095   7.017
    2AU     AUL  470  28.519  39.935   6.756
    2AU    AUSL  471  30.023  40.493   7.518
    2AU    AUSL  472  29.964  40.278   7.119
    2AU     AUL  473  30.287  40.486   7.194
    2AU    AUSL  474  30.213  40.109   7.425
    2AU    AUSL  475  30.170  39.815   7.798
    2AU     AUL  476  30.481  39.894   7.601
    2AU    AUSL  477  29.926  40.147   7.750
    2AU    AUSL  478  29.732  40.544   7.810
    2AU     AUL  479  30.107  40.337   7.903
    2AU    AUSL  480  28.674  40.608   7.462
    2AU    AUSL  481  28.706  40.402   7.837
    2AU     AUL  482  28.386  40.626   7.654
    2AU    AUSL  483  28.516  40.208   7.405
    2AU    AUSL  484  28.649  40.518   7.057
    2AU     AUL  485  28.393  40.432   7.201
    2AU    AUSL  486  28.352  40.195   7.817
    2AU    AUSL  487  28.352  39.825   7.389
    2AU     AUL  488  28.167  40.158   7.512
    2AU    AUSL  489  29.956  39.462   7.660
    2AU    AUSL  490  29.786  39.739   7.964
    2AU     AUL  491  30.092  39.659   8.052
    2AU    AUSL  492  29.923  39.813   7.429
    2AU    AUSL  493  29.931  39.403   7.239
    2AU     AUL  494  30.186  39.634   7.324
    2AU    AUSL  495  28.536  39.470   7.598
    2AU    AUSL  496  28.702  39.662   7.226
    2AU     AUL  497  28.336  39.547   7.265
    2AU    AUSL  498  28.600  39.872   7.736
    2AU    AUSL  499  28.831  39.515   7.899
    2AU     AUL  500  28.515  39.509   7.940
    2AU    AUSL  501  29.304  40.795   7.908
    2AU    AUSL  502  28.862  40.800   7.797
    2AU     AUL  503  29.064  40.868   8.163
    2AU    AUSL  504  29.153  40.686   7.526
    2AU    AUSL  505  29.399  40.800   7.185
    2AU     AUL  506  29.125  41.036   7.460
    2AU    AUSL  507  29.568  40.843   7.569
    2AU    AUSL  508  29.561  40.623   8.190
    2AU     AUL  509  29.661  40.880   7.917
    2AU    AUSL  510  29.221  39.358   8.011
    2AU    AUSL  511  29.643  39.335   7.905
    2AU     AUL  512  29.399  39.254   8.277
    2AU    AUSL  513  28.935  39.144   7.743
    2AU    AUSL  514  28.982  39.515   8.314
    2AU     AUL  515  28.901  39.212   8.088
    2AU    AUSL  516  29.369  39.079   7.721
    2AU    AUSL  517  29.157  39.288   7.407
    2AU     AUL  518  29.071  38.928   7.515
    2AU    AUSL  519  29.247  40.622   6.804
    2AU    AUSL  520  29.791  40.668   7.220
    2AU     AUL  521  29.574  40.739   6.866
    2AU    AUSL  522  28.985  40.743   7.144
    2AU    AUSL  523  29.018  40.323   6.986
    2AU     AUL  524  28.925  40.595   6.781
    2AU    AUSL  525  29.377  39.238   7.037
    2AU    AUSL  526  28.754  39.238   7.322
    2AU     AUL  527  29.048  39.085   7.082
    2AU    AUSL  528  29.581  39.293   7.429
    2AU    AUSL  529  29.608  39.591   7.032
    2AU     AUL  530  29.696  39.225   7.050
    2AU       S  531  29.845  39.136   8.303
    2AU     LIG  532  29.997  38.694   8.380
    2AU     LIG  533  30.018  38.203   8.476
    2AU     LIG  534  30.417  37.975   8.596
    2AU       S  535  29.683  39.883   8.772
    2AU     LIG  536  30.117  39.956   8.669
    2AU     LIG  537  30.345  40.012   9.073
    2AU     LIG  538  30.220  39.881   9.521
    2AU       S  539  29.339  39.706   8.661
    2AU     LIG  540  29.339  39.722   9.115
    2AU     LIG  541  29.693  39.694   9.448
    2AU     LIG  542  29.890  39.608   9.876
    2AU       S  543  28.868  40.064   8.640
    2AU     LIG  544  28.943  40.072   9.089
    2AU     LIG  545  28.644  39.872   9.398
    2AU     LIG  546  28.405  39.919   9.806
    2AU       S  547  29.311  40.638   8.567
    2AU     LIG  548  29.549  40.975   8.702
    2AU     LIG  549  29.908  40.795   8.852
    2AU     LIG  550  30.066  40.412   8.875
    2AU       S  551  30.024  40.573   8.303
    2AU     LIG  552  30.336  40.401   8.441
    2AU     LIG  553  30.472  40.724   8.729
    2AU     LIG  554  30.726  41.048   8.966
    2AU       S  555  29.643  40.109   6.333
    2AU     LIG  556  30.110  40.123   6.261
    2AU     LIG  557  30.269  39.838   5.934
    2AU     LIG  558  30.143  39.462   5.689
    2AU       S  559  30.027  40.722   6.826
    2AU     LIG  560  29.924  41.034   6.538
    2AU     LIG  561  30.144  41.178   6.156
    2AU     LIG  562  30.533  41.362   5.974
    2AU       S  563  30.222  39.547   6.851
    2AU     LIG  564  30.237  39.611   6.389
    2AU     LIG  565  30.180  39.251   6.161
    2AU     LIG  566  30.381  38.840   6.213
    2AU       S  567  29.656  39.948   6.290
    2AU     LIG  568  29.793  39.626   6.086
    2AU     LIG  569  29.619  39.445   5.716
    2AU     LIG  570  29.795  39.473   5.288
    2AU       S  571  28.862  39.732   6.351
    2AU     LIG  572  29.114  39.620   6.005
    2AU     LIG  573  29.072  39.661   5.535
    2AU     LIG  574  28.743  39.831   5.222
    2AU       S  575  29.385  40.249   6.454
    2AU     LIG  576  29.189  40.119   6.080
    2AU     LIG  577  29.444  39.942   5.768
    2AU     LIG  578  29.864  39.895   5.610
    2AU       S  579  28.658  40.174   8.684
    2AU     LIG  580  28.382  39.864   8.781
    2AU     LIG  581  28.298  39.581   9.108
    2AU     LIG  582  28.215  39.506   9.557
    2AU       S  583  28.588  40.793   8.161
    2AU     LIG  584  28.516  40.888   8.568
    2AU     LIG  585  28.212  40.791   8.887
    2AU     LIG  586  27.818  40.948   9.092
    2AU       S  587  28.513  39.542   8.426
    2AU     LIG  588  28.095  39.517   8.253
    2AU     LIG  589  27.763  39.207   8.333
    2AU     LIG  590  27.596  38.763   8.370
    2AU       S  591  28.861  39.885   8.589
    2AU     LIG  592  28.819  39.611   8.951
    2AU     LIG  593  28.708  39.366   9.333
    2AU     LIG  594  28.678  39.471   9.784
    2AU       S  595  28.691  39.638   6.452
    2AU     LIG  596  28.486  39.600   6.060
    2AU     LIG  597  28.631  39.863   5.728
    2AU     LIG  598  28.457  40.208   5.473
    2AU       S  599  28.655  39.229   6.849
    2AU     LIG  600  28.371  38.986   6.593
    2AU     LIG  601  28.285  38.963   6.146
    2AU     LIG  602  27.896  38.846   5.933
    2AU       S  603  28.331  40.351   6.719
    2AU     LIG  604  28.128  40.713   6.538
    2AU     LIG  605  28.041  41.162   6.504
    2AU     LIG  606  27.953  41.450   6.136
    2AU       S  607  28.874  40.017   6.447
    2AU     LIG  608  28.592  40.136   6.182
    2AU     LIG  609  28.774  40.351   5.844
    2AU     LIG  610  29.017  40.183   5.496
    2AU       S  611  30.128  40.622   6.798
    2AU     LIG  612  30.241  40.653   6.367
    2AU     LIG  613  30.570  40.872   6.150
    2AU     LIG  614  30.982  41.051   6.055
    2AU       S  615  30.178  40.694   7.605
    2AU     LIG  616  30.475  40.912   7.359
    2AU     LIG  617  30.916  40.820   7.388
    2AU     LIG  618  31.259  40.907   7.683
    2AU       S  619  30.472  40.358   7.599
    2AU     LIG  620  30.768  40.295   7.292
    2AU     LIG  621  31.215  40.403   7.291
    2AU     LIG  622  31.567  40.721   7.321
    2AU       S  623  30.418  39.453   7.804
    2AU     LIG  624  30.716  39.332   8.047
    2AU     LIG  625  31.093  39.298   7.865
    2AU     LIG  626  31.486  39.222   8.049
    2AU       S  627  30.059  40.754   8.099
    2AU     LIG  628  30.457  40.852   8.208
    2AU     LIG  629  30.589  41.182   8.484
    2AU     LIG  630  30.598  41.545   8.780
    2AU       S  631  30.460  40.526   7.697
    2AU     LIG  632  30.942  40.452   7.754
    2AU     LIG  633  31.403  40.415   7.759
    2AU     LIG  634  31.732  40.720   7.857
    2AU       S  635  28.508  40.610   8.097
    2AU     LIG  636  28.260  40.463   8.442
    2AU     LIG  637  27.818  40.625   8.586
    2AU     LIG  638  27.469  40.945   8.697
    2AU       S  639  28.608  40.929   7.361
    2AU     LIG  640  28.364  41.263   7.419
    2AU     LIG  641  28.056  41.287   7.133
    2AU     LIG  642  27.988  40.879   6.992
    2AU       S  643  28.130  40.059   7.052
    2AU     LIG  644  27.639  40.123   7.054
    2AU     LIG  645  27.222  40.370   6.953
    2AU     LIG  646  27.137  40.848   6.954
    2AU       S  647  28.504  40.769   6.889
    2AU     LIG  648  28.476  41.191   6.819
    2AU     LIG  649  28.257  41.581   6.731
    2AU     LIG  650  27.891  41.789   6.556
    2AU       S  651  28.132  39.718   7.671
    2AU     LIG  652  27.817  39.794   7.415
    2AU     LIG  653  27.405  39.709   7.322
    2AU     LIG  654  27.206  39.363   7.110
    2AU       S  655  28.220  40.235   7.987
    2AU     LIG  656  27.872  40.168   8.234
    2AU     LIG  657  27.458  40.407   8.212
    2AU     LIG  658  27.102  40.522   7.913
    2AU       S  659  30.124  39.310   7.682
    2AU     LIG  660  30.275  38.933   7.567
    2AU     LIG  661  30.720  38.920   7.721
    2AU     LIG  662  31.198  38.823   7.740
    2AU       S  663  30.011  39.228   8.163
    2AU     LIG  664  30.332  38.986   8.067
    2AU     LIG  665  30.676  38.886   8.329
    2AU     LIG  666  30.589  38.931   8.789
    2AU       S  667  30.413  39.404   7.637
    2AU     LIG  668  30.582  39.271   7.303
    2AU     LIG  669  31.004  39.114   7.337
    2AU     LIG  670  31.425  39.040   7.210
    2AU       S  671  30.158  39.294   6.996
    2AU     LIG  672  30.269  38.999   6.740
    2AU     LIG  673  30.092  38.658   6.596
    2AU     LIG  674  30.344  38.367   6.414
    2AU       S  675  28.526  39.338   6.911
    2AU     LIG  676  28.235  39.492   6.658
    2AU     LIG  677  27.941  39.234   6.413
    2AU     LIG  678  27.604  38.946   6.342
    2AU       S  679  28.133  39.481   7.688
    2AU     LIG  680  27.854  39.250   7.828
    2AU     LIG  681  27.460  39.246   7.633
    2AU     LIG  682  27.092  38.995   7.588
    2AU       S  683  28.542  39.320   8.358
    2AU     LIG  684  28.399  39.053   8.026
    2AU     LIG  685  28.059  38.845   8.123
    2AU     LIG  686  28.018  38.468   8.389
    2AU       S  687  28.154  39.767   7.829
    2AU     LIG  688  27.707  39.743   7.940
    2AU     LIG  689  27.265  39.665   7.832
    2AU     LIG  690  26.867  39.439   7.868
    2AU       S  691  28.727  40.972   7.836
    2AU     LIG  692  28.275  41.058   7.881
    2AU     LIG  693  28.064  40.937   8.255
    2AU     LIG  694  27.947  41.156   8.636
    2AU       S  695  29.293  41.158   7.871
    2AU     LIG  696  29.511  41.222   8.246
    2AU     LIG  697  29.488  41.668   8.322
    2AU     LIG  698  29.124  41.941   8.368
    2AU       S  699  29.438  41.312   7.743
    2AU     LIG  700  29.169  41.671   7.862
    2AU     LIG  701  28.978  42.102   7.905
    2AU     LIG  702  29.117  42.545   7.939
    2AU       S  703  29.325  41.090   7.044
    2AU     LIG  704  29.287  41.494   7.253
    2AU     LIG  705  29.494  41.862   7.085
    2AU     LIG  706  29.850  42.092   6.877
    2AU       S  707  29.793  40.733   8.346
    2AU     LIG  708  30.045  41.096   8.466
    2AU     LIG  709  30.236  41.177   8.868
    2AU     LIG  710  30.296  40.856   9.204
    2AU       S  711  29.586  41.144   7.527
    2AU     LIG  712  29.704  41.641   7.517
    2AU     LIG  713  29.623  41.925   7.881
    2AU     LIG  714  29.486  42.258   8.187
    2AU       S  715  29.217  38.860   8.112
    2AU     LIG  716  29.528  38.566   8.233
    2AU     LIG  717  29.497  38.148   8.369
    2AU     LIG  718  29.653  37.785   8.637
    2AU       S  719  29.786  39.173   8.009
    2AU     LIG  720  29.888  38.772   7.881
    2AU     LIG  721  29.936  38.323   7.991
    2AU     LIG  722  30.305  38.025   8.063
    2AU       S  723  29.033  38.777   7.953
    2AU     LIG  724  29.018  38.311   7.840
    2AU     LIG  725  29.104  37.871   8.020
    2AU     LIG  726  29.164  37.708   8.435
    2AU       S  727  28.796  39.423   8.498
    2AU     LIG  728  28.525  39.207   8.827
    2AU     LIG  729  28.162  38.993   8.628
    2AU     LIG  730  27.869  38.699   8.829
    2AU       S  731  29.488  38.842   7.329
    2AU     LIG  732  29.183  38.461   7.330
    2AU     LIG  733  29.000  38.161   7.066
    2AU     LIG  734  29.257  37.836   6.882
    2AU       S  735  29.375  38.909   7.891
    2AU     LIG  736  29.452  38.546   7.738
    2AU     LIG  737  29.506  38.104   7.806
    2AU     LIG  738  29.679  37.782   8.093
    2AU       S  739  29.181  40.998   6.758
    2AU     LIG  740  29.205  41.454   6.737
    2AU     LIG  741  29.568  41.721   6.601
    2AU     LIG  742  29.616  42.143   6.414
    2AU       S  743  29.969  40.836   7.119
    2AU     LIG  744  30.291  41.130   6.907
    2AU     LIG  745  30.529  41.256   6.508
    2AU     LIG  746  30.894  41.510   6.308
    2AU       S  747  28.978  41.013   7.006
    2AU     LIG  748  28.800  41.384   7.159
    2AU     LIG  749  28.776  41.738   6.889
    2AU     LIG  750  29.119  41.950   6.670
    2AU       S  751  28.555  40.403   6.615
    2AU     LIG  752  28.610  40.849   6.412
    2AU     LIG  753  28.485  41.321   6.307
    2AU     LIG  754  28.318  41.777   6.250
    2AU       S  755  28.578  39.151   7.157
    2AU     LIG  756  28.117  39.097   7.134
    2AU     LIG  757  27.856  38.893   6.816
    2AU     LIG  758  28.004  38.647   6.440
    2AU       S  759  29.457  38.851   7.163
    2AU     LIG  760  29.585  38.833   6.709
    2AU     LIG  761  29.669  38.424   6.440
    2AU     LIG  762  29.564  37.948   6.490
    2AU       S  763  29.734  38.976   7.448
    2AU     LIG  764  29.999  38.818   7.153
    2AU     LIG  765  29.814  38.498   6.984
    2AU     LIG  766  29.450  38.316   6.890
    2AU       S  767  29.956  39.411   6.733
    2AU     LIG  768  29.735  39.240   6.435
    2AU     LIG  769  29.842  38.852   6.189
    2AU     LIG  770  30.077  38.490   5.972
    3AU     AUC  771  16.004  33.442   7.536
    3AU     AUC  772  16.262  33.441   7.370
    3AU     AUC  773  16.244  33.437   7.706
    3AU     AUC  774  15.734  33.438   7.378
    3AU     AUC  775  15.751  33.486   7.704
    3AU     AUC  776  15.848  33.704   7.501
    3AU     AUC  777  16.189  33.709   7.509
    3AU     AUC  778  15.827  33.186   7.558
    3AU     AUC  779  16.162  33.169   7.555
    3AU     AUC  780  15.995  33.294   7.813
    3AU     AUC  781  16.012  33.638   7.780
    3AU     AUC  782  16.002  33.257   7.285
    3AU     AUC  783  16.019  33.570   7.263
    3AU     AUC  784  16.578  33.441   7.214
    3AU     AUC  785  16.564  33.419   7.554
    3AU     AUC  786  16.522  33.414   7.910
    3AU     AUC  787  15.434  33.403   7.236
    3AU     AUC  788  15.432  33.483   7.563
    3AU     AUC  789  15.457  33.541   7.882
    3AU     AUC  790  15.689  34.007   7.441
    3AU     AUC  791  16.048  33.993   7.430
    3AU     AUC  792  16.385  33.982   7.469
    3AU     AUC  793  15.634  32.904   7.577
    3AU     AUC  794  15.983  32.879   7.556
    3AU     AUC  795  16.335  32.871   7.567
    3AU     AUC  796  15.966  33.135   8.114
    3AU     AUC  797  15.987  33.487   8.100
    3AU     AUC  798  16.047  33.845   8.060
    3AU     AUC  799  16.037  33.068   7.006
    3AU     AUC  800  15.991  33.397   6.960
    3AU     AUC  801  15.984  33.715   6.950
    3AU     AUC  802  16.236  33.253   8.024
    3AU     AUC  803  16.290  33.614   8.000
    3AU     AUC  804  16.310  33.273   7.078
    3AU     AUC  805  16.282  33.590   7.085
    3AU     AUC  806  15.706  33.359   8.014
    3AU     AUC  807  15.749  33.713   7.965
    3AU     AUC  808  15.723  33.219   7.114
    3AU     AUC  809  15.688  33.529   7.070
    3AU     AUC  810  16.502  33.711   7.350
    3AU     AUC  811  16.448  33.703   7.701
    3AU     AUC  812  15.545  33.716   7.362
    3AU     AUC  813  15.589  33.804   7.689
    3AU     AUC  814  16.467  33.156   7.401
    3AU     AUC  815  16.416  33.125   7.748
    3AU     AUC  816  15.533  33.138   7.411
    3AU     AUC  817  15.555  33.216   7.744
    3AU     AUC  818  15.901  33.947   7.758
    3AU     AUC  819  16.224  33.912   7.781
    3AU     AUC  820  15.807  33.019   7.844
    3AU     AUC  821  16.120  32.965   7.831
    3AU     AUC  822  15.822  33.859   7.190
    3AU     AUC  823  16.184  33.885   7.203
    3AU     AUC  824  15.842  32.969   7.281
    3AU     AUC  825  16.215  33.002   7.280
    3AU    AUSL  826  16.486  33.354   8.313
    3AU    AUSL  827  16.253  32.969   8.234
    3AU     AUL  828  16.564  33.014   8.419
    3AU    AUSL  829  16.075  33.298   8.436
    3AU    AUSL  830  15.843  33.693   8.425
    3AU     AUL  831  16.069  33.597   8.708
    3AU    AUSL  832  16.189  33.658   8.198
    3AU    AUSL  833  16.634  33.700   8.119
    3AU     AUL  834  16.468  33.664   8.463
    3AU    AUSL  835  16.442  33.467   6.886
    3AU    AUSL  836  16.303  33.861   6.971
    3AU     AUL  837  16.509  33.795   6.684
    3AU    AUSL  838  16.266  33.184   6.624
    3AU    AUSL  839  16.747  33.207   7.002
    3AU     AUL  840  16.650  33.336   6.661
    3AU    AUSL  841  16.079  33.602   6.706
    3AU    AUSL  842  15.894  33.211   6.818
    3AU     AUL  843  15.991  33.254   6.493
    3AU    AUSL  844  15.459  33.655   8.217
    3AU    AUSL  845  15.801  33.968   8.107
    3AU     AUL  846  15.630  33.943   8.433
    3AU    AUSL  847  15.742  33.344   8.189
    3AU    AUSL  848  15.330  33.230   8.148
    3AU     AUL  849  15.256  33.454   8.293
    3AU    AUSL  850  15.466  33.212   6.821
    3AU    AUSL  851  15.698  32.888   7.000
    3AU     AUL  852  15.738  32.905   6.669
    3AU    AUSL  853  15.657  33.561   6.668
    3AU    AUSL  854  15.362  33.576   7.029
    3AU     AUL  855  15.242  33.412   6.775
    3AU    AUSL  856  16.780  33.910   7.502
    3AU    AUSL  857  16.708  33.718   7.095
    3AU     AUL  858  17.049  33.910   7.183
    3AU    AUSL  859  16.946  33.523   7.392
    3AU    AUSL  860  16.901  33.224   7.770
    3AU     AUL  861  17.196  33.322   7.570
    3AU    AUSL  862  16.668  33.564   7.726
    3AU    AUSL  863  16.501  33.967   7.805
    3AU     AUL  864  16.870  33.727   7.867
    3AU    AUSL  865  15.435  34.078   7.485
    3AU    AUSL  866  15.469  33.865   7.854
    3AU     AUL  867  15.153  34.111   7.683
    3AU    AUSL  868  15.261  33.684   7.420
    3AU    AUSL  869  15.396  33.997   7.079
    3AU     AUL  870  15.143  33.919   7.227
    3AU    AUSL  871  15.106  33.675   7.832
    3AU    AUSL  872  15.079  33.308   7.402
    3AU     AUL  873  14.909  33.645   7.531
    3AU    AUSL  874  16.675  32.879   7.630
    3AU    AUSL  875  16.519  33.157   7.945
    3AU     AUL  876  16.827  33.064   8.020
    3AU    AUSL  877  16.650  33.235   7.405
    3AU    AUSL  878  16.636  32.830   7.207
    3AU     AUL  879  16.905  33.044   7.286
    3AU    AUSL  880  15.252  32.943   7.597
    3AU    AUSL  881  15.416  33.136   7.225
    3AU     AUL  882  15.045  33.025   7.276
    3AU    AUSL  883  15.332  33.338   7.746
    3AU    AUSL  884  15.553  32.969   7.896
    3AU     AUL  885  15.232  32.953   7.930
    3AU    AUSL  886  16.087  34.221   7.922
    3AU    AUSL  887  15.645  34.256   7.816
    3AU     AUL  888  15.862  34.301   8.192
    3AU    AUSL  889  15.924  34.135   7.537
    3AU    AUSL  890  16.161  34.254   7.194
    3AU     AUL  891  15.916  34.488   7.468
    3AU    AUSL  892  16.343  34.281   7.577
    3AU    AUSL  893  16.351  34.041   8.195
    3AU     AUL  894  16.446  34.304   7.937
    3AU    AUSL  895  15.943  32.800   7.993
    3AU    AUSL  896  16.362  32.760   7.879
    3AU     AUL  897  16.113  32.674   8.250
    3AU    AUSL  898  15.643  32.599   7.728
    3AU    AUSL  899  15.715  32.953   8.307
    3AU     AUL  900  15.622  32.662   8.079
    3AU    AUSL  901  16.074  32.519   7.697
    3AU    AUSL  902  15.861  32.741   7.391
    3AU     AUL  903  15.760  32.387   7.492
    3AU    AUSL  904  15.990  34.085   6.813
    3AU    AUSL  905  16.548  34.105   7.217
    3AU     AUL  906  16.323  34.200   6.881
    3AU    AUSL  907  15.744  34.203   7.163
    3AU    AUSL  908  15.756  33.789   6.994
    3AU     AUL  909  15.662  34.062   6.797
    3AU    AUSL  910  16.072  32.692   7.016
    3AU    AUSL  911  15.455  32.709   7.311
    3AU     AUL  912  15.731  32.554   7.062
    3AU    AUSL  913  16.286  32.732   7.403
    3AU    AUSL  914  16.317  33.036   7.010
    3AU     AUL  915  16.394  32.668   7.016
    3AU       S  916  16.560  32.564   8.280
    3AU     LIG  917  16.717  32.142   8.303
    3AU     LIG  918  16.716  31.852   8.628
    3AU     LIG  919  17.024  31.858   8.955
    3AU       S  920  16.425  33.285   8.765
    3AU     LIG  921  16.843  33.373   8.696
    3AU     LIG  922  17.057  33.461   9.096
    3AU     LIG  923  16.996  33.357   9.557
    3AU       S  924  16.087  33.123   8.654
    3AU     LIG  925  16.113  33.139   9.129
    3AU     LIG  926  16.502  33.121   9.430
    3AU     LIG  927  16.783  32.927   9.777
    3AU       S  928  15.625  33.492   8.642
    3AU     LIG  929  15.717  33.492   9.084
    3AU     LIG  930  15.387  33.434   9.383
    3AU     LIG  931  15.179  33.491   9.807
    3AU       S  932  16.101  34.052   8.571
    3AU     LIG  933  16.341  34.410   8.658
    3AU     LIG  934  16.728  34.276   8.836
    3AU     LIG  935  16.897  33.872   8.790
    3AU       S  936  16.822  33.930   8.285
    3AU     LIG  937  17.214  34.006   8.410
    3AU     LIG  938  17.223  34.349   8.680
    3AU     LIG  939  17.470  34.657   8.904
    3AU       S  940  16.361  33.564   6.322
    3AU     LIG  941  16.769  33.576   6.089
    3AU     LIG  942  16.972  33.202   5.954
    3AU     LIG  943  16.856  32.800   5.778
    3AU       S  944  16.771  34.184   6.812
    3AU     LIG  945  16.858  34.499   6.510
    3AU     LIG  946  17.112  34.547   6.147
    3AU     LIG  947  17.341  34.847   5.921
    3AU       S  948  16.908  32.963   6.800
    3AU     LIG  949  16.934  32.837   6.320
    3AU     LIG  950  16.898  32.418   6.156
    3AU     LIG  951  17.021  31.977   6.299
    3AU       S  952  16.369  33.385   6.285
    3AU     LIG  953  16.455  33.014   6.099
    3AU     LIG  954  16.358  32.881   5.667
    3AU     LIG  955  16.625  32.933   5.288
    3AU       S  956  15.560  33.226   6.344
    3AU     LIG  957  15.835  33.045   6.038
    3AU     LIG  958  15.850  33.024   5.573
    3AU     LIG  959  15.544  33.098   5.233
    3AU       S  960  16.106  33.707   6.446
    3AU     LIG  961  15.912  33.553   6.075
    3AU     LIG  962  16.180  33.360   5.789
    3AU     LIG  963  16.602  33.335   5.630
    3AU       S  964  15.424  33.610   8.692
    3AU     LIG  965  15.144  33.314   8.788
    3AU     LIG  966  15.157  33.016   9.097
    3AU     LIG  967  15.093  33.043   9.545
    3AU       S  968  15.383  34.254   8.186
    3AU     LIG  969  15.245  34.522   8.467
    3AU     LIG  970  14.944  34.593   8.789
    3AU     LIG  971  14.608  34.720   9.067
    3AU       S  972  15.243  33.001   8.418
    3AU     LIG  973  14.823  32.963   8.248
    3AU     LIG  974  14.655  32.531   8.164
    3AU     LIG  975  14.409  32.119   8.180
    3AU       S  976  15.610  33.322   8.583
    3AU     LIG  977  15.642  33.028   8.920
    3AU     LIG  978  15.612  32.967   9.362
    3AU     LIG  979  15.557  33.129   9.789
    3AU       S  980  15.396  33.135   6.449
    3AU     LIG  981  15.295  32.811   6.180
    3AU     LIG  982  15.360  32.959   5.750
    3AU     LIG  983  15.329  33.390   5.596
    3AU       S  984  15.344  32.716   6.835
    3AU     LIG  985  15.131  32.457   6.539
    3AU     LIG  986  14.889  32.304   6.164
    3AU     LIG  987  14.574  32.233   5.822
    3AU       S  988  15.083  33.837   6.738
    3AU     LIG  989  14.730  34.033   6.650
    3AU     LIG  990  14.791  34.447   6.493
    3AU     LIG  991  14.897  34.605   6.073
    3AU       S  992  15.587  33.507   6.454
    3AU     LIG  993  15.410  33.723   6.153
    3AU     LIG  994  15.590  33.807   5.745
    3AU     LIG  995  15.813  33.531   5.443
    3AU       S  996  16.856  34.063   6.810
    3AU     LIG  997  17.286  34.202   6.770
    3AU     LIG  998  17.495  34.271   6.363
    3AU     LIG  999  17.580  34.384   5.922
    3AU       S 1000  16.933  34.116   7.592
    3AU     LIG 1001  17.252  34.349   7.361
    3AU     LIG 1002  17.672  34.413   7.548
    3AU     LIG 1003  17.952  34.629   7.864
    3AU       S 1004  17.247  33.792   7.585
    3AU     LIG 1005  17.576  33.954   7.310
    3AU     LIG 1006  17.983  34.108   7.123
    3AU     LIG 1007  18.364  34.360   6.959
    3AU       S 1008  17.151  32.878   7.752
    3AU     LIG 1009  17.439  32.757   8.041
    3AU     LIG 1010  17.845  32.565   8.054
    3AU     LIG 1011  18.277  32.663   7.947
    3AU       S 1012  16.849  34.142   8.086
    3AU     LIG 1013  17.200  34.434   8.125
    3AU     LIG 1014  17.276  34.808   8.414
    3AU     LIG 1015  17.282  35.115   8.792
    3AU       S 1016  17.192  33.994   7.709
    3AU     LIG 1017  17.595  34.043   7.895
    3AU     LIG 1018  18.053  34.114   7.795
    3AU     LIG 1019  18.482  34.343   7.834
    3AU       S 1020  15.301  34.079   8.115
    3AU     LIG 1021  15.082  33.942   8.454
    3AU     LIG 1022  14.703  34.170   8.539
    3AU     LIG 1023  14.247  34.233   8.635
    3AU       S 1024  15.381  34.410   7.394
    3AU     LIG 1025  15.195  34.765   7.244
    3AU     LIG 1026  15.003  34.720   6.884
    3AU     LIG 1027  14.741  34.371   7.017
    3AU       S 1028  14.875  33.558   7.068
    3AU     LIG 1029  14.559  33.357   6.838
    3AU     LIG 1030  14.164  33.587   6.831
    3AU     LIG 1031  14.234  33.996   7.012
    3AU       S 1032  15.248  34.254   6.909
    3AU     LIG 1033  15.425  34.507   6.642
    3AU     LIG 1034  15.238  34.801   6.430
    3AU     LIG 1035  15.188  35.098   6.127
    3AU       S 1036  14.856  33.204   7.685
    3AU     LIG 1037  14.561  33.301   7.369
    3AU     LIG 1038  14.200  33.176   7.162
    3AU     LIG 1039  13.782  33.079   7.227
    3AU       S 1040  14.986  33.729   7.998
    3AU     LIG 1041  14.732  33.580   8.279
    3AU     LIG 1042  14.375  33.877   8.254
    3AU     LIG 1043  14.377  34.324   8.105
    3AU       S 1044  16.837  32.727   7.649
    3AU     LIG 1045  16.949  32.335   7.526
    3AU     LIG 1046  17.395  32.235   7.647
    3AU     LIG 1047  17.731  31.985   7.417
    3AU       S 1048  16.725  32.644   8.143
    3AU     LIG 1049  17.050  32.433   8.010
    3AU     LIG 1050  17.434  32.261   8.207
    3AU     LIG 1051  17.543  32.104   8.652
    3AU       S 1052  17.129  32.812   7.600
    3AU     LIG 1053  17.244  32.642   7.247
    3AU     LIG 1054  17.645  32.456   7.217
    3AU     LIG 1055  18.023  32.253   7.066
    3AU       S 1056  16.850  32.725   6.928
    3AU     LIG 1057  16.834  32.360   6.709
    3AU     LIG 1058  16.831  31.913   6.775
    3AU     LIG 1059  16.756  31.555   6.519
    3AU       S 1060  15.226  32.829   6.907
    3AU     LIG 1061  14.935  33.007   6.706
    3AU     LIG 1062  14.734  32.761   6.394
    3AU     LIG 1063  14.376  32.539   6.193
    3AU       S 1064  14.826  32.974   7.700
    3AU     LIG 1065  14.564  32.796   7.333
    3AU     LIG 1066  14.162  32.676   7.085
    3AU     LIG 1067  13.704  32.571   7.204
    3AU       S 1068  15.267  32.779   8.354
    3AU     LIG 1069  15.168  32.426   8.103
    3AU     LIG 1070  14.916  32.036   8.191
    3AU     LIG 1071  14.801  31.593   8.283
    3AU       S 1072  14.896  33.257   7.852
    3AU     LIG 1073  14.471  33.473   7.844
    3AU     LIG 1074  14.118  33.199   7.686
    3AU     LIG 1075  14.082  32.759   7.573
    3AU       S 1076  15.557  34.421   7.852
    3AU     LIG 1077  15.197  34.605   7.875
    3AU     LIG 1078  14.841  34.531   8.157
    3AU     LIG 1079  14.528  34.654   8.500
    3AU       S 1080  16.081  34.584   7.889
    3AU     LIG 1081  16.259  34.748   8.246
    3AU     LIG 1082  16.032  35.172   8.271
    3AU     LIG 1083  15.597  35.355   8.401
    3AU       S 1084  16.159  34.784   7.757
    3AU     LIG 1085  15.734  34.965   7.785
    3AU     LIG 1086  15.726  35.424   7.912
    3AU     LIG 1087  15.964  35.711   8.209
    3AU       S 1088  16.049  34.555   7.017
    3AU     LIG 1089  16.180  34.884   7.205
    3AU     LIG 1090  16.268  35.268   7.056
    3AU     LIG 1091  16.290  35.681   6.871
    3AU       S 1092  16.610  34.126   8.349
    3AU     LIG 1093  16.776  34.545   8.399
    3AU     LIG 1094  16.913  34.751   8.786
    3AU     LIG 1095  17.039  34.556   9.181
    3AU       S 1096  16.364  34.610   7.584
    3AU     LIG 1097  16.430  35.134   7.572
    3AU     LIG 1098  16.298  35.445   7.872
    3AU     LIG 1099  16.492  35.837   8.042
    3AU       S 1100  15.917  32.287   8.080
    3AU     LIG 1101  16.253  31.981   8.159
    3AU     LIG 1102  16.376  31.587   8.321
    3AU     LIG 1103  16.144  31.241   8.515
    3AU       S 1104  16.503  32.613   7.990
    3AU     LIG 1105  16.556  32.273   7.835
    3AU     LIG 1106  16.710  31.914   7.835
    3AU     LIG 1107  17.093  31.934   8.009
    3AU       S 1108  15.715  32.230   7.924
    3AU     LIG 1109  15.777  31.806   7.884
    3AU     LIG 1110  15.803  31.469   8.181
    3AU     LIG 1111  15.633  31.179   8.500
    3AU       S 1112  15.508  32.867   8.486
    3AU     LIG 1113  15.274  32.593   8.798
    3AU     LIG 1114  14.911  32.335   8.612
    3AU     LIG 1115  14.610  31.943   8.628
    3AU       S 1116  16.167  32.291   7.297
    3AU     LIG 1117  15.880  31.916   7.285
    3AU     LIG 1118  15.970  31.643   6.966
    3AU     LIG 1119  16.168  31.264   6.961
    3AU       S 1120  16.067  32.339   7.857
    3AU     LIG 1121  16.212  31.957   7.659
    3AU     LIG 1122  16.290  31.551   7.817
    3AU     LIG 1123  16.165  31.157   8.002
    3AU       S 1124  15.931  34.450   6.759
    3AU     LIG 1125  15.808  34.876   6.656
    3AU     LIG 1126  16.052  35.292   6.588
    3AU     LIG 1127  16.357  35.566   6.364
    3AU       S 1128  16.735  34.274   7.123
    3AU     LIG 1129  17.051  34.609   6.966
    3AU     LIG 1130  17.337  34.714   6.594
    3AU     LIG 1131  17.710  34.734   6.285
    3AU       S 1132  15.731  34.470   7.031
    3AU     LIG 1133  15.684  34.862   7.219
    3AU     LIG 1134  15.738  35.231   7.000
    3AU     LIG 1135  15.549  35.391   6.604
    3AU       S 1136  15.282  33.882   6.639
    3AU     LIG 1137  15.201  34.189   6.318
    3AU     LIG 1138  15.408  34.518   6.045
    3AU     LIG 1139  15.657  34.921   6.014
    3AU       S 1140  15.259  32.624   7.130
    3AU     LIG 1141  14.813  32.548   6.940
    3AU     LIG 1142  14.613  32.293   6.597
    3AU     LIG 1143  14.418  32.011   6.274
    3AU       S 1144  16.130  32.319   7.149
    3AU     LIG 1145  16.371  32.132   6.849
    3AU     LIG 1146  16.306  31.752   6.602
    3AU     LIG 1147  16.048  31.398   6.467
    3AU       S 1148  16.415  32.401   7.394
    3AU     LIG 1149  16.599  31.991   7.301
    3AU     LIG 1150  16.539  31.593   7.041
    3AU     LIG 1151  16.665  31.164   6.849
    3AU       S 1152  16.630  32.867   6.689
    3AU     LIG 1153  16.410  32.561   6.500
    3AU     LIG 1154  16.523  32.133   6.351
    3AU     LIG 1155  16.605  31.770   6.069
    4AU     AUC 1156  22.084  10.614   7.523
    4AU     AUC 1157  22.341  10.615   7.356
    4AU     AUC 1158  22.326  10.619   7.693
    4AU     AUC 1159  21.816  10.600   7.366
    4AU     AUC 1160  21.832  10.655   7.690
    4AU     AUC 1161  21.920  10.870   7.482
    4AU     AUC 1162  22.260  10.884   7.489
    4AU     AUC 1163  21.916  10.353   7.551
    4AU     AUC 1164  22.249  10.344   7.548
    4AU     AUC 1165  22.080  10.473   7.803
    4AU     AUC 1166  22.088  10.816   7.762
    4AU     AUC 1167  22.087  10.423   7.275
    4AU     AUC 1168  22.094  10.736   7.248
    4AU     AUC 1169  22.656  10.619   7.198
    4AU     AUC 1170  22.645  10.603   7.539
    4AU     AUC 1171  22.607  10.605   7.896
    4AU     AUC 1172  21.515  10.552   7.225
    4AU     AUC 1173  21.511  10.638   7.548
    4AU     AUC 1174  21.535  10.706   7.869
    4AU     AUC 1175  21.751  11.169   7.417
    4AU     AUC 1176  22.111  11.164   7.406
    4AU     AUC 1177  22.449  11.158   7.443
    4AU     AUC 1178  21.732  10.066   7.577
    4AU     AUC 1179  22.079  10.050   7.557
    4AU     AUC 1180  22.428  10.050   7.566
    4AU     AUC 1181  22.056  10.322   8.108
    4AU     AUC 1182  22.069  10.675   8.086
    4AU     AUC 1183  22.119  11.033   8.037
    4AU     AUC 1184  22.126  10.229   6.998
    4AU     AUC 1185  22.070  10.556   6.947
    4AU     AUC 1186  22.053  10.873   6.933
    4AU     AUC 1187  22.322  10.444   8.014
    4AU     AUC 1188  22.369  10.803   7.980
    4AU     AUC 1189  22.393  10.445   7.066
    4AU     AUC 1190  22.356  10.757   7.068
    4AU     AUC 1191  21.790  10.539   8.003
    4AU     AUC 1192  21.823  10.891   7.946
    4AU     AUC 1193  21.810  10.373   7.106
    4AU     AUC 1194  21.764  10.683   7.057
    4AU     AUC 1195  22.575  10.888   7.330
    4AU     AUC 1196  22.523  10.886   7.679
    4AU     AUC 1197  21.616  10.871   7.343
    4AU     AUC 1198  21.656  10.965   7.669
    4AU     AUC 1199  22.550  10.336   7.395
    4AU     AUC 1200  22.502  10.308   7.743
    4AU     AUC 1201  21.626  10.291   7.403
    4AU     AUC 1202  21.647  10.383   7.734
    4AU     AUC 1203  21.964  11.121   7.735
    4AU     AUC 1204  22.291  11.094   7.756
    4AU     AUC 1205  21.900  10.193   7.842
    4AU     AUC 1206  22.211  10.145   7.829
    4AU     AUC 1207  21.889  11.020   7.169
    4AU     AUC 1208  22.251  11.053   7.182
    4AU     AUC 1209  21.939  10.129   7.277
    4AU     AUC 1210  22.307  10.174   7.276
    4AU    AUSL 1211  22.573  10.556   8.298
    4AU    AUSL 1212  22.341  10.167   8.228
    4AU     AUL 1213  22.654  10.213   8.409
    4AU    AUSL 1214  22.164  10.498   8.427
    4AU    AUSL 1215  21.924  10.888   8.407
    4AU     AUL 1216  22.157  10.809   8.693
    4AU    AUSL 1217  22.268  10.853   8.178
    4AU    AUSL 1218  22.713  10.900   8.095
    4AU     AUL 1219  22.550  10.872   8.438
    4AU    AUSL 1220  22.519  10.637   6.861
    4AU    AUSL 1221  22.365  11.024   6.953
    4AU     AUL 1222  22.563  10.962   6.661
    4AU    AUSL 1223  22.347  10.340   6.613
    4AU    AUSL 1224  22.832  10.394   6.997
    4AU     AUL 1225  22.727  10.510   6.643
    4AU    AUSL 1226  22.147  10.756   6.691
    4AU    AUSL 1227  21.975  10.364   6.809
    4AU     AUL 1228  22.072  10.401   6.481
    4AU    AUSL 1229  21.538  10.835   8.205
    4AU    AUSL 1230  21.864  11.145   8.078
    4AU     AUL 1231  21.696  11.133   8.407
    4AU    AUSL 1232  21.830  10.530   8.181
    4AU    AUSL 1233  21.420  10.410   8.137
    4AU     AUL 1234  21.348  10.624   8.292
    4AU    AUSL 1235  21.547  10.352   6.816
    4AU    AUSL 1236  21.795  10.035   6.996
    4AU     AUL 1237  21.817  10.054   6.670
    4AU    AUSL 1238  21.727  10.704   6.658
    4AU    AUSL 1239  21.437  10.719   7.018
    4AU     AUL 1240  21.314  10.545   6.768
    4AU    AUSL 1241  22.855  11.095   7.473
    4AU    AUSL 1242  22.777  10.894   7.070
    4AU     AUL 1243  23.111  11.087   7.147
    4AU    AUSL 1244  23.022  10.708   7.366
    4AU    AUSL 1245  22.988  10.414   7.760
    4AU     AUL 1246  23.258  10.524   7.556
    4AU    AUSL 1247  22.752  10.751   7.707
    4AU    AUSL 1248  22.569  11.149   7.770
    4AU     AUL 1249  22.943  10.930   7.844
    4AU    AUSL 1250  21.495  11.230   7.458
    4AU    AUSL 1251  21.532  11.024   7.831
    4AU     AUL 1252  21.211  11.247   7.652
    4AU    AUSL 1253  21.327  10.832   7.405
    4AU    AUSL 1254  21.462  11.143   7.053
    4AU     AUL 1255  21.209  11.059   7.199
    4AU    AUSL 1256  21.176  10.818   7.823
    4AU    AUSL 1257  21.166  10.447   7.383
    4AU     AUL 1258  20.983  10.783   7.516
    4AU    AUSL 1259  22.765  10.063   7.627
    4AU    AUSL 1260  22.607  10.348   7.935
    4AU     AUL 1261  22.915  10.257   8.010
    4AU    AUSL 1262  22.731  10.415   7.398
    4AU    AUSL 1263  22.733  10.012   7.203
    4AU     AUL 1264  22.984  10.226   7.287
    4AU    AUSL 1265  21.352  10.092   7.597
    4AU    AUSL 1266  21.515  10.284   7.222
    4AU     AUL 1267  21.154  10.159   7.258
    4AU    AUSL 1268  21.418  10.496   7.728
    4AU    AUSL 1269  21.648  10.142   7.897
    4AU     AUL 1270  21.327  10.144   7.942
    4AU    AUSL 1271  22.144  11.406   7.895
    4AU    AUSL 1272  21.693  11.421   7.787
    4AU     AUL 1273  21.899  11.487   8.149
    4AU    AUSL 1274  21.981  11.305   7.514
    4AU    AUSL 1275  22.217  11.421   7.168
    4AU     AUL 1276  21.957  11.657   7.449
    4AU    AUSL 1277  22.397  11.459   7.547
    4AU    AUSL 1278  22.425  11.237   8.158
    4AU     AUL 1279  22.519  11.488   7.882
    4AU    AUSL 1280  22.038   9.972   7.998
    4AU    AUSL 1281  22.458   9.945   7.884
    4AU     AUL 1282  22.215   9.869   8.261
    4AU    AUSL 1283  21.745   9.772   7.733
    4AU    AUSL 1284  21.814  10.141   8.306
    4AU     AUL 1285  21.704   9.841   8.080
    4AU    AUSL 1286  22.177   9.695   7.701
    4AU    AUSL 1287  21.962   9.902   7.390
    4AU     AUL 1288  21.848   9.544   7.510
    4AU    AUSL 1289  22.053  11.245   6.790
    4AU    AUSL 1290  22.607  11.278   7.193
    4AU     AUL 1291  22.383  11.368   6.852
    4AU    AUSL 1292  21.802  11.364   7.137
    4AU    AUSL 1293  21.828  10.945   6.975
    4AU     AUL 1294  21.731  11.211   6.768
    4AU    AUSL 1295  22.179   9.859   7.015
    4AU    AUSL 1296  21.557   9.860   7.311
    4AU     AUL 1297  21.852   9.703   7.073
    4AU    AUSL 1298  22.387   9.905   7.404
    4AU    AUSL 1299  22.410  10.212   7.005
    4AU     AUL 1300  22.505   9.851   7.015
    4AU       S 1301  22.662   9.757   8.283
    4AU     LIG 1302  22.853   9.346   8.344
    4AU     LIG 1303  23.096   8.947   8.457
    4AU     LIG 1304  23.412   8.769   8.771
    4AU       S 1305  22.521  10.498   8.746
    4AU     LIG 1306  22.931  10.661   8.717
    4AU     LIG 1307  22.989  10.668   9.172
    4AU     LIG 1308  22.819  10.570   9.614
    4AU       S 1309  22.176  10.335   8.639
    4AU     LIG 1310  22.175  10.316   9.085
    4AU     LIG 1311  22.522  10.205   9.398
    4AU     LIG 1312  22.804  10.053   9.770
    4AU       S 1313  21.716  10.692   8.632
    4AU     LIG 1314  21.796  10.691   9.075
    4AU     LIG 1315  21.426  10.538   9.311
    4AU     LIG 1316  21.130  10.627   9.651
    4AU       S 1317  22.172  11.261   8.531
    4AU     LIG 1318  22.494  11.495   8.745
    4AU     LIG 1319  22.775  11.448   9.098
    4AU     LIG 1320  23.103  11.177   9.243
    4AU       S 1321  22.902  11.138   8.263
    4AU     LIG 1322  22.953  11.188   8.696
    4AU     LIG 1323  23.322  11.403   8.816
    4AU     LIG 1324  23.579  11.762   8.948
    4AU       S 1325  22.414  10.729   6.304
    4AU     LIG 1326  22.849  10.828   6.246
    4AU     LIG 1327  22.879  10.460   5.983
    4AU     LIG 1328  22.835  10.229   5.585
    4AU       S 1329  22.835  11.320   6.789
    4AU     LIG 1330  22.787  11.611   6.466
    4AU     LIG 1331  22.994  11.720   6.057
    4AU     LIG 1332  23.322  11.853   5.747
    4AU       S 1333  23.028  10.186   6.811
    4AU     LIG 1334  23.207   9.982   6.461
    4AU     LIG 1335  23.221   9.522   6.497
    4AU     LIG 1336  23.365   9.090   6.522
    4AU       S 1337  22.441  10.559   6.272
    4AU     LIG 1338  22.410  10.174   6.114
    4AU     LIG 1339  22.330  10.077   5.674
    4AU     LIG 1340  22.356  10.353   5.299
    4AU       S 1341  21.641  10.366   6.336
    4AU     LIG 1342  21.895  10.241   5.994
    4AU     LIG 1343  21.884  10.352   5.554
    4AU     LIG 1344  21.616  10.299   5.188
    4AU       S 1345  22.160  10.862   6.431
    4AU     LIG 1346  21.971  10.736   6.054
    4AU     LIG 1347  22.288  10.583   5.775
    4AU     LIG 1348  22.677  10.715   5.556
    4AU       S 1349  21.506  10.806   8.684
    4AU     LIG 1350  21.221  10.506   8.780
    4AU     LIG 1351  21.137  10.147   9.014
    4AU     LIG 1352  21.054  10.153   9.462
    4AU       S 1353  21.421  11.413   8.151
    4AU     LIG 1354  21.336  11.514   8.549
    4AU     LIG 1355  21.081  11.369   8.882
    4AU     LIG 1356  20.682  11.480   9.073
    4AU       S 1357  21.352  10.175   8.435
    4AU     LIG 1358  20.935  10.200   8.273
    4AU     LIG 1359  20.582   9.924   8.318
    4AU     LIG 1360  20.427   9.583   8.578
    4AU       S 1361  21.702  10.514   8.584
    4AU     LIG 1362  21.651  10.232   8.945
    4AU     LIG 1363  21.546  10.043   9.357
    4AU     LIG 1364  21.449  10.225   9.796
    4AU       S 1365  21.483  10.283   6.435
    4AU     LIG 1366  21.314  10.030   6.119
    4AU     LIG 1367  21.363  10.194   5.686
    4AU     LIG 1368  21.435  10.630   5.542
    4AU       S 1369  21.452   9.802   6.840
    4AU     LIG 1370  21.271   9.601   6.476
    4AU     LIG 1371  21.047   9.580   6.077
    4AU     LIG 1372  20.741   9.302   5.875
    4AU       S 1373  21.149  10.967   6.715
    4AU     LIG 1374  20.847  11.259   6.832
    4AU     LIG 1375  20.902  11.708   6.702
    4AU     LIG 1376  20.814  12.029   6.365
    4AU       S 1377  21.663  10.648   6.446
    4AU     LIG 1378  21.436  10.828   6.156
    4AU     LIG 1379  21.593  11.045   5.808
    4AU     LIG 1380  21.911  10.881   5.526
    4AU       S 1381  22.944  11.200   6.747
    4AU     LIG 1382  23.143  11.245   6.353
    4AU     LIG 1383  23.426  11.434   6.041
    4AU     LIG 1384  23.788  11.715   5.964
    4AU       S 1385  23.007  11.306   7.557
    4AU     LIG 1386  23.340  11.486   7.311
    4AU     LIG 1387  23.736  11.284   7.434
    4AU     LIG 1388  24.136  11.310   7.594
    4AU       S 1389  23.320  10.985   7.545
    4AU     LIG 1390  23.579  10.871   7.177
    4AU     LIG 1391  24.067  10.893   7.170
    4AU     LIG 1392  24.474  11.016   6.924
    4AU       S 1393  23.242  10.080   7.736
    4AU     LIG 1394  23.378  10.039   8.135
    4AU     LIG 1395  23.838  10.094   8.136
    4AU     LIG 1396  24.081  10.073   7.744
    4AU       S 1397  22.921  11.345   8.060
    4AU     LIG 1398  23.329  11.435   8.272
    4AU     LIG 1399  23.415  11.855   8.477
    4AU     LIG 1400  23.329  12.226   8.764
    4AU       S 1401  23.281  11.159   7.670
    4AU     LIG 1402  23.564  11.023   7.991
    4AU     LIG 1403  24.015  11.116   8.052
    4AU     LIG 1404  24.257  11.548   8.035
    4AU       S 1405  21.337  11.233   8.094
    4AU     LIG 1406  21.093  11.075   8.443
    4AU     LIG 1407  20.652  11.233   8.607
    4AU     LIG 1408  20.326  11.585   8.713
    4AU       S 1409  21.423  11.560   7.355
    4AU     LIG 1410  21.228  11.982   7.402
    4AU     LIG 1411  20.869  12.032   7.154
    4AU     LIG 1412  20.636  11.621   7.142
    4AU       S 1413  20.939  10.692   7.056
    4AU     LIG 1414  20.476  10.676   6.996
    4AU     LIG 1415  20.074  10.886   7.120
    4AU     LIG 1416  20.197  11.282   7.118
    4AU       S 1417  21.320  11.393   6.876
    4AU     LIG 1418  21.439  11.742   6.661
    4AU     LIG 1419  21.204  12.126   6.709
    4AU     LIG 1420  20.769  12.352   6.764
    4AU       S 1421  20.945  10.335   7.656
    4AU     LIG 1422  20.643  10.337   7.358
    4AU     LIG 1423  20.207  10.466   7.368
    4AU     LIG 1424  19.818  10.433   7.066
    4AU       S 1425  21.043  10.850   7.993
    4AU     LIG 1426  20.657  10.909   8.194
    4AU     LIG 1427  20.342  11.236   8.191
    4AU     LIG 1428  20.380  11.681   8.199
    4AU       S 1429  22.929   9.914   7.647
    4AU     LIG 1430  23.009   9.555   7.422
    4AU     LIG 1431  23.408   9.403   7.514
    4AU     LIG 1432  23.774   9.669   7.471
    4AU       S 1433  22.835   9.833   8.135
    4AU     LIG 1434  23.164   9.595   7.947
    4AU     LIG 1435  23.473   9.369   8.136
    4AU     LIG 1436  23.505   9.242   8.572
    4AU       S 1437  23.220   9.993   7.592
    4AU     LIG 1438  23.357   9.892   7.209
    4AU     LIG 1439  23.759   9.892   7.001
    4AU     LIG 1440  24.166   9.658   7.053
    4AU       S 1441  22.959   9.921   6.910
    4AU     LIG 1442  22.873   9.496   6.910
    4AU     LIG 1443  22.884   9.054   6.735
    4AU     LIG 1444  22.983   8.668   6.474
    4AU       S 1445  21.339   9.950   6.893
    4AU     LIG 1446  21.045  10.049   6.622
    4AU     LIG 1447  20.735   9.746   6.465
    4AU     LIG 1448  20.307   9.711   6.292
    4AU       S 1449  20.949  10.095   7.687
    4AU     LIG 1450  20.529  10.009   7.797
    4AU     LIG 1451  20.244   9.714   7.589
    4AU     LIG 1452  20.105   9.538   7.177
    4AU       S 1453  21.370   9.974   8.370
    4AU     LIG 1454  21.176   9.713   8.086
    4AU     LIG 1455  20.823   9.522   8.100
    4AU     LIG 1456  20.393   9.529   8.034
    4AU       S 1457  20.962  10.391   7.815
    4AU     LIG 1458  20.548  10.613   7.784
    4AU     LIG 1459  20.144  10.426   7.871
    4AU     LIG 1460  19.948  10.028   7.883
    4AU       S 1461  21.564  11.590   7.824
    4AU     LIG 1462  21.129  11.691   7.855
    4AU     LIG 1463  20.889  11.502   8.206
    4AU     LIG 1464  20.815  11.718   8.602
    4AU       S 1465  22.142  11.763   7.860
    4AU     LIG 1466  22.344  11.765   8.267
    4AU     LIG 1467  22.427  12.211   8.390
    4AU     LIG 1468  22.248  12.637   8.490
    4AU       S 1469  22.286  11.917   7.754
    4AU     LIG 1470  21.980  12.264   7.768
    4AU     LIG 1471  21.927  12.619   8.078
    4AU     LIG 1472  22.241  12.978   8.114
    4AU       S 1473  22.123  11.724   7.015
    4AU     LIG 1474  22.042  12.120   7.234
    4AU     LIG 1475  22.103  12.573   7.195
    4AU     LIG 1476  22.462  12.807   6.998
    4AU       S 1477  22.661  11.334   8.305
    4AU     LIG 1478  22.907  11.661   8.478
    4AU     LIG 1479  23.042  11.820   8.874
    4AU     LIG 1480  23.198  11.697   9.294
    4AU       S 1481  22.412  11.775   7.511
    4AU     LIG 1482  22.441  12.296   7.504
    4AU     LIG 1483  22.417  12.520   7.914
    4AU     LIG 1484  22.726  12.639   8.217
    4AU       S 1485  22.025   9.480   8.096
    4AU     LIG 1486  22.380   9.171   8.151
    4AU     LIG 1487  22.565   8.877   8.421
    4AU     LIG 1488  22.363   8.527   8.651
    4AU       S 1489  22.597   9.795   7.991
    4AU     LIG 1490  22.705   9.430   7.835
    4AU     LIG 1491  22.971   9.071   7.949
    4AU     LIG 1492  23.403   8.878   8.042
    4AU       S 1493  21.844   9.418   7.957
    4AU     LIG 1494  21.876   9.088   7.741
    4AU     LIG 1495  22.047   8.788   7.925
    4AU     LIG 1496  21.944   8.675   8.349
    4AU       S 1497  21.650  10.050   8.495
    4AU     LIG 1498  21.430   9.780   8.804
    4AU     LIG 1499  21.000   9.730   8.629
    4AU     LIG 1500  20.739   9.618   8.976
    4AU       S 1501  22.244   9.465   7.295
    4AU     LIG 1502  21.893   9.194   7.113
    4AU     LIG 1503  21.996   8.895   6.792
    4AU     LIG 1504  22.072   8.465   6.709
    4AU       S 1505  22.185   9.517   7.854
    4AU     LIG 1506  22.354   9.137   7.643
    4AU     LIG 1507  22.553   8.786   7.808
    4AU     LIG 1508  22.392   8.494   8.132
    4AU       S 1509  21.983  11.613   6.740
    4AU     LIG 1510  21.939  12.051   6.672
    4AU     LIG 1511  22.177  12.457   6.703
    4AU     LIG 1512  22.282  12.884   6.519
    4AU       S 1513  22.793  11.433   7.082
    4AU     LIG 1514  23.124  11.699   6.890
    4AU     LIG 1515  23.308  11.728   6.475
    4AU     LIG 1516  23.471  12.050   6.198
    4AU       S 1517  21.792  11.625   7.003
    4AU     LIG 1518  21.590  12.007   7.052
    4AU     LIG 1519  21.693  12.428   6.899
    4AU     LIG 1520  21.813  12.830   6.730
    4AU       S 1521  21.352  11.016   6.621
    4AU     LIG 1522  21.307  11.366   6.341
    4AU     LIG 1523  21.279  11.831   6.186
    4AU     LIG 1524  21.232  12.305   6.219
    4AU       S 1525  21.384   9.755   7.159
    4AU     LIG 1526  20.947   9.717   7.050
    4AU     LIG 1527  20.923   9.379   6.774
    4AU     LIG 1528  20.837   9.225   6.385
    4AU       S 1529  22.272   9.487   7.155
    4AU     LIG 1530  22.397   9.302   6.800
    4AU     LIG 1531  22.449   8.955   6.483
    4AU     LIG 1532  22.273   8.597   6.252
    4AU       S 1533  22.512   9.579   7.396
    4AU     LIG 1534  22.660   9.158   7.241
    4AU     LIG 1535  22.484   8.818   6.976
    4AU     LIG 1536  22.567   8.468   6.683
    4AU       S 1537  22.748  10.046   6.682
    4AU     LIG 1538  22.470   9.785   6.525
    4AU     LIG 1539  22.703   9.421   6.409
    4AU     LIG 1540  22.931   9.098   6.202
    5AU     AUC 1541  13.477   2.702   7.539
    5AU     AUC 1542  13.737   2.707   7.376
    5AU     AUC 1543  13.717   2.703   7.712
    5AU     AUC 1544  13.207   2.689   7.379
    5AU     AUC 1545  13.224   2.739   7.705
    5AU     AUC 1546  13.313   2.959   7.502
    5AU     AUC 1547  13.653   2.973   7.513
    5AU     AUC 1548  13.308   2.441   7.560
    5AU     AUC 1549  13.643   2.432   7.560
    5AU     AUC 1550  13.472   2.554   7.816
    5AU     AUC 1551  13.478   2.897   7.783
    5AU     AUC 1552  13.481   2.516   7.289
    5AU     AUC 1553  13.490   2.829   7.267
    5AU     AUC 1554  14.055   2.715   7.223
    5AU     AUC 1555  14.039   2.694   7.562
    5AU     AUC 1556  13.994   2.687   7.918
    5AU     AUC 1557  12.907   2.646   7.236
    5AU     AUC 1558  12.904   2.727   7.563
    5AU     AUC 1559  12.927   2.787   7.881
    5AU     AUC 1560  13.147   3.258   7.441
    5AU     AUC 1561  13.506   3.253   7.432
    5AU     AUC 1562  13.841   3.250   7.475
    5AU     AUC 1563  13.122   2.153   7.580
    5AU     AUC 1564  13.473   2.137   7.562
    5AU     AUC 1565  13.826   2.139   7.573
    5AU     AUC 1566  13.447   2.395   8.118
    5AU     AUC 1567  13.456   2.747   8.103
    5AU     AUC 1568  13.504   3.106   8.063
    5AU     AUC 1569  13.522   2.329   7.012
    5AU     AUC 1570  13.470   2.654   6.963
    5AU     AUC 1571  13.453   2.972   6.954
    5AU     AUC 1572  13.713   2.520   8.029
    5AU     AUC 1573  13.754   2.879   8.006
    5AU     AUC 1574  13.791   2.540   7.085
    5AU     AUC 1575  13.755   2.856   7.092
    5AU     AUC 1576  13.180   2.612   8.016
    5AU     AUC 1577  13.212   2.967   7.966
    5AU     AUC 1578  13.203   2.470   7.117
    5AU     AUC 1579  13.162   2.778   7.071
    5AU     AUC 1580  13.968   2.984   7.359
    5AU     AUC 1581  13.911   2.973   7.708
    5AU     AUC 1582  13.011   2.962   7.361
    5AU     AUC 1583  13.051   3.052   7.689
    5AU     AUC 1584  13.949   2.427   7.409
    5AU     AUC 1585  13.898   2.395   7.754
    5AU     AUC 1586  13.013   2.385   7.414
    5AU     AUC 1587  13.036   2.466   7.745
    5AU     AUC 1588  13.358   3.204   7.760
    5AU     AUC 1589  13.679   3.176   7.786
    5AU     AUC 1590  13.293   2.273   7.847
    5AU     AUC 1591  13.607   2.228   7.837
    5AU     AUC 1592  13.286   3.113   7.191
    5AU     AUC 1593  13.647   3.148   7.207
    5AU     AUC 1594  13.326   2.224   7.286
    5AU     AUC 1595  13.701   2.267   7.287
    5AU    AUSL 1596  13.957   2.625   8.320
    5AU    AUSL 1597  13.739   2.238   8.239
    5AU     AUL 1598  14.046   2.271   8.422
    5AU    AUSL 1599  13.546   2.559   8.440
    5AU    AUSL 1600  13.302   2.948   8.426
    5AU     AUL 1601  13.529   2.856   8.715
    5AU    AUSL 1602  13.651   2.923   8.202
    5AU    AUSL 1603  14.094   2.977   8.129
    5AU     AUL 1604  13.923   2.937   8.469
    5AU    AUSL 1605  13.921   2.737   6.896
    5AU    AUSL 1606  13.768   3.126   6.978
    5AU     AUL 1607  13.984   3.066   6.694
    5AU    AUSL 1608  13.755   2.451   6.632
    5AU    AUSL 1609  14.230   2.481   7.010
    5AU     AUL 1610  14.138   2.613   6.678
    5AU    AUSL 1611  13.554   2.858   6.714
    5AU    AUSL 1612  13.377   2.461   6.819
    5AU     AUL 1613  13.483   2.504   6.494
    5AU    AUSL 1614  12.920   2.898   8.215
    5AU    AUSL 1615  13.254   3.222   8.109
    5AU     AUL 1616  13.079   3.191   8.434
    5AU    AUSL 1617  13.216   2.597   8.189
    5AU    AUSL 1618  12.810   2.466   8.150
    5AU     AUL 1619  12.721   2.688   8.283
    5AU    AUSL 1620  12.949   2.455   6.823
    5AU    AUSL 1621  13.185   2.139   7.009
    5AU     AUL 1622  13.224   2.152   6.677
    5AU    AUSL 1623  13.135   2.806   6.669
    5AU    AUSL 1624  12.832   2.818   7.026
    5AU     AUL 1625  12.720   2.651   6.765
    5AU    AUSL 1626  14.237   3.192   7.515
    5AU    AUSL 1627  14.176   2.996   7.107
    5AU     AUL 1628  14.498   3.207   7.197
    5AU    AUSL 1629  14.420   2.811   7.405
    5AU    AUSL 1630  14.382   2.507   7.778
    5AU     AUL 1631  14.679   2.602   7.573
    5AU    AUSL 1632  14.139   2.840   7.737
    5AU    AUSL 1633  13.950   3.234   7.812
    5AU     AUL 1634  14.327   3.016   7.887
    5AU    AUSL 1635  12.893   3.320   7.482
    5AU    AUSL 1636  12.928   3.109   7.853
    5AU     AUL 1637  12.610   3.344   7.674
    5AU    AUSL 1638  12.729   2.922   7.416
    5AU    AUSL 1639  12.858   3.239   7.075
    5AU     AUL 1640  12.604   3.153   7.220
    5AU    AUSL 1641  12.569   2.911   7.828
    5AU    AUSL 1642  12.553   2.543   7.408
    5AU     AUL 1643  12.375   2.876   7.528
    5AU    AUSL 1644  14.164   2.157   7.636
    5AU    AUSL 1645  14.001   2.432   7.951
    5AU     AUL 1646  14.306   2.342   8.030
    5AU    AUSL 1647  14.131   2.513   7.412
    5AU    AUSL 1648  14.128   2.104   7.215
    5AU     AUL 1649  14.389   2.328   7.294
    5AU    AUSL 1650  12.736   2.185   7.604
    5AU    AUSL 1651  12.893   2.379   7.227
    5AU     AUL 1652  12.521   2.255   7.292
    5AU    AUSL 1653  12.810   2.582   7.750
    5AU    AUSL 1654  13.045   2.219   7.894
    5AU     AUL 1655  12.730   2.192   7.934
    5AU    AUSL 1656  13.536   3.482   7.925
    5AU    AUSL 1657  13.092   3.505   7.816
    5AU     AUL 1658  13.299   3.557   8.190
    5AU    AUSL 1659  13.377   3.394   7.539
    5AU    AUSL 1660  13.614   3.518   7.197
    5AU     AUL 1661  13.357   3.749   7.471
    5AU    AUSL 1662  13.793   3.545   7.580
    5AU    AUSL 1663  13.801   3.311   8.201
    5AU     AUL 1664  13.907   3.568   7.931
    5AU    AUSL 1665  13.435   2.058   8.000
    5AU    AUSL 1666  13.856   2.029   7.887
    5AU     AUL 1667  13.615   1.946   8.263
    5AU    AUSL 1668  13.143   1.848   7.737
    5AU    AUSL 1669  13.197   2.206   8.309
    5AU     AUL 1670  13.117   1.912   8.085
    5AU    AUSL 1671  13.575   1.781   7.704
    5AU    AUSL 1672  13.355   1.993   7.396
    5AU     AUL 1673  13.258   1.637   7.504
    5AU    AUSL 1674  13.451   3.341   6.815
    5AU    AUSL 1675  14.003   3.377   7.225
    5AU     AUL 1676  13.778   3.462   6.878
    5AU    AUSL 1677  13.200   3.455   7.163
    5AU    AUSL 1678  13.223   3.040   6.995
    5AU     AUL 1679  13.130   3.310   6.792
    5AU    AUSL 1680  13.566   1.957   7.019
    5AU    AUSL 1681  12.949   1.955   7.322
    5AU     AUL 1682  13.232   1.801   7.070
    5AU    AUSL 1683  13.779   1.998   7.407
    5AU    AUSL 1684  13.804   2.306   7.019
    5AU     AUL 1685  13.890   1.948   7.012
    5AU       S 1686  14.060   1.817   8.274
    5AU     LIG 1687  14.314   1.401   8.314
    5AU     LIG 1688  14.378   1.020   8.640
    5AU     LIG 1689  14.651   0.661   8.833
    5AU       S 1690  13.901   2.550   8.761
    5AU     LIG 1691  14.306   2.754   8.753
    5AU     LIG 1692  14.540   2.805   9.166
    5AU     LIG 1693  14.487   2.714   9.638
    5AU       S 1694  13.557   2.384   8.653
    5AU     LIG 1695  13.546   2.409   9.114
    5AU     LIG 1696  13.853   2.336   9.496
    5AU     LIG 1697  14.201   2.153   9.776
    5AU       S 1698  13.089   2.743   8.640
    5AU     LIG 1699  13.171   2.774   9.085
    5AU     LIG 1700  12.830   2.659   9.367
    5AU     LIG 1701  12.585   2.764   9.756
    5AU       S 1702  13.547   3.313   8.575
    5AU     LIG 1703  13.771   3.677   8.658
    5AU     LIG 1704  14.159   3.583   8.858
    5AU     LIG 1705  14.443   3.250   8.894
    5AU       S 1706  14.275   3.215   8.312
    5AU     LIG 1707  14.670   3.233   8.442
    5AU     LIG 1708  14.834   3.579   8.684
    5AU     LIG 1709  15.013   3.977   8.889
    5AU       S 1710  13.832   2.844   6.330
    5AU     LIG 1711  14.098   2.911   5.955
    5AU     LIG 1712  14.222   2.524   5.791
    5AU     LIG 1713  14.274   2.313   5.400
    5AU       S 1714  14.228   3.463   6.831
    5AU     LIG 1715  14.149   3.823   6.578
    5AU     LIG 1716  14.404   3.951   6.208
    5AU     LIG 1717  14.758   4.035   5.873
    5AU       S 1718  14.396   2.235   6.817
    5AU     LIG 1719  14.543   1.993   6.446
    5AU     LIG 1720  14.638   1.574   6.324
    5AU     LIG 1721  14.642   1.222   6.564
    5AU       S 1722  13.859   2.678   6.311
    5AU     LIG 1723  13.816   2.329   6.094
    5AU     LIG 1724  13.822   2.210   5.646
    5AU     LIG 1725  13.783   2.306   5.190
    5AU       S 1726  13.055   2.467   6.346
    5AU     LIG 1727  13.301   2.343   5.999
    5AU     LIG 1728  13.339   2.353   5.543
    5AU     LIG 1729  13.072   2.449   5.196
    5AU       S 1730  13.580   2.967   6.462
    5AU     LIG 1731  13.393   2.835   6.078
    5AU     LIG 1732  13.665   2.694   5.752
    5AU     LIG 1733  13.971   2.750   5.403
    5AU       S 1734  12.881   2.844   8.684
    5AU     LIG 1735  12.564   2.571   8.751
    5AU     LIG 1736  12.497   2.321   9.110
    5AU     LIG 1737  12.476   2.295   9.568
    5AU       S 1738  12.826   3.492   8.184
    5AU     LIG 1739  12.752   3.608   8.576
    5AU     LIG 1740  12.366   3.600   8.815
    5AU     LIG 1741  11.922   3.555   8.989
    5AU       S 1742  12.731   2.236   8.421
    5AU     LIG 1743  12.319   2.281   8.300
    5AU     LIG 1744  11.944   2.052   8.180
    5AU     LIG 1745  11.693   1.681   8.327
    5AU       S 1746  13.075   2.572   8.582
    5AU     LIG 1747  12.999   2.324   8.943
    5AU     LIG 1748  12.935   2.158   9.354
    5AU     LIG 1749  12.934   2.351   9.784
    5AU       S 1750  12.901   2.389   6.437
    5AU     LIG 1751  12.712   2.214   6.076
    5AU     LIG 1752  12.852   2.438   5.707
    5AU     LIG 1753  12.722   2.753   5.424
    5AU       S 1754  12.835   1.965   6.862
    5AU     LIG 1755  12.810   1.861   6.447
    5AU     LIG 1756  12.544   1.672   6.138
    5AU     LIG 1757  12.378   1.283   5.955
    5AU       S 1758  12.543   3.072   6.736
    5AU     LIG 1759  12.248   3.374   6.844
    5AU     LIG 1760  12.339   3.799   6.718
    5AU     LIG 1761  12.455   4.032   6.347
    5AU       S 1762  13.079   2.758   6.461
    5AU     LIG 1763  12.805   2.877   6.179
    5AU     LIG 1764  12.964   3.005   5.791
    5AU     LIG 1765  13.250   2.868   5.459
    5AU       S 1766  14.319   3.356   6.812
    5AU     LIG 1767  14.354   3.399   6.351
    5AU     LIG 1768  14.693   3.552   6.094
    5AU     LIG 1769  15.119   3.653   6.017
    5AU       S 1770  14.381   3.402   7.613
    5AU     LIG 1771  14.695   3.640   7.400
    5AU     LIG 1772  15.142   3.551   7.483
    5AU     LIG 1773  15.528   3.690   7.297
    5AU       S 1774  14.695   3.072   7.593
    5AU     LIG 1775  15.109   3.026   7.457
    5AU     LIG 1776  15.416   3.188   7.161
    5AU     LIG 1777  15.865   3.277   7.128
    5AU       S 1778  14.639   2.160   7.771
    5AU     LIG 1779  14.763   1.982   8.160
    5AU     LIG 1780  15.189   1.842   8.129
    5AU     LIG 1781  15.333   2.058   7.748
    5AU       S 1782  14.302   3.421   8.112
    5AU     LIG 1783  14.691   3.637   8.133
    5AU     LIG 1784  14.852   4.004   8.382
    5AU     LIG 1785  14.771   4.376   8.650
    5AU       S 1786  14.654   3.266   7.717
    5AU     LIG 1787  14.959   3.139   8.014
    5AU     LIG 1788  15.386   3.058   7.903
    5AU     LIG 1789  15.613   3.297   7.619
    5AU       S 1790  12.746   3.314   8.112
    5AU     LIG 1791  12.532   3.158   8.469
    5AU     LIG 1792  12.082   3.230   8.593
    5AU     LIG 1793  11.611   3.344   8.606
    5AU       S 1794  12.829   3.654   7.385
    5AU     LIG 1795  12.597   3.960   7.147
    5AU     LIG 1796  12.145   3.976   7.164
    5AU     LIG 1797  11.989   3.563   7.252
    5AU       S 1798  12.345   2.779   7.066
    5AU     LIG 1799  11.909   2.707   6.935
    5AU     LIG 1800  11.531   2.970   6.950
    5AU     LIG 1801  11.573   3.281   7.261
    5AU       S 1802  12.721   3.494   6.908
    5AU     LIG 1803  12.858   3.861   6.706
    5AU     LIG 1804  12.747   4.269   6.724
    5AU     LIG 1805  12.487   4.558   6.467
    5AU       S 1806  12.339   2.438   7.699
    5AU     LIG 1807  12.013   2.506   7.421
    5AU     LIG 1808  11.583   2.628   7.346
    5AU     LIG 1809  11.196   2.521   7.086
    5AU       S 1810  12.430   2.962   8.005
    5AU     LIG 1811  12.212   2.780   8.348
    5AU     LIG 1812  11.763   2.903   8.350
    5AU     LIG 1813  11.604   3.243   8.076
    5AU       S 1814  14.333   2.015   7.656
    5AU     LIG 1815  14.388   1.695   7.412
    5AU     LIG 1816  14.799   1.574   7.424
    5AU     LIG 1817  15.153   1.572   7.690
    5AU       S 1818  14.242   1.904   8.123
    5AU     LIG 1819  14.558   1.614   7.892
    5AU     LIG 1820  14.865   1.426   8.141
    5AU     LIG 1821  14.824   1.302   8.568
    5AU       S 1822  14.621   2.098   7.603
    5AU     LIG 1823  14.808   2.038   7.228
    5AU     LIG 1824  15.210   1.814   7.224
    5AU     LIG 1825  15.518   1.541   7.047
    5AU       S 1826  14.355   1.979   6.954
    5AU     LIG 1827  14.430   1.503   6.948
    5AU     LIG 1828  14.315   1.045   6.904
    5AU     LIG 1829  14.312   0.783   6.519
    5AU       S 1830  12.707   2.072   6.919
    5AU     LIG 1831  12.458   2.220   6.605
    5AU     LIG 1832  12.206   2.019   6.293
    5AU     LIG 1833  12.033   1.587   6.218
    5AU       S 1834  12.318   2.215   7.728
    5AU     LIG 1835  11.924   2.039   7.668
    5AU     LIG 1836  11.569   2.118   7.399
    5AU     LIG 1837  11.149   1.994   7.320
    5AU       S 1838  12.749   2.005   8.350
    5AU     LIG 1839  12.416   1.825   8.060
    5AU     LIG 1840  12.030   1.568   7.955
    5AU     LIG 1841  11.775   1.194   8.103
    5AU       S 1842  12.383   2.485   7.860
    5AU     LIG 1843  11.955   2.623   7.940
    5AU     LIG 1844  11.603   2.414   7.829
    5AU     LIG 1845  11.380   2.000   7.866
    5AU       S 1846  12.979   3.674   7.854
    5AU     LIG 1847  12.550   3.785   7.903
    5AU     LIG 1848  12.309   3.589   8.254
    5AU     LIG 1849  11.957   3.731   8.510
    5AU       S 1850  13.531   3.831   7.892
    5AU     LIG 1851  13.778   3.989   8.245
    5AU     LIG 1852  13.714   4.426   8.422
    5AU     LIG 1853  13.522   4.854   8.529
    5AU       S 1854  13.662   4.001   7.767
    5AU     LIG 1855  13.316   4.260   7.952
    5AU     LIG 1856  13.283   4.636   8.139
    5AU     LIG 1857  13.438   5.041   8.013
    5AU       S 1858  13.504   3.807   7.025
    5AU     LIG 1859  13.595   4.129   7.173
    5AU     LIG 1860  13.604   4.539   7.082
    5AU     LIG 1861  13.887   4.856   7.113
    5AU       S 1862  14.052   3.407   8.357
    5AU     LIG 1863  14.272   3.813   8.417
    5AU     LIG 1864  14.498   3.957   8.782
    5AU     LIG 1865  14.631   3.708   9.151
    5AU       S 1866  13.815   3.859   7.555
    5AU     LIG 1867  13.779   4.405   7.547
    5AU     LIG 1868  13.746   4.586   7.930
    5AU     LIG 1869  13.917   4.870   8.204
    5AU       S 1870  13.438   1.552   8.095
    5AU     LIG 1871  13.824   1.277   8.179
    5AU     LIG 1872  13.998   0.842   8.306
    5AU     LIG 1873  13.741   0.483   8.482
    5AU       S 1874  13.998   1.878   7.991
    5AU     LIG 1875  14.074   1.520   7.810
    5AU     LIG 1876  14.280   1.122   7.856
    5AU     LIG 1877  14.572   0.965   8.184
    5AU       S 1878  13.244   1.486   7.943
    5AU     LIG 1879  13.134   1.169   7.660
    5AU     LIG 1880  13.267   0.759   7.763
    5AU     LIG 1881  13.352   0.724   8.215
    5AU       S 1882  13.002   2.106   8.503
    5AU     LIG 1883  12.673   1.930   8.822
    5AU     LIG 1884  12.291   1.756   8.584
    5AU     LIG 1885  12.010   1.359   8.569
    5AU       S 1886  13.654   1.557   7.293
    5AU     LIG 1887  13.414   1.150   7.229
    5AU     LIG 1888  13.458   0.719   7.039
    5AU     LIG 1889  13.619   0.262   7.031
    5AU       S 1890  13.578   1.609   7.866
    5AU     LIG 1891  13.648   1.240   7.684
    5AU     LIG 1892  13.784   0.864   7.847
    5AU     LIG 1893  13.675   0.431   7.967
    5AU       S 1894  13.379   3.713   6.763
    5AU     LIG 1895  13.300   4.167   6.725
    5AU     LIG 1896  13.560   4.503   6.566
    5AU     LIG 1897  13.643   4.547   6.106
    5AU       S 1898  14.162   3.554   7.150
    5AU     LIG 1899  14.450   3.869   7.005
    5AU     LIG 1900  14.659   3.756   6.626
    5AU     LIG 1901  14.905   4.012   6.355
    5AU       S 1902  13.189   3.720   7.031
    5AU     LIG 1903  13.085   4.125   7.194
    5AU     LIG 1904  13.103   4.552   6.999
    5AU     LIG 1905  13.064   4.645   6.555
    5AU       S 1906  12.753   3.120   6.638
    5AU     LIG 1907  12.679   3.486   6.400
    5AU     LIG 1908  12.905   3.842   6.197
    5AU     LIG 1909  12.877   4.308   6.205
    5AU       S 1910  12.781   1.877   7.178
    5AU     LIG 1911  12.421   1.703   7.094
    5AU     LIG 1912  12.343   1.662   6.651
    5AU     LIG 1913  12.336   1.242   6.467
    5AU       S 1914  13.643   1.584   7.140
    5AU     LIG 1915  13.923   1.390   6.886
    5AU     LIG 1916  13.852   1.004   6.652
    5AU     LIG 1917  13.637   0.594   6.572
    5AU       S 1918  13.894   1.675   7.384
    5AU     LIG 1919  14.058   1.271   7.368
    5AU     LIG 1920  13.890   0.953   7.167
    5AU     LIG 1921  14.014   0.592   6.919
    5AU       S 1922  14.135   2.143   6.686
    5AU     LIG 1923  14.068   1.751   6.561
    5AU     LIG 1924  14.176   1.334   6.424
    5AU     LIG 1925  14.437   1.104   6.104
    6AU     AUC 1926  44.174  32.812   7.525
    6AU     AUC 1927  44.433  32.811   7.361
    6AU     AUC 1928  44.420  32.814   7.698
    6AU     AUC 1929  43.907  32.803   7.366
    6AU     AUC 1930  43.924  32.857   7.691
    6AU     AUC 1931  44.012  33.077   7.484
    6AU     AUC 1932  44.349  33.077   7.492
    6AU     AUC 1933  44.002  32.553   7.552
    6AU     AUC 1934  44.336  32.541   7.549
    6AU     AUC 1935  44.168  32.671   7.805
    6AU     AUC 1936  44.176  33.013   7.763
    6AU     AUC 1937  44.177  32.624   7.276
    6AU     AUC 1938  44.189  32.936   7.252
    6AU     AUC 1939  44.751  32.811   7.207
    6AU     AUC 1940  44.740  32.796   7.548
    6AU     AUC 1941  44.708  32.804   7.901
    6AU     AUC 1942  43.608  32.760   7.219
    6AU     AUC 1943  43.603  32.844   7.545
    6AU     AUC 1944  43.626  32.911   7.870
    6AU     AUC 1945  43.847  33.373   7.418
    6AU     AUC 1946  44.204  33.367   7.410
    6AU     AUC 1947  44.537  33.356   7.454
    6AU     AUC 1948  43.810  32.273   7.576
    6AU     AUC 1949  44.160  32.251   7.554
    6AU     AUC 1950  44.509  32.245   7.565
    6AU     AUC 1951  44.141  32.522   8.111
    6AU     AUC 1952  44.158  32.870   8.088
    6AU     AUC 1953  44.204  33.228   8.041
    6AU     AUC 1954  44.216  32.433   6.999
    6AU     AUC 1955  44.169  32.760   6.948
    6AU     AUC 1956  44.155  33.073   6.938
    6AU     AUC 1957  44.415  32.638   8.014
    6AU     AUC 1958  44.456  32.993   7.987
    6AU     AUC 1959  44.487  32.645   7.067
    6AU     AUC 1960  44.456  32.954   7.076
    6AU     AUC 1961  43.877  32.735   8.005
    6AU     AUC 1962  43.914  33.087   7.949
    6AU     AUC 1963  43.901  32.579   7.103
    6AU     AUC 1964  43.860  32.888   7.055
    6AU     AUC 1965  44.671  33.080   7.353
    6AU     AUC 1966  44.613  33.070   7.691
    6AU     AUC 1967  43.711  33.075   7.344
    6AU     AUC 1968  43.750  33.169   7.670
    6AU     AUC 1969  44.638  32.528   7.396
    6AU     AUC 1970  44.591  32.502   7.743
    6AU     AUC 1971  43.713  32.497   7.400
    6AU     AUC 1972  43.734  32.586   7.735
    6AU     AUC 1973  44.054  33.323   7.736
    6AU     AUC 1974  44.370  33.294   7.760
    6AU     AUC 1975  43.977  32.396   7.843
    6AU     AUC 1976  44.297  32.347   7.829
    6AU     AUC 1977  43.988  33.221   7.172
    6AU     AUC 1978  44.349  33.250   7.190
    6AU     AUC 1979  44.022  32.332   7.275
    6AU     AUC 1980  44.391  32.371   7.275
    6AU    AUSL 1981  44.670  32.758   8.290
    6AU    AUSL 1982  44.433  32.362   8.231
    6AU     AUL 1983  44.751  32.413   8.405
    6AU    AUSL 1984  44.260  32.695   8.428
    6AU    AUSL 1985  44.020  33.084   8.413
    6AU     AUL 1986  44.248  32.997   8.707
    6AU    AUSL 1987  44.357  33.045   8.174
    6AU    AUSL 1988  44.799  33.123   8.103
    6AU     AUL 1989  44.626  33.060   8.443
    6AU    AUSL 1990  44.629  32.844   6.857
    6AU    AUSL 1991  44.472  33.222   6.970
    6AU     AUL 1992  44.657  33.177   6.663
    6AU    AUSL 1993  44.444  32.551   6.614
    6AU    AUSL 1994  44.923  32.583   6.998
    6AU     AUL 1995  44.826  32.713   6.644
    6AU    AUSL 1996  44.250  32.961   6.700
    6AU    AUSL 1997  44.070  32.568   6.808
    6AU     AUL 1998  44.174  32.612   6.482
    6AU    AUSL 1999  43.637  33.042   8.209
    6AU    AUSL 2000  43.955  33.341   8.082
    6AU     AUL 2001  43.791  33.328   8.409
    6AU    AUSL 2002  43.920  32.727   8.187
    6AU    AUSL 2003  43.500  32.633   8.135
    6AU     AUL 2004  43.468  32.840   8.313
    6AU    AUSL 2005  43.643  32.562   6.807
    6AU    AUSL 2006  43.879  32.241   6.990
    6AU     AUL 2007  43.926  32.258   6.660
    6AU    AUSL 2008  43.830  32.913   6.654
    6AU    AUSL 2009  43.530  32.926   7.010
    6AU     AUL 2010  43.414  32.764   6.745
    6AU    AUSL 2011  44.944  33.290   7.511
    6AU    AUSL 2012  44.869  33.081   7.111
    6AU     AUL 2013   0.216  33.330   7.278
    6AU    AUSL 2014   0.122  32.897   7.397
    6AU    AUSL 2015   0.081  32.591   7.748
    6AU     AUL 2016   0.395  32.632   7.516
    6AU    AUSL 2017  44.853  32.941   7.738
    6AU    AUSL 2018  44.611  33.341   7.768
    6AU     AUL 2019  44.939  33.349   7.819
    6AU    AUSL 2020  43.596  33.436   7.459
    6AU    AUSL 2021  43.621  33.224   7.831
    6AU     AUL 2022  43.315  33.458   7.646
    6AU    AUSL 2023  43.427  33.039   7.399
    6AU    AUSL 2024  43.560  33.348   7.056
    6AU     AUL 2025  43.304  33.260   7.202
    6AU    AUSL 2026  43.262  33.023   7.812
    6AU    AUSL 2027  43.256  32.657   7.384
    6AU     AUL 2028  43.078  32.990   7.508
    6AU    AUSL 2029  44.844  32.252   7.623
    6AU    AUSL 2030  44.702  32.537   7.936
    6AU     AUL 2031   0.010  32.451   8.004
    6AU    AUSL 2032  44.821  32.611   7.398
    6AU    AUSL 2033  44.809  32.203   7.200
    6AU     AUL 2034   0.066  32.406   7.280
    6AU    AUSL 2035  43.434  32.305   7.591
    6AU    AUSL 2036  43.603  32.496   7.214
    6AU     AUL 2037  43.249  32.388   7.240
    6AU    AUSL 2038  43.511  32.706   7.724
    6AU    AUSL 2039  43.711  32.340   7.909
    6AU     AUL 2040  43.379  32.405   7.940
    6AU    AUSL 2041  44.230  33.606   7.897
    6AU    AUSL 2042  43.787  33.622   7.794
    6AU     AUL 2043  43.989  33.683   8.164
    6AU    AUSL 2044  44.071  33.519   7.511
    6AU    AUSL 2045  44.321  33.615   7.168
    6AU     AUL 2046  44.073  33.873   7.406
    6AU    AUSL 2047  44.488  33.679   7.555
    6AU    AUSL 2048  44.496  33.435   8.171
    6AU     AUL 2049  44.605  33.681   7.913
    6AU    AUSL 2050  44.117  32.195   7.993
    6AU    AUSL 2051  44.539  32.140   7.885
    6AU     AUL 2052  44.292  32.071   8.256
    6AU    AUSL 2053  43.820  31.982   7.731
    6AU    AUSL 2054  43.887  32.338   8.311
    6AU     AUL 2055  43.795  32.037   8.081
    6AU    AUSL 2056  44.248  31.902   7.706
    6AU    AUSL 2057  44.039  32.106   7.386
    6AU     AUL 2058  43.924  31.760   7.516
    6AU    AUSL 2059  44.163  33.433   6.788
    6AU    AUSL 2060  44.708  33.473   7.219
    6AU     AUL 2061  44.502  33.571   6.870
    6AU    AUSL 2062  43.905  33.563   7.127
    6AU    AUSL 2063  43.924  33.145   6.979
    6AU     AUL 2064  43.831  33.395   6.766
    6AU    AUSL 2065  44.260  32.061   7.013
    6AU    AUSL 2066  43.634  32.070   7.304
    6AU     AUL 2067  43.925  31.906   7.071
    6AU    AUSL 2068  44.465  32.096   7.403
    6AU    AUSL 2069  44.494  32.413   7.003
    6AU     AUL 2070  44.580  32.041   7.013
    6AU       S 2071  44.739  31.953   8.288
    6AU     LIG 2072  44.947  31.533   8.288
    6AU     LIG 2073   0.225  31.164   8.337
    6AU     LIG 2074   0.566  30.931   8.582
    6AU       S 2075  44.608  32.682   8.751
    6AU     LIG 2076   0.016  32.755   8.746
    6AU     LIG 2077   0.170  32.872   9.175
    6AU     LIG 2078   0.174  32.771   9.648
    6AU       S 2079  44.272  32.521   8.646
    6AU     LIG 2080  44.284  32.513   9.104
    6AU     LIG 2081  44.654  32.524   9.420
    6AU     LIG 2082  44.895  32.340   9.789
    6AU       S 2083  43.808  32.895   8.646
    6AU     LIG 2084  43.897  32.863   9.097
    6AU     LIG 2085  43.618  32.617   9.378
    6AU     LIG 2086  43.375  32.611   9.779
    6AU       S 2087  44.254  33.454   8.554
    6AU     LIG 2088  44.461  33.787   8.743
    6AU     LIG 2089  44.851  33.665   8.894
    6AU     LIG 2090  44.966  33.256   8.800
    6AU       S 2091   0.000  33.287   8.279
    6AU     LIG 2092   0.353  33.376   8.497
    6AU     LIG 2093   0.352  33.725   8.787
    6AU     LIG 2094   0.642  34.025   8.983
    6AU       S 2095  44.526  32.933   6.306
    6AU     LIG 2096  44.993  32.945   6.224
    6AU     LIG 2097   0.126  32.552   6.021
    6AU     LIG 2098   0.057  32.313   5.612
    6AU       S 2099  44.969  33.468   6.832
    6AU     LIG 2100   0.012  33.832   6.583
    6AU     LIG 2101   0.186  34.038   6.197
    6AU     LIG 2102   0.420  34.135   5.794
    6AU       S 2103   0.097  32.362   6.808
    6AU     LIG 2104   0.233  32.228   6.416
    6AU     LIG 2105   0.171  31.816   6.295
    6AU     LIG 2106   0.295  31.386   6.401
    6AU       S 2107  44.542  32.762   6.263
    6AU     LIG 2108  44.543  32.390   6.067
    6AU     LIG 2109  44.524  32.284   5.610
    6AU     LIG 2110  44.724  32.469   5.223
    6AU       S 2111  43.748  32.578   6.331
    6AU     LIG 2112  43.998  32.426   5.997
    6AU     LIG 2113  44.011  32.403   5.530
    6AU     LIG 2114  43.717  32.542   5.184
    6AU       S 2115  44.264  33.070   6.425
    6AU     LIG 2116  44.063  32.934   6.058
    6AU     LIG 2117  44.325  32.753   5.759
    6AU     LIG 2118  44.768  32.740   5.711
    6AU       S 2119  43.620  33.018   8.710
    6AU     LIG 2120  43.286  32.835   8.818
    6AU     LIG 2121  43.228  32.418   8.923
    6AU     LIG 2122  43.230  32.250   9.343
    6AU       S 2123  43.509  33.589   8.153
    6AU     LIG 2124  43.428  33.673   8.549
    6AU     LIG 2125  43.186  33.710   8.897
    6AU     LIG 2126  43.083  34.099   9.050
    6AU       S 2127  43.420  32.387   8.429
    6AU     LIG 2128  43.068  32.596   8.447
    6AU     LIG 2129  42.741  32.375   8.595
    6AU     LIG 2130  42.778  31.954   8.753
    6AU       S 2131  43.808  32.715   8.608
    6AU     LIG 2132  43.770  32.413   8.912
    6AU     LIG 2133  43.709  32.118   9.242
    6AU     LIG 2134  43.608  32.150   9.711
    6AU       S 2135  43.594  32.488   6.429
    6AU     LIG 2136  43.476  32.257   6.066
    6AU     LIG 2137  43.526  32.516   5.690
    6AU     LIG 2138  43.345  32.842   5.395
    6AU       S 2139  43.540  32.063   6.833
    6AU     LIG 2140  43.509  31.810   6.484
    6AU     LIG 2141  43.375  31.735   6.049
    6AU     LIG 2142  42.951  31.874   5.899
    6AU       S 2143  43.241  33.189   6.723
    6AU     LIG 2144  42.857  33.132   6.534
    6AU     LIG 2145  42.593  33.463   6.351
    6AU     LIG 2146  42.744  33.889   6.233
    6AU       S 2147  43.769  32.871   6.447
    6AU     LIG 2148  43.398  32.935   6.233
    6AU     LIG 2149  43.541  33.050   5.843
    6AU     LIG 2150  43.861  32.896   5.559
    6AU       S 2151   0.059  33.201   6.873
    6AU     LIG 2152   0.237  33.378   6.434
    6AU     LIG 2153   0.450  33.610   6.086
    6AU     LIG 2154   0.805  33.869   5.996
    6AU       S 2155   0.382  33.282   7.719
    6AU     LIG 2156   0.671  33.534   7.423
    6AU     LIG 2157   1.117  33.648   7.416
    6AU     LIG 2158   1.384  33.760   7.763
    6AU       S 2159   0.324  33.058   7.667
    6AU     LIG 2160   0.645  33.032   7.350
    6AU     LIG 2161   1.082  33.144   7.341
    6AU     LIG 2162   1.315  33.376   7.015
    6AU       S 2163   0.321  32.221   7.756
    6AU     LIG 2164   0.679  32.041   7.979
    6AU     LIG 2165   1.110  32.027   7.807
    6AU     LIG 2166   1.290  32.127   7.387
    6AU       S 2167  44.955  33.571   8.218
    6AU     LIG 2168   0.296  33.833   8.273
    6AU     LIG 2169   0.420  34.189   8.536
    6AU     LIG 2170   0.436  34.497   8.902
    6AU       S 2171   0.249  33.003   7.901
    6AU     LIG 2172   0.792  33.034   7.853
    6AU     LIG 2173   1.260  33.235   7.854
    6AU     LIG 2174   1.728  33.446   7.958
    6AU       S 2175  43.394  33.413   8.098
    6AU     LIG 2176  43.164  33.244   8.429
    6AU     LIG 2177  42.812  33.466   8.612
    6AU     LIG 2178  42.696  33.543   9.041
    6AU       S 2179  43.566  33.795   7.369
    6AU     LIG 2180  43.348  34.266   7.322
    6AU     LIG 2181  42.800  34.189   7.205
    6AU     LIG 2182  42.620  33.978   6.802
    6AU       S 2183  43.048  32.874   7.043
    6AU     LIG 2184  42.845  33.147   7.053
    6AU     LIG 2185  42.544  33.379   6.896
    6AU     LIG 2186  42.442  33.676   7.191
    6AU       S 2187  43.434  33.597   6.906
    6AU     LIG 2188  43.513  33.768   6.576
    6AU     LIG 2189  43.239  34.014   6.367
    6AU     LIG 2190  42.949  34.330   6.463
    6AU       S 2191  43.006  32.540   7.624
    6AU     LIG 2192  42.721  32.498   7.292
    6AU     LIG 2193  42.244  32.586   7.260
    6AU     LIG 2194  41.784  32.513   7.176
    6AU       S 2195  43.142  32.992   7.997
    6AU     LIG 2196  42.752  33.109   7.908
    6AU     LIG 2197  42.750  33.506   8.052
    6AU     LIG 2198  42.532  33.778   8.300
    6AU       S 2199   0.006  32.093   7.643
    6AU     LIG 2200   0.030  31.759   7.366
    6AU     LIG 2201   0.382  31.539   7.450
    6AU     LIG 2202   0.726  31.772   7.555
    6AU       S 2203  44.921  32.026   8.127
    6AU     LIG 2204   0.251  31.759   7.948
    6AU     LIG 2205   0.505  31.605   8.291
    6AU     LIG 2206   0.439  31.433   8.728
    6AU       S 2207   0.290  32.148   7.576
    6AU     LIG 2208   0.437  32.029   7.196
    6AU     LIG 2209   0.872  31.939   7.088
    6AU     LIG 2210   1.263  31.714   7.079
    6AU       S 2211   0.028  32.112   6.901
    6AU     LIG 2212   0.129  31.730   6.825
    6AU     LIG 2213  44.984  31.322   6.807
    6AU     LIG 2214  44.906  31.003   6.487
    6AU       S 2215  43.410  32.168   6.874
    6AU     LIG 2216  43.164  32.218   6.509
    6AU     LIG 2217  42.751  32.127   6.341
    6AU     LIG 2218  42.534  31.744   6.203
    6AU       S 2219  43.035  32.298   7.651
    6AU     LIG 2220  42.751  32.009   7.744
    6AU     LIG 2221  42.532  32.028   7.426
    6AU     LIG 2222  42.218  31.726   7.178
    6AU       S 2223  43.420  32.162   8.327
    6AU     LIG 2224  43.295  31.934   7.930
    6AU     LIG 2225  42.988  31.789   8.169
    6AU     LIG 2226  43.035  31.572   8.516
    6AU       S 2227  42.996  32.590   7.780
    6AU     LIG 2228  42.921  32.278   8.120
    6AU     LIG 2229  42.528  32.115   8.215
    6AU     LIG 2230  42.154  32.384   8.182
    6AU       S 2231  43.635  33.768   7.857
    6AU     LIG 2232  43.184  33.867   7.917
    6AU     LIG 2233  42.921  34.091   8.161
    6AU     LIG 2234  42.908  34.004   8.579
    6AU       S 2235  44.217  33.945   7.856
    6AU     LIG 2236  44.443  34.117   8.186
    6AU     LIG 2237  44.401  34.446   8.499
    6AU     LIG 2238  44.227  34.835   8.700
    6AU       S 2239  44.048  34.080   7.842
    6AU     LIG 2240  43.969  34.370   8.134
    6AU     LIG 2241  44.146  34.763   8.188
    6AU     LIG 2242  44.231  35.122   7.928
    6AU       S 2243  44.188  33.913   6.940
    6AU     LIG 2244  44.443  34.118   7.174
    6AU     LIG 2245  44.243  34.487   7.256
    6AU     LIG 2246  44.259  34.842   7.026
    6AU       S 2247  44.724  33.533   8.367
    6AU     LIG 2248  44.852  33.981   8.483
    6AU     LIG 2249   0.029  34.151   8.866
    6AU     LIG 2250   0.207  34.012   9.264
    6AU       S 2251  44.417  34.043   7.672
    6AU     LIG 2252  44.335  34.485   7.771
    6AU     LIG 2253  44.611  34.766   8.001
    6AU     LIG 2254  44.555  35.071   8.345
    6AU       S 2255  44.107  31.679   8.097
    6AU     LIG 2256  44.450  31.405   8.191
    6AU     LIG 2257  44.438  31.025   8.455
    6AU     LIG 2258  44.248  30.652   8.706
    6AU       S 2259  44.681  31.993   7.997
    6AU     LIG 2260  44.758  31.649   7.807
    6AU     LIG 2261   0.033  31.314   7.809
    6AU     LIG 2262   0.482  31.276   7.901
    6AU       S 2263  43.937  31.614   7.955
    6AU     LIG 2264  43.873  31.282   7.760
    6AU     LIG 2265  43.680  31.045   8.075
    6AU     LIG 2266  43.975  30.792   8.295
    6AU       S 2267  43.676  32.296   8.446
    6AU     LIG 2268  43.695  31.954   8.684
    6AU     LIG 2269  43.300  31.909   8.834
    6AU     LIG 2270  43.071  31.591   9.027
    6AU       S 2271  44.310  31.664   7.297
    6AU     LIG 2272  43.991  31.333   7.261
    6AU     LIG 2273  44.139  31.146   6.914
    6AU     LIG 2274  44.174  30.748   6.723
    6AU       S 2275  44.257  31.733   7.861
    6AU     LIG 2276  44.363  31.347   7.685
    6AU     LIG 2277  44.341  30.947   7.926
    6AU     LIG 2278  44.477  30.584   8.208
    6AU       S 2279  44.101  33.770   6.690
    6AU     LIG 2280  43.871  34.125   6.562
    6AU     LIG 2281  44.027  34.501   6.693
    6AU     LIG 2282  44.334  34.794   6.523
    6AU       S 2283  44.917  33.604   7.068
    6AU     LIG 2284   0.379  33.713   6.955
    6AU     LIG 2285   0.545  33.860   6.541
    6AU     LIG 2286   0.651  34.258   6.294
    6AU       S 2287  43.891  33.817   6.967
    6AU     LIG 2288  43.796  34.210   7.080
    6AU     LIG 2289  43.725  34.664   7.067
    6AU     LIG 2290  43.860  34.987   6.737
    6AU       S 2291  43.435  33.237   6.625
    6AU     LIG 2292  43.688  33.367   6.281
    6AU     LIG 2293  43.649  33.790   6.079
    6AU     LIG 2294  43.844  34.212   6.042
    6AU       S 2295  43.461  31.985   7.111
    6AU     LIG 2296  43.201  31.669   6.933
    6AU     LIG 2297  42.894  31.349   6.799
    6AU     LIG 2298  42.664  31.302   6.425
    6AU       S 2299  44.330  31.672   7.126
    6AU     LIG 2300  44.502  31.490   6.792
    6AU     LIG 2301  44.410  31.150   6.480
    6AU     LIG 2302  44.447  30.728   6.284
    6AU       S 2303  44.545  31.759   7.380
    6AU     LIG 2304  44.695  31.331   7.254
    6AU     LIG 2305  44.624  30.973   6.927
    6AU     LIG 2306  44.724  30.568   6.705
    6AU       S 2307  44.814  32.244   6.681
    6AU     LIG 2308  44.684  31.892   6.527
    6AU     LIG 2309  44.778  31.490   6.352
    6AU     LIG 2310  44.696  31.158   6.037
    7AU     AUC 2311  36.275   7.816   7.517
    7AU     AUC 2312  36.538   7.815   7.357
    7AU     AUC 2313  36.512   7.813   7.693
    7AU     AUC 2314  36.007   7.808   7.353
    7AU     AUC 2315  36.022   7.859   7.679
    7AU     AUC 2316  36.117   8.076   7.476
    7AU     AUC 2317  36.457   8.082   7.492
    7AU     AUC 2318  36.101   7.558   7.537
    7AU     AUC 2319  36.436   7.543   7.542
    7AU     AUC 2320  36.264   7.669   7.794
    7AU     AUC 2321  36.277   8.012   7.760
    7AU     AUC 2322  36.280   7.628   7.268
    7AU     AUC 2323  36.294   7.940   7.244
    7AU     AUC 2324  36.856   7.816   7.209
    7AU     AUC 2325  36.837   7.799   7.549
    7AU     AUC 2326  36.787   7.794   7.904
    7AU     AUC 2327  35.709   7.770   7.207
    7AU     AUC 2328  35.703   7.853   7.532
    7AU     AUC 2329  35.725   7.914   7.850
    7AU     AUC 2330  35.957   8.378   7.410
    7AU     AUC 2331  36.316   8.364   7.406
    7AU     AUC 2332  36.650   8.355   7.452
    7AU     AUC 2333  35.910   7.275   7.556
    7AU     AUC 2334  36.259   7.252   7.543
    7AU     AUC 2335  36.613   7.248   7.559
    7AU     AUC 2336  36.232   7.512   8.098
    7AU     AUC 2337  36.249   7.864   8.081
    7AU     AUC 2338  36.303   8.222   8.040
    7AU     AUC 2339  36.321   7.438   6.993
    7AU     AUC 2340  36.275   7.764   6.940
    7AU     AUC 2341  36.264   8.081   6.929
    7AU     AUC 2342  36.501   7.630   8.011
    7AU     AUC 2343  36.549   7.989   7.988
    7AU     AUC 2344  36.593   7.645   7.067
    7AU     AUC 2345  36.561   7.959   7.072
    7AU     AUC 2346  35.972   7.734   7.991
    7AU     AUC 2347  36.011   8.088   7.939
    7AU     AUC 2348  36.002   7.588   7.093
    7AU     AUC 2349  35.968   7.896   7.044
    7AU     AUC 2350  36.773   8.087   7.342
    7AU     AUC 2351  36.711   8.079   7.692
    7AU     AUC 2352  35.817   8.085   7.330
    7AU     AUC 2353  35.854   8.176   7.657
    7AU     AUC 2354  36.745   7.532   7.396
    7AU     AUC 2355  36.687   7.502   7.739
    7AU     AUC 2356  35.808   7.508   7.387
    7AU     AUC 2357  35.829   7.591   7.718
    7AU     AUC 2358  36.164   8.322   7.732
    7AU     AUC 2359  36.483   8.286   7.763
    7AU     AUC 2360  36.079   7.392   7.825
    7AU     AUC 2361  36.392   7.340   7.818
    7AU     AUC 2362  36.097   8.227   7.163
    7AU     AUC 2363  36.458   8.255   7.184
    7AU     AUC 2364  36.119   7.340   7.265
    7AU     AUC 2365  36.494   7.376   7.271
    7AU    AUSL 2366  36.745   7.733   8.305
    7AU    AUSL 2367  36.518   7.349   8.222
    7AU     AUL 2368  36.819   7.377   8.410
    7AU    AUSL 2369  36.332   7.676   8.422
    7AU    AUSL 2370  36.096   8.072   8.401
    7AU     AUL 2371  36.321   7.979   8.693
    7AU    AUSL 2372  36.446   8.034   8.181
    7AU    AUSL 2373  36.891   8.083   8.117
    7AU     AUL 2374  36.719   8.048   8.452
    7AU    AUSL 2375  36.729   7.836   6.872
    7AU    AUSL 2376  36.580   8.226   6.957
    7AU     AUL 2377  36.803   8.156   6.677
    7AU    AUSL 2378  36.559   7.546   6.614
    7AU    AUSL 2379  37.033   7.581   7.002
    7AU     AUL 2380  36.944   7.698   6.659
    7AU    AUSL 2381  36.367   7.965   6.687
    7AU    AUSL 2382  36.182   7.575   6.799
    7AU     AUL 2383  36.286   7.618   6.470
    7AU    AUSL 2384  35.718   8.028   8.183
    7AU    AUSL 2385  36.056   8.343   8.079
    7AU     AUL 2386  35.878   8.322   8.401
    7AU    AUSL 2387  36.007   7.720   8.165
    7AU    AUSL 2388  35.598   7.600   8.121
    7AU     AUL 2389  35.518   7.827   8.251
    7AU    AUSL 2390  35.755   7.577   6.795
    7AU    AUSL 2391  35.979   7.255   6.984
    7AU     AUL 2392  36.030   7.270   6.654
    7AU    AUSL 2393  35.947   7.922   6.639
    7AU    AUSL 2394  35.640   7.941   6.993
    7AU     AUL 2395  35.529   7.771   6.733
    7AU    AUSL 2396  37.035   8.291   7.496
    7AU    AUSL 2397  36.982   8.088   7.094
    7AU     AUL 2398  37.308   8.294   7.185
    7AU    AUSL 2399  37.221   7.908   7.400
    7AU    AUSL 2400  37.173   7.608   7.772
    7AU     AUL 2401  37.474   7.702   7.575
    7AU    AUSL 2402  36.935   7.944   7.725
    7AU    AUSL 2403  36.755   8.341   7.800
    7AU     AUL 2404  37.124   8.120   7.874
    7AU    AUSL 2405  35.702   8.447   7.448
    7AU    AUSL 2406  35.730   8.236   7.819
    7AU     AUL 2407  35.416   8.481   7.637
    7AU    AUSL 2408  35.533   8.052   7.381
    7AU    AUSL 2409  35.674   8.362   7.041
    7AU     AUL 2410  35.415   8.286   7.181
    7AU    AUSL 2411  35.368   8.046   7.789
    7AU    AUSL 2412  35.352   7.676   7.376
    7AU     AUL 2413  35.174   8.015   7.486
    7AU    AUSL 2414  36.953   7.260   7.628
    7AU    AUSL 2415  36.787   7.537   7.937
    7AU     AUL 2416  37.090   7.448   8.023
    7AU    AUSL 2417  36.928   7.615   7.402
    7AU    AUSL 2418  36.920   7.206   7.206
    7AU     AUL 2419  37.186   7.429   7.288
    7AU    AUSL 2420  35.527   7.314   7.575
    7AU    AUSL 2421  35.689   7.504   7.198
    7AU     AUL 2422  35.318   7.386   7.261
    7AU    AUSL 2423  35.605   7.712   7.719
    7AU    AUSL 2424  35.829   7.343   7.870
    7AU     AUL 2425  35.515   7.330   7.909
    7AU    AUSL 2426  36.346   8.596   7.897
    7AU    AUSL 2427  35.901   8.630   7.782
    7AU     AUL 2428  36.093   8.682   8.152
    7AU    AUSL 2429  36.188   8.509   7.511
    7AU    AUSL 2430  36.432   8.622   7.170
    7AU     AUL 2431  36.179   8.864   7.439
    7AU    AUSL 2432  36.609   8.644   7.554
    7AU    AUSL 2433  36.597   8.420   8.184
    7AU     AUL 2434  36.718   8.667   7.916
    7AU    AUSL 2435  36.215   7.173   7.981
    7AU    AUSL 2436  36.636   7.138   7.871
    7AU     AUL 2437  36.389   7.058   8.244
    7AU    AUSL 2438  35.920   6.969   7.713
    7AU    AUSL 2439  35.975   7.330   8.286
    7AU     AUL 2440  35.904   7.036   8.065
    7AU    AUSL 2441  36.351   6.894   7.686
    7AU    AUSL 2442  36.140   7.110   7.375
    7AU     AUL 2443  36.035   6.751   7.483
    7AU    AUSL 2444  36.272   8.450   6.788
    7AU    AUSL 2445  36.823   8.482   7.193
    7AU     AUL 2446  36.597   8.559   6.853
    7AU    AUSL 2447  36.017   8.572   7.131
    7AU    AUSL 2448  36.035   8.154   6.967
    7AU     AUL 2449  35.951   8.426   6.763
    7AU    AUSL 2450  36.357   7.068   7.002
    7AU    AUSL 2451  35.734   7.079   7.294
    7AU     AUL 2452  36.018   6.920   7.051
    7AU    AUSL 2453  36.565   7.108   7.393
    7AU    AUSL 2454  36.603   7.411   7.005
    7AU     AUL 2455  36.676   7.046   7.004
    7AU       S 2456  36.833   6.925   8.261
    7AU     LIG 2457  37.045   6.492   8.260
    7AU     LIG 2458  37.138   6.100   8.489
    7AU     LIG 2459  37.242   5.751   8.792
    7AU       S 2460  36.694   7.671   8.745
    7AU     LIG 2461  37.002   7.942   8.944
    7AU     LIG 2462  37.235   7.871   9.353
    7AU     LIG 2463  37.450   7.796   9.772
    7AU       S 2464  36.350   7.509   8.633
    7AU     LIG 2465  36.368   7.527   9.091
    7AU     LIG 2466  36.786   7.570   9.313
    7AU     LIG 2467  37.068   7.452   9.684
    7AU       S 2468  35.880   7.872   8.611
    7AU     LIG 2469  35.950   7.850   9.051
    7AU     LIG 2470  35.561   7.777   9.233
    7AU     LIG 2471  35.324   7.794   9.625
    7AU       S 2472  36.340   8.439   8.554
    7AU     LIG 2473  36.654   8.688   8.761
    7AU     LIG 2474  37.048   8.502   8.898
    7AU     LIG 2475  37.412   8.297   9.079
    7AU       S 2476  37.071   8.328   8.294
    7AU     LIG 2477  37.402   8.394   8.544
    7AU     LIG 2478  37.596   8.704   8.793
    7AU     LIG 2479  37.714   9.127   8.973
    7AU       S 2480  36.661   7.931   6.311
    7AU     LIG 2481  37.031   7.931   6.010
    7AU     LIG 2482  37.217   7.543   5.895
    7AU     LIG 2483  37.074   7.144   5.736
    7AU       S 2484  37.044   8.552   6.785
    7AU     LIG 2485  36.892   8.935   6.644
    7AU     LIG 2486  37.091   9.167   6.298
    7AU     LIG 2487  37.412   9.057   5.994
    7AU       S 2488  37.209   7.331   6.808
    7AU     LIG 2489  37.234   7.241   6.317
    7AU     LIG 2490  37.212   6.827   6.142
    7AU     LIG 2491  37.346   6.394   6.266
    7AU       S 2492  36.672   7.761   6.286
    7AU     LIG 2493  36.735   7.372   6.108
    7AU     LIG 2494  36.564   7.204   5.698
    7AU     LIG 2495  36.765   7.212   5.270
    7AU       S 2496  35.857   7.574   6.323
    7AU     LIG 2497  35.905   7.680   5.901
    7AU     LIG 2498  36.055   7.561   5.498
    7AU     LIG 2499  35.822   7.502   5.121
    7AU       S 2500  36.404   8.075   6.442
    7AU     LIG 2501  36.218   8.015   6.088
    7AU     LIG 2502  36.423   7.711   5.834
    7AU     LIG 2503  36.809   7.640   5.601
    7AU       S 2504  35.671   7.987   8.655
    7AU     LIG 2505  35.341   7.750   8.705
    7AU     LIG 2506  35.401   7.396   8.909
    7AU     LIG 2507  35.314   7.328   9.338
    7AU       S 2508  35.619   8.609   8.137
    7AU     LIG 2509  35.573   8.874   8.421
    7AU     LIG 2510  35.277   8.807   8.733
    7AU     LIG 2511  34.871   8.975   8.824
    7AU       S 2512  35.501   7.379   8.396
    7AU     LIG 2513  35.098   7.382   8.249
    7AU     LIG 2514  34.856   6.988   8.273
    7AU     LIG 2515  34.579   6.725   8.569
    7AU       S 2516  35.860   7.697   8.556
    7AU     LIG 2517  35.920   7.388   8.867
    7AU     LIG 2518  35.836   7.336   9.271
    7AU     LIG 2519  35.797   7.568   9.652
    7AU       S 2520  35.687   7.485   6.413
    7AU     LIG 2521  35.445   7.466   6.028
    7AU     LIG 2522  35.532   7.557   5.577
    7AU     LIG 2523  35.697   7.931   5.377
    7AU       S 2524  35.634   7.089   6.823
    7AU     LIG 2525  35.458   6.700   6.674
    7AU     LIG 2526  35.242   6.481   6.342
    7AU     LIG 2527  34.900   6.440   6.042
    7AU       S 2528  35.361   8.194   6.698
    7AU     LIG 2529  35.074   8.513   6.727
    7AU     LIG 2530  35.127   8.907   6.516
    7AU     LIG 2531  35.051   9.212   6.185
    7AU       S 2532  35.876   7.858   6.415
    7AU     LIG 2533  35.573   7.987   6.166
    7AU     LIG 2534  35.760   8.188   5.820
    7AU     LIG 2535  36.147   8.087   5.572
    7AU       S 2536  37.136   8.445   6.801
    7AU     LIG 2537  37.533   8.528   6.639
    7AU     LIG 2538  37.647   8.639   6.207
    7AU     LIG 2539  37.873   8.814   5.857
    7AU       S 2540  37.181   8.505   7.592
    7AU     LIG 2541  37.519   8.722   7.345
    7AU     LIG 2542  37.969   8.725   7.427
    7AU     LIG 2543  38.180   8.689   7.819
    7AU       S 2544  37.493   8.175   7.593
    7AU     LIG 2545  37.806   8.237   7.336
    7AU     LIG 2546  38.243   8.277   7.314
    7AU     LIG 2547  38.517   8.563   7.435
    7AU       S 2548  37.424   7.260   7.770
    7AU     LIG 2549  37.750   7.064   7.996
    7AU     LIG 2550  38.170   6.971   7.842
    7AU     LIG 2551  38.369   7.097   7.452
    7AU       S 2552  37.109   8.526   8.105
    7AU     LIG 2553  37.488   8.743   8.166
    7AU     LIG 2554  37.573   9.098   8.454
    7AU     LIG 2555  37.397   9.444   8.709
    7AU       S 2556  37.437   8.393   7.709
    7AU     LIG 2557  37.779   8.335   7.972
    7AU     LIG 2558  38.179   8.180   7.824
    7AU     LIG 2559  38.607   8.331   7.881
    7AU       S 2560  35.549   8.441   8.076
    7AU     LIG 2561  35.315   8.315   8.424
    7AU     LIG 2562  34.894   8.527   8.490
    7AU     LIG 2563  34.521   8.826   8.433
    7AU       S 2564  35.651   8.784   7.349
    7AU     LIG 2565  35.493   9.077   7.050
    7AU     LIG 2566  35.120   8.965   7.018
    7AU     LIG 2567  34.950   8.583   7.232
    7AU       S 2568  35.155   7.910   7.027
    7AU     LIG 2569  34.727   7.851   6.918
    7AU     LIG 2570  34.407   8.041   7.144
    7AU     LIG 2571  34.421   8.501   7.214
    7AU       S 2572  35.540   8.616   6.855
    7AU     LIG 2573  35.656   8.970   6.593
    7AU     LIG 2574  35.376   9.349   6.628
    7AU     LIG 2575  34.933   9.367   6.734
    7AU       S 2576  35.137   7.582   7.665
    7AU     LIG 2577  34.822   7.629   7.371
    7AU     LIG 2578  34.429   7.517   7.193
    7AU     LIG 2579  34.092   7.222   7.231
    7AU       S 2580  35.236   8.096   7.960
    7AU     LIG 2581  35.010   7.909   8.269
    7AU     LIG 2582  34.599   8.123   8.262
    7AU     LIG 2583  34.463   8.494   8.027
    7AU       S 2584  37.118   7.115   7.648
    7AU     LIG 2585  37.198   6.782   7.394
    7AU     LIG 2586  37.615   6.637   7.473
    7AU     LIG 2587  37.836   6.579   7.849
    7AU       S 2588  37.011   7.013   8.117
    7AU     LIG 2589  37.344   6.761   7.931
    7AU     LIG 2590  37.561   6.577   8.272
    7AU     LIG 2591  37.464   6.557   8.716
    7AU       S 2592  37.411   7.193   7.599
    7AU     LIG 2593  37.591   7.092   7.216
    7AU     LIG 2594  38.026   6.982   7.075
    7AU     LIG 2595  38.489   6.973   6.970
    7AU       S 2596  37.141   7.088   6.951
    7AU     LIG 2597  37.152   6.720   6.703
    7AU     LIG 2598  37.134   6.249   6.711
    7AU     LIG 2599  37.103   5.924   6.357
    7AU       S 2600  35.497   7.205   6.882
    7AU     LIG 2601  35.235   7.179   6.524
    7AU     LIG 2602  34.908   6.873   6.386
    7AU     LIG 2603  34.532   6.567   6.428
    7AU       S 2604  35.114   7.355   7.691
    7AU     LIG 2605  34.742   7.314   7.860
    7AU     LIG 2606  34.509   7.148   7.546
    7AU     LIG 2607  34.334   6.797   7.363
    7AU       S 2608  35.523   7.127   8.314
    7AU     LIG 2609  35.463   6.829   7.934
    7AU     LIG 2610  35.176   6.457   7.902
    7AU     LIG 2611  34.857   6.471   8.227
    7AU       S 2612  35.171   7.625   7.826
    7AU     LIG 2613  34.760   7.860   7.821
    7AU     LIG 2614  34.374   7.636   7.716
    7AU     LIG 2615  34.102   7.264   7.820
    7AU       S 2616  35.762   8.809   7.829
    7AU     LIG 2617  35.332   8.963   7.941
    7AU     LIG 2618  35.047   9.036   8.309
    7AU     LIG 2619  34.826   9.396   8.531
    7AU       S 2620  36.351   8.937   7.858
    7AU     LIG 2621  36.508   8.944   8.287
    7AU     LIG 2622  36.375   9.304   8.538
    7AU     LIG 2623  36.050   9.647   8.509
    7AU       S 2624  36.483   9.102   7.762
    7AU     LIG 2625  36.172   9.346   8.061
    7AU     LIG 2626  35.977   9.743   7.997
    7AU     LIG 2627  35.784  10.087   7.766
    7AU       S 2628  36.340   8.920   6.999
    7AU     LIG 2629  36.439   9.253   7.225
    7AU     LIG 2630  36.332   9.643   7.135
    7AU     LIG 2631  36.547  10.000   6.964
    7AU       S 2632  36.846   8.514   8.345
    7AU     LIG 2633  37.103   8.844   8.511
    7AU     LIG 2634  37.204   8.999   8.921
    7AU     LIG 2635  37.426   8.805   9.285
    7AU       S 2636  36.650   8.912   7.523
    7AU     LIG 2637  36.840   9.350   7.543
    7AU     LIG 2638  36.524   9.610   7.796
    7AU     LIG 2639  36.474   9.756   8.223
    7AU       S 2640  36.210   6.663   8.075
    7AU     LIG 2641  36.554   6.337   8.146
    7AU     LIG 2642  36.676   5.886   8.250
    7AU     LIG 2643  36.605   5.413   8.412
    7AU       S 2644  36.774   6.980   7.976
    7AU     LIG 2645  36.881   6.618   7.795
    7AU     LIG 2646  36.945   6.161   7.823
    7AU     LIG 2647  37.142   5.800   8.053
    7AU       S 2648  36.009   6.607   7.921
    7AU     LIG 2649  36.011   6.215   7.777
    7AU     LIG 2650  36.163   5.969   8.098
    7AU     LIG 2651  36.037   5.587   8.299
    7AU       S 2652  35.735   7.240   8.456
    7AU     LIG 2653  35.503   6.922   8.753
    7AU     LIG 2654  35.128   6.640   8.641
    7AU     LIG 2655  34.818   6.295   8.724
    7AU       S 2656  36.437   6.671   7.276
    7AU     LIG 2657  36.165   6.278   7.264
    7AU     LIG 2658  36.223   5.867   7.074
    7AU     LIG 2659  36.514   5.511   7.044
    7AU       S 2660  36.356   6.717   7.848
    7AU     LIG 2661  36.476   6.359   7.653
    7AU     LIG 2662  36.492   5.927   7.697
    7AU     LIG 2663  36.422   5.556   7.958
    7AU       S 2664  36.210   8.822   6.733
    7AU     LIG 2665  36.090   9.258   6.703
    7AU     LIG 2666  36.271   9.666   6.634
    7AU     LIG 2667  36.427   9.990   6.362
    7AU       S 2668  36.995   8.653   7.106
    7AU     LIG 2669  37.328   8.947   6.925
    7AU     LIG 2670  37.537   9.030   6.526
    7AU     LIG 2671  37.891   9.176   6.258
    7AU       S 2672  36.005   8.841   6.994
    7AU     LIG 2673  35.933   9.252   7.196
    7AU     LIG 2674  35.845   9.636   6.948
    7AU     LIG 2675  36.060  10.073   6.870
    7AU       S 2676  35.573   8.240   6.604
    7AU     LIG 2677  35.473   8.550   6.321
    7AU     LIG 2678  35.488   8.951   6.100
    7AU     LIG 2679  35.550   9.407   6.152
    7AU       S 2680  35.550   6.997   7.115
    7AU     LIG 2681  35.109   6.894   6.986
    7AU     LIG 2682  34.918   6.525   6.763
    7AU     LIG 2683  34.857   6.145   6.462
    7AU       S 2684  36.421   6.685   7.125
    7AU     LIG 2685  36.691   6.518   6.830
    7AU     LIG 2686  36.657   6.123   6.579
    7AU     LIG 2687  36.518   5.687   6.550
    7AU       S 2688  36.685   6.781   7.382
    7AU     LIG 2689  36.857   6.387   7.315
    7AU     LIG 2690  36.728   6.027   7.095
    7AU     LIG 2691  36.963   5.760   6.817
    7AU       S 2692  36.940   7.232   6.692
    7AU     LIG 2693  36.733   6.945   6.482
    7AU     LIG 2694  36.839   6.525   6.319
    7AU     LIG 2695  36.944   6.223   5.976
    8AU     AUC 2696  29.200  22.528   7.537
    8AU     AUC 2697  29.463  22.523   7.377
    8AU     AUC 2698  29.436  22.521   7.712
    8AU     AUC 2699  28.932  22.525   7.374
    8AU     AUC 2700  28.944  22.575   7.699
    8AU     AUC 2701  29.048  22.792   7.497
    8AU     AUC 2702  29.388  22.792   7.513
    8AU     AUC 2703  29.021  22.273   7.556
    8AU     AUC 2704  29.356  22.253   7.561
    8AU     AUC 2705  29.185  22.381   7.813
    8AU     AUC 2706  29.205  22.724   7.780
    8AU     AUC 2707  29.202  22.341   7.287
    8AU     AUC 2708  29.223  22.653   7.264
    8AU     AUC 2709  29.782  22.517   7.228
    8AU     AUC 2710  29.761  22.500   7.568
    8AU     AUC 2711  29.708  22.496   7.923
    8AU     AUC 2712  28.634  22.494   7.227
    8AU     AUC 2713  28.628  22.576   7.553
    8AU     AUC 2714  28.648  22.635   7.870
    8AU     AUC 2715  28.896  23.096   7.431
    8AU     AUC 2716  29.252  23.078   7.427
    8AU     AUC 2717  29.587  23.062   7.475
    8AU     AUC 2718  28.824  21.993   7.575
    8AU     AUC 2719  29.174  21.964   7.561
    8AU     AUC 2720  29.527  21.955   7.578
    8AU     AUC 2721  29.148  22.223   8.115
    8AU     AUC 2722  29.171  22.575   8.100
    8AU     AUC 2723  29.234  22.932   8.059
    8AU     AUC 2724  29.239  22.150   7.012
    8AU     AUC 2725  29.200  22.478   6.961
    8AU     AUC 2726  29.196  22.794   6.950
    8AU     AUC 2727  29.420  22.339   8.031
    8AU     AUC 2728  29.476  22.699   8.007
    8AU     AUC 2729  29.515  22.352   7.086
    8AU     AUC 2730  29.490  22.667   7.093
    8AU     AUC 2731  28.892  22.449   8.009
    8AU     AUC 2732  28.938  22.804   7.959
    8AU     AUC 2733  28.923  22.306   7.113
    8AU     AUC 2734  28.895  22.615   7.065
    8AU     AUC 2735  29.705  22.790   7.362
    8AU     AUC 2736  29.641  22.785   7.711
    8AU     AUC 2737  28.749  22.806   7.351
    8AU     AUC 2738  28.787  22.896   7.680
    8AU     AUC 2739  29.664  22.236   7.414
    8AU     AUC 2740  29.606  22.208   7.758
    8AU     AUC 2741  28.726  22.229   7.407
    8AU     AUC 2742  28.744  22.308   7.737
    8AU     AUC 2743  29.098  23.036   7.753
    8AU     AUC 2744  29.416  22.997   7.784
    8AU     AUC 2745  28.994  22.107   7.842
    8AU     AUC 2746  29.307  22.051   7.837
    8AU     AUC 2747  29.032  22.944   7.183
    8AU     AUC 2748  29.393  22.966   7.205
    8AU     AUC 2749  29.036  22.055   7.285
    8AU     AUC 2750  29.412  22.084   7.289
    8AU    AUSL 2751  29.664  22.438   8.325
    8AU    AUSL 2752  29.432  22.055   8.241
    8AU     AUL 2753  29.735  22.090   8.433
    8AU    AUSL 2754  29.250  22.384   8.439
    8AU    AUSL 2755  29.020  22.783   8.420
    8AU     AUL 2756  29.238  22.684   8.711
    8AU    AUSL 2757  29.371  22.744   8.203
    8AU    AUSL 2758  29.817  22.783   8.136
    8AU     AUL 2759  29.644  22.751   8.474
    8AU    AUSL 2760  29.655  22.542   6.893
    8AU    AUSL 2761  29.516  22.936   6.978
    8AU     AUL 2762  29.732  22.865   6.696
    8AU    AUSL 2763  29.476  22.260   6.633
    8AU    AUSL 2764  29.952  22.277   7.018
    8AU     AUL 2765  29.860  22.401   6.672
    8AU    AUSL 2766  29.294  22.678   6.711
    8AU    AUSL 2767  29.100  22.290   6.819
    8AU     AUL 2768  29.208  22.332   6.491
    8AU    AUSL 2769  28.641  22.746   8.202
    8AU    AUSL 2770  28.992  23.059   8.102
    8AU     AUL 2771  28.810  23.036   8.419
    8AU    AUSL 2772  28.926  22.435   8.183
    8AU    AUSL 2773  28.515  22.318   8.138
    8AU     AUL 2774  28.439  22.543   8.274
    8AU    AUSL 2775  28.673  22.301   6.817
    8AU    AUSL 2776  28.895  21.974   7.006
    8AU     AUL 2777  28.946  21.986   6.674
    8AU    AUSL 2778  28.873  22.642   6.661
    8AU    AUSL 2779  28.569  22.668   7.016
    8AU     AUL 2780  28.449  22.512   6.754
    8AU    AUSL 2781  29.980  22.988   7.521
    8AU    AUSL 2782  29.916  22.788   7.114
    8AU     AUL 2783  30.249  22.985   7.208
    8AU    AUSL 2784  30.148  22.600   7.419
    8AU    AUSL 2785  30.093  22.304   7.791
    8AU     AUL 2786  30.397  22.391   7.593
    8AU    AUSL 2787  29.860  22.644   7.744
    8AU    AUSL 2788  29.693  23.048   7.816
    8AU     AUL 2789  30.056  22.807   7.894
    8AU    AUSL 2790  28.644  23.171   7.470
    8AU    AUSL 2791  28.664  22.960   7.842
    8AU     AUL 2792  28.357  23.208   7.658
    8AU    AUSL 2793  28.464  22.779   7.404
    8AU    AUSL 2794  28.611  23.087   7.063
    8AU     AUL 2795  28.354  23.017   7.206
    8AU    AUSL 2796  28.298  22.776   7.812
    8AU    AUSL 2797  28.273  22.408   7.388
    8AU     AUL 2798  28.108  22.754   7.509
    8AU    AUSL 2799  29.867  21.960   7.648
    8AU    AUSL 2800  29.706  22.241   7.958
    8AU     AUL 2801  30.009  22.149   8.043
    8AU    AUSL 2802  29.849  22.314   7.419
    8AU    AUSL 2803  29.834  21.906   7.227
    8AU     AUL 2804  30.103  22.122   7.304
    8AU    AUSL 2805  28.435  22.041   7.592
    8AU    AUSL 2806  28.610  22.226   7.220
    8AU     AUL 2807  28.232  22.114   7.281
    8AU    AUSL 2808  28.522  22.435   7.738
    8AU    AUSL 2809  28.742  22.060   7.884
    8AU     AUL 2810  28.424  22.043   7.922
    8AU    AUSL 2811  29.282  23.308   7.918
    8AU    AUSL 2812  28.844  23.349   7.806
    8AU     AUL 2813  29.044  23.393   8.178
    8AU    AUSL 2814  29.126  23.225   7.530
    8AU    AUSL 2815  29.375  23.336   7.191
    8AU     AUL 2816  29.116  23.581   7.455
    8AU    AUSL 2817  29.547  23.359   7.578
    8AU    AUSL 2818  29.532  23.127   8.201
    8AU     AUL 2819  29.647  23.385   7.935
    8AU    AUSL 2820  29.125  21.887   7.997
    8AU    AUSL 2821  29.546  21.845   7.889
    8AU     AUL 2822  29.293  21.766   8.259
    8AU    AUSL 2823  28.830  21.684   7.730
    8AU    AUSL 2824  28.888  22.045   8.302
    8AU     AUL 2825  28.805  21.754   8.078
    8AU    AUSL 2826  29.260  21.602   7.704
    8AU    AUSL 2827  29.054  21.825   7.395
    8AU     AUL 2828  28.951  21.467   7.497
    8AU    AUSL 2829  29.213  23.163   6.808
    8AU    AUSL 2830  29.758  23.180   7.226
    8AU     AUL 2831  29.543  23.272   6.877
    8AU    AUSL 2832  28.961  23.290   7.148
    8AU    AUSL 2833  28.969  22.873   6.987
    8AU     AUL 2834  28.892  23.140   6.779
    8AU    AUSL 2835  29.270  21.778   7.022
    8AU    AUSL 2836  28.648  21.801   7.318
    8AU     AUL 2837  28.932  21.638   7.067
    8AU    AUSL 2838  29.478  21.814   7.414
    8AU    AUSL 2839  29.522  22.115   7.021
    8AU     AUL 2840  29.594  21.744   7.036
    8AU       S 2841  29.734  21.638   8.290
    8AU     LIG 2842  29.971  21.258   8.365
    8AU     LIG 2843  30.254  20.962   8.584
    8AU     LIG 2844  30.552  20.599   8.626
    8AU       S 2845  29.597  22.372   8.770
    8AU     LIG 2846  30.017  22.430   8.712
    8AU     LIG 2847  30.245  22.504   9.103
    8AU     LIG 2848  30.242  22.402   9.563
    8AU       S 2849  29.252  22.210   8.653
    8AU     LIG 2850  29.273  22.235   9.114
    8AU     LIG 2851  29.691  22.231   9.352
    8AU     LIG 2852  29.907  22.030   9.727
    8AU       S 2853  28.794  22.587   8.633
    8AU     LIG 2854  28.855  22.566   9.087
    8AU     LIG 2855  28.577  22.340   9.402
    8AU     LIG 2856  28.298  22.334   9.805
    8AU       S 2857  29.276  23.141   8.573
    8AU     LIG 2858  29.546  23.471   8.710
    8AU     LIG 2859  29.944  23.325   8.844
    8AU     LIG 2860  30.098  22.922   8.803
    8AU       S 2861  29.998  23.022   8.307
    8AU     LIG 2862  30.401  22.999   8.396
    8AU     LIG 2863  30.455  23.334   8.690
    8AU     LIG 2864  30.713  23.647   8.915
    8AU       S 2865  29.579  22.645   6.331
    8AU     LIG 2866  30.042  22.651   6.256
    8AU     LIG 2867  30.180  22.262   6.051
    8AU     LIG 2868  30.058  21.969   5.699
    8AU       S 2869  29.995  23.250   6.832
    8AU     LIG 2870  29.859  23.560   6.532
    8AU     LIG 2871  30.046  23.785   6.158
    8AU     LIG 2872  30.430  24.063   6.094
    8AU       S 2873  30.103  22.019   6.818
    8AU     LIG 2874  30.156  21.836   6.359
    8AU     LIG 2875  30.260  21.429   6.181
    8AU     LIG 2876  30.367  20.981   6.223
    8AU       S 2877  29.589  22.476   6.291
    8AU     LIG 2878  29.683  22.078   6.176
    8AU     LIG 2879  29.529  21.932   5.759
    8AU     LIG 2880  29.657  21.991   5.325
    8AU       S 2881  28.777  22.297   6.346
    8AU     LIG 2882  28.787  22.323   5.925
    8AU     LIG 2883  28.968  22.140   5.555
    8AU     LIG 2884  28.990  22.313   5.139
    8AU       S 2885  29.329  22.789   6.456
    8AU     LIG 2886  29.119  22.681   6.087
    8AU     LIG 2887  29.317  22.392   5.855
    8AU     LIG 2888  29.765  22.400   5.775
    8AU       S 2889  28.594  22.706   8.676
    8AU     LIG 2890  28.286  22.429   8.749
    8AU     LIG 2891  28.297  22.055   8.985
    8AU     LIG 2892  28.194  21.968   9.435
    8AU       S 2893  28.569  23.353   8.167
    8AU     LIG 2894  28.421  23.656   8.401
    8AU     LIG 2895  28.131  23.577   8.729
    8AU     LIG 2896  27.850  23.795   9.018
    8AU       S 2897  28.412  22.092   8.409
    8AU     LIG 2898  28.001  22.043   8.219
    8AU     LIG 2899  27.819  21.633   8.109
    8AU     LIG 2900  27.729  21.219   8.365
    8AU       S 2901  28.780  22.411   8.580
    8AU     LIG 2902  28.807  22.098   8.922
    8AU     LIG 2903  28.681  21.844   9.288
    8AU     LIG 2904  28.616  21.914   9.755
    8AU       S 2905  28.612  22.221   6.444
    8AU     LIG 2906  28.413  21.953   6.154
    8AU     LIG 2907  28.432  22.031   5.689
    8AU     LIG 2908  28.545  22.406   5.425
    8AU       S 2909  28.546  21.824   6.856
    8AU     LIG 2910  28.462  21.445   6.718
    8AU     LIG 2911  28.252  21.398   6.325
    8AU     LIG 2912  27.958  21.242   6.005
    8AU       S 2913  28.290  22.945   6.720
    8AU     LIG 2914  28.031  23.328   6.671
    8AU     LIG 2915  27.838  23.468   6.305
    8AU     LIG 2916  28.115  23.384   5.950
    8AU       S 2917  28.808  22.590   6.450
    8AU     LIG 2918  28.497  22.702   6.195
    8AU     LIG 2919  28.605  22.792   5.773
    8AU     LIG 2920  28.983  22.666   5.543
    8AU       S 2921  30.087  23.125   6.814
    8AU     LIG 2922  30.171  23.184   6.359
    8AU     LIG 2923  30.466  23.497   6.163
    8AU     LIG 2924  30.860  23.757   6.174
    8AU       S 2925  30.143  23.194   7.619
    8AU     LIG 2926  30.540  23.363   7.394
    8AU     LIG 2927  30.997  23.325   7.507
    8AU     LIG 2928  31.346  23.518   7.787
    8AU       S 2929  30.437  22.862   7.615
    8AU     LIG 2930  30.854  22.774   7.506
    8AU     LIG 2931  31.274  22.877   7.349
    8AU     LIG 2932  31.503  23.265   7.385
    8AU       S 2933  30.345  21.954   7.797
    8AU     LIG 2934  30.698  21.676   7.868
    8AU     LIG 2935  31.022  21.654   7.617
    8AU     LIG 2936  31.442  21.620   7.735
    8AU       S 2937  30.036  23.221   8.112
    8AU     LIG 2938  30.410  23.447   8.156
    8AU     LIG 2939  30.556  23.795   8.434
    8AU     LIG 2940  30.728  24.133   8.723
    8AU       S 2941  30.389  23.060   7.744
    8AU     LIG 2942  30.772  23.102   7.938
    8AU     LIG 2943  31.208  23.000   7.850
    8AU     LIG 2944  31.634  22.907   7.729
    8AU       S 2945  28.490  23.171   8.095
    8AU     LIG 2946  28.282  23.065   8.456
    8AU     LIG 2947  27.852  23.212   8.496
    8AU     LIG 2948  27.593  23.576   8.616
    8AU       S 2949  28.607  23.501   7.382
    8AU     LIG 2950  28.326  23.793   7.376
    8AU     LIG 2951  28.169  23.711   7.005
    8AU     LIG 2952  27.820  23.408   7.121
    8AU       S 2953  28.085  22.658   7.047
    8AU     LIG 2954  27.797  22.345   7.114
    8AU     LIG 2955  27.431  22.615   7.150
    8AU     LIG 2956  27.317  23.062   7.002
    8AU       S 2957  28.495  23.346   6.896
    8AU     LIG 2958  28.564  23.703   6.672
    8AU     LIG 2959  28.181  23.823   6.475
    8AU     LIG 2960  28.012  23.876   6.029
    8AU       S 2961  28.037  22.324   7.670
    8AU     LIG 2962  27.588  22.311   7.570
    8AU     LIG 2963  27.511  21.902   7.445
    8AU     LIG 2964  27.497  21.551   7.157
    8AU       S 2965  28.165  22.827   7.991
    8AU     LIG 2966  27.948  22.705   8.354
    8AU     LIG 2967  27.513  22.879   8.278
    8AU     LIG 2968  27.358  23.327   8.185
    8AU       S 2969  30.031  21.812   7.672
    8AU     LIG 2970  30.131  21.419   7.540
    8AU     LIG 2971  30.522  21.248   7.652
    8AU     LIG 2972  30.824  21.213   7.353
    8AU       S 2973  29.906  21.725   8.154
    8AU     LIG 2974  30.246  21.512   8.025
    8AU     LIG 2975  30.545  21.214   8.176
    8AU     LIG 2976  30.722  21.181   8.575
    8AU       S 2977  30.321  21.890   7.619
    8AU     LIG 2978  30.542  21.672   7.330
    8AU     LIG 2979  30.953  21.685   7.122
    8AU     LIG 2980  31.379  21.821   7.226
    8AU       S 2981  30.057  21.781   6.966
    8AU     LIG 2982  30.052  21.406   6.715
    8AU     LIG 2983  30.081  20.930   6.677
    8AU     LIG 2984  30.233  20.523   6.454
    8AU       S 2985  28.419  21.927   6.912
    8AU     LIG 2986  28.139  22.031   6.625
    8AU     LIG 2987  27.865  21.721   6.416
    8AU     LIG 2988  27.636  21.303   6.398
    8AU       S 2989  28.019  22.109   7.710
    8AU     LIG 2990  28.049  21.697   7.624
    8AU     LIG 2991  27.697  21.413   7.637
    8AU     LIG 2992  27.234  21.440   7.660
    8AU       S 2993  28.440  21.861   8.344
    8AU     LIG 2994  28.354  21.547   8.012
    8AU     LIG 2995  28.078  21.185   7.987
    8AU     LIG 2996  27.892  20.785   8.135
    8AU       S 2997  28.099  22.358   7.840
    8AU     LIG 2998  27.702  22.418   8.042
    8AU     LIG 2999  27.480  22.060   8.096
    8AU     LIG 3000  27.176  21.920   7.838
    8AU       S 3001  28.714  23.545   7.860
    8AU     LIG 3002  28.261  23.651   7.886
    8AU     LIG 3003  27.945  23.694   8.217
    8AU     LIG 3004  27.988  24.029   8.541
    8AU       S 3005  29.281  23.657   7.876
    8AU     LIG 3006  29.441  23.732   8.268
    8AU     LIG 3007  29.289  24.165   8.368
    8AU     LIG 3008  28.866  24.368   8.448
    8AU       S 3009  29.400  23.838   7.771
    8AU     LIG 3010  29.005  24.063   7.943
    8AU     LIG 3011  28.773  24.462   7.961
    8AU     LIG 3012  28.705  24.827   8.265
    8AU       S 3013  29.288  23.639   7.019
    8AU     LIG 3014  29.256  24.018   7.225
    8AU     LIG 3015  29.381  24.445   7.184
    8AU     LIG 3016  29.365  24.811   6.944
    8AU       S 3017  29.779  23.215   8.358
    8AU     LIG 3018  29.993  23.615   8.429
    8AU     LIG 3019  30.204  23.772   8.811
    8AU     LIG 3020  30.296  23.520   9.194
    8AU       S 3021  29.574  23.667   7.554
    8AU     LIG 3022  29.643  24.178   7.530
    8AU     LIG 3023  29.293  24.463   7.703
    8AU     LIG 3024  29.201  24.681   8.106
    8AU       S 3025  29.097  21.380   8.088
    8AU     LIG 3026  29.442  21.140   8.245
    8AU     LIG 3027  29.349  20.690   8.326
    8AU     LIG 3028  29.554  20.346   8.512
    8AU       S 3029  29.679  21.683   7.994
    8AU     LIG 3030  29.779  21.305   7.878
    8AU     LIG 3031  30.137  21.024   7.936
    8AU     LIG 3032  30.344  20.699   8.163
    8AU       S 3033  28.896  21.318   7.931
    8AU     LIG 3034  28.906  20.941   7.680
    8AU     LIG 3035  29.016  20.588   7.936
    8AU     LIG 3036  28.753  20.356   8.245
    8AU       S 3037  28.668  21.955   8.483
    8AU     LIG 3038  28.484  21.599   8.763
    8AU     LIG 3039  28.230  21.176   8.663
    8AU     LIG 3040  27.971  20.772   8.686
    8AU       S 3041  29.356  21.378   7.294
    8AU     LIG 3042  29.165  20.934   7.224
    8AU     LIG 3043  29.249  20.513   7.061
    8AU     LIG 3044  29.517  20.133   7.070
    8AU       S 3045  29.256  21.425   7.870
    8AU     LIG 3046  29.382  21.073   7.668
    8AU     LIG 3047  29.408  20.616   7.583
    8AU     LIG 3048  29.516  20.321   7.950
    8AU       S 3049  29.157  23.532   6.749
    8AU     LIG 3050  29.048  23.963   6.686
    8AU     LIG 3051  29.318  24.332   6.688
    8AU     LIG 3052  29.406  24.698   6.431
    8AU       S 3053  29.935  23.340   7.139
    8AU     LIG 3054  30.061  23.757   6.967
    8AU     LIG 3055  30.290  23.964   6.607
    8AU     LIG 3056  30.729  24.117   6.539
    8AU       S 3057  28.956  23.554   7.006
    8AU     LIG 3058  28.752  23.926   7.108
    8AU     LIG 3059  28.903  24.352   6.992
    8AU     LIG 3060  28.930  24.680   6.651
    8AU       S 3061  28.504  22.976   6.625
    8AU     LIG 3062  28.435  23.315   6.350
    8AU     LIG 3063  28.520  23.710   6.124
    8AU     LIG 3064  28.618  24.112   6.319
    8AU       S 3065  28.477  21.723   7.168
    8AU     LIG 3066  28.055  21.635   7.103
    8AU     LIG 3067  27.960  21.344   6.784
    8AU     LIG 3068  28.045  20.959   6.508
    8AU       S 3069  29.327  21.390   7.142
    8AU     LIG 3070  29.536  21.221   6.765
    8AU     LIG 3071  29.598  20.799   6.558
    8AU     LIG 3072  29.467  20.353   6.601
    8AU       S 3073  29.614  21.486   7.426
    8AU     LIG 3074  29.839  21.235   7.161
    8AU     LIG 3075  29.720  20.799   7.056
    8AU     LIG 3076  29.913  20.440   6.852
    8AU       S 3077  29.834  21.934   6.705
    8AU     LIG 3078  29.667  21.629   6.463
    8AU     LIG 3079  29.810  21.207   6.305
    8AU     LIG 3080  29.903  20.797   6.112
    9AU     AUC 3081  12.127  23.294   7.524
    9AU     AUC 3082  12.387  23.300   7.360
    9AU     AUC 3083  12.367  23.299   7.695
    9AU     AUC 3084  11.859  23.278   7.364
    9AU     AUC 3085  11.872  23.330   7.689
    9AU     AUC 3086  11.961  23.550   7.485
    9AU     AUC 3087  12.302  23.567   7.496
    9AU     AUC 3088  11.960  23.032   7.547
    9AU     AUC 3089  12.295  23.026   7.546
    9AU     AUC 3090  12.123  23.148   7.801
    9AU     AUC 3091  12.126  23.492   7.765
    9AU     AUC 3092  12.135  23.106   7.274
    9AU     AUC 3093  12.141  23.420   7.251
    9AU     AUC 3094  12.704  23.309   7.206
    9AU     AUC 3095  12.689  23.290   7.545
    9AU     AUC 3096  12.646  23.286   7.901
    9AU     AUC 3097  11.561  23.231   7.220
    9AU     AUC 3098  11.553  23.313   7.545
    9AU     AUC 3099  11.575  23.376   7.865
    9AU     AUC 3100  11.791  23.845   7.422
    9AU     AUC 3101  12.150  23.845   7.414
    9AU     AUC 3102  12.486  23.845   7.457
    9AU     AUC 3103  11.777  22.742   7.568
    9AU     AUC 3104  12.125  22.730   7.552
    9AU     AUC 3105  12.476  22.737   7.562
    9AU     AUC 3106  12.098  22.992   8.104
    9AU     AUC 3107  12.107  23.345   8.087
    9AU     AUC 3108  12.150  23.704   8.044
    9AU     AUC 3109  12.180  22.916   6.999
    9AU     AUC 3110  12.121  23.243   6.948
    9AU     AUC 3111  12.104  23.561   6.938
    9AU     AUC 3112  12.364  23.117   8.013
    9AU     AUC 3113  12.404  23.479   7.987
    9AU     AUC 3114  12.443  23.130   7.069
    9AU     AUC 3115  12.404  23.449   7.076
    9AU     AUC 3116  11.830  23.207   8.000
    9AU     AUC 3117  11.859  23.561   7.947
    9AU     AUC 3118  11.860  23.058   7.102
    9AU     AUC 3119  11.813  23.365   7.055
    9AU     AUC 3120  12.617  23.579   7.341
    9AU     AUC 3121  12.561  23.571   7.690
    9AU     AUC 3122  11.659  23.549   7.344
    9AU     AUC 3123  11.695  23.640   7.671
    9AU     AUC 3124  12.599  23.021   7.391
    9AU     AUC 3125  12.550  22.993   7.739
    9AU     AUC 3126  11.670  22.971   7.397
    9AU     AUC 3127  11.686  23.054   7.730
    9AU     AUC 3128  12.000  23.797   7.740
    9AU     AUC 3129  12.324  23.774   7.766
    9AU     AUC 3130  11.944  22.866   7.836
    9AU     AUC 3131  12.257  22.824   7.825
    9AU     AUC 3132  11.933  23.700   7.173
    9AU     AUC 3133  12.294  23.740   7.189
    9AU     AUC 3134  11.986  22.812   7.273
    9AU     AUC 3135  12.355  22.857   7.274
    9AU    AUSL 3136  12.610  23.228   8.301
    9AU    AUSL 3137  12.388  22.838   8.224
    9AU     AUL 3138  12.694  22.884   8.409
    9AU    AUSL 3139  12.201  23.161   8.427
    9AU    AUSL 3140  11.956  23.552   8.409
    9AU     AUL 3141  12.190  23.468   8.692
    9AU    AUSL 3142  12.301  23.520   8.183
    9AU    AUSL 3143  12.744  23.581   8.110
    9AU     AUL 3144  12.585  23.539   8.449
    9AU    AUSL 3145  12.569  23.329   6.883
    9AU    AUSL 3146  12.421  23.722   6.954
    9AU     AUL 3147  12.641  23.653   6.673
    9AU    AUSL 3148  12.408  23.044   6.615
    9AU    AUSL 3149  12.880  23.072   6.992
    9AU     AUL 3150  12.783  23.198   6.656
    9AU    AUSL 3151  12.204  23.451   6.698
    9AU    AUSL 3152  12.033  23.053   6.804
    9AU     AUL 3153  12.139  23.104   6.474
    9AU    AUSL 3154  11.574  23.496   8.200
    9AU    AUSL 3155  11.897  23.816   8.086
    9AU     AUL 3156  11.726  23.793   8.411
    9AU    AUSL 3157  11.871  23.197   8.176
    9AU    AUSL 3158  11.463  23.069   8.133
    9AU     AUL 3159  11.386  23.288   8.282
    9AU    AUSL 3160  11.606  23.039   6.808
    9AU    AUSL 3161  11.851  22.725   6.993
    9AU     AUL 3162  11.897  22.743   6.661
    9AU    AUSL 3163  11.785  23.392   6.652
    9AU    AUSL 3164  11.483  23.399   7.012
    9AU     AUL 3165  11.373  23.234   6.750
    9AU    AUSL 3166  12.889  23.789   7.496
    9AU    AUSL 3167  12.824  23.591   7.091
    9AU     AUL 3168  13.151  23.796   7.173
    9AU    AUSL 3169  13.070  23.406   7.388
    9AU    AUSL 3170  13.034  23.106   7.761
    9AU     AUL 3171  13.331  23.187   7.554
    9AU    AUSL 3172  12.788  23.438   7.719
    9AU    AUSL 3173  12.600  23.837   7.791
    9AU     AUL 3174  12.976  23.622   7.869
    9AU    AUSL 3175  11.533  23.907   7.461
    9AU    AUSL 3176  11.568  23.698   7.833
    9AU     AUL 3177  11.239  23.922   7.662
    9AU    AUSL 3178  11.373  23.508   7.401
    9AU    AUSL 3179  11.505  23.821   7.054
    9AU     AUL 3180  11.252  23.740   7.199
    9AU    AUSL 3181  11.215  23.489   7.816
    9AU    AUSL 3182  11.210  23.124   7.381
    9AU     AUL 3183  11.026  23.462   7.511
    9AU    AUSL 3184  12.816  22.755   7.625
    9AU    AUSL 3185  12.653  23.030   7.935
    9AU     AUL 3186  12.961  22.946   8.016
    9AU    AUSL 3187  12.782  23.108   7.395
    9AU    AUSL 3188  12.779  22.698   7.204
    9AU     AUL 3189  13.038  22.927   7.276
    9AU    AUSL 3190  11.394  22.767   7.585
    9AU    AUSL 3191  11.556  22.963   7.212
    9AU     AUL 3192  11.188  22.842   7.254
    9AU    AUSL 3193  11.459  23.166   7.728
    9AU    AUSL 3194  11.693  22.810   7.885
    9AU     AUL 3195  11.374  22.790   7.931
    9AU    AUSL 3196  12.174  24.081   7.905
    9AU    AUSL 3197  11.728  24.095   7.795
    9AU     AUL 3198  11.936  24.156   8.164
    9AU    AUSL 3199  12.016  23.985   7.520
    9AU    AUSL 3200  12.255  24.106   7.177
    9AU     AUL 3201  11.983  24.340   7.450
    9AU    AUSL 3202  12.430  24.142   7.561
    9AU    AUSL 3203  12.443  23.910   8.178
    9AU     AUL 3204  12.534  24.174   7.918
    9AU    AUSL 3205  12.084  22.651   7.990
    9AU    AUSL 3206  12.505  22.628   7.872
    9AU     AUL 3207  12.270  22.542   8.250
    9AU    AUSL 3208  11.791  22.440   7.723
    9AU    AUSL 3209  11.851  22.807   8.298
    9AU     AUL 3210  11.755  22.507   8.069
    9AU    AUSL 3211  12.224  22.372   7.697
    9AU    AUSL 3212  12.011  22.587   7.388
    9AU     AUL 3213  11.920  22.224   7.493
    9AU    AUSL 3214  12.096  23.929   6.796
    9AU    AUSL 3215  12.647  23.971   7.210
    9AU     AUL 3216  12.419  24.051   6.855
    9AU    AUSL 3217  11.842  24.043   7.141
    9AU    AUSL 3218  11.872  23.625   6.979
    9AU     AUL 3219  11.778  23.890   6.773
    9AU    AUSL 3220  12.228  22.536   7.018
    9AU    AUSL 3221  11.608  22.539   7.301
    9AU     AUL 3222  11.897  22.389   7.061
    9AU    AUSL 3223  12.435  22.590   7.406
    9AU    AUSL 3224  12.455  22.891   7.001
    9AU     AUL 3225  12.550  22.519   7.025
    9AU       S 3226  12.722  22.442   8.258
    9AU     LIG 3227  12.648  22.057   8.442
    9AU     LIG 3228  12.908  21.717   8.641
    9AU     LIG 3229  13.380  21.697   8.754
    9AU       S 3230  12.551  23.159   8.752
    9AU     LIG 3231  12.974  23.233   8.670
    9AU     LIG 3232  13.177  23.303   9.074
    9AU     LIG 3233  13.065  23.176   9.521
    9AU       S 3234  12.210  22.992   8.637
    9AU     LIG 3235  12.220  22.973   9.091
    9AU     LIG 3236  12.603  22.928   9.389
    9AU     LIG 3237  12.878  22.708   9.726
    9AU       S 3238  11.750  23.350   8.627
    9AU     LIG 3239  11.851  23.348   9.064
    9AU     LIG 3240  11.513  23.219   9.328
    9AU     LIG 3241  11.316  23.340   9.724
    9AU       S 3242  12.190  23.926   8.553
    9AU     LIG 3243  12.445  24.277   8.665
    9AU     LIG 3244  12.832  24.118   8.828
    9AU     LIG 3245  13.002  23.724   8.782
    9AU       S 3246  12.915  23.838   8.280
    9AU     LIG 3247  13.306  23.803   8.375
    9AU     LIG 3248  13.354  24.131   8.676
    9AU     LIG 3249  13.604  24.461   8.896
    9AU       S 3250  12.472  23.437   6.313
    9AU     LIG 3251  12.839  23.654   6.165
    9AU     LIG 3252  13.078  23.434   5.828
    9AU     LIG 3253  13.041  23.007   5.630
    9AU       S 3254  12.867  24.072   6.807
    9AU     LIG 3255  12.717  24.140   6.381
    9AU     LIG 3256  12.916  24.402   6.036
    9AU     LIG 3257  13.234  24.738   5.924
    9AU       S 3258  13.039  22.823   6.798
    9AU     LIG 3259  13.165  22.535   6.450
    9AU     LIG 3260  13.240  22.119   6.316
    9AU     LIG 3261  13.343  21.727   6.491
    9AU       S 3262  12.515  23.276   6.279
    9AU     LIG 3263  12.438  22.935   6.041
    9AU     LIG 3264  12.510  22.868   5.584
    9AU     LIG 3265  12.765  22.936   5.198
    9AU       S 3266  11.707  23.044   6.340
    9AU     LIG 3267  11.927  23.017   5.982
    9AU     LIG 3268  11.989  22.952   5.544
    9AU     LIG 3269  11.701  23.008   5.195
    9AU       S 3270  12.230  23.568   6.448
    9AU     LIG 3271  12.025  23.502   6.071
    9AU     LIG 3272  12.292  23.335   5.746
    9AU     LIG 3273  12.682  23.367   5.487
    9AU       S 3274  11.542  23.456   8.682
    9AU     LIG 3275  11.243  23.177   8.760
    9AU     LIG 3276  11.184  22.870   9.058
    9AU     LIG 3277  11.134  22.896   9.511
    9AU       S 3278  11.458  24.082   8.161
    9AU     LIG 3279  11.265  24.282   8.500
    9AU     LIG 3280  11.058  24.386   8.905
    9AU     LIG 3281  10.751  24.637   9.157
    9AU       S 3282  11.393  22.841   8.429
    9AU     LIG 3283  10.997  22.944   8.290
    9AU     LIG 3284  10.809  22.592   8.114
    9AU     LIG 3285  10.746  22.232   8.405
    9AU       S 3286  11.737  23.179   8.580
    9AU     LIG 3287  11.685  22.896   8.923
    9AU     LIG 3288  11.604  22.712   9.324
    9AU     LIG 3289  11.599  22.883   9.747
    9AU       S 3290  11.538  22.947   6.436
    9AU     LIG 3291  11.336  22.930   6.035
    9AU     LIG 3292  11.494  23.103   5.665
    9AU     LIG 3293  11.363  23.383   5.337
    9AU       S 3294  11.510  22.538   6.826
    9AU     LIG 3295  11.258  22.190   6.682
    9AU     LIG 3296  11.062  21.978   6.319
    9AU     LIG 3297  10.789  21.762   5.989
    9AU       S 3298  11.187  23.653   6.717
    9AU     LIG 3299  10.888  23.951   6.884
    9AU     LIG 3300  10.959  24.363   6.685
    9AU     LIG 3301  11.027  24.488   6.251
    9AU       S 3302  11.722  23.331   6.434
    9AU     LIG 3303  11.435  23.439   6.169
    9AU     LIG 3304  11.573  23.599   5.787
    9AU     LIG 3305  11.863  23.445   5.470
    9AU       S 3306  12.949  23.959   6.810
    9AU     LIG 3307  13.193  23.958   6.431
    9AU     LIG 3308  13.390  24.278   6.183
    9AU     LIG 3309  13.709  24.592   6.170
    9AU       S 3310  13.055  23.997   7.589
    9AU     LIG 3311  13.396  24.299   7.594
    9AU     LIG 3312  13.831  24.174   7.549
    9AU     LIG 3313  14.263  24.116   7.436
    9AU       S 3314  13.349  23.653   7.568
    9AU     LIG 3315  13.802  23.635   7.473
    9AU     LIG 3316  14.254  23.616   7.304
    9AU     LIG 3317  14.532  23.904   7.045
    9AU       S 3318  13.281  22.750   7.748
    9AU     LIG 3319  13.506  22.533   8.013
    9AU     LIG 3320  13.924  22.480   7.881
    9AU     LIG 3321  14.294  22.252   7.916
    9AU       S 3322  12.940  24.034   8.079
    9AU     LIG 3323  13.315  24.243   8.120
    9AU     LIG 3324  13.433  24.580   8.412
    9AU     LIG 3325  13.440  24.928   8.730
    9AU       S 3326  13.323  23.817   7.666
    9AU     LIG 3327  13.664  23.869   7.935
    9AU     LIG 3328  14.127  23.814   7.836
    9AU     LIG 3329  14.573  23.755   7.685
    9AU       S 3330  11.377  23.897   8.097
    9AU     LIG 3331  11.162  23.760   8.439
    9AU     LIG 3332  10.805  24.042   8.579
    9AU     LIG 3333  10.571  24.184   8.961
    9AU       S 3334  11.458  24.205   7.362
    9AU     LIG 3335  11.485  24.550   7.457
    9AU     LIG 3336  11.235  24.607   7.101
    9AU     LIG 3337  10.863  24.388   7.178
    9AU       S 3338  10.998  23.365   7.049
    9AU     LIG 3339  10.714  23.048   6.970
    9AU     LIG 3340  10.423  23.379   7.046
    9AU     LIG 3341  10.627  23.746   7.295
    9AU       S 3342  11.366  24.077   6.872
    9AU     LIG 3343  11.475  24.460   6.668
    9AU     LIG 3344  11.204  24.828   6.626
    9AU     LIG 3345  10.901  24.984   6.306
    9AU       S 3346  10.987  23.017   7.655
    9AU     LIG 3347  10.628  23.142   7.460
    9AU     LIG 3348  10.283  22.919   7.270
    9AU     LIG 3349   9.989  22.598   7.166
    9AU       S 3350  11.076  23.521   7.992
    9AU     LIG 3351  10.710  23.732   8.141
    9AU     LIG 3352  10.324  24.010   8.136
    9AU     LIG 3353  10.162  24.369   7.909
    9AU       S 3354  12.985  22.608   7.638
    9AU     LIG 3355  13.081  22.195   7.644
    9AU     LIG 3356  13.512  22.107   7.730
    9AU     LIG 3357  13.938  22.089   7.554
    9AU       S 3358  12.886  22.511   8.112
    9AU     LIG 3359  13.168  22.165   8.143
    9AU     LIG 3360  13.572  21.972   8.290
    9AU     LIG 3361  13.810  22.051   8.675
    9AU       S 3362  13.269  22.671   7.561
    9AU     LIG 3363  13.381  22.351   7.253
    9AU     LIG 3364  13.804  22.222   7.073
    9AU     LIG 3365  14.273  22.152   7.145
    9AU       S 3366  13.006  22.581   6.940
    9AU     LIG 3367  13.047  22.138   6.842
    9AU     LIG 3368  12.989  21.677   6.846
    9AU     LIG 3369  13.000  21.341   6.528
    9AU       S 3370  11.383  22.644   6.893
    9AU     LIG 3371  11.071  22.779   6.691
    9AU     LIG 3372  10.836  22.444   6.480
    9AU     LIG 3373  10.553  22.092   6.330
    9AU       S 3374  10.983  22.787   7.681
    9AU     LIG 3375  10.628  22.605   7.496
    9AU     LIG 3376  10.362  22.247   7.316
    9AU     LIG 3377   9.984  22.006   7.140
    9AU       S 3378  11.405  22.627   8.359
    9AU     LIG 3379  11.277  22.306   8.069
    9AU     LIG 3380  10.927  22.027   7.976
    9AU     LIG 3381  10.697  21.734   8.287
    9AU       S 3382  11.024  23.059   7.816
    9AU     LIG 3383  10.641  23.203   7.971
    9AU     LIG 3384  10.271  22.981   7.815
    9AU     LIG 3385  10.134  22.566   7.674
    9AU       S 3386  11.603  24.250   7.838
    9AU     LIG 3387  11.229  24.475   7.940
    9AU     LIG 3388  10.865  24.477   8.229
    9AU     LIG 3389  10.669  24.578   8.636
    9AU       S 3390  12.161  24.436   7.863
    9AU     LIG 3391  12.366  24.608   8.233
    9AU     LIG 3392  12.299  25.093   8.347
    9AU     LIG 3393  12.125  25.555   8.346
    9AU       S 3394  12.280  24.610   7.728
    9AU     LIG 3395  12.000  24.882   7.990
    9AU     LIG 3396  11.970  25.303   7.926
    9AU     LIG 3397  11.690  25.637   7.996
    9AU       S 3398  12.169  24.404   7.027
    9AU     LIG 3399  12.294  24.803   7.196
    9AU     LIG 3400  12.553  25.197   7.103
    9AU     LIG 3401  12.440  25.548   6.796
    9AU       S 3402  12.692  24.009   8.335
    9AU     LIG 3403  12.907  24.408   8.415
    9AU     LIG 3404  13.088  24.557   8.808
    9AU     LIG 3405  13.200  24.303   9.180
    9AU       S 3406  12.452  24.417   7.519
    9AU     LIG 3407  12.666  24.838   7.556
    9AU     LIG 3408  12.470  25.099   7.855
    9AU     LIG 3409  12.441  25.541   7.902
    9AU       S 3410  12.070  22.155   8.091
    9AU     LIG 3411  12.283  21.791   8.201
    9AU     LIG 3412  12.188  21.480   8.506
    9AU     LIG 3413  11.827  21.310   8.733
    9AU       S 3414  12.647  22.462   7.966
    9AU     LIG 3415  12.673  22.040   7.908
    9AU     LIG 3416  12.884  21.752   8.115
    9AU     LIG 3417  13.308  21.680   7.975
    9AU       S 3418  11.883  22.078   7.935
    9AU     LIG 3419  11.763  21.700   8.154
    9AU     LIG 3420  11.842  21.257   8.207
    9AU     LIG 3421  11.678  20.889   8.445
    9AU       S 3422  11.684  22.727   8.471
    9AU     LIG 3423  11.596  22.388   8.740
    9AU     LIG 3424  11.211  22.180   8.628
    9AU     LIG 3425  10.955  21.803   8.742
    9AU       S 3426  12.339  22.138   7.310
    9AU     LIG 3427  12.101  21.716   7.227
    9AU     LIG 3428  12.138  21.302   7.052
    9AU     LIG 3429  12.310  20.894   7.084
    9AU       S 3430  12.219  22.201   7.870
    9AU     LIG 3431  12.250  21.822   7.690
    9AU     LIG 3432  12.026  21.445   7.764
    9AU     LIG 3433  12.213  21.051   7.955
    9AU       S 3434  12.019  24.303   6.750
    9AU     LIG 3435  12.082  24.752   6.679
    9AU     LIG 3436  12.440  25.005   6.656
    9AU     LIG 3437  12.605  25.309   6.356
    9AU       S 3438  12.797  24.132   7.135
    9AU     LIG 3439  13.197  24.303   7.110
    9AU     LIG 3440  13.309  24.416   6.707
    9AU     LIG 3441  13.257  24.731   6.426
    9AU       S 3442  11.824  24.301   7.006
    9AU     LIG 3443  11.744  24.699   7.054
    9AU     LIG 3444  11.897  25.101   7.034
    9AU     LIG 3445  12.007  25.301   6.646
    9AU       S 3446  11.401  23.700   6.617
    9AU     LIG 3447  11.604  23.929   6.300
    9AU     LIG 3448  11.538  24.379   6.156
    9AU     LIG 3449  11.388  24.834   6.137
    9AU       S 3450  11.428  22.452   7.132
    9AU     LIG 3451  10.969  22.384   7.066
    9AU     LIG 3452  10.777  22.030   6.800
    9AU     LIG 3453  10.750  21.636   6.525
    9AU       S 3454  12.300  22.166   7.168
    9AU     LIG 3455  12.510  21.942   6.850
    9AU     LIG 3456  12.486  21.523   6.646
    9AU     LIG 3457  12.287  21.078   6.601
    9AU       S 3458  12.594  22.277   7.429
    9AU     LIG 3459  12.810  21.946   7.267
    9AU     LIG 3460  12.618  21.545   7.159
    9AU     LIG 3461  12.707  21.165   6.922
    9AU       S 3462  12.767  22.724   6.683
    9AU     LIG 3463  12.673  22.323   6.547
    9AU     LIG 3464  12.800  21.886   6.418
    9AU     LIG 3465  13.036  21.668   6.081
   10AU     AUC 3466  25.382  31.188   7.534
   10AU     AUC 3467  25.645  31.184   7.376
   10AU     AUC 3468  25.618  31.180   7.711
   10AU     AUC 3469  25.115  31.187   7.371
   10AU     AUC 3470  25.128  31.235   7.696
   10AU     AUC 3471  25.229  31.453   7.495
   10AU     AUC 3472  25.568  31.453   7.511
   10AU     AUC 3473  25.204  30.934   7.553
   10AU     AUC 3474  25.539  30.913   7.558
   10AU     AUC 3475  25.368  31.039   7.810
   10AU     AUC 3476  25.386  31.382   7.778
   10AU     AUC 3477  25.385  31.002   7.285
   10AU     AUC 3478  25.403  31.315   7.262
   10AU     AUC 3479  25.963  31.183   7.228
   10AU     AUC 3480  25.943  31.164   7.568
   10AU     AUC 3481  25.890  31.156   7.924
   10AU     AUC 3482  24.817  31.155   7.225
   10AU     AUC 3483  24.811  31.237   7.550
   10AU     AUC 3484  24.831  31.295   7.867
   10AU     AUC 3485  25.077  31.756   7.430
   10AU     AUC 3486  25.433  31.738   7.426
   10AU     AUC 3487  25.765  31.723   7.473
   10AU     AUC 3488  25.008  30.654   7.570
   10AU     AUC 3489  25.358  30.624   7.557
   10AU     AUC 3490  25.712  30.618   7.574
   10AU     AUC 3491  25.332  30.879   8.112
   10AU     AUC 3492  25.352  31.230   8.098
   10AU     AUC 3493  25.414  31.586   8.059
   10AU     AUC 3494  25.424  30.811   7.010
   10AU     AUC 3495  25.381  31.138   6.960
   10AU     AUC 3496  25.375  31.455   6.949
   10AU     AUC 3497  25.603  30.994   8.028
   10AU     AUC 3498  25.655  31.353   8.008
   10AU     AUC 3499  25.698  31.014   7.085
   10AU     AUC 3500  25.670  31.329   7.092
   10AU     AUC 3501  25.075  31.109   8.006
   10AU     AUC 3502  25.119  31.461   7.957
   10AU     AUC 3503  25.106  30.966   7.110
   10AU     AUC 3504  25.076  31.275   7.062
   10AU     AUC 3505  25.885  31.454   7.362
   10AU     AUC 3506  25.818  31.445   7.712
   10AU     AUC 3507  24.930  31.468   7.350
   10AU     AUC 3508  24.969  31.556   7.678
   10AU     AUC 3509  25.848  30.899   7.412
   10AU     AUC 3510  25.790  30.869   7.757
   10AU     AUC 3511  24.910  30.890   7.403
   10AU     AUC 3512  24.930  30.969   7.733
   10AU     AUC 3513  25.280  31.695   7.753
   10AU     AUC 3514  25.595  31.654   7.783
   10AU     AUC 3515  25.179  30.765   7.839
   10AU     AUC 3516  25.491  30.710   7.833
   10AU     AUC 3517  25.211  31.605   7.182
   10AU     AUC 3518  25.573  31.629   7.203
   10AU     AUC 3519  25.220  30.717   7.280
   10AU     AUC 3520  25.597  30.746   7.286
   10AU    AUSL 3521  25.844  31.092   8.326
   10AU    AUSL 3522  25.619  30.708   8.237
   10AU     AUL 3523  25.924  30.746   8.432
   10AU    AUSL 3524  25.429  31.034   8.435
   10AU    AUSL 3525  25.199  31.436   8.420
   10AU     AUL 3526  25.409  31.327   8.714
   10AU    AUSL 3527  25.549  31.397   8.201
   10AU    AUSL 3528  25.995  31.440   8.139
   10AU     AUL 3529  25.809  31.402   8.476
   10AU    AUSL 3530  25.834  31.205   6.892
   10AU    AUSL 3531  25.692  31.596   6.981
   10AU     AUL 3532  25.892  31.529   6.694
   10AU    AUSL 3533  25.661  30.920   6.631
   10AU    AUSL 3534  26.137  30.949   7.021
   10AU     AUL 3535  26.040  31.073   6.673
   10AU    AUSL 3536  25.472  31.338   6.711
   10AU    AUSL 3537  25.285  30.950   6.817
   10AU     AUL 3538  25.391  30.991   6.496
   10AU    AUSL 3539  24.821  31.403   8.198
   10AU    AUSL 3540  25.175  31.713   8.102
   10AU     AUL 3541  24.993  31.685   8.422
   10AU    AUSL 3542  25.106  31.091   8.178
   10AU    AUSL 3543  24.697  30.974   8.134
   10AU     AUL 3544  24.614  31.200   8.264
   10AU    AUSL 3545  24.858  30.959   6.814
   10AU    AUSL 3546  25.079  30.633   7.001
   10AU     AUL 3547  25.127  30.642   6.674
   10AU    AUSL 3548  25.053  31.302   6.659
   10AU    AUSL 3549  24.748  31.326   7.013
   10AU     AUL 3550  24.631  31.152   6.758
   10AU    AUSL 3551  26.146  31.656   7.521
   10AU    AUSL 3552  26.096  31.453   7.110
   10AU     AUL 3553  26.422  31.668   7.222
   10AU    AUSL 3554  26.328  31.273   7.420
   10AU    AUSL 3555  26.277  30.971   7.794
   10AU     AUL 3556  26.577  31.067   7.598
   10AU    AUSL 3557  26.041  31.308   7.745
   10AU    AUSL 3558  25.865  31.704   7.823
   10AU     AUL 3559  26.230  31.476   7.898
   10AU    AUSL 3560  24.825  31.834   7.469
   10AU    AUSL 3561  24.844  31.621   7.841
   10AU     AUL 3562  24.536  31.871   7.657
   10AU    AUSL 3563  24.645  31.442   7.400
   10AU    AUSL 3564  24.790  31.747   7.062
   10AU     AUL 3565  24.534  31.678   7.200
   10AU    AUSL 3566  24.480  31.435   7.808
   10AU    AUSL 3567  24.458  31.068   7.389
   10AU     AUL 3568  24.290  31.403   7.507
   10AU    AUSL 3569  26.057  30.624   7.648
   10AU    AUSL 3570  25.889  30.901   7.956
   10AU     AUL 3571  26.195  30.807   8.042
   10AU    AUSL 3572  26.034  30.980   7.422
   10AU    AUSL 3573  26.022  30.573   7.226
   10AU     AUL 3574  26.290  30.793   7.311
   10AU    AUSL 3575  24.621  30.701   7.588
   10AU    AUSL 3576  24.793  30.887   7.216
   10AU     AUL 3577  24.414  30.782   7.268
   10AU    AUSL 3578  24.708  31.096   7.736
   10AU    AUSL 3579  24.929  30.721   7.879
   10AU     AUL 3580  24.613  30.707   7.917
   10AU    AUSL 3581  25.467  31.962   7.917
   10AU    AUSL 3582  25.029  32.007   7.809
   10AU     AUL 3583  25.242  32.040   8.189
   10AU    AUSL 3584  25.307  31.887   7.529
   10AU    AUSL 3585  25.555  31.999   7.191
   10AU     AUL 3586  25.302  32.242   7.451
   10AU    AUSL 3587  25.732  32.014   7.576
   10AU    AUSL 3588  25.708  31.781   8.209
   10AU     AUL 3589  25.837  32.030   7.939
   10AU    AUSL 3590  25.309  30.542   7.994
   10AU    AUSL 3591  25.729  30.506   7.879
   10AU     AUL 3592  25.484  30.421   8.248
   10AU    AUSL 3593  25.013  30.345   7.725
   10AU    AUSL 3594  25.071  30.700   8.298
   10AU     AUL 3595  24.981  30.411   8.071
   10AU    AUSL 3596  25.442  30.264   7.697
   10AU    AUSL 3597  25.237  30.487   7.390
   10AU     AUL 3598  25.122  30.131   7.495
   10AU    AUSL 3599  25.392  31.825   6.807
   10AU    AUSL 3600  25.942  31.849   7.213
   10AU     AUL 3601  25.725  31.940   6.876
   10AU    AUSL 3602  25.139  31.950   7.148
   10AU    AUSL 3603  25.148  31.533   6.985
   10AU     AUL 3604  25.070  31.798   6.777
   10AU    AUSL 3605  25.455  30.440   7.018
   10AU    AUSL 3606  24.830  30.462   7.311
   10AU     AUL 3607  25.110  30.300   7.064
   10AU    AUSL 3608  25.663  30.477   7.409
   10AU    AUSL 3609  25.707  30.778   7.020
   10AU     AUL 3610  25.784  30.408   7.028
   10AU       S 3611  25.926  30.295   8.275
   10AU     LIG 3612  26.096  29.872   8.377
   10AU     LIG 3613  26.452  29.612   8.513
   10AU     LIG 3614  26.827  29.403   8.674
   10AU       S 3615  25.772  31.019   8.771
   10AU     LIG 3616  26.192  31.166   8.714
   10AU     LIG 3617  26.422  31.219   9.113
   10AU     LIG 3618  26.385  31.031   9.552
   10AU       S 3619  25.428  30.856   8.645
   10AU     LIG 3620  25.417  30.875   9.098
   10AU     LIG 3621  25.803  30.829   9.394
   10AU     LIG 3622  26.090  30.608   9.720
   10AU       S 3623  24.966  31.234   8.627
   10AU     LIG 3624  25.038  31.245   9.076
   10AU     LIG 3625  24.698  31.116   9.361
   10AU     LIG 3626  24.439  31.214   9.754
   10AU       S 3627  25.457  31.783   8.586
   10AU     LIG 3628  25.678  32.139   8.682
   10AU     LIG 3629  26.056  32.018   8.863
   10AU     LIG 3630  26.304  31.661   8.843
   10AU       S 3631  26.172  31.665   8.326
   10AU     LIG 3632  26.572  31.650   8.413
   10AU     LIG 3633  26.667  32.010   8.643
   10AU     LIG 3634  26.894  32.340   8.875
   10AU       S 3635  25.744  31.308   6.325
   10AU     LIG 3636  26.188  31.408   6.304
   10AU     LIG 3637  26.297  30.994   6.225
   10AU     LIG 3638  26.019  30.642   6.174
   10AU       S 3639  26.179  31.879   6.816
   10AU     LIG 3640  26.175  32.216   6.564
   10AU     LIG 3641  26.366  32.392   6.197
   10AU     LIG 3642  26.702  32.444   5.914
   10AU       S 3643  26.307  30.717   6.837
   10AU     LIG 3644  26.460  30.552   6.455
   10AU     LIG 3645  26.312  30.178   6.287
   10AU     LIG 3646  26.381  29.726   6.382
   10AU       S 3647  25.774  31.120   6.287
   10AU     LIG 3648  25.546  30.828   6.041
   10AU     LIG 3649  25.620  30.736   5.590
   10AU     LIG 3650  25.856  30.923   5.229
   10AU       S 3651  24.964  30.950   6.347
   10AU     LIG 3652  25.051  31.005   5.961
   10AU     LIG 3653  25.116  30.848   5.571
   10AU     LIG 3654  25.327  30.989   5.214
   10AU       S 3655  25.500  31.446   6.446
   10AU     LIG 3656  25.280  31.433   6.069
   10AU     LIG 3657  25.488  31.227   5.725
   10AU     LIG 3658  25.940  31.085   5.800
   10AU       S 3659  24.767  31.355   8.668
   10AU     LIG 3660  24.451  31.083   8.733
   10AU     LIG 3661  24.368  30.784   9.037
   10AU     LIG 3662  24.277  30.812   9.477
   10AU       S 3663  24.764  32.006   8.177
   10AU     LIG 3664  24.667  32.318   8.402
   10AU     LIG 3665  24.306  32.291   8.675
   10AU     LIG 3666  23.962  32.472   8.924
   10AU       S 3667  24.600  30.749   8.403
   10AU     LIG 3668  24.175  30.758   8.266
   10AU     LIG 3669  23.895  30.365   8.344
   10AU     LIG 3670  23.738  29.923   8.463
   10AU       S 3671  24.956  31.066   8.571
   10AU     LIG 3672  24.873  30.794   8.934
   10AU     LIG 3673  24.760  30.606   9.343
   10AU     LIG 3674  24.737  30.776   9.772
   10AU       S 3675  24.805  30.882   6.436
   10AU     LIG 3676  24.553  30.808   6.092
   10AU     LIG 3677  24.620  31.004   5.687
   10AU     LIG 3678  24.456  31.322   5.430
   10AU       S 3679  24.722  30.468   6.842
   10AU     LIG 3680  24.698  30.387   6.410
   10AU     LIG 3681  24.440  30.137   6.106
   10AU     LIG 3682  24.069  29.923   5.900
   10AU       S 3683  24.465  31.573   6.711
   10AU     LIG 3684  24.143  31.860   6.793
   10AU     LIG 3685  24.250  32.173   6.485
   10AU     LIG 3686  24.311  32.069   6.034
   10AU       S 3687  24.990  31.247   6.442
   10AU     LIG 3688  24.670  31.340   6.196
   10AU     LIG 3689  24.777  31.497   5.809
   10AU     LIG 3690  25.036  31.351   5.475
   10AU       S 3691  26.288  31.730   6.798
   10AU     LIG 3692  26.644  31.899   6.602
   10AU     LIG 3693  26.822  32.050   6.218
   10AU     LIG 3694  27.131  32.131   5.899
   10AU       S 3695  26.290  31.870   7.628
   10AU     LIG 3696  26.630  32.094   7.419
   10AU     LIG 3697  27.005  32.002   7.637
   10AU     LIG 3698  27.364  32.168   7.867
   10AU       S 3699  26.606  31.539   7.626
   10AU     LIG 3700  26.911  31.595   7.343
   10AU     LIG 3701  27.336  31.686   7.369
   10AU     LIG 3702  27.626  31.963   7.248
   10AU       S 3703  26.542  30.624   7.796
   10AU     LIG 3704  26.911  30.305   7.837
   10AU     LIG 3705  27.382  30.292   7.902
   10AU     LIG 3706  27.708  30.555   7.673
   10AU       S 3707  26.216  31.874   8.138
   10AU     LIG 3708  26.579  32.104   8.130
   10AU     LIG 3709  26.700  32.475   8.387
   10AU     LIG 3710  26.715  32.802   8.716
   10AU       S 3711  26.552  31.740   7.741
   10AU     LIG 3712  26.890  31.688   8.017
   10AU     LIG 3713  27.310  31.640   7.889
   10AU     LIG 3714  27.705  31.789   7.740
   10AU       S 3715  24.676  31.831   8.094
   10AU     LIG 3716  24.439  31.704   8.433
   10AU     LIG 3717  24.017  31.903   8.477
   10AU     LIG 3718  23.717  32.282   8.496
   10AU       S 3719  24.804  32.171   7.400
   10AU     LIG 3720  24.643  32.355   7.160
   10AU     LIG 3721  24.317  32.154   7.155
   10AU     LIG 3722  24.068  31.837   7.366
   10AU       S 3723  24.262  31.312   7.049
   10AU     LIG 3724  23.988  31.031   6.874
   10AU     LIG 3725  23.626  31.293   6.993
   10AU     LIG 3726  23.644  31.750   7.062
   10AU       S 3727  24.656  31.983   6.845
   10AU     LIG 3728  24.724  32.358   6.661
   10AU     LIG 3729  24.375  32.662   6.650
   10AU     LIG 3730  24.210  32.985   6.385
   10AU       S 3731  24.237  30.969   7.679
   10AU     LIG 3732  23.926  31.008   7.375
   10AU     LIG 3733  23.594  30.811   7.146
   10AU     LIG 3734  23.193  30.987   6.929
   10AU       S 3735  24.351  31.494   7.976
   10AU     LIG 3736  24.104  31.331   8.274
   10AU     LIG 3737  23.690  31.559   8.224
   10AU     LIG 3738  23.430  31.889   7.970
   10AU       S 3739  26.224  30.483   7.675
   10AU     LIG 3740  26.282  30.143   7.488
   10AU     LIG 3741  26.607  29.956   7.628
   10AU     LIG 3742  26.969  29.947   7.424
   10AU       S 3743  26.084  30.381   8.145
   10AU     LIG 3744  26.439  30.194   8.043
   10AU     LIG 3745  26.760  29.980   8.257
   10AU     LIG 3746  26.808  29.923   8.721
   10AU       S 3747  26.514  30.564   7.627
   10AU     LIG 3748  26.706  30.379   7.295
   10AU     LIG 3749  27.173  30.358   7.184
   10AU     LIG 3750  27.642  30.289   7.074
   10AU       S 3751  26.249  30.461   6.964
   10AU     LIG 3752  26.148  30.070   6.792
   10AU     LIG 3753  26.129  29.605   6.811
   10AU     LIG 3754  26.180  29.259   6.519
   10AU       S 3755  24.606  30.588   6.902
   10AU     LIG 3756  24.329  30.710   6.597
   10AU     LIG 3757  23.998  30.472   6.372
   10AU     LIG 3758  23.783  30.372   5.976
   10AU       S 3759  24.211  30.758   7.704
   10AU     LIG 3760  23.898  30.544   7.864
   10AU     LIG 3761  23.668  30.392   7.559
   10AU     LIG 3762  23.672  30.274   7.134
   10AU       S 3763  24.618  30.524   8.336
   10AU     LIG 3764  24.332  30.321   8.036
   10AU     LIG 3765  24.064  29.964   8.045
   10AU     LIG 3766  24.158  29.568   8.282
   10AU       S 3767  24.278  31.017   7.846
   10AU     LIG 3768  23.850  31.208   7.844
   10AU     LIG 3769  23.549  30.890   7.738
   10AU     LIG 3770  23.307  30.555   7.930
   10AU       S 3771  24.925  32.199   7.871
   10AU     LIG 3772  24.506  32.328   7.904
   10AU     LIG 3773  24.150  32.373   8.199
   10AU     LIG 3774  23.982  32.730   8.467
   10AU       S 3775  25.470  32.300   7.876
   10AU     LIG 3776  25.691  32.399   8.244
   10AU     LIG 3777  25.609  32.837   8.314
   10AU     LIG 3778  25.233  33.095   8.245
   10AU       S 3779  25.507  32.529   7.799
   10AU     LIG 3780  25.185  32.540   8.189
   10AU     LIG 3781  24.884  32.752   8.058
   10AU     LIG 3782  25.169  32.950   7.736
   10AU       S 3783  25.462  32.307   7.015
   10AU     LIG 3784  25.582  32.683   7.267
   10AU     LIG 3785  25.739  33.102   7.156
   10AU     LIG 3786  25.597  33.395   6.807
   10AU       S 3787  25.955  31.868   8.372
   10AU     LIG 3788  26.172  32.272   8.433
   10AU     LIG 3789  26.382  32.406   8.808
   10AU     LIG 3790  26.502  32.094   9.137
   10AU       S 3791  25.745  32.331   7.591
   10AU     LIG 3792  25.910  32.777   7.669
   10AU     LIG 3793  25.650  33.106   7.861
   10AU     LIG 3794  25.644  33.465   8.147
   10AU       S 3795  25.281  30.042   8.080
   10AU     LIG 3796  25.595  29.769   8.219
   10AU     LIG 3797  25.567  29.354   8.451
   10AU     LIG 3798  25.635  28.886   8.414
   10AU       S 3799  25.865  30.320   7.973
   10AU     LIG 3800  26.046  29.922   7.880
   10AU     LIG 3801  26.426  29.669   8.008
   10AU     LIG 3802  26.814  29.473   8.158
   10AU       S 3803  25.103  29.977   7.932
   10AU     LIG 3804  25.246  29.558   7.860
   10AU     LIG 3805  25.315  29.155   8.041
   10AU     LIG 3806  25.087  28.915   8.349
   10AU       S 3807  24.859  30.604   8.486
   10AU     LIG 3808  24.538  30.353   8.780
   10AU     LIG 3809  24.221  29.990   8.636
   10AU     LIG 3810  23.979  29.562   8.755
   10AU       S 3811  25.528  30.039   7.296
   10AU     LIG 3812  25.264  29.653   7.347
   10AU     LIG 3813  25.290  29.207   7.230
   10AU     LIG 3814  25.473  28.830   7.040
   10AU       S 3815  25.451  30.072   7.844
   10AU     LIG 3816  25.671  29.711   7.646
   10AU     LIG 3817  25.643  29.281   7.632
   10AU     LIG 3818  25.741  28.920   7.914
   10AU       S 3819  25.333  32.190   6.750
   10AU     LIG 3820  25.233  32.610   6.660
   10AU     LIG 3821  25.395  33.008   6.503
   10AU     LIG 3822  25.420  33.449   6.310
   10AU       S 3823  26.136  32.016   7.096
   10AU     LIG 3824  26.517  32.257   6.949
   10AU     LIG 3825  26.727  32.413   6.564
   10AU     LIG 3826  27.084  32.530   6.277
   10AU       S 3827  25.123  32.215   7.005
   10AU     LIG 3828  25.088  32.630   7.180
   10AU     LIG 3829  25.244  33.043   7.014
   10AU     LIG 3830  25.075  33.342   6.705
   10AU       S 3831  24.683  31.621   6.625
   10AU     LIG 3832  24.796  31.925   6.336
   10AU     LIG 3833  24.722  32.348   6.151
   10AU     LIG 3834  24.342  32.590   6.101
   10AU       S 3835  24.640  30.384   7.151
   10AU     LIG 3836  24.187  30.363   6.975
   10AU     LIG 3837  24.275  30.118   6.601
   10AU     LIG 3838  24.224  29.713   6.352
   10AU       S 3839  25.508  30.066   7.159
   10AU     LIG 3840  25.662  29.913   6.798
   10AU     LIG 3841  25.690  29.489   6.572
   10AU     LIG 3842  25.560  29.030   6.543
   10AU       S 3843  25.795  30.156   7.420
   10AU     LIG 3844  25.967  29.829   7.233
   10AU     LIG 3845  25.689  29.505   7.092
   10AU     LIG 3846  25.881  29.126   6.916
   10AU       S 3847  26.038  30.604   6.706
   10AU     LIG 3848  25.780  30.336   6.519
   10AU     LIG 3849  25.880  29.916   6.342
   10AU     LIG 3850  25.970  29.525   6.120
   11POPC   NC3 3851  30.036  14.870   9.484
   11POPC   PO4 3852  30.369  15.489   9.576
   11POPC   GL1 3853  30.082  15.309   9.225
   11POPC   GL2 3854  29.729  15.507   9.215
   11POPC   C1A 3855  29.875  15.147   8.868
   11POPC   D2A 3856  29.943  15.278   8.446
   11POPC   C3A 3857  30.065  15.010   8.082
   11POPC   C4A 3858  30.172  14.990   7.626
   11POPC   C1B 3859  29.564  15.570   8.798
   11POPC   C2B 3860  29.458  15.457   8.390
   11POPC   C3B 3861  29.717  15.502   8.036
   11POPC   C4B 3862  29.716  15.183   7.731
   12POPC   NC3 3863   7.061  40.732   9.673
   12POPC   PO4 3864   7.620  40.587   9.402
   12POPC   GL1 3865   7.491  40.685   9.057
   12POPC   GL2 3866   7.250  40.866   9.194
   12POPC   C1A 3867   7.471  40.998   8.745
   12POPC   D2A 3868   7.253  41.018   8.349
   12POPC   C3A 3869   7.561  40.837   8.050
   12POPC   C4A 3870   7.515  40.534   7.724
   12POPC   C1B 3871   7.012  40.516   8.925
   12POPC   C2B 3872   7.065  40.350   8.465
   12POPC   C3B 3873   7.088  40.559   8.066
   12POPC   C4B 3874   7.113  40.938   7.839
   13POPC   NC3 3875  15.266   9.947   9.589
   13POPC   PO4 3876  15.417   9.302   9.508
   13POPC   GL1 3877  15.177   9.538   9.185
   13POPC   GL2 3878  15.016   9.872   9.170
   13POPC   C1A 3879  15.354   9.464   8.763
   13POPC   D2A 3880  15.526   9.527   8.334
   13POPC   C3A 3881  15.281   9.628   7.978
   13POPC   C4A 3882  15.277  10.031   7.779
   13POPC   C1B 3883  14.948   9.787   8.761
   13POPC   C2B 3884  15.167   9.882   8.425
   13POPC   C3B 3885  14.876   9.916   8.121
   13POPC   C4B 3886  14.781   9.664   7.803
   14POPC   NC3 3887  38.904  43.580   9.476
   14POPC   PO4 3888  39.167  44.252   9.604
   14POPC   GL1 3889  39.144  43.989   9.222
   14POPC   GL2 3890  38.809  44.055   9.132
   14POPC   C1A 3891  39.316  43.852   8.782
   14POPC   D2A 3892  39.111  43.712   8.378
   14POPC   C3A 3893  39.278  43.913   7.981
   14POPC   C4A 3894  39.430  43.672   7.622
   14POPC   C1B 3895  39.028  44.263   8.796
   14POPC   C2B 3896  39.145  44.218   8.388
   14POPC   C3B 3897  39.075  44.439   8.042
   14POPC   C4B 3898  38.959  44.252   7.704
   15POPC   NC3 3899  44.439   1.698   9.391
   15POPC   PO4 3900   0.095   1.844   9.242
   15POPC   GL1 3901  44.749   1.795   9.009
   15POPC   GL2 3902  44.586   2.099   9.103
   15POPC   C1A 3903  44.616   1.918   8.615
   15POPC   D2A 3904  44.914   1.888   8.296
   15POPC   C3A 3905  44.710   1.643   7.988
   15POPC   C4A 3906  44.498   1.798   7.646
   15POPC   C1B 3907  44.830   2.359   8.817
   15POPC   C2B 3908  44.704   2.412   8.402
   15POPC   C3B 3909  44.847   2.401   7.974
   15POPC   C4B 3910  44.563   2.289   7.655
   16POPC   NC3 3911  19.865  20.132   9.528
   16POPC   PO4 3912  19.750  19.508   9.524
   16POPC   GL1 3913  19.800  19.669   9.131
   16POPC   GL2 3914  19.705  19.964   9.058
   16POPC   C1A 3915  19.897  19.585   8.746
   16POPC   D2A 3916  20.097  19.720   8.402
   16POPC   C3A 3917  19.870  19.589   8.070
   16POPC   C4A 3918  19.947  19.596   7.680
   16POPC   C1B 3919  19.788  20.105   8.649
   16POPC   C2B 3920  19.768  20.078   8.209
   16POPC   C3B 3921  20.104  20.028   7.922
   16POPC   C4B 3922  20.035  20.107   7.489
   17POPC   NC3 3923  26.955  43.118   9.429
   17POPC   PO4 3924  26.481  42.764   9.362
   17POPC   GL1 3925  26.734  42.986   9.007
   17POPC   GL2 3926  26.830  43.387   9.018
   17POPC   C1A 3927  26.682  43.110   8.613
   17POPC   D2A 3928  26.903  43.051   8.281
   17POPC   C3A 3929  26.594  42.998   8.006
   17POPC   C4A 3930  26.727  42.923   7.644
   17POPC   C1B 3931  26.981  43.545   8.631
   17POPC   C2B 3932  26.686  43.518   8.283
   17POPC   C3B 3933  26.747  43.454   7.846
   17POPC   C4B 3934  26.851  43.386   7.453
   18POPC   NC3 3935  22.705  33.186   9.418
   18POPC   PO4 3936  23.071  32.434   9.382
   18POPC   GL1 3937  23.147  32.677   9.000
   18POPC   GL2 3938  22.885  32.897   9.066
   18POPC   C1A 3939  23.140  33.082   8.681
   18POPC   D2A 3940  22.803  33.276   8.413
   18POPC   C3A 3941  22.972  33.242   7.985
   18POPC   C4A 3942  23.249  32.880   7.861
   18POPC   C1B 3943  22.766  32.723   8.676
   18POPC   C2B 3944  22.939  32.795   8.280
   18POPC   C3B 3945  22.728  32.800   7.934
   18POPC   C4B 3946  22.349  32.829   7.713
   19POPC   NC3 3947   4.032  21.846   9.600
   19POPC   PO4 3948   3.619  22.347   9.699
   19POPC   GL1 3949   3.652  22.157   9.245
   19POPC   GL2 3950   3.828  21.845   9.151
   19POPC   C1A 3951   3.493  22.152   8.780
   19POPC   D2A 3952   3.596  22.299   8.301
   19POPC   C3A 3953   3.251  22.331   7.986
   19POPC   C4A 3954   3.012  22.045   7.683
   19POPC   C1B 3955   3.671  21.662   8.803
   19POPC   C2B 3956   3.684  21.804   8.417
   19POPC   C3B 3957   3.757  21.799   8.010
   19POPC   C4B 3958   3.542  22.040   7.710
   20POPC   NC3 3959  18.696  28.193   9.399
   20POPC   PO4 3960  18.017  28.013   9.430
   20POPC   GL1 3961  18.111  28.274   9.032
   20POPC   GL2 3962  18.458  28.376   8.999
   20POPC   C1A 3963  18.078  28.484   8.648
   20POPC   D2A 3964  17.824  28.372   8.310
   20POPC   C3A 3965  18.039  28.452   7.919
   20POPC   C4A 3966  17.970  28.511   7.481
   20POPC   C1B 3967  18.475  28.131   8.667
   20POPC   C2B 3968  18.326  28.199   8.280
   20POPC   C3B 3969  18.496  28.219   7.907
   20POPC   C4B 3970  18.467  28.619   7.696
   21POPC   NC3 3971  39.562   1.448   9.358
   21POPC   PO4 3972  38.965   1.317   9.447
   21POPC   GL1 3973  38.972   1.054   9.117
   21POPC   GL2 3974  39.341   0.989   9.128
   21POPC   C1A 3975  38.791   1.097   8.712
   21POPC   D2A 3976  38.922   1.068   8.257
   21POPC   C3A 3977  39.103   1.304   7.891
   21POPC   C4A 3978  39.179   1.106   7.480
   21POPC   C1B 3979  39.290   1.236   8.738
   21POPC   C2B 3980  39.452   1.131   8.336
   21POPC   C3B 3981  39.612   1.171   7.958
   21POPC   C4B 3982  39.578   1.398   7.616
   22POPC   NC3 3983   3.931  34.065   9.572
   22POPC   PO4 3984   3.226  34.051   9.492
   22POPC   GL1 3985   3.548  33.807   9.258
   22POPC   GL2 3986   3.465  33.438   9.211
   22POPC   C1A 3987   3.813  33.725   8.876
   22POPC   D2A 3988   3.917  33.964   8.493
   22POPC   C3A 3989   3.743  33.897   8.066
   22POPC   C4A 3990   3.758  34.223   7.744
   22POPC   C1B 3991   3.311  33.606   8.838
   22POPC   C2B 3992   3.444  33.671   8.433
   22POPC   C3B 3993   3.190  33.870   8.116
   22POPC   C4B 3994   3.251  34.144   7.778
   23POPC   NC3 3995   2.588   4.741   9.664
   23POPC   PO4 3996   2.882   5.384   9.540
   23POPC   GL1 3997   2.707   5.202   9.179
   23POPC   GL2 3998   2.823   4.873   9.194
   23POPC   C1A 3999   2.897   5.187   8.731
   23POPC   D2A 4000   3.161   5.103   8.340
   23POPC   C3A 4001   2.949   5.218   7.943
   23POPC   C4A 4002   2.875   5.149   7.469
   23POPC   C1B 4003   2.775   4.669   8.786
   23POPC   C2B 4004   2.672   4.872   8.386
   23POPC   C3B 4005   2.486   5.015   8.007
   23POPC   C4B 4006   2.757   4.748   7.766
   24POPC   NC3 4007  35.063  21.569   9.651
   24POPC   PO4 4008  34.345  21.280   9.677
   24POPC   GL1 4009  34.611  21.302   9.310
   24POPC   GL2 4010  34.470  21.631   9.251
   24POPC   C1A 4011  34.819  21.171   8.921
   24POPC   D2A 4012  34.662  20.950   8.563
   24POPC   C3A 4013  34.781  21.091   8.156
   24POPC   C4A 4014  34.592  21.238   7.792
   24POPC   C1B 4015  34.634  21.668   8.836
   24POPC   C2B 4016  34.696  21.486   8.467
   24POPC   C3B 4017  34.493  21.644   8.090
   24POPC   C4B 4018  34.396  21.978   7.782
   25POPC   NC3 4019  16.828  43.589   9.483
   25POPC   PO4 4020  16.550  44.313   9.441
   25POPC   GL1 4021  16.662  43.955   9.159
   25POPC   GL2 4022  16.520  43.581   9.105
   25POPC   C1A 4023  16.864  43.844   8.787
   25POPC   D2A 4024  16.921  44.085   8.413
   25POPC   C3A 4025  16.852  43.906   8.018
   25POPC   C4A 4026  16.952  43.895   7.594
   25POPC   C1B 4027  16.341  43.540   8.740
   25POPC   C2B 4028  16.551  43.664   8.398
   25POPC   C3B 4029  16.395  43.664   8.026
   25POPC   C4B 4030  16.520  43.666   7.665
   26POPC   NC3 4031  41.258   3.764   9.654
   26POPC   PO4 4032  41.812   3.360   9.578
   26POPC   GL1 4033  41.537   3.497   9.255
   26POPC   GL2 4034  41.579   3.856   9.197
   26POPC   C1A 4035  41.599   3.515   8.809
   26POPC   D2A 4036  41.885   3.480   8.464
   26POPC   C3A 4037  41.667   3.265   8.147
   26POPC   C4A 4038  41.619   3.371   7.728
   26POPC   C1B 4039  41.287   3.919   8.833
   26POPC   C2B 4040  41.198   3.703   8.434
   26POPC   C3B 4041  41.359   3.703   8.007
   26POPC   C4B 4042  41.411   3.813   7.561
   27POPC   NC3 4043  41.768  14.216   9.561
   27POPC   PO4 4044  41.124  14.061   9.364
   27POPC   GL1 4045  41.488  14.235   9.103
   27POPC   GL2 4046  41.734  14.051   8.956
   27POPC   C1A 4047  41.470  14.484   8.721
   27POPC   D2A 4048  41.417  14.428   8.288
   27POPC   C3A 4049  41.798  14.342   8.113
   27POPC   C4A 4050  41.827  14.472   7.693
   27POPC   C1B 4051  41.332  13.996   8.645
   27POPC   C2B 4052  41.296  13.927   8.178
   27POPC   C3B 4053  41.414  14.173   7.791
   27POPC   C4B 4054  41.581  14.239   7.326
   28POPC   NC3 4055  25.472   3.293   9.470
   28POPC   PO4 4056  24.832   3.464   9.519
   28POPC   GL1 4057  25.075   3.347   9.179
   28POPC   GL2 4058  25.254   3.668   9.210
   28POPC   C1A 4059  25.352   3.368   8.797
   28POPC   D2A 4060  25.252   3.604   8.435
   28POPC   C3A 4061  25.291   3.447   8.026
   28POPC   C4A 4062  25.584   3.538   7.683
   28POPC   C1B 4063  24.952   3.741   8.870
   28POPC   C2B 4064  24.848   3.902   8.471
   28POPC   C3B 4065  24.970   3.948   8.062
   28POPC   C4B 4066  25.176   3.842   7.711
   29POPC   NC3 4067  20.856  13.905   9.533
   29POPC   PO4 4068  20.345  13.376   9.523
   29POPC   GL1 4069  20.574  13.339   9.116
   29POPC   GL2 4070  20.829  13.567   9.128
   29POPC   C1A 4071  20.651  13.433   8.664
   29POPC   D2A 4072  20.794  13.622   8.302
   29POPC   C3A 4073  20.621  13.464   7.904
   29POPC   C4A 4074  20.405  13.418   7.472
   29POPC   C1B 4075  20.834  13.915   8.817
   29POPC   C2B 4076  20.951  14.103   8.409
   29POPC   C3B 4077  20.806  14.037   7.989
   29POPC   C4B 4078  20.704  13.856   7.582
   30POPC   NC3 4079  36.309  24.321   9.366
   30POPC   PO4 4080  35.852  24.774   9.530
   30POPC   GL1 4081  35.883  24.599   9.119
   30POPC   GL2 4082  35.819  24.247   9.127
   30POPC   C1A 4083  36.118  24.525   8.736
   30POPC   D2A 4084  36.076  24.705   8.347
   30POPC   C3A 4085  36.080  24.522   7.945
   30POPC   C4A 4086  36.083  24.615   7.501
   30POPC   C1B 4087  35.943  24.038   8.734
   30POPC   C2B 4088  36.169  23.988   8.357
   30POPC   C3B 4089  36.027  23.974   7.966
   30POPC   C4B 4090  35.980  24.131   7.569
   31POPC   NC3 4091  28.020  27.601   9.664
   31POPC   PO4 4092  28.568  27.505   9.483
   31POPC   GL1 4093  28.281  27.356   9.156
   31POPC   GL2 4094  28.563  27.223   8.974
   31POPC   C1A 4095  28.189  27.503   8.713
   31POPC   D2A 4096  28.147  27.362   8.281
   31POPC   C3A 4097  28.237  27.628   7.944
   31POPC   C4A 4098  28.608  27.907   7.858
   31POPC   C1B 4099  28.715  27.507   8.677
   31POPC   C2B 4100  28.643  27.551   8.247
   31POPC   C3B 4101  28.653  27.371   7.826
   31POPC   C4B 4102  28.714  27.588   7.419
   32POPC   NC3 4103  30.911   3.323   9.499
   32POPC   PO4 4104  30.201   3.661   9.427
   32POPC   GL1 4105  30.590   3.645   9.224
   32POPC   GL2 4106  30.563   3.314   9.138
   32POPC   C1A 4107  30.831   3.728   8.848
   32POPC   D2A 4108  30.771   3.575   8.415
   32POPC   C3A 4109  30.891   3.737   8.034
   32POPC   C4A 4110  30.761   3.639   7.590
   32POPC   C1B 4111  30.696   3.171   8.780
   32POPC   C2B 4112  30.516   3.153   8.411
   32POPC   C3B 4113  30.592   3.306   7.990
   32POPC   C4B 4114  30.434   3.239   7.575
   33POPC   NC3 4115  37.569  33.738   9.548
   33POPC   PO4 4116  38.226  33.855   9.448
   33POPC   GL1 4117  37.915  33.910   9.169
   33POPC   GL2 4118  37.835  33.552   9.117
   33POPC   C1A 4119  37.909  33.896   8.742
   33POPC   D2A 4120  37.891  33.721   8.336
   33POPC   C3A 4121  37.530  33.798   8.111
   33POPC   C4A 4122  37.409  33.993   7.749
   33POPC   C1B 4123  37.572  33.485   8.737
   33POPC   C2B 4124  37.653  33.255   8.348
   33POPC   C3B 4125  37.750  33.348   7.956
   33POPC   C4B 4126  37.420  33.451   7.698
   34POPC   NC3 4127   0.917  14.921   9.460
   34POPC   PO4 4128   0.296  15.258   9.619
   34POPC   GL1 4129   0.480  15.136   9.171
   34POPC   GL2 4130   0.603  14.774   9.080
   34POPC   C1A 4131   0.535  15.279   8.711
   34POPC   D2A 4132   0.749  15.452   8.318
   34POPC   C3A 4133   0.569  15.348   7.907
   34POPC   C4A 4134   0.370  15.220   7.530
   34POPC   C1B 4135   0.782  14.820   8.657
   34POPC   C2B 4136   0.706  14.936   8.219
   34POPC   C3B 4137   0.650  14.847   7.766
   34POPC   C4B 4138   0.722  14.680   7.345
   35POPC   NC3 4139  21.825  40.033   9.546
   35POPC   PO4 4140  21.228  40.281   9.543
   35POPC   GL1 4141  21.377  40.001   9.236
   35POPC   GL2 4142  21.602  40.163   9.078
   35POPC   C1A 4143  21.211  39.873   8.854
   35POPC   D2A 4144  21.340  40.096   8.512
   35POPC   C3A 4145  21.255  39.915   8.136
   35POPC   C4A 4146  21.068  39.818   7.799
   35POPC   C1B 4147  21.704  39.773   8.888
   35POPC   C2B 4148  21.767  39.795   8.465
   35POPC   C3B 4149  21.757  40.001   8.066
   35POPC   C4B 4150  21.578  39.709   7.791
   36POPC   NC3 4151  39.118  27.836   9.528
   36POPC   PO4 4152  39.286  27.256   9.512
   36POPC   GL1 4153  39.359  27.508   9.142
   36POPC   GL2 4154  39.040  27.684   9.043
   36POPC   C1A 4155  39.421  27.681   8.714
   36POPC   D2A 4156  39.200  27.662   8.342
   36POPC   C3A 4157  39.430  27.664   8.019
   36POPC   C4A 4158  39.370  27.541   7.597
   36POPC   C1B 4159  38.944  27.954   8.661
   36POPC   C2B 4160  38.744  27.884   8.246
   36POPC   C3B 4161  38.924  27.729   7.833
   36POPC   C4B 4162  38.932  28.090   7.553
   37POPC   NC3 4163  12.199  34.813   9.505
   37POPC   PO4 4164  11.659  34.375   9.430
   37POPC   GL1 4165  12.012  34.463   9.159
   37POPC   GL2 4166  12.015  34.801   9.028
   37POPC   C1A 4167  12.107  34.302   8.780
   37POPC   D2A 4168  12.235  34.203   8.365
   37POPC   C3A 4169  12.095  34.529   8.111
   37POPC   C4A 4170  11.947  34.843   7.855
   37POPC   C1B 4171  12.240  34.767   8.645
   37POPC   C2B 4172  12.291  34.963   8.282
   37POPC   C3B 4173  12.464  34.854   7.899
   37POPC   C4B 4174  12.378  34.552   7.589
   38POPC   NC3 4175  20.485  30.983   9.395
   38POPC   PO4 4176  20.726  30.368   9.396
   38POPC   GL1 4177  20.690  30.616   9.052
   38POPC   GL2 4178  20.348  30.623   9.064
   38POPC   C1A 4179  20.846  30.772   8.631
   38POPC   D2A 4180  21.071  30.801   8.209
   38POPC   C3A 4181  20.941  30.557   7.835
   38POPC   C4A 4182  20.891  30.800   7.419
   38POPC   C1B 4183  20.419  30.511   8.629
   38POPC   C2B 4184  20.557  30.589   8.215
   38POPC   C3B 4185  20.547  30.851   7.876
   38POPC   C4B 4186  20.405  30.682   7.452
   39POPC   NC3 4187  38.949  26.908   9.548
   39POPC   PO4 4188  39.519  26.565   9.556
   39POPC   GL1 4189  39.276  26.838   9.181
   39POPC   GL2 4190  39.003  27.130   9.095
   39POPC   C1A 4191  39.035  26.733   8.780
   39POPC   D2A 4192  38.949  26.877   8.369
   39POPC   C3A 4193  39.188  26.720   8.007
   39POPC   C4A 4194  38.946  26.544   7.675
   39POPC   C1B 4195  39.279  27.180   8.731
   39POPC   C2B 4196  39.341  27.184   8.290
   39POPC   C3B 4197  39.150  27.216   7.911
   39POPC   C4B 4198  39.267  26.938   7.549
   40POPC   NC3 4199  26.385  43.656   9.511
   40POPC   PO4 4200  25.744  44.011   9.497
   40POPC   GL1 4201  25.917  43.974   9.114
   40POPC   GL2 4202  26.236  43.961   9.065
   40POPC   C1A 4203  25.896  43.751   8.716
   40POPC   D2A 4204  25.743  43.906   8.338
   40POPC   C3A 4205  25.805  43.629   8.039
   40POPC   C4A 4206  25.948  43.575   7.641
   40POPC   C1B 4207  26.069  44.204   8.665
   40POPC   C2B 4208  26.253  43.913   8.338
   40POPC   C3B 4209  26.171  43.948   7.921
   40POPC   C4B 4210  26.057  44.371   7.836
   41POPC   NC3 4211  12.714  37.225   9.629
   41POPC   PO4 4212  13.168  36.756   9.589
   41POPC   GL1 4213  12.985  36.805   9.205
   41POPC   GL2 4214  13.196  37.085   9.180
   41POPC   C1A 4215  12.854  36.618   8.783
   41POPC   D2A 4216  13.037  36.595   8.347
   41POPC   C3A 4217  12.783  36.575   7.922
   41POPC   C4A 4218  12.684  36.936   7.645
   41POPC   C1B 4219  12.987  37.116   8.806
   41POPC   C2B 4220  12.870  37.174   8.420
   41POPC   C3B 4221  12.992  37.026   8.041
   41POPC   C4B 4222  13.190  36.804   7.707
   42POPC   NC3 4223  32.140  39.634   9.764
   42POPC   PO4 4224  32.196  38.989   9.659
   42POPC   GL1 4225  32.132  39.267   9.330
   42POPC   GL2 4226  32.405  39.358   9.117
   42POPC   C1A 4227  31.907  39.213   8.935
   42POPC   D2A 4228  31.808  39.055   8.509
   42POPC   C3A 4229  31.982  39.239   8.151
   42POPC   C4A 4230  32.209  39.169   7.797
   42POPC   C1B 4231  32.336  39.222   8.654
   42POPC   C2B 4232  32.454  39.401   8.249
   42POPC   C3B 4233  32.597  39.488   7.857
   42POPC   C4B 4234  32.700  39.157   7.607
   43POPC   NC3 4235   0.198  12.461   9.397
   43POPC   PO4 4236   0.690  13.011   9.475
   43POPC   GL1 4237   0.506  13.011   9.102
   43POPC   GL2 4238   0.582  12.685   9.075
   43POPC   C1A 4239   0.225  12.907   8.757
   43POPC   D2A 4240  44.992  13.151   8.440
   43POPC   C3A 4241   0.186  13.072   8.046
   43POPC   C4A 4242   0.352  12.699   7.842
   43POPC   C1B 4243   0.733  12.723   8.673
   43POPC   C2B 4244   0.519  12.524   8.322
   43POPC   C3B 4245   0.718  12.373   7.967
   43POPC   C4B 4246   0.909  12.630   7.675
   44POPC   NC3 4247  38.913  25.071   9.444
   44POPC   PO4 4248  39.579  24.864   9.548
   44POPC   GL1 4249  39.378  25.110   9.212
   44POPC   GL2 4250  39.485  25.448   9.224
   44POPC   C1A 4251  39.101  25.261   8.863
   44POPC   D2A 4252  38.938  25.494   8.525
   44POPC   C3A 4253  38.930  25.316   8.114
   44POPC   C4A 4254  39.241  25.285   7.770
   44POPC   C1B 4255  39.595  25.333   8.779
   44POPC   C2B 4256  39.418  25.405   8.386
   44POPC   C3B 4257  39.488  25.656   8.068
   44POPC   C4B 4258  39.739  25.513   7.774
   45POPC   NC3 4259  11.335  12.887   9.728
   45POPC   PO4 4260  10.953  12.422   9.740
   45POPC   GL1 4261  11.341  12.519   9.348
   45POPC   GL2 4262  11.369  12.874   9.222
   45POPC   C1A 4263  11.399  12.577   8.827
   45POPC   D2A 4264  11.168  12.517   8.394
   45POPC   C3A 4265  11.177  12.609   7.938
   45POPC   C4A 4266  11.575  12.698   7.766
   45POPC   C1B 4267  11.302  13.076   8.819
   45POPC   C2B 4268  11.159  13.024   8.444
   45POPC   C3B 4269  11.360  13.046   8.079
   45POPC   C4B 4270  11.253  13.095   7.691
   46POPC   NC3 4271  11.188  21.746   9.524
   46POPC   PO4 4272  11.567  21.305   9.706
   46POPC   GL1 4273  11.380  21.320   9.291
   46POPC   GL2 4274  11.544  21.592   9.130
   46POPC   C1A 4275  11.342  21.165   8.845
   46POPC   D2A 4276  11.403  21.320   8.420
   46POPC   C3A 4277  11.399  21.077   8.031
   46POPC   C4A 4278  11.093  21.113   7.689
   46POPC   C1B 4279  11.485  21.742   8.693
   46POPC   C2B 4280  11.236  21.781   8.301
   46POPC   C3B 4281  11.318  21.649   7.883
   46POPC   C4B 4282  11.665  21.782   7.581
   47POPC   NC3 4283  25.069  14.864   9.538
   47POPC   PO4 4284  25.568  15.303   9.452
   47POPC   GL1 4285  25.420  14.982   9.193
   47POPC   GL2 4286  25.154  15.194   9.105
   47POPC   C1A 4287  25.483  15.001   8.757
   47POPC   D2A 4288  25.333  15.133   8.396
   47POPC   C3A 4289  25.519  15.039   8.038
   47POPC   C4A 4290  25.453  15.420   7.878
   47POPC   C1B 4291  24.960  15.042   8.733
   47POPC   C2B 4292  24.828  15.088   8.324
   47POPC   C3B 4293  24.988  15.159   7.867
   47POPC   C4B 4294  25.025  15.377   7.416
   48POPC   NC3 4295   3.453  10.276   9.681
   48POPC   PO4 4296   3.831  10.776   9.404
   48POPC   GL1 4297   3.674  10.441   9.183
   48POPC   GL2 4298   3.321  10.348   9.189
   48POPC   C1A 4299   3.866  10.314   8.803
   48POPC   D2A 4300   3.738  10.444   8.414
   48POPC   C3A 4301   3.962  10.462   8.078
   48POPC   C4A 4302   3.778  10.431   7.653
   48POPC   C1B 4303   3.361  10.335   8.752
   48POPC   C2B 4304   3.232  10.582   8.385
   48POPC   C3B 4305   3.427  10.519   8.000
   48POPC   C4B 4306   3.319  10.206   7.673
   49POPC   NC3 4307  12.946  34.899   9.418
   49POPC   PO4 4308  12.420  34.385   9.465
   49POPC   GL1 4309  12.687  34.500   9.148
   49POPC   GL2 4310  12.537  34.788   9.072
   49POPC   C1A 4311  12.614  34.420   8.722
   49POPC   D2A 4312  12.662  34.635   8.371
   49POPC   C3A 4313  12.595  34.397   8.057
   49POPC   C4A 4314  12.875  34.540   7.810
   49POPC   C1B 4315  12.917  34.818   8.779
   49POPC   C2B 4316  13.167  34.822   8.405
   49POPC   C3B 4317  13.186  34.959   7.993
   49POPC   C4B 4318  12.929  35.107   7.693
   50POPC   NC3 4319  25.347  23.362   9.501
   50POPC   PO4 4320  24.944  23.902   9.472
   50POPC   GL1 4321  25.267  24.005   9.215
   50POPC   GL2 4322  25.244  23.663   9.110
   50POPC   C1A 4323  25.418  24.003   8.794
   50POPC   D2A 4324  25.359  23.747   8.453
   50POPC   C3A 4325  25.399  23.964   8.072
   50POPC   C4A 4326  25.179  23.996   7.704
   50POPC   C1B 4327  25.169  23.350   8.826
   50POPC   C2B 4328  25.250  23.235   8.410
   50POPC   C3B 4329  25.288  23.439   8.011
   50POPC   C4B 4330  25.080  23.518   7.607
   51POPC   NC3 4331  41.524   0.702   9.584
   51POPC   PO4 4332  41.997   0.294   9.640
   51POPC   GL1 4333  41.778   0.435   9.214
   51POPC   GL2 4334  41.388   0.516   9.150
   51POPC   C1A 4335  41.663   0.450   8.754
   51POPC   D2A 4336  41.640   0.690   8.390
   51POPC   C3A 4337  41.777   0.440   8.073
   51POPC   C4A 4338  41.870   0.412   7.680
   51POPC   C1B 4339  41.261   0.766   8.791
   51POPC   C2B 4340  41.107   0.713   8.374
   51POPC   C3B 4341  41.297   0.597   7.953
   51POPC   C4B 4342  41.405   0.243   7.685
   52POPC   NC3 4343  26.472   4.514   9.768
   52POPC   PO4 4344  26.883   4.057   9.488
   52POPC   GL1 4345  26.698   4.302   9.148
   52POPC   GL2 4346  26.883   4.064   8.962
   52POPC   C1A 4347  26.780   4.541   8.739
   52POPC   D2A 4348  26.822   4.677   8.294
   52POPC   C3A 4349  27.048   4.383   8.060
   52POPC   C4A 4350  27.063   4.227   7.685
   52POPC   C1B 4351  26.536   4.097   8.680
   52POPC   C2B 4352  26.577   4.212   8.257
   52POPC   C3B 4353  26.566   4.283   7.811
   52POPC   C4B 4354  26.426   4.116   7.400
   53POPC   NC3 4355  32.570  41.781   9.509
   53POPC   PO4 4356  32.916  41.190   9.596
   53POPC   GL1 4357  32.907  41.339   9.197
   53POPC   GL2 4358  32.910  41.664   9.146
   53POPC   C1A 4359  33.055  41.267   8.797
   53POPC   D2A 4360  32.855  41.228   8.398
   53POPC   C3A 4361  32.956  41.558   8.120
   53POPC   C4A 4362  33.281  41.589   7.799
   53POPC   C1B 4363  32.760  41.682   8.734
   53POPC   C2B 4364  32.515  41.647   8.377
   53POPC   C3B 4365  32.530  41.850   7.949
   53POPC   C4B 4366  32.757  41.633   7.613
   54POPC   NC3 4367  30.648  19.247   9.502
   54POPC   PO4 4368  31.095  18.889   9.137
   54POPC   GL1 4369  30.732  19.083   9.033
   54POPC   GL2 4370  30.508  18.851   9.208
   54POPC   C1A 4371  30.795  19.101   8.604
   54POPC   D2A 4372  30.787  18.717   8.352
   54POPC   C3A 4373  30.844  18.871   7.951
   54POPC   C4A 4374  30.662  19.309   7.867
   54POPC   C1B 4375  30.378  18.823   8.773
   54POPC   C2B 4376  30.340  19.080   8.410
   54POPC   C3B 4377  30.364  18.924   8.051
   54POPC   C4B 4378  30.275  18.999   7.661
   55POPC   NC3 4379  25.052  20.724   9.655
   55POPC   PO4 4380  25.369  20.181   9.462
   55POPC   GL1 4381  25.106  20.488   9.199
   55POPC   GL2 4382  25.236  20.871   9.209
   55POPC   C1A 4383  25.239  20.606   8.776
   55POPC   D2A 4384  25.420  20.478   8.416
   55POPC   C3A 4385  25.151  20.615   8.097
   55POPC   C4A 4386  25.434  20.522   7.778
   55POPC   C1B 4387  25.358  21.110   8.828
   55POPC   C2B 4388  25.281  21.065   8.371
   55POPC   C3B 4389  25.455  20.998   7.956
   55POPC   C4B 4390  25.435  20.926   7.471
   56POPC   NC3 4391  32.754  37.438   9.463
   56POPC   PO4 4392  32.993  38.076   9.595
   56POPC   GL1 4393  32.878  37.872   9.154
   56POPC   GL2 4394  33.047  37.529   9.035
   56POPC   C1A 4395  32.991  37.892   8.689
   56POPC   D2A 4396  33.116  37.698   8.309
   56POPC   C3A 4397  32.886  37.805   7.946
   56POPC   C4A 4398  33.142  37.613   7.629
   56POPC   C1B 4399  32.695  37.483   8.760
   56POPC   C2B 4400  32.640  37.495   8.308
   56POPC   C3B 4401  32.845  37.306   7.956
   56POPC   C4B 4402  32.754  37.317   7.524
   57POPC   NC3 4403  34.628  15.666   9.834
   57POPC   PO4 4404  34.495  16.149   9.261
   57POPC   GL1 4405  34.545  15.989   8.895
   57POPC   GL2 4406  34.618  15.613   8.820
   57POPC   C1A 4407  34.431  16.012   8.498
   57POPC   D2A 4408  34.616  15.739   8.252
   57POPC   C3A 4409  34.720  15.979   7.935
   57POPC   C4A 4410  34.849  15.860   7.492
   57POPC   C1B 4411  34.169  15.654   8.789
   57POPC   C2B 4412  33.982  15.767   8.427
   57POPC   C3B 4413  34.157  15.755   8.015
   57POPC   C4B 4414  34.348  15.906   7.621
   58POPC   NC3 4415  37.870  11.000   9.593
   58POPC   PO4 4416  37.628  11.588   9.481
   58POPC   GL1 4417  37.635  11.469   9.108
   58POPC   GL2 4418  37.601  11.132   9.178
   58POPC   C1A 4419  37.738  11.630   8.715
   58POPC   D2A 4420  37.846  11.418   8.351
   58POPC   C3A 4421  37.508  11.346   8.097
   58POPC   C4A 4422  37.413  11.449   7.687
   58POPC   C1B 4423  37.797  11.104   8.797
   58POPC   C2B 4424  37.675  10.953   8.423
   58POPC   C3B 4425  37.866  10.962   8.034
   58POPC   C4B 4426  37.666  10.984   7.677
   59POPC   NC3 4427   3.630  35.396   9.334
   59POPC   PO4 4428   3.074  35.002   9.221
   59POPC   GL1 4429   3.170  35.362   9.002
   59POPC   GL2 4430   3.506  35.240   8.869
   59POPC   C1A 4431   3.210  35.531   8.580
   59POPC   D2A 4432   3.589  35.384   8.372
   59POPC   C3A 4433   3.556  35.238   7.977
   59POPC   C4A 4434   3.822  35.251   7.634
   59POPC   C1B 4435   3.712  35.681   8.771
   59POPC   C2B 4436   3.955  35.811   8.425
   59POPC   C3B 4437   3.961  35.599   8.047
   59POPC   C4B 4438   3.721  35.757   7.734
   60POPC   NC3 4439   5.108  24.138   9.655
   60POPC   PO4 4440   4.790  23.509   9.565
   60POPC   GL1 4441   4.815  23.718   9.184
   60POPC   GL2 4442   5.162  23.768   9.251
   60POPC   C1A 4443   4.711  23.885   8.763
   60POPC   D2A 4444   4.616  23.925   8.274
   60POPC   C3A 4445   4.964  23.771   8.004
   60POPC   C4A 4446   5.232  23.433   7.878
   60POPC   C1B 4447   5.239  23.922   8.838
   60POPC   C2B 4448   5.118  24.021   8.430
   60POPC   C3B 4449   5.361  24.110   8.082
   60POPC   C4B 4450   5.304  23.967   7.662
   61POPC   NC3 4451   4.350  24.736   9.443
   61POPC   PO4 4452   4.028  24.135   9.399
   61POPC   GL1 4453   4.178  24.374   9.055
   61POPC   GL2 4454   4.511  24.327   9.076
   61POPC   C1A 4455   4.343  24.728   8.789
   61POPC   D2A 4456   4.470  24.835   8.382
   61POPC   C3A 4457   4.121  24.828   8.142
   61POPC   C4A 4458   4.011  24.753   7.736
   61POPC   C1B 4459   4.404  24.258   8.599
   61POPC   C2B 4460   4.345  24.366   8.130
   61POPC   C3B 4461   4.377  24.365   7.666
   61POPC   C4B 4462   4.540  24.287   7.232
   62POPC   NC3 4463   0.625   3.422   9.522
   62POPC   PO4 4464   0.336   2.741   9.612
   62POPC   GL1 4465   0.456   2.632   9.212
   62POPC   GL2 4466   0.635   2.923   9.177
   62POPC   C1A 4467   0.313   2.611   8.798
   62POPC   D2A 4468   0.386   2.844   8.423
   62POPC   C3A 4469   0.279   2.719   8.021
   62POPC   C4A 4470   0.510   2.720   7.647
   62POPC   C1B 4471   0.768   2.875   8.763
   62POPC   C2B 4472   0.912   2.868   8.351
   62POPC   C3B 4473   0.681   3.029   8.043
   62POPC   C4B 4474   0.629   3.231   7.697
   63POPC   NC3 4475  37.850  11.851   9.793
   63POPC   PO4 4476  38.446  12.140   9.460
   63POPC   GL1 4477  38.463  12.037   9.070
   63POPC   GL2 4478  38.777  11.865   9.033
   63POPC   C1A 4479  38.326  11.924   8.670
   63POPC   D2A 4480  38.008  11.890   8.345
   63POPC   C3A 4481  38.222  11.981   7.971
   63POPC   C4A 4482  38.277  12.166   7.560
   63POPC   C1B 4483  38.796  12.240   8.756
   63POPC   C2B 4484  38.760  12.358   8.346
   63POPC   C3B 4485  38.696  12.175   7.951
   63POPC   C4B 4486  38.951  11.915   7.717
   64POPC   NC3 4487  11.998  28.245   9.725
   64POPC   PO4 4488  12.057  27.562   9.659
   64POPC   GL1 4489  12.001  27.504   9.169
   64POPC   GL2 4490  11.787  27.265   9.067
   64POPC   C1A 4491  11.719  27.635   8.757
   64POPC   D2A 4492  11.929  27.754   8.371
   64POPC   C3A 4493  11.813  27.732   7.959
   64POPC   C4A 4494  12.117  27.828   7.616
   64POPC   C1B 4495  12.136  27.364   8.714
   64POPC   C2B 4496  12.379  27.480   8.351
   64POPC   C3B 4497  12.220  27.430   7.928
   64POPC   C4B 4498  12.208  27.255   7.503
   65POPC   NC3 4499  34.333  39.589   9.207
   65POPC   PO4 4500  34.391  40.115   9.564
   65POPC   GL1 4501  34.636  40.028   9.183
   65POPC   GL2 4502  34.556  40.317   8.985
   65POPC   C1A 4503  34.648  39.874   8.733
   65POPC   D2A 4504  34.284  39.752   8.483
   65POPC   C3A 4505  34.378  39.839   8.050
   65POPC   C4A 4506  34.719  39.890   7.779
   65POPC   C1B 4507  34.533  40.349   8.557
   65POPC   C2B 4508  34.433  40.555   8.206
   65POPC   C3B 4509  34.512  40.340   7.880
   65POPC   C4B 4510  34.422  40.237   7.474
   66POPC   NC3 4511  19.247  27.366   9.289
   66POPC   PO4 4512  19.557  27.921   9.553
   66POPC   GL1 4513  19.229  27.884   9.148
   66POPC   GL2 4514  19.096  27.591   8.885
   66POPC   C1A 4515  18.985  28.044   8.752
   66POPC   D2A 4516  18.864  28.076   8.309
   66POPC   C3A 4517  19.086  27.743   8.070
   66POPC   C4A 4518  19.213  27.734   7.656
   66POPC   C1B 4519  19.418  27.366   8.606
   66POPC   C2B 4520  19.565  27.483   8.188
   66POPC   C3B 4521  19.393  27.303   7.846
   66POPC   C4B 4522  18.930  27.317   7.815
   67POPC   NC3 4523  33.836  26.628   9.538
   67POPC   PO4 4524  33.861  25.951   9.503
   67POPC   GL1 4525  33.876  25.913   9.118
   67POPC   GL2 4526  33.810  26.250   9.015
   67POPC   C1A 4527  33.829  25.798   8.729
   67POPC   D2A 4528  33.848  26.068   8.391
   67POPC   C3A 4529  33.842  25.811   8.015
   67POPC   C4A 4530  33.901  25.815   7.556
   67POPC   C1B 4531  33.435  26.151   8.743
   67POPC   C2B 4532  33.261  26.334   8.372
   67POPC   C3B 4533  33.491  26.164   8.043
   67POPC   C4B 4534  33.676  26.264   7.653
   68POPC   NC3 4535   8.670  22.528   9.566
   68POPC   PO4 4536   9.091  21.932   9.686
   68POPC   GL1 4537   8.933  22.156   9.328
   68POPC   GL2 4538   8.605  22.164   9.179
   68POPC   C1A 4539   9.036  22.113   8.907
   68POPC   D2A 4540   9.147  22.196   8.505
   68POPC   C3A 4541   8.932  22.094   8.156
   68POPC   C4A 4542   9.025  22.189   7.762
   68POPC   C1B 4543   8.434  22.127   8.765
   68POPC   C2B 4544   8.454  21.954   8.343
   68POPC   C3B 4545   8.454  22.235   7.991
   68POPC   C4B 4546   8.585  22.381   7.612
   69POPC   NC3 4547   3.362  44.248   9.644
   69POPC   PO4 4548   3.919  44.500   9.426
   69POPC   GL1 4549   3.748  44.470   9.085
   69POPC   GL2 4550   3.398  44.464   9.161
   69POPC   C1A 4551   3.629  44.546   8.681
   69POPC   D2A 4552   3.754  44.415   8.307
   69POPC   C3A 4553   3.553  44.673   8.033
   69POPC   C4A 4554   3.859  44.859   7.825
   69POPC   C1B 4555   3.255  44.212   8.797
   69POPC   C2B 4556   3.221  44.351   8.342
   69POPC   C3B 4557   3.248  44.310   7.866
   69POPC   C4B 4558   3.070  44.382   7.431
   70POPC   NC3 4559  15.199  21.611   9.669
   70POPC   PO4 4560  15.718  21.144   9.577
   70POPC   GL1 4561  15.287  21.240   9.325
   70POPC   GL2 4562  15.099  21.532   9.165
   70POPC   C1A 4563  15.195  21.117   8.889
   70POPC   D2A 4564  15.061  21.240   8.489
   70POPC   C3A 4565  15.314  21.271   8.138
   70POPC   C4A 4566  15.069  21.200   7.805
   70POPC   C1B 4567  15.173  21.683   8.754
   70POPC   C2B 4568  15.351  21.775   8.323
   70POPC   C3B 4569  15.151  21.716   7.911
   70POPC   C4B 4570  14.896  21.874   7.548
   71POPC   NC3 4571  39.445  18.211   9.487
   71POPC   PO4 4572  38.806  18.374   9.574
   71POPC   GL1 4573  39.050  18.435   9.215
   71POPC   GL2 4574  39.034  18.112   9.140
   71POPC   C1A 4575  39.309  18.401   8.831
   71POPC   D2A 4576  39.529  18.055   8.596
   71POPC   C3A 4577  39.488  18.124   8.138
   71POPC   C4A 4578  39.388  18.539   7.953
   71POPC   C1B 4579  39.057  17.953   8.768
   71POPC   C2B 4580  39.064  18.181   8.413
   71POPC   C3B 4581  38.974  18.078   8.025
   71POPC   C4B 4582  38.987  18.335   7.702
   72POPC   NC3 4583  15.660  25.073   9.874
   72POPC   PO4 4584  16.196  24.959   9.481
   72POPC   GL1 4585  15.979  25.238   9.169
   72POPC   GL2 4586  15.696  25.432   9.178
   72POPC   C1A 4587  15.956  25.472   8.742
   72POPC   D2A 4588  15.865  25.379   8.321
   72POPC   C3A 4589  15.973  25.474   7.907
   72POPC   C4A 4590  15.950  25.024   7.853
   72POPC   C1B 4591  15.624  25.101   8.815
   72POPC   C2B 4592  15.513  24.992   8.398
   72POPC   C3B 4593  15.458  25.183   8.018
   72POPC   C4B 4594  15.570  25.294   7.618
   73POPC   NC3 4595  44.051  41.984   9.564
   73POPC   PO4 4596  43.723  42.536   9.425
   73POPC   GL1 4597  43.938  42.262   9.149
   73POPC   GL2 4598  44.292  42.175   9.160
   73POPC   C1A 4599  43.979  42.141   8.742
   73POPC   D2A 4600  43.760  42.308   8.410
   73POPC   C3A 4601  43.730  42.003   8.112
   73POPC   C4A 4602  43.659  41.959   7.680
   73POPC   C1B 4603  44.389  42.471   8.806
   73POPC   C2B 4604  44.290  42.441   8.345
   73POPC   C3B 4605  44.036  42.393   7.960
   73POPC   C4B 4606  44.120  42.338   7.520
   74POPC   NC3 4607  11.671  13.762   9.390
   74POPC   PO4 4608  11.202  13.322   9.616
   74POPC   GL1 4609  11.377  13.394   9.203
   74POPC   GL2 4610  11.068  13.500   9.032
   74POPC   C1A 4611  11.535  13.522   8.774
   74POPC   D2A 4612  11.353  13.480   8.357
   74POPC   C3A 4613  11.556  13.489   7.938
   74POPC   C4A 4614  11.433  13.527   7.490
   74POPC   C1B 4615  11.117  13.805   8.709
   74POPC   C2B 4616  11.207  13.955   8.300
   74POPC   C3B 4617  11.197  13.867   7.849
   74POPC   C4B 4618  11.315  14.140   7.516
   75POPC   NC3 4619  27.242  39.286   9.457
   75POPC   PO4 4620  26.535  39.403   9.435
   75POPC   GL1 4621  26.735  39.127   9.192
   75POPC   GL2 4622  26.457  39.146   8.997
   75POPC   C1A 4623  26.917  39.170   8.782
   75POPC   D2A 4624  26.766  39.312   8.377
   75POPC   C3A 4625  26.818  38.972   8.082
   75POPC   C4A 4626  26.597  38.977   7.713
   75POPC   C1B 4627  26.504  39.531   8.778
   75POPC   C2B 4628  26.491  39.780   8.401
   75POPC   C3B 4629  26.390  39.614   7.989
   75POPC   C4B 4630  26.450  39.483   7.567
   76POPC   NC3 4631  31.717  30.452   9.559
   76POPC   PO4 4632  31.325  31.017   9.713
   76POPC   GL1 4633  31.363  30.781   9.317
   76POPC   GL2 4634  31.522  30.492   9.098
   76POPC   C1A 4635  31.334  30.931   8.895
   76POPC   D2A 4636  31.424  30.985   8.458
   76POPC   C3A 4637  31.133  30.951   8.122
   76POPC   C4A 4638  31.325  30.856   7.762
   76POPC   C1B 4639  31.652  30.312   8.692
   76POPC   C2B 4640  31.750  30.518   8.309
   76POPC   C3B 4641  31.644  30.434   7.841
   76POPC   C4B 4642  31.798  30.360   7.372
   77POPC   NC3 4643  37.795  21.687   9.451
   77POPC   PO4 4644  37.313  22.244   9.520
   77POPC   GL1 4645  37.482  22.086   9.167
   77POPC   GL2 4646  37.336  21.773   9.155
   77POPC   C1A 4647  37.668  22.177   8.771
   77POPC   D2A 4648  38.016  22.048   8.515
   77POPC   C3A 4649  37.956  22.045   8.075
   77POPC   C4A 4650  38.020  22.357   7.711
   77POPC   C1B 4651  37.564  21.663   8.799
   77POPC   C2B 4652  37.517  21.844   8.392
   77POPC   C3B 4653  37.333  21.674   8.040
   77POPC   C4B 4654  37.445  21.520   7.689
   78POPC   NC3 4655  34.923   5.550   9.499
   78POPC   PO4 4656  34.865   6.217   9.471
   78POPC   GL1 4657  34.988   5.947   9.126
   78POPC   GL2 4658  35.266   5.725   9.158
   78POPC   C1A 4659  35.183   5.957   8.702
   78POPC   D2A 4660  35.166   6.064   8.265
   78POPC   C3A 4661  35.603   6.059   8.094
   78POPC   C4A 4662  35.796   5.734   7.830
   78POPC   C1B 4663  35.067   5.482   8.833
   78POPC   C2B 4664  35.184   5.543   8.395
   78POPC   C3B 4665  35.313   5.649   7.976
   78POPC   C4B 4666  35.072   5.650   7.605
   79POPC   NC3 4667   4.849  17.879   9.561
   79POPC   PO4 4668   5.265  18.523   9.522
   79POPC   GL1 4669   5.136  18.189   9.203
   79POPC   GL2 4670   4.781  18.157   9.149
   79POPC   C1A 4671   5.086  18.250   8.757
   79POPC   D2A 4672   4.935  18.195   8.372
   79POPC   C3A 4673   5.153  18.269   7.992
   79POPC   C4A 4674   5.159  18.627   7.781
   79POPC   C1B 4675   4.558  18.317   8.767
   79POPC   C2B 4676   4.424  18.356   8.342
   79POPC   C3B 4677   4.671  18.450   7.991
   79POPC   C4B 4678   4.786  18.304   7.582
   80POPC   NC3 4679  37.965  30.835   9.852
   80POPC   PO4 4680  38.582  30.843   9.495
   80POPC   GL1 4681  38.473  30.730   9.047
   80POPC   GL2 4682  38.123  30.539   8.962
   80POPC   C1A 4683  38.318  30.939   8.690
   80POPC   D2A 4684  38.403  30.628   8.417
   80POPC   C3A 4685  38.253  30.615   8.002
   80POPC   C4A 4686  38.346  30.565   7.577
   80POPC   C1B 4687  38.423  30.263   8.855
   80POPC   C2B 4688  38.625  30.172   8.543
   80POPC   C3B 4689  38.567  30.242   8.141
   80POPC   C4B 4690  38.578  30.159   7.741
   81POPC   NC3 4691  32.771  39.408   9.503
   81POPC   PO4 4692  33.005  38.784   9.534
   81POPC   GL1 4693  32.931  39.056   9.180
   81POPC   GL2 4694  33.155  39.264   9.142
   81POPC   C1A 4695  32.811  39.359   8.807
   81POPC   D2A 4696  32.823  39.123   8.448
   81POPC   C3A 4697  32.986  39.225   8.049
   81POPC   C4A 4698  33.084  39.515   7.709
   81POPC   C1B 4699  33.257  39.113   8.777
   81POPC   C2B 4700  33.325  39.064   8.397
   81POPC   C3B 4701  33.426  38.938   8.066
   81POPC   C4B 4702  33.388  39.114   7.723
   82POPC   NC3 4703  21.888  37.736   9.739
   82POPC   PO4 4704  22.383  37.407   9.503
   82POPC   GL1 4705  22.181  37.718   9.260
   82POPC   GL2 4706  21.919  37.521   9.239
   82POPC   C1A 4707  22.273  37.787   8.823
   82POPC   D2A 4708  22.376  37.645   8.404
   82POPC   C3A 4709  22.199  37.747   7.978
   82POPC   C4A 4710  22.353  37.881   7.558
   82POPC   C1B 4711  21.953  37.344   8.824
   82POPC   C2B 4712  22.092  37.203   8.437
   82POPC   C3B 4713  22.347  37.240   8.090
   82POPC   C4B 4714  22.402  37.378   7.673
   83POPC   NC3 4715   8.387  26.988   9.529
   83POPC   PO4 4716   8.441  26.318   9.587
   83POPC   GL1 4717   8.300  26.620   9.180
   83POPC   GL2 4718   8.055  26.939   9.158
   83POPC   C1A 4719   8.371  26.432   8.758
   83POPC   D2A 4720   8.401  26.620   8.384
   83POPC   C3A 4721   8.346  26.519   7.968
   83POPC   C4A 4722   8.282  26.789   7.615
   83POPC   C1B 4723   8.070  26.849   8.716
   83POPC   C2B 4724   7.937  26.801   8.290
   83POPC   C3B 4725   7.935  27.002   7.914
   83POPC   C4B 4726   7.909  27.048   7.402
   84POPC   NC3 4727  37.354  16.586   9.569
   84POPC   PO4 4728  37.932  16.931   9.747
   84POPC   GL1 4729  37.850  16.781   9.280
   84POPC   GL2 4730  37.565  16.583   9.117
   84POPC   C1A 4731  37.810  16.906   8.807
   84POPC   D2A 4732  37.645  16.974   8.358
   84POPC   C3A 4733  37.769  16.674   7.999
   84POPC   C4A 4734  38.086  16.555   7.674
   84POPC   C1B 4735  37.332  16.689   8.753
   84POPC   C2B 4736  37.201  16.650   8.356
   84POPC   C3B 4737  37.279  16.863   7.986
   84POPC   C4B 4738  37.416  16.733   7.561
   85POPC   NC3 4739  40.230  29.448   9.402
   85POPC   PO4 4740  39.826  28.911   9.412
   85POPC   GL1 4741  39.885  29.015   9.053
   85POPC   GL2 4742  40.198  29.072   9.052
   85POPC   C1A 4743  39.753  29.041   8.671
   85POPC   D2A 4744  39.799  29.341   8.359
   85POPC   C3A 4745  39.846  29.176   7.950
   85POPC   C4A 4746  39.619  28.889   7.722
   85POPC   C1B 4747  40.233  29.244   8.674
   85POPC   C2B 4748  40.157  28.953   8.354
   85POPC   C3B 4749  40.349  29.009   7.978
   85POPC   C4B 4750  40.262  29.435   7.815
   86POPC   NC3 4751  21.303  33.108   9.505
   86POPC   PO4 4752  21.939  32.806   9.429
   86POPC   GL1 4753  21.530  32.807   9.127
   86POPC   GL2 4754  21.170  33.001   9.049
   86POPC   C1A 4755  21.415  32.812   8.677
   86POPC   D2A 4756  21.487  33.089   8.350
   86POPC   C3A 4757  21.336  32.947   7.990
   86POPC   C4A 4758  21.349  32.649   7.634
   86POPC   C1B 4759  21.118  33.356   8.789
   86POPC   C2B 4760  21.002  33.246   8.387
   86POPC   C3B 4761  21.037  33.393   8.002
   86POPC   C4B 4762  21.257  33.475   7.636
   87POPC   NC3 4763  31.647  31.445   9.653
   87POPC   PO4 4764  31.147  31.711   9.281
   87POPC   GL1 4765  31.536  31.497   9.164
   87POPC   GL2 4766  31.617  31.732   8.907
   87POPC   C1A 4767  31.766  31.276   8.812
   87POPC   D2A 4768  31.673  31.462   8.386
   87POPC   C3A 4769  31.498  31.311   8.003
   87POPC   C4A 4770  31.716  31.272   7.634
   87POPC   C1B 4771  31.287  31.424   8.731
   87POPC   C2B 4772  31.150  31.447   8.361
   87POPC   C3B 4773  31.278  31.757   8.128
   87POPC   C4B 4774  31.149  31.722   7.764
   88POPC   NC3 4775  29.078  32.026   9.405
   88POPC   PO4 4776  29.094  32.773   9.377
   88POPC   GL1 4777  29.227  32.510   9.093
   88POPC   GL2 4778  28.914  32.372   9.056
   88POPC   C1A 4779  29.379  32.166   8.845
   88POPC   D2A 4780  29.394  31.968   8.448
   88POPC   C3A 4781  29.202  32.262   8.185
   88POPC   C4A 4782  29.126  32.198   7.790
   88POPC   C1B 4783  29.008  32.468   8.633
   88POPC   C2B 4784  28.938  32.717   8.277
   88POPC   C3B 4785  28.754  32.499   7.943
   88POPC   C4B 4786  28.796  32.391   7.472
   89POPC   NC3 4787  26.286  11.096   9.542
   89POPC   PO4 4788  25.919  11.657   9.619
   89POPC   GL1 4789  26.006  11.511   9.235
   89POPC   GL2 4790  25.885  11.816   9.078
   89POPC   C1A 4791  26.049  11.162   8.923
   89POPC   D2A 4792  25.917  11.138   8.503
   89POPC   C3A 4793  26.126  11.158   8.102
   89POPC   C4A 4794  26.006  11.197   7.683
   89POPC   C1B 4795  26.147  11.637   8.760
   89POPC   C2B 4796  26.285  11.569   8.354
   89POPC   C3B 4797  26.016  11.641   8.004
   89POPC   C4B 4798  26.028  11.706   7.602
   90POPC   NC3 4799  27.857  19.169   9.658
   90POPC   PO4 4800  27.309  18.868   9.850
   90POPC   GL1 4801  27.440  19.036   9.373
   90POPC   GL2 4802  27.766  18.862   9.250
   90POPC   C1A 4803  27.418  19.010   8.885
   90POPC   D2A 4804  27.554  19.151   8.483
   90POPC   C3A 4805  27.420  19.016   8.086
   90POPC   C4A 4806  27.333  19.224   7.703
   90POPC   C1B 4807  27.875  18.822   8.809
   90POPC   C2B 4808  27.759  18.708   8.385
   90POPC   C3B 4809  27.921  18.885   8.025
   90POPC   C4B 4810  27.754  18.936   7.632
   91POPC   NC3 4811  28.721   5.193   9.611
   91POPC   PO4 4812  28.122   5.124   9.579
   91POPC   GL1 4813  28.327   4.846   9.257
   91POPC   GL2 4814  28.701   4.824   9.246
   91POPC   C1A 4815  28.275   4.722   8.846
   91POPC   D2A 4816  28.101   4.857   8.451
   91POPC   C3A 4817  28.112   5.275   8.298
   91POPC   C4A 4818  28.205   5.222   7.873
   91POPC   C1B 4819  28.673   5.065   8.840
   91POPC   C2B 4820  28.618   5.148   8.369
   91POPC   C3B 4821  28.724   4.999   7.935
   91POPC   C4B 4822  28.807   5.081   7.470
   92POPC   NC3 4823  13.910  18.777   9.515
   92POPC   PO4 4824  13.405  19.243   9.523
   92POPC   GL1 4825  13.440  18.986   9.147
   92POPC   GL2 4826  13.786  18.924   9.050
   92POPC   C1A 4827  13.457  19.096   8.694
   92POPC   D2A 4828  13.272  19.224   8.296
   92POPC   C3A 4829  13.539  19.037   7.978
   92POPC   C4A 4830  13.397  18.814   7.608
   92POPC   C1B 4831  14.080  18.776   8.712
   92POPC   C2B 4832  13.990  18.822   8.308
   92POPC   C3B 4833  14.076  18.934   7.908
   92POPC   C4B 4834  13.930  18.853   7.492
   93POPC   NC3 4835   6.343  31.411   9.527
   93POPC   PO4 4836   7.106  31.345   9.556
   93POPC   GL1 4837   6.796  31.407   9.206
   93POPC   GL2 4838   6.621  31.100   9.215
   93POPC   C1A 4839   6.666  31.503   8.763
   93POPC   D2A 4840   6.859  31.681   8.365
   93POPC   C3A 4841   6.750  31.585   7.980
   93POPC   C4A 4842   6.422  31.557   7.717
   93POPC   C1B 4843   6.484  30.983   8.819
   93POPC   C2B 4844   6.732  31.054   8.460
   93POPC   C3B 4845   6.679  31.081   8.025
   93POPC   C4B 4846   6.873  31.224   7.645
   94POPC   NC3 4847   9.802  26.368   9.311
   94POPC   PO4 4848   9.829  27.055   9.527
   94POPC   GL1 4849   9.960  26.855   9.168
   94POPC   GL2 4850   9.603  26.798   9.115
   94POPC   C1A 4851   9.976  26.816   8.712
   94POPC   D2A 4852  10.097  26.975   8.294
   94POPC   C3A 4853   9.971  26.715   7.937
   94POPC   C4A 4854   9.995  26.782   7.507
   94POPC   C1B 4855   9.464  26.597   8.758
   94POPC   C2B 4856   9.637  26.632   8.352
   94POPC   C3B 4857   9.536  26.933   8.039
   94POPC   C4B 4858   9.444  26.765   7.673
   95POPC   NC3 4859   2.955  16.214   9.573
   95POPC   PO4 4860   2.585  15.811   9.279
   95POPC   GL1 4861   2.677  16.062   8.985
   95POPC   GL2 4862   3.045  16.045   9.089
   95POPC   C1A 4863   2.540  15.894   8.597
   95POPC   D2A 4864   2.695  15.575   8.331
   95POPC   C3A 4865   2.542  15.824   8.001
   95POPC   C4A 4866   2.504  16.137   7.737
   95POPC   C1B 4867   3.036  15.834   8.674
   95POPC   C2B 4868   2.967  15.996   8.256
   95POPC   C3B 4869   3.000  15.990   7.798
   95POPC   C4B 4870   3.077  15.727   7.448
   96POPC   NC3 4871   1.503  22.916   9.567
   96POPC   PO4 4872   0.879  22.829   9.772
   96POPC   GL1 4873   0.977  22.835   9.295
   96POPC   GL2 4874   1.253  22.601   9.207
   96POPC   C1A 4875   0.976  23.071   8.865
   96POPC   D2A 4876   1.278  23.121   8.474
   96POPC   C3A 4877   1.090  23.079   8.064
   96POPC   C4A 4878   1.011  22.845   7.723
   96POPC   C1B 4879   1.301  22.687   8.759
   96POPC   C2B 4880   1.368  22.640   8.318
   96POPC   C3B 4881   1.574  22.913   8.027
   96POPC   C4B 4882   1.455  23.142   7.670
   97POPC   NC3 4883  20.946  14.675   9.482
   97POPC   PO4 4884  20.470  14.197   9.537
   97POPC   GL1 4885  20.711  14.309   9.178
   97POPC   GL2 4886  20.452  14.553   9.130
   97POPC   C1A 4887  20.667  14.397   8.720
   97POPC   D2A 4888  20.500  14.367   8.326
   97POPC   C3A 4889  20.703  14.527   7.953
   97POPC   C4A 4890  20.560  14.335   7.571
   97POPC   C1B 4891  20.140  14.717   8.855
   97POPC   C2B 4892  20.046  14.683   8.411
   97POPC   C3B 4893  20.312  14.823   8.093
   97POPC   C4B 4894  20.400  14.814   7.652
   98POPC   NC3 4895  33.095  19.274   9.444
   98POPC   PO4 4896  32.784  18.665   9.503
   98POPC   GL1 4897  32.881  18.739   9.082
   98POPC   GL2 4898  32.889  19.109   9.027
   98POPC   C1A 4899  33.109  18.759   8.690
   98POPC   D2A 4900  33.111  19.122   8.453
   98POPC   C3A 4901  32.860  19.028   8.125
   98POPC   C4A 4902  33.052  18.906   7.775
   98POPC   C1B 4903  33.107  19.477   8.828
   98POPC   C2B 4904  33.214  19.646   8.435
   98POPC   C3B 4905  33.170  19.460   8.053
   98POPC   C4B 4906  32.917  19.406   7.734
   99POPC   NC3 4907  15.090  44.219   9.547
   99POPC   PO4 4908  15.335  44.793   9.707
   99POPC   GL1 4909  15.349  44.584   9.303
   99POPC   GL2 4910  15.537  44.236   9.276
   99POPC   C1A 4911  15.040  44.666   8.970
   99POPC   D2A 4912  15.030  44.892   8.573
   99POPC   C3A 4913  15.021  44.735   8.171
   99POPC   C4A 4914  14.853  44.899   7.796
   99POPC   C1B 4915  15.427  44.361   8.856
   99POPC   C2B 4916  15.435  44.587   8.486
   99POPC   C3B 4917  15.479  44.496   8.044
   99POPC   C4B 4918  15.447  44.777   7.714
  100POPC   NC3 4919  12.411  33.086   9.478
  100POPC   PO4 4920  13.061  32.845   9.437
  100POPC   GL1 4921  12.816  32.832   9.118
  100POPC   GL2 4922  12.822  33.181   9.068
  100POPC   C1A 4923  12.674  32.859   8.693
  100POPC   D2A 4924  12.395  32.834   8.361
  100POPC   C3A 4925  12.596  32.813   7.959
  100POPC   C4A 4926  12.610  32.979   7.555
  100POPC   C1B 4927  13.031  33.235   8.680
  100POPC   C2B 4928  12.892  33.082   8.280
  100POPC   C3B 4929  12.801  33.309   7.907
  100POPC   C4B 4930  12.997  33.635   7.712
  101POPC   NC3 4931  11.305   0.790   9.546
  101POPC   PO4 4932  11.513   0.112   9.716
  101POPC   GL1 4933  11.276   0.252   9.310
  101POPC   GL2 4934  11.143   0.546   9.151
  101POPC   C1A 4935  11.399   0.261   8.838
  101POPC   D2A 4936  11.427   0.099   8.411
  101POPC   C3A 4937  11.564   0.398   8.056
  101POPC   C4A 4938  11.395   0.387   7.660
  101POPC   C1B 4939  11.123   0.720   8.761
  101POPC   C2B 4940  11.177   0.536   8.350
  101POPC   C3B 4941  10.978   0.602   7.932
  101POPC   C4B 4942  11.034   0.690   7.445
  102POPC   NC3 4943  43.443  10.407   9.543
  102POPC   PO4 4944  42.743  10.181   9.546
  102POPC   GL1 4945  42.886  10.394   9.169
  102POPC   GL2 4946  43.234  10.462   9.089
  102POPC   C1A 4947  42.827  10.579   8.780
  102POPC   D2A 4948  42.961  10.696   8.367
  102POPC   C3A 4949  42.854  10.471   7.997
  102POPC   C4A 4950  43.119  10.276   7.719
  102POPC   C1B 4951  43.296  10.747   8.780
  102POPC   C2B 4952  43.474  10.672   8.401
  102POPC   C3B 4953  43.355  10.665   7.986
  102POPC   C4B 4954  43.485  10.719   7.573
  103POPC   NC3 4955  16.076  21.177   9.874
  103POPC   PO4 4956  16.069  20.524   9.624
  103POPC   GL1 4957  15.877  20.664   9.245
  103POPC   GL2 4958  16.149  20.544   9.116
  103POPC   C1A 4959  15.725  20.674   8.787
  103POPC   D2A 4960  15.459  20.885   8.465
  103POPC   C3A 4961  15.561  20.806   8.015
  103POPC   C4A 4962  15.849  20.699   7.674
  103POPC   C1B 4963  16.268  20.711   8.753
  103POPC   C2B 4964  16.216  20.516   8.393
  103POPC   C3B 4965  16.224  20.658   8.006
  103POPC   C4B 4966  16.378  20.514   7.659
  104POPC   NC3 4967  21.027  26.944   9.516
  104POPC   PO4 4968  20.434  26.653   9.635
  104POPC   GL1 4969  20.594  26.811   9.252
  104POPC   GL2 4970  20.540  26.496   9.127
  104POPC   C1A 4971  20.773  26.871   8.822
  104POPC   D2A 4972  20.652  27.018   8.406
  104POPC   C3A 4973  20.850  26.929   8.023
  104POPC   C4A 4974  20.681  26.905   7.639
  104POPC   C1B 4975  20.344  26.607   8.758
  104POPC   C2B 4976  20.182  26.812   8.420
  104POPC   C3B 4977  20.337  26.791   8.003
  104POPC   C4B 4978  20.232  26.569   7.608
  105POPC   NC3 4979   2.100  33.964   9.641
  105POPC   PO4 4980   1.666  33.465   9.608
  105POPC   GL1 4981   1.838  33.730   9.215
  105POPC   GL2 4982   2.182  33.813   9.150
  105POPC   C1A 4983   1.891  33.892   8.750
  105POPC   D2A 4984   2.214  33.988   8.425
  105POPC   C3A 4985   2.031  33.880   8.014
  105POPC   C4A 4986   1.746  34.148   7.777
  105POPC   C1B 4987   2.287  33.565   8.760
  105POPC   C2B 4988   2.112  33.488   8.348
  105POPC   C3B 4989   2.273  33.436   7.932
  105POPC   C4B 4990   2.425  33.621   7.548
  106POPC   NC3 4991   1.716  23.889   9.498
  106POPC   PO4 4992   2.220  23.451   9.616
  106POPC   GL1 4993   2.139  23.697   9.213
  106POPC   GL2 4994   1.833  23.621   9.078
  106POPC   C1A 4995   2.166  23.707   8.710
  106POPC   D2A 4996   2.343  23.785   8.276
  106POPC   C3A 4997   2.197  23.518   7.923
  106POPC   C4A 4998   2.039  23.602   7.471
  106POPC   C1B 4999   1.704  23.417   8.690
  106POPC   C2B 5000   1.705  23.352   8.256
  106POPC   C3B 5001   1.698  23.581   7.875
  106POPC   C4B 5002   1.544  23.614   7.475
  107POPC   NC3 5003  34.791  30.457   9.468
  107POPC   PO4 5004  34.406  31.049   9.586
  107POPC   GL1 5005  34.466  30.752   9.224
  107POPC   GL2 5006  34.782  30.890   9.106
  107POPC   C1A 5007  34.623  30.530   8.810
  107POPC   D2A 5008  34.928  30.560   8.477
  107POPC   C3A 5009  34.683  30.382   8.149
  107POPC   C4A 5010  34.355  30.558   7.865
  107POPC   C1B 5011  34.487  31.047   8.815
  107POPC   C2B 5012  34.597  30.966   8.409
  107POPC   C3B 5013  34.814  30.870   8.042
  107POPC   C4B 5014  34.632  30.947   7.661
  108POPC   NC3 5015  23.263   7.173   9.565
  108POPC   PO4 5016  23.879   7.547   9.396
  108POPC   GL1 5017  23.522   7.412   9.158
  108POPC   GL2 5018  23.604   7.072   9.198
  108POPC   C1A 5019  23.475   7.520   8.716
  108POPC   D2A 5020  23.821   7.536   8.408
  108POPC   C3A 5021  23.628   7.518   7.992
  108POPC   C4A 5022  23.896   7.607   7.623
  108POPC   C1B 5023  23.772   7.110   8.787
  108POPC   C2B 5024  23.575   7.092   8.392
  108POPC   C3B 5025  23.678   7.006   7.991
  108POPC   C4B 5026  23.622   7.184   7.595
  109POPC   NC3 5027  14.133  36.156   9.501
  109POPC   PO4 5028  14.712  35.839   9.708
  109POPC   GL1 5029  14.679  35.961   9.256
  109POPC   GL2 5030  14.505  36.235   9.164
  109POPC   C1A 5031  14.520  35.894   8.808
  109POPC   D2A 5032  14.638  35.728   8.398
  109POPC   C3A 5033  14.463  35.921   8.055
  109POPC   C4A 5034  14.103  35.965   7.818
  109POPC   C1B 5035  14.228  36.310   8.809
  109POPC   C2B 5036  14.082  36.217   8.400
  109POPC   C3B 5037  14.250  36.393   8.056
  109POPC   C4B 5038  14.455  36.377   7.692
  110POPC   NC3 5039  16.726  14.890   9.517
  110POPC   PO4 5040  16.764  15.564   9.727
  110POPC   GL1 5041  16.767  15.500   9.237
  110POPC   GL2 5042  16.734  15.139   9.074
  110POPC   C1A 5043  16.644  15.527   8.783
  110POPC   D2A 5044  16.900  15.441   8.411
  110POPC   C3A 5045  16.662  15.442   8.030
  110POPC   C4A 5046  16.719  15.284   7.637
  110POPC   C1B 5047  16.437  15.039   8.756
  110POPC   C2B 5048  16.501  15.068   8.338
  110POPC   C3B 5049  16.581  14.790   8.041
  110POPC   C4B 5050  16.616  14.788   7.606
  111POPC   NC3 5051   4.270   6.163   9.935
  111POPC   PO4 5052   4.500   5.649   9.521
  111POPC   GL1 5053   4.357   5.802   9.154
  111POPC   GL2 5054   4.450   6.119   9.200
  111POPC   C1A 5055   4.118   5.923   8.788
  111POPC   D2A 5056   3.997   5.732   8.390
  111POPC   C3A 5057   4.088   5.980   8.046
  111POPC   C4A 5058   4.117   6.041   7.611
  111POPC   C1B 5059   4.610   6.075   8.771
  111POPC   C2B 5060   4.499   5.942   8.348
  111POPC   C3B 5061   4.549   6.106   7.913
  111POPC   C4B 5062   4.556   6.233   7.463
  112POPC   NC3 5063   1.372  27.138   9.347
  112POPC   PO4 5064   1.002  26.539   9.493
  112POPC   GL1 5065   0.978  26.757   9.104
  112POPC   GL2 5066   1.348  26.689   9.010
  112POPC   C1A 5067   1.046  26.960   8.709
  112POPC   D2A 5068   1.343  26.883   8.406
  112POPC   C3A 5069   1.210  26.742   8.047
  112POPC   C4A 5070   1.281  26.940   7.708
  112POPC   C1B 5071   1.533  26.480   8.621
  112POPC   C2B 5072   1.748  26.545   8.222
  112POPC   C3B 5073   1.587  26.512   7.775
  112POPC   C4B 5074   1.365  26.556   7.355
  113POPC   NC3 5075  10.057   4.673   9.470
  113POPC   PO4 5076   9.455   5.025   9.514
  113POPC   GL1 5077   9.563   5.304   9.188
  113POPC   GL2 5078   9.890   5.266   9.118
  113POPC   C1A 5079   9.515   5.250   8.760
  113POPC   D2A 5080   9.496   5.471   8.416
  113POPC   C3A 5081   9.453   5.239   8.061
  113POPC   C4A 5082   9.622   5.192   7.661
  113POPC   C1B 5083  10.027   5.090   8.784
  113POPC   C2B 5084   9.944   5.257   8.403
  113POPC   C3B 5085  10.010   5.146   8.011
  113POPC   C4B 5086   9.990   4.808   7.748
  114POPC   NC3 5087  43.832   7.923   9.540
  114POPC   PO4 5088  44.146   7.344   9.450
  114POPC   GL1 5089  43.961   7.544   9.166
  114POPC   GL2 5090  44.162   7.715   9.027
  114POPC   C1A 5091  43.745   7.332   8.848
  114POPC   D2A 5092  43.630   7.441   8.437
  114POPC   C3A 5093  43.903   7.356   8.106
  114POPC   C4A 5094  43.827   7.225   7.669
  114POPC   C1B 5095  44.195   7.507   8.672
  114POPC   C2B 5096  44.232   7.734   8.310
  114POPC   C3B 5097  44.353   7.564   7.943
  114POPC   C4B 5098  44.040   7.670   7.697
  115POPC   NC3 5099   7.161   0.001   9.352
  115POPC   PO4 5100   7.437   0.532   9.683
  115POPC   GL1 5101   7.421   0.430   9.228
  115POPC   GL2 5102   7.605   0.148   9.126
  115POPC   C1A 5103   7.263   0.294   8.784
  115POPC   D2A 5104   7.074   0.415   8.395
  115POPC   C3A 5105   7.283   0.274   8.038
  115POPC   C4A 5106   7.311   0.480   7.679
  115POPC   C1B 5107   7.750   0.496   8.842
  115POPC   C2B 5108   7.609   0.496   8.418
  115POPC   C3B 5109   7.623   0.704   8.039
  115POPC   C4B 5110   7.826   0.651   7.637
  116POPC   NC3 5111  25.761  26.635   9.470
  116POPC   PO4 5112  26.308  27.088   9.484
  116POPC   GL1 5113  26.120  26.989   9.112
  116POPC   GL2 5114  26.148  26.640   9.093
  116POPC   C1A 5115  26.157  26.886   8.644
  116POPC   D2A 5116  26.291  26.789   8.225
  116POPC   C3A 5117  26.163  27.030   7.867
  116POPC   C4A 5118  25.844  26.955   7.537
  116POPC   C1B 5119  25.785  26.593   8.815
  116POPC   C2B 5120  25.897  26.477   8.390
  116POPC   C3B 5121  25.850  26.610   7.947
  116POPC   C4B 5122  25.937  26.456   7.482
  117POPC   NC3 5123  13.863   8.263   9.648
  117POPC   PO4 5124  13.278   8.603   9.751
  117POPC   GL1 5125  13.521   8.467   9.311
  117POPC   GL2 5126  13.914   8.427   9.165
  117POPC   C1A 5127  13.542   8.317   8.845
  117POPC   D2A 5128  13.296   8.177   8.483
  117POPC   C3A 5129  13.439   8.153   8.038
  117POPC   C4A 5130  13.452   8.244   7.586
  117POPC   C1B 5131  14.038   8.241   8.728
  117POPC   C2B 5132  13.980   8.304   8.249
  117POPC   C3B 5133  13.838   8.512   7.841
  117POPC   C4B 5134  13.923   8.367   7.388
  118POPC   NC3 5135  39.419  22.038   9.409
  118POPC   PO4 5136  38.902  22.488   9.556
  118POPC   GL1 5137  38.966  22.384   9.133
  118POPC   GL2 5138  39.309  22.472   9.151
  118POPC   C1A 5139  39.138  22.241   8.730
  118POPC   D2A 5140  39.000  22.249   8.314
  118POPC   C3A 5141  39.105  21.962   7.982
  118POPC   C4A 5142  38.928  21.986   7.562
  118POPC   C1B 5143  39.324  22.709   8.787
  118POPC   C2B 5144  39.110  22.754   8.403
  118POPC   C3B 5145  39.018  22.626   7.977
  118POPC   C4B 5146  39.226  22.385   7.739
  119POPC   NC3 5147  15.915  41.039   9.918
  119POPC   PO4 5148  16.079  40.581   9.423
  119POPC   GL1 5149  15.765  40.805   9.166
  119POPC   GL2 5150  15.545  41.015   9.366
  119POPC   C1A 5151  15.878  40.870   8.738
  119POPC   D2A 5152  15.972  40.724   8.318
  119POPC   C3A 5153  16.242  40.944   8.006
  119POPC   C4A 5154  16.389  40.743   7.660
  119POPC   C1B 5155  15.549  41.199   8.945
  119POPC   C2B 5156  15.561  41.177   8.491
  119POPC   C3B 5157  15.712  41.174   8.067
  119POPC   C4B 5158  15.809  40.879   7.770
  120POPC   NC3 5159   0.324  13.344   9.526
  120POPC   PO4 5160   0.835  13.713   9.451
  120POPC   GL1 5161   0.604  13.524   9.144
  120POPC   GL2 5162   0.326  13.755   9.190
  120POPC   C1A 5163   0.329  13.418   8.796
  120POPC   D2A 5164   0.267  13.586   8.378
  120POPC   C3A 5165   0.528  13.477   8.024
  120POPC   C4A 5166   0.234  13.478   7.705
  120POPC   C1B 5167   0.294  13.931   8.773
  120POPC   C2B 5168   0.260  14.173   8.387
  120POPC   C3B 5169   0.250  13.939   7.979
  120POPC   C4B 5170   0.366  13.913   7.484
  121POPC   NC3 5171   5.325   8.390   9.560
  121POPC   PO4 5172   4.989   7.889   9.766
  121POPC   GL1 5173   5.026   8.015   9.277
  121POPC   GL2 5174   4.749   8.179   9.096
  121POPC   C1A 5175   5.255   8.126   8.852
  121POPC   D2A 5176   5.326   8.307   8.422
  121POPC   C3A 5177   5.172   8.098   8.040
  121POPC   C4A 5178   5.176   8.269   7.619
  121POPC   C1B 5179   4.835   8.357   8.672
  121POPC   C2B 5180   4.843   8.437   8.212
  121POPC   C3B 5181   4.716   8.219   7.816
  121POPC   C4B 5182   4.699   8.392   7.407
  122POPC   NC3 5183  42.477  36.492   9.254
  122POPC   PO4 5184  42.359  37.154   9.554
  122POPC   GL1 5185  42.397  36.985   9.147
  122POPC   GL2 5186  42.686  37.152   9.075
  122POPC   C1A 5187  42.252  36.792   8.742
  122POPC   D2A 5188  42.009  36.542   8.456
  122POPC   C3A 5189  42.132  36.650   8.044
  122POPC   C4A 5190  42.074  36.723   7.610
  122POPC   C1B 5191  42.488  37.252   8.696
  122POPC   C2B 5192  42.403  37.523   8.360
  122POPC   C3B 5193  42.205  37.438   7.986
  122POPC   C4B 5194  42.271  37.227   7.592
  123POPC   NC3 5195  38.515  43.351   9.906
  123POPC   PO4 5196  38.507  43.863   9.533
  123POPC   GL1 5197  38.453  43.670   9.158
  123POPC   GL2 5198  38.111  43.794   9.124
  123POPC   C1A 5199  38.711  43.713   8.758
  123POPC   D2A 5200  38.688  44.033   8.459
  123POPC   C3A 5201  38.746  43.908   8.043
  123POPC   C4A 5202  38.446  44.028   7.743
  123POPC   C1B 5203  38.261  43.921   8.730
  123POPC   C2B 5204  38.334  43.687   8.348
  123POPC   C3B 5205  38.102  43.727   7.975
  123POPC   C4B 5206  38.009  43.531   7.587
  124POPC   NC3 5207   9.863   6.334   9.483
  124POPC   PO4 5208   9.952   6.954   9.641
  124POPC   GL1 5209   9.718   6.772   9.207
  124POPC   GL2 5210   9.487   6.432   9.162
  124POPC   C1A 5211   9.830   6.721   8.726
  124POPC   D2A 5212   9.834   6.807   8.249
  124POPC   C3A 5213   9.825   6.570   7.848
  124POPC   C4A 5214  10.139   6.438   7.526
  124POPC   C1B 5215   9.331   6.634   8.812
  124POPC   C2B 5216   9.376   6.845   8.462
  124POPC   C3B 5217   9.364   6.678   8.070
  124POPC   C4B 5218   9.368   6.827   7.689
  125POPC   NC3 5219  20.480   4.562   9.635
  125POPC   PO4 5220  21.058   4.245   9.829
  125POPC   GL1 5221  20.775   4.184   9.385
  125POPC   GL2 5222  20.808   4.491   9.245
  125POPC   C1A 5223  20.757   4.074   8.881
  125POPC   D2A 5224  20.721   3.966   8.386
  125POPC   C3A 5225  20.305   4.028   8.094
  125POPC   C4A 5226  20.290   4.336   7.727
  125POPC   C1B 5227  20.933   4.623   8.830
  125POPC   C2B 5228  20.929   4.499   8.420
  125POPC   C3B 5229  20.649   4.403   8.115
  125POPC   C4B 5230  20.735   4.072   7.811
  126POPC   NC3 5231  34.727  29.654   9.486
  126POPC   PO4 5232  34.403  30.206   9.403
  126POPC   GL1 5233  34.508  30.073   9.005
  126POPC   GL2 5234  34.668  29.763   8.989
  126POPC   C1A 5235  34.522  30.009   8.559
  126POPC   D2A 5236  34.448  29.595   8.333
  126POPC   C3A 5237  34.308  29.671   7.941
  126POPC   C4A 5238  34.453  30.053   7.823
  126POPC   C1B 5239  34.878  29.643   8.602
  126POPC   C2B 5240  34.908  29.886   8.233
  126POPC   C3B 5241  34.850  29.703   7.846
  126POPC   C4B 5242  34.968  29.805   7.425
  127POPC   NC3 5243  39.157   7.875   9.536
  127POPC   PO4 5244  39.569   8.416   9.619
  127POPC   GL1 5245  39.486   8.266   9.186
  127POPC   GL2 5246  39.355   7.913   9.050
  127POPC   C1A 5247  39.327   8.351   8.772
  127POPC   D2A 5248  39.288   8.188   8.348
  127POPC   C3A 5249  39.100   8.470   8.021
  127POPC   C4A 5250  38.998   8.483   7.581
  127POPC   C1B 5251  39.063   7.692   8.787
  127POPC   C2B 5252  38.901   7.775   8.373
  127POPC   C3B 5253  38.972   7.971   7.991
  127POPC   C4B 5254  39.364   8.062   7.835
  128POPC   NC3 5255  11.767   6.180   9.511
  128POPC   PO4 5256  11.944   5.491   9.489
  128POPC   GL1 5257  11.953   5.761   9.099
  128POPC   GL2 5258  11.898   6.114   9.015
  128POPC   C1A 5259  12.104   5.794   8.686
  128POPC   D2A 5260  12.172   5.919   8.308
  128POPC   C3A 5261  12.255   5.636   7.935
  128POPC   C4A 5262  12.135   5.494   7.488
  128POPC   C1B 5263  12.297   6.260   8.742
  128POPC   C2B 5264  12.521   6.308   8.319
  128POPC   C3B 5265  12.345   6.165   7.915
  128POPC   C4B 5266  11.885   6.032   7.900
  129POPC   NC3 5267  34.021  12.113   9.435
  129POPC   PO4 5268  33.402  12.110   9.635
  129POPC   GL1 5269  33.573  11.937   9.190
  129POPC   GL2 5270  33.830  11.672   9.181
  129POPC   C1A 5271  33.900  12.012   8.785
  129POPC   D2A 5272  34.090  12.050   8.333
  129POPC   C3A 5273  33.826  12.220   8.003
  129POPC   C4A 5274  33.453  12.154   7.776
  129POPC   C1B 5275  33.581  11.632   8.741
  129POPC   C2B 5276  33.596  11.773   8.230
  129POPC   C3B 5277  33.750  11.753   7.763
  129POPC   C4B 5278  33.505  11.847   7.362
  130POPC   NC3 5279  16.673   8.847   9.485
  130POPC   PO4 5280  17.151   9.315   9.358
  130POPC   GL1 5281  16.919   9.097   9.052
  130POPC   GL2 5282  17.029   8.770   9.108
  130POPC   C1A 5283  16.557   9.217   8.771
  130POPC   D2A 5284  16.333   9.354   8.384
  130POPC   C3A 5285  16.423   9.141   7.989
  130POPC   C4A 5286  16.582   8.774   7.743
  130POPC   C1B 5287  16.707   8.716   8.761
  130POPC   C2B 5288  16.691   8.857   8.328
  130POPC   C3B 5289  16.938   9.045   7.992
  130POPC   C4B 5290  17.078   8.904   7.588
  131POPC   NC3 5291   9.890  20.008   9.390
  131POPC   PO4 5292   9.388  19.490   9.357
  131POPC   GL1 5293   9.583  19.762   9.035
  131POPC   GL2 5294   9.567  20.153   9.003
  131POPC   C1A 5295   9.818  19.782   8.654
  131POPC   D2A 5296   9.959  19.538   8.303
  131POPC   C3A 5297   9.968  19.788   7.941
  131POPC   C4A 5298   9.705  20.118   7.984
  131POPC   C1B 5299   9.975  20.261   8.760
  131POPC   C2B 5300  10.060  20.136   8.344
  131POPC   C3B 5301  10.162  20.296   7.953
  131POPC   C4B 5302   9.993  20.162   7.554
  132POPC   NC3 5303  42.630  29.418   9.460
  132POPC   PO4 5304  42.264  30.072   9.543
  132POPC   GL1 5305  42.290  30.006   9.166
  132POPC   GL2 5306  42.245  29.667   9.188
  132POPC   C1A 5307  42.368  30.096   8.764
  132POPC   D2A 5308  42.160  30.160   8.371
  132POPC   C3A 5309  42.344  30.074   7.964
  132POPC   C4A 5310  42.722  29.970   7.691
  132POPC   C1B 5311  42.081  29.672   8.778
  132POPC   C2B 5312  42.369  29.677   8.431
  132POPC   C3B 5313  42.372  29.547   7.997
  132POPC   C4B 5314  41.955  29.407   7.858
  133POPC   NC3 5315   7.166   2.579   9.467
  133POPC   PO4 5316   7.641   3.081   9.458
  133POPC   GL1 5317   7.570   2.712   9.157
  133POPC   GL2 5318   7.279   2.629   8.981
  133POPC   C1A 5319   7.684   2.440   8.810
  133POPC   D2A 5320   7.463   2.639   8.449
  133POPC   C3A 5321   7.697   2.699   8.059
  133POPC   C4A 5322   7.630   2.822   7.630
  133POPC   C1B 5323   7.303   3.028   8.825
  133POPC   C2B 5324   7.105   3.188   8.475
  133POPC   C3B 5325   7.145   2.935   8.115
  133POPC   C4B 5326   7.157   3.013   7.657
  134POPC   NC3 5327  39.580  44.224   9.389
  134POPC   PO4 5328  40.118  43.818   9.474
  134POPC   GL1 5329  40.075  44.045   9.092
  134POPC   GL2 5330  40.378  44.218   9.021
  134POPC   C1A 5331  39.874  43.887   8.707
  134POPC   D2A 5332  39.629  43.754   8.350
  134POPC   C3A 5333  39.818  43.637   7.954
  134POPC   C4A 5334  40.015  43.696   7.535
  134POPC   C1B 5335  40.148  44.303   8.623
  134POPC   C2B 5336  40.038  44.297   8.180
  134POPC   C3B 5337  39.908  44.115   7.808
  134POPC   C4B 5338  40.095  44.171   7.393
  135POPC   NC3 5339   5.937  12.176   9.928
  135POPC   PO4 5340   5.656  11.813   9.435
  135POPC   GL1 5341   5.731  12.119   9.121
  135POPC   GL2 5342   6.093  12.179   9.155
  135POPC   C1A 5343   5.542  12.144   8.712
  135POPC   D2A 5344   5.599  12.358   8.296
  135POPC   C3A 5345   5.488  12.144   7.925
  135POPC   C4A 5346   5.601  11.999   7.513
  135POPC   C1B 5347   6.019  12.344   8.747
  135POPC   C2B 5348   6.159  12.441   8.332
  135POPC   C3B 5349   6.017  12.322   7.955
  135POPC   C4B 5350   5.953  11.911   7.876
  136POPC   NC3 5351  32.973   8.947   9.630
  136POPC   PO4 5352  33.402   9.335   9.410
  136POPC   GL1 5353  33.175   9.052   9.155
  136POPC   GL2 5354  32.809   9.053   9.160
  136POPC   C1A 5355  33.170   8.990   8.735
  136POPC   D2A 5356  32.985   9.121   8.372
  136POPC   C3A 5357  33.150   9.275   7.999
  136POPC   C4A 5358  33.312   9.059   7.631
  136POPC   C1B 5359  32.660   9.039   8.752
  136POPC   C2B 5360  32.494   9.166   8.335
  136POPC   C3B 5361  32.709   8.991   7.956
  136POPC   C4B 5362  32.598   8.713   7.626
  137POPC   NC3 5363  22.935   6.228   9.584
  137POPC   PO4 5364  22.377   6.579   9.583
  137POPC   GL1 5365  22.677   6.633   9.226
  137POPC   GL2 5366  22.811   6.404   9.013
  137POPC   C1A 5367  22.759   6.860   8.800
  137POPC   D2A 5368  22.718   6.749   8.364
  137POPC   C3A 5369  22.694   7.058   8.010
  137POPC   C4A 5370  22.745   6.926   7.572
  137POPC   C1B 5371  23.131   6.508   8.702
  137POPC   C2B 5372  23.227   6.695   8.330
  137POPC   C3B 5373  23.032   6.657   7.959
  137POPC   C4B 5374  23.282   6.806   7.653
  138POPC   NC3 5375  25.938  36.579   9.444
  138POPC   PO4 5376  25.838  35.798   9.547
  138POPC   GL1 5377  25.962  35.902   9.140
  138POPC   GL2 5378  26.153  36.210   9.116
  138POPC   C1A 5379  26.180  35.834   8.757
  138POPC   D2A 5380  26.196  36.104   8.374
  138POPC   C3A 5381  25.926  36.003   8.023
  138POPC   C4A 5382  26.108  35.714   7.776
  138POPC   C1B 5383  26.171  36.585   8.831
  138POPC   C2B 5384  25.924  36.561   8.450
  138POPC   C3B 5385  26.108  36.491   8.034
  138POPC   C4B 5386  26.217  36.501   7.591
  139POPC   NC3 5387  10.017  38.720   9.473
  139POPC   PO4 5388   9.495  39.201   9.366
  139POPC   GL1 5389   9.755  39.146   9.029
  139POPC   GL2 5390  10.090  39.128   9.167
  139POPC   C1A 5391   9.724  39.277   8.603
  139POPC   D2A 5392   9.728  39.636   8.327
  139POPC   C3A 5393   9.787  39.546   7.876
  139POPC   C4A 5394   9.568  39.586   7.420
  139POPC   C1B 5395  10.113  38.846   8.820
  139POPC   C2B 5396   9.952  38.859   8.438
  139POPC   C3B 5397   9.757  39.051   8.116
  139POPC   C4B 5398   9.893  39.073   7.739
  140POPC   NC3 5399  10.464   7.128   9.567
  140POPC   PO4 5400  10.808   6.580   9.520
  140POPC   GL1 5401  10.570   6.631   9.162
  140POPC   GL2 5402  10.235   6.700   9.292
  140POPC   C1A 5403  10.285   6.465   8.831
  140POPC   D2A 5404  10.093   6.371   8.421
  140POPC   C3A 5405  10.283   6.573   8.078
  140POPC   C4A 5406  10.588   6.539   7.762
  140POPC   C1B 5407  10.248   6.970   8.922
  140POPC   C2B 5408  10.287   6.921   8.479
  140POPC   C3B 5409  10.194   7.108   8.078
  140POPC   C4B 5410  10.190   6.923   7.706
  141POPC   NC3 5411  43.304   4.890   9.356
  141POPC   PO4 5412  43.114   4.178   9.463
  141POPC   GL1 5413  43.212   4.338   9.097
  141POPC   GL2 5414  43.522   4.489   9.091
  141POPC   C1A 5415  43.066   4.621   8.792
  141POPC   D2A 5416  42.884   4.619   8.389
  141POPC   C3A 5417  43.063   4.443   8.023
  141POPC   C4A 5418  43.201   4.554   7.609
  141POPC   C1B 5419  43.488   4.348   8.658
  141POPC   C2B 5420  43.424   4.170   8.254
  141POPC   C3B 5421  43.590   4.252   7.833
  141POPC   C4B 5422  43.490   4.187   7.389
  142POPC   NC3 5423  35.292  25.937   9.566
  142POPC   PO4 5424  35.393  26.491   9.424
  142POPC   GL1 5425  35.180  26.235   9.129
  142POPC   GL2 5426  35.036  25.864   9.134
  142POPC   C1A 5427  35.323  26.259   8.703
  142POPC   D2A 5428  35.183  26.077   8.339
  142POPC   C3A 5429  35.496  26.038   7.997
  142POPC   C4A 5430  35.726  26.387   7.823
  142POPC   C1B 5431  35.217  25.765   8.755
  142POPC   C2B 5432  35.360  25.606   8.354
  142POPC   C3B 5433  35.189  25.637   7.938
  142POPC   C4B 5434  35.241  25.737   7.509
  143POPC   NC3 5435  35.445  40.317   9.499
  143POPC   PO4 5436  34.984  40.767   9.421
  143POPC   GL1 5437  35.309  40.769   9.113
  143POPC   GL2 5438  35.612  40.777   9.304
  143POPC   C1A 5439  35.331  40.660   8.669
  143POPC   D2A 5440  35.406  40.429   8.302
  143POPC   C3A 5441  35.352  40.806   8.023
  143POPC   C4A 5442  35.124  40.952   7.638
  143POPC   C1B 5443  35.759  40.623   8.910
  143POPC   C2B 5444  35.828  40.726   8.464
  143POPC   C3B 5445  35.810  40.565   8.031
  143POPC   C4B 5446  35.509  40.386   7.783
  144POPC   NC3 5447  38.242  27.260   9.605
  144POPC   PO4 5448  38.680  27.777   9.685
  144POPC   GL1 5449  38.559  27.631   9.257
  144POPC   GL2 5450  38.188  27.567   9.198
  144POPC   C1A 5451  38.592  27.564   8.786
  144POPC   D2A 5452  38.784  27.371   8.390
  144POPC   C3A 5453  38.532  27.464   8.030
  144POPC   C4A 5454  38.435  27.892   7.816
  144POPC   C1B 5455  38.114  27.299   8.846
  144POPC   C2B 5456  38.133  27.405   8.419
  144POPC   C3B 5457  38.056  27.606   8.029
  144POPC   C4B 5458  38.195  27.472   7.606
  145POPC   NC3 5459  22.496  19.928   9.412
  145POPC   PO4 5460  23.178  19.657   9.432
  145POPC   GL1 5461  22.894  19.566   9.116
  145POPC   GL2 5462  22.854  19.902   9.016
  145POPC   C1A 5463  22.696  19.482   8.705
  145POPC   D2A 5464  22.597  19.651   8.286
  145POPC   C3A 5465  22.729  19.392   7.939
  145POPC   C4A 5466  22.953  19.587   7.610
  145POPC   C1B 5467  22.941  19.966   8.570
  145POPC   C2B 5468  22.733  20.187   8.204
  145POPC   C3B 5469  22.803  20.111   7.754
  145POPC   C4B 5470  23.189  20.042   7.560
  146POPC   NC3 5471  36.116  22.056   9.757
  146POPC   PO4 5472  36.431  21.878   9.227
  146POPC   GL1 5473  36.261  22.114   8.968
  146POPC   GL2 5474  36.101  22.340   9.198
  146POPC   C1A 5475  36.102  21.884   8.631
  146POPC   D2A 5476  35.959  21.690   8.290
  146POPC   C3A 5477  36.169  21.956   8.022
  146POPC   C4A 5478  36.111  22.169   7.680
  146POPC   C1B 5479  35.839  22.303   8.776
  146POPC   C2B 5480  35.784  22.179   8.347
  146POPC   C3B 5481  35.715  22.300   7.942
  146POPC   C4B 5482  35.825  22.558   7.564
  147POPC   NC3 5483  24.452  25.453   9.486
  147POPC   PO4 5484  24.847  24.895   9.547
  147POPC   GL1 5485  24.466  24.983   9.207
  147POPC   GL2 5486  24.321  25.336   9.031
  147POPC   C1A 5487  24.551  25.009   8.752
  147POPC   D2A 5488  24.551  25.338   8.429
  147POPC   C3A 5489  24.493  25.111   8.080
  147POPC   C4A 5490  24.483  25.316   7.716
  147POPC   C1B 5491  24.103  25.292   8.639
  147POPC   C2B 5492  24.092  25.395   8.201
  147POPC   C3B 5493  24.025  25.510   7.758
  147POPC   C4B 5494  24.145  25.443   7.315
  148POPC   NC3 5495  23.922   1.269   9.489
  148POPC   PO4 5496  24.606   1.342   9.537
  148POPC   GL1 5497  24.645   1.195   9.159
  148POPC   GL2 5498  24.310   1.068   9.156
  148POPC   C1A 5499  24.788   1.364   8.803
  148POPC   D2A 5500  24.651   1.557   8.451
  148POPC   C3A 5501  24.778   1.377   8.093
  148POPC   C4A 5502  24.629   1.223   7.696
  148POPC   C1B 5503  24.271   1.286   8.746
  148POPC   C2B 5504  24.139   1.435   8.321
  148POPC   C3B 5505  24.179   1.483   7.849
  148POPC   C4B 5506  24.067   1.619   7.432
  149POPC   NC3 5507  10.602  40.187   9.537
  149POPC   PO4 5508  10.333  39.523   9.504
  149POPC   GL1 5509  10.378  39.865   9.208
  149POPC   GL2 5510  10.743  39.852   9.161
  149POPC   C1A 5511  10.440  39.867   8.754
  149POPC   D2A 5512  10.185  39.825   8.420
  149POPC   C3A 5513  10.365  39.903   8.048
  149POPC   C4A 5514  10.721  39.734   7.843
  149POPC   C1B 5515  10.904  40.114   8.823
  149POPC   C2B 5516  10.813  39.993   8.369
  149POPC   C3B 5517  10.745  40.255   7.992
  149POPC   C4B 5518  10.621  40.257   7.578
  150POPC   NC3 5519  36.867  37.829   9.701
  150POPC   PO4 5520  36.586  37.338   9.286
  150POPC   GL1 5521  36.871  37.598   9.124
  150POPC   GL2 5522  36.920  37.949   9.211
  150POPC   C1A 5523  36.884  37.716   8.717
  150POPC   D2A 5524  36.874  37.965   8.376
  150POPC   C3A 5525  37.023  37.750   8.062
  150POPC   C4A 5526  36.826  37.604   7.717
  150POPC   C1B 5527  37.220  38.056   8.876
  150POPC   C2B 5528  37.358  37.896   8.458
  150POPC   C3B 5529  37.444  38.073   8.066
  150POPC   C4B 5530  37.227  38.059   7.698
  151POPC   NC3 5531  14.676  17.068   9.533
  151POPC   PO4 5532  15.386  16.920   9.519
  151POPC   GL1 5533  15.211  16.753   9.138
  151POPC   GL2 5534  14.891  16.638   9.204
  151POPC   C1A 5535  15.075  16.580   8.715
  151POPC   D2A 5536  14.973  16.566   8.265
  151POPC   C3A 5537  15.312  16.662   7.997
  151POPC   C4A 5538  15.376  16.758   7.573
  151POPC   C1B 5539  14.813  16.994   8.891
  151POPC   C2B 5540  14.940  17.228   8.547
  151POPC   C3B 5541  15.052  17.071   8.159
  151POPC   C4B 5542  14.992  17.062   7.728
  152POPC   NC3 5543  26.147  15.746   9.474
  152POPC   PO4 5544  26.179  16.347   9.199
  152POPC   GL1 5545  25.897  16.018   9.028
  152POPC   GL2 5546  25.708  15.736   9.196
  152POPC   C1A 5547  25.960  15.796   8.615
  152POPC   D2A 5548  26.268  15.634   8.297
  152POPC   C3A 5549  26.248  15.909   7.930
  152POPC   C4A 5550  25.916  16.155   7.700
  152POPC   C1B 5551  25.586  15.496   8.820
  152POPC   C2B 5552  25.526  15.611   8.385
  152POPC   C3B 5553  25.773  15.814   8.091
  152POPC   C4B 5554  25.911  15.622   7.682
  153POPC   NC3 5555  25.300  38.137   9.660
  153POPC   PO4 5556  25.112  38.734   9.344
  153POPC   GL1 5557  25.455  38.627   9.092
  153POPC   GL2 5558  25.546  38.330   9.246
  153POPC   C1A 5559  25.389  38.562   8.642
  153POPC   D2A 5560  25.460  38.605   8.215
  153POPC   C3A 5561  25.059  38.605   8.041
  153POPC   C4A 5562  24.911  38.771   7.674
  153POPC   C1B 5563  25.699  38.214   8.831
  153POPC   C2B 5564  25.691  38.043   8.396
  153POPC   C3B 5565  25.571  38.162   7.947
  153POPC   C4B 5566  25.411  38.537   7.688
  154POPC   NC3 5567  24.318  17.991   9.331
  154POPC   PO4 5568  24.531  18.588   9.463
  154POPC   GL1 5569  24.541  18.406   9.103
  154POPC   GL2 5570  24.193  18.420   9.045
  154POPC   C1A 5571  24.641  18.231   8.720
  154POPC   D2A 5572  24.855  18.229   8.340
  154POPC   C3A 5573  24.695  18.060   7.891
  154POPC   C4A 5574  24.780  18.132   7.386
  154POPC   C1B 5575  24.092  18.360   8.621
  154POPC   C2B 5576  24.357  18.247   8.288
  154POPC   C3B 5577  24.561  18.537   8.034
  154POPC   C4B 5578  24.115  18.523   7.891
  155POPC   NC3 5579  24.921  24.403   9.504
  155POPC   PO4 5580  25.531  24.709   9.541
  155POPC   GL1 5581  25.337  24.548   9.200
  155POPC   GL2 5582  25.039  24.727   9.089
  155POPC   C1A 5583  25.432  24.583   8.782
  155POPC   D2A 5584  25.490  24.353   8.421
  155POPC   C3A 5585  25.557  24.570   8.041
  155POPC   C4A 5586  25.454  24.431   7.639
  155POPC   C1B 5587  25.006  24.293   8.869
  155POPC   C2B 5588  25.007  24.144   8.436
  155POPC   C3B 5589  25.082  24.364   8.046
  155POPC   C4B 5590  25.054  24.716   7.763
  156POPC   NC3 5591  30.245  37.225   9.543
  156POPC   PO4 5592  29.786  36.758   9.521
  156POPC   GL1 5593  30.130  36.766   9.273
  156POPC   GL2 5594  30.028  37.037   9.095
  156POPC   C1A 5595  30.163  36.621   8.833
  156POPC   D2A 5596  30.161  36.807   8.439
  156POPC   C3A 5597  30.000  36.648   8.082
  156POPC   C4A 5598  30.198  36.719   7.736
  156POPC   C1B 5599  29.883  37.158   8.671
  156POPC   C2B 5600  29.912  37.157   8.182
  156POPC   C3B 5601  29.937  37.168   7.733
  156POPC   C4B 5602  30.047  37.490   7.381
  157POPC   NC3 5603  18.017  15.765   9.539
  157POPC   PO4 5604  18.443  16.315   9.470
  157POPC   GL1 5605  18.287  16.050   9.139
  157POPC   GL2 5606  17.939  16.015   9.106
  157POPC   C1A 5607  18.426  16.157   8.718
  157POPC   D2A 5608  18.728  16.106   8.378
  157POPC   C3A 5609  18.528  16.210   8.005
  157POPC   C4A 5610  18.491  16.059   7.579
  157POPC   C1B 5611  17.913  16.131   8.693
  157POPC   C2B 5612  18.098  16.271   8.316
  157POPC   C3B 5613  18.039  16.161   7.876
  157POPC   C4B 5614  18.015  15.759   7.708
  158POPC   NC3 5615  16.537   4.335   9.579
  158POPC   PO4 5616  17.176   4.280   9.346
  158POPC   GL1 5617  16.780   4.101   9.151
  158POPC   GL2 5618  16.383   4.095   9.162
  158POPC   C1A 5619  16.842   4.307   8.763
  158POPC   D2A 5620  16.939   4.160   8.379
  158POPC   C3A 5621  17.033   4.414   8.063
  158POPC   C4A 5622  17.094   4.371   7.654
  158POPC   C1B 5623  16.435   4.001   8.721
  158POPC   C2B 5624  16.458   4.120   8.279
  158POPC   C3B 5625  16.710   4.028   7.926
  158POPC   C4B 5626  16.604   4.406   7.788
  159POPC   NC3 5627  10.705  18.531   9.540
  159POPC   PO4 5628  10.682  17.978   9.275
  159POPC   GL1 5629  10.312  18.192   9.154
  159POPC   GL2 5630  10.342  18.517   9.187
  159POPC   C1A 5631  10.216  18.053   8.777
  159POPC   D2A 5632  10.215  18.240   8.398
  159POPC   C3A 5633  10.296  18.091   7.999
  159POPC   C4A 5634  10.614  18.095   7.703
  159POPC   C1B 5635  10.498  18.710   8.835
  159POPC   C2B 5636  10.432  18.713   8.425
  159POPC   C3B 5637  10.635  18.690   8.058
  159POPC   C4B 5638  10.577  18.580   7.651
  160POPC   NC3 5639  24.525  37.533   9.619
  160POPC   PO4 5640  24.609  38.037   9.188
  160POPC   GL1 5641  24.373  37.692   9.122
  160POPC   GL2 5642  24.538  37.422   9.125
  160POPC   C1A 5643  24.196  37.616   8.757
  160POPC   D2A 5644  24.374  37.628   8.396
  160POPC   C3A 5645  24.295  37.922   8.108
  160POPC   C4A 5646  24.278  37.775   7.719
  160POPC   C1B 5647  24.735  37.548   8.752
  160POPC   C2B 5648  24.864  37.782   8.401
  160POPC   C3B 5649  24.747  37.682   8.001
  160POPC   C4B 5650  24.756  37.737   7.588
  161POPC   NC3 5651   6.484  18.701   9.664
  161POPC   PO4 5652   7.004  18.931   9.261
  161POPC   GL1 5653   6.737  19.171   9.037
  161POPC   GL2 5654   6.743  19.552   9.095
  161POPC   C1A 5655   6.652  18.990   8.622
  161POPC   D2A 5656   6.491  19.157   8.251
  161POPC   C3A 5657   6.435  18.907   7.925
  161POPC   C4A 5658   6.820  18.863   7.776
  161POPC   C1B 5659   6.908  19.498   8.662
  161POPC   C2B 5660   6.940  19.435   8.200
  161POPC   C3B 5661   6.699  19.358   7.800
  161POPC   C4B 5662   6.595  19.480   7.382
  162POPC   NC3 5663  16.831  28.526   9.505
  162POPC   PO4 5664  17.115  27.972   9.305
  162POPC   GL1 5665  16.757  28.255   9.084
  162POPC   GL2 5666  16.734  28.669   9.034
  162POPC   C1A 5667  16.578  28.342   8.670
  162POPC   D2A 5668  16.873  28.402   8.348
  162POPC   C3A 5669  16.825  28.171   7.960
  162POPC   C4A 5670  16.420  28.098   7.785
  162POPC   C1B 5671  16.961  28.906   8.685
  162POPC   C2B 5672  16.923  28.889   8.216
  162POPC   C3B 5673  16.617  28.641   7.978
  162POPC   C4B 5674  16.572  28.540   7.558
  163POPC   NC3 5675   1.568  28.736   9.345
  163POPC   PO4 5676   2.121  28.364   9.485
  163POPC   GL1 5677   1.952  28.250   9.085
  163POPC   GL2 5678   1.569  28.238   9.121
  163POPC   C1A 5679   2.120  28.000   8.692
  163POPC   D2A 5680   2.434  28.087   8.334
  163POPC   C3A 5681   2.257  28.339   8.014
  163POPC   C4A 5682   1.900  28.181   7.856
  163POPC   C1B 5683   1.685  28.438   8.700
  163POPC   C2B 5684   1.815  28.541   8.263
  163POPC   C3B 5685   1.874  28.698   7.841
  163POPC   C4B 5686   1.948  28.576   7.381
  164POPC   NC3 5687  11.246   6.672   9.594
  164POPC   PO4 5688  11.765   7.047   9.499
  164POPC   GL1 5689  11.544   6.669   9.199
  164POPC   GL2 5690  11.133   6.710   9.110
  164POPC   C1A 5691  11.411   6.430   8.805
  164POPC   D2A 5692  11.424   6.652   8.415
  164POPC   C3A 5693  11.556   6.524   8.014
  164POPC   C4A 5694  11.337   6.625   7.640
  164POPC   C1B 5695  10.911   6.365   8.856
  164POPC   C2B 5696  11.065   6.222   8.455
  164POPC   C3B 5697  11.032   6.416   8.042
  164POPC   C4B 5698  10.980   6.240   7.634
  165POPC   NC3 5699   4.289  44.654   9.636
  165POPC   PO4 5700   4.541  44.092   9.463
  165POPC   GL1 5701   4.325  44.420   9.140
  165POPC   GL2 5702   4.212  44.790   9.128
  165POPC   C1A 5703   4.137  44.484   8.742
  165POPC   D2A 5704   4.404  44.482   8.432
  165POPC   C3A 5705   4.240  44.604   8.063
  165POPC   C4A 5706   4.354  44.421   7.687
  165POPC   C1B 5707   4.569  44.863   8.775
  165POPC   C2B 5708   4.723  44.900   8.311
  165POPC   C3B 5709   4.642  44.834   7.850
  165POPC   C4B 5710   4.281  44.920   7.577
  166POPC   NC3 5711  21.058  17.575   9.603
  166POPC   PO4 5712  20.407  17.538   9.539
  166POPC   GL1 5713  20.484  17.343   9.143
  166POPC   GL2 5714  20.778  17.167   9.097
  166POPC   C1A 5715  20.583  17.542   8.756
  166POPC   D2A 5716  20.321  17.732   8.477
  166POPC   C3A 5717  20.509  17.790   8.159
  166POPC   C4A 5718  20.548  17.767   7.780
  166POPC   C1B 5719  20.662  17.046   8.700
  166POPC   C2B 5720  20.658  17.229   8.313
  166POPC   C3B 5721  20.482  17.282   7.937
  166POPC   C4B 5722  20.701  17.306   7.543
  167POPC   NC3 5723  35.523  31.922   9.473
  167POPC   PO4 5724  35.669  32.590   9.471
  167POPC   GL1 5725  35.529  32.371   9.134
  167POPC   GL2 5726  35.198  32.163   9.151
  167POPC   C1A 5727  35.325  32.479   8.761
  167POPC   D2A 5728  35.306  32.244   8.391
  167POPC   C3A 5729  35.304  32.508   8.072
  167POPC   C4A 5730  35.586  32.440   7.771
  167POPC   C1B 5731  35.447  31.969   8.814
  167POPC   C2B 5732  35.647  31.850   8.408
  167POPC   C3B 5733  35.464  31.945   7.980
  167POPC   C4B 5734  35.240  31.741   7.626
  168POPC   NC3 5735  19.179  34.235   9.608
  168POPC   PO4 5736  19.080  33.562   9.610
  168POPC   GL1 5737  19.248  33.633   9.223
  168POPC   GL2 5738  19.254  33.971   9.192
  168POPC   C1A 5739  19.315  33.689   8.791
  168POPC   D2A 5740  19.361  33.862   8.424
  168POPC   C3A 5741  19.278  33.654   7.996
  168POPC   C4A 5742  19.131  33.665   7.525
  168POPC   C1B 5743  19.157  34.194   8.809
  168POPC   C2B 5744  18.982  34.214   8.416
  168POPC   C3B 5745  19.108  34.142   8.023
  168POPC   C4B 5746  18.919  34.130   7.622
  169POPC   NC3 5747  21.567   9.364   9.634
  169POPC   PO4 5748  21.292   8.794   9.660
  169POPC   GL1 5749  21.148   9.029   9.273
  169POPC   GL2 5750  21.424   8.951   9.085
  169POPC   C1A 5751  21.169   9.299   8.838
  169POPC   D2A 5752  21.424   9.427   8.429
  169POPC   C3A 5753  21.367   9.245   7.994
  169POPC   C4A 5754  21.334   9.521   7.625
  169POPC   C1B 5755  21.104   8.790   8.786
  169POPC   C2B 5756  20.972   8.745   8.376
  169POPC   C3B 5757  21.040   8.702   7.941
  169POPC   C4B 5758  21.154   8.726   7.490
  170POPC   NC3 5759  40.513  15.970   9.531
  170POPC   PO4 5760  41.147  16.158   9.479
  170POPC   GL1 5761  40.834  16.033   9.149
  170POPC   GL2 5762  40.703  15.668   9.170
  170POPC   C1A 5763  40.518  16.099   8.809
  170POPC   D2A 5764  40.562  15.897   8.396
  170POPC   C3A 5765  40.495  16.174   8.082
  170POPC   C4A 5766  40.754  16.263   7.735
  170POPC   C1B 5767  40.879  15.711   8.763
  170POPC   C2B 5768  41.087  15.781   8.393
  170POPC   C3B 5769  40.898  15.789   7.989
  170POPC   C4B 5770  41.144  15.859   7.605
  171POPC   NC3 5771  34.849  25.217   9.516
  171POPC   PO4 5772  34.230  25.134   9.689
  171POPC   GL1 5773  34.575  24.944   9.212
  171POPC   GL2 5774  34.743  25.275   9.043
  171POPC   C1A 5775  34.679  24.923   8.722
  171POPC   D2A 5776  34.585  25.222   8.384
  171POPC   C3A 5777  34.645  25.043   7.962
  171POPC   C4A 5778  34.345  24.752   7.835
  171POPC   C1B 5779  34.700  25.660   8.803
  171POPC   C2B 5780  34.821  25.723   8.395
  171POPC   C3B 5781  34.703  25.552   8.014
  171POPC   C4B 5782  34.833  25.410   7.605
  172POPC   NC3 5783  18.897  24.614   9.512
  172POPC   PO4 5784  19.062  23.977   9.387
  172POPC   GL1 5785  19.068  24.376   9.078
  172POPC   GL2 5786  18.907  24.750   9.015
  172POPC   C1A 5787  18.989  24.380   8.628
  172POPC   D2A 5788  18.705  24.439   8.290
  172POPC   C3A 5789  18.932  24.571   7.931
  172POPC   C4A 5790  19.044  24.245   7.643
  172POPC   C1B 5791  19.285  24.786   8.744
  172POPC   C2B 5792  19.340  24.842   8.288
  172POPC   C3B 5793  19.316  24.885   7.819
  172POPC   C4B 5794  19.307  24.628   7.416
  173POPC   NC3 5795   6.364  36.433   9.742
  173POPC   PO4 5796   5.845  36.041   9.510
  173POPC   GL1 5797   5.640  36.224   9.162
  173POPC   GL2 5798   5.947  36.240   9.042
  173POPC   C1A 5799   5.619  36.012   8.757
  173POPC   D2A 5800   5.953  35.916   8.521
  173POPC   C3A 5801   5.752  35.999   8.179
  173POPC   C4A 5802   5.684  36.000   7.789
  173POPC   C1B 5803   5.807  36.501   8.737
  173POPC   C2B 5804   5.564  36.436   8.406
  173POPC   C3B 5805   5.683  36.479   7.980
  173POPC   C4B 5806   6.016  36.368   7.678
  174POPC   NC3 5807  44.339  25.308   9.416
  174POPC   PO4 5808  43.720  25.101   9.424
  174POPC   GL1 5809  43.902  25.327   9.097
  174POPC   GL2 5810  44.108  25.036   9.010
  174POPC   C1A 5811  43.838  25.305   8.658
  174POPC   D2A 5812  43.725  24.989   8.387
  174POPC   C3A 5813  43.933  25.101   8.031
  174POPC   C4A 5814  43.843  25.249   7.626
  174POPC   C1B 5815  44.227  24.960   8.539
  174POPC   C2B 5816  44.144  24.668   8.182
  174POPC   C3B 5817  44.309  24.827   7.781
  174POPC   C4B 5818  44.149  24.907   7.354
  175POPC   NC3 5819  38.708   7.086   9.625
  175POPC   PO4 5820  38.331   6.532   9.518
  175POPC   GL1 5821  38.391   6.509   9.106
  175POPC   GL2 5822  38.447   6.209   8.975
  175POPC   C1A 5823  38.571   6.685   8.735
  175POPC   D2A 5824  38.475   6.599   8.314
  175POPC   C3A 5825  38.652   6.808   7.946
  175POPC   C4A 5826  38.636   6.668   7.530
  175POPC   C1B 5827  38.139   6.383   8.668
  175POPC   C2B 5828  38.020   6.333   8.249
  175POPC   C3B 5829  38.309   6.395   7.877
  175POPC   C4B 5830  38.428   6.191   7.494
  176POPC   NC3 5831  28.723  33.537   9.629
  176POPC   PO4 5832  29.370  33.729   9.481
  176POPC   GL1 5833  29.270  33.654   9.116
  176POPC   GL2 5834  28.925  33.693   9.189
  176POPC   C1A 5835  29.352  33.773   8.718
  176POPC   D2A 5836  29.592  33.829   8.391
  176POPC   C3A 5837  29.396  33.758   8.013
  176POPC   C4A 5838  29.176  34.056   7.778
  176POPC   C1B 5839  28.969  34.023   8.911
  176POPC   C2B 5840  28.923  33.939   8.495
  176POPC   C3B 5841  28.817  33.831   8.095
  176POPC   C4B 5842  28.958  33.598   7.771
  177POPC   NC3 5843  10.921  32.353   9.507
  177POPC   PO4 5844  10.360  32.088   9.864
  177POPC   GL1 5845  10.419  32.106   9.358
  177POPC   GL2 5846  10.110  32.109   9.157
  177POPC   C1A 5847  10.578  32.212   8.886
  177POPC   D2A 5848  10.689  32.022   8.453
  177POPC   C3A 5849  10.810  32.329   8.129
  177POPC   C4A 5850  10.741  32.301   7.680
  177POPC   C1B 5851  10.069  32.239   8.726
  177POPC   C2B 5852  10.323  32.380   8.360
  177POPC   C3B 5853  10.292  32.283   7.926
  177POPC   C4B 5854  10.256  32.190   7.485
  178POPC   NC3 5855  36.247  30.715   9.669
  178POPC   PO4 5856  35.577  30.679   9.756
  178POPC   GL1 5857  35.851  30.703   9.297
  178POPC   GL2 5858  36.032  30.396   9.261
  178POPC   C1A 5859  35.755  30.644   8.843
  178POPC   D2A 5860  35.959  30.511   8.476
  178POPC   C3A 5861  35.858  30.703   8.086
  178POPC   C4A 5862  35.997  30.541   7.700
  178POPC   C1B 5863  36.286  30.547   8.906
  178POPC   C2B 5864  36.482  30.445   8.499
  178POPC   C3B 5865  36.350  30.543   8.084
  178POPC   C4B 5866  36.444  30.804   7.719
  179POPC   NC3 5867  19.713  16.106   9.561
  179POPC   PO4 5868  20.223  15.660   9.407
  179POPC   GL1 5869  20.009  15.939   9.143
  179POPC   GL2 5870  19.642  15.995   9.065
  179POPC   C1A 5871  20.090  16.055   8.756
  179POPC   D2A 5872  20.059  15.932   8.370
  179POPC   C3A 5873  19.786  16.120   8.087
  179POPC   C4A 5874  19.889  16.128   7.663
  179POPC   C1B 5875  19.618  15.759   8.675
  179POPC   C2B 5876  19.562  15.662   8.242
  179POPC   C3B 5877  19.581  15.744   7.813
  179POPC   C4B 5878  19.351  16.007   7.520
  180POPC   NC3 5879  13.882  38.682   9.460
  180POPC   PO4 5880  13.336  38.204   9.476
  180POPC   GL1 5881  13.629  38.297   9.199
  180POPC   GL2 5882  13.480  38.576   9.103
  180POPC   C1A 5883  13.795  38.189   8.825
  180POPC   D2A 5884  13.632  38.349   8.470
  180POPC   C3A 5885  13.875  38.444   8.123
  180POPC   C4A 5886  13.730  38.244   7.739
  180POPC   C1B 5887  13.597  38.894   8.824
  180POPC   C2B 5888  13.667  38.847   8.394
  180POPC   C3B 5889  13.673  38.890   7.972
  180POPC   C4B 5890  13.505  38.684   7.645
  181POPC   NC3 5891  39.869  14.219   9.337
  181POPC   PO4 5892  39.425  14.688   9.123
  181POPC   GL1 5893  39.787  14.478   8.909
  181POPC   GL2 5894  40.138  14.541   9.023
  181POPC   C1A 5895  40.059  14.153   8.703
  181POPC   D2A 5896  40.169  14.288   8.312
  181POPC   C3A 5897  39.776  14.369   8.123
  181POPC   C4A 5898  39.732  14.127   7.747
  181POPC   C1B 5899  40.489  14.745   8.798
  181POPC   C2B 5900  40.715  14.750   8.391
  181POPC   C3B 5901  40.553  14.516   8.058
  181POPC   C4B 5902  40.137  14.571   7.842
  182POPC   NC3 5903  19.637  32.349   9.850
  182POPC   PO4 5904  20.226  32.393   9.576
  182POPC   GL1 5905  19.929  32.273   9.213
  182POPC   GL2 5906  19.549  32.148   9.177
  182POPC   C1A 5907  20.020  32.420   8.789
  182POPC   D2A 5908  19.827  32.628   8.436
  182POPC   C3A 5909  19.970  32.380   8.107
  182POPC   C4A 5910  20.069  32.502   7.704
  182POPC   C1B 5911  19.514  32.397   8.807
  182POPC   C2B 5912  19.553  32.203   8.423
  182POPC   C3B 5913  19.472  32.255   8.015
  182POPC   C4B 5914  19.695  32.127   7.706
  183POPC   NC3 5915  26.203  29.154   9.479
  183POPC   PO4 5916  25.683  29.477   9.284
  183POPC   GL1 5917  26.031  29.278   8.992
  183POPC   GL2 5918  26.122  28.909   8.984
  183POPC   C1A 5919  26.073  29.281   8.525
  183POPC   D2A 5920  25.923  29.412   8.089
  183POPC   C3A 5921  26.140  29.395   7.718
  183POPC   C4A 5922  26.082  29.335   7.325
  183POPC   C1B 5923  26.131  28.779   8.525
  183POPC   C2B 5924  26.196  28.972   8.132
  183POPC   C3B 5925  26.175  28.892   7.672
  183POPC   C4B 5926  25.850  28.879   7.376
  184POPC   NC3 5927   9.498   2.380   9.545
  184POPC   PO4 5928  10.077   2.766   9.462
  184POPC   GL1 5929  10.014   2.457   9.174
  184POPC   GL2 5930   9.700   2.588   9.063
  184POPC   C1A 5931  10.053   2.427   8.722
  184POPC   D2A 5932   9.950   2.814   8.445
  184POPC   C3A 5933   9.940   2.783   7.978
  184POPC   C4A 5934   9.614   2.522   7.766
  184POPC   C1B 5935   9.611   2.998   8.800
  184POPC   C2B 5936   9.304   3.051   8.463
  184POPC   C3B 5937   9.525   3.067   8.074
  184POPC   C4B 5938   9.539   3.050   7.649
  185POPC   NC3 5939  20.722   5.399   9.431
  185POPC   PO4 5940  20.844   5.966   9.716
  185POPC   GL1 5941  20.726   5.920   9.214
  185POPC   GL2 5942  20.532   5.633   9.029
  185POPC   C1A 5943  20.578   6.072   8.768
  185POPC   D2A 5944  20.350   6.061   8.366
  185POPC   C3A 5945  20.459   6.214   7.973
  185POPC   C4A 5946  20.493   5.848   7.750
  185POPC   C1B 5947  20.877   5.646   8.825
  185POPC   C2B 5948  20.905   5.772   8.455
  185POPC   C3B 5949  20.713   5.597   8.129
  185POPC   C4B 5950  20.860   5.507   7.740
  186POPC   NC3 5951  25.416   9.989   9.601
  186POPC   PO4 5952  24.944   9.617   9.658
  186POPC   GL1 5953  25.144   9.714   9.231
  186POPC   GL2 5954  25.363   9.989   9.092
  186POPC   C1A 5955  25.297   9.517   8.835
  186POPC   D2A 5956  25.506   9.459   8.434
  186POPC   C3A 5957  25.297   9.421   8.036
  186POPC   C4A 5958  25.292   9.715   7.711
  186POPC   C1B 5959  25.672  10.254   8.836
  186POPC   C2B 5960  25.633  10.186   8.361
  186POPC   C3B 5961  25.365  10.148   7.974
  186POPC   C4B 5962  25.394  10.181   7.485
  187POPC   NC3 5963   6.717   5.890   9.376
  187POPC   PO4 5964   6.124   5.571   9.389
  187POPC   GL1 5965   6.429   5.718   8.990
  187POPC   GL2 5966   6.508   6.098   8.971
  187POPC   C1A 5967   6.840   5.776   8.684
  187POPC   D2A 5968   7.139   5.754   8.349
  187POPC   C3A 5969   6.826   5.721   8.017
  187POPC   C4A 5970   6.643   5.520   7.678
  187POPC   C1B 5971   6.523   6.128   8.551
  187POPC   C2B 5972   6.452   6.238   8.165
  187POPC   C3B 5973   6.585   6.188   7.790
  187POPC   C4B 5974   6.518   6.137   7.388
  188POPC   NC3 5975  32.979  21.516   9.739
  188POPC   PO4 5976  32.952  21.052   9.251
  188POPC   GL1 5977  32.980  21.328   9.002
  188POPC   GL2 5978  33.225  21.541   9.158
  188POPC   C1A 5979  32.792  21.431   8.643
  188POPC   D2A 5980  32.617  21.257   8.306
  188POPC   C3A 5981  32.720  21.580   8.035
  188POPC   C4A 5982  32.823  21.579   7.587
  188POPC   C1B 5983  33.345  21.442   8.694
  188POPC   C2B 5984  33.179  21.588   8.283
  188POPC   C3B 5985  33.227  21.580   7.846
  188POPC   C4B 5986  33.269  21.472   7.372
  189POPC   NC3 5987   7.860  21.586   9.636
  189POPC   PO4 5988   8.410  21.222   9.508
  189POPC   GL1 5989   8.287  21.500   9.186
  189POPC   GL2 5990   8.045  21.266   9.023
  189POPC   C1A 5991   8.232  21.648   8.742
  189POPC   D2A 5992   8.085  21.334   8.436
  189POPC   C3A 5993   8.026  21.426   7.993
  189POPC   C4A 5994   8.197  21.596   7.609
  189POPC   C1B 5995   8.458  21.207   8.776
  189POPC   C2B 5996   8.606  21.383   8.350
  189POPC   C3B 5997   8.530  21.330   7.896
  189POPC   C4B 5998   8.529  20.995   7.566
  190POPC   NC3 5999  13.936  30.964   9.553
  190POPC   PO4 6000  13.544  30.374   9.661
  190POPC   GL1 6001  13.610  30.495   9.201
  190POPC   GL2 6002  13.666  30.853   9.128
  190POPC   C1A 6003  13.403  30.606   8.788
  190POPC   D2A 6004  13.512  30.949   8.509
  190POPC   C3A 6005  13.719  30.765   8.176
  190POPC   C4A 6006  13.769  30.763   7.736
  190POPC   C1B 6007  13.921  30.821   8.751
  190POPC   C2B 6008  14.195  30.738   8.403
  190POPC   C3B 6009  14.175  30.938   7.994
  190POPC   C4B 6010  14.086  31.173   7.633
  191POPC   NC3 6011   5.389  14.718   9.698
  191POPC   PO4 6012   4.853  14.334   9.641
  191POPC   GL1 6013   5.125  14.312   9.273
  191POPC   GL2 6014   5.283  14.635   9.204
  191POPC   C1A 6015   5.104  14.307   8.821
  191POPC   D2A 6016   4.962  14.163   8.425
  191POPC   C3A 6017   5.121  14.359   8.077
  191POPC   C4A 6018   4.864  14.309   7.783
  191POPC   C1B 6019   5.474  14.703   8.803
  191POPC   C2B 6020   5.512  14.764   8.375
  191POPC   C3B 6021   5.578  14.670   7.979
  191POPC   C4B 6022   5.279  14.671   7.674
  192POPC   NC3 6023  17.545  28.039   9.444
  192POPC   PO4 6024  17.581  27.337   9.558
  192POPC   GL1 6025  17.731  27.526   9.155
  192POPC   GL2 6026  17.765  27.867   9.013
  192POPC   C1A 6027  17.588  27.492   8.706
  192POPC   D2A 6028  17.449  27.380   8.291
  192POPC   C3A 6029  17.584  27.415   7.912
  192POPC   C4A 6030  17.557  27.663   7.572
  192POPC   C1B 6031  17.977  27.961   8.631
  192POPC   C2B 6032  17.911  27.887   8.206
  192POPC   C3B 6033  17.914  27.987   7.775
  192POPC   C4B 6034  18.028  27.794   7.393
  193POPC   NC3 6035   9.636   2.951   9.428
  193POPC   PO4 6036   9.633   3.660   9.527
  193POPC   GL1 6037   9.782   3.455   9.173
  193POPC   GL2 6038  10.073   3.262   9.290
  193POPC   C1A 6039   9.788   3.577   8.746
  193POPC   D2A 6040   9.560   3.483   8.382
  193POPC   C3A 6041   9.585   3.623   7.992
  193POPC   C4A 6042   9.719   3.582   7.570
  193POPC   C1B 6043  10.158   3.235   8.843
  193POPC   C2B 6044  10.042   3.310   8.394
  193POPC   C3B 6045  10.001   3.349   7.964
  193POPC   C4B 6046  10.035   3.158   7.584
  194POPC   NC3 6047  42.019  30.794   9.788
  194POPC   PO4 6048  42.515  30.564   9.444
  194POPC   GL1 6049  42.382  30.524   9.080
  194POPC   GL2 6050  42.200  30.872   9.149
  194POPC   C1A 6051  42.184  30.597   8.704
  194POPC   D2A 6052  42.049  30.761   8.348
  194POPC   C3A 6053  42.333  30.598   8.150
  194POPC   C4A 6054  42.347  30.697   7.767
  194POPC   C1B 6055  42.582  30.929   8.888
  194POPC   C2B 6056  42.729  30.791   8.490
  194POPC   C3B 6057  42.748  30.854   8.057
  194POPC   C4B 6058  42.750  31.061   7.660
  195POPC   NC3 6059  35.866  27.839   9.279
  195POPC   PO4 6060  36.330  27.567   9.723
  195POPC   GL1 6061  36.264  27.483   9.261
  195POPC   GL2 6062  35.945  27.353   9.079
  195POPC   C1A 6063  36.304  27.687   8.837
  195POPC   D2A 6064  36.375  27.529   8.443
  195POPC   C3A 6065  36.344  27.731   8.097
  195POPC   C4A 6066  36.339  27.514   7.746
  195POPC   C1B 6067  35.909  27.373   8.638
  195POPC   C2B 6068  35.851  27.645   8.279
  195POPC   C3B 6069  35.840  27.693   7.831
  195POPC   C4B 6070  35.971  27.629   7.391
  196POPC   NC3 6071  21.732   5.342   9.450
  196POPC   PO4 6072  21.126   5.098   9.712
  196POPC   GL1 6073  21.344   5.045   9.341
  196POPC   GL2 6074  21.218   5.364   9.195
  196POPC   C1A 6075  21.408   5.004   8.901
  196POPC   D2A 6076  21.307   4.840   8.502
  196POPC   C3A 6077  21.555   4.859   8.115
  196POPC   C4A 6078  21.774   4.899   7.724
  196POPC   C1B 6079  21.327   5.469   8.739
  196POPC   C2B 6080  21.550   5.293   8.398
  196POPC   C3B 6081  21.676   5.347   7.975
  196POPC   C4B 6082  21.662   5.363   7.497
  197POPC   NC3 6083   7.663  17.876   9.436
  197POPC   PO4 6084   7.944  17.272   9.770
  197POPC   GL1 6085   8.115  17.437   9.343
  197POPC   GL2 6086   7.845  17.345   9.117
  197POPC   C1A 6087   8.269  17.539   8.884
  197POPC   D2A 6088   8.024  17.318   8.545
  197POPC   C3A 6089   8.100  17.266   8.112
  197POPC   C4A 6090   8.411  17.195   7.791
  197POPC   C1B 6091   7.814  17.711   8.819
  197POPC   C2B 6092   8.062  17.811   8.404
  197POPC   C3B 6093   7.927  17.753   7.966
  197POPC   C4B 6094   7.976  17.439   7.639
  198POPC   NC3 6095  22.266  32.469   9.502
  198POPC   PO4 6096  21.783  32.110   9.778
  198POPC   GL1 6097  21.777  32.221   9.293
  198POPC   GL2 6098  22.100  32.132   9.139
  198POPC   C1A 6099  21.835  32.465   8.859
  198POPC   D2A 6100  21.845  32.666   8.424
  198POPC   C3A 6101  22.133  32.544   8.092
  198POPC   C4A 6102  22.141  32.261   7.777
  198POPC   C1B 6103  22.273  31.903   8.771
  198POPC   C2B 6104  22.169  31.724   8.366
  198POPC   C3B 6105  22.359  31.810   7.945
  198POPC   C4B 6106  22.511  32.029   7.551
  199POPC   NC3 6107  44.588  40.502   9.529
  199POPC   PO4 6108  44.991  41.036   9.537
  199POPC   GL1 6109  44.879  40.816   9.215
  199POPC   GL2 6110  44.537  40.912   9.211
  199POPC   C1A 6111   0.047  40.687   8.838
  199POPC   D2A 6112  44.824  40.557   8.472
  199POPC   C3A 6113  44.733  40.769   8.116
  199POPC   C4A 6114  44.879  40.652   7.709
  199POPC   C1B 6115  44.514  40.730   8.842
  199POPC   C2B 6116  44.333  40.836   8.501
  199POPC   C3B 6117  44.230  40.892   8.092
  199POPC   C4B 6118  44.345  40.791   7.730
  200POPC   NC3 6119  41.780  33.755   9.551
  200POPC   PO4 6120  41.227  34.083   9.571
  200POPC   GL1 6121  41.364  33.943   9.160
  200POPC   GL2 6122  41.533  33.628   9.119
  200POPC   C1A 6123  41.477  33.904   8.711
  200POPC   D2A 6124  41.694  34.157   8.415
  200POPC   C3A 6125  41.569  33.903   8.104
  200POPC   C4A 6126  41.682  33.604   7.835
  200POPC   C1B 6127  41.744  33.452   8.775
  200POPC   C2B 6128  41.687  33.430   8.332
  200POPC   C3B 6129  41.701  33.130   8.012
  200POPC   C4B 6130  41.911  33.177   7.638
  201POPC   NC3 6131   6.386  21.080   9.504
  201POPC   PO4 6132   6.765  21.648   9.662
  201POPC   GL1 6133   6.742  21.401   9.235
  201POPC   GL2 6134   6.935  21.069   9.145
  201POPC   C1A 6135   6.778  21.513   8.759
  201POPC   D2A 6136   6.468  21.636   8.406
  201POPC   C3A 6137   6.539  21.513   7.988
  201POPC   C4A 6138   6.377  21.267   7.670
  201POPC   C1B 6139   6.801  20.986   8.729
  201POPC   C2B 6140   6.822  21.187   8.312
  201POPC   C3B 6141   6.807  21.051   7.879
  201POPC   C4B 6142   6.986  21.040   7.458
  202POPC   NC3 6143  27.489   8.188   9.553
  202POPC   PO4 6144  28.120   8.024   9.841
  202POPC   GL1 6145  27.917   8.045   9.280
  202POPC   GL2 6146  27.591   8.307   9.092
  202POPC   C1A 6147  27.972   8.201   8.819
  202POPC   D2A 6148  27.680   8.066   8.518
  202POPC   C3A 6149  27.750   8.022   8.107
  202POPC   C4A 6150  27.419   7.886   7.870
  202POPC   C1B 6151  27.405   8.466   8.692
  202POPC   C2B 6152  27.503   8.488   8.257
  202POPC   C3B 6153  27.548   8.417   7.834
  202POPC   C4B 6154  27.567   8.552   7.385
  203POPC   NC3 6155  18.225  39.590   9.587
  203POPC   PO4 6156  18.632  39.092   9.513
  203POPC   GL1 6157  18.428  39.326   9.208
  203POPC   GL2 6158  18.119  39.191   9.194
  203POPC   C1A 6159  18.488  39.470   8.794
  203POPC   D2A 6160  18.661  39.207   8.453
  203POPC   C3A 6161  18.715  39.350   8.035
  203POPC   C4A 6162  18.517  39.104   7.724
  203POPC   C1B 6163  17.990  39.387   8.854
  203POPC   C2B 6164  18.122  39.472   8.439
  203POPC   C3B 6165  18.210  39.271   8.097
  203POPC   C4B 6166  17.998  39.121   7.754
  204POPC   NC3 6167   9.820  31.113   9.625
  204POPC   PO4 6168   9.952  31.720   9.452
  204POPC   GL1 6169   9.914  31.582   9.061
  204POPC   GL2 6170   9.953  31.268   9.144
  204POPC   C1A 6171  10.010  31.399   8.640
  204POPC   D2A 6172  10.223  31.312   8.252
  204POPC   C3A 6173   9.910  31.398   7.919
  204POPC   C4A 6174   9.502  31.637   7.822
  204POPC   C1B 6175   9.573  31.223   8.864
  204POPC   C2B 6176   9.517  31.054   8.415
  204POPC   C3B 6177   9.486  31.093   7.916
  204POPC   C4B 6178   9.533  30.985   7.426
  205POPC   NC3 6179  40.073   4.879   9.468
  205POPC   PO4 6180  40.301   5.590   9.482
  205POPC   GL1 6181  40.290   5.264   9.181
  205POPC   GL2 6182  39.943   5.283   9.204
  205POPC   C1A 6183  40.131   5.007   8.813
  205POPC   D2A 6184  40.240   5.117   8.405
  205POPC   C3A 6185  40.125   4.854   8.095
  205POPC   C4A 6186  39.913   4.911   7.734
  205POPC   C1B 6187  39.822   5.439   8.851
  205POPC   C2B 6188  39.653   5.325   8.466
  205POPC   C3B 6189  39.871   5.345   8.073
  205POPC   C4B 6190  39.958   5.386   7.631
  206POPC   NC3 6191  42.889  33.805   9.659
  206POPC   PO4 6192  42.234  33.740   9.677
  206POPC   GL1 6193  42.316  33.812   9.236
  206POPC   GL2 6194  42.051  33.664   9.138
  206POPC   C1A 6195  42.452  33.922   8.791
  206POPC   D2A 6196  42.244  34.207   8.442
  206POPC   C3A 6197  42.433  34.188   7.998
  206POPC   C4A 6198  42.674  33.893   7.725
  206POPC   C1B 6199  41.962  33.918   8.807
  206POPC   C2B 6200  42.056  33.733   8.453
  206POPC   C3B 6201  42.080  33.839   8.057
  206POPC   C4B 6202  41.946  34.105   7.791
  207POPC   NC3 6203   1.278  36.098   9.548
  207POPC   PO4 6204   1.420  36.680   9.341
  207POPC   GL1 6205   1.343  36.356   9.101
  207POPC   GL2 6206   1.020  36.282   9.140
  207POPC   C1A 6207   1.354  36.001   8.812
  207POPC   D2A 6208   1.410  35.754   8.429
  207POPC   C3A 6209   1.293  35.846   8.031
  207POPC   C4A 6210   1.380  36.187   7.790
  207POPC   C1B 6211   1.027  36.401   8.710
  207POPC   C2B 6212   1.163  36.242   8.332
  207POPC   C3B 6213   0.902  36.181   7.965
  207POPC   C4B 6214   0.929  36.166   7.522
  208POPC   NC3 6215  15.393  20.004   9.502
  208POPC   PO4 6216  14.810  19.752   9.450
  208POPC   GL1 6217  15.081  19.931   9.106
  208POPC   GL2 6218  15.421  19.854   9.035
  208POPC   C1A 6219  15.069  19.846   8.665
  208POPC   D2A 6220  14.961  20.011   8.264
  208POPC   C3A 6221  15.098  19.772   7.894
  208POPC   C4A 6222  15.075  19.994   7.495
  208POPC   C1B 6223  15.590  19.787   8.690
  208POPC   C2B 6224  15.457  19.894   8.301
  208POPC   C3B 6225  15.654  19.875   7.949
  208POPC   C4B 6226  15.548  19.871   7.564
  209POPC   NC3 6227  18.047  13.204   9.506
  209POPC   PO4 6228  18.364  13.745   9.777
  209POPC   GL1 6229  18.343  13.667   9.259
  209POPC   GL2 6230  18.345  13.337   9.107
  209POPC   C1A 6231  18.319  13.686   8.753
  209POPC   D2A 6232  18.330  13.376   8.397
  209POPC   C3A 6233  18.301  13.597   7.991
  209POPC   C4A 6234  18.540  13.705   7.599
  209POPC   C1B 6235  18.016  13.234   8.788
  209POPC   C2B 6236  17.823  13.351   8.401
  209POPC   C3B 6237  17.935  13.189   7.983
  209POPC   C4B 6238  18.246  13.244   7.635
  210POPC   NC3 6239  23.191  12.730   9.454
  210POPC   PO4 6240  22.851  13.293   9.410
  210POPC   GL1 6241  23.141  13.146   9.080
  210POPC   GL2 6242  23.091  12.801   8.951
  210POPC   C1A 6243  23.404  13.166   8.716
  210POPC   D2A 6244  23.530  13.147   8.277
  210POPC   C3A 6245  23.167  12.980   8.055
  210POPC   C4A 6246  23.030  12.696   7.739
  210POPC   C1B 6247  22.875  13.066   8.655
  210POPC   C2B 6248  22.709  13.135   8.267
  210POPC   C3B 6249  22.673  13.046   7.829
  210POPC   C4B 6250  22.438  12.824   7.511
  211POPC   NC3 6251  21.039  16.619   9.597
  211POPC   PO4 6252  21.668  16.624   9.593
  211POPC   GL1 6253  21.390  16.828   9.274
  211POPC   GL2 6254  21.315  16.505   9.129
  211POPC   C1A 6255  21.155  16.891   8.849
  211POPC   D2A 6256  21.258  16.616   8.488
  211POPC   C3A 6257  21.284  16.749   8.046
  211POPC   C4A 6258  21.277  17.133   7.793
  211POPC   C1B 6259  21.649  16.714   8.842
  211POPC   C2B 6260  21.864  16.786   8.429
  211POPC   C3B 6261  21.862  16.660   7.981
  211POPC   C4B 6262  21.611  16.698   7.646
  212POPC   NC3 6263  18.791  25.209   9.373
  212POPC   PO4 6264  19.314  25.630   9.531
  212POPC   GL1 6265  19.098  25.525   9.143
  212POPC   GL2 6266  18.751  25.593   9.006
  212POPC   C1A 6267  19.092  25.272   8.770
  212POPC   D2A 6268  18.851  25.419   8.413
  212POPC   C3A 6269  19.071  25.250   8.102
  212POPC   C4A 6270  19.180  25.436   7.761
  212POPC   C1B 6271  18.606  25.172   8.784
  212POPC   C2B 6272  18.684  24.934   8.438
  212POPC   C3B 6273  18.577  25.128   8.073
  212POPC   C4B 6274  18.753  25.116   7.680
  213POPC   NC3 6275  12.454  43.268   9.344
  213POPC   PO4 6276  13.082  43.123   9.591
  213POPC   GL1 6277  12.996  43.178   9.198
  213POPC   GL2 6278  12.802  42.889   9.133
  213POPC   C1A 6279  12.897  43.296   8.784
  213POPC   D2A 6280  12.696  43.280   8.409
  213POPC   C3A 6281  12.935  43.324   8.042
  213POPC   C4A 6282  12.687  43.295   7.707
  213POPC   C1B 6283  13.174  42.860   8.838
  213POPC   C2B 6284  13.148  42.996   8.400
  213POPC   C3B 6285  13.135  42.834   7.967
  213POPC   C4B 6286  12.900  42.855   7.598
  214POPC   NC3 6287  24.760  17.364   9.441
  214POPC   PO4 6288  24.085  17.598   9.363
  214POPC   GL1 6289  24.406  17.513   9.111
  214POPC   GL2 6290  24.329  17.146   9.108
  214POPC   C1A 6291  24.602  17.726   8.770
  214POPC   D2A 6292  24.602  17.795   8.366
  214POPC   C3A 6293  24.640  17.446   8.140
  214POPC   C4A 6294  24.838  17.544   7.798
  214POPC   C1B 6295  24.323  17.316   8.659
  214POPC   C2B 6296  24.117  17.665   8.405
  214POPC   C3B 6297  24.256  17.756   7.983
  214POPC   C4B 6298  24.238  17.357   7.843
  215POPC   NC3 6299   4.629  26.630   9.621
  215POPC   PO4 6300   4.071  26.999   9.815
  215POPC   GL1 6301   4.170  26.813   9.373
  215POPC   GL2 6302   4.103  27.065   9.072
  215POPC   C1A 6303   4.434  26.686   8.984
  215POPC   D2A 6304   4.271  26.722   8.580
  215POPC   C3A 6305   4.304  26.814   8.179
  215POPC   C4A 6306   4.339  26.510   7.894
  215POPC   C1B 6307   4.462  27.163   8.756
  215POPC   C2B 6308   4.620  27.184   8.319
  215POPC   C3B 6309   4.464  27.207   7.863
  215POPC   C4B 6310   4.455  27.041   7.444
  216POPC   NC3 6311  44.414  36.324   9.583
  216POPC   PO4 6312  44.841  35.858   9.494
  216POPC   GL1 6313  44.640  36.101   9.152
  216POPC   GL2 6314  44.447  36.426   9.109
  216POPC   C1A 6315  44.766  36.264   8.754
  216POPC   D2A 6316  44.589  36.174   8.354
  216POPC   C3A 6317  44.644  36.000   7.955
  216POPC   C4A 6318  44.606  35.894   7.513
  216POPC   C1B 6319  44.244  36.297   8.740
  216POPC   C2B 6320  44.244  36.531   8.382
  216POPC   C3B 6321  44.443  36.482   7.957
  216POPC   C4B 6322  44.307  36.602   7.525
  217POPC   NC3 6323   1.075  39.514   9.645
  217POPC   PO4 6324   1.318  38.893   9.554
  217POPC   GL1 6325   1.198  39.211   9.240
  217POPC   GL2 6326   0.850  39.172   9.266
  217POPC   C1A 6327   1.412  39.304   8.834
  217POPC   D2A 6328   1.381  39.450   8.424
  217POPC   C3A 6329   1.582  39.330   8.053
  217POPC   C4A 6330   1.451  39.336   7.644
  217POPC   C1B 6331   0.890  39.236   8.818
  217POPC   C2B 6332   0.961  39.166   8.393
  217POPC   C3B 6333   1.047  39.332   8.004
  217POPC   C4B 6334   1.050  39.026   7.702
  218POPC   NC3 6335  27.449  34.472   9.549
  218POPC   PO4 6336  28.041  34.763   9.422
  218POPC   GL1 6337  27.938  34.472   9.098
  218POPC   GL2 6338  27.575  34.450   9.057
  218POPC   C1A 6339  27.924  34.583   8.661
  218POPC   D2A 6340  27.644  34.649   8.320
  218POPC   C3A 6341  27.848  34.398   8.007
  218POPC   C4A 6342  27.868  34.394   7.520
  218POPC   C1B 6343  27.239  34.300   8.780
  218POPC   C2B 6344  27.084  34.502   8.416
  218POPC   C3B 6345  27.204  34.600   8.026
  218POPC   C4B 6346  27.411  34.385   7.751
  219POPC   NC3 6347  16.313  29.053   9.464
  219POPC   PO4 6348  15.680  29.190   9.389
  219POPC   GL1 6349  15.803  29.123   9.023
  219POPC   GL2 6350  16.108  29.313   9.057
  219POPC   C1A 6351  16.083  28.939   8.714
  219POPC   D2A 6352  16.433  28.834   8.457
  219POPC   C3A 6353  16.208  28.920   8.095
  219POPC   C4A 6354  15.830  28.930   7.839
  219POPC   C1B 6355  15.886  29.433   8.659
  219POPC   C2B 6356  15.859  29.245   8.278
  219POPC   C3B 6357  16.038  29.384   7.920
  219POPC   C4B 6358  15.738  29.676   7.827
  220POPC   NC3 6359  24.495  34.111   9.407
  220POPC   PO4 6360  24.069  33.651   9.585
  220POPC   GL1 6361  24.291  33.589   9.155
  220POPC   GL2 6362  24.644  33.718   9.127
  220POPC   C1A 6363  24.502  33.528   8.698
  220POPC   D2A 6364  24.691  33.776   8.373
  220POPC   C3A 6365  24.623  33.681   7.939
  220POPC   C4A 6366  24.509  33.555   7.517
  220POPC   C1B 6367  24.458  34.027   8.782
  220POPC   C2B 6368  24.618  34.339   8.505
  220POPC   C3B 6369  24.619  34.200   8.086
  220POPC   C4B 6370  24.233  34.048   7.865
  221POPC   NC3 6371  37.833  33.049   9.993
  221POPC   PO4 6372  37.468  32.882   9.454
  221POPC   GL1 6373  37.516  33.060   9.058
  221POPC   GL2 6374  37.849  33.031   9.100
  221POPC   C1A 6375  37.655  32.862   8.670
  221POPC   D2A 6376  37.704  32.708   8.270
  221POPC   C3A 6377  37.473  32.920   7.960
  221POPC   C4A 6378  37.435  32.595   7.714
  221POPC   C1B 6379  38.028  33.264   8.700
  221POPC   C2B 6380  38.201  33.328   8.274
  221POPC   C3B 6381  38.182  33.119   7.853
  221POPC   C4B 6382  37.950  32.730   7.811
  222POPC   NC3 6383  23.599   6.248   9.387
  222POPC   PO4 6384  23.215   5.814   9.658
  222POPC   GL1 6385  23.564   5.788   9.201
  222POPC   GL2 6386  23.592   6.049   8.933
  222POPC   C1A 6387  23.592   5.582   8.777
  222POPC   D2A 6388  23.736   5.869   8.457
  222POPC   C3A 6389  23.501   5.904   8.080
  222POPC   C4A 6390  23.694   5.631   7.808
  222POPC   C1B 6391  23.926   6.259   8.803
  222POPC   C2B 6392  24.092   6.296   8.410
  222POPC   C3B 6393  23.992   6.089   8.044
  222POPC   C4B 6394  23.796   6.116   7.669
  223POPC   NC3 6395  39.001   5.383   9.523
  223POPC   PO4 6396  39.192   6.035   9.629
  223POPC   GL1 6397  39.291   5.776   9.274
  223POPC   GL2 6398  39.021   5.896   9.051
  223POPC   C1A 6399  39.509   5.856   8.895
  223POPC   D2A 6400  39.435   6.080   8.470
  223POPC   C3A 6401  39.444   5.714   8.189
  223POPC   C4A 6402  39.589   5.709   7.771
  223POPC   C1B 6403  39.097   5.746   8.622
  223POPC   C2B 6404  38.873   5.526   8.314
  223POPC   C3B 6405  39.028   5.416   7.938
  223POPC   C4B 6406  39.098   5.850   7.856
  224POPC   NC3 6407   0.241  36.629   9.421
  224POPC   PO4 6408   0.621  37.118   9.365
  224POPC   GL1 6409   0.528  36.931   9.023
  224POPC   GL2 6410   0.672  36.654   9.034
  224POPC   C1A 6411   0.598  37.044   8.603
  224POPC   D2A 6412   0.735  37.353   8.285
  224POPC   C3A 6413   0.528  37.251   7.912
  224POPC   C4A 6414   0.724  36.876   7.915
  224POPC   C1B 6415   0.514  36.488   8.717
  224POPC   C2B 6416   0.688  36.589   8.358
  224POPC   C3B 6417   0.480  36.456   8.057
  224POPC   C4B 6418   0.552  36.448   7.695
  225POPC   NC3 6419   7.695  16.896   9.630
  225POPC   PO4 6420   7.040  16.921   9.526
  225POPC   GL1 6421   7.308  16.682   9.256
  225POPC   GL2 6422   7.617  16.874   9.131
  225POPC   C1A 6423   7.299  16.654   8.812
  225POPC   D2A 6424   7.553  16.577   8.455
  225POPC   C3A 6425   7.389  16.647   8.059
  225POPC   C4A 6426   7.622  16.516   7.707
  225POPC   C1B 6427   7.566  17.122   8.728
  225POPC   C2B 6428   7.650  17.061   8.264
  225POPC   C3B 6429   7.553  17.056   7.800
  225POPC   C4B 6430   7.213  16.840   7.605
  226POPC   NC3 6431  32.083  36.445   9.729
  226POPC   PO4 6432  32.675  36.269   9.461
  226POPC   GL1 6433  32.361  36.211   9.191
  226POPC   GL2 6434  32.340  35.859   9.149
  226POPC   C1A 6435  32.383  36.163   8.758
  226POPC   D2A 6436  32.124  36.269   8.444
  226POPC   C3A 6437  32.303  36.153   8.079
  226POPC   C4A 6438  32.374  36.321   7.708
  226POPC   C1B 6439  31.940  35.928   8.821
  226POPC   C2B 6440  31.790  35.873   8.394
  226POPC   C3B 6441  31.836  35.932   7.954
  226POPC   C4B 6442  32.146  35.884   7.651
  227POPC   NC3 6443  34.779  14.091   9.597
  227POPC   PO4 6444  34.400  13.654   9.367
  227POPC   GL1 6445  34.605  13.892   9.107
  227POPC   GL2 6446  34.909  13.740   9.156
  227POPC   C1A 6447  34.750  13.899   8.687
  227POPC   D2A 6448  34.844  14.052   8.332
  227POPC   C3A 6449  34.844  13.776   8.004
  227POPC   C4A 6450  34.814  13.850   7.549
  227POPC   C1B 6451  34.726  13.419   8.813
  227POPC   C2B 6452  34.568  13.477   8.393
  227POPC   C3B 6453  34.634  13.290   8.025
  227POPC   C4B 6454  34.847  13.367   7.682
  228POPC   NC3 6455  37.056  36.247   9.621
  228POPC   PO4 6456  36.563  35.903   9.744
  228POPC   GL1 6457  36.674  36.202   9.288
  228POPC   GL2 6458  37.028  36.119   9.135
  228POPC   C1A 6459  36.628  36.204   8.816
  228POPC   D2A 6460  36.764  36.349   8.426
  228POPC   C3A 6461  36.903  36.033   8.175
  228POPC   C4A 6462  36.763  36.098   7.757
  228POPC   C1B 6463  37.109  36.050   8.703
  228POPC   C2B 6464  37.290  36.363   8.441
  228POPC   C3B 6465  37.161  36.468   8.083
  228POPC   C4B 6466  37.246  36.232   7.757
  229POPC   NC3 6467   9.991  14.598   9.474
  229POPC   PO4 6468   9.594  14.034   9.491
  229POPC   GL1 6469   9.701  14.238   9.122
  229POPC   GL2 6470   9.845  14.579   8.988
  229POPC   C1A 6471   9.541  14.255   8.723
  229POPC   D2A 6472   9.513  14.594   8.468
  229POPC   C3A 6473   9.466  14.482   8.055
  229POPC   C4A 6474   9.404  14.671   7.675
  229POPC   C1B 6475  10.039  14.514   8.591
  229POPC   C2B 6476  10.000  14.184   8.279
  229POPC   C3B 6477   9.836  14.184   7.865
  229POPC   C4B 6478   9.987  14.525   7.622
  230POPC   NC3 6479  11.609  44.710   9.928
  230POPC   PO4 6480  12.085  44.790   9.488
  230POPC   GL1 6481  11.980  44.586   9.120
  230POPC   GL2 6482  12.267  44.501   9.077
  230POPC   C1A 6483  11.932  44.412   8.698
  230POPC   D2A 6484  12.195  44.474   8.354
  230POPC   C3A 6485  11.997  44.464   7.936
  230POPC   C4A 6486  12.013  44.676   7.530
  230POPC   C1B 6487  12.246  44.824   8.754
  230POPC   C2B 6488  12.360  44.944   8.349
  230POPC   C3B 6489  12.427  44.810   7.948
  230POPC   C4B 6490  12.413   0.132   7.623
  231POPC   NC3 6491  42.104  32.334   9.355
  231POPC   PO4 6492  42.656  32.085   9.615
  231POPC   GL1 6493  42.464  32.023   9.152
  231POPC   GL2 6494  42.460  32.367   9.009
  231POPC   C1A 6495  42.266  32.014   8.678
  231POPC   D2A 6496  42.091  31.825   8.269
  231POPC   C3A 6497  42.212  31.993   7.822
  231POPC   C4A 6498  42.060  32.147   7.407
  231POPC   C1B 6499  42.763  32.712   8.978
  231POPC   C2B 6500  42.742  32.938   8.589
  231POPC   C3B 6501  42.623  32.698   8.187
  231POPC   C4B 6502  42.512  32.454   7.786
  232POPC   NC3 6503  39.050  34.009   9.517
  232POPC   PO4 6504  39.678  33.855   9.630
  232POPC   GL1 6505  39.436  33.897   9.215
  232POPC   GL2 6506  39.158  33.646   9.203
  232POPC   C1A 6507  39.380  33.876   8.763
  232POPC   D2A 6508  39.595  34.065   8.394
  232POPC   C3A 6509  39.474  33.919   7.954
  232POPC   C4A 6510  39.133  34.078   7.698
  232POPC   C1B 6511  38.936  33.584   8.812
  232POPC   C2B 6512  39.029  33.736   8.393
  232POPC   C3B 6513  39.055  33.618   7.968
  232POPC   C4B 6514  38.779  33.712   7.625
  233POPC   NC3 6515  31.200  32.374   9.542
  233POPC   PO4 6516  31.521  31.886   9.639
  233POPC   GL1 6517  31.488  32.162   9.195
  233POPC   GL2 6518  31.309  32.517   9.072
  233POPC   C1A 6519  31.580  32.207   8.763
  233POPC   D2A 6520  31.648  31.974   8.415
  233POPC   C3A 6521  31.597  32.182   8.072
  233POPC   C4A 6522  31.490  32.077   7.715
  233POPC   C1B 6523  31.637  32.699   8.816
  233POPC   C2B 6524  31.538  32.574   8.401
  233POPC   C3B 6525  31.663  32.690   8.006
  233POPC   C4B 6526  31.866  32.435   7.706
  234POPC   NC3 6527   6.305  21.890   9.660
  234POPC   PO4 6528   5.905  22.470   9.562
  234POPC   GL1 6529   5.794  22.238   9.202
  234POPC   GL2 6530   5.496  21.994   9.307
  234POPC   C1A 6531   6.055  22.170   8.799
  234POPC   D2A 6532   6.300  22.143   8.379
  234POPC   C3A 6533   6.132  21.901   8.047
  234POPC   C4A 6534   5.849  22.097   7.766
  234POPC   C1B 6535   5.431  22.080   8.878
  234POPC   C2B 6536   5.650  22.084   8.497
  234POPC   C3B 6537   5.601  21.863   8.147
  234POPC   C4B 6538   5.350  21.984   7.804
  235POPC   NC3 6539  42.801  31.634   9.621
  235POPC   PO4 6540  42.232  31.179   9.638
  235POPC   GL1 6541  42.278  31.393   9.233
  235POPC   GL2 6542  42.643  31.291   9.247
  235POPC   C1A 6543  42.143  31.479   8.774
  235POPC   D2A 6544  42.358  31.148   8.492
  235POPC   C3A 6545  42.330  31.163   8.058
  235POPC   C4A 6546  42.066  31.492   7.863
  235POPC   C1B 6547  42.635  31.447   8.828
  235POPC   C2B 6548  42.535  31.627   8.431
  235POPC   C3B 6549  42.536  31.627   8.007
  235POPC   C4B 6550  42.494  31.554   7.577
  236POPC   NC3 6551   9.304  35.647   9.533
  236POPC   PO4 6552   9.299  34.940   9.537
  236POPC   GL1 6553   9.083  35.275   9.245
  236POPC   GL2 6554   8.859  35.566   9.234
  236POPC   C1A 6555   9.172  35.535   8.854
  236POPC   D2A 6556   9.038  35.400   8.453
  236POPC   C3A 6557   9.252  35.427   8.087
  236POPC   C4A 6558   9.007  35.199   7.812
  236POPC   C1B 6559   8.673  35.563   8.774
  236POPC   C2B 6560   8.537  35.606   8.337
  236POPC   C3B 6561   8.613  35.526   7.907
  236POPC   C4B 6562   8.519  35.651   7.476
  237POPC   NC3 6563   2.409  12.771   9.481
  237POPC   PO4 6564   2.931  13.161   9.572
  237POPC   GL1 6565   2.880  12.846   9.220
  237POPC   GL2 6566   2.678  12.497   9.168
  237POPC   C1A 6567   2.816  12.997   8.816
  237POPC   D2A 6568   2.563  13.138   8.489
  237POPC   C3A 6569   2.749  13.100   8.103
  237POPC   C4A 6570   2.585  13.083   7.717
  237POPC   C1B 6571   2.778  12.405   8.760
  237POPC   C2B 6572   2.738  12.653   8.397
  237POPC   C3B 6573   2.657  12.614   7.963
  237POPC   C4B 6574   3.049  12.792   7.767
  238POPC   NC3 6575  23.547  14.992   9.462
  238POPC   PO4 6576  23.906  15.587   9.688
  238POPC   GL1 6577  23.918  15.480   9.243
  238POPC   GL2 6578  23.598  15.461   9.090
  238POPC   C1A 6579  24.057  15.289   8.841
  238POPC   D2A 6580  23.957  14.925   8.565
  238POPC   C3A 6581  23.920  14.954   8.099
  238POPC   C4A 6582  23.488  14.915   7.900
  238POPC   C1B 6583  23.579  15.347   8.667
  238POPC   C2B 6584  23.823  15.429   8.305
  238POPC   C3B 6585  23.584  15.458   7.929
  238POPC   C4B 6586  23.237  15.605   7.608
  239POPC   NC3 6587   5.429  22.416   9.600
  239POPC   PO4 6588   5.180  21.794   9.689
  239POPC   GL1 6589   4.973  22.117   9.373
  239POPC   GL2 6590   5.150  22.384   9.194
  239POPC   C1A 6591   4.912  22.076   8.902
  239POPC   D2A 6592   5.115  21.999   8.486
  239POPC   C3A 6593   4.946  22.195   8.114
  239POPC   C4A 6594   4.901  22.166   7.678
  239POPC   C1B 6595   5.098  22.544   8.795
  239POPC   C2B 6596   5.291  22.484   8.421
  239POPC   C3B 6597   5.536  22.412   8.088
  239POPC   C4B 6598   5.301  22.473   7.740
  240POPC   NC3 6599   2.400   5.503   9.535
  240POPC   PO4 6600   1.713   5.875   9.505
  240POPC   GL1 6601   2.058   5.767   9.237
  240POPC   GL2 6602   1.870   5.473   9.242
  240POPC   C1A 6603   2.209   5.928   8.835
  240POPC   D2A 6604   2.138   6.152   8.442
  240POPC   C3A 6605   2.219   5.969   8.039
  240POPC   C4A 6606   2.135   6.265   7.721
  240POPC   C1B 6607   1.696   5.736   8.859
  240POPC   C2B 6608   1.679   5.928   8.469
  240POPC   C3B 6609   1.753   5.761   8.077
  240POPC   C4B 6610   1.752   5.951   7.710
  241POPC   NC3 6611   2.274  16.115   9.454
  241POPC   PO4 6612   1.832  15.584   9.466
  241POPC   GL1 6613   2.093  15.727   9.133
  241POPC   GL2 6614   2.125  16.050   8.977
  241POPC   C1A 6615   2.160  15.572   8.732
  241POPC   D2A 6616   2.184  15.596   8.300
  241POPC   C3A 6617   1.784  15.674   8.142
  241POPC   C4A 6618   1.651  15.597   7.714
  241POPC   C1B 6619   1.831  16.393   8.824
  241POPC   C2B 6620   1.839  16.387   8.371
  241POPC   C3B 6621   2.151  16.148   8.160
  241POPC   C4B 6622   2.006  15.973   7.794
  242POPC   NC3 6623   4.857  13.885   9.544
  242POPC   PO4 6624   5.425  13.508   9.495
  242POPC   GL1 6625   5.310  13.482   9.086
  242POPC   GL2 6626   5.418  13.840   9.095
  242POPC   C1A 6627   4.901  13.499   8.854
  242POPC   D2A 6628   4.784  13.664   8.454
  242POPC   C3A 6629   4.792  13.513   8.021
  242POPC   C4A 6630   5.170  13.410   7.815
  242POPC   C1B 6631   5.248  13.825   8.670
  242POPC   C2B 6632   5.220  13.785   8.220
  242POPC   C3B 6633   5.176  13.903   7.820
  242POPC   C4B 6634   5.517  13.839   7.507
  243POPC   NC3 6635   4.781   9.907   9.698
  243POPC   PO4 6636   4.348   9.311   9.583
  243POPC   GL1 6637   4.540   9.436   9.212
  243POPC   GL2 6638   4.736   9.743   9.206
  243POPC   C1A 6639   4.343   9.595   8.813
  243POPC   D2A 6640   4.113   9.593   8.383
  243POPC   C3A 6641   4.155   9.870   8.028
  243POPC   C4A 6642   4.215   9.724   7.612
  243POPC   C1B 6643   4.749   9.935   8.774
  243POPC   C2B 6644   4.612   9.731   8.406
  243POPC   C3B 6645   4.565   9.524   8.035
  243POPC   C4B 6646   4.651   9.901   7.892
  244POPC   NC3 6647  31.388   1.975   9.875
  244POPC   PO4 6648  31.685   2.072   9.301
  244POPC   GL1 6649  31.454   1.924   9.003
  244POPC   GL2 6650  31.150   1.825   9.167
  244POPC   C1A 6651  31.468   1.940   8.595
  244POPC   D2A 6652  31.733   1.844   8.270
  244POPC   C3A 6653  31.717   1.939   7.837
  244POPC   C4A 6654  31.951   1.570   7.795
  244POPC   C1B 6655  30.984   1.898   8.767
  244POPC   C2B 6656  31.053   1.828   8.310
  244POPC   C3B 6657  31.223   2.020   7.953
  244POPC   C4B 6658  31.109   2.150   7.534
  245POPC   NC3 6659  17.575  17.285   9.674
  245POPC   PO4 6660  16.944  17.553   9.673
  245POPC   GL1 6661  17.239  17.371   9.289
  245POPC   GL2 6662  17.618  17.416   9.198
  245POPC   C1A 6663  17.248  17.364   8.820
  245POPC   D2A 6664  17.133  17.130   8.422
  245POPC   C3A 6665  17.122  17.354   8.028
  245POPC   C4A 6666  17.445  17.377   7.690
  245POPC   C1B 6667  17.756  17.531   8.789
  245POPC   C2B 6668  17.921  17.685   8.403
  245POPC   C3B 6669  17.837  17.515   8.004
  245POPC   C4B 6670  17.881  17.615   7.592
  246POPC   NC3 6671  32.647  27.449   9.320
  246POPC   PO4 6672  32.242  27.970   9.541
  246POPC   GL1 6673  32.174  27.646   9.185
  246POPC   GL2 6674  31.997  27.327   9.075
  246POPC   C1A 6675  32.347  27.559   8.765
  246POPC   D2A 6676  32.641  27.739   8.481
  246POPC   C3A 6677  32.571  27.570   8.056
  246POPC   C4A 6678  32.425  27.537   7.618
  246POPC   C1B 6679  32.059  27.130   8.670
  246POPC   C2B 6680  32.169  27.350   8.310
  246POPC   C3B 6681  32.028  27.430   7.915
  246POPC   C4B 6682  31.893  27.120   7.593
  247POPC   NC3 6683  29.320  14.628   9.483
  247POPC   PO4 6684  28.897  13.986   9.497
  247POPC   GL1 6685  29.092  14.251   9.196
  247POPC   GL2 6686  29.434  14.127   9.213
  247POPC   C1A 6687  29.054  14.509   8.809
  247POPC   D2A 6688  28.952  14.366   8.384
  247POPC   C3A 6689  28.931  14.634   8.045
  247POPC   C4A 6690  28.941  14.512   7.660
  247POPC   C1B 6691  29.639  14.281   8.849
  247POPC   C2B 6692  29.475  14.405   8.471
  247POPC   C3B 6693  29.409  14.482   8.055
  247POPC   C4B 6694  29.435  14.348   7.630
  248POPC   NC3 6695  23.191  30.982   9.556
  248POPC   PO4 6696  22.688  30.547   9.524
  248POPC   GL1 6697  22.792  30.575   9.124
  248POPC   GL2 6698  23.084  30.779   9.098
  248POPC   C1A 6699  22.715  30.665   8.722
  248POPC   D2A 6700  22.762  30.447   8.335
  248POPC   C3A 6701  22.682  30.660   7.960
  248POPC   C4A 6702  22.888  30.376   7.699
  248POPC   C1B 6703  23.218  30.745   8.667
  248POPC   C2B 6704  23.044  30.867   8.268
  248POPC   C3B 6705  23.044  30.994   7.817
  248POPC   C4B 6706  23.242  31.111   7.413
  249POPC   NC3 6707  36.912  25.002   9.442
  249POPC   PO4 6708  37.055  25.636   9.363
  249POPC   GL1 6709  37.100  25.376   9.078
  249POPC   GL2 6710  36.796  25.329   9.037
  249POPC   C1A 6711  37.167  25.319   8.664
  249POPC   D2A 6712  36.946  25.034   8.394
  249POPC   C3A 6713  37.250  24.999   8.058
  249POPC   C4A 6714  37.275  25.358   7.764
  249POPC   C1B 6715  36.533  25.097   8.834
  249POPC   C2B 6716  36.402  25.065   8.455
  249POPC   C3B 6717  36.514  24.867   8.099
  249POPC   C4B 6718  36.821  25.018   7.812
  250POPC   NC3 6719  30.186   5.672   9.438
  250POPC   PO4 6720  29.565   6.077   9.463
  250POPC   GL1 6721  29.829   5.915   9.100
  250POPC   GL2 6722  30.190   6.030   9.034
  250POPC   C1A 6723  29.847   5.925   8.631
  250POPC   D2A 6724  29.892   5.649   8.273
  250POPC   C3A 6725  29.949   5.871   7.913
  250POPC   C4A 6726  29.625   6.123   7.815
  250POPC   C1B 6727  30.230   5.611   8.791
  250POPC   C2B 6728  30.335   5.429   8.372
  250POPC   C3B 6729  30.299   5.476   7.928
  250POPC   C4B 6730  30.224   5.698   7.512
  251POPC   NC3 6731   2.185  18.805   9.596
  251POPC   PO4 6732   1.912  18.179   9.457
  251POPC   GL1 6733   2.252  18.414   9.239
  251POPC   GL2 6734   2.035  18.620   9.138
  251POPC   C1A 6735   2.326  18.342   8.813
  251POPC   D2A 6736   2.089  18.101   8.497
  251POPC   C3A 6737   2.048  18.185   8.035
  251POPC   C4A 6738   1.625  18.052   7.895
  251POPC   C1B 6739   1.841  18.472   8.772
  251POPC   C2B 6740   1.881  18.542   8.357
  251POPC   C3B 6741   1.687  18.553   7.963
  251POPC   C4B 6742   1.925  18.529   7.591
  252POPC   NC3 6743  33.795   1.112   9.482
  252POPC   PO4 6744  33.658   1.693   9.723
  252POPC   GL1 6745  33.683   1.609   9.230
  252POPC   GL2 6746  33.975   1.465   9.102
  252POPC   C1A 6747  33.551   1.412   8.811
  252POPC   D2A 6748  33.720   1.127   8.481
  252POPC   C3A 6749  33.557   1.144   8.061
  252POPC   C4A 6750  33.583   0.972   7.644
  252POPC   C1B 6751  34.036   1.527   8.663
  252POPC   C2B 6752  34.144   1.376   8.255
  252POPC   C3B 6753  34.034   1.256   7.852
  252POPC   C4B 6754  34.226   1.521   7.545
  253POPC   NC3 6755  24.953  18.344   9.481
  253POPC   PO4 6756  25.413  17.916   9.736
  253POPC   GL1 6757  25.390  18.070   9.289
  253POPC   GL2 6758  25.453  18.443   9.296
  253POPC   C1A 6759  25.179  18.007   8.839
  253POPC   D2A 6760  25.108  17.777   8.434
  253POPC   C3A 6761  25.169  18.008   8.039
  253POPC   C4A 6762  25.414  18.045   7.689
  253POPC   C1B 6763  25.541  18.373   8.848
  253POPC   C2B 6764  25.374  18.280   8.434
  253POPC   C3B 6765  25.494  18.412   8.023
  253POPC   C4B 6766  25.650  18.503   7.621
  254POPC   NC3 6767  30.214  42.567   9.581
  254POPC   PO4 6768  29.662  42.365   9.254
  254POPC   GL1 6769  30.094  42.444   9.083
  254POPC   GL2 6770  30.250  42.764   9.091
  254POPC   C1A 6771  30.349  42.362   8.705
  254POPC   D2A 6772  30.354  42.436   8.229
  254POPC   C3A 6773  29.970  42.305   7.983
  254POPC   C4A 6774  29.596  42.416   7.720
  254POPC   C1B 6775  30.219  42.834   8.625
  254POPC   C2B 6776  29.954  42.755   8.263
  254POPC   C3B 6777  30.031  42.778   7.807
  254POPC   C4B 6778  29.952  42.601   7.410
  255POPC   NC3 6779  12.345  32.061   9.205
  255POPC   PO4 6780  12.697  32.250   9.766
  255POPC   GL1 6781  12.815  32.300   9.292
  255POPC   GL2 6782  13.037  32.004   9.188
  255POPC   C1A 6783  12.841  32.379   8.804
  255POPC   D2A 6784  13.001  32.555   8.368
  255POPC   C3A 6785  12.911  32.423   7.940
  255POPC   C4A 6786  12.551  32.270   7.764
  255POPC   C1B 6787  13.035  31.880   8.745
  255POPC   C2B 6788  13.159  32.013   8.323
  255POPC   C3B 6789  12.934  31.919   7.938
  255POPC   C4B 6790  12.924  32.077   7.493
  256POPC   NC3 6791   2.166  11.007   9.415
  256POPC   PO4 6792   1.725  11.458   9.542
  256POPC   GL1 6793   1.946  11.385   9.148
  256POPC   GL2 6794   2.318  11.471   9.192
  256POPC   C1A 6795   1.779  11.351   8.735
  256POPC   D2A 6796   1.603  11.463   8.351
  256POPC   C3A 6797   1.837  11.343   7.998
  256POPC   C4A 6798   1.928  11.127   7.637
  256POPC   C1B 6799   2.324  11.256   8.795
  256POPC   C2B 6800   2.182  10.995   8.458
  256POPC   C3B 6801   2.253  11.039   8.028
  256POPC   C4B 6802   2.320  11.466   7.876
  257POPC   NC3 6803  42.296   6.095   9.430
  257POPC   PO4 6804  42.625   5.490   9.340
  257POPC   GL1 6805  42.591   5.566   8.896
  257POPC   GL2 6806  42.437   5.871   8.980
  257POPC   C1A 6807  42.504   5.724   8.459
  257POPC   D2A 6808  42.717   6.056   8.206
  257POPC   C3A 6809  42.425   6.082   7.900
  257POPC   C4A 6810  42.261   5.665   7.925
  257POPC   C1B 6811  42.088   5.747   8.748
  257POPC   C2B 6812  42.081   6.039   8.397
  257POPC   C3B 6813  41.919   6.028   8.018
  257POPC   C4B 6814  41.752   5.681   7.806
  258POPC   NC3 6815  40.168  18.300   9.490
  258POPC   PO4 6816  39.674  17.899   9.718
  258POPC   GL1 6817  39.793  17.929   9.224
  258POPC   GL2 6818  39.766  18.282   9.045
  258POPC   C1A 6819  39.999  17.943   8.775
  258POPC   D2A 6820  39.956  18.214   8.358
  258POPC   C3A 6821  39.903  18.227   7.869
  258POPC   C4A 6822  39.890  18.124   7.407
  258POPC   C1B 6823  40.138  18.453   8.778
  258POPC   C2B 6824  40.289  18.581   8.319
  258POPC   C3B 6825  40.234  18.641   7.863
  258POPC   C4B 6826  40.178  18.564   7.413
  259POPC   NC3 6827  36.270  40.867   9.633
  259POPC   PO4 6828  35.894  40.364   9.519
  259POPC   GL1 6829  36.162  40.647   9.193
  259POPC   GL2 6830  36.043  41.029   9.205
  259POPC   C1A 6831  36.234  40.881   8.780
  259POPC   D2A 6832  36.376  41.067   8.405
  259POPC   C3A 6833  36.287  40.733   8.182
  259POPC   C4A 6834  36.253  40.584   7.811
  259POPC   C1B 6835  35.764  41.120   8.846
  259POPC   C2B 6836  35.893  41.233   8.439
  259POPC   C3B 6837  35.826  41.080   8.048
  259POPC   C4B 6838  35.642  41.057   7.640
  260POPC   NC3 6839  24.974  14.160   9.602
  260POPC   PO4 6840  25.527  14.554   9.551
  260POPC   GL1 6841  25.219  14.450   9.257
  260POPC   GL2 6842  25.223  14.087   9.171
  260POPC   C1A 6843  25.178  14.623   8.894
  260POPC   D2A 6844  25.327  14.605   8.470
  260POPC   C3A 6845  25.137  14.733   8.122
  260POPC   C4A 6846  25.141  14.590   7.741
  260POPC   C1B 6847  25.362  14.153   8.740
  260POPC   C2B 6848  25.225  14.096   8.311
  260POPC   C3B 6849  25.136  14.101   7.870
  260POPC   C4B 6850  25.445  14.226   7.544
  261POPC   NC3 6851  43.473  36.517   9.337
  261POPC   PO4 6852  42.838  36.321   9.498
  261POPC   GL1 6853  42.971  35.965   9.204
  261POPC   GL2 6854  43.168  36.205   9.041
  261POPC   C1A 6855  43.077  35.806   8.751
  261POPC   D2A 6856  43.015  36.110   8.435
  261POPC   C3A 6857  43.095  36.031   8.015
  261POPC   C4A 6858  42.974  36.265   7.674
  261POPC   C1B 6859  43.269  36.509   8.727
  261POPC   C2B 6860  43.398  36.439   8.323
  261POPC   C3B 6861  43.441  36.408   7.909
  261POPC   C4B 6862  43.451  36.095   7.632
  262POPC   NC3 6863  19.196  36.770   9.564
  262POPC   PO4 6864  18.694  36.465   9.492
  262POPC   GL1 6865  18.915  36.732   9.138
  262POPC   GL2 6866  19.256  36.942   9.094
  262POPC   C1A 6867  18.910  36.878   8.717
  262POPC   D2A 6868  18.675  37.012   8.379
  262POPC   C3A 6869  18.894  36.954   8.027
  262POPC   C4A 6870  19.076  36.839   7.679
  262POPC   C1B 6871  19.431  37.111   8.705
  262POPC   C2B 6872  19.291  37.106   8.282
  262POPC   C3B 6873  19.486  37.089   7.862
  262POPC   C4B 6874  19.445  36.986   7.373
  263POPC   NC3 6875  23.487  23.964   9.399
  263POPC   PO4 6876  23.901  23.511   9.307
  263POPC   GL1 6877  23.816  23.817   9.039
  263POPC   GL2 6878  23.943  24.152   9.168
  263POPC   C1A 6879  23.783  23.683   8.644
  263POPC   D2A 6880  23.544  23.507   8.352
  263POPC   C3A 6881  23.819  23.368   8.055
  263POPC   C4A 6882  23.609  23.397   7.689
  263POPC   C1B 6883  24.004  24.143   8.704
  263POPC   C2B 6884  23.993  24.009   8.290
  263POPC   C3B 6885  23.778  23.850   7.928
  263POPC   C4B 6886  23.832  23.804   7.477
  264POPC   NC3 6887   9.005  39.953   9.414
  264POPC   PO4 6888   8.526  40.437   9.401
  264POPC   GL1 6889   8.768  40.255   9.071
  264POPC   GL2 6890   8.752  39.879   8.993
  264POPC   C1A 6891   8.903  40.238   8.643
  264POPC   D2A 6892   8.686  39.989   8.359
  264POPC   C3A 6893   8.865  40.012   7.961
  264POPC   C4A 6894   9.200  40.200   7.740
  264POPC   C1B 6895   8.867  39.599   8.681
  264POPC   C2B 6896   8.916  39.548   8.279
  264POPC   C3B 6897   8.966  39.507   7.875
  264POPC   C4B 6898   9.117  39.729   7.568
  265POPC   NC3 6899  20.015  13.733   9.519
  265POPC   PO4 6900  19.507  13.227   9.504
  265POPC   GL1 6901  19.718  13.292   9.104
  265POPC   GL2 6902  20.053  13.389   9.117
  265POPC   C1A 6903  19.818  13.487   8.688
  265POPC   D2A 6904  19.652  13.827   8.427
  265POPC   C3A 6905  19.815  13.818   7.997
  265POPC   C4A 6906  20.093  13.472   7.878
  265POPC   C1B 6907  20.279  13.705   8.887
  265POPC   C2B 6908  20.265  13.725   8.446
  265POPC   C3B 6909  20.347  13.878   8.063
  265POPC   C4B 6910  20.211  13.936   7.660
  266POPC   NC3 6911  41.223  19.026   9.799
  266POPC   PO4 6912  40.591  18.904   9.511
  266POPC   GL1 6913  40.574  18.846   9.081
  266POPC   GL2 6914  40.322  19.107   9.001
  266POPC   C1A 6915  40.925  18.896   8.763
  266POPC   D2A 6916  40.875  19.082   8.351
  266POPC   C3A 6917  41.149  19.038   7.995
  266POPC   C4A 6918  41.172  19.383   7.720
  266POPC   C1B 6919  40.441  18.965   8.603
  266POPC   C2B 6920  40.395  19.060   8.163
  266POPC   C3B 6921  40.643  19.191   7.821
  266POPC   C4B 6922  40.711  19.461   7.467
  267POPC   NC3 6923  24.616  35.734   9.604
  267POPC   PO4 6924  24.301  36.360   9.480
  267POPC   GL1 6925  24.569  36.060   9.196
  267POPC   GL2 6926  24.785  35.741   9.132
  267POPC   C1A 6927  24.585  36.149   8.777
  267POPC   D2A 6928  24.213  36.237   8.507
  267POPC   C3A 6929  24.351  36.320   8.088
  267POPC   C4A 6930  24.584  36.353   7.700
  267POPC   C1B 6931  24.628  35.639   8.731
  267POPC   C2B 6932  24.505  35.871   8.341
  267POPC   C3B 6933  24.534  35.864   7.910
  267POPC   C4B 6934  24.446  35.753   7.520
  268POPC   NC3 6935  26.599  27.476   9.445
  268POPC   PO4 6936  27.009  28.047   9.541
  268POPC   GL1 6937  26.966  27.750   9.207
  268POPC   GL2 6938  26.665  27.913   9.138
  268POPC   C1A 6939  26.774  27.543   8.816
  268POPC   D2A 6940  26.844  27.653   8.410
  268POPC   C3A 6941  26.616  27.621   8.042
  268POPC   C4A 6942  26.743  27.307   7.785
  268POPC   C1B 6943  26.371  27.903   8.803
  268POPC   C2B 6944  26.289  27.815   8.401
  268POPC   C3B 6945  26.323  28.055   8.025
  268POPC   C4B 6946  26.590  28.062   7.697
  269POPC   NC3 6947  29.419  34.209   9.374
  269POPC   PO4 6948  28.885  34.597   9.372
  269POPC   GL1 6949  29.114  34.504   9.021
  269POPC   GL2 6950  29.438  34.618   8.967
  269POPC   C1A 6951  29.054  34.434   8.589
  269POPC   D2A 6952  28.951  34.333   8.166
  269POPC   C3A 6953  29.193  34.541   7.878
  269POPC   C4A 6954  29.053  34.508   7.464
  269POPC   C1B 6955  29.542  34.271   8.706
  269POPC   C2B 6956  29.455  34.298   8.271
  269POPC   C3B 6957  29.662  34.196   7.898
  269POPC   C4B 6958  29.544  34.376   7.508
  270POPC   NC3 6959   0.260  27.398   9.634
  270POPC   PO4 6960   0.900  27.578   9.702
  270POPC   GL1 6961   0.550  27.595   9.269
  270POPC   GL2 6962   0.208  27.502   9.143
  270POPC   C1A 6963   0.545  27.791   8.850
  270POPC   D2A 6964   0.607  27.625   8.428
  270POPC   C3A 6965   0.387  27.806   8.082
  270POPC   C4A 6966   0.523  28.005   7.701
  270POPC   C1B 6967   0.133  27.517   8.714
  270POPC   C2B 6968   0.176  27.339   8.323
  270POPC   C3B 6969   0.383  27.285   7.970
  270POPC   C4B 6970   0.540  27.513   7.653
  271POPC   NC3 6971  31.598  11.527   9.634
  271POPC   PO4 6972  31.095  11.116   9.458
  271POPC   GL1 6973  31.284  11.436   9.214
  271POPC   GL2 6974  31.650  11.356   9.177
  271POPC   C1A 6975  31.301  11.628   8.820
  271POPC   D2A 6976  31.298  11.402   8.436
  271POPC   C3A 6977  31.218  11.577   8.003
  271POPC   C4A 6978  31.204  11.439   7.539
  271POPC   C1B 6979  31.736  11.321   8.781
  271POPC   C2B 6980  31.798  11.260   8.375
  271POPC   C3B 6981  31.541  11.179   8.051
  271POPC   C4B 6982  31.606  11.150   7.651
  272POPC   NC3 6983  33.266   1.764   9.482
  272POPC   PO4 6984  32.634   1.984   9.571
  272POPC   GL1 6985  32.867   2.054   9.174
  272POPC   GL2 6986  33.034   2.376   9.139
  272POPC   C1A 6987  32.944   2.063   8.723
  272POPC   D2A 6988  32.898   1.769   8.399
  272POPC   C3A 6989  32.953   1.970   8.091
  272POPC   C4A 6990  32.703   2.145   7.852
  272POPC   C1B 6991  33.324   2.396   8.754
  272POPC   C2B 6992  33.195   2.383   8.313
  272POPC   C3B 6993  33.191   2.355   7.850
  272POPC   C4B 6994  33.346   2.428   7.446
  273POPC   NC3 6995  25.444  25.799   9.351
  273POPC   PO4 6996  25.268  26.457   9.468
  273POPC   GL1 6997  25.409  26.253   9.132
  273POPC   GL2 6998  25.132  26.013   8.988
  273POPC   C1A 6999  25.567  26.128   8.742
  273POPC   D2A 7000  25.299  26.070   8.416
  273POPC   C3A 7001  25.563  26.179   8.113
  273POPC   C4A 7002  25.629  26.149   7.727
  273POPC   C1B 7003  25.336  25.646   8.727
  273POPC   C2B 7004  25.451  25.544   8.305
  273POPC   C3B 7005  25.263  25.789   7.976
  273POPC   C4B 7006  25.331  25.791   7.532
  274POPC   NC3 7007  42.455  14.605   9.524
  274POPC   PO4 7008  41.777  14.733   9.478
  274POPC   GL1 7009  41.985  14.480   9.143
  274POPC   GL2 7010  42.361  14.445   9.059
  274POPC   C1A 7011  41.989  14.408   8.684
  274POPC   D2A 7012  42.250  14.613   8.383
  274POPC   C3A 7013  42.235  14.573   7.975
  274POPC   C4A 7014  42.598  14.497   7.795
  274POPC   C1B 7015  42.339  14.045   8.825
  274POPC   C2B 7016  42.266  14.081   8.395
  274POPC   C3B 7017  42.405  14.035   8.007
  274POPC   C4B 7018  42.221  14.166   7.620
  275POPC   NC3 7019  38.717  35.814   9.478
  275POPC   PO4 7020  38.388  36.439   9.392
  275POPC   GL1 7021  38.457  36.090   9.120
  275POPC   GL2 7022  38.738  35.894   8.992
  275POPC   C1A 7023  38.317  36.064   8.697
  275POPC   D2A 7024  38.225  36.397   8.377
  275POPC   C3A 7025  38.078  36.162   8.033
  275POPC   C4A 7026  38.181  35.876   7.704
  275POPC   C1B 7027  38.804  36.246   8.740
  275POPC   C2B 7028  38.693  36.226   8.297
  275POPC   C3B 7029  38.648  36.015   7.914
  275POPC   C4B 7030  38.956  36.141   7.633
  276POPC   NC3 7031   7.158  30.185   9.922
  276POPC   PO4 7032   7.665  30.163   9.457
  276POPC   GL1 7033   7.671  29.886   9.100
  276POPC   GL2 7034   7.320  29.742   8.983
  276POPC   C1A 7035   7.592  30.031   8.693
  276POPC   D2A 7036   7.438  29.890   8.322
  276POPC   C3A 7037   7.526  30.105   7.941
  276POPC   C4A 7038   7.107  30.221   7.769
  276POPC   C1B 7039   7.125  29.552   8.642
  276POPC   C2B 7040   7.260  29.419   8.233
  276POPC   C3B 7041   7.174  29.714   7.922
  276POPC   C4B 7042   7.104  29.699   7.500
  277POPC   NC3 7043  15.676  43.410   9.531
  277POPC   PO4 7044  16.068  42.855   9.630
  277POPC   GL1 7045  15.933  42.928   9.217
  277POPC   GL2 7046  16.182  43.188   9.136
  277POPC   C1A 7047  15.782  43.154   8.837
  277POPC   D2A 7048  15.970  43.265   8.441
  277POPC   C3A 7049  15.719  43.069   8.112
  277POPC   C4A 7050  15.659  43.226   7.724
  277POPC   C1B 7051  16.320  43.025   8.733
  277POPC   C2B 7052  16.470  43.169   8.337
  277POPC   C3B 7053  16.241  43.192   7.977
  277POPC   C4B 7054  16.064  42.882   7.772
  278POPC   NC3 7055   9.051  13.414   9.498
  278POPC   PO4 7056   8.833  13.993   9.479
  278POPC   GL1 7057   8.788  13.689   9.132
  278POPC   GL2 7058   9.131  13.548   9.014
  278POPC   C1A 7059   8.670  13.636   8.706
  278POPC   D2A 7060   8.846  13.759   8.322
  278POPC   C3A 7061   8.749  14.028   8.002
  278POPC   C4A 7062   8.869  13.836   7.655
  278POPC   C1B 7063   9.004  13.261   8.709
  278POPC   C2B 7064   8.844  13.247   8.308
  278POPC   C3B 7065   9.060  13.439   7.995
  278POPC   C4B 7066   9.230  13.491   7.628
  279POPC   NC3 7067  40.189   0.878   9.889
  279POPC   PO4 7068  40.341   0.400   9.441
  279POPC   GL1 7069  40.150   0.306   9.094
  279POPC   GL2 7070  39.891   0.080   9.165
  279POPC   C1A 7071  40.086   0.406   8.672
  279POPC   D2A 7072  40.161   0.154   8.317
  279POPC   C3A 7073  39.987   0.308   7.933
  279POPC   C4A 7074  40.259   0.451   7.650
  279POPC   C1B 7075  39.660   0.093   8.779
  279POPC   C2B 7076  39.661   0.288   8.364
  279POPC   C3B 7077  39.697   0.686   8.138
  279POPC   C4B 7078  39.773   0.767   7.697
  280POPC   NC3 7079   0.991  12.606   9.424
  280POPC   PO4 7080   1.553  13.047   9.425
  280POPC   GL1 7081   1.374  12.787   9.146
  280POPC   GL2 7082   1.040  12.977   9.064
  280POPC   C1A 7083   1.290  12.695   8.746
  280POPC   D2A 7084   1.178  12.931   8.387
  280POPC   C3A 7085   1.564  12.971   8.115
  280POPC   C4A 7086   1.600  12.682   7.769
  280POPC   C1B 7087   0.823  13.242   8.765
  280POPC   C2B 7088   0.552  13.137   8.421
  280POPC   C3B 7089   0.734  12.944   8.084
  280POPC   C4B 7090   1.118  13.041   7.874
  281POPC   NC3 7091  22.586   3.936   9.451
  281POPC   PO4 7092  23.169   3.528   9.418
  281POPC   GL1 7093  22.927   3.648   9.107
  281POPC   GL2 7094  22.788   3.292   9.057
  281POPC   C1A 7095  23.089   3.653   8.695
  281POPC   D2A 7096  23.246   3.411   8.381
  281POPC   C3A 7097  22.911   3.331   8.069
  281POPC   C4A 7098  23.049   3.360   7.638
  281POPC   C1B 7099  22.591   3.558   8.728
  281POPC   C2B 7100  22.662   3.743   8.342
  281POPC   C3B 7101  22.447   3.742   7.961
  281POPC   C4B 7102  22.618   3.626   7.573
  282POPC   NC3 7103  29.695   2.250   9.379
  282POPC   PO4 7104  30.235   2.060   9.728
  282POPC   GL1 7105  30.152   1.862   9.268
  282POPC   GL2 7106  29.798   1.824   9.127
  282POPC   C1A 7107  30.138   1.636   8.828
  282POPC   D2A 7108  29.907   1.622   8.435
  282POPC   C3A 7109  30.065   1.915   8.157
  282POPC   C4A 7110  30.079   1.845   7.715
  282POPC   C1B 7111  29.875   2.070   8.714
  282POPC   C2B 7112  29.655   2.256   8.322
  282POPC   C3B 7113  29.660   2.133   7.888
  282POPC   C4B 7114  29.796   2.254   7.479
  283POPC   NC3 7115  24.414   3.292   9.579
  283POPC   PO4 7116  24.254   3.888   9.296
  283POPC   GL1 7117  24.471   3.549   9.080
  283POPC   GL2 7118  24.577   3.196   9.114
  283POPC   C1A 7119  24.490   3.577   8.635
  283POPC   D2A 7120  24.386   3.845   8.283
  283POPC   C3A 7121  24.249   3.633   7.920
  283POPC   C4A 7122  24.219   3.429   7.523
  283POPC   C1B 7123  24.836   3.222   8.760
  283POPC   C2B 7124  24.949   3.179   8.351
  283POPC   C3B 7125  24.748   3.469   8.074
  283POPC   C4B 7126  24.693   3.660   7.669
  284POPC   NC3 7127   0.796  35.222   9.582
  284POPC   PO4 7128   1.298  35.638   9.541
  284POPC   GL1 7129   1.045  35.519   9.197
  284POPC   GL2 7130   1.084  35.160   9.146
  284POPC   C1A 7131   1.175  35.498   8.778
  284POPC   D2A 7132   1.335  35.197   8.476
  284POPC   C3A 7133   1.302  35.342   8.086
  284POPC   C4A 7134   1.267  35.276   7.674
  284POPC   C1B 7135   0.832  35.150   8.744
  284POPC   C2B 7136   0.842  35.340   8.323
  284POPC   C3B 7137   0.834  35.145   7.877
  284POPC   C4B 7138   0.850  35.289   7.391
  285POPC   NC3 7139  30.480  26.659   9.380
  285POPC   PO4 7140  30.828  27.179   9.573
  285POPC   GL1 7141  30.888  26.938   9.219
  285POPC   GL2 7142  30.962  26.567   9.228
  285POPC   C1A 7143  30.690  26.960   8.845
  285POPC   D2A 7144  30.850  27.075   8.503
  285POPC   C3A 7145  30.768  26.801   8.213
  285POPC   C4A 7146  30.753  26.742   7.798
  285POPC   C1B 7147  31.068  26.598   8.815
  285POPC   C2B 7148  31.002  26.344   8.445
  285POPC   C3B 7149  30.813  26.318   8.058
  285POPC   C4B 7150  30.977  26.279   7.658
  286POPC   NC3 7151  32.200  40.368   9.791
  286POPC   PO4 7152  32.559  39.808   9.611
  286POPC   GL1 7153  32.356  40.029   9.284
  286POPC   GL2 7154  32.091  39.791   9.235
  286POPC   C1A 7155  32.465  39.990   8.831
  286POPC   D2A 7156  32.698  39.820   8.451
  286POPC   C3A 7157  32.544  39.948   8.062
  286POPC   C4A 7158  32.260  40.170   7.823
  286POPC   C1B 7159  32.078  39.670   8.795
  286POPC   C2B 7160  32.176  39.802   8.384
  286POPC   C3B 7161  32.126  39.688   7.932
  286POPC   C4B 7162  31.830  39.579   7.643
  287POPC   NC3 7163   7.579  44.289   9.411
  287POPC   PO4 7164   7.508  43.682   9.548
  287POPC   GL1 7165   7.388  43.836   9.170
  287POPC   GL2 7166   7.130  44.102   9.197
  287POPC   C1A 7167   7.285  43.676   8.779
  287POPC   D2A 7168   7.164  43.885   8.403
  287POPC   C3A 7169   7.227  43.690   8.012
  287POPC   C4A 7170   7.377  43.801   7.610
  287POPC   C1B 7171   7.337  44.202   8.793
  287POPC   C2B 7172   7.515  44.277   8.404
  287POPC   C3B 7173   7.355  44.211   7.989
  287POPC   C4B 7174   7.176  44.401   7.618
  288POPC   NC3 7175  24.969   2.538   9.579
  288POPC   PO4 7176  24.296   2.660   9.490
  288POPC   GL1 7177  24.286   2.771   9.105
  288POPC   GL2 7178  24.052   3.020   9.134
  288POPC   C1A 7179  24.562   2.784   8.739
  288POPC   D2A 7180  24.524   2.616   8.337
  288POPC   C3A 7181  24.732   2.836   8.016
  288POPC   C4A 7182  24.826   2.975   7.592
  288POPC   C1B 7183  24.216   3.148   8.747
  288POPC   C2B 7184  24.412   3.144   8.357
  288POPC   C3B 7185  24.145   3.152   8.003
  288POPC   C4B 7186  24.303   2.962   7.702
  289POPC   NC3 7187  22.560  14.377   9.566
  289POPC   PO4 7188  23.162  14.708   9.458
  289POPC   GL1 7189  23.062  14.527   9.084
  289POPC   GL2 7190  22.906  14.268   9.111
  289POPC   C1A 7191  22.984  14.554   8.634
  289POPC   D2A 7192  22.797  14.873   8.354
  289POPC   C3A 7193  22.913  14.751   7.952
  289POPC   C4A 7194  23.090  14.333   7.826
  289POPC   C1B 7195  22.573  14.496   8.920
  289POPC   C2B 7196  22.471  14.478   8.506
  289POPC   C3B 7197  22.568  14.389   8.082
  289POPC   C4B 7198  22.577  14.455   7.673
  290POPC   NC3 7199  15.946   5.679   9.638
  290POPC   PO4 7200  15.925   6.365   9.587
  290POPC   GL1 7201  16.096   6.069   9.257
  290POPC   GL2 7202  15.778   5.945   9.200
  290POPC   C1A 7203  16.285   5.889   8.828
  290POPC   D2A 7204  16.318   6.061   8.354
  290POPC   C3A 7205  16.156   5.873   7.925
  290POPC   C4A 7206  16.275   5.866   7.441
  290POPC   C1B 7207  15.779   6.006   8.771
  290POPC   C2B 7208  15.829   5.723   8.427
  290POPC   C3B 7209  15.656   5.751   8.038
  290POPC   C4B 7210  15.711   6.153   7.898
  291POPC   NC3 7211   0.964  36.791   9.413
  291POPC   PO4 7212   1.380  37.313   9.587
  291POPC   GL1 7213   1.144  37.207   9.199
  291POPC   GL2 7214   1.457  37.113   9.077
  291POPC   C1A 7215   1.076  36.905   8.799
  291POPC   D2A 7216   1.386  36.731   8.505
  291POPC   C3A 7217   1.154  36.712   8.137
  291POPC   C4A 7218   1.111  36.609   7.720
  291POPC   C1B 7219   1.287  37.348   8.728
  291POPC   C2B 7220   1.244  37.206   8.309
  291POPC   C3B 7221   1.301  37.257   7.873
  291POPC   C4B 7222   0.967  37.180   7.574
  292POPC   NC3 7223  29.342  18.029   9.494
  292POPC   PO4 7224  28.675  18.301   9.506
  292POPC   GL1 7225  28.920  18.148   9.171
  292POPC   GL2 7226  29.250  18.287   9.039
  292POPC   C1A 7227  28.934  18.023   8.758
  292POPC   D2A 7228  29.194  18.090   8.429
  292POPC   C3A 7229  29.019  18.170   8.027
  292POPC   C4A 7230  29.265  18.293   7.674
  292POPC   C1B 7231  28.997  18.534   8.726
  292POPC   C2B 7232  29.077  18.619   8.291
  292POPC   C3B 7233  28.911  18.683   7.862
  292POPC   C4B 7234  28.830  18.590   7.386
  293POPC   NC3 7235  31.221  35.110   9.440
  293POPC   PO4 7236  30.637  35.280   9.731
  293POPC   GL1 7237  30.730  35.254   9.291
  293POPC   GL2 7238  30.956  35.530   9.308
  293POPC   C1A 7239  30.659  35.121   8.856
  293POPC   D2A 7240  30.868  35.197   8.460
  293POPC   C3A 7241  30.587  35.132   8.085
  293POPC   C4A 7242  30.537  34.991   7.647
  293POPC   C1B 7243  30.908  35.558   8.865
  293POPC   C2B 7244  30.648  35.682   8.513
  293POPC   C3B 7245  30.719  35.739   8.065
  293POPC   C4B 7246  30.710  35.491   7.714
  294POPC   NC3 7247  24.440  39.614   9.541
  294POPC   PO4 7248  24.716  40.217   9.340
  294POPC   GL1 7249  24.446  39.923   9.115
  294POPC   GL2 7250  24.562  39.556   9.041
  294POPC   C1A 7251  24.251  40.167   8.798
  294POPC   D2A 7252  24.425  40.373   8.437
  294POPC   C3A 7253  24.331  40.219   8.015
  294POPC   C4A 7254  24.696  40.098   7.804
  294POPC   C1B 7255  24.432  39.714   8.637
  294POPC   C2B 7256  24.480  39.769   8.207
  294POPC   C3B 7257  24.409  39.686   7.777
  294POPC   C4B 7258  24.341  39.564   7.366
  295POPC   NC3 7259  11.520   5.588   9.288
  295POPC   PO4 7260  11.308   6.234   9.464
  295POPC   GL1 7261  11.364   6.035   9.115
  295POPC   GL2 7262  11.047   5.903   9.048
  295POPC   C1A 7263  11.421   5.908   8.696
  295POPC   D2A 7264  11.589   5.848   8.304
  295POPC   C3A 7265  11.374   6.038   7.957
  295POPC   C4A 7266  11.499   6.166   7.539
  295POPC   C1B 7267  10.837   5.771   8.693
  295POPC   C2B 7268  11.087   5.721   8.322
  295POPC   C3B 7269  11.183   5.568   7.931
  295POPC   C4B 7270  11.155   5.774   7.540
  296POPC   NC3 7271  21.411  16.092   9.554
  296POPC   PO4 7272  21.241  15.396   9.432
  296POPC   GL1 7273  21.457  15.652   9.132
  296POPC   GL2 7274  21.435  15.999   9.067
  296POPC   C1A 7275  21.454  15.711   8.656
  296POPC   D2A 7276  21.648  15.820   8.256
  296POPC   C3A 7277  21.317  15.982   7.957
  296POPC   C4A 7278  21.098  15.951   7.536
  296POPC   C1B 7279  21.508  16.231   8.707
  296POPC   C2B 7280  21.640  16.327   8.292
  296POPC   C3B 7281  21.792  16.161   7.888
  296POPC   C4B 7282  21.547  16.207   7.516
  297POPC   NC3 7283  44.722  37.673   9.728
  297POPC   PO4 7284  44.585  38.097   9.213
  297POPC   GL1 7285  44.849  37.849   9.034
  297POPC   GL2 7286  44.812  37.545   9.226
  297POPC   C1A 7287  44.867  37.729   8.604
  297POPC   D2A 7288  44.579  37.741   8.257
  297POPC   C3A 7289  44.665  37.727   7.825
  297POPC   C4A 7290  44.479  37.942   7.459
  297POPC   C1B 7291  44.661  37.307   8.858
  297POPC   C2B 7292  44.878  37.188   8.473
  297POPC   C3B 7293  44.983  37.288   8.036
  297POPC   C4B 7294  44.634  37.225   7.747
  298POPC   NC3 7295  39.311  12.860   9.744
  298POPC   PO4 7296  39.589  12.664   9.208
  298POPC   GL1 7297  39.198  12.921   8.998
  298POPC   GL2 7298  38.886  12.944   9.144
  298POPC   C1A 7299  39.097  13.245   8.690
  298POPC   D2A 7300  39.157  13.263   8.237
  298POPC   C3A 7301  39.386  12.883   8.115
  298POPC   C4A 7302  39.405  12.771   7.707
  298POPC   C1B 7303  38.769  12.798   8.725
  298POPC   C2B 7304  38.915  12.823   8.291
  298POPC   C3B 7305  38.925  12.848   7.836
  298POPC   C4B 7306  38.941  12.840   7.357
  299POPC   NC3 7307  12.047  21.292   9.759
  299POPC   PO4 7308  12.258  20.595   9.565
  299POPC   GL1 7309  12.304  20.589   9.122
  299POPC   GL2 7310  11.938  20.596   9.061
  299POPC   C1A 7311  12.254  20.827   8.721
  299POPC   D2A 7312  12.442  20.784   8.335
  299POPC   C3A 7313  12.343  20.541   7.971
  299POPC   C4A 7314  12.339  20.744   7.583
  299POPC   C1B 7315  12.019  20.369   8.708
  299POPC   C2B 7316  11.985  20.519   8.319
  299POPC   C3B 7317  11.847  20.714   7.921
  299POPC   C4B 7318  11.899  20.515   7.496
  300POPC   NC3 7319  24.245  27.109   9.395
  300POPC   PO4 7320  24.576  26.542   9.547
  300POPC   GL1 7321  24.528  26.735   9.178
  300POPC   GL2 7322  24.169  26.633   9.113
  300POPC   C1A 7323  24.652  26.901   8.787
  300POPC   D2A 7324  24.483  26.793   8.387
  300POPC   C3A 7325  24.747  26.786   8.050
  300POPC   C4A 7326  24.925  26.676   7.689
  300POPC   C1B 7327  24.123  26.931   8.771
  300POPC   C2B 7328  24.083  27.098   8.348
  300POPC   C3B 7329  24.091  27.010   7.903
  300POPC   C4B 7330  24.447  26.917   7.665
  301POPC   NC3 7331  10.852   7.753  10.030
  301POPC   PO4 7332  10.308   7.565   9.652
  301POPC   GL1 7333  10.589   7.577   9.278
  301POPC   GL2 7334  10.876   7.825   9.343
  301POPC   C1A 7335  10.657   7.459   8.829
  301POPC   D2A 7336  10.465   7.429   8.395
  301POPC   C3A 7337  10.678   7.240   8.014
  301POPC   C4A 7338  10.551   7.268   7.558
  301POPC   C1B 7339  10.903   7.917   8.879
  301POPC   C2B 7340  10.779   7.829   8.430
  301POPC   C3B 7341  10.686   7.744   7.966
  301POPC   C4B 7342  10.984   7.911   7.672
  302POPC   NC3 7343  34.850  31.184   9.511
  302POPC   PO4 7344  34.503  31.688   9.733
  302POPC   GL1 7345  34.610  31.608   9.308
  302POPC   GL2 7346  34.917  31.698   9.275
  302POPC   C1A 7347  34.488  31.561   8.881
  302POPC   D2A 7348  34.612  31.682   8.469
  302POPC   C3A 7349  34.609  31.408   8.148
  302POPC   C4A 7350  34.551  31.444   7.736
  302POPC   C1B 7351  34.964  31.799   8.845
  302POPC   C2B 7352  35.138  31.738   8.429
  302POPC   C3B 7353  34.948  31.784   8.044
  302POPC   C4B 7354  34.731  31.932   7.684
  303POPC   NC3 7355  36.341   0.982   9.526
  303POPC   PO4 7356  35.836   1.440   9.477
  303POPC   GL1 7357  36.055   1.253   9.145
  303POPC   GL2 7358  36.397   1.329   9.069
  303POPC   C1A 7359  35.942   1.232   8.729
  303POPC   D2A 7360  35.995   1.103   8.339
  303POPC   C3A 7361  36.087   1.422   8.036
  303POPC   C4A 7362  35.920   1.136   7.745
  303POPC   C1B 7363  36.350   0.928   8.825
  303POPC   C2B 7364  36.417   0.800   8.399
  303POPC   C3B 7365  36.352   0.969   7.986
  303POPC   C4B 7366  36.406   0.967   7.559
  304POPC   NC3 7367  39.471  35.911   9.428
  304POPC   PO4 7368  38.908  35.381   9.453
  304POPC   GL1 7369  39.214  35.361   9.134
  304POPC   GL2 7370  39.278  35.008   8.969
  304POPC   C1A 7371  39.106  35.397   8.717
  304POPC   D2A 7372  39.133  35.139   8.393
  304POPC   C3A 7373  39.198  35.402   8.036
  304POPC   C4A 7374  38.990  35.643   7.742
  304POPC   C1B 7375  39.621  35.060   8.679
  304POPC   C2B 7376  39.610  35.125   8.263
  304POPC   C3B 7377  39.388  34.927   7.955
  304POPC   C4B 7378  39.409  35.170   7.598
  305POPC   NC3 7379  33.751  42.781   9.514
  305POPC   PO4 7380  34.183  43.240   9.526
  305POPC   GL1 7381  33.947  43.147   9.166
  305POPC   GL2 7382  33.992  42.817   9.067
  305POPC   C1A 7383  33.818  43.204   8.730
  305POPC   D2A 7384  33.733  43.089   8.318
  305POPC   C3A 7385  33.868  43.311   7.975
  305POPC   C4A 7386  33.688  43.745   7.881
  305POPC   C1B 7387  33.635  42.737   8.788
  305POPC   C2B 7388  33.552  42.602   8.377
  305POPC   C3B 7389  33.551  42.765   7.957
  305POPC   C4B 7390  33.809  42.926   7.622
  306POPC   NC3 7391  16.660  42.649   9.794
  306POPC   PO4 7392  16.859  42.986   9.254
  306POPC   GL1 7393  16.778  42.936   8.904
  306POPC   GL2 7394  16.746  42.573   8.991
  306POPC   C1A 7395  16.819  43.322   8.683
  306POPC   D2A 7396  17.049  43.557   8.392
  306POPC   C3A 7397  16.870  43.391   8.009
  306POPC   C4A 7398  16.958  43.407   7.580
  306POPC   C1B 7399  16.973  42.578   8.612
  306POPC   C2B 7400  16.928  42.915   8.327
  306POPC   C3B 7401  16.686  42.898   7.949
  306POPC   C4B 7402  16.906  42.920   7.599
  307POPC   NC3 7403  16.928  23.319   9.458
  307POPC   PO4 7404  17.463  23.761   9.435
  307POPC   GL1 7405  17.707  23.763   9.045
  307POPC   GL2 7406  17.647  23.449   9.030
  307POPC   C1A 7407  17.682  23.852   8.599
  307POPC   D2A 7408  17.275  23.869   8.381
  307POPC   C3A 7409  17.368  23.722   7.983
  307POPC   C4A 7410  17.756  23.881   7.801
  307POPC   C1B 7411  17.334  23.481   8.772
  307POPC   C2B 7412  17.526  23.425   8.402
  307POPC   C3B 7413  17.800  23.479   8.118
  307POPC   C4B 7414  17.681  23.380   7.705
  308POPC   NC3 7415  12.215  14.850   9.346
  308POPC   PO4 7416  12.272  15.416   9.329
  308POPC   GL1 7417  12.397  15.201   8.980
  308POPC   GL2 7418  12.648  14.986   9.059
  308POPC   C1A 7419  12.200  15.184   8.583
  308POPC   D2A 7420  11.903  15.399   8.299
  308POPC   C3A 7421  11.840  15.182   7.908
  308POPC   C4A 7422  12.007  15.354   7.530
  308POPC   C1B 7423  12.464  14.653   8.794
  308POPC   C2B 7424  12.286  14.696   8.423
  308POPC   C3B 7425  12.360  14.968   8.096
  308POPC   C4B 7426  12.266  14.922   7.692
  309POPC   NC3 7427  28.137   4.357   9.530
  309POPC   PO4 7428  28.753   4.359   9.451
  309POPC   GL1 7429  28.447   4.300   9.106
  309POPC   GL2 7430  28.088   4.230   9.051
  309POPC   C1A 7431  28.422   4.273   8.650
  309POPC   D2A 7432  28.553   4.629   8.386
  309POPC   C3A 7433  28.334   4.688   7.999
  309POPC   C4A 7434  28.614   4.604   7.613
  309POPC   C1B 7435  27.937   4.106   8.659
  309POPC   C2B 7436  28.055   4.138   8.210
  309POPC   C3B 7437  28.066   4.037   7.740
  309POPC   C4B 7438  27.969   4.154   7.272
  310POPC   NC3 7439  39.621  40.695   9.531
  310POPC   PO4 7440  38.972  40.655   9.479
  310POPC   GL1 7441  39.190  40.833   9.167
  310POPC   GL2 7442  39.436  41.041   9.216
  310POPC   C1A 7443  39.085  40.907   8.766
  310POPC   D2A 7444  38.995  40.652   8.431
  310POPC   C3A 7445  39.156  40.832   8.047
  310POPC   C4A 7446  39.120  40.751   7.637
  310POPC   C1B 7447  39.554  41.150   8.807
  310POPC   C2B 7448  39.728  41.270   8.425
  310POPC   C3B 7449  39.625  41.091   8.057
  310POPC   C4B 7450  39.376  41.193   7.717
  311POPC   NC3 7451  34.933  14.786   9.470
  311POPC   PO4 7452  34.397  14.367   9.581
  311POPC   GL1 7453  34.554  14.395   9.202
  311POPC   GL2 7454  34.525  14.740   9.123
  311POPC   C1A 7455  34.435  14.283   8.769
  311POPC   D2A 7456  34.151  14.426   8.448
  311POPC   C3A 7457  34.428  14.443   8.108
  311POPC   C4A 7458  34.548  14.166   7.829
  311POPC   C1B 7459  34.858  14.579   8.845
  311POPC   C2B 7460  34.958  14.521   8.451
  311POPC   C3B 7461  34.912  14.639   8.071
  311POPC   C4B 7462  34.886  14.508   7.683
  312POPC   NC3 7463   5.791  37.429   9.468
  312POPC   PO4 7464   5.867  36.730   9.460
  312POPC   GL1 7465   5.720  36.886   9.087
  312POPC   GL2 7466   5.823  37.223   9.002
  312POPC   C1A 7467   5.518  36.933   8.674
  312POPC   D2A 7468   5.490  37.187   8.311
  312POPC   C3A 7469   5.553  36.968   7.909
  312POPC   C4A 7470   5.389  36.910   7.465
  312POPC   C1B 7471   6.046  36.972   8.699
  312POPC   C2B 7472   5.887  36.826   8.316
  312POPC   C3B 7473   6.107  36.778   7.956
  312POPC   C4B 7474   5.914  36.852   7.562
  313POPC   NC3 7475  38.570  30.142   9.459
  313POPC   PO4 7476  38.848  29.611   9.803
  313POPC   GL1 7477  38.575  29.633   9.360
  313POPC   GL2 7478  38.232  29.806   9.268
  313POPC   C1A 7479  38.581  29.738   8.869
  313POPC   D2A 7480  38.408  29.743   8.427
  313POPC   C3A 7481  38.754  29.782   8.112
  313POPC   C4A 7482  38.548  29.651   7.753
  313POPC   C1B 7483  38.087  29.873   8.833
  313POPC   C2B 7484  38.081  30.164   8.475
  313POPC   C3B 7485  38.091  30.028   8.048
  313POPC   C4B 7486  38.000  30.204   7.654
  314POPC   NC3 7487  44.412  19.669   9.485
  314POPC   PO4 7488  44.997  19.918   9.391
  314POPC   GL1 7489  44.840  19.739   9.062
  314POPC   GL2 7490  44.525  19.904   9.039
  314POPC   C1A 7491  44.784  19.639   8.637
  314POPC   D2A 7492  44.665  19.423   8.268
  314POPC   C3A 7493  44.750  19.656   7.916
  314POPC   C4A 7494  44.304  19.678   7.815
  314POPC   C1B 7495  44.606  20.104   8.655
  314POPC   C2B 7496  44.485  19.955   8.258
  314POPC   C3B 7497  44.543  20.132   7.867
  314POPC   C4B 7498  44.773  20.161   7.483
  315POPC   NC3 7499   7.975  19.355   9.529
  315POPC   PO4 7500   8.560  18.939   9.461
  315POPC   GL1 7501   8.235  19.026   9.172
  315POPC   GL2 7502   8.237  18.682   9.085
  315POPC   C1A 7503   8.116  19.262   8.786
  315POPC   D2A 7504   8.409  19.334   8.433
  315POPC   C3A 7505   8.245  19.283   8.018
  315POPC   C4A 7506   8.358  19.148   7.613
  315POPC   C1B 7507   8.189  18.760   8.685
  315POPC   C2B 7508   8.302  18.835   8.286
  315POPC   C3B 7509   8.116  18.750   7.890
  315POPC   C4B 7510   8.116  18.757   7.433
  316POPC   NC3 7511  15.147  11.608   9.320
  316POPC   PO4 7512  14.703  11.261   9.629
  316POPC   GL1 7513  14.943  11.177   9.183
  316POPC   GL2 7514  14.904  11.414   8.922
  316POPC   C1A 7515  15.305  11.138   8.846
  316POPC   D2A 7516  15.153  11.179   8.422
  316POPC   C3A 7517  15.301  11.380   8.092
  316POPC   C4A 7518  15.210  11.288   7.675
  316POPC   C1B 7519  15.157  11.607   8.672
  316POPC   C2B 7520  14.972  11.702   8.345
  316POPC   C3B 7521  14.869  11.723   7.948
  316POPC   C4B 7522  14.576  11.592   7.680
  317POPC   NC3 7523  23.308  29.188   9.367
  317POPC   PO4 7524  22.731  28.861   9.470
  317POPC   GL1 7525  22.898  28.902   9.065
  317POPC   GL2 7526  22.897  29.221   9.033
  317POPC   C1A 7527  22.874  28.972   8.590
  317POPC   D2A 7528  23.177  29.044   8.270
  317POPC   C3A 7529  23.069  28.910   7.909
  317POPC   C4A 7530  23.251  29.176   7.680
  317POPC   C1B 7531  22.630  29.387   8.731
  317POPC   C2B 7532  22.834  29.463   8.322
  317POPC   C3B 7533  22.865  29.441   7.889
  317POPC   C4B 7534  22.521  29.452   7.633
  318POPC   NC3 7535  33.211  12.509   9.517
  318POPC   PO4 7536  33.373  13.133   9.581
  318POPC   GL1 7537  33.190  12.911   9.200
  318POPC   GL2 7538  32.839  12.997   9.170
  318POPC   C1A 7539  33.061  12.643   8.826
  318POPC   D2A 7540  33.056  12.863   8.419
  318POPC   C3A 7541  32.855  12.802   8.017
  318POPC   C4A 7542  32.967  13.018   7.638
  318POPC   C1B 7543  32.653  12.931   8.764
  318POPC   C2B 7544  32.551  13.050   8.349
  318POPC   C3B 7545  32.562  13.223   7.910
  318POPC   C4B 7546  32.569  13.312   7.421
  319POPC   NC3 7547  34.393  37.255   9.495
  319POPC   PO4 7548  35.050  37.021   9.578
  319POPC   GL1 7549  34.759  37.098   9.162
  319POPC   GL2 7550  34.460  36.879   9.061
  319POPC   C1A 7551  34.875  37.015   8.738
  319POPC   D2A 7552  35.067  37.141   8.352
  319POPC   C3A 7553  34.840  37.099   7.953
  319POPC   C4A 7554  34.627  36.818   7.677
  319POPC   C1B 7555  34.289  36.474   8.840
  319POPC   C2B 7556  34.230  36.259   8.412
  319POPC   C3B 7557  34.285  36.403   7.959
  319POPC   C4B 7558  34.384  36.413   7.471
  320POPC   NC3 7559  35.879  33.728   9.423
  320POPC   PO4 7560  36.474  33.981   9.240
  320POPC   GL1 7561  36.469  33.602   9.059
  320POPC   GL2 7562  36.124  33.691   8.965
  320POPC   C1A 7563  36.468  33.516   8.624
  320POPC   D2A 7564  36.150  33.593   8.353
  320POPC   C3A 7565  36.229  33.694   7.920
  320POPC   C4A 7566  36.149  33.463   7.525
  320POPC   C1B 7567  35.973  34.100   8.862
  320POPC   C2B 7568  36.038  34.220   8.461
  320POPC   C3B 7569  35.908  34.042   8.109
  320POPC   C4B 7570  35.945  34.056   7.683
  321POPC   NC3 7571  26.283  33.832   9.557
  321POPC   PO4 7572  25.578  33.715   9.546
  321POPC   GL1 7573  25.918  33.740   9.217
  321POPC   GL2 7574  26.011  34.095   9.139
  321POPC   C1A 7575  26.196  33.690   8.848
  321POPC   D2A 7576  26.254  33.865   8.432
  321POPC   C3A 7577  26.173  33.588   8.090
  321POPC   C4A 7578  26.423  33.509   7.728
  321POPC   C1B 7579  25.856  34.081   8.719
  321POPC   C2B 7580  25.771  34.125   8.267
  321POPC   C3B 7581  25.909  34.064   7.811
  321POPC   C4B 7582  25.746  34.125   7.358
  322POPC   NC3 7583  18.439  14.944   9.404
  322POPC   PO4 7584  18.407  15.562   9.667
  322POPC   GL1 7585  18.346  15.510   9.203
  322POPC   GL2 7586  18.008  15.390   9.134
  322POPC   C1A 7587  18.460  15.272   8.772
  322POPC   D2A 7588  18.771  15.079   8.466
  322POPC   C3A 7589  18.683  15.148   8.014
  322POPC   C4A 7590  18.523  15.015   7.567
  322POPC   C1B 7591  18.151  15.688   8.783
  322POPC   C2B 7592  18.313  15.773   8.368
  322POPC   C3B 7593  18.274  15.458   8.041
  322POPC   C4B 7594  18.092  15.261   7.692
  323POPC   NC3 7595  33.695  35.398   9.628
  323POPC   PO4 7596  34.111  35.838   9.270
  323POPC   GL1 7597  33.878  35.503   9.079
  323POPC   GL2 7598  33.551  35.338   9.155
  323POPC   C1A 7599  33.650  35.522   8.696
  323POPC   D2A 7600  33.463  35.410   8.359
  323POPC   C3A 7601  33.694  35.549   8.012
  323POPC   C4A 7602  33.504  35.783   7.722
  323POPC   C1B 7603  33.722  35.064   8.852
  323POPC   C2B 7604  33.823  35.049   8.443
  323POPC   C3B 7605  33.610  35.043   8.063
  323POPC   C4B 7606  33.780  35.147   7.673
  324POPC   NC3 7607  30.767  11.517   9.521
  324POPC   PO4 7608  30.314  10.964   9.677
  324POPC   GL1 7609  30.390  11.222   9.254
  324POPC   GL2 7610  30.740  11.276   9.084
  324POPC   C1A 7611  30.296  11.484   8.854
  324POPC   D2A 7612  30.466  11.660   8.443
  324POPC   C3A 7613  30.472  11.320   8.111
  324POPC   C4A 7614  30.511  10.998   7.781
  324POPC   C1B 7615  31.024  11.097   8.780
  324POPC   C2B 7616  30.943  11.054   8.326
  324POPC   C3B 7617  30.975  11.149   7.892
  324POPC   C4B 7618  30.690  11.452   7.628
  325POPC   NC3 7619  17.742  20.859   9.610
  325POPC   PO4 7620  18.495  20.876   9.586
  325POPC   GL1 7621  18.145  20.744   9.222
  325POPC   GL2 7622  18.185  20.376   9.080
  325POPC   C1A 7623  18.256  20.748   8.757
  325POPC   D2A 7624  18.059  20.849   8.354
  325POPC   C3A 7625  18.191  21.008   7.980
  325POPC   C4A 7626  18.174  20.758   7.634
  325POPC   C1B 7627  17.892  20.220   8.760
  325POPC   C2B 7628  17.881  20.277   8.341
  325POPC   C3B 7629  18.218  20.394   8.101
  325POPC   C4B 7630  18.235  20.219   7.730
  326POPC   NC3 7631  34.118  14.027   9.388
  326POPC   PO4 7632  33.709  13.603   9.652
  326POPC   GL1 7633  33.653  13.695   9.225
  326POPC   GL2 7634  33.975  13.596   9.058
  326POPC   C1A 7635  33.532  13.567   8.810
  326POPC   D2A 7636  33.772  13.295   8.565
  326POPC   C3A 7637  33.705  13.311   8.121
  326POPC   C4A 7638  33.805  13.568   7.786
  326POPC   C1B 7639  34.275  13.737   8.720
  326POPC   C2B 7640  34.357  13.928   8.287
  326POPC   C3B 7641  34.344  13.695   7.859
  326POPC   C4B 7642  34.180  13.513   7.454
  327POPC   NC3 7643  13.868   7.274   9.795
  327POPC   PO4 7644  13.262   7.388   9.714
  327POPC   GL1 7645  13.401   7.482   9.263
  327POPC   GL2 7646  13.388   7.190   9.045
  327POPC   C1A 7647  13.468   7.650   8.814
  327POPC   D2A 7648  13.552   7.425   8.385
  327POPC   C3A 7649  13.578   7.664   7.978
  327POPC   C4A 7650  13.236   7.791   7.666
  327POPC   C1B 7651  13.713   7.081   8.751
  327POPC   C2B 7652  13.991   7.089   8.407
  327POPC   C3B 7653  13.786   7.116   8.014
  327POPC   C4B 7654  13.799   7.330   7.658
  328POPC   NC3 7655  10.040   0.769   9.409
  328POPC   PO4 7656   9.536   1.220   9.455
  328POPC   GL1 7657   9.798   1.173   9.161
  328POPC   GL2 7658   9.661   0.851   9.083
  328POPC   C1A 7659  10.046   1.064   8.815
  328POPC   D2A 7660  10.139   0.987   8.432
  328POPC   C3A 7661   9.838   1.228   8.220
  328POPC   C4A 7662   9.862   1.303   7.793
  328POPC   C1B 7663   9.496   1.064   8.754
  328POPC   C2B 7664   9.354   1.089   8.354
  328POPC   C3B 7665   9.456   0.965   7.966
  328POPC   C4B 7666   9.395   1.174   7.599
  329POPC   NC3 7667   3.743  16.790   9.358
  329POPC   PO4 7668   3.031  16.981   9.467
  329POPC   GL1 7669   3.261  16.696   9.174
  329POPC   GL2 7670   3.380  16.992   9.080
  329POPC   C1A 7671   3.460  16.640   8.715
  329POPC   D2A 7672   3.701  16.671   8.295
  329POPC   C3A 7673   3.383  16.663   7.952
  329POPC   C4A 7674   3.200  16.430   7.644
  329POPC   C1B 7675   3.527  17.139   8.726
  329POPC   C2B 7676   3.377  17.073   8.312
  329POPC   C3B 7677   3.650  17.086   7.968
  329POPC   C4B 7678   3.615  16.986   7.525
  330POPC   NC3 7679  31.804  18.036   9.468
  330POPC   PO4 7680  31.261  18.264   9.533
  330POPC   GL1 7681  31.299  18.259   9.107
  330POPC   GL2 7682  31.646  18.282   9.038
  330POPC   C1A 7683  31.323  18.418   8.675
  330POPC   D2A 7684  31.645  18.270   8.412
  330POPC   C3A 7685  31.579  18.400   8.042
  330POPC   C4A 7686  31.576  18.341   7.637
  330POPC   C1B 7687  31.781  18.602   8.775
  330POPC   C2B 7688  31.659  18.789   8.396
  330POPC   C3B 7689  31.942  18.786   8.072
  330POPC   C4B 7690  32.031  18.591   7.685
  331POPC   NC3 7691  37.859  26.400   9.527
  331POPC   PO4 7692  38.443  26.809   9.601
  331POPC   GL1 7693  38.571  26.770   9.198
  331POPC   GL2 7694  38.491  27.121   9.165
  331POPC   C1A 7695  38.512  26.553   8.807
  331POPC   D2A 7696  38.609  26.466   8.401
  331POPC   C3A 7697  38.351  26.566   8.030
  331POPC   C4A 7698  38.447  26.647   7.608
  331POPC   C1B 7699  38.598  27.049   8.745
  331POPC   C2B 7700  38.437  26.980   8.326
  331POPC   C3B 7701  38.677  26.974   7.930
  331POPC   C4B 7702  38.746  27.281   7.599
  332POPC   NC3 7703  39.392  44.563   9.862
  332POPC   PO4 7704  38.879  44.791   9.534
  332POPC   GL1 7705  38.916  44.616   9.156
  332POPC   GL2 7706  39.248  44.521   9.172
  332POPC   C1A 7707  39.145  44.776   8.766
  332POPC   D2A 7708  39.311  44.687   8.427
  332POPC   C3A 7709  39.366  44.931   8.124
  332POPC   C4A 7710  39.134  44.895   7.786
  332POPC   C1B 7711  39.587  44.518   8.824
  332POPC   C2B 7712  39.633  44.282   8.461
  332POPC   C3B 7713  39.576  44.449   8.031
  332POPC   C4B 7714  39.406  44.472   7.618
  333POPC   NC3 7715  33.284  17.694   9.623
  333POPC   PO4 7716  32.934  17.106   9.557
  333POPC   GL1 7717  32.991  17.479   9.239
  333POPC   GL2 7718  33.354  17.485   9.172
  333POPC   C1A 7719  32.910  17.737   8.839
  333POPC   D2A 7720  32.852  17.510   8.472
  333POPC   C3A 7721  32.748  17.668   8.091
  333POPC   C4A 7722  32.968  17.647   7.724
  333POPC   C1B 7723  33.218  17.319   8.802
  333POPC   C2B 7724  33.316  17.239   8.393
  333POPC   C3B 7725  33.329  17.409   7.982
  333POPC   C4B 7726  33.198  17.210   7.580
  334POPC   NC3 7727  10.758   1.272   9.499
  334POPC   PO4 7728  10.110   1.127   9.664
  334POPC   GL1 7729  10.308   1.182   9.226
  334POPC   GL2 7730  10.575   1.012   9.079
  334POPC   C1A 7731  10.407   1.416   8.800
  334POPC   D2A 7732  10.552   1.303   8.406
  334POPC   C3A 7733  10.340   1.257   8.026
  334POPC   C4A 7734  10.467   1.398   7.633
  334POPC   C1B 7735  10.590   0.839   8.674
  334POPC   C2B 7736  10.851   0.909   8.331
  334POPC   C3B 7737  10.887   1.178   8.014
  334POPC   C4B 7738  10.704   0.973   7.719
  335POPC   NC3 7739  32.290   1.696   9.693
  335POPC   PO4 7740  32.385   1.015   9.556
  335POPC   GL1 7741  32.220   1.005   9.144
  335POPC   GL2 7742  32.308   1.329   9.078
  335POPC   C1A 7743  31.978   0.946   8.754
  335POPC   D2A 7744  31.883   1.207   8.385
  335POPC   C3A 7745  32.204   1.286   8.127
  335POPC   C4A 7746  32.270   1.057   7.779
  335POPC   C1B 7747  32.324   1.313   8.648
  335POPC   C2B 7748  32.656   1.315   8.375
  335POPC   C3B 7749  32.703   1.137   8.011
  335POPC   C4B 7750  32.730   1.288   7.565
  336POPC   NC3 7751  16.438  16.306   9.382
  336POPC   PO4 7752  17.001  16.071   9.451
  336POPC   GL1 7753  16.920  15.967   9.049
  336POPC   GL2 7754  16.578  15.962   9.042
  336POPC   C1A 7755  16.892  15.945   8.608
  336POPC   D2A 7756  17.077  16.122   8.250
  336POPC   C3A 7757  17.051  15.794   7.982
  336POPC   C4A 7758  16.797  15.775   7.651
  336POPC   C1B 7759  16.489  16.270   8.693
  336POPC   C2B 7760  16.273  16.243   8.293
  336POPC   C3B 7761  16.403  15.907   7.997
  336POPC   C4B 7762  16.305  15.807   7.571
  337POPC   NC3 7763   6.881  23.987   9.517
  337POPC   PO4 7764   6.275  23.734   9.719
  337POPC   GL1 7765   6.398  23.840   9.263
  337POPC   GL2 7766   6.711  23.763   9.097
  337POPC   C1A 7767   6.293  23.844   8.801
  337POPC   D2A 7768   6.553  23.789   8.429
  337POPC   C3A 7769   6.537  23.445   8.174
  337POPC   C4A 7770   6.590  23.600   7.769
  337POPC   C1B 7771   6.957  23.794   8.732
  337POPC   C2B 7772   7.263  23.737   8.432
  337POPC   C3B 7773   6.997  23.721   8.084
  337POPC   C4B 7774   7.005  23.906   7.706
  338POPC   NC3 7775   0.976  38.528   9.513
  338POPC   PO4 7776   1.563  38.251   9.537
  338POPC   GL1 7777   1.376  38.507   9.222
  338POPC   GL2 7778   1.201  38.243   9.133
  338POPC   C1A 7779   1.218  38.814   8.908
  338POPC   D2A 7780   1.383  38.900   8.503
  338POPC   C3A 7781   1.218  38.699   8.155
  338POPC   C4A 7782   1.365  38.631   7.751
  338POPC   C1B 7783   1.039  38.360   8.742
  338POPC   C2B 7784   1.068  38.192   8.358
  338POPC   C3B 7785   0.905  38.220   7.976
  338POPC   C4B 7786   1.162  38.183   7.617
  339POPC   NC3 7787   9.918  12.078   9.761
  339POPC   PO4 7788   9.427  11.641   9.595
  339POPC   GL1 7789   9.522  12.005   9.295
  339POPC   GL2 7790   9.875  12.124   9.264
  339POPC   C1A 7791   9.566  12.052   8.849
  339POPC   D2A 7792   9.798  11.819   8.535
  339POPC   C3A 7793   9.771  11.954   8.108
  339POPC   C4A 7794   9.843  11.662   7.785
  339POPC   C1B 7795  10.064  12.115   8.872
  339POPC   C2B 7796  10.024  12.290   8.454
  339POPC   C3B 7797  10.201  12.265   8.052
  339POPC   C4B 7798  10.074  12.087   7.656
  340POPC   NC3 7799  42.416  15.597   9.651
  340POPC   PO4 7800  42.058  16.043   9.450
  340POPC   GL1 7801  42.088  15.701   9.236
  340POPC   GL2 7802  42.420  15.818   9.173
  340POPC   C1A 7803  41.938  15.651   8.818
  340POPC   D2A 7804  42.175  15.748   8.486
  340POPC   C3A 7805  42.028  15.884   8.107
  340POPC   C4A 7806  42.257  15.939   7.730
  340POPC   C1B 7807  42.621  15.888   8.783
  340POPC   C2B 7808  42.825  15.924   8.384
  340POPC   C3B 7809  42.719  15.911   7.949
  340POPC   C4B 7810  42.667  15.649   7.584
  341POPC   NC3 7811  33.420  26.087   9.413
  341POPC   PO4 7812  32.756  26.064   9.553
  341POPC   GL1 7813  32.953  26.267   9.205
  341POPC   GL2 7814  33.028  25.907   9.122
  341POPC   C1A 7815  32.929  26.237   8.764
  341POPC   D2A 7816  33.007  25.896   8.480
  341POPC   C3A 7817  33.014  26.012   8.056
  341POPC   C4A 7818  32.809  26.067   7.673
  341POPC   C1B 7819  33.286  25.656   8.844
  341POPC   C2B 7820  33.451  25.629   8.408
  341POPC   C3B 7821  33.356  25.631   7.983
  341POPC   C4B 7822  33.297  25.908   7.639
  342POPC   NC3 7823  21.174  19.314   9.515
  342POPC   PO4 7824  21.578  18.809   9.449
  342POPC   GL1 7825  21.236  18.904   9.170
  342POPC   GL2 7826  21.347  19.238   9.046
  342POPC   C1A 7827  21.107  18.929   8.735
  342POPC   D2A 7828  21.334  18.979   8.355
  342POPC   C3A 7829  21.153  19.109   7.960
  342POPC   C4A 7830  21.275  18.928   7.561
  342POPC   C1B 7831  21.598  19.285   8.669
  342POPC   C2B 7832  21.517  19.439   8.234
  342POPC   C3B 7833  21.635  19.241   7.844
  342POPC   C4B 7834  21.676  19.198   7.371
  343POPC   NC3 7835   9.867  39.526   9.389
  343POPC   PO4 7836   9.468  40.101   9.379
  343POPC   GL1 7837   9.845  40.013   9.085
  343POPC   GL2 7838   9.967  39.674   8.920
  343POPC   C1A 7839   9.775  40.062   8.635
  343POPC   D2A 7840   9.559  40.207   8.267
  343POPC   C3A 7841   9.932  40.191   8.089
  343POPC   C4A 7842  10.114  40.278   7.712
  343POPC   C1B 7843   9.500  39.675   8.832
  343POPC   C2B 7844   9.271  39.841   8.483
  343POPC   C3B 7845   9.347  39.802   8.030
  343POPC   C4B 7846   9.648  39.994   7.732
  344POPC   NC3 7847  27.342  36.717   9.383
  344POPC   PO4 7848  27.848  37.130   9.339
  344POPC   GL1 7849  27.645  36.887   9.003
  344POPC   GL2 7850  27.272  36.918   8.925
  344POPC   C1A 7851  27.698  36.820   8.574
  344POPC   D2A 7852  27.538  36.993   8.244
  344POPC   C3A 7853  27.763  37.017   7.908
  344POPC   C4A 7854  27.427  37.029   7.634
  344POPC   C1B 7855  27.389  36.471   8.763
  344POPC   C2B 7856  27.490  36.441   8.295
  344POPC   C3B 7857  27.473  36.602   7.899
  344POPC   C4B 7858  27.313  36.567   7.463
  345POPC   NC3 7859   7.334  39.795   9.460
  345POPC   PO4 7860   7.302  40.382   9.845
  345POPC   GL1 7861   7.255  40.274   9.325
  345POPC   GL2 7862   7.630  40.126   9.240
  345POPC   C1A 7863   7.316  40.098   8.852
  345POPC   D2A 7864   7.515  39.853   8.498
  345POPC   C3A 7865   7.277  39.876   8.120
  345POPC   C4A 7866   7.144  40.137   7.780
  345POPC   C1B 7867   7.855  40.127   8.885
  345POPC   C2B 7868   7.770  40.300   8.518
  345POPC   C3B 7869   7.552  40.299   8.165
  345POPC   C4B 7870   7.673  40.060   7.792
  346POPC   NC3 7871   3.523  28.426   9.581
  346POPC   PO4 7872   4.052  27.955   9.523
  346POPC   GL1 7873   3.818  28.230   9.207
  346POPC   GL2 7874   3.435  28.182   9.162
  346POPC   C1A 7875   3.683  28.446   8.819
  346POPC   D2A 7876   3.682  28.320   8.398
  346POPC   C3A 7877   3.588  28.621   8.087
  346POPC   C4A 7878   3.694  28.516   7.661
  346POPC   C1B 7879   3.260  28.127   8.776
  346POPC   C2B 7880   3.371  27.909   8.425
  346POPC   C3B 7881   3.364  28.135   8.009
  346POPC   C4B 7882   3.421  28.108   7.522
  347POPC   NC3 7883  20.190   8.436   9.423
  347POPC   PO4 7884  19.658   7.985   9.293
  347POPC   GL1 7885  19.530   8.359   9.053
  347POPC   GL2 7886  19.846   8.417   9.053
  347POPC   C1A 7887  19.624   8.378   8.585
  347POPC   D2A 7888  19.767   8.028   8.309
  347POPC   C3A 7889  19.786   8.126   7.867
  347POPC   C4A 7890  19.490   8.393   7.682
  347POPC   C1B 7891  20.088   8.557   8.751
  347POPC   C2B 7892  20.124   8.382   8.328
  347POPC   C3B 7893  20.134   8.508   7.895
  347POPC   C4B 7894  19.974   8.408   7.488
  348POPC   NC3 7895   7.059  41.696   9.408
  348POPC   PO4 7896   6.422  41.520   9.502
  348POPC   GL1 7897   6.565  41.665   9.150
  348POPC   GL2 7898   6.597  41.323   9.036
  348POPC   C1A 7899   6.782  41.756   8.768
  348POPC   D2A 7900   6.651  41.731   8.357
  348POPC   C3A 7901   6.863  41.703   8.002
  348POPC   C4A 7902   6.947  41.404   7.711
  348POPC   C1B 7903   6.576  41.275   8.582
  348POPC   C2B 7904   6.252  41.428   8.290
  348POPC   C3B 7905   6.403  41.466   7.929
  348POPC   C4B 7906   6.392  41.675   7.592
  349POPC   NC3 7907  35.739  15.339   9.857
  349POPC   PO4 7908  35.107  15.342   9.508
  349POPC   GL1 7909  35.398  15.097   9.233
  349POPC   GL2 7910  35.159  14.948   9.038
  349POPC   C1A 7911  35.609  15.118   8.796
  349POPC   D2A 7912  35.522  15.478   8.488
  349POPC   C3A 7913  35.638  15.538   8.054
  349POPC   C4A 7914  35.764  15.148   7.969
  349POPC   C1B 7915  35.138  15.356   8.825
  349POPC   C2B 7916  35.009  15.437   8.401
  349POPC   C3B 7917  35.141  15.303   7.979
  349POPC   C4B 7918  35.022  15.392   7.538
  350POPC   NC3 7919  15.870   4.687   9.701
  350POPC   PO4 7920  16.167   5.246   9.722
  350POPC   GL1 7921  16.171   5.332   9.293
  350POPC   GL2 7922  15.911   5.061   9.271
  350POPC   C1A 7923  15.947   5.477   8.893
  350POPC   D2A 7924  15.803   5.204   8.521
  350POPC   C3A 7925  15.894   5.297   8.071
  350POPC   C4A 7926  15.779   5.002   7.756
  350POPC   C1B 7927  16.130   4.989   8.900
  350POPC   C2B 7928  16.107   4.783   8.519
  350POPC   C3B 7929  16.167   4.855   8.095
  350POPC   C4B 7930  16.372   4.870   7.703
  351POPC   NC3 7931  39.495  24.317   9.530
  351POPC   PO4 7932  38.919  24.604   9.346
  351POPC   GL1 7933  39.320  24.602   9.134
  351POPC   GL2 7934  39.366  24.259   9.042
  351POPC   C1A 7935  39.434  24.833   8.773
  351POPC   D2A 7936  39.153  24.969   8.446
  351POPC   C3A 7937  39.173  24.849   8.030
  351POPC   C4A 7938  39.026  24.728   7.659
  351POPC   C1B 7939  39.210  24.390   8.649
  351POPC   C2B 7940  39.442  24.492   8.278
  351POPC   C3B 7941  39.506  24.487   7.828
  351POPC   C4B 7942  39.333  24.395   7.425
  352POPC   NC3 7943  23.914   9.437   9.844
  352POPC   PO4 7944  24.228   8.920   9.637
  352POPC   GL1 7945  24.045   9.065   9.174
  352POPC   GL2 7946  23.905   8.764   8.970
  352POPC   C1A 7947  24.008   9.158   8.682
  352POPC   D2A 7948  23.831   8.941   8.307
  352POPC   C3A 7949  23.848   9.137   7.839
  352POPC   C4A 7950  24.057   9.225   7.386
  352POPC   C1B 7951  23.825   8.457   8.658
  352POPC   C2B 7952  23.998   8.380   8.297
  352POPC   C3B 7953  24.128   8.665   8.013
  352POPC   C4B 7954  24.037   8.737   7.590
  353POPC   NC3 7955   1.776   2.278   9.492
  353POPC   PO4 7956   2.375   1.854   9.557
  353POPC   GL1 7957   2.210   2.051   9.196
  353POPC   GL2 7958   1.904   1.862   9.186
  353POPC   C1A 7959   2.315   1.990   8.746
  353POPC   D2A 7960   2.096   1.790   8.377
  353POPC   C3A 7961   2.135   1.994   7.962
  353POPC   C4A 7962   2.146   1.863   7.498
  353POPC   C1B 7963   1.813   2.124   8.828
  353POPC   C2B 7964   1.605   1.976   8.473
  353POPC   C3B 7965   1.592   2.052   8.062
  353POPC   C4B 7966   1.726   2.096   7.653
  354POPC   NC3 7967   5.549  18.127   9.502
  354POPC   PO4 7968   6.080  18.548   9.437
  354POPC   GL1 7969   5.974  18.155   9.183
  354POPC   GL2 7970   5.633  18.133   9.002
  354POPC   C1A 7971   6.094  18.122   8.751
  354POPC   D2A 7972   5.840  18.289   8.404
  354POPC   C3A 7973   5.845  18.066   7.997
  354POPC   C4A 7974   6.111  18.117   7.621
  354POPC   C1B 7975   5.514  18.519   8.809
  354POPC   C2B 7976   5.328  18.571   8.378
  354POPC   C3B 7977   5.611  18.545   8.005
  354POPC   C4B 7978   5.683  18.389   7.600
  355POPC   NC3 7979  35.610  29.963   9.838
  355POPC   PO4 7980  36.209  29.946   9.508
  355POPC   GL1 7981  36.052  29.889   9.130
  355POPC   GL2 7982  35.857  29.595   9.212
  355POPC   C1A 7983  36.178  30.063   8.729
  355POPC   D2A 7984  36.337  29.943   8.326
  355POPC   C3A 7985  36.167  30.090   7.930
  355POPC   C4A 7986  35.911  30.056   7.536
  355POPC   C1B 7987  35.841  29.643   8.743
  355POPC   C2B 7988  35.930  29.554   8.312
  355POPC   C3B 7989  35.819  29.675   7.889
  355POPC   C4B 7990  36.023  29.512   7.474
  356POPC   NC3 7991  16.419  22.114   9.940
  356POPC   PO4 7992  16.944  22.279   9.484
  356POPC   GL1 7993  16.690  22.203   9.163
  356POPC   GL2 7994  16.466  22.434   9.063
  356POPC   C1A 7995  16.654  22.072   8.761
  356POPC   D2A 7996  16.788  22.065   8.383
  356POPC   C3A 7997  16.534  21.940   8.073
  356POPC   C4A 7998  16.809  21.941   7.764
  356POPC   C1B 7999  16.355  22.638   8.727
  356POPC   C2B 8000  16.415  22.428   8.370
  356POPC   C3B 8001  16.668  22.424   8.047
  356POPC   C4B 8002  16.482  22.336   7.714
  357POPC   NC3 8003  35.204  42.828   9.481
  357POPC   PO4 8004  35.841  43.078   9.349
  357POPC   GL1 8005  35.548  42.912   9.088
  357POPC   GL2 8006  35.279  43.161   9.079
  357POPC   C1A 8007  35.582  43.050   8.664
  357POPC   D2A 8008  35.423  42.872   8.312
  357POPC   C3A 8009  35.621  43.072   7.995
  357POPC   C4A 8010  35.511  43.087   7.600
  357POPC   C1B 8011  35.093  42.921   8.749
  357POPC   C2B 8012  34.927  43.021   8.347
  357POPC   C3B 8013  35.091  43.008   7.920
  357POPC   C4B 8014  34.852  43.183   7.581
  358POPC   NC3 8015   9.975  10.473   9.617
  358POPC   PO4 8016   9.303  10.761   9.558
  358POPC   GL1 8017   9.684  10.773   9.282
  358POPC   GL2 8018   9.769  10.464   9.159
  358POPC   C1A 8019   9.811  10.871   8.850
  358POPC   D2A 8020   9.665  10.965   8.421
  358POPC   C3A 8021   9.699  10.718   8.057
  358POPC   C4A 8022   9.665  10.671   7.594
  358POPC   C1B 8023   9.997  10.368   8.794
  358POPC   C2B 8024   9.805  10.271   8.403
  358POPC   C3B 8025   9.758  10.235   7.957
  358POPC   C4B 8026  10.065  10.365   7.675
  359POPC   NC3 8027  10.235  28.755   9.580
  359POPC   PO4 8028  10.744  29.197   9.767
  359POPC   GL1 8029  10.505  29.240   9.316
  359POPC   GL2 8030  10.443  28.968   9.157
  359POPC   C1A 8031  10.656  29.239   8.819
  359POPC   D2A 8032  10.487  29.045   8.450
  359POPC   C3A 8033  10.667  29.072   8.041
  359POPC   C4A 8034  10.667  29.224   7.627
  359POPC   C1B 8035  10.133  28.844   8.862
  359POPC   C2B 8036  10.000  28.830   8.446
  359POPC   C3B 8037  10.157  28.749   8.023
  359POPC   C4B 8038  10.426  28.791   7.678
  360POPC   NC3 8039  24.892   0.962   9.573
  360POPC   PO4 8040  25.509   1.238   9.707
  360POPC   GL1 8041  25.439   1.260   9.275
  360POPC   GL2 8042  25.342   0.925   9.284
  360POPC   C1A 8043  25.425   1.281   8.803
  360POPC   D2A 8044  25.178   1.496   8.477
  360POPC   C3A 8045  25.298   1.409   8.060
  360POPC   C4A 8046  25.095   1.471   7.694
  360POPC   C1B 8047  25.067   0.950   8.929
  360POPC   C2B 8048  25.002   1.012   8.473
  360POPC   C3B 8049  25.053   0.946   8.024
  360POPC   C4B 8050  25.100   0.952   7.585
  361POPC   NC3 8051  33.682  39.645   9.625
  361POPC   PO4 8052  33.416  40.324   9.632
  361POPC   GL1 8053  33.765  40.097   9.319
  361POPC   GL2 8054  34.073  40.269   9.195
  361POPC   C1A 8055  33.848  39.901   8.888
  361POPC   D2A 8056  33.746  39.819   8.455
  361POPC   C3A 8057  33.605  40.083   8.149
  361POPC   C4A 8058  33.483  40.005   7.742
  361POPC   C1B 8059  34.074  40.357   8.764
  361POPC   C2B 8060  34.089  40.194   8.322
  361POPC   C3B 8061  34.026  40.152   7.853
  361POPC   C4B 8062  33.912  40.240   7.395
  362POPC   NC3 8063  41.085  39.267   9.283
  362POPC   PO4 8064  40.648  39.632   9.573
  362POPC   GL1 8065  40.609  39.435   9.172
  362POPC   GL2 8066  40.633  39.037   9.181
  362POPC   C1A 8067  40.768  39.532   8.760
  362POPC   D2A 8068  40.771  39.317   8.386
  362POPC   C3A 8069  40.556  39.338   8.009
  362POPC   C4A 8070  40.728  39.279   7.652
  362POPC   C1B 8071  40.860  38.992   8.770
  362POPC   C2B 8072  40.803  38.776   8.403
  362POPC   C3B 8073  40.618  38.807   8.033
  362POPC   C4B 8074  40.801  38.782   7.655
  363POPC   NC3 8075  20.575  35.499   9.578
  363POPC   PO4 8076  20.582  34.857   9.460
  363POPC   GL1 8077  20.663  35.183   9.183
  363POPC   GL2 8078  20.780  35.543   9.127
  363POPC   C1A 8079  20.908  35.145   8.833
  363POPC   D2A 8080  20.801  35.122   8.427
  363POPC   C3A 8081  20.824  35.356   8.090
  363POPC   C4A 8082  20.810  35.280   7.648
  363POPC   C1B 8083  20.490  35.409   8.757
  363POPC   C2B 8084  20.331  35.332   8.336
  363POPC   C3B 8085  20.418  35.619   7.970
  363POPC   C4B 8086  20.417  35.920   7.620
  364POPC   NC3 8087  42.732  30.163   9.484
  364POPC   PO4 8088  43.108  29.540   9.472
  364POPC   GL1 8089  43.112  29.724   9.059
  364POPC   GL2 8090  43.072  30.067   9.111
  364POPC   C1A 8091  42.864  29.845   8.656
  364POPC   D2A 8092  42.782  29.822   8.187
  364POPC   C3A 8093  43.123  29.735   7.894
  364POPC   C4A 8094  43.111  29.724   7.412
  364POPC   C1B 8095  43.283  30.150   8.737
  364POPC   C2B 8096  43.198  30.097   8.292
  364POPC   C3B 8097  43.233  30.257   7.861
  364POPC   C4B 8098  43.132  30.229   7.414
  365POPC   NC3 8099  19.819  38.951   9.468
  365POPC   PO4 8100  19.678  39.557   9.719
  365POPC   GL1 8101  19.764  39.575   9.260
  365POPC   GL2 8102  19.409  39.543   9.228
  365POPC   C1A 8103  19.997  39.519   8.851
  365POPC   D2A 8104  19.990  39.187   8.504
  365POPC   C3A 8105  20.225  39.225   8.097
  365POPC   C4A 8106  19.987  39.156   7.701
  365POPC   C1B 8107  19.498  39.370   8.837
  365POPC   C2B 8108  19.615  39.545   8.467
  365POPC   C3B 8109  19.737  39.400   8.092
  365POPC   C4B 8110  19.604  39.513   7.707
  366POPC   NC3 8111  31.539   1.629   9.409
  366POPC   PO4 8112  31.391   0.930   9.481
  366POPC   GL1 8113  31.635   0.946   9.122
  366POPC   GL2 8114  31.783   1.281   9.103
  366POPC   C1A 8115  31.463   1.040   8.700
  366POPC   D2A 8116  31.201   0.878   8.370
  366POPC   C3A 8117  31.283   1.062   7.976
  366POPC   C4A 8118  31.732   1.095   7.872
  366POPC   C1B 8119  31.663   1.500   8.731
  366POPC   C2B 8120  31.426   1.434   8.323
  366POPC   C3B 8121  31.411   1.537   7.864
  366POPC   C4B 8122  31.263   1.679   7.448
  367POPC   NC3 8123  41.674  11.873   9.270
  367POPC   PO4 8124  41.590  11.107   9.434
  367POPC   GL1 8125  41.766  11.377   9.132
  367POPC   GL2 8126  41.440  11.445   9.066
  367POPC   C1A 8127  41.822  11.230   8.714
  367POPC   D2A 8128  41.666  11.155   8.296
  367POPC   C3A 8129  41.826  11.456   7.991
  367POPC   C4A 8130  41.813  11.535   7.561
  367POPC   C1B 8131  41.242  11.282   8.715
  367POPC   C2B 8132  41.223  10.925   8.458
  367POPC   C3B 8133  41.204  11.141   8.050
  367POPC   C4B 8134  41.315  11.430   7.739
  368POPC   NC3 8135  42.050   9.277   9.432
  368POPC   PO4 8136  41.456   8.904   9.417
  368POPC   GL1 8137  41.533   9.017   9.052
  368POPC   GL2 8138  41.284   8.761   8.918
  368POPC   C1A 8139  41.792   8.856   8.769
  368POPC   D2A 8140  41.626   8.766   8.430
  368POPC   C3A 8141  41.763   8.950   8.050
  368POPC   C4A 8142  41.610   8.832   7.625
  368POPC   C1B 8143  41.244   9.124   8.639
  368POPC   C2B 8144  41.290   9.105   8.205
  368POPC   C3B 8145  41.340   8.659   8.034
  368POPC   C4B 8146  41.203   8.504   7.655
  369POPC   NC3 8147  33.323   2.626   9.504
  369POPC   PO4 8148  32.800   2.967   9.497
  369POPC   GL1 8149  33.011   2.904   9.125
  369POPC   GL2 8150  33.306   3.037   9.173
  369POPC   C1A 8151  32.899   2.680   8.757
  369POPC   D2A 8152  32.638   2.739   8.422
  369POPC   C3A 8153  32.855   2.708   8.056
  369POPC   C4A 8154  32.897   3.014   7.729
  369POPC   C1B 8155  33.427   2.900   8.792
  369POPC   C2B 8156  33.202   2.904   8.412
  369POPC   C3B 8157  33.344   2.840   8.017
  369POPC   C4B 8158  33.399   3.065   7.658
  370POPC   NC3 8159  42.710  24.496   9.374
  370POPC   PO4 8160  43.313  24.227   9.524
  370POPC   GL1 8161  43.286  24.277   9.127
  370POPC   GL2 8162  43.183  24.614   9.128
  370POPC   C1A 8163  43.069  24.250   8.746
  370POPC   D2A 8164  43.015  24.486   8.366
  370POPC   C3A 8165  43.171  24.279   7.987
  370POPC   C4A 8166  42.974  24.246   7.563
  370POPC   C1B 8167  43.357  24.699   8.703
  370POPC   C2B 8168  43.217  24.953   8.319
  370POPC   C3B 8169  43.030  24.764   7.934
  370POPC   C4B 8170  43.307  24.637   7.603
  371POPC   NC3 8171  40.151  30.105   9.726
  371POPC   PO4 8172  39.705  29.771   9.473
  371POPC   GL1 8173  39.996  29.886   9.154
  371POPC   GL2 8174  40.144  30.207   9.205
  371POPC   C1A 8175  40.197  29.804   8.735
  371POPC   D2A 8176  40.204  29.664   8.283
  371POPC   C3A 8177  40.164  29.936   7.895
  371POPC   C4A 8178  40.207  29.787   7.463
  371POPC   C1B 8179  39.988  30.295   8.770
  371POPC   C2B 8180  39.884  30.130   8.333
  371POPC   C3B 8181  39.698  30.192   7.890
  371POPC   C4B 8182  39.863  30.174   7.457
  372POPC   NC3 8183  26.956  15.927   9.565
  372POPC   PO4 8184  26.291  16.140   9.680
  372POPC   GL1 8185  26.640  16.169   9.268
  372POPC   GL2 8186  26.916  15.928   9.068
  372POPC   C1A 8187  26.663  16.234   8.792
  372POPC   D2A 8188  26.436  16.098   8.429
  372POPC   C3A 8189  26.693  16.109   8.059
  372POPC   C4A 8190  26.499  16.322   7.714
  372POPC   C1B 8191  27.205  15.710   8.758
  372POPC   C2B 8192  27.296  15.581   8.321
  372POPC   C3B 8193  27.246  15.714   7.874
  372POPC   C4B 8194  26.957  16.010   7.640
  373POPC   NC3 8195  14.374   8.690  10.171
  373POPC   PO4 8196  14.660   8.673   9.601
  373POPC   GL1 8197  14.663   8.843   9.189
  373POPC   GL2 8198  14.433   9.125   9.116
  373POPC   C1A 8199  14.346   8.623   8.927
  373POPC   D2A 8200  14.391   8.528   8.498
  373POPC   C3A 8201  14.177   8.785   8.196
  373POPC   C4A 8202  14.304   8.765   7.783
  373POPC   C1B 8203  14.500   9.021   8.659
  373POPC   C2B 8204  14.671   8.968   8.257
  373POPC   C3B 8205  14.516   9.222   7.904
  373POPC   C4B 8206  14.078   9.219   7.716
  374POPC   NC3 8207  38.344  16.850   9.555
  374POPC   PO4 8208  38.384  16.191   9.496
  374POPC   GL1 8209  38.495  16.530   9.200
  374POPC   GL2 8210  38.686  16.870   9.189
  374POPC   C1A 8211  38.296  16.718   8.852
  374POPC   D2A 8212  38.146  16.790   8.415
  374POPC   C3A 8213  38.403  16.666   8.073
  374POPC   C4A 8214  38.656  16.626   7.702
  374POPC   C1B 8215  38.717  17.009   8.794
  374POPC   C2B 8216  38.599  17.090   8.394
  374POPC   C3B 8217  38.770  17.049   8.009
  374POPC   C4B 8218  39.025  16.994   7.694
  375POPC   NC3 8219  13.874  16.441   9.423
  375POPC   PO4 8220  13.570  16.950   9.558
  375POPC   GL1 8221  13.592  16.770   9.150
  375POPC   GL2 8222  13.923  16.817   9.083
  375POPC   C1A 8223  13.601  16.910   8.711
  375POPC   D2A 8224  13.620  16.715   8.319
  375POPC   C3A 8225  13.692  16.940   7.936
  375POPC   C4A 8226  13.427  16.964   7.576
  375POPC   C1B 8227  14.005  16.547   8.728
  375POPC   C2B 8228  14.116  16.674   8.301
  375POPC   C3B 8229  13.915  16.448   7.968
  375POPC   C4B 8230  13.472  16.453   7.851
  376POPC   NC3 8231  40.697  31.805   9.505
  376POPC   PO4 8232  40.984  32.515   9.363
  376POPC   GL1 8233  40.837  32.150   9.120
  376POPC   GL2 8234  40.499  32.103   9.154
  376POPC   C1A 8235  40.767  32.100   8.700
  376POPC   D2A 8236  40.845  32.498   8.500
  376POPC   C3A 8237  40.851  32.527   8.056
  376POPC   C4A 8238  40.866  32.240   7.703
  376POPC   C1B 8239  40.391  31.780   8.870
  376POPC   C2B 8240  40.540  31.705   8.439
  376POPC   C3B 8241  40.673  31.979   8.119
  376POPC   C4B 8242  40.401  32.022   7.754
  377POPC   NC3 8243  41.789   6.674   9.503
  377POPC   PO4 8244  42.074   7.252   9.488
  377POPC   GL1 8245  41.845   6.952   9.079
  377POPC   GL2 8246  41.529   6.677   9.086
  377POPC   C1A 8247  41.672   6.768   8.626
  377POPC   D2A 8248  41.630   6.399   8.337
  377POPC   C3A 8249  41.527   6.530   7.920
  377POPC   C4A 8250  41.708   6.734   7.558
  377POPC   C1B 8251  41.305   6.405   8.794
  377POPC   C2B 8252  41.149   6.169   8.449
  377POPC   C3B 8253  41.033   6.322   8.033
  377POPC   C4B 8254  41.127   6.255   7.624
  378POPC   NC3 8255  43.660   4.183   9.497
  378POPC   PO4 8256  43.873   4.784   9.331
  378POPC   GL1 8257  44.034   4.482   9.069
  378POPC   GL2 8258  43.923   4.141   8.989
  378POPC   C1A 8259  43.945   4.568   8.662
  378POPC   D2A 8260  43.873   4.394   8.288
  378POPC   C3A 8261  44.002   4.622   7.962
  378POPC   C4A 8262  44.043   4.532   7.531
  378POPC   C1B 8263  44.265   4.186   8.649
  378POPC   C2B 8264  44.374   4.308   8.231
  378POPC   C3B 8265  44.147   4.139   7.870
  378POPC   C4B 8266  44.343   4.049   7.443
  379POPC   NC3 8267  44.859  21.893   9.625
  379POPC   PO4 8268  44.425  22.393   9.754
  379POPC   GL1 8269  44.634  22.451   9.312
  379POPC   GL2 8270  44.969  22.320   9.290
  379POPC   C1A 8271  44.778  22.485   8.844
  379POPC   D2A 8272  44.841  22.324   8.389
  379POPC   C3A 8273  44.722  22.554   8.002
  379POPC   C4A 8274  44.684  22.550   7.523
  379POPC   C1B 8275  44.906  22.006   8.953
  379POPC   C2B 8276  44.731  21.855   8.562
  379POPC   C3B 8277  44.857  21.831   8.111
  379POPC   C4B 8278  44.719  22.102   7.759
  380POPC   NC3 8279  14.205   5.710   9.575
  380POPC   PO4 8280  14.589   6.284   9.462
  380POPC   GL1 8281  14.380   6.023   9.110
  380POPC   GL2 8282  14.104   5.778   9.084
  380POPC   C1A 8283  14.376   5.992   8.637
  380POPC   D2A 8284  14.277   6.152   8.196
  380POPC   C3A 8285  14.541   6.067   7.852
  380POPC   C4A 8286  14.494   5.792   7.464
  380POPC   C1B 8287  14.101   5.578   8.710
  380POPC   C2B 8288  14.047   5.714   8.306
  380POPC   C3B 8289  14.237   5.646   7.910
  380POPC   C4B 8290  14.037   5.515   7.527
  381POPC   NC3 8291   3.790   3.670   9.395
  381POPC   PO4 8292   3.386   3.371   9.806
  381POPC   GL1 8293   3.346   3.330   9.293
  381POPC   GL2 8294   3.369   3.666   9.099
  381POPC   C1A 8295   3.453   3.258   8.808
  381POPC   D2A 8296   3.272   3.325   8.366
  381POPC   C3A 8297   3.548   3.288   7.986
  381POPC   C4A 8298   3.712   3.387   7.575
  381POPC   C1B 8299   3.621   3.916   8.766
  381POPC   C2B 8300   3.583   4.086   8.341
  381POPC   C3B 8301   3.408   3.826   8.049
  381POPC   C4B 8302   3.368   3.732   7.628
  382POPC   NC3 8303  14.824  28.492   9.525
  382POPC   PO4 8304  14.404  28.017   9.469
  382POPC   GL1 8305  14.374  28.311   9.126
  382POPC   GL2 8306  14.648  28.542   9.059
  382POPC   C1A 8307  14.207  28.267   8.728
  382POPC   D2A 8308  14.366  28.235   8.320
  382POPC   C3A 8309  14.132  28.424   8.005
  382POPC   C4A 8310  14.219  28.460   7.569
  382POPC   C1B 8311  14.605  28.560   8.644
  382POPC   C2B 8312  14.727  28.609   8.251
  382POPC   C3B 8313  14.664  28.464   7.832
  382POPC   C4B 8314  14.711  28.575   7.379
  383POPC   NC3 8315   3.574   1.769   9.607
  383POPC   PO4 8316   3.228   2.373   9.504
  383POPC   GL1 8317   3.442   2.088   9.227
  383POPC   GL2 8318   3.795   2.105   9.282
  383POPC   C1A 8319   3.528   1.830   8.866
  383POPC   D2A 8320   3.460   1.979   8.445
  383POPC   C3A 8321   3.552   1.760   8.055
  383POPC   C4A 8322   3.371   2.031   7.743
  383POPC   C1B 8323   3.844   2.253   8.865
  383POPC   C2B 8324   3.950   2.125   8.463
  383POPC   C3B 8325   3.777   2.237   8.077
  383POPC   C4B 8326   3.917   2.001   7.756
  384POPC   NC3 8327  38.210  36.230   9.758
  384POPC   PO4 8328  37.524  36.165   9.579
  384POPC   GL1 8329  37.596  36.067   9.188
  384POPC   GL2 8330  37.956  36.124   9.208
  384POPC   C1A 8331  37.597  36.158   8.795
  384POPC   D2A 8332  37.821  36.044   8.458
  384POPC   C3A 8333  37.555  35.984   8.110
  384POPC   C4A 8334  37.707  36.049   7.701
  384POPC   C1B 8335  38.002  36.444   8.851
  384POPC   C2B 8336  37.759  36.569   8.484
  384POPC   C3B 8337  37.661  36.487   8.043
  384POPC   C4B 8338  37.912  36.521   7.674
  385POPC   NC3 8339   0.946  10.087   9.502
  385POPC   PO4 8340   1.125  10.720   9.708
  385POPC   GL1 8341   1.215  10.496   9.329
  385POPC   GL2 8342   0.868  10.513   9.197
  385POPC   C1A 8343   1.294  10.495   8.871
  385POPC   D2A 8344   1.011  10.651   8.492
  385POPC   C3A 8345   1.212  10.702   8.061
  385POPC   C4A 8346   1.168  10.481   7.647
  385POPC   C1B 8347   0.847  10.246   8.841
  385POPC   C2B 8348   1.119  10.102   8.505
  385POPC   C3B 8349   1.051  10.221   8.086
  385POPC   C4B 8350   0.774  10.150   7.729
  386POPC   NC3 8351  38.137   1.990   9.583
  386POPC   PO4 8352  38.788   2.257   9.563
  386POPC   GL1 8353  38.582   2.024   9.187
  386POPC   GL2 8354  38.239   1.892   9.090
  386POPC   C1A 8355  38.644   1.777   8.805
  386POPC   D2A 8356  38.340   1.749   8.451
  386POPC   C3A 8357  38.545   1.885   8.077
  386POPC   C4A 8358  38.949   1.813   7.855
  386POPC   C1B 8359  38.322   2.185   8.731
  386POPC   C2B 8360  38.266   2.282   8.295
  386POPC   C3B 8361  38.235   2.222   7.857
  386POPC   C4B 8362  38.149   2.156   7.424
  387POPC   NC3 8363   8.799  25.180   9.460
  387POPC   PO4 8364   8.828  25.842   9.693
  387POPC   GL1 8365   8.749  25.648   9.246
  387POPC   GL2 8366   9.009  25.424   9.045
  387POPC   C1A 8367   8.569  25.585   8.813
  387POPC   D2A 8368   8.560  25.359   8.398
  387POPC   C3A 8369   8.754  25.466   7.985
  387POPC   C4A 8370   9.226  25.476   7.864
  387POPC   C1B 8371   9.201  25.000   8.947
  387POPC   C2B 8372   9.214  24.795   8.556
  387POPC   C3B 8373   8.998  24.995   8.217
  387POPC   C4B 8374   8.962  25.052   7.777
  388POPC   NC3 8375  27.005  35.995   9.494
  388POPC   PO4 8376  26.414  36.408   9.494
  388POPC   GL1 8377  26.729  36.307   9.202
  388POPC   GL2 8378  26.615  35.967   9.132
  388POPC   C1A 8379  27.013  36.130   8.851
  388POPC   D2A 8380  26.934  36.261   8.438
  388POPC   C3A 8381  26.972  35.976   8.112
  388POPC   C4A 8382  27.110  36.261   7.833
  388POPC   C1B 8383  26.520  36.219   8.754
  388POPC   C2B 8384  26.491  36.527   8.421
  388POPC   C3B 8385  26.634  36.395   8.028
  388POPC   C4B 8386  26.532  36.112   7.704
  389POPC   NC3 8387   3.236  15.017   9.714
  389POPC   PO4 8388   3.600  15.564   9.525
  389POPC   GL1 8389   3.584  15.323   9.160
  389POPC   GL2 8390   3.275  15.247   9.132
  389POPC   C1A 8391   3.569  15.107   8.744
  389POPC   D2A 8392   3.704  15.301   8.376
  389POPC   C3A 8393   3.537  15.191   8.002
  389POPC   C4A 8394   3.612  15.044   7.561
  389POPC   C1B 8395   3.102  15.339   8.783
  389POPC   C2B 8396   3.186  15.387   8.386
  389POPC   C3B 8397   3.179  15.563   8.004
  389POPC   C4B 8398   3.170  15.276   7.688
  390POPC   NC3 8399   9.483  44.143   9.696
  390POPC   PO4 8400   9.573  43.465   9.665
  390POPC   GL1 8401   9.700  43.635   9.245
  390POPC   GL2 8402   9.671  44.004   9.242
  390POPC   C1A 8403   9.821  43.801   8.795
  390POPC   D2A 8404   9.909  43.993   8.358
  390POPC   C3A 8405   9.823  43.763   7.960
  390POPC   C4A 8406   9.476  43.555   7.703
  390POPC   C1B 8407   9.459  44.198   8.906
  390POPC   C2B 8408   9.447  44.261   8.489
  390POPC   C3B 8409   9.472  44.133   8.091
  390POPC   C4B 8410   9.829  44.250   7.818
  391POPC   NC3 8411  18.509  36.955   9.446
  391POPC   PO4 8412  17.902  36.767   9.445
  391POPC   GL1 8413  18.095  36.960   9.109
  391POPC   GL2 8414  18.452  36.867   8.961
  391POPC   C1A 8415  17.996  36.807   8.748
  391POPC   D2A 8416  18.219  36.740   8.433
  391POPC   C3A 8417  18.018  36.683   8.062
  391POPC   C4A 8418  18.109  36.816   7.680
  391POPC   C1B 8419  18.363  37.213   8.730
  391POPC   C2B 8420  18.181  37.231   8.328
  391POPC   C3B 8421  18.405  37.161   7.950
  391POPC   C4B 8422  18.781  37.319   7.711
  392POPC   NC3 8423  44.553   9.185   9.600
  392POPC   PO4 8424   0.127   8.842   9.504
  392POPC   GL1 8425  44.807   8.835   9.152
  392POPC   GL2 8426  44.530   9.051   9.123
  392POPC   C1A 8427  44.954   8.774   8.735
  392POPC   D2A 8428  44.985   9.061   8.412
  392POPC   C3A 8429   0.012   8.960   7.967
  392POPC   C4A 8430  44.833   9.081   7.552
  392POPC   C1B 8431  44.483   8.954   8.697
  392POPC   C2B 8432  44.564   8.768   8.304
  392POPC   C3B 8433  44.484   8.964   7.905
  392POPC   C4B 8434  44.392   8.832   7.485
  393POPC   NC3 8435   6.687  38.330   9.575
  393POPC   PO4 8436   6.327  38.916   9.372
  393POPC   GL1 8437   6.657  38.667   9.178
  393POPC   GL2 8438   6.428  38.390   9.133
  393POPC   C1A 8439   6.937  38.467   8.861
  393POPC   D2A 8440   6.912  38.241   8.460
  393POPC   C3A 8441   6.754  38.409   8.034
  393POPC   C4A 8442   6.904  38.528   7.596
  393POPC   C1B 8443   6.505  38.148   8.773
  393POPC   C2B 8444   6.366  38.111   8.350
  393POPC   C3B 8445   6.171  38.162   7.945
  393POPC   C4B 8446   6.465  38.236   7.603
  394POPC   NC3 8447  21.707   7.539   9.481
  394POPC   PO4 8448  21.096   7.336   9.554
  394POPC   GL1 8449  21.332   7.333   9.163
  394POPC   GL2 8450  21.316   7.673   9.125
  394POPC   C1A 8451  21.472   7.095   8.782
  394POPC   D2A 8452  21.300   7.144   8.386
  394POPC   C3A 8453  21.524   7.127   8.035
  394POPC   C4A 8454  21.292   7.105   7.738
  394POPC   C1B 8455  21.365   7.586   8.701
  394POPC   C2B 8456  21.141   7.664   8.324
  394POPC   C3B 8457  21.184   7.569   7.914
  394POPC   C4B 8458  21.610   7.596   7.816
  395POPC   NC3 8459  34.180  34.538   9.470
  395POPC   PO4 8460  33.634  34.932   9.605
  395POPC   GL1 8461  33.799  34.720   9.185
  395POPC   GL2 8462  34.039  34.391   9.008
  395POPC   C1A 8463  33.630  34.577   8.781
  395POPC   D2A 8464  33.806  34.466   8.404
  395POPC   C3A 8465  33.467  34.544   8.135
  395POPC   C4A 8466  33.433  34.695   7.719
  395POPC   C1B 8467  34.134  34.746   8.765
  395POPC   C2B 8468  34.229  34.773   8.313
  395POPC   C3B 8469  33.939  34.700   7.944
  395POPC   C4B 8470  33.926  34.711   7.462
  396POPC   NC3 8471  20.930  23.685   9.469
  396POPC   PO4 8472  20.300  23.831   9.553
  396POPC   GL1 8473  20.440  23.721   9.130
  396POPC   GL2 8474  20.739  23.602   9.036
  396POPC   C1A 8475  20.624  23.984   8.744
  396POPC   D2A 8476  20.913  23.860   8.387
  396POPC   C3A 8477  20.866  23.971   7.945
  396POPC   C4A 8478  20.493  23.808   7.788
  396POPC   C1B 8479  20.589  23.473   8.657
  396POPC   C2B 8480  20.294  23.318   8.412
  396POPC   C3B 8481  20.390  23.305   8.009
  396POPC   C4B 8482  20.828  23.445   7.904
  397POPC   NC3 8483  44.257  18.019   9.550
  397POPC   PO4 8484  43.723  18.479   9.602
  397POPC   GL1 8485  44.007  18.361   9.264
  397POPC   GL2 8486  43.797  18.474   9.033
  397POPC   C1A 8487  44.098  18.090   8.883
  397POPC   D2A 8488  44.040  18.093   8.438
  397POPC   C3A 8489  43.652  18.105   8.191
  397POPC   C4A 8490  43.704  17.983   7.734
  397POPC   C1B 8491  43.667  18.470   8.601
  397POPC   C2B 8492  43.512  18.625   8.221
  397POPC   C3B 8493  43.596  18.473   7.823
  397POPC   C4B 8494  43.463  18.554   7.433
  398POPC   NC3 8495  21.539  20.801   9.793
  398POPC   PO4 8496  21.154  20.343   9.484
  398POPC   GL1 8497  21.292  20.657   9.232
  398POPC   GL2 8498  21.089  20.498   9.002
  398POPC   C1A 8499  21.542  20.724   8.864
  398POPC   D2A 8500  21.796  20.929   8.521
  398POPC   C3A 8501  21.674  20.842   8.088
  398POPC   C4A 8502  21.643  20.517   7.779
  398POPC   C1B 8503  21.034  20.810   8.773
  398POPC   C2B 8504  21.274  20.785   8.416
  398POPC   C3B 8505  21.199  20.624   8.014
  398POPC   C4B 8506  21.067  20.397   7.661
  399POPC   NC3 8507  32.004  21.367   9.577
  399POPC   PO4 8508  31.360  21.440   9.722
  399POPC   GL1 8509  31.544  21.285   9.320
  399POPC   GL2 8510  31.278  21.130   9.121
  399POPC   C1A 8511  31.680  21.375   8.876
  399POPC   D2A 8512  31.874  21.334   8.457
  399POPC   C3A 8513  31.626  21.267   8.065
  399POPC   C4A 8514  31.610  21.066   7.662
  399POPC   C1B 8515  31.253  21.213   8.640
  399POPC   C2B 8516  31.096  21.222   8.210
  399POPC   C3B 8517  31.131  21.200   7.782
  399POPC   C4B 8518  31.317  21.322   7.338
  400POPC   NC3 8519  14.000  17.169   9.455
  400POPC   PO4 8520  13.511  17.740   9.483
  400POPC   GL1 8521  13.802  17.585   9.208
  400POPC   GL2 8522  13.688  17.287   9.072
  400POPC   C1A 8523  13.916  17.726   8.798
  400POPC   D2A 8524  13.795  17.910   8.418
  400POPC   C3A 8525  13.868  17.642   8.099
  400POPC   C4A 8526  13.992  17.722   7.710
  400POPC   C1B 8527  13.364  17.533   8.850
  400POPC   C2B 8528  13.157  17.590   8.442
  400POPC   C3B 8529  13.328  17.601   8.041
  400POPC   C4B 8530  13.582  17.426   7.718
  401POPC   NC3 8531  31.959  27.074   9.545
  401POPC   PO4 8532  32.616  27.054   9.553
  401POPC   GL1 8533  32.333  26.811   9.298
  401POPC   GL2 8534  32.406  27.030   9.046
  401POPC   C1A 8535  32.065  26.679   8.930
  401POPC   D2A 8536  32.223  26.670   8.489
  401POPC   C3A 8537  32.047  26.862   8.168
  401POPC   C4A 8538  32.029  26.640   7.832
  401POPC   C1B 8539  32.588  26.631   8.824
  401POPC   C2B 8540  32.751  26.560   8.382
  401POPC   C3B 8541  32.577  26.687   7.968
  401POPC   C4B 8542  32.349  27.048   7.792
  402POPC   NC3 8543  30.816  28.170   9.415
  402POPC   PO4 8544  30.662  28.810   9.598
  402POPC   GL1 8545  30.650  28.608   9.181
  402POPC   GL2 8546  30.414  28.330   9.111
  402POPC   C1A 8547  30.732  28.470   8.747
  402POPC   D2A 8548  30.606  28.638   8.349
  402POPC   C3A 8549  30.812  28.351   8.042
  402POPC   C4A 8550  30.786  28.372   7.626
  402POPC   C1B 8551  30.310  28.083   8.751
  402POPC   C2B 8552  30.433  28.166   8.340
  402POPC   C3B 8553  30.319  28.390   7.957
  402POPC   C4B 8554  30.397  28.067   7.621
  403POPC   NC3 8555  42.710  41.212   9.625
  403POPC   PO4 8556  43.242  40.972   9.605
  403POPC   GL1 8557  43.287  40.815   9.198
  403POPC   GL2 8558  43.561  40.657   9.201
  403POPC   C1A 8559  43.066  40.830   8.803
  403POPC   D2A 8560  42.839  40.687   8.442
  403POPC   C3A 8561  42.969  40.895   8.093
  403POPC   C4A 8562  42.821  40.906   7.690
  403POPC   C1B 8563  43.537  40.590   8.760
  403POPC   C2B 8564  43.337  40.603   8.363
  403POPC   C3B 8565  43.459  40.664   7.966
  403POPC   C4B 8566  43.346  40.998   7.759
  404POPC   NC3 8567  20.374  17.918   9.284
  404POPC   PO4 8568  20.838  18.434   9.431
  404POPC   GL1 8569  20.577  18.351   9.112
  404POPC   GL2 8570  20.733  18.595   8.942
  404POPC   C1A 8571  20.569  18.150   8.700
  404POPC   D2A 8572  20.386  18.291   8.328
  404POPC   C3A 8573  20.632  18.244   7.962
  404POPC   C4A 8574  20.734  18.213   7.554
  404POPC   C1B 8575  20.306  18.619   8.765
  404POPC   C2B 8576  20.277  18.819   8.367
  404POPC   C3B 8577  20.366  18.671   7.968
  404POPC   C4B 8578  20.318  18.495   7.553
  405POPC   NC3 8579  18.951  44.920   9.403
  405POPC   PO4 8580  19.166   0.584   9.492
  405POPC   GL1 8581  19.246   0.500   9.076
  405POPC   GL2 8582  18.920   0.310   9.034
  405POPC   C1A 8583  19.069   0.681   8.703
  405POPC   D2A 8584  18.859   0.490   8.370
  405POPC   C3A 8585  19.123   0.369   8.041
  405POPC   C4A 8586  19.061   0.513   7.642
  405POPC   C1B 8587  18.653   0.151   8.689
  405POPC   C2B 8588  18.447   0.092   8.307
  405POPC   C3B 8589  18.641   0.177   7.979
  405POPC   C4B 8590  18.743   0.128   7.590
  406POPC   NC3 8591  41.258   6.329   9.469
  406POPC   PO4 8592  40.618   6.537   9.534
  406POPC   GL1 8593  40.656   6.737   9.147
  406POPC   GL2 8594  41.007   6.720   9.159
  406POPC   C1A 8595  40.790   6.568   8.726
  406POPC   D2A 8596  40.666   6.398   8.359
  406POPC   C3A 8597  40.586   6.609   7.968
  406POPC   C4A 8598  40.702   6.952   7.719
  406POPC   C1B 8599  41.174   6.890   8.794
  406POPC   C2B 8600  41.211   6.714   8.385
  406POPC   C3B 8601  41.108   6.825   7.993
  406POPC   C4B 8602  41.172   6.766   7.578
  407POPC   NC3 8603  29.823  43.469   9.820
  407POPC   PO4 8604  29.184  43.478   9.483
  407POPC   GL1 8605  29.217  43.242   9.124
  407POPC   GL2 8606  29.263  43.539   8.967
  407POPC   C1A 8607  29.071  43.115   8.714
  407POPC   D2A 8608  28.955  42.872   8.367
  407POPC   C3A 8609  29.053  43.053   7.998
  407POPC   C4A 8610  28.868  42.900   7.627
  407POPC   C1B 8611  29.502  43.382   8.656
  407POPC   C2B 8612  29.307  43.411   8.277
  407POPC   C3B 8613  29.482  43.373   7.895
  407POPC   C4B 8614  29.222  43.272   7.558
  408POPC   NC3 8615  25.536   5.357   9.204
  408POPC   PO4 8616  25.892   5.897   9.420
  408POPC   GL1 8617  26.134   5.937   9.050
  408POPC   GL2 8618  26.318   6.247   9.104
  408POPC   C1A 8619  25.987   5.888   8.613
  408POPC   D2A 8620  25.870   5.962   8.169
  408POPC   C3A 8621  26.004   5.682   7.832
  408POPC   C4A 8622  26.179   5.441   7.484
  408POPC   C1B 8623  26.370   6.232   8.670
  408POPC   C2B 8624  26.373   5.990   8.281
  408POPC   C3B 8625  26.284   6.118   7.879
  408POPC   C4B 8626  26.510   6.314   7.560
  409POPC   NC3 8627  28.888   7.091   9.827
  409POPC   PO4 8628  28.977   6.546   9.405
  409POPC   GL1 8629  29.039   6.849   9.122
  409POPC   GL2 8630  29.236   6.613   8.949
  409POPC   C1A 8631  28.995   6.962   8.696
  409POPC   D2A 8632  29.158   6.727   8.351
  409POPC   C3A 8633  28.939   6.570   7.986
  409POPC   C4A 8634  29.104   6.222   7.769
  409POPC   C1B 8635  29.373   6.290   8.668
  409POPC   C2B 8636  29.332   6.228   8.231
  409POPC   C3B 8637  29.435   6.577   7.922
  409POPC   C4B 8638  29.400   6.859   7.541
  410POPC   NC3 8639  44.564  13.230   9.316
  410POPC   PO4 8640  44.765  12.630   9.496
  410POPC   GL1 8641  44.569  12.736   9.109
  410POPC   GL2 8642  44.240  12.849   9.176
  410POPC   C1A 8643  44.730  12.763   8.684
  410POPC   D2A 8644  44.991  12.624   8.314
  410POPC   C3A 8645  44.847  12.684   7.878
  410POPC   C4A 8646  44.604  12.616   7.502
  410POPC   C1B 8647  44.302  13.073   8.761
  410POPC   C2B 8648  44.471  13.082   8.354
  410POPC   C3B 8649  44.280  13.175   7.965
  410POPC   C4B 8650  44.525  13.091   7.595
  411POPC   NC3 8651  15.743  40.316   9.249
  411POPC   PO4 8652  16.209  39.870   9.538
  411POPC   GL1 8653  16.162  40.046   9.149
  411POPC   GL2 8654  15.870  39.849   9.055
  411POPC   C1A 8655  16.077  40.156   8.709
  411POPC   D2A 8656  16.017  39.929   8.353
  411POPC   C3A 8657  16.094  40.262   8.110
  411POPC   C4A 8658  15.973  40.399   7.735
  411POPC   C1B 8659  15.576  40.000   8.718
  411POPC   C2B 8660  15.586  40.236   8.358
  411POPC   C3B 8661  15.661  40.032   7.962
  411POPC   C4B 8662  16.025  39.807   7.784
  412POPC   NC3 8663  39.616  30.236   9.375
  412POPC   PO4 8664  38.979  29.936   9.350
  412POPC   GL1 8665  39.135  29.788   9.011
  412POPC   GL2 8666  39.459  29.879   9.047
  412POPC   C1A 8667  39.021  29.851   8.569
  412POPC   D2A 8668  39.063  30.268   8.324
  412POPC   C3A 8669  39.093  30.182   7.909
  412POPC   C4A 8670  39.226  29.786   7.776
  412POPC   C1B 8671  39.460  30.108   8.663
  412POPC   C2B 8672  39.427  29.916   8.256
  412POPC   C3B 8673  39.697  29.689   8.011
  412POPC   C4B 8674  39.713  29.729   7.605
  413POPC   NC3 8675   7.185  31.732   9.310
  413POPC   PO4 8676   7.524  32.199   9.703
  413POPC   GL1 8677   7.506  32.157   9.258
  413POPC   GL2 8678   7.754  31.898   9.173
  413POPC   C1A 8679   7.251  32.305   8.905
  413POPC   D2A 8680   7.409  32.303   8.503
  413POPC   C3A 8681   7.397  32.624   8.184
  413POPC   C4A 8682   7.434  32.358   7.818
  413POPC   C1B 8683   7.526  31.874   8.789
  413POPC   C2B 8684   7.381  31.783   8.376
  413POPC   C3B 8685   7.570  31.883   8.002
  413POPC   C4B 8686   7.579  31.889   7.539
  414POPC   NC3 8687  32.644  20.779   9.476
  414POPC   PO4 8688  31.996  20.774   9.332
  414POPC   GL1 8689  32.307  20.632   9.078
  414POPC   GL2 8690  32.466  20.328   9.212
  414POPC   C1A 8691  32.096  20.496   8.703
  414POPC   D2A 8692  31.887  20.253   8.385
  414POPC   C3A 8693  31.953  20.435   7.969
  414POPC   C4A 8694  32.240  20.764   7.860
  414POPC   C1B 8695  32.571  20.303   8.754
  414POPC   C2B 8696  32.434  20.430   8.321
  414POPC   C3B 8697  32.521  20.327   7.897
  414POPC   C4B 8698  32.364  20.400   7.485
  415POPC   NC3 8699  10.550  39.548   9.914
  415POPC   PO4 8700  10.431  38.948   9.571
  415POPC   GL1 8701  10.587  39.072   9.103
  415POPC   GL2 8702  10.494  39.415   9.016
  415POPC   C1A 8703  10.808  39.178   8.717
  415POPC   D2A 8704  10.634  39.467   8.382
  415POPC   C3A 8705  10.676  39.196   8.027
  415POPC   C4A 8706  10.874  39.055   7.649
  415POPC   C1B 8707  10.237  39.324   8.681
  415POPC   C2B 8708  10.149  39.339   8.246
  415POPC   C3B 8709  10.277  39.420   7.843
  415POPC   C4B 8710  10.377  39.059   7.612
  416POPC   NC3 8711   9.516  20.925   9.465
  416POPC   PO4 8712  10.026  20.464   9.387
  416POPC   GL1 8713   9.942  20.751   9.072
  416POPC   GL2 8714   9.617  20.673   9.046
  416POPC   C1A 8715  10.109  20.775   8.678
  416POPC   D2A 8716   9.946  20.637   8.282
  416POPC   C3A 8717  10.163  20.818   7.942
  416POPC   C4A 8718   9.902  20.682   7.614
  416POPC   C1B 8719   9.585  20.556   8.648
  416POPC   C2B 8720   9.446  20.753   8.303
  416POPC   C3B 8721   9.498  20.560   7.940
  416POPC   C4B 8722   9.522  20.364   7.534
  417POPC   NC3 8723  20.029   9.246   9.535
  417POPC   PO4 8724  19.658   8.633   9.507
  417POPC   GL1 8725  19.773   8.895   9.176
  417POPC   GL2 8726  19.844   9.212   9.076
  417POPC   C1A 8727  19.672   8.875   8.749
  417POPC   D2A 8728  19.875   8.814   8.377
  417POPC   C3A 8729  19.668   8.603   8.103
  417POPC   C4A 8730  19.758   8.814   7.730
  417POPC   C1B 8731  20.159   9.091   8.778
  417POPC   C2B 8732  20.152   9.228   8.359
  417POPC   C3B 8733  20.141   9.069   7.956
  417POPC   C4B 8734  19.957   9.243   7.556
  418POPC   NC3 8735  28.458  20.440   9.670
  418POPC   PO4 8736  28.577  21.045   9.442
  418POPC   GL1 8737  28.484  20.674   9.189
  418POPC   GL2 8738  28.170  20.549   9.206
  418POPC   C1A 8739  28.512  20.573   8.743
  418POPC   D2A 8740  28.353  20.745   8.347
  418POPC   C3A 8741  28.485  20.788   7.927
  418POPC   C4A 8742  28.437  21.148   7.621
  418POPC   C1B 8743  28.113  20.267   8.843
  418POPC   C2B 8744  28.277  20.245   8.408
  418POPC   C3B 8745  28.179  20.365   7.977
  418POPC   C4B 8746  27.856  20.276   7.673
  419POPC   NC3 8747   3.772  19.162   9.342
  419POPC   PO4 8748   4.404  19.027   9.595
  419POPC   GL1 8749   4.242  19.009   9.198
  419POPC   GL2 8750   4.219  19.372   9.131
  419POPC   C1A 8751   4.252  19.011   8.762
  419POPC   D2A 8752   4.495  19.078   8.433
  419POPC   C3A 8753   4.381  18.850   8.128
  419POPC   C4A 8754   4.215  18.864   7.729
  419POPC   C1B 8755   4.138  19.486   8.679
  419POPC   C2B 8756   4.359  19.570   8.288
  419POPC   C3B 8757   4.212  19.339   7.922
  419POPC   C4B 8758   4.106  19.290   7.490
  420POPC   NC3 8759  29.294  30.429   9.751
  420POPC   PO4 8760  28.958  30.988   9.916
  420POPC   GL1 8761  28.995  30.873   9.428
  420POPC   GL2 8762  28.919  30.523   9.390
  420POPC   C1A 8763  29.253  30.849   9.018
  420POPC   D2A 8764  29.190  30.860   8.559
  420POPC   C3A 8765  29.389  30.651   8.208
  420POPC   C4A 8766  29.303  30.640   7.749
  420POPC   C1B 8767  28.909  30.479   8.951
  420POPC   C2B 8768  28.721  30.577   8.568
  420POPC   C3B 8769  28.883  30.598   8.166
  420POPC   C4B 8770  28.791  30.839   7.831
  421POPC   NC3 8771  19.305  43.357   9.495
  421POPC   PO4 8772  18.882  42.777   9.586
  421POPC   GL1 8773  18.832  42.988   9.171
  421POPC   GL2 8774  18.894  43.352   9.111
  421POPC   C1A 8775  18.955  42.941   8.739
  421POPC   D2A 8776  18.751  43.016   8.338
  421POPC   C3A 8777  18.978  43.223   8.036
  421POPC   C4A 8778  19.392  43.086   7.833
  421POPC   C1B 8779  19.006  43.447   8.661
  421POPC   C2B 8780  19.318  43.512   8.287
  421POPC   C3B 8781  19.249  43.578   7.821
  421POPC   C4B 8782  18.902  43.466   7.510
  422POPC   NC3 8783  43.568  18.130   9.360
  422POPC   PO4 8784  43.029  17.767   9.497
  422POPC   GL1 8785  43.133  18.032   9.108
  422POPC   GL2 8786  43.257  18.417   9.089
  422POPC   C1A 8787  43.305  18.105   8.679
  422POPC   D2A 8788  43.121  18.308   8.319
  422POPC   C3A 8789  43.160  18.207   7.913
  422POPC   C4A 8790  42.822  17.976   7.718
  422POPC   C1B 8791  43.170  18.644   8.694
  422POPC   C2B 8792  42.819  18.732   8.376
  422POPC   C3B 8793  42.752  18.742   7.934
  422POPC   C4B 8794  43.183  18.750   7.830
  423POPC   NC3 8795  15.114  22.462  10.187
  423POPC   PO4 8796  14.968  22.069   9.670
  423POPC   GL1 8797  15.062  22.076   9.231
  423POPC   GL2 8798  15.129  22.419   9.293
  423POPC   C1A 8799  15.249  22.174   8.815
  423POPC   D2A 8800  15.429  22.300   8.426
  423POPC   C3A 8801  15.309  22.224   7.996
  423POPC   C4A 8802  15.590  22.381   7.679
  423POPC   C1B 8803  14.891  22.520   8.943
  423POPC   C2B 8804  14.916  22.426   8.512
  423POPC   C3B 8805  14.940  22.596   8.135
  423POPC   C4B 8806  15.012  22.609   7.744
  424POPC   NC3 8807  24.818  11.768   9.489
  424POPC   PO4 8808  24.311  12.248   9.535
  424POPC   GL1 8809  24.533  12.132   9.166
  424POPC   GL2 8810  24.872  12.190   9.139
  424POPC   C1A 8811  24.381  12.146   8.740
  424POPC   D2A 8812  24.245  11.963   8.357
  424POPC   C3A 8813  24.349  12.076   7.940
  424POPC   C4A 8814  24.182  11.827   7.597
  424POPC   C1B 8815  24.883  12.089   8.706
  424POPC   C2B 8816  24.865  12.070   8.242
  424POPC   C3B 8817  24.736  11.760   7.928
  424POPC   C4B 8818  24.685  11.751   7.476
  425POPC   NC3 8819  39.836   3.340   9.478
  425POPC   PO4 8820  40.453   3.678   9.398
  425POPC   GL1 8821  40.246   3.405   9.136
  425POPC   GL2 8822  39.989   3.656   9.123
  425POPC   C1A 8823  40.282   3.537   8.711
  425POPC   D2A 8824  40.150   3.890   8.431
  425POPC   C3A 8825  40.238   3.851   7.998
  425POPC   C4A 8826  40.096   3.789   7.580
  425POPC   C1B 8827  39.805   3.397   8.792
  425POPC   C2B 8828  39.780   3.544   8.354
  425POPC   C3B 8829  39.859   3.465   7.917
  425POPC   C4B 8830  39.581   3.123   7.724
  426POPC   NC3 8831  25.714  35.308   9.588
  426POPC   PO4 8832  25.093  35.532   9.558
  426POPC   GL1 8833  25.355  35.316   9.234
  426POPC   GL2 8834  25.076  35.278   9.051
  426POPC   C1A 8835  25.496  35.425   8.810
  426POPC   D2A 8836  25.397  35.481   8.359
  426POPC   C3A 8837  25.168  35.205   8.056
  426POPC   C4A 8838  25.371  35.311   7.635
  426POPC   C1B 8839  25.006  35.273   8.621
  426POPC   C2B 8840  24.893  35.562   8.300
  426POPC   C3B 8841  24.995  35.637   7.885
  426POPC   C4B 8842  24.849  35.319   7.611
  427POPC   NC3 8843  37.741  35.735   9.543
  427POPC   PO4 8844  37.440  35.242   9.941
  427POPC   GL1 8845  37.531  35.229   9.396
  427POPC   GL2 8846  37.476  35.547   9.146
  427POPC   C1A 8847  37.617  35.129   8.914
  427POPC   D2A 8848  37.683  35.347   8.500
  427POPC   C3A 8849  37.730  35.144   8.098
  427POPC   C4A 8850  37.656  35.080   7.655
  427POPC   C1B 8851  37.852  35.698   8.869
  427POPC   C2B 8852  38.133  35.615   8.508
  427POPC   C3B 8853  37.971  35.624   8.099
  427POPC   C4B 8854  37.626  35.562   7.802
  428POPC   NC3 8855  26.309  12.665   9.471
  428POPC   PO4 8856  25.771  13.056   9.467
  428POPC   GL1 8857  25.912  12.840   9.134
  428POPC   GL2 8858  26.174  13.035   9.057
  428POPC   C1A 8859  25.831  12.753   8.699
  428POPC   D2A 8860  25.979  12.915   8.292
  428POPC   C3A 8861  25.735  12.918   7.942
  428POPC   C4A 8862  25.913  13.004   7.547
  428POPC   C1B 8863  26.315  12.904   8.668
  428POPC   C2B 8864  26.228  12.488   8.485
  428POPC   C3B 8865  26.280  12.440   8.059
  428POPC   C4B 8866  26.281  12.753   7.766
  429POPC   NC3 8867   7.509  28.259   9.590
  429POPC   PO4 8868   7.314  28.889   9.472
  429POPC   GL1 8869   7.425  28.537   9.159
  429POPC   GL2 8870   7.614  28.176   9.118
  429POPC   C1A 8871   7.289  28.440   8.761
  429POPC   D2A 8872   7.378  28.562   8.367
  429POPC   C3A 8873   7.274  28.176   8.143
  429POPC   C4A 8874   7.117  28.075   7.768
  429POPC   C1B 8875   7.786  28.321   8.763
  429POPC   C2B 8876   7.743  28.193   8.358
  429POPC   C3B 8877   7.697  28.412   7.983
  429POPC   C4B 8878   7.445  28.457   7.627
  430POPC   NC3 8879  14.779  12.058   9.446
  430POPC   PO4 8880  15.366  11.997   9.443
  430POPC   GL1 8881  15.204  12.186   9.117
  430POPC   GL2 8882  14.979  11.953   8.983
  430POPC   C1A 8883  14.912  12.440   8.869
  430POPC   D2A 8884  14.778  12.480   8.429
  430POPC   C3A 8885  15.014  12.180   8.172
  430POPC   C4A 8886  15.380  12.211   7.884
  430POPC   C1B 8887  15.258  12.098   8.620
  430POPC   C2B 8888  15.450  11.847   8.278
  430POPC   C3B 8889  15.610  11.727   7.880
  430POPC   C4B 8890  15.255  11.783   7.622
  431POPC   NC3 8891  36.316  23.391   9.276
  431POPC   PO4 8892  36.626  23.951   9.422
  431POPC   GL1 8893  36.326  23.875   9.076
  431POPC   GL2 8894  35.977  23.753   9.139
  431POPC   C1A 8895  36.285  23.623   8.693
  431POPC   D2A 8896  36.127  23.461   8.313
  431POPC   C3A 8897  36.426  23.648   8.033
  431POPC   C4A 8898  36.369  23.782   7.617
  431POPC   C1B 8899  35.783  23.531   8.760
  431POPC   C2B 8900  35.695  23.188   8.484
  431POPC   C3B 8901  35.667  23.294   8.067
  431POPC   C4B 8902  35.973  23.498   7.805
  432POPC   NC3 8903  20.318  28.729   9.398
  432POPC   PO4 8904  20.822  28.526   9.800
  432POPC   GL1 8905  20.746  28.563   9.188
  432POPC   GL2 8906  20.692  28.132   9.015
  432POPC   C1A 8907  20.495  28.492   8.762
  432POPC   D2A 8908  20.335  28.156   8.502
  432POPC   C3A 8909  20.527  28.265   8.135
  432POPC   C4A 8910  20.419  28.573   7.874
  432POPC   C1B 8911  21.018  28.322   8.817
  432POPC   C2B 8912  21.228  28.263   8.456
  432POPC   C3B 8913  21.041  28.228   8.072
  432POPC   C4B 8914  20.825  28.289   7.708
  433POPC   NC3 8915  25.581  43.609   9.254
  433POPC   PO4 8916  25.076  43.897   9.610
  433POPC   GL1 8917  25.081  43.698   9.198
  433POPC   GL2 8918  25.237  43.986   9.084
  433POPC   C1A 8919  25.135  43.569   8.754
  433POPC   D2A 8920  25.225  43.921   8.478
  433POPC   C3A 8921  25.307  43.794   8.066
  433POPC   C4A 8922  25.176  43.801   7.635
  433POPC   C1B 8923  25.543  44.166   8.836
  433POPC   C2B 8924  25.544  44.345   8.485
  433POPC   C3B 8925  25.591  44.328   8.081
  433POPC   C4B 8926  25.652  44.043   7.775
  434POPC   NC3 8927  14.313  16.703  10.282
  434POPC   PO4 8928  14.229  16.731   9.542
  434POPC   GL1 8929  14.413  16.782   9.173
  434POPC   GL2 8930  14.368  17.092   9.107
  434POPC   C1A 8931  14.541  16.543   8.824
  434POPC   D2A 8932  14.414  16.303   8.472
  434POPC   C3A 8933  14.453  16.420   8.026
  434POPC   C4A 8934  14.277  16.393   7.578
  434POPC   C1B 8935  14.290  16.975   8.703
  434POPC   C2B 8936  14.595  16.849   8.420
  434POPC   C3B 8937  14.583  16.917   7.999
  434POPC   C4B 8938  14.205  16.835   7.809
  435POPC   NC3 8939  27.201  33.353   9.905
  435POPC   PO4 8940  27.402  33.999   9.520
  435POPC   GL1 8941  27.731  33.969   9.174
  435POPC   GL2 8942  27.582  33.722   8.999
  435POPC   C1A 8943  27.711  34.105   8.697
  435POPC   D2A 8944  27.477  34.156   8.293
  435POPC   C3A 8945  27.439  33.864   7.917
  435POPC   C4A 8946  27.482  34.002   7.441
  435POPC   C1B 8947  27.297  33.772   8.630
  435POPC   C2B 8948  27.191  33.505   8.282
  435POPC   C3B 8949  27.381  33.346   7.885
  435POPC   C4B 8950  27.596  33.523   7.513
  436POPC   NC3 8951  15.763  11.757   9.511
  436POPC   PO4 8952  16.068  12.367   9.562
  436POPC   GL1 8953  15.826  12.207   9.258
  436POPC   GL2 8954  16.077  12.012   9.097
  436POPC   C1A 8955  15.691  12.304   8.873
  436POPC   D2A 8956  15.804  12.018   8.595
  436POPC   C3A 8957  15.842  12.130   8.151
  436POPC   C4A 8958  15.867  12.143   7.735
  436POPC   C1B 8959  16.337  12.095   8.714
  436POPC   C2B 8960  16.376  12.110   8.258
  436POPC   C3B 8961  16.316  11.876   7.874
  436POPC   C4B 8962  16.075  11.741   7.494
  437POPC   NC3 8963  26.108  10.113   9.580
  437POPC   PO4 8964  25.917  10.742   9.525
  437POPC   GL1 8965  26.060  10.526   9.188
  437POPC   GL2 8966  26.403  10.369   9.239
  437POPC   C1A 8967  26.036  10.649   8.767
  437POPC   D2A 8968  26.252  10.756   8.379
  437POPC   C3A 8969  26.086  10.676   7.963
  437POPC   C4A 8970  25.780  10.385   7.814
  437POPC   C1B 8971  26.179  10.110   8.937
  437POPC   C2B 8972  26.119  10.187   8.544
  437POPC   C3B 8973  26.144  10.195   8.134
  437POPC   C4B 8974  26.336  10.089   7.778
  438POPC   NC3 8975   2.974   3.189   9.835
  438POPC   PO4 8976   2.421   3.578   9.646
  438POPC   GL1 8977   2.528   3.396   9.270
  438POPC   GL2 8978   2.847   3.180   9.317
  438POPC   C1A 8979   2.515   3.610   8.877
  438POPC   D2A 8980   2.809   3.698   8.565
  438POPC   C3A 8981   2.661   3.669   8.164
  438POPC   C4A 8982   2.931   3.828   7.862
  438POPC   C1B 8983   2.856   3.220   8.850
  438POPC   C2B 8984   2.532   3.251   8.511
  438POPC   C3B 8985   2.502   3.166   8.079
  438POPC   C4B 8986   2.767   3.365   7.756
  439POPC   NC3 8987  18.694  18.837   9.439
  439POPC   PO4 8988  18.373  18.149   9.490
  439POPC   GL1 8989  18.286  17.978   9.128
  439POPC   GL2 8990  17.939  17.882   9.224
  439POPC   C1A 8991  18.402  18.122   8.708
  439POPC   D2A 8992  18.347  18.502   8.446
  439POPC   C3A 8993  18.320  18.395   8.008
  439POPC   C4A 8994  18.063  18.527   7.686
  439POPC   C1B 8995  17.894  18.027   8.794
  439POPC   C2B 8996  17.934  18.194   8.370
  439POPC   C3B 8997  17.957  18.022   7.958
  439POPC   C4B 8998  17.768  18.118   7.568
  440POPC   NC3 8999  30.212  30.145   9.702
  440POPC   PO4 9000  29.975  29.643   9.411
  440POPC   GL1 9001  30.125  29.958   9.169
  440POPC   GL2 9002  30.398  30.131   9.155
  440POPC   C1A 9003  29.941  30.138   8.788
  440POPC   D2A 9004  29.704  30.008   8.452
  440POPC   C3A 9005  29.625  30.221   8.091
  440POPC   C4A 9006  29.677  30.022   7.728
  440POPC   C1B 9007  30.376  29.880   8.757
  440POPC   C2B 9008  30.295  30.125   8.395
  440POPC   C3B 9009  30.104  30.031   8.023
  440POPC   C4B 9010  30.170  30.142   7.596
  441POPC   NC3 9011  43.900  12.661   9.546
  441POPC   PO4 9012  44.099  13.317   9.391
  441POPC   GL1 9013  43.761  13.044   9.160
  441POPC   GL2 9014  43.769  12.663   9.055
  441POPC   C1A 9015  43.704  13.023   8.711
  441POPC   D2A 9016  43.966  12.989   8.359
  441POPC   C3A 9017  43.841  12.749   8.034
  441POPC   C4A 9018  43.986  12.756   7.644
  441POPC   C1B 9019  44.079  12.627   8.738
  441POPC   C2B 9020  44.346  12.593   8.407
  441POPC   C3B 9021  44.352  12.677   7.994
  441POPC   C4B 9022  44.270  12.345   7.732
  442POPC   NC3 9023  24.613  44.365   9.640
  442POPC   PO4 9024  24.253  44.956   9.717
  442POPC   GL1 9025  24.473  44.873   9.258
  442POPC   GL2 9026  24.639  44.559   9.184
  442POPC   C1A 9027  24.579  44.880   8.771
  442POPC   D2A 9028  24.654  44.777   8.302
  442POPC   C3A 9029  24.344  44.805   7.888
  442POPC   C4A 9030  24.164   0.019   7.471
  442POPC   C1B 9031  24.469  44.388   8.841
  442POPC   C2B 9032  24.600  44.269   8.451
  442POPC   C3B 9033  24.722  44.145   8.049
  442POPC   C4B 9034  24.457  44.300   7.775
  443POPC   NC3 9035   3.384   6.460   9.576
  443POPC   PO4 9036   3.931   6.796   9.602
  443POPC   GL1 9037   3.621   6.870   9.303
  443POPC   GL2 9038   3.574   6.558   9.120
  443POPC   C1A 9039   3.349   6.996   8.975
  443POPC   D2A 9040   3.377   7.043   8.524
  443POPC   C3A 9041   3.452   6.700   8.253
  443POPC   C4A 9042   3.382   6.639   7.839
  443POPC   C1B 9043   3.591   6.463   8.695
  443POPC   C2B 9044   3.821   6.302   8.340
  443POPC   C3B 9045   3.807   6.373   7.892
  443POPC   C4B 9046   3.639   6.236   7.505
  444POPC   NC3 9047  31.104  19.567   9.464
  444POPC   PO4 9048  31.620  19.967   9.497
  444POPC   GL1 9049  31.731  19.887   9.111
  444POPC   GL2 9050  31.423  19.760   9.075
  444POPC   C1A 9051  31.790  19.630   8.750
  444POPC   D2A 9052  31.697  19.779   8.330
  444POPC   C3A 9053  31.793  19.693   7.946
  444POPC   C4A 9054  31.681  19.893   7.538
  444POPC   C1B 9055  31.397  19.954   8.696
  444POPC   C2B 9056  31.203  19.900   8.302
  444POPC   C3B 9057  31.271  19.684   7.946
  444POPC   C4B 9058  30.959  19.673   7.660
  445POPC   NC3 9059  30.885   8.715   9.373
  445POPC   PO4 9060  30.275   9.128   9.502
  445POPC   GL1 9061  30.494   8.986   9.153
  445POPC   GL2 9062  30.813   9.190   9.156
  445POPC   C1A 9063  30.662   8.864   8.742
  445POPC   D2A 9064  30.437   8.659   8.366
  445POPC   C3A 9065  30.626   8.762   7.996
  445POPC   C4A 9066  30.597   8.660   7.552
  445POPC   C1B 9067  31.077   9.175   8.783
  445POPC   C2B 9068  31.106   8.958   8.384
  445POPC   C3B 9069  31.138   8.804   7.956
  445POPC   C4B 9070  30.992   8.989   7.565
  446POPC   NC3 9071  18.044   0.559   9.337
  446POPC   PO4 9072  18.511   0.043   9.292
  446POPC   GL1 9073  18.266   0.222   9.028
  446POPC   GL2 9074  17.949   0.006   9.092
  446POPC   C1A 9075  18.433   0.608   8.810
  446POPC   D2A 9076  18.472   0.870   8.459
  446POPC   C3A 9077  18.432   0.608   8.110
  446POPC   C4A 9078  18.539   0.581   7.682
  446POPC   C1B 9079  17.837   0.278   8.766
  446POPC   C2B 9080  18.087   0.417   8.475
  446POPC   C3B 9081  17.967   0.384   8.083
  446POPC   C4B 9082  18.039   0.677   7.761
  447POPC   NC3 9083  36.342  29.424   9.419
  447POPC   PO4 9084  35.742  29.115   9.425
  447POPC   GL1 9085  36.043  29.150   9.077
  447POPC   GL2 9086  36.342  28.948   9.020
  447POPC   C1A 9087  35.934  29.152   8.671
  447POPC   D2A 9088  35.977  28.932   8.333
  447POPC   C3A 9089  35.968  29.157   7.969
  447POPC   C4A 9090  36.335  29.125   7.756
  447POPC   C1B 9091  36.407  29.301   8.727
  447POPC   C2B 9092  36.361  29.287   8.280
  447POPC   C3B 9093  36.313  29.588   7.943
  447POPC   C4B 9094  36.405  29.836   7.562
  448POPC   NC3 9095  27.369   5.914   9.510
  448POPC   PO4 9096  28.042   6.037   9.356
  448POPC   GL1 9097  27.713   5.874   9.138
  448POPC   GL2 9098  27.678   5.540   9.056
  448POPC   C1A 9099  27.522   5.892   8.729
  448POPC   D2A 9100  27.680   5.779   8.339
  448POPC   C3A 9101  27.486   6.038   8.066
  448POPC   C4A 9102  27.655   6.007   7.693
  448POPC   C1B 9103  27.302   5.433   8.767
  448POPC   C2B 9104  27.176   5.684   8.381
  448POPC   C3B 9105  27.292   5.578   7.946
  448POPC   C4B 9106  27.692   5.427   7.811
  449POPC   NC3 9107  31.839  19.555   9.500
  449POPC   PO4 9108  32.542  19.478   9.460
  449POPC   GL1 9109  32.310  19.805   9.246
  449POPC   GL2 9110  32.607  19.865   9.048
  449POPC   C1A 9111  32.167  19.967   8.832
  449POPC   D2A 9112  32.216  19.705   8.453
  449POPC   C3A 9113  32.230  19.971   8.129
  449POPC   C4A 9114  32.142  20.011   7.726
  449POPC   C1B 9115  32.614  19.545   8.757
  449POPC   C2B 9116  32.722  19.464   8.350
  449POPC   C3B 9117  32.483  19.544   7.998
  449POPC   C4B 9118  32.510  19.651   7.581
  450POPC   NC3 9119  10.416   2.982   9.681
  450POPC   PO4 9120  10.853   2.448   9.579
  450POPC   GL1 9121  10.569   2.722   9.270
  450POPC   GL2 9122  10.561   3.094   9.215
  450POPC   C1A 9123  10.432   2.766   8.835
  450POPC   D2A 9124  10.422   2.635   8.397
  450POPC   C3A 9125  10.739   2.763   8.124
  450POPC   C4A 9126  10.667   2.490   7.811
  450POPC   C1B 9127  10.674   3.235   8.838
  450POPC   C2B 9128  10.495   3.128   8.463
  450POPC   C3B 9129  10.484   3.209   8.049
  450POPC   C4B 9130  10.820   3.158   7.779
  451POPC   NC3 9131  22.563  25.290   9.449
  451POPC   PO4 9132  23.305  25.510   9.488
  451POPC   GL1 9133  22.989  25.525   9.199
  451POPC   GL2 9134  22.931  25.163   9.114
  451POPC   C1A 9135  22.798  25.570   8.801
  451POPC   D2A 9136  22.764  25.264   8.469
  451POPC   C3A 9137  23.000  25.411   8.147
  451POPC   C4A 9138  22.966  25.517   7.733
  451POPC   C1B 9139  23.188  25.224   8.740
  451POPC   C2B 9140  23.191  24.974   8.332
  451POPC   C3B 9141  23.270  25.079   7.883
  451POPC   C4B 9142  23.203  24.967   7.465
  452POPC   NC3 9143  37.410   3.369   9.571
  452POPC   PO4 9144  37.803   3.850   9.413
  452POPC   GL1 9145  37.502   3.671   9.106
  452POPC   GL2 9146  37.453   3.327   9.072
  452POPC   C1A 9147  37.302   3.653   8.689
  452POPC   D2A 9148  37.267   3.887   8.293
  452POPC   C3A 9149  37.524   3.696   7.977
  452POPC   C4A 9150  37.515   3.819   7.584
  452POPC   C1B 9151  37.703   3.257   8.746
  452POPC   C2B 9152  37.611   3.347   8.356
  452POPC   C3B 9153  37.589   3.105   8.012
  452POPC   C4B 9154  37.603   3.289   7.592
  453POPC   NC3 9155  32.794  32.599   9.444
  453POPC   PO4 9156  33.273  32.171   9.563
  453POPC   GL1 9157  33.157  32.336   9.178
  453POPC   GL2 9158  32.819  32.241   9.095
  453POPC   C1A 9159  33.190  32.193   8.754
  453POPC   D2A 9160  32.945  32.271   8.409
  453POPC   C3A 9161  33.197  32.244   8.039
  453POPC   C4A 9162  32.910  32.042   7.803
  453POPC   C1B 9163  32.847  32.624   8.789
  453POPC   C2B 9164  32.567  32.656   8.421
  453POPC   C3B 9165  32.604  32.448   8.039
  453POPC   C4B 9166  32.896  32.593   7.812
  454POPC   NC3 9167   4.547  33.138   9.351
  454POPC   PO4 9168   4.269  33.651   9.655
  454POPC   GL1 9169   4.211  33.794   9.229
  454POPC   GL2 9170   4.449  33.562   9.122
  454POPC   C1A 9171   4.342  33.936   8.814
  454POPC   D2A 9172   4.562  33.979   8.418
  454POPC   C3A 9173   4.263  33.991   8.085
  454POPC   C4A 9174   4.255  34.080   7.654
  454POPC   C1B 9175   4.197  33.382   8.825
  454POPC   C2B 9176   3.961  33.430   8.433
  454POPC   C3B 9177   4.024  33.410   7.992
  454POPC   C4B 9178   4.346  33.587   7.780
  455POPC   NC3 9179  24.016  24.714   9.455
  455POPC   PO4 9180  24.476  24.304   9.480
  455POPC   GL1 9181  24.583  24.482   9.096
  455POPC   GL2 9182  24.439  24.193   8.952
  455POPC   C1A 9183  24.632  24.517   8.615
  455POPC   D2A 9184  24.453  24.280   8.275
  455POPC   C3A 9185  24.607  24.432   7.868
  455POPC   C4A 9186  24.563  24.805   7.679
  455POPC   C1B 9187  24.174  24.617   8.817
  455POPC   C2B 9188  24.125  24.832   8.401
  455POPC   C3B 9189  24.119  24.617   7.991
  455POPC   C4B 9190  24.188  24.159   7.834
  456POPC   NC3 9191  35.640  35.293   9.477
  456POPC   PO4 9192  34.999  35.489   9.440
  456POPC   GL1 9193  35.204  35.289   9.101
  456POPC   GL2 9194  35.548  35.109   9.020
  456POPC   C1A 9195  35.357  35.538   8.773
  456POPC   D2A 9196  35.569  35.599   8.399
  456POPC   C3A 9197  35.323  35.469   8.082
  456POPC   C4A 9198  35.469  35.451   7.677
  456POPC   C1B 9199  35.588  35.109   8.579
  456POPC   C2B 9200  35.466  34.879   8.254
  456POPC   C3B 9201  35.515  34.833   7.848
  456POPC   C4B 9202  35.769  35.056   7.554
  457POPC   NC3 9203   5.949  38.128   9.290
  457POPC   PO4 9204   5.567  38.599   9.669
  457POPC   GL1 9205   5.641  38.583   9.224
  457POPC   GL2 9206   5.971  38.625   9.124
  457POPC   C1A 9207   5.571  38.461   8.801
  457POPC   D2A 9208   5.579  38.139   8.515
  457POPC   C3A 9209   5.634  38.340   8.160
  457POPC   C4A 9210   5.720  38.632   7.867
  457POPC   C1B 9211   6.068  38.450   8.690
  457POPC   C2B 9212   6.090  38.612   8.257
  457POPC   C3B 9213   6.227  38.650   7.833
  457POPC   C4B 9214   6.013  38.454   7.478
  458POPC   NC3 9215   8.033   3.359   9.501
  458POPC   PO4 9216   8.718   3.628   9.584
  458POPC   GL1 9217   8.442   3.565   9.271
  458POPC   GL2 9218   8.554   3.267   9.120
  458POPC   C1A 9219   8.197   3.561   8.905
  458POPC   D2A 9220   7.956   3.509   8.528
  458POPC   C3A 9221   8.131   3.621   8.152
  458POPC   C4A 9222   8.161   3.578   7.734
  458POPC   C1B 9223   8.332   3.090   8.744
  458POPC   C2B 9224   8.159   3.082   8.344
  458POPC   C3B 9225   8.325   3.141   7.955
  458POPC   C4B 9226   8.531   3.219   7.589
  459POPC   NC3 9227  28.747   3.602   9.772
  459POPC   PO4 9228  28.304   3.891   9.432
  459POPC   GL1 9229  28.318   3.760   9.051
  459POPC   GL2 9230  28.485   3.475   9.070
  459POPC   C1A 9231  28.015   3.585   8.798
  459POPC   D2A 9232  27.964   3.627   8.384
  459POPC   C3A 9233  28.259   3.430   8.127
  459POPC   C4A 9234  28.323   3.564   7.717
  459POPC   C1B 9235  28.404   3.257   8.683
  459POPC   C2B 9236  28.684   3.238   8.321
  459POPC   C3B 9237  28.788   3.588   7.999
  459POPC   C4B 9238  28.768   3.664   7.522
  460POPC   NC3 9239  19.162  27.704   9.685
  460POPC   PO4 9240  19.097  28.384   9.564
  460POPC   GL1 9241  19.071  28.403   9.118
  460POPC   GL2 9242  19.409  28.354   9.139
  460POPC   C1A 9243  18.860  28.528   8.718
  460POPC   D2A 9244  18.650  28.618   8.338
  460POPC   C3A 9245  18.901  28.516   7.983
  460POPC   C4A 9246  19.167  28.203   7.867
  460POPC   C1B 9247  19.414  28.319   8.738
  460POPC   C2B 9248  19.297  28.413   8.330
  460POPC   C3B 9249  19.555  28.514   7.966
  460POPC   C4B 9250  19.410  28.489   7.522
  461POPC   NC3 9251  24.960  28.185   9.251
  461POPC   PO4 9252  24.320  28.179   9.500
  461POPC   GL1 9253  24.471  28.263   9.120
  461POPC   GL2 9254  24.194  28.404   9.014
  461POPC   C1A 9255  24.619  28.314   8.688
  461POPC   D2A 9256  24.411  28.219   8.340
  461POPC   C3A 9257  24.686  28.168   7.992
  461POPC   C4A 9258  24.677  28.187   7.551
  461POPC   C1B 9259  24.197  28.665   8.645
  461POPC   C2B 9260  24.013  28.544   8.261
  461POPC   C3B 9261  24.222  28.427   7.912
  461POPC   C4B 9262  24.408  28.742   7.680
  462POPC   NC3 9263   4.881   0.146   9.510
  462POPC   PO4 9264   5.293   0.718   9.509
  462POPC   GL1 9265   4.968   0.694   9.208
  462POPC   GL2 9266   4.939   0.344   9.053
  462POPC   C1A 9267   5.101   0.738   8.808
  462POPC   D2A 9268   5.152   0.368   8.558
  462POPC   C3A 9269   5.271   0.481   8.171
  462POPC   C4A 9270   5.412   0.547   7.804
  462POPC   C1B 9271   4.662   0.429   8.699
  462POPC   C2B 9272   4.752   0.427   8.245
  462POPC   C3B 9273   4.923   0.259   7.855
  462POPC   C4B 9274   4.670   0.210   7.453
  463POPC   NC3 9275   2.017   1.568   9.657
  463POPC   PO4 9276   2.358   1.083   9.423
  463POPC   GL1 9277   2.168   1.405   9.208
  463POPC   GL2 9278   1.811   1.330   9.227
  463POPC   C1A 9279   2.178   1.491   8.813
  463POPC   D2A 9280   2.209   1.168   8.505
  463POPC   C3A 9281   2.055   1.289   8.113
  463POPC   C4A 9282   2.281   1.431   7.744
  463POPC   C1B 9283   1.671   1.476   8.818
  463POPC   C2B 9284   1.540   1.295   8.417
  463POPC   C3B 9285   1.444   1.516   8.022
  463POPC   C4B 9286   1.807   1.627   7.815
  464POPC   NC3 9287  16.245  23.721   9.303
  464POPC   PO4 9288  15.807  23.368   9.736
  464POPC   GL1 9289  15.767  23.478   9.265
  464POPC   GL2 9290  15.779  23.838   9.129
  464POPC   C1A 9291  15.830  23.436   8.795
  464POPC   D2A 9292  15.705  23.647   8.395
  464POPC   C3A 9293  15.820  23.567   7.934
  464POPC   C4A 9294  15.928  23.448   7.480
  464POPC   C1B 9295  16.034  23.899   8.723
  464POPC   C2B 9296  16.228  23.747   8.321
  464POPC   C3B 9297  16.192  23.927   7.897
  464POPC   C4B 9298  16.027  24.002   7.484
  465POPC   NC3 9299  28.118  43.783  10.215
  465POPC   PO4 9300  28.533  43.596   9.662
  465POPC   GL1 9301  28.529  43.832   9.238
  465POPC   GL2 9302  28.211  44.040   9.153
  465POPC   C1A 9303  28.520  43.873   8.768
  465POPC   D2A 9304  28.276  44.135   8.472
  465POPC   C3A 9305  28.411  44.159   8.037
  465POPC   C4A 9306  28.674  43.897   7.754
  465POPC   C1B 9307  28.015  43.803   8.778
  465POPC   C2B 9308  28.204  43.620   8.364
  465POPC   C3B 9309  28.242  43.677   7.906
  465POPC   C4B 9310  28.210  44.020   7.567
  466POPC   NC3 9311  32.575  17.404   9.541
  466POPC   PO4 9312  32.181  17.919   9.719
  466POPC   GL1 9313  32.181  17.703   9.310
  466POPC   GL2 9314  32.519  17.763   9.162
  466POPC   C1A 9315  32.141  17.616   8.851
  466POPC   D2A 9316  32.413  17.776   8.539
  466POPC   C3A 9317  32.231  17.775   8.134
  466POPC   C4A 9318  32.323  17.603   7.748
  466POPC   C1B 9319  32.572  17.354   8.888
  466POPC   C2B 9320  32.300  17.173   8.542
  466POPC   C3B 9321  32.335  17.150   8.067
  466POPC   C4B 9322  32.721  17.215   7.814
  467POPC   NC3 9323  16.452  12.125   9.481
  467POPC   PO4 9324  17.060  12.164   9.694
  467POPC   GL1 9325  16.911  12.128   9.229
  467POPC   GL2 9326  16.637  12.365   9.071
  467POPC   C1A 9327  16.839  11.932   8.803
  467POPC   D2A 9328  17.054  12.034   8.404
  467POPC   C3A 9329  16.862  11.979   8.008
  467POPC   C4A 9330  16.642  12.330   7.818
  467POPC   C1B 9331  16.994  12.424   8.788
  467POPC   C2B 9332  17.096  12.640   8.436
  467POPC   C3B 9333  17.192  12.454   8.060
  467POPC   C4B 9334  17.106  12.525   7.640
  468POPC   NC3 9335  34.277  14.730   9.844
  468POPC   PO4 9336  33.743  14.585   9.467
  468POPC   GL1 9337  33.721  14.352   9.143
  468POPC   GL2 9338  34.030  14.431   9.015
  468POPC   C1A 9339  33.535  14.395   8.746
  468POPC   D2A 9340  33.673  14.247   8.337
  468POPC   C3A 9341  33.786  14.515   8.017
  468POPC   C4A 9342  34.102  14.811   7.993
  468POPC   C1B 9343  33.872  14.024   8.772
  468POPC   C2B 9344  33.876  13.769   8.381
  468POPC   C3B 9345  33.938  13.995   7.994
  468POPC   C4B 9346  33.553  14.121   7.810
  469POPC   NC3 9347   6.043  28.809   9.828
  469POPC   PO4 9348   5.580  28.375   9.457
  469POPC   GL1 9349   5.941  28.365   9.196
  469POPC   GL2 9350   6.011  28.648   9.331
  469POPC   C1A 9351   5.960  28.255   8.777
  469POPC   D2A 9352   5.985  28.197   8.339
  469POPC   C3A 9353   5.721  28.337   8.007
  469POPC   C4A 9354   5.349  28.183   7.846
  469POPC   C1B 9355   5.756  28.727   8.891
  469POPC   C2B 9356   5.644  28.595   8.466
  469POPC   C3B 9357   5.465  28.801   8.098
  469POPC   C4B 9358   5.686  28.801   7.720
  470POPC   NC3 9359  33.972  21.578   9.632
  470POPC   PO4 9360  33.348  21.260   9.601
  470POPC   GL1 9361  33.693  21.289   9.263
  470POPC   GL2 9362  34.073  21.175   9.237
  470POPC   C1A 9363  33.830  21.458   8.864
  470POPC   D2A 9364  33.787  21.279   8.450
  470POPC   C3A 9365  33.643  21.456   8.098
  470POPC   C4A 9366  33.533  21.172   7.761
  470POPC   C1B 9367  34.318  21.267   8.838
  470POPC   C2B 9368  34.286  21.227   8.369
  470POPC   C3B 9369  34.104  21.272   7.983
  470POPC   C4B 9370  34.017  21.653   7.789
  471POPC   NC3 9371   4.079   5.357   9.388
  471POPC   PO4 9372   4.490   4.827   9.396
  471POPC   GL1 9373   4.617   5.044   9.032
  471POPC   GL2 9374   4.637   5.359   9.128
  471POPC   C1A 9375   4.572   4.972   8.572
  471POPC   D2A 9376   4.122   4.928   8.409
  471POPC   C3A 9377   4.071   4.978   7.965
  471POPC   C4A 9378   4.463   5.098   7.779
  471POPC   C1B 9379   4.576   5.553   8.730
  471POPC   C2B 9380   4.682   5.454   8.310
  471POPC   C3B 9381   4.432   5.576   7.975
  471POPC   C4B 9382   4.000   5.498   7.912
  472POPC   NC3 9383   6.262  15.733   9.438
  472POPC   PO4 9384   6.363  16.371   9.295
  472POPC   GL1 9385   6.614  16.031   9.150
  472POPC   GL2 9386   6.784  15.702   9.237
  472POPC   C1A 9387   6.531  15.852   8.764
  472POPC   D2A 9388   6.795  15.994   8.431
  472POPC   C3A 9389   6.607  15.965   8.066
  472POPC   C4A 9390   6.684  16.081   7.686
  472POPC   C1B 9391   7.014  15.753   8.826
  472POPC   C2B 9392   7.115  15.586   8.404
  472POPC   C3B 9393   7.114  15.781   8.012
  472POPC   C4B 9394   6.952  15.646   7.646
  473POPC   NC3 9395  10.452   0.270   9.579
  473POPC   PO4 9396  10.830   0.798   9.465
  473POPC   GL1 9397  10.629   0.501   9.155
  473POPC   GL2 9398  10.786   0.153   9.179
  473POPC   C1A 9399  10.359   0.398   8.792
  473POPC   D2A 9400  10.190   0.468   8.344
  473POPC   C3A 9401  10.430   0.721   8.078
  473POPC   C4A 9402  10.462   0.541   7.692
  473POPC   C1B 9403  10.875   0.295   8.758
  473POPC   C2B 9404  10.694   0.403   8.389
  473POPC   C3B 9405  10.634   0.209   8.011
  473POPC   C4B 9406  10.868   0.244   7.612
  474POPC   NC3 9407   0.705  37.556   9.501
  474POPC   PO4 9408   0.140  37.894   9.749
  474POPC   GL1 9409   0.291  37.836   9.305
  474POPC   GL2 9410   0.614  37.885   9.138
  474POPC   C1A 9411   0.254  37.559   8.927
  474POPC   D2A 9412   0.293  37.478   8.478
  474POPC   C3A 9413   0.131  37.755   8.145
  474POPC   C4A 9414   0.218  37.616   7.704
  474POPC   C1B 9415   0.721  37.709   8.739
  474POPC   C2B 9416   0.619  37.872   8.321
  474POPC   C3B 9417   0.704  37.732   7.923
  474POPC   C4B 9418   0.659  37.830   7.477
  475POPC   NC3 9419   5.396   3.690   9.482
  475POPC   PO4 9420   6.018   3.324   9.431
  475POPC   GL1 9421   5.946   3.516   9.083
  475POPC   GL2 9422   5.602   3.564   9.043
  475POPC   C1A 9423   6.200   3.452   8.737
  475POPC   D2A 9424   6.054   3.332   8.338
  475POPC   C3A 9425   6.108   3.635   8.013
  475POPC   C4A 9426   5.833   3.580   7.695
  475POPC   C1B 9427   5.793   3.737   8.653
  475POPC   C2B 9428   5.637   3.639   8.259
  475POPC   C3B 9429   5.502   3.885   7.937
  475POPC   C4B 9430   5.781   4.172   7.741
  476POPC   NC3 9431  25.264  25.099   9.571
  476POPC   PO4 9432  24.990  25.714   9.391
  476POPC   GL1 9433  25.221  25.394   9.167
  476POPC   GL2 9434  24.914  25.228   9.178
  476POPC   C1A 9435  25.358  25.111   8.840
  476POPC   D2A 9436  25.510  24.937   8.419
  476POPC   C3A 9437  25.333  25.048   8.042
  476POPC   C4A 9438  25.411  25.354   7.781
  476POPC   C1B 9439  24.879  25.415   8.804
  476POPC   C2B 9440  25.051  25.269   8.434
  476POPC   C3B 9441  24.934  25.387   8.024
  476POPC   C4B 9442  24.953  25.201   7.625
  477POPC   NC3 9443  22.472   1.907   9.621
  477POPC   PO4 9444  21.895   2.119   9.493
  477POPC   GL1 9445  22.085   1.874   9.177
  477POPC   GL2 9446  22.401   1.677   9.146
  477POPC   C1A 9447  22.240   2.058   8.780
  477POPC   D2A 9448  22.366   2.276   8.396
  477POPC   C3A 9449  22.183   2.133   8.008
  477POPC   C4A 9450  22.330   2.192   7.602
  477POPC   C1B 9451  22.123   1.550   8.773
  477POPC   C2B 9452  22.212   1.724   8.343
  477POPC   C3B 9453  22.472   1.719   7.958
  477POPC   C4B 9454  22.318   1.711   7.522
  478POPC   NC3 9455  44.888  11.511   9.414
  478POPC   PO4 9456  44.403  11.129   9.395
  478POPC   GL1 9457  44.592  11.329   9.046
  478POPC   GL2 9458  44.947  11.226   8.997
  478POPC   C1A 9459  44.532  11.281   8.624
  478POPC   D2A 9460  44.168  11.200   8.383
  478POPC   C3A 9461  44.273  10.989   8.008
  478POPC   C4A 9462  44.396  11.147   7.608
  478POPC   C1B 9463  44.901  11.619   8.753
  478POPC   C2B 9464  44.939  11.705   8.351
  478POPC   C3B 9465  44.763  11.762   7.992
  478POPC   C4B 9466  44.804  11.399   7.749
  479POPC   NC3 9467  17.516  38.174   9.258
  479POPC   PO4 9468  17.288  37.555   9.419
  479POPC   GL1 9469  17.156  37.632   9.031
  479POPC   GL2 9470  17.138  37.974   8.987
  479POPC   C1A 9471  17.340  37.678   8.624
  479POPC   D2A 9472  17.658  37.921   8.397
  479POPC   C3A 9473  17.594  37.809   7.970
  479POPC   C4A 9474  17.186  37.582   7.823
  479POPC   C1B 9475  17.141  38.267   8.637
  479POPC   C2B 9476  17.119  38.272   8.188
  479POPC   C3B 9477  17.210  38.094   7.792
  479POPC   C4B 9478  17.167  37.870   7.374
  480POPC   NC3 9479  29.273   3.137   9.484
  480POPC   PO4 9480  29.207   2.505   9.487
  480POPC   GL1 9481  28.969   2.582   9.135
  480POPC   GL2 9482  28.888   2.963   9.167
  480POPC   C1A 9483  29.157   2.592   8.726
  480POPC   D2A 9484  29.294   2.720   8.316
  480POPC   C3A 9485  29.354   2.546   7.941
  480POPC   C4A 9486  29.483   2.946   7.824
  480POPC   C1B 9487  28.703   2.845   8.766
  480POPC   C2B 9488  28.785   2.697   8.350
  480POPC   C3B 9489  28.887   2.794   7.937
  480POPC   C4B 9490  28.746   3.172   7.731
  481POPC   NC3 9491  16.411  24.528   9.503
  481POPC   PO4 9492  16.619  23.908   9.514
  481POPC   GL1 9493  16.720  24.317   9.170
  481POPC   GL2 9494  17.056  24.422   9.056
  481POPC   C1A 9495  16.693  24.561   8.727
  481POPC   D2A 9496  16.477  24.766   8.350
  481POPC   C3A 9497  16.397  24.746   7.862
  481POPC   C4A 9498  16.637  24.869   7.453
  481POPC   C1B 9499  17.020  24.174   8.703
  481POPC   C2B 9500  16.971  24.364   8.319
  481POPC   C3B 9501  17.098  24.535   7.957
  481POPC   C4B 9502  16.905  24.457   7.585
  482POPC   NC3 9503  29.355  13.658   9.412
  482POPC   PO4 9504  28.973  13.089   9.273
  482POPC   GL1 9505  29.175  13.397   9.010
  482POPC   GL2 9506  29.033  13.739   9.035
  482POPC   C1A 9507  29.318  13.452   8.591
  482POPC   D2A 9508  29.471  13.201   8.255
  482POPC   C3A 9509  29.389  13.458   7.924
  482POPC   C4A 9510  28.994  13.599   7.770
  482POPC   C1B 9511  29.200  14.010   8.727
  482POPC   C2B 9512  29.296  13.934   8.306
  482POPC   C3B 9513  29.127  14.075   7.923
  482POPC   C4B 9514  28.773  14.039   7.669
  483POPC   NC3 9515  23.688  35.397   9.762
  483POPC   PO4 9516  23.368  35.056   9.314
  483POPC   GL1 9517  23.680  35.140   9.070
  483POPC   GL2 9518  23.797  35.437   9.230
  483POPC   C1A 9519  23.752  34.984   8.669
  483POPC   D2A 9520  23.811  35.283   8.350
  483POPC   C3A 9521  23.885  35.091   7.947
  483POPC   C4A 9522  23.687  35.187   7.506
  483POPC   C1B 9523  23.659  35.582   8.793
  483POPC   C2B 9524  23.485  35.714   8.378
  483POPC   C3B 9525  23.665  35.573   7.959
  483POPC   C4B 9526  23.729  35.769   7.583
  484POPC   NC3 9527  33.413   4.953   9.423
  484POPC   PO4 9528  33.074   5.594   9.484
  484POPC   GL1 9529  33.047   5.228   9.202
  484POPC   GL2 9530  32.743   5.144   9.052
  484POPC   C1A 9531  33.166   5.154   8.765
  484POPC   D2A 9532  32.964   5.248   8.369
  484POPC   C3A 9533  33.113   5.088   7.986
  484POPC   C4A 9534  33.447   5.233   7.757
  484POPC   C1B 9535  32.696   4.926   8.656
  484POPC   C2B 9536  32.823   4.742   8.256
  484POPC   C3B 9537  32.854   4.700   7.809
  484POPC   C4B 9538  32.867   4.977   7.442
  485POPC   NC3 9539  19.510  26.769   9.606
  485POPC   PO4 9540  18.973  27.110   9.559
  485POPC   GL1 9541  19.110  26.764   9.244
  485POPC   GL2 9542  19.423  26.494   9.196
  485POPC   C1A 9543  19.027  26.868   8.819
  485POPC   D2A 9544  19.224  26.852   8.420
  485POPC   C3A 9545  19.014  26.809   8.035
  485POPC   C4A 9546  19.218  26.859   7.671
  485POPC   C1B 9547  19.302  26.442   8.783
  485POPC   C2B 9548  19.310  26.220   8.390
  485POPC   C3B 9549  19.382  26.427   7.998
  485POPC   C4B 9550  19.333  26.394   7.558
  486POPC   NC3 9551  10.084  35.985   9.379
  486POPC   PO4 9552   9.397  36.046   9.341
  486POPC   GL1 9553   9.677  36.217   9.111
  486POPC   GL2 9554   9.559  36.551   9.127
  486POPC   C1A 9555   9.890  36.063   8.746
  486POPC   D2A 9556   9.831  35.950   8.321
  486POPC   C3A 9557  10.146  36.076   8.039
  486POPC   C4A 9558   9.961  36.144   7.640
  486POPC   C1B 9559   9.768  36.563   8.754
  486POPC   C2B 9560   9.653  36.633   8.389
  486POPC   C3B 9561   9.797  36.457   8.029
  486POPC   C4B 9562   9.534  36.455   7.725
  487POPC   NC3 9563   7.260  24.811   9.557
  487POPC   PO4 9564   7.298  24.208   9.589
  487POPC   GL1 9565   7.296  24.372   9.200
  487POPC   GL2 9566   7.205  24.035   9.110
  487POPC   C1A 9567   7.266  24.738   8.860
  487POPC   D2A 9568   7.186  24.656   8.400
  487POPC   C3A 9569   7.507  24.639   8.066
  487POPC   C4A 9570   7.373  24.659   7.652
  487POPC   C1B 9571   7.130  24.268   8.740
  487POPC   C2B 9572   7.006  24.162   8.344
  487POPC   C3B 9573   7.061  24.366   7.958
  487POPC   C4B 9574   6.967  24.379   7.513
  488POPC   NC3 9575  15.001  41.006   9.516
  488POPC   PO4 9576  15.399  40.456   9.516
  488POPC   GL1 9577  15.292  40.561   9.122
  488POPC   GL2 9578  15.156  40.893   9.043
  488POPC   C1A 9579  15.406  40.630   8.705
  488POPC   D2A 9580  15.133  40.890   8.484
  488POPC   C3A 9581  15.304  40.811   8.119
  488POPC   C4A 9582  15.313  40.985   7.748
  488POPC   C1B 9583  14.848  40.635   8.835
  488POPC   C2B 9584  14.595  40.654   8.445
  488POPC   C3B 9585  14.791  40.769   8.086
  488POPC   C4B 9586  14.994  40.566   7.712
  489POPC   NC3 9587   4.040  11.534   9.634
  489POPC   PO4 9588   4.593  11.189   9.621
  489POPC   GL1 9589   4.435  11.379   9.296
  489POPC   GL2 9590   4.166  11.209   9.259
  489POPC   C1A 9591   4.572  11.351   8.869
  489POPC   D2A 9592   4.407  11.290   8.469
  489POPC   C3A 9593   4.591  11.252   8.068
  489POPC   C4A 9594   4.679  11.284   7.633
  489POPC   C1B 9595   4.086  11.450   8.876
  489POPC   C2B 9596   3.889  11.321   8.518
  489POPC   C3B 9597   4.041  11.304   8.107
  489POPC   C4B 9598   4.175  11.187   7.714
  490POPC   NC3 9599   6.398   9.093   9.404
  490POPC   PO4 9600   7.002   8.955   9.603
  490POPC   GL1 9601   6.775   8.770   9.211
  490POPC   GL2 9602   6.418   8.615   9.225
  490POPC   C1A 9603   6.889   8.836   8.752
  490POPC   D2A 9604   6.828   9.049   8.323
  490POPC   C3A 9605   6.906   8.788   7.932
  490POPC   C4A 9606   6.885   8.939   7.478
  490POPC   C1B 9607   6.344   8.756   8.824
  490POPC   C2B 9608   6.221   8.768   8.414
  490POPC   C3B 9609   6.254   8.854   8.006
  490POPC   C4B 9610   6.442   8.718   7.653
  491POPC   NC3 9611   6.251  27.228   9.738
  491POPC   PO4 9612   6.834  26.996   9.465
  491POPC   GL1 9613   6.714  26.711   9.146
  491POPC   GL2 9614   6.380  26.571   9.239
  491POPC   C1A 9615   6.926  26.720   8.759
  491POPC   D2A 9616   6.727  26.774   8.380
  491POPC   C3A 9617   6.967  26.851   8.045
  491POPC   C4A 9618   6.728  26.960   7.658
  491POPC   C1B 9619   6.408  26.526   8.762
  491POPC   C2B 9620   6.216  26.602   8.336
  491POPC   C3B 9621   6.312  26.734   7.891
  491POPC   C4B 9622   6.334  26.758   7.393
  492POPC   NC3 9623  31.636   2.524   9.362
  492POPC   PO4 9624  31.311   3.079   9.444
  492POPC   GL1 9625  31.610   3.078   9.089
  492POPC   GL2 9626  31.761   2.758   8.941
  492POPC   C1A 9627  31.560   3.090   8.636
  492POPC   D2A 9628  31.446   2.807   8.339
  492POPC   C3A 9629  31.382   2.913   7.935
  492POPC   C4A 9630  31.776   2.873   7.707
  492POPC   C1B 9631  31.462   2.461   8.716
  492POPC   C2B 9632  31.481   2.313   8.279
  492POPC   C3B 9633  31.572   2.435   7.901
  492POPC   C4B 9634  31.452   2.538   7.501
  493POPC   NC3 9635   8.801   3.098   9.539
  493POPC   PO4 9636   9.206   2.602   9.247
  493POPC   GL1 9637   8.853   2.822   9.076
  493POPC   GL2 9638   9.079   3.023   8.984
  493POPC   C1A 9639   8.664   2.689   8.671
  493POPC   D2A 9640   8.774   2.513   8.239
  493POPC   C3A 9641   9.162   2.573   8.038
  493POPC   C4A 9642   9.142   2.692   7.625
  493POPC   C1B 9643   8.832   3.189   8.706
  493POPC   C2B 9644   8.690   3.067   8.318
  493POPC   C3B 9645   8.845   2.990   7.915
  493POPC   C4B 9646   9.053   3.194   7.536
  494POPC   NC3 9647  43.951  15.575   9.591
  494POPC   PO4 9648  43.730  16.223   9.498
  494POPC   GL1 9649  44.019  15.957   9.240
  494POPC   GL2 9650  43.788  15.729   9.071
  494POPC   C1A 9651  44.231  15.978   8.814
  494POPC   D2A 9652  44.057  15.928   8.363
  494POPC   C3A 9653  44.074  16.228   7.996
  494POPC   C4A 9654  43.956  16.211   7.529
  494POPC   C1B 9655  43.567  15.477   8.746
  494POPC   C2B 9656  43.632  15.475   8.300
  494POPC   C3B 9657  43.649  15.850   8.048
  494POPC   C4B 9658  43.513  16.000   7.675
  495POPC   NC3 9659  14.143  43.776   9.457
  495POPC   PO4 9660  14.737  43.943   9.454
  495POPC   GL1 9661  14.494  44.029   9.104
  495POPC   GL2 9662  14.425  43.696   9.055
  495POPC   C1A 9663  14.495  44.009   8.645
  495POPC   D2A 9664  14.660  44.079   8.226
  495POPC   C3A 9665  14.450  43.994   7.857
  495POPC   C4A 9666  14.323  43.989   7.414
  495POPC   C1B 9667  14.438  43.474   8.686
  495POPC   C2B 9668  14.072  43.335   8.467
  495POPC   C3B 9669  14.116  43.526   8.087
  495POPC   C4B 9670  14.299  43.524   7.687
  496POPC   NC3 9671  39.609  17.473   9.542
  496POPC   PO4 9672  40.266  17.266   9.331
  496POPC   GL1 9673  39.923  17.407   9.090
  496POPC   GL2 9674  39.628  17.204   9.111
  496POPC   C1A 9675  40.072  17.439   8.682
  496POPC   D2A 9676  40.256  17.706   8.415
  496POPC   C3A 9677  39.970  17.763   8.120
  496POPC   C4A 9678  40.072  17.752   7.705
  496POPC   C1B 9679  39.728  17.071   8.727
  496POPC   C2B 9680  39.740  17.244   8.334
  496POPC   C3B 9681  39.920  17.278   7.935
  496POPC   C4B 9682  39.848  17.357   7.494
  497POPC   NC3 9683  27.750  17.818   9.127
  497POPC   PO4 9684  27.456  17.353   9.528
  497POPC   GL1 9685  27.479  17.380   9.097
  497POPC   GL2 9686  27.882  17.315   9.146
  497POPC   C1A 9687  27.382  17.570   8.637
  497POPC   D2A 9688  27.713  17.623   8.310
  497POPC   C3A 9689  27.617  17.918   7.996
  497POPC   C4A 9690  27.297  17.931   7.685
  497POPC   C1B 9691  27.775  17.262   8.708
  497POPC   C2B 9692  27.537  17.143   8.366
  497POPC   C3B 9693  27.747  17.176   7.983
  497POPC   C4B 9694  27.436  17.439   7.851
  498POPC   NC3 9695  43.516   1.828   9.489
  498POPC   PO4 9696  44.114   2.012   9.291
  498POPC   GL1 9697  43.808   1.945   9.033
  498POPC   GL2 9698  43.658   2.264   9.127
  498POPC   C1A 9699  43.941   1.808   8.613
  498POPC   D2A 9700  44.243   1.687   8.300
  498POPC   C3A 9701  44.073   1.814   7.923
  498POPC   C4A 9702  43.798   1.870   7.604
  498POPC   C1B 9703  43.782   2.304   8.661
  498POPC   C2B 9704  43.738   2.113   8.227
  498POPC   C3B 9705  43.666   2.296   7.800
  498POPC   C4B 9706  43.456   2.151   7.368
  499POPC   NC3 9707  13.173  31.557   9.449
  499POPC   PO4 9708  12.545  31.644   9.275
  499POPC   GL1 9709  12.711  31.287   9.111
  499POPC   GL2 9710  13.011  31.429   8.984
  499POPC   C1A 9711  12.639  31.274   8.691
  499POPC   D2A 9712  12.822  31.528   8.353
  499POPC   C3A 9713  12.713  31.420   7.941
  499POPC   C4A 9714  12.580  31.733   7.633
  499POPC   C1B 9715  13.260  31.407   8.600
  499POPC   C2B 9716  13.172  31.159   8.212
  499POPC   C3B 9717  13.089  31.095   7.801
  499POPC   C4B 9718  13.109  31.460   7.603
  500POPC   NC3 9719  41.363  12.753   9.479
  500POPC   PO4 9720  41.892  13.045   9.476
  500POPC   GL1 9721  41.685  12.834   9.100
  500POPC   GL2 9722  41.306  12.693   8.998
  500POPC   C1A 9723  41.704  12.687   8.706
  500POPC   D2A 9724  41.808  12.567   8.328
  500POPC   C3A 9725  41.807  12.842   8.003
  500POPC   C4A 9726  41.774  12.954   7.579
  500POPC   C1B 9727  41.201  12.694   8.549
  500POPC   C2B 9728  41.109  12.854   8.126
  500POPC   C3B 9729  41.321  12.750   7.724
  500POPC   C4B 9730  41.363  12.850   7.263
  501POPC   NC3 9731  11.318  36.404   9.591
  501POPC   PO4 9732  11.635  36.942   9.653
  501POPC   GL1 9733  11.411  36.845   9.226
  501POPC   GL2 9734  11.522  36.537   9.135
  501POPC   C1A 9735  11.372  37.002   8.796
  501POPC   D2A 9736  11.593  36.807   8.461
  501POPC   C3A 9737  11.542  37.046   8.079
  501POPC   C4A 9738  11.159  37.036   7.881
  501POPC   C1B 9739  11.265  36.508   8.789
  501POPC   C2B 9740  11.123  36.635   8.378
  501POPC   C3B 9741  11.307  36.567   7.976
  501POPC   C4B 9742  11.153  36.622   7.571
  502POPC   NC3 9743   5.212  32.887   9.470
  502POPC   PO4 9744   4.862  33.452   9.452
  502POPC   GL1 9745   5.043  33.236   9.124
  502POPC   GL2 9746   5.411  33.271   9.170
  502POPC   C1A 9747   5.102  32.891   8.827
  502POPC   D2A 9748   4.946  32.697   8.476
  502POPC   C3A 9749   5.106  32.740   8.067
  502POPC   C4A 9750   4.938  32.984   7.730
  502POPC   C1B 9751   5.396  33.292   8.730
  502POPC   C2B 9752   5.465  33.388   8.334
  502POPC   C3B 9753   5.297  33.217   7.996
  502POPC   C4B 9754   5.192  33.433   7.620
  503POPC   NC3 9755  36.519  17.610   9.670
  503POPC   PO4 9756  35.859  17.609   9.530
  503POPC   GL1 9757  36.178  17.636   9.250
  503POPC   GL2 9758  36.339  17.311   9.284
  503POPC   C1A 9759  36.039  17.685   8.827
  503POPC   D2A 9760  35.873  17.606   8.442
  503POPC   C3A 9761  36.012  17.715   8.063
  503POPC   C4A 9762  36.090  17.435   7.756
  503POPC   C1B 9763  36.461  17.406   8.861
  503POPC   C2B 9764  36.319  17.299   8.456
  503POPC   C3B 9765  36.505  17.390   8.081
  503POPC   C4B 9766  36.627  17.590   7.733
  504POPC   NC3 9767   6.744  11.603   9.780
  504POPC   PO4 9768   6.401  11.152   9.529
  504POPC   GL1 9769   6.729  11.081   9.201
  504POPC   GL2 9770   6.812  11.435   9.136
  504POPC   C1A 9771   6.748  11.109   8.730
  504POPC   D2A 9772   6.725  11.349   8.340
  504POPC   C3A 9773   6.659  11.180   7.918
  504POPC   C4A 9774   6.394  11.112   7.570
  504POPC   C1B 9775   6.838  11.673   8.754
  504POPC   C2B 9776   6.768  11.863   8.345
  504POPC   C3B 9777   6.851  11.660   7.945
  504POPC   C4B 9778   6.740  11.517   7.525
  505POPC   NC3 9779  40.253  44.952   9.519
  505POPC   PO4 9780  39.634  44.693   9.486
  505POPC   GL1 9781  39.997  44.580   9.155
  505POPC   GL2 9782  40.358  44.705   9.103
  505POPC   C1A 9783  40.057  44.794   8.727
  505POPC   D2A 9784  39.807  44.775   8.379
  505POPC   C3A 9785  39.966  44.798   7.981
  505POPC   C4A 9786  39.914  44.578   7.617
  505POPC   C1B 9787  40.540  44.624   8.697
  505POPC   C2B 9788  40.350  44.667   8.287
  505POPC   C3B 9789  40.357  44.486   7.828
  505POPC   C4B 9790  40.379  44.572   7.324
  506POPC   NC3 9791  42.596  35.949   9.643
  506POPC   PO4 9792  42.237  36.528   9.636
  506POPC   GL1 9793  42.132  36.132   9.353
  506POPC   GL2 9794  42.446  35.979   9.166
  506POPC   C1A 9795  42.059  36.130   8.887
  506POPC   D2A 9796  42.120  35.955   8.498
  506POPC   C3A 9797  42.043  36.143   8.128
  506POPC   C4A 9798  42.286  36.241   7.782
  506POPC   C1B 9799  42.606  36.085   8.762
  506POPC   C2B 9800  42.495  36.308   8.383
  506POPC   C3B 9801  42.578  35.994   8.120
  506POPC   C4B 9802  42.665  35.877   7.724
  507POPC   NC3 9803   8.316  11.675   9.613
  507POPC   PO4 9804   8.258  11.030   9.534
  507POPC   GL1 9805   8.169  11.222   9.171
  507POPC   GL2 9806   8.061  11.560   9.191
  507POPC   C1A 9807   8.116  11.044   8.791
  507POPC   D2A 9808   8.000  10.898   8.402
  507POPC   C3A 9809   8.006  11.235   8.177
  507POPC   C4A 9810   7.987  11.146   7.783
  507POPC   C1B 9811   8.423  11.575   8.908
  507POPC   C2B 9812   8.457  11.367   8.541
  507POPC   C3B 9813   8.527  11.246   8.157
  507POPC   C4B 9814   8.398  11.456   7.837
  508POPC   NC3 9815  35.094  20.436   9.527
  508POPC   PO4 9816  35.385  20.944   9.580
  508POPC   GL1 9817  35.456  20.707   9.186
  508POPC   GL2 9818  35.699  20.441   9.197
  508POPC   C1A 9819  35.351  20.572   8.753
  508POPC   D2A 9820  35.098  20.729   8.407
  508POPC   C3A 9821  35.347  20.577   8.069
  508POPC   C4A 9822  35.548  20.674   7.698
  508POPC   C1B 9823  35.765  20.243   8.791
  508POPC   C2B 9824  35.546  20.207   8.372
  508POPC   C3B 9825  35.687  20.208   7.907
  508POPC   C4B 9826  35.690  20.285   7.396
  509POPC   NC3 9827   1.849  24.840   9.463
  509POPC   PO4 9828   1.598  24.313   9.687
  509POPC   GL1 9829   1.766  24.400   9.216
  509POPC   GL2 9830   1.982  24.153   9.047
  509POPC   C1A 9831   1.990  24.630   8.842
  509POPC   D2A 9832   1.906  24.638   8.386
  509POPC   C3A 9833   2.166  24.715   8.010
  509POPC   C4A 9834   1.911  24.906   7.697
  509POPC   C1B 9835   2.126  24.199   8.577
  509POPC   C2B 9836   2.069  24.208   8.109
  509POPC   C3B 9837   1.865  24.059   7.717
  509POPC   C4B 9838   2.092  24.190   7.355
  510POPC   NC3 9839   3.750  26.698   9.713
  510POPC   PO4 9840   3.113  26.739   9.694
  510POPC   GL1 9841   3.398  26.721   9.329
  510POPC   GL2 9842   3.721  26.567   9.232
  510POPC   C1A 9843   3.333  26.696   8.899
  510POPC   D2A 9844   3.427  26.919   8.544
  510POPC   C3A 9845   3.276  26.703   8.176
  510POPC   C4A 9846   3.392  26.630   7.755
  510POPC   C1B 9847   3.838  26.703   8.835
  510POPC   C2B 9848   3.769  26.545   8.420
  510POPC   C3B 9849   3.806  26.740   8.051
  510POPC   C4B 9850   4.056  26.892   7.722
  511POPC   NC3 9851  35.398  30.895  10.131
  511POPC   PO4 9852  35.144  30.782   9.442
  511POPC   GL1 9853  35.294  30.753   9.083
  511POPC   GL2 9854  35.090  30.458   9.033
  511POPC   C1A 9855  35.267  30.908   8.712
  511POPC   D2A 9856  35.442  30.709   8.387
  511POPC   C3A 9857  35.370  30.914   8.007
  511POPC   C4A 9858  35.553  30.794   7.631
  511POPC   C1B 9859  35.014  30.135   8.759
  511POPC   C2B 9860  35.299  30.183   8.419
  511POPC   C3B 9861  35.200  30.385   8.054
  511POPC   C4B 9862  34.948  30.193   7.747
  512POPC   NC3 9863   4.028  27.414   9.539
  512POPC   PO4 9864   3.320  27.376   9.420
  512POPC   GL1 9865   3.635  27.697   9.227
  512POPC   GL2 9866   3.381  27.703   9.013
  512POPC   C1A 9867   3.767  27.914   8.790
  512POPC   D2A 9868   3.852  27.689   8.370
  512POPC   C3A 9869   3.569  27.653   8.021
  512POPC   C4A 9870   3.643  27.652   7.588
  512POPC   C1B 9871   3.469  27.461   8.708
  512POPC   C2B 9872   3.263  27.383   8.367
  512POPC   C3B 9873   3.497  27.149   8.096
  512POPC   C4B 9874   3.607  27.132   7.691
  513POPC   NC3 9875   0.666   5.467   9.305
  513POPC   PO4 9876   0.468   4.905   9.597
  513POPC   GL1 9877   0.468   5.007   9.168
  513POPC   GL2 9878   0.231   5.282   9.072
  513POPC   C1A 9879   0.697   5.053   8.777
  513POPC   D2A 9880   0.592   4.910   8.378
  513POPC   C3A 9881   0.614   5.122   7.990
  513POPC   C4A 9882   0.617   5.022   7.540
  513POPC   C1B 9883   0.181   5.066   8.661
  513POPC   C2B 9884   0.131   5.034   8.184
  513POPC   C3B 9885   0.179   5.189   7.749
  513POPC   C4B 9886   0.296   5.350   7.317
  514POPC   NC3 9887  21.758  21.297   9.427
  514POPC   PO4 9888  21.176  21.029   9.612
  514POPC   GL1 9889  21.265  21.180   9.192
  514POPC   GL2 9890  21.173  21.517   9.087
  514POPC   C1A 9891  21.392  21.192   8.752
  514POPC   D2A 9892  21.422  21.257   8.325
  514POPC   C3A 9893  21.148  21.143   8.044
  514POPC   C4A 9894  21.092  21.514   7.812
  514POPC   C1B 9895  21.563  21.672   8.832
  514POPC   C2B 9896  21.647  21.880   8.435
  514POPC   C3B 9897  21.580  21.659   8.031
  514POPC   C4B 9898  21.601  21.273   7.815
  515POPC   NC3 9899  24.675  10.052   9.638
  515POPC   PO4 9900  23.985   9.883   9.749
  515POPC   GL1 9901  24.262   9.875   9.319
  515POPC   GL2 9902  24.578   9.672   9.283
  515POPC   C1A 9903  24.267   9.656   8.857
  515POPC   D2A 9904  24.501   9.804   8.446
  515POPC   C3A 9905  24.393   9.635   8.029
  515POPC   C4A 9906  24.275   9.634   7.584
  515POPC   C1B 9907  24.773   9.624   8.873
  515POPC   C2B 9908  24.954   9.557   8.464
  515POPC   C3B 9909  24.899   9.763   8.080
  515POPC   C4B 9910  24.787   9.577   7.690
  516POPC   NC3 9911   1.779  41.438   9.292
  516POPC   PO4 9912   1.890  40.686   9.562
  516POPC   GL1 9913   1.901  40.651   9.139
  516POPC   GL2 9914   1.963  40.996   9.163
  516POPC   C1A 9915   2.200  40.817   8.774
  516POPC   D2A 9916   2.138  41.074   8.369
  516POPC   C3A 9917   2.211  40.787   7.997
  516POPC   C4A 9918   2.017  40.473   7.733
  516POPC   C1B 9919   1.726  40.940   8.775
  516POPC   C2B 9920   1.619  40.722   8.406
  516POPC   C3B 9921   1.715  40.796   8.011
  516POPC   C4B 9922   1.543  41.054   7.738
  517POPC   NC3 9923   3.165  31.019   9.369
  517POPC   PO4 9924   2.522  30.878   9.379
  517POPC   GL1 9925   2.703  30.571   9.116
  517POPC   GL2 9926   2.477  30.326   8.986
  517POPC   C1A 9927   2.873  30.651   8.735
  517POPC   D2A 9928   3.022  30.926   8.390
  517POPC   C3A 9929   2.988  30.751   7.965
  517POPC   C4A 9930   3.274  30.899   7.651
  517POPC   C1B 9931   2.346  30.671   8.708
  517POPC   C2B 9932   2.511  30.843   8.326
  517POPC   C3B 9933   2.521  30.974   7.884
  517POPC   C4B 9934   2.567  30.535   7.693
  518POPC   NC3 9935  20.653  28.846  10.104
  518POPC   PO4 9936  20.616  29.074   9.460
  518POPC   GL1 9937  20.693  29.229   9.055
  518POPC   GL2 9938  20.509  28.953   8.967
  518POPC   C1A 9939  20.688  29.290   8.609
  518POPC   D2A 9940  20.482  29.073   8.284
  518POPC   C3A 9941  20.593  29.211   7.892
  518POPC   C4A 9942  20.461  29.348   7.495
  518POPC   C1B 9943  20.883  28.824   8.763
  518POPC   C2B 9944  20.862  28.621   8.382
  518POPC   C3B 9945  20.901  28.730   7.969
  518POPC   C4B 9946  20.718  28.845   7.568
  519POPC   NC3 9947   5.713  29.034   9.465
  519POPC   PO4 9948   6.250  29.267   9.809
  519POPC   GL1 9949   5.976  29.428   9.331
  519POPC   GL2 9950   6.058  29.100   9.113
  519POPC   C1A 9951   5.887  29.427   8.806
  519POPC   D2A 9952   5.795  29.095   8.488
  519POPC   C3A 9953   5.789  29.239   8.053
  519POPC   C4A 9954   5.554  29.274   7.685
  519POPC   C1B 9955   6.266  28.735   8.920
  519POPC   C2B 9956   6.164  28.643   8.513
  519POPC   C3B 9957   5.997  28.761   8.128
  519POPC   C4B 9958   6.166  28.966   7.779
  520POPC   NC3 9959  34.433   6.226   9.609
  520POPC   PO4 9960  34.396   5.539   9.555
  520POPC   GL1 9961  34.508   5.729   9.180
  520POPC   GL2 9962  34.467   6.086   9.124
  520POPC   C1A 9963  34.672   5.791   8.767
  520POPC   D2A 9964  34.685   5.560   8.436
  520POPC   C3A 9965  34.815   5.728   8.050
  520POPC   C4A 9966  34.542   5.738   7.699
  520POPC   C1B 9967  34.331   6.167   8.695
  520POPC   C2B 9968  34.538   6.079   8.299
  520POPC   C3B 9969  34.666   6.201   7.857
  520POPC   C4B 9970  34.734   6.563   7.588
  521POPC   NC3 9971  10.953  29.041   9.388
  521POPC   PO4 9972  11.518  29.435   9.451
  521POPC   GL1 9973  11.404  29.376   9.022
  521POPC   GL2 9974  11.078  29.412   9.084
  521POPC   C1A 9975  11.159  29.066   8.727
  521POPC   D2A 9976  10.956  28.809   8.412
  521POPC   C3A 9977  11.193  28.926   8.049
  521POPC   C4A 9978  11.551  29.266   8.084
  521POPC   C1B 9979  11.031  29.571   8.681
  521POPC   C2B 9980  11.023  29.365   8.263
  521POPC   C3B 9981  11.139  29.358   7.799
  521POPC   C4B 9982  11.080  29.238   7.350
  522POPC   NC3 9983  27.135  37.572   9.439
  522POPC   PO4 9984  26.530  37.935   9.494
  522POPC   GL1 9985  26.762  37.788   9.134
  522POPC   GL2 9986  26.735  37.411   9.159
  522POPC   C1A 9987  26.799  37.778   8.670
  522POPC   D2A 9988  26.901  37.666   8.266
  522POPC   C3A 9989  26.565  37.729   8.012
  522POPC   C4A 9990  26.547  37.972   7.687
  522POPC   C1B 9991  27.062  37.381   8.818
  522POPC   C2B 9992  27.140  37.252   8.411
  522POPC   C3B 9993  27.234  37.354   7.989
  522POPC   C4B 9994  26.988  37.660   7.724
  523POPC   NC3 9995  31.752  28.073   9.347
  523POPC   PO4 9996  31.692  27.420   9.447
  523POPC   GL1 9997  31.471  27.636   9.147
  523POPC   GL2 9998  31.121  27.645   9.229
  523POPC   C1A 9999  31.471  27.791   8.718
  523POPC   D2A10000  31.702  27.647   8.321
  523POPC   C3A10001  31.665  27.834   7.893
  523POPC   C4A10002  31.754  27.609   7.493
  523POPC   C1B10003  31.070  27.468   8.812
  523POPC   C2B10004  31.225  27.418   8.401
  523POPC   C3B10005  31.198  27.651   8.066
  523POPC   C4B10006  31.051  27.529   7.692
  524POPC   NC310007  12.439  41.148   9.481
  524POPC   PO410008  11.766  41.063   9.493
  524POPC   GL110009  11.849  40.786   9.167
  524POPC   GL210010  12.124  41.039   9.092
  524POPC   C1A10011  12.103  40.614   8.818
  524POPC   D2A10012  12.420  40.764   8.527
  524POPC   C3A10013  12.302  40.700   8.061
  524POPC   C4A10014  12.025  40.484   7.747
  524POPC   C1B10015  11.899  41.079   8.708
  524POPC   C2B10016  11.908  40.836   8.354
  524POPC   C3B10017  11.906  40.985   7.941
  524POPC   C4B10018  11.677  41.072   7.612
  525POPC   NC310019  40.851  38.818   9.610
  525POPC   PO410020  41.089  38.160   9.582
  525POPC   GL110021  40.990  38.481   9.256
  525POPC   GL210022  40.655  38.516   9.140
  525POPC   C1A10023  41.004  38.498   8.793
  525POPC   D2A10024  40.701  38.276   8.497
  525POPC   C3A10025  40.805  38.338   8.072
  525POPC   C4A10026  41.000  38.314   7.679
  525POPC   C1B10027  40.452  38.685   8.775
  525POPC   C2B10028  40.264  38.568   8.392
  525POPC   C3B10029  40.264  38.402   8.019
  525POPC   C4B10030  40.498  38.325   7.671
  526POPC   NC310031  42.040  11.003   9.345
  526POPC   PO410032  42.645  11.186   9.514
  526POPC   GL110033  42.314  11.436   9.225
  526POPC   GL210034  42.315  11.234   8.941
  526POPC   C1A10035  42.119  11.684   8.841
  526POPC   D2A10036  42.183  11.839   8.399
  526POPC   C3A10037  42.338  11.547   8.067
  526POPC   C4A10038  42.338  11.517   7.599
  526POPC   C1B10039  42.681  11.056   8.698
  526POPC   C2B10040  42.781  11.150   8.272
  526POPC   C3B10041  42.613  11.165   7.869
  526POPC   C4B10042  42.151  11.075   7.776
  527POPC   NC310043  44.618  22.824   9.739
  527POPC   PO410044   0.282  22.888   9.741
  527POPC   GL110045  44.993  22.849   9.333
  527POPC   GL210046  44.642  22.966   9.247
  527POPC   C1A10047  44.962  22.946   8.853
  527POPC   D2A10048  44.741  22.848   8.469
  527POPC   C3A10049  44.767  23.145   8.141
  527POPC   C4A10050  44.677  23.029   7.740
  527POPC   C1B10051  44.397  22.847   8.907
  527POPC   C2B10052  44.240  23.021   8.523
  527POPC   C3B10053  44.239  23.116   8.083
  527POPC   C4B10054  44.196  22.851   7.713
  528POPC   NC310055  18.656  35.087   9.634
  528POPC   PO410056  19.286  35.322   9.645
  528POPC   GL110057  19.049  35.244   9.282
  528POPC   GL210058  19.148  35.537   9.175
  528POPC   C1A10059  18.927  35.252   8.817
  528POPC   D2A10060  18.871  35.487   8.416
  528POPC   C3A10061  19.084  35.401   8.037
  528POPC   C4A10062  19.136  35.121   7.710
  528POPC   C1B10063  19.375  35.537   8.804
  528POPC   C2B10064  19.344  35.705   8.398
  528POPC   C3B10065  19.507  35.686   8.010
  528POPC   C4B10066  19.349  35.616   7.601
  529POPC   NC310067  20.987   3.793   9.632
  529POPC   PO410068  20.298   3.784   9.488
  529POPC   GL110069  20.420   3.598   9.139
  529POPC   GL210070  20.771   3.648   9.199
  529POPC   C1A10071  20.498   3.647   8.719
  529POPC   D2A10072  20.485   3.410   8.364
  529POPC   C3A10073  20.614   3.616   8.023
  529POPC   C4A10074  20.514   3.410   7.699
  529POPC   C1B10075  20.910   3.393   8.876
  529POPC   C2B10076  21.007   3.449   8.439
  529POPC   C3B10077  20.949   3.234   8.063
  529POPC   C4B10078  21.011   3.481   7.689
  530POPC   NC310079  30.325   0.154   9.292
  530POPC   PO410080  30.496  44.565   9.629
  530POPC   GL110081  30.654  44.476   9.231
  530POPC   GL210082  30.691  44.815   9.125
  530POPC   C1A10083  30.613  44.456   8.771
  530POPC   D2A10084  30.644  44.241   8.378
  530POPC   C3A10085  30.805  44.468   8.017
  530POPC   C4A10086  30.552  44.372   7.714
  530POPC   C1B10087  30.436  44.945   8.728
  530POPC   C2B10088  30.363   0.106   8.333
  530POPC   C3B10089  30.386  44.886   7.918
  530POPC   C4B10090  30.365   0.077   7.507
  531POPC   NC310091  44.872  28.188   9.497
  531POPC   PO410092  44.354  28.536   9.522
  531POPC   GL110093  44.628  28.587   9.172
  531POPC   GL210094  44.584  28.242   9.100
  531POPC   C1A10095  44.711  28.488   8.701
  531POPC   D2A10096  44.493  28.649   8.358
  531POPC   C3A10097  44.635  28.489   7.976
  531POPC   C4A10098  44.515  28.597   7.573
  531POPC   C1B10099  44.347  28.098   8.765
  531POPC   C2B10100  44.493  28.118   8.358
  531POPC   C3B10101  44.275  28.111   8.002
  531POPC   C4B10102  44.309  28.089   7.585
  532POPC   NC310103   1.032  41.469   9.855
  532POPC   PO410104   1.491  41.749   9.486
  532POPC   GL110105   1.305  41.554   9.104
  532POPC   GL210106   0.944  41.480   9.107
  532POPC   C1A10107   1.152  41.669   8.685
  532POPC   D2A10108   1.311  41.670   8.279
  532POPC   C3A10109   1.187  41.867   7.919
  532POPC   C4A10110   1.276  41.701   7.493
  532POPC   C1B10111   0.825  41.255   8.708
  532POPC   C2B10112   1.021  41.219   8.250
  532POPC   C3B10113   1.056  41.358   7.802
  532POPC   C4B10114   0.843  41.447   7.352
  533POPC   NC310115   0.877   6.969   9.511
  533POPC   PO410116   0.909   7.623   9.503
  533POPC   GL110117   1.124   7.533   9.148
  533POPC   GL210118   1.229   7.207   9.224
  533POPC   C1A10119   1.179   7.644   8.718
  533POPC   D2A10120   0.923   7.868   8.424
  533POPC   C3A10121   1.136   7.687   8.108
  533POPC   C4A10122   1.165   7.774   7.694
  533POPC   C1B10123   1.083   7.124   8.812
  533POPC   C2B10124   1.343   7.247   8.444
  533POPC   C3B10125   1.498   7.311   8.044
  533POPC   C4B10126   1.267   7.278   7.702
  534POPC   NC310127  14.818  26.593   9.414
  534POPC   PO410128  14.151  26.320   9.513
  534POPC   GL110129  14.348  26.585   9.191
  534POPC   GL210130  14.245  26.914   9.129
  534POPC   C1A10131  14.530  26.590   8.779
  534POPC   D2A10132  14.627  26.774   8.388
  534POPC   C3A10133  14.841  26.558   8.081
  534POPC   C4A10134  14.729  26.643   7.671
  534POPC   C1B10135  14.271  27.047   8.689
  534POPC   C2B10136  14.261  27.133   8.250
  534POPC   C3B10137  14.332  26.965   7.835
  534POPC   C4B10138  14.223  27.047   7.352
  535POPC   NC310139  34.273   3.487   9.586
  535POPC   PO410140  33.606   3.804   9.516
  535POPC   GL110141  33.808   3.609   9.187
  535POPC   GL210142  34.143   3.733   9.140
  535POPC   C1A10143  33.757   3.357   8.833
  535POPC   D2A10144  33.552   3.277   8.461
  535POPC   C3A10145  33.703   3.231   8.076
  535POPC   C4A10146  33.564   3.526   7.818
  535POPC   C1B10147  34.270   3.475   8.799
  535POPC   C2B10148  34.112   3.345   8.423
  535POPC   C3B10149  34.195   3.430   8.016
  535POPC   C4B10150  34.021   3.655   7.687
  536POPC   NC310151  34.759  33.728   9.557
  536POPC   PO410152  34.171  33.458   9.739
  536POPC   GL110153  34.405  33.581   9.266
  536POPC   GL210154  34.459  33.942   9.187
  536POPC   C1A10155  34.597  33.569   8.829
  536POPC   D2A10156  34.831  33.520   8.407
  536POPC   C3A10157  34.569  33.620   8.054
  536POPC   C4A10158  34.475  33.815   7.688
  536POPC   C1B10159  34.766  34.051   8.854
  536POPC   C2B10160  34.697  34.019   8.394
  536POPC   C3B10161  34.544  34.222   8.011
  536POPC   C4B10162  34.673  34.261   7.570
  537POPC   NC310163  31.771  41.954   9.515
  537POPC   PO410164  31.407  42.540   9.495
  537POPC   GL110165  31.500  42.296   9.175
  537POPC   GL210166  31.851  42.320   9.145
  537POPC   C1A10167  31.333  42.301   8.768
  537POPC   D2A10168  31.336  42.556   8.403
  537POPC   C3A10169  31.356  42.375   8.063
  537POPC   C4A10170  31.638  42.289   7.796
  537POPC   C1B10171  31.777  42.552   8.769
  537POPC   C2B10172  31.871  42.479   8.324
  537POPC   C3B10173  31.747  42.732   7.985
  537POPC   C4B10174  31.781  42.808   7.503
  538POPC   NC310175   9.374  42.216   9.617
  538POPC   PO410176   9.984  42.384   9.574
  538POPC   GL110177   9.769  42.194   9.208
  538POPC   GL210178   9.459  42.363   9.135
  538POPC   C1A10179   9.789  42.230   8.741
  538POPC   D2A10180   9.729  42.059   8.312
  538POPC   C3A10181   9.876  42.280   7.921
  538POPC   C4A10182   9.944  42.193   7.448
  538POPC   C1B10183   9.312  42.469   8.747
  538POPC   C2B10184   9.529  42.525   8.383
  538POPC   C3B10185   9.398  42.523   7.975
  538POPC   C4B10186   9.468  42.355   7.596
  539POPC   NC310187  40.709  10.147   9.339
  539POPC   PO410188  40.876   9.446   9.507
  539POPC   GL110189  41.040   9.551   9.102
  539POPC   GL210190  40.757   9.738   9.059
  539POPC   C1A10191  41.026   9.605   8.640
  539POPC   D2A10192  40.677   9.727   8.354
  539POPC   C3A10193  40.819   9.769   7.950
  539POPC   C4A10194  41.084   9.481   7.731
  539POPC   C1B10195  40.812  10.049   8.731
  539POPC   C2B10196  40.530  10.212   8.407
  539POPC   C3B10197  40.565  10.338   8.014
  539POPC   C4B10198  40.774  10.187   7.687
  540POPC   NC310199   8.494  35.964   9.546
  540POPC   PO410200   7.825  35.773   9.693
  540POPC   GL110201   7.955  36.097   9.329
  540POPC   GL210202   8.311  36.197   9.127
  540POPC   C1A10203   7.890  36.084   8.870
  540POPC   D2A10204   8.251  35.982   8.594
  540POPC   C3A10205   8.228  36.107   8.155
  540POPC   C4A10206   8.138  35.876   7.782
  540POPC   C1B10207   8.436  36.460   8.742
  540POPC   C2B10208   8.527  36.667   8.347
  540POPC   C3B10209   8.592  36.473   7.966
  540POPC   C4B10210   8.610  36.058   7.781
  541POPC   NC310211  44.611  13.948   9.479
  541POPC   PO410212  44.734  14.515   9.740
  541POPC   GL110213  44.689  14.469   9.267
  541POPC   GL210214  44.439  14.251   9.126
  541POPC   C1A10215  44.628  14.617   8.846
  541POPC   D2A10216  44.817  14.600   8.450
  541POPC   C3A10217  44.675  14.463   8.080
  541POPC   C4A10218  44.983  14.328   7.816
  541POPC   C1B10219  44.437  13.967   8.767
  541POPC   C2B10220  44.394  14.118   8.398
  541POPC   C3B10221  44.265  14.161   8.034
  541POPC   C4B10222  44.455  14.166   7.667
  542POPC   NC310223  20.103  15.203   9.382
  542POPC   PO410224  19.633  14.755   9.397
  542POPC   GL110225  19.757  15.057   9.050
  542POPC   GL210226  19.750  15.460   9.103
  542POPC   C1A10227  19.648  15.192   8.658
  542POPC   D2A10228  19.599  14.938   8.309
  542POPC   C3A10229  19.665  15.221   7.960
  542POPC   C4A10230  20.109  15.202   7.822
  542POPC   C1B10231  20.057  15.507   8.758
  542POPC   C2B10232  20.007  15.431   8.304
  542POPC   C3B10233  20.071  15.692   7.922
  542POPC   C4B10234  20.208  15.723   7.506
  543POPC   NC310235  16.216  27.353   9.604
  543POPC   PO410236  15.770  27.797   9.564
  543POPC   GL110237  15.781  27.676   9.160
  543POPC   GL210238  15.930  27.349   9.161
  543POPC   C1A10239  15.873  27.924   8.811
  543POPC   D2A10240  16.212  27.959   8.510
  543POPC   C3A10241  15.961  27.936   8.145
  543POPC   C4A10242  15.926  28.070   7.761
  543POPC   C1B10243  16.144  27.493   8.764
  543POPC   C2B10244  16.138  27.477   8.320
  543POPC   C3B10245  16.209  27.564   7.894
  543POPC   C4B10246  15.803  27.588   7.733
  544POPC   NC310247   1.912  28.972   9.793
  544POPC   PO410248   1.630  29.209   9.267
  544POPC   GL110249   2.070  29.277   9.090
  544POPC   GL210250   2.344  29.512   9.204
  544POPC   C1A10251   2.056  29.158   8.658
  544POPC   D2A10252   1.639  29.075   8.468
  544POPC   C3A10253   1.544  29.426   8.219
  544POPC   C4A10254   1.732  29.275   7.845
  544POPC   C1B10255   2.488  29.405   8.769
  544POPC   C2B10256   2.435  29.433   8.305
  544POPC   C3B10257   2.326  29.320   7.849
  544POPC   C4B10258   2.322  29.431   7.384
  545POPC   NC310259  20.135  27.013   9.583
  545POPC   PO410260  19.830  26.441   9.587
  545POPC   GL110261  19.846  26.767   9.225
  545POPC   GL210262  20.122  26.908   9.092
  545POPC   C1A10263  19.828  26.612   8.795
  545POPC   D2A10264  19.665  26.600   8.415
  545POPC   C3A10265  19.877  26.600   8.054
  545POPC   C4A10266  19.737  26.730   7.662
  545POPC   C1B10267  19.876  27.112   8.756
  545POPC   C2B10268  19.978  27.278   8.368
  545POPC   C3B10269  19.918  27.128   7.949
  545POPC   C4B10270  20.203  27.083   7.590
  546POPC   NC310271  14.657   0.683   9.571
  546POPC   PO410272  14.464   0.133   9.667
  546POPC   GL110273  14.639   0.292   9.251
  546POPC   GL210274  14.313   0.355   9.092
  546POPC   C1A10275  14.657   0.125   8.806
  546POPC   D2A10276  14.566  44.992   8.357
  546POPC   C3A10277  14.599   0.295   8.011
  546POPC   C4A10278  14.579   0.677   7.774
  546POPC   C1B10279  14.255   0.383   8.612
  546POPC   C2B10280  14.124   0.305   8.183
  546POPC   C3B10281  14.117   0.446   7.743
  546POPC   C4B10282  13.761   0.560   7.450
  547POPC   NC310283  14.570  15.927   9.707
  547POPC   PO410284  14.006  16.113  10.073
  547POPC   GL110285  14.182  16.086   9.495
  547POPC   GL210286  14.484  16.299   9.349
  547POPC   C1A10287  14.204  16.097   8.966
  547POPC   D2A10288  14.086  15.903   8.525
  547POPC   C3A10289  14.355  15.909   8.138
  547POPC   C4A10290  14.188  15.900   7.733
  547POPC   C1B10291  14.762  16.122   9.002
  547POPC   C2B10292  14.871  16.117   8.555
  547POPC   C3B10293  14.872  16.101   8.106
  547POPC   C4B10294  14.673  16.085   7.726
  548POPC   NC310295  16.777   0.385   9.627
  548POPC   PO410296  17.445   0.646   9.586
  548POPC   GL110297  17.074   0.516   9.251
  548POPC   GL210298  16.665   0.572   9.177
  548POPC   C1A10299  16.948   0.387   8.809
  548POPC   D2A10300  17.092   0.559   8.414
  548POPC   C3A10301  16.914   0.438   8.039
  548POPC   C4A10302  17.115   0.176   7.790
  548POPC   C1B10303  16.452   0.672   8.804
  548POPC   C2B10304  16.566   0.628   8.379
  548POPC   C3B10305  16.417   0.709   7.981
  548POPC   C4B10306  16.326   0.623   7.535
  549POPC   NC310307  11.898   7.929   9.694
  549POPC   PO410308  12.318   8.402   9.557
  549POPC   GL110309  11.957   8.293   9.284
  549POPC   GL210310  11.914   7.974   9.169
  549POPC   C1A10311  11.844   8.362   8.854
  549POPC   D2A10312  12.095   8.313   8.477
  549POPC   C3A10313  11.967   8.412   8.059
  549POPC   C4A10314  12.260   8.724   7.851
  549POPC   C1B10315  11.956   7.865   8.732
  549POPC   C2B10316  11.975   7.839   8.307
  549POPC   C3B10317  11.832   7.913   7.940
  549POPC   C4B10318  11.822   7.885   7.480
  550POPC   NC310319  34.360  22.166   9.519
  550POPC   PO410320  34.951  22.032   9.527
  550POPC   GL110321  34.876  22.327   9.189
  550POPC   GL210322  34.633  22.128   9.078
  550POPC   C1A10323  34.829  22.551   8.796
  550POPC   D2A10324  34.782  22.423   8.375
  550POPC   C3A10325  34.418  22.406   8.097
  550POPC   C4A10326  34.416  22.467   7.665
  550POPC   C1B10327  34.987  22.044   8.791
  550POPC   C2B10328  34.958  21.901   8.375
  550POPC   C3B10329  34.836  22.095   8.002
  550POPC   C4B10330  34.858  22.219   7.589
  551POPC   NC310331  10.384  38.538   9.826
  551POPC   PO410332   9.687  38.367   9.597
  551POPC   GL110333   9.610  38.553   9.212
  551POPC   GL210334   9.927  38.393   9.093
  551POPC   C1A10335   9.633  38.664   8.792
  551POPC   D2A10336   9.796  38.380   8.468
  551POPC   C3A10337   9.682  38.550   8.102
  551POPC   C4A10338   9.476  38.763   7.760
  551POPC   C1B10339  10.194  38.233   8.789
  551POPC   C2B10340  10.185  38.052   8.376
  551POPC   C3B10341  10.115  38.267   7.995
  551POPC   C4B10342   9.954  38.564   7.687
  552POPC   NC310343  20.946  34.589   9.392
  552POPC   PO410344  21.592  34.359   9.529
  552POPC   GL110345  21.387  34.512   9.140
  552POPC   GL210346  21.108  34.418   8.923
  552POPC   C1A10347  21.549  34.484   8.719
  552POPC   D2A10348  21.574  34.794   8.414
  552POPC   C3A10349  21.416  34.597   8.079
  552POPC   C4A10350  21.477  34.737   7.690
  552POPC   C1B10351  21.045  34.696   8.583
  552POPC   C2B10352  20.902  34.696   8.160
  552POPC   C3B10353  20.980  34.780   7.734
  552POPC   C4B10354  21.109  34.461   7.416
  553POPC   NC310355   7.705  41.885   9.516
  553POPC   PO410356   7.250  41.289   9.516
  553POPC   GL110357   7.427  41.364   9.128
  553POPC   GL210358   7.517  41.726   9.081
  553POPC   C1A10359   7.241  41.468   8.741
  553POPC   D2A10360   7.429  41.699   8.419
  553POPC   C3A10361   7.324  41.467   8.073
  553POPC   C4A10362   7.511  41.274   7.737
  553POPC   C1B10363   7.256  41.990   8.808
  553POPC   C2B10364   7.126  42.122   8.399
  553POPC   C3B10365   7.264  42.015   8.005
  553POPC   C4B10366   7.303  41.758   7.650
  554POPC   NC310367  20.118   5.179   9.546
  554POPC   PO410368  19.490   5.386   9.507
  554POPC   GL110369  19.742   5.324   9.132
  554POPC   GL210370  20.090   5.391   9.096
  554POPC   C1A10371  19.867   5.332   8.652
  554POPC   D2A10372  19.681   5.108   8.349
  554POPC   C3A10373  19.714   4.939   7.946
  554POPC   C4A10374  19.861   5.266   7.732
  554POPC   C1B10375  20.013   4.940   8.931
  554POPC   C2B10376  20.091   4.815   8.523
  554POPC   C3B10377  20.180   4.993   8.133
  554POPC   C4B10378  20.168   4.836   7.720
  555POPC   NC310379  17.657  43.059   9.662
  555POPC   PO410380  17.039  42.944   9.769
  555POPC   GL110381  17.300  43.174   9.341
  555POPC   GL210382  17.562  42.935   9.173
  555POPC   C1A10383  17.295  43.378   8.901
  555POPC   D2A10384  17.546  43.417   8.510
  555POPC   C3A10385  17.350  43.193   8.176
  555POPC   C4A10386  17.335  43.136   7.755
  555POPC   C1B10387  17.485  42.941   8.723
  555POPC   C2B10388  17.780  42.982   8.347
  555POPC   C3B10389  17.811  43.070   7.902
  555POPC   C4B10390  17.735  42.810   7.510
  556POPC   NC310391  20.178   3.308   9.529
  556POPC   PO410392  19.625   3.709   9.441
  556POPC   GL110393  19.867   3.543   9.155
  556POPC   GL210394  19.558   3.439   8.995
  556POPC   C1A10395  20.020   3.451   8.736
  556POPC   D2A10396  19.979   3.281   8.304
  556POPC   C3A10397  20.068   3.569   7.952
  556POPC   C4A10398  20.048   3.478   7.506
  556POPC   C1B10399  19.338   3.471   8.626
  556POPC   C2B10400  19.417   3.257   8.271
  556POPC   C3B10401  19.656   3.205   7.893
  556POPC   C4B10402  19.559   3.398   7.496
  557POPC   NC310403  34.160  16.346   9.512
  557POPC   PO410404  34.527  16.886   9.564
  557POPC   GL110405  34.467  16.656   9.161
  557POPC   GL210406  34.667  16.915   8.989
  557POPC   C1A10407  34.540  16.485   8.723
  557POPC   D2A10408  34.738  16.641   8.384
  557POPC   C3A10409  34.656  16.516   7.967
  557POPC   C4A10410  34.502  16.761   7.629
  557POPC   C1B10411  34.907  17.189   8.708
  557POPC   C2B10412  34.875  17.343   8.305
  557POPC   C3B10413  34.718  17.063   7.998
  557POPC   C4B10414  34.787  17.214   7.590
  558POPC   NC310415  20.751  37.709   9.828
  558POPC   PO410416  21.429  37.689   9.608
  558POPC   GL110417  21.212  37.578   9.242
  558POPC   GL210418  21.473  37.566   9.021
  558POPC   C1A10419  21.051  37.465   8.794
  558POPC   D2A10420  21.311  37.718   8.482
  558POPC   C3A10421  21.292  37.564   8.060
  558POPC   C4A10422  21.062  37.379   7.736
  558POPC   C1B10423  21.754  37.794   8.766
  558POPC   C2B10424  21.852  37.695   8.353
  558POPC   C3B10425  21.697  37.830   7.922
  558POPC   C4B10426  21.856  37.915   7.503
  559POPC   NC310427  28.778   9.477   9.409
  559POPC   PO410428  29.428   9.659   9.477
  559POPC   GL110429  29.230   9.831   9.124
  559POPC   GL210430  29.148   9.516   9.051
  559POPC   C1A10431  29.301   9.784   8.671
  559POPC   D2A10432  29.143   9.723   8.309
  559POPC   C3A10433  29.357   9.743   7.968
  559POPC   C4A10434  29.448   9.539   7.596
  559POPC   C1B10435  28.861   9.490   8.737
  559POPC   C2B10436  28.658   9.652   8.405
  559POPC   C3B10437  28.759   9.627   7.986
  559POPC   C4B10438  28.677   9.306   7.762
  560POPC   NC310439   5.394  35.951   9.514
  560POPC   PO410440   4.984  36.444   9.669
  560POPC   GL110441   5.137  36.317   9.266
  560POPC   GL210442   5.064  35.989   9.144
  560POPC   C1A10443   5.254  36.348   8.829
  560POPC   D2A10444   5.058  36.300   8.451
  560POPC   C3A10445   5.251  36.215   8.073
  560POPC   C4A10446   5.205  36.125   7.663
  560POPC   C1B10447   5.054  35.835   8.751
  560POPC   C2B10448   5.270  35.844   8.408
  560POPC   C3B10449   5.310  35.712   8.006
  560POPC   C4B10450   5.024  35.647   7.675
  561POPC   NC310451  34.154  31.479   9.487
  561POPC   PO410452  33.612  31.237   9.674
  561POPC   GL110453  33.688  31.396   9.254
  561POPC   GL210454  33.357  31.370   9.166
  561POPC   C1A10455  33.721  31.608   8.843
  561POPC   D2A10456  33.597  31.525   8.413
  561POPC   C3A10457  33.882  31.532   8.064
  561POPC   C4A10458  34.046  31.443   7.653
  561POPC   C1B10459  33.413  31.150   8.798
  561POPC   C2B10460  33.549  31.014   8.391
  561POPC   C3B10461  33.496  31.180   7.986
  561POPC   C4B10462  33.601  31.062   7.583
  562POPC   NC310463  44.548  24.350   9.610
  562POPC   PO410464   0.097  24.496   9.431
  562POPC   GL110465  44.845  24.216   9.185
  562POPC   GL210466  44.463  24.241   9.124
  562POPC   C1A10467  44.861  24.382   8.780
  562POPC   D2A10468  44.904  24.806   8.554
  562POPC   C3A10469  44.727  24.901   8.110
  562POPC   C4A10470  44.872  24.838   7.679
  562POPC   C1B10471  44.400  24.556   8.788
  562POPC   C2B10472  44.575  24.459   8.352
  562POPC   C3B10473  44.614  24.414   7.888
  562POPC   C4B10474  44.557  24.519   7.435
  563POPC   NC310475  32.871  36.680   9.548
  563POPC   PO410476  33.237  37.321   9.459
  563POPC   GL110477  33.048  37.026   9.196
  563POPC   GL210478  33.129  36.691   9.103
  563POPC   C1A10479  32.907  37.004   8.767
  563POPC   D2A10480  33.054  37.173   8.401
  563POPC   C3A10481  33.190  36.918   8.051
  563POPC   C4A10482  33.213  37.114   7.659
  563POPC   C1B10483  32.821  36.482   8.843
  563POPC   C2B10484  32.658  36.413   8.421
  563POPC   C3B10485  32.503  36.643   8.091
  563POPC   C4B10486  32.702  36.841   7.743
  564POPC   NC310487  27.220  18.455   9.646
  564POPC   PO410488  27.725  18.011   9.548
  564POPC   GL110489  27.719  18.327   9.201
  564POPC   GL210490  27.353  18.333   9.141
  564POPC   C1A10491  27.939  18.327   8.767
  564POPC   D2A10492  27.942  18.134   8.362
  564POPC   C3A10493  27.866  18.371   7.995
  564POPC   C4A10494  27.711  18.227   7.583
  564POPC   C1B10495  27.451  18.482   8.717
  564POPC   C2B10496  27.402  18.357   8.247
  564POPC   C3B10497  27.428  18.567   7.822
  564POPC   C4B10498  27.525  18.610   7.328
  565POPC   NC310499  22.901  39.779   9.448
  565POPC   PO410500  23.297  40.319   9.239
  565POPC   GL110501  23.064  40.038   9.034
  565POPC   GL210502  23.267  39.734   9.076
  565POPC   C1A10503  23.035  39.956   8.605
  565POPC   D2A10504  22.767  40.050   8.290
  565POPC   C3A10505  23.032  40.232   8.062
  565POPC   C4A10506  22.928  40.428   7.731
  565POPC   C1B10507  23.076  39.475   8.738
  565POPC   C2B10508  23.013  39.539   8.282
  565POPC   C3B10509  22.993  39.746   7.896
  565POPC   C4B10510  23.234  40.028   7.659
  566POPC   NC310511  14.426  13.486   9.255
  566POPC   PO410512  13.879  13.845   9.405
  566POPC   GL110513  14.186  13.868   9.048
  566POPC   GL210514  14.484  14.020   9.246
  566POPC   C1A10515  14.342  13.607   8.642
  566POPC   D2A10516  14.634  13.387   8.318
  566POPC   C3A10517  14.381  13.301   7.934
  566POPC   C4A10518  14.106  13.661   7.850
  566POPC   C1B10519  14.652  14.108   8.828
  566POPC   C2B10520  14.627  13.958   8.424
  566POPC   C3B10521  14.716  14.049   8.035
  566POPC   C4B10522  14.598  13.734   7.761
  567POPC   NC310523   9.514  11.191   9.536
  567POPC   PO410524  10.167  10.962   9.608
  567POPC   GL110525  10.014  11.192   9.213
  567POPC   GL210526   9.867  11.549   9.283
  567POPC   C1A10527   9.983  11.343   8.745
  567POPC   D2A10528   9.960  11.386   8.272
  567POPC   C3A10529   9.755  11.182   7.889
  567POPC   C4A10530   9.714  11.260   7.430
  567POPC   C1B10531   9.531  11.546   8.954
  567POPC   C2B10532   9.479  11.411   8.556
  567POPC   C3B10533   9.486  11.524   8.160
  567POPC   C4B10534   9.330  11.484   7.790
  568POPC   NC310535   9.467  32.858   9.400
  568POPC   PO410536   9.869  33.232   9.772
  568POPC   GL110537   9.853  33.228   9.255
  568POPC   GL210538   9.609  33.417   9.136
  568POPC   C1A10539   9.678  33.077   8.782
  568POPC   D2A10540   9.834  33.155   8.372
  568POPC   C3A10541   9.820  33.009   7.986
  568POPC   C4A10542   9.701  32.842   7.626
  568POPC   C1B10543   9.393  33.568   8.775
  568POPC   C2B10544   9.271  33.298   8.437
  568POPC   C3B10545   9.370  33.316   8.011
  568POPC   C4B10546   9.604  33.398   7.650
  569POPC   NC310547   1.555   3.755   9.679
  569POPC   PO410548   1.093   3.245   9.685
  569POPC   GL110549   1.429   3.411   9.301
  569POPC   GL210550   1.449   3.732   9.064
  569POPC   C1A10551   1.529   3.268   8.851
  569POPC   D2A10552   1.215   3.284   8.501
  569POPC   C3A10553   1.230   3.611   8.166
  569POPC   C4A10554   1.049   3.567   7.750
  569POPC   C1B10555   1.208   3.941   8.684
  569POPC   C2B10556   0.789   4.008   8.470
  569POPC   C3B10557   0.670   4.106   8.057
  569POPC   C4B10558   0.983   4.094   7.735
  570POPC   NC310559  28.769  44.923   9.376
  570POPC   PO410560  29.148  44.457   9.681
  570POPC   GL110561  29.214  44.495   9.228
  570POPC   GL210562  29.301  44.849   9.193
  570POPC   C1A10563  29.067  44.604   8.795
  570POPC   D2A10564  29.195  44.443   8.395
  570POPC   C3A10565  29.145  44.719   8.037
  570POPC   C4A10566  28.963   0.042   7.818
  570POPC   C1B10567  29.305   0.072   8.792
  570POPC   C2B10568  29.420   0.028   8.362
  570POPC   C3B10569  29.494   0.147   7.933
  570POPC   C4B10570  29.444   0.025   7.510
  571POPC   NC310571  40.651  11.831   9.602
  571POPC   PO410572  41.291  11.726   9.481
  571POPC   GL110573  41.070  12.100   9.289
  571POPC   GL210574  40.729  12.049   9.149
  571POPC   C1A10575  41.042  12.287   8.852
  571POPC   D2A10576  40.887  12.184   8.475
  571POPC   C3A10577  41.146  12.094   8.145
  571POPC   C4A10578  41.065  12.275   7.751
  571POPC   C1B10579  40.494  12.214   8.812
  571POPC   C2B10580  40.315  12.221   8.408
  571POPC   C3B10581  40.540  12.134   8.026
  571POPC   C4B10582  40.419  11.966   7.641
  572POPC   NC310583  27.197  11.948   9.510
  572POPC   PO410584  26.638  12.321   9.415
  572POPC   GL110585  26.801  12.155   9.091
  572POPC   GL210586  26.782  11.822   9.176
  572POPC   C1A10587  26.998  12.040   8.730
  572POPC   D2A10588  27.104  12.073   8.314
  572POPC   C3A10589  26.799  12.288   8.036
  572POPC   C4A10590  27.017  12.210   7.685
  572POPC   C1B10591  26.649  11.679   8.754
  572POPC   C2B10592  26.808  11.619   8.342
  572POPC   C3B10593  26.865  11.788   7.937
  572POPC   C4B10594  26.985  11.711   7.520
  573POPC   NC310595  11.807   1.272   9.422
  573POPC   PO410596  11.223   1.253   9.582
  573POPC   GL110597  11.109   1.102   9.159
  573POPC   GL210598  11.437   0.991   9.066
  573POPC   C1A10599  10.975   1.201   8.728
  573POPC   D2A10600  11.344   1.044   8.438
  573POPC   C3A10601  11.330   0.942   8.023
  573POPC   C4A10602  11.231   1.119   7.612
  573POPC   C1B10603  11.439   1.392   8.801
  573POPC   C2B10604  11.208   1.525   8.387
  573POPC   C3B10605  11.357   1.476   7.969
  573POPC   C4B10606  11.532   1.605   7.559
  574POPC   NC310607   5.401  19.815   9.299
  574POPC   PO410608   5.832  19.754   9.784
  574POPC   GL110609   5.905  19.696   9.317
  574POPC   GL210610   5.856  20.025   9.197
  574POPC   C1A10611   5.843  19.554   8.835
  574POPC   D2A10612   5.699  19.614   8.352
  574POPC   C3A10613   5.825  19.811   7.921
  574POPC   C4A10614   5.892  19.640   7.470
  574POPC   C1B10615   5.765  20.049   8.746
  574POPC   C2B10616   6.057  19.955   8.425
  574POPC   C3B10617   6.200  20.133   8.072
  574POPC   C4B10618   5.976  20.410   7.830
  575POPC   NC310619  31.198   4.281   9.472
  575POPC   PO410620  31.912   4.400   9.417
  575POPC   GL110621  31.610   4.573   9.115
  575POPC   GL210622  31.253   4.541   8.998
  575POPC   C1A10623  31.652   4.623   8.680
  575POPC   D2A10624  31.450   4.358   8.355
  575POPC   C3A10625  31.690   4.283   7.978
  575POPC   C4A10626  31.968   4.601   7.770
  575POPC   C1B10627  31.371   4.112   8.830
  575POPC   C2B10628  31.161   3.922   8.470
  575POPC   C3B10629  30.970   4.228   8.189
  575POPC   C4B10630  31.154   4.484   7.835
  576POPC   NC310631  18.481  14.107   9.510
  576POPC   PO410632  18.061  14.622   9.403
  576POPC   GL110633  18.229  14.487   9.045
  576POPC   GL210634  18.227  14.123   9.045
  576POPC   C1A10635  18.193  14.717   8.667
  576POPC   D2A10636  18.235  15.041   8.357
  576POPC   C3A10637  18.238  14.848   7.968
  576POPC   C4A10638  18.322  14.472   7.770
  576POPC   C1B10639  18.389  14.204   8.613
  576POPC   C2B10640  18.469  14.134   8.165
  576POPC   C3B10641  18.711  14.130   7.790
  576POPC   C4B10642  18.662  14.131   7.323
  577POPC   NC310643  17.666   3.275   9.482
  577POPC   PO410644  17.531   3.952   9.632
  577POPC   GL110645  17.599   3.676   9.197
  577POPC   GL210646  17.336   3.558   8.955
  577POPC   C1A10647  17.815   3.592   8.823
  577POPC   D2A10648  17.734   3.806   8.455
  577POPC   C3A10649  17.593   3.598   8.095
  577POPC   C4A10650  17.690   3.782   7.705
  577POPC   C1B10651  17.438   3.311   8.569
  577POPC   C2B10652  17.678   3.065   8.255
  577POPC   C3B10653  17.842   3.197   7.863
  577POPC   C4B10654  17.560   3.031   7.515
  578POPC   NC310655  18.255  22.579   9.392
  578POPC   PO410656  18.318  21.859   9.549
  578POPC   GL110657  18.468  21.942   9.174
  578POPC   GL210658  18.605  22.282   9.180
  578POPC   C1A10659  18.194  21.903   8.819
  578POPC   D2A10660  18.118  22.079   8.430
  578POPC   C3A10661  18.298  21.959   8.050
  578POPC   C4A10662  18.286  22.097   7.667
  578POPC   C1B10663  18.486  22.334   8.755
  578POPC   C2B10664  18.627  22.246   8.348
  578POPC   C3B10665  18.643  22.359   7.916
  578POPC   C4B10666  18.842  22.438   7.518
  579POPC   NC310667  23.932  41.259   9.637
  579POPC   PO410668  23.747  40.643   9.566
  579POPC   GL110669  23.615  40.767   9.142
  579POPC   GL210670  23.606  41.129   9.231
  579POPC   C1A10671  23.543  40.783   8.694
  579POPC   D2A10672  23.615  40.609   8.269
  579POPC   C3A10673  23.625  40.918   7.916
  579POPC   C4A10674  23.731  40.710   7.478
  579POPC   C1B10675  23.900  41.148   8.889
  579POPC   C2B10676  23.999  41.239   8.481
  579POPC   C3B10677  24.212  41.145   8.101
  579POPC   C4B10678  24.044  41.118   7.710
  580POPC   NC310679  42.921   9.686   9.563
  580POPC   PO410680  43.600   9.863   9.622
  580POPC   GL110681  43.310   9.756   9.223
  580POPC   GL210682  43.023   9.489   9.130
  580POPC   C1A10683  43.024   9.947   8.869
  580POPC   D2A10684  42.878  10.167   8.447
  580POPC   C3A10685  42.848   9.910   8.042
  580POPC   C4A10686  43.184   9.778   7.752
  580POPC   C1B10687  42.747   9.357   8.797
  580POPC   C2B10688  42.682   9.503   8.371
  580POPC   C3B10689  42.602   9.422   7.933
  580POPC   C4B10690  42.733   9.656   7.568
  581POPC   NC310691  24.067  20.695   9.481
  581POPC   PO410692  24.694  20.382   9.566
  581POPC   GL110693  24.546  20.527   9.177
  581POPC   GL210694  24.628  20.208   9.071
  581POPC   C1A10695  24.448  20.519   8.706
  581POPC   D2A10696  24.662  20.584   8.291
  581POPC   C3A10697  24.420  20.631   7.896
  581POPC   C4A10698  24.031  20.774   7.736
  581POPC   C1B10699  24.532  20.000   8.681
  581POPC   C2B10700  24.486  20.017   8.261
  581POPC   C3B10701  24.689  20.201   7.951
  581POPC   C4B10702  24.559  20.216   7.545
  582POPC   NC310703  10.197  20.882   9.491
  582POPC   PO410704  10.773  20.698   9.667
  582POPC   GL110705  10.555  20.558   9.279
  582POPC   GL210706  10.467  20.848   9.081
  582POPC   C1A10707  10.475  20.426   8.835
  582POPC   D2A10708  10.427  20.513   8.371
  582POPC   C3A10709  10.598  20.554   7.932
  582POPC   C4A10710  10.379  20.531   7.556
  582POPC   C1B10711  10.655  20.887   8.699
  582POPC   C2B10712  10.677  20.943   8.277
  582POPC   C3B10713  10.620  21.075   7.898
  582POPC   C4B10714  10.653  20.939   7.508
  583POPC   NC310715  35.912  27.806   9.794
  583POPC   PO410716  36.182  28.219   9.355
  583POPC   GL110717  36.102  28.473   9.066
  583POPC   GL210718  35.927  28.687   9.231
  583POPC   C1A10719  36.278  28.518   8.699
  583POPC   D2A10720  36.256  28.103   8.462
  583POPC   C3A10721  36.015  28.118   8.067
  583POPC   C4A10722  36.307  28.103   7.734
  583POPC   C1B10723  35.747  28.700   8.801
  583POPC   C2B10724  35.858  28.456   8.430
  583POPC   C3B10725  36.269  28.540   8.180
  583POPC   C4B10726  36.109  28.614   7.795
  584POPC   NC310727  18.161  38.797   9.526
  584POPC   PO410728  18.607  38.303   9.483
  584POPC   GL110729  18.493  38.494   9.125
  584POPC   GL210730  18.478  38.811   9.122
  584POPC   C1A10731  18.322  38.459   8.736
  584POPC   D2A10732  18.391  38.171   8.407
  584POPC   C3A10733  18.175  38.167   8.003
  584POPC   C4A10734  18.510  38.224   7.726
  584POPC   C1B10735  18.301  38.979   8.752
  584POPC   C2B10736  18.169  38.817   8.353
  584POPC   C3B10737  18.290  38.683   7.933
  584POPC   C4B10738  18.213  38.758   7.478
  585POPC   NC310739  39.580   8.865   9.742
  585POPC   PO410740  39.021   9.251   9.648
  585POPC   GL110741  39.325   9.078   9.290
  585POPC   GL210742  39.586   8.796   9.244
  585POPC   C1A10743  39.362   8.992   8.820
  585POPC   D2A10744  39.465   9.137   8.396
  585POPC   C3A10745  39.385   8.895   8.046
  585POPC   C4A10746  39.048   8.945   7.754
  585POPC   C1B10747  39.747   8.660   8.854
  585POPC   C2B10748  39.629   8.612   8.437
  585POPC   C3B10749  39.615   8.441   8.047
  585POPC   C4B10750  39.492   8.550   7.641
  586POPC   NC310751   6.544  25.665   9.587
  586POPC   PO410752   7.012  25.139   9.363
  586POPC   GL110753   6.721  25.164   9.066
  586POPC   GL210754   6.636  25.470   9.136
  586POPC   C1A10755   6.523  25.271   8.687
  586POPC   D2A10756   6.426  25.329   8.267
  586POPC   C3A10757   6.797  25.356   7.977
  586POPC   C4A10758   7.079  25.001   7.889
  586POPC   C1B10759   6.396  25.747   8.893
  586POPC   C2B10760   6.393  25.843   8.465
  586POPC   C3B10761   6.199  25.727   8.091
  586POPC   C4B10762   6.356  25.475   7.773
  587POPC   NC310763   1.654  15.119   9.499
  587POPC   PO410764   1.006  15.376   9.396
  587POPC   GL110765   1.319  15.285   9.164
  587POPC   GL210766   1.113  15.025   9.011
  587POPC   C1A10767   1.452  15.293   8.761
  587POPC   D2A10768   1.176  15.189   8.459
  587POPC   C3A10769   1.365  15.313   8.122
  587POPC   C4A10770   1.095  15.402   7.811
  587POPC   C1B10771   1.304  14.773   8.720
  587POPC   C2B10772   1.169  14.694   8.317
  587POPC   C3B10773   1.119  14.888   7.928
  587POPC   C4B10774   1.195  14.745   7.503
  588POPC   NC310775   4.160  18.624   9.643
  588POPC   PO410776   4.397  18.028   9.541
  588POPC   GL110777   4.263  18.166   9.171
  588POPC   GL210778   4.420  18.512   9.222
  588POPC   C1A10779   4.161  17.986   8.752
  588POPC   D2A10780   3.962  18.068   8.344
  588POPC   C3A10781   4.212  17.956   8.005
  588POPC   C4A10782   4.091  17.850   7.573
  588POPC   C1B10783   4.097  18.560   8.915
  588POPC   C2B10784   4.004  18.636   8.488
  588POPC   C3B10785   4.001  18.525   8.066
  588POPC   C4B10786   4.246  18.363   7.716
  589POPC   NC310787  43.597  24.628   9.472
  589POPC   PO410788  44.130  24.196   9.534
  589POPC   GL110789  44.047  24.528   9.206
  589POPC   GL210790  43.799  24.322   9.114
  589POPC   C1A10791  43.877  24.663   8.768
  589POPC   D2A10792  43.714  24.421   8.430
  589POPC   C3A10793  43.571  24.605   8.067
  589POPC   C4A10794  43.807  24.719   7.717
  589POPC   C1B10795  44.072  24.176   8.762
  589POPC   C2B10796  44.276  24.038   8.397
  589POPC   C3B10797  44.099  24.124   8.029
  589POPC   C4B10798  44.139  24.349   7.683
  590POPC   NC310799   5.540   1.939   9.560
  590POPC   PO410800   4.971   2.185   9.768
  590POPC   GL110801   5.108   2.146   9.295
  590POPC   GL210802   4.863   2.344   9.137
  590POPC   C1A10803   5.205   2.037   8.833
  590POPC   D2A10804   5.404   1.707   8.565
  590POPC   C3A10805   5.287   1.720   8.120
  590POPC   C4A10806   5.123   1.779   7.693
  590POPC   C1B10807   4.707   2.052   8.887
  590POPC   C2B10808   4.846   2.204   8.488
  590POPC   C3B10809   4.829   2.049   8.083
  590POPC   C4B10810   4.804   2.180   7.674
  591POPC   NC310811  32.345  12.337   9.351
  591POPC   PO410812  31.952  11.844   9.559
  591POPC   GL110813  32.144  11.909   9.163
  591POPC   GL210814  31.944  12.224   9.063
  591POPC   C1A10815  32.481  11.883   8.834
  591POPC   D2A10816  32.624  11.904   8.406
  591POPC   C3A10817  32.256  11.993   8.158
  591POPC   C4A10818  32.248  12.098   7.739
  591POPC   C1B10819  32.108  12.188   8.637
  591POPC   C2B10820  32.061  12.472   8.286
  591POPC   C3B10821  31.835  12.303   7.914
  591POPC   C4B10822  31.772  12.427   7.482
  592POPC   NC310823  30.967  12.245   9.420
  592POPC   PO410824  30.513  11.927   9.498
  592POPC   GL110825  30.788  11.857   9.117
  592POPC   GL210826  30.639  12.182   9.003
  592POPC   C1A10827  30.883  11.938   8.646
  592POPC   D2A10828  30.647  12.269   8.362
  592POPC   C3A10829  30.540  12.136   7.950
  592POPC   C4A10830  30.313  11.776   7.822
  592POPC   C1B10831  30.950  12.443   8.754
  592POPC   C2B10832  31.140  12.308   8.354
  592POPC   C3B10833  30.986  12.390   7.934
  592POPC   C4B10834  30.952  12.388   7.486
  593POPC   NC310835  19.025  31.571   9.708
  593POPC   PO410836  19.260  32.147   9.652
  593POPC   GL110837  19.122  31.849   9.308
  593POPC   GL210838  19.371  31.660   9.332
  593POPC   C1A10839  18.914  31.628   8.930
  593POPC   D2A10840  18.749  31.628   8.476
  593POPC   C3A10841  18.897  31.559   8.042
  593POPC   C4A10842  18.878  31.262   7.726
  593POPC   C1B10843  19.452  31.567   8.908
  593POPC   C2B10844  19.572  31.623   8.476
  593POPC   C3B10845  19.416  31.577   8.076
  593POPC   C4B10846  19.344  31.474   7.678
  594POPC   NC310847  25.721  22.774   9.499
  594POPC   PO410848  25.086  22.927   9.524
  594POPC   GL110849  25.310  22.789   9.171
  594POPC   GL210850  25.513  23.079   9.121
  594POPC   C1A10851  25.176  22.838   8.749
  594POPC   D2A10852  25.057  22.627   8.378
  594POPC   C3A10853  25.109  22.899   8.039
  594POPC   C4A10854  25.034  22.702   7.674
  594POPC   C1B10855  25.652  23.033   8.726
  594POPC   C2B10856  25.610  22.879   8.305
  594POPC   C3B10857  25.726  23.153   7.962
  594POPC   C4B10858  25.471  23.187   7.585
  595POPC   NC310859  32.437  13.139   9.460
  595POPC   PO410860  31.997  12.636   9.432
  595POPC   GL110861  32.281  12.801   9.128
  595POPC   GL210862  32.213  12.619   8.876
  595POPC   C1A10863  32.187  13.117   8.810
  595POPC   D2A10864  31.861  13.059   8.509
  595POPC   C3A10865  32.087  13.022   8.121
  595POPC   C4A10866  32.109  13.188   7.692
  595POPC   C1B10867  32.587  12.406   8.757
  595POPC   C2B10868  32.783  12.416   8.384
  595POPC   C3B10869  32.521  12.419   8.040
  595POPC   C4B10870  32.195  12.620   7.806
  596POPC   NC310871  44.153  13.608   9.743
  596POPC   PO410872  44.849  13.552   9.493
  596POPC   GL110873  44.767  13.668   9.075
  596POPC   GL210874  44.882  13.992   9.073
  596POPC   C1A10875  44.658  13.484   8.696
  596POPC   D2A10876  44.481  13.580   8.335
  596POPC   C3A10877  44.757  13.408   8.028
  596POPC   C4A10878  44.513  13.562   7.730
  596POPC   C1B10879  44.873  14.186   8.732
  596POPC   C2B10880  44.855  13.896   8.426
  596POPC   C3B10881  44.729  13.925   8.029
  596POPC   C4B10882  44.885  13.878   7.622
  597POPC   NC310883  36.524  15.983   9.598
  597POPC   PO410884  35.819  15.904   9.636
  597POPC   GL110885  35.958  16.017   9.200
  597POPC   GL210886  36.318  16.035   9.138
  597POPC   C1A10887  36.018  15.863   8.762
  597POPC   D2A10888  35.817  15.896   8.382
  597POPC   C3A10889  36.048  15.885   8.029
  597POPC   C4A10890  36.323  15.902   7.689
  597POPC   C1B10891  36.539  15.888   8.799
  597POPC   C2B10892  36.418  15.805   8.387
  597POPC   C3B10893  36.664  15.912   8.040
  597POPC   C4B10894  36.700  16.240   7.667
  598POPC   NC310895  32.005   0.752   9.527
  598POPC   PO410896  32.013   0.149   9.419
  598POPC   GL110897  32.149   0.442   9.121
  598POPC   GL210898  32.507   0.558   9.214
  598POPC   C1A10899  32.071   0.428   8.664
  598POPC   D2A10900  32.004   0.348   8.232
  598POPC   C3A10901  32.025   0.622   7.862
  598POPC   C4A10902  32.236   0.729   7.407
  598POPC   C1B10903  32.445   0.725   8.798
  598POPC   C2B10904  32.292   0.819   8.364
  598POPC   C3B10905  32.517   0.641   8.025
  598POPC   C4B10906  32.515   0.359   7.686
  599POPC   NC310907  37.307  17.483   9.431
  599POPC   PO410908  36.741  17.170   9.680
  599POPC   GL110909  36.857  17.234   9.261
  599POPC   GL210910  36.782  17.591   9.211
  599POPC   C1A10911  36.956  17.261   8.823
  599POPC   D2A10912  36.791  17.539   8.481
  599POPC   C3A10913  37.019  17.475   8.123
  599POPC   C4A10914  36.979  17.220   7.799
  599POPC   C1B10915  37.005  17.780   8.859
  599POPC   C2B10916  37.259  17.781   8.476
  599POPC   C3B10917  37.344  17.870   8.041
  599POPC   C4B10918  37.122  17.728   7.661
  600POPC   NC310919  42.201  27.348   9.608
  600POPC   PO410920  42.483  28.031   9.546
  600POPC   GL110921  42.373  27.742   9.180
  600POPC   GL210922  42.132  27.899   9.019
  600POPC   C1A10923  42.369  27.483   8.789
  600POPC   D2A10924  42.154  27.414   8.357
  600POPC   C3A10925  42.312  27.559   7.910
  600POPC   C4A10926  42.591  27.519   7.511
  600POPC   C1B10927  42.252  27.937   8.619
  600POPC   C2B10928  42.145  27.976   8.218
  600POPC   C3B10929  42.067  28.028   7.802
  600POPC   C4B10930  42.158  27.769   7.417
  601POPC   NC310931  27.236  33.598   9.364
  601POPC   PO410932  26.573  33.449   9.617
  601POPC   GL110933  26.612  33.645   9.183
  601POPC   GL210934  26.917  33.651   8.990
  601POPC   C1A10935  26.580  34.021   8.877
  601POPC   D2A10936  26.693  34.145   8.430
  601POPC   C3A10937  27.010  34.018   8.153
  601POPC   C4A10938  27.020  34.047   7.693
  601POPC   C1B10939  26.753  33.637   8.589
  601POPC   C2B10940  26.667  33.646   8.186
  601POPC   C3B10941  26.904  33.585   7.865
  601POPC   C4B10942  27.085  33.563   7.516
  602POPC   NC310943  23.551   3.789   9.482
  602POPC   PO410944  24.108   3.605   9.754
  602POPC   GL110945  23.935   3.502   9.268
  602POPC   GL210946  23.577   3.492   9.080
  602POPC   C1A10947  23.986   3.593   8.801
  602POPC   D2A10948  24.023   3.488   8.382
  602POPC   C3A10949  23.734   3.598   8.065
  602POPC   C4A10950  23.615   3.313   7.745
  602POPC   C1B10951  23.552   3.851   8.755
  602POPC   C2B10952  23.413   3.891   8.339
  602POPC   C3B10953  23.211   3.727   7.985
  602POPC   C4B10954  23.191   3.837   7.571
  603POPC   NC310955  28.113  12.951   9.382
  603POPC   PO410956  28.669  12.871   9.658
  603POPC   GL110957  28.551  12.853   9.171
  603POPC   GL210958  28.431  12.562   9.019
  603POPC   C1A10959  28.353  13.062   8.773
  603POPC   D2A10960  28.401  13.249   8.347
  603POPC   C3A10961  28.603  12.906   8.140
  603POPC   C4A10962  28.639  12.786   7.703
  603POPC   C1B10963  28.097  12.621   8.723
  603POPC   C2B10964  28.082  12.870   8.341
  603POPC   C3B10965  28.159  12.912   7.912
  603POPC   C4B10966  28.204  12.662   7.514
  604POPC   NC310967  40.146  35.079   9.411
  604POPC   PO410968  39.916  35.763   9.360
  604POPC   GL110969  40.019  35.445   9.096
  604POPC   GL210970  39.729  35.233   9.137
  604POPC   C1A10971  40.135  35.176   8.764
  604POPC   D2A10972  39.979  35.414   8.453
  604POPC   C3A10973  40.130  35.303   8.084
  604POPC   C4A10974  39.872  35.168   7.834
  604POPC   C1B10975  39.593  35.547   8.822
  604POPC   C2B10976  39.471  35.654   8.411
  604POPC   C3B10977  39.688  35.595   8.039
  604POPC   C4B10978  39.851  35.641   7.619
  605POPC   NC310979  40.752   0.339   9.644
  605POPC   PO410980  41.393   0.182   9.553
  605POPC   GL110981  41.026   0.165   9.204
  605POPC   GL210982  40.667   0.089   9.205
  605POPC   C1A10983  40.841   0.473   8.876
  605POPC   D2A10984  40.546   0.648   8.527
  605POPC   C3A10985  40.561   0.510   8.085
  605POPC   C4A10986  40.833   0.512   7.726
  605POPC   C1B10987  40.502   0.112   8.774
  605POPC   C2B10988  40.666   0.060   8.347
  605POPC   C3B10989  40.499   0.009   7.894
  605POPC   C4B10990  40.485   0.061   7.413
  606POPC   NC310991  16.322  10.194   9.381
  606POPC   PO410992  17.001  10.298   9.470
  606POPC   GL110993  16.753  10.408   9.146
  606POPC   GL210994  16.724  10.736   9.194
  606POPC   C1A10995  16.502  10.424   8.769
  606POPC   D2A10996  16.448  10.360   8.334
  606POPC   C3A10997  16.737  10.589   8.078
  606POPC   C4A10998  16.827  10.435   7.670
  606POPC   C1B10999  16.523  10.937   8.855
  606POPC   C2B11000  16.558  11.008   8.425
  606POPC   C3B11001  16.357  10.926   8.050
  606POPC   C4B11002  16.562  10.873   7.689
  607POPC   NC311003  19.774  16.886   9.550
  607POPC   PO411004  20.307  16.547   9.524
  607POPC   GL111005  19.979  16.460   9.229
  607POPC   GL211006  19.956  16.803   9.092
  607POPC   C1A11007  19.749  16.442   8.825
  607POPC   D2A11008  19.804  16.801   8.538
  607POPC   C3A11009  19.869  16.625   8.160
  607POPC   C4A11010  19.914  16.626   7.743
  607POPC   C1B11011  20.162  17.080   8.812
  607POPC   C2B11012  20.156  17.213   8.370
  607POPC   C3B11013  19.982  17.100   7.966
  607POPC   C4B11014  19.913  17.102   7.529
  608POPC   NC311015   7.093  10.865   9.505
  608POPC   PO411016   7.731  10.720   9.604
  608POPC   GL111017   7.598  10.784   9.204
  608POPC   GL211018   7.265  10.672   9.074
  608POPC   C1A11019   7.654  10.812   8.775
  608POPC   D2A11020   7.415  10.692   8.418
  608POPC   C3A11021   7.610  10.862   8.056
  608POPC   C4A11022   7.547  10.939   7.661
  608POPC   C1B11023   7.038  10.418   8.771
  608POPC   C2B11024   7.138  10.238   8.363
  608POPC   C3B11025   7.375  10.396   7.980
  608POPC   C4B11026   7.178  10.262   7.586
  609POPC   NC311027   5.637   2.934   9.361
  609POPC   PO411028   6.095   2.445   9.208
  609POPC   GL111029   5.904   2.716   8.951
  609POPC   GL211030   6.055   3.016   9.015
  609POPC   C1A11031   5.998   2.806   8.525
  609POPC   D2A11032   5.702   2.550   8.312
  609POPC   C3A11033   5.554   2.648   7.942
  609POPC   C4A11034   5.807   2.567   7.587
  609POPC   C1B11035   5.724   3.185   8.730
  609POPC   C2B11036   5.587   3.075   8.310
  609POPC   C3B11037   5.693   3.128   7.874
  609POPC   C4B11038   5.485   2.973   7.498
  610POPC   NC311039  18.924   4.214   9.483
  610POPC   PO411040  19.567   4.431   9.532
  610POPC   GL111041  19.314   4.594   9.152
  610POPC   GL211042  18.961   4.658   9.212
  610POPC   C1A11043  19.249   4.442   8.717
  610POPC   D2A11044  19.412   4.139   8.385
  610POPC   C3A11045  19.295   4.257   7.946
  610POPC   C4A11046  19.236   4.667   7.728
  610POPC   C1B11047  18.752   4.462   8.844
  610POPC   C2B11048  18.797   4.560   8.432
  610POPC   C3B11049  18.522   4.600   8.107
  610POPC   C4B11050  18.700   4.561   7.726
  611POPC   NC311051  41.780  36.637   9.698
  611POPC   PO411052  41.465  36.029   9.627
  611POPC   GL111053  41.590  35.966   9.227
  611POPC   GL211054  41.376  35.690   9.215
  611POPC   C1A11055  41.571  36.260   8.894
  611POPC   D2A11056  41.400  36.410   8.523
  611POPC   C3A11057  41.507  36.185   8.135
  611POPC   C4A11058  41.753  36.355   7.769
  611POPC   C1B11059  41.222  35.884   8.834
  611POPC   C2B11060  41.233  35.736   8.406
  611POPC   C3B11061  41.375  35.700   8.015
  611POPC   C4B11062  41.234  35.828   7.662
  612POPC   NC311063  13.366  12.034   9.498
  612POPC   PO411064  13.788  11.509   9.599
  612POPC   GL111065  13.921  11.891   9.290
  612POPC   GL211066  13.703  12.173   9.141
  612POPC   C1A11067  13.908  11.859   8.803
  612POPC   D2A11068  13.626  12.141   8.537
  612POPC   C3A11069  13.757  12.231   8.120
  612POPC   C4A11070  13.736  11.941   7.768
  612POPC   C1B11071  13.304  12.281   8.906
  612POPC   C2B11072  13.092  12.309   8.520
  612POPC   C3B11073  13.246  12.286   8.116
  612POPC   C4B11074  13.430  12.370   7.728
  613POPC   NC311075   4.744  32.289   9.639
  613POPC   PO411076   5.323  31.934   9.603
  613POPC   GL111077   5.070  32.078   9.243
  613POPC   GL211078   4.794  31.820   9.198
  613POPC   C1A11079   5.207  32.366   8.858
  613POPC   D2A11080   5.386  32.445   8.411
  613POPC   C3A11081   5.237  32.230   7.988
  613POPC   C4A11082   5.459  31.901   7.706
  613POPC   C1B11083   4.921  31.952   8.764
  613POPC   C2B11084   4.854  32.202   8.362
  613POPC   C3B11085   4.707  32.063   7.952
  613POPC   C4B11086   4.830  31.762   7.640
  614POPC   NC311087   5.626   0.336   9.412
  614POPC   PO411088   6.145   0.733   9.488
  614POPC   GL111089   5.953   0.631   9.102
  614POPC   GL211090   5.613   0.788   9.112
  614POPC   C1A11091   6.022   0.270   8.790
  614POPC   D2A11092   6.086   0.061   8.381
  614POPC   C3A11093   5.749   0.087   8.071
  614POPC   C4A11094   5.825   0.278   7.683
  614POPC   C1B11095   5.573   0.532   8.778
  614POPC   C2B11096   5.721   0.456   8.405
  614POPC   C3B11097   5.850   0.639   8.034
  614POPC   C4B11098   6.107   0.708   7.648
  615POPC   NC311099  20.679  32.492   9.578
  615POPC   PO411100  20.647  33.241   9.606
  615POPC   GL111101  20.690  33.161   9.191
  615POPC   GL211102  20.630  32.815   9.164
  615POPC   C1A11103  20.661  33.135   8.753
  615POPC   D2A11104  20.504  33.344   8.399
  615POPC   C3A11105  20.596  33.133   8.031
  615POPC   C4A11106  20.385  33.365   7.720
  615POPC   C1B11107  20.878  32.676   8.793
  615POPC   C2B11108  20.900  32.745   8.365
  615POPC   C3B11109  20.897  32.662   7.928
  615POPC   C4B11110  20.969  33.014   7.659
  616POPC   NC311111  34.015  27.126   9.949
  616POPC   PO411112  33.484  26.782   9.831
  616POPC   GL111113  33.574  27.047   9.396
  616POPC   GL211114  33.947  27.116   9.306
  616POPC   C1A11115  33.627  27.003   8.900
  616POPC   D2A11116  33.633  26.619   8.618
  616POPC   C3A11117  33.616  26.646   8.160
  616POPC   C4A11118  33.557  26.802   7.745
  616POPC   C1B11119  34.121  27.197   8.871
  616POPC   C2B11120  33.968  27.005   8.465
  616POPC   C3B11121  33.972  26.977   8.017
  616POPC   C4B11122  34.059  26.618   7.780
  617POPC   NC311123   3.602  30.346   9.656
  617POPC   PO411124   3.463  30.957   9.710
  617POPC   GL111125   3.598  30.753   9.324
  617POPC   GL211126   3.666  31.056   9.181
  617POPC   C1A11127   3.463  30.621   8.876
  617POPC   D2A11128   3.674  30.568   8.458
  617POPC   C3A11129   3.467  30.589   8.081
  617POPC   C4A11130   3.620  30.514   7.688
  617POPC   C1B11131   3.683  31.193   8.783
  617POPC   C2B11132   3.534  31.051   8.402
  617POPC   C3B11133   3.597  31.078   8.005
  617POPC   C4B11134   3.755  31.026   7.632
  618POPC   NC311135  21.083  39.837   9.596
  618POPC   PO411136  20.383  40.015   9.684
  618POPC   GL111137  20.458  40.050   9.246
  618POPC   GL211138  20.828  40.020   9.174
  618POPC   C1A11139  20.422  39.892   8.829
  618POPC   D2A11140  20.459  40.081   8.458
  618POPC   C3A11141  20.527  39.902   8.118
  618POPC   C4A11142  20.589  39.928   7.718
  618POPC   C1B11143  20.850  40.235   8.744
  618POPC   C2B11144  20.898  40.256   8.266
  618POPC   C3B11145  20.943  40.323   7.811
  618POPC   C4B11146  20.964  40.134   7.381
  619POPC   NC311147  41.130  37.700   9.664
  619POPC   PO411148  41.850  37.744   9.597
  619POPC   GL111149  41.705  37.801   9.202
  619POPC   GL211150  41.362  37.698   9.210
  619POPC   C1A11151  41.684  37.702   8.785
  619POPC   D2A11152  41.880  37.579   8.403
  619POPC   C3A11153  41.748  37.744   8.049
  619POPC   C4A11154  41.822  37.561   7.657
  619POPC   C1B11155  41.190  37.560   8.823
  619POPC   C2B11156  41.323  37.698   8.406
  619POPC   C3B11157  41.265  37.534   8.025
  619POPC   C4B11158  41.400  37.282   7.689
  620POPC   NC311159  10.658  25.860   9.404
  620POPC   PO411160  11.182  26.263   9.225
  620POPC   GL111161  10.773  26.311   9.031
  620POPC   GL211162  10.402  26.221   9.122
  620POPC   C1A11163  10.614  26.150   8.633
  620POPC   D2A11164  10.386  26.213   8.224
  620POPC   C3A11165  10.608  26.017   7.853
  620POPC   C4A11166  10.930  25.692   7.784
  620POPC   C1B11167  10.141  26.049   8.759
  620POPC   C2B11168  10.187  25.760   8.362
  620POPC   C3B11169  10.100  25.906   7.926
  620POPC   C4B11170  10.011  25.960   7.500
  621POPC   NC311171  30.371  32.814   9.547
  621POPC   PO411172  30.792  33.381   9.524
  621POPC   GL111173  30.836  33.172   9.151
  621POPC   GL211174  30.886  32.832   9.189
  621POPC   C1A11175  30.726  33.240   8.760
  621POPC   D2A11176  30.765  33.534   8.463
  621POPC   C3A11177  30.763  33.216   8.118
  621POPC   C4A11178  30.612  33.075   7.705
  621POPC   C1B11179  30.526  32.784   8.896
  621POPC   C2B11180  30.583  32.838   8.462
  621POPC   C3B11181  30.368  32.848   8.105
  621POPC   C4B11182  30.220  32.730   7.687
  622POPC   NC311183  28.173  32.001   9.663
  622POPC   PO411184  28.766  32.328   9.565
  622POPC   GL111185  28.527  32.098   9.252
  622POPC   GL211186  28.174  32.128   9.168
  622POPC   C1A11187  28.556  32.105   8.797
  622POPC   D2A11188  28.515  32.405   8.435
  622POPC   C3A11189  28.413  32.171   8.071
  622POPC   C4A11190  28.655  32.001   7.761
  622POPC   C1B11191  28.116  32.413   8.801
  622POPC   C2B11192  28.005  32.348   8.349
  622POPC   C3B11193  28.109  32.555   7.940
  622POPC   C4B11194  28.320  32.358   7.597
  623POPC   NC311195   0.188  29.594   9.607
  623POPC   PO411196   0.772  29.929   9.525
  623POPC   GL111197   0.532  29.767   9.206
  623POPC   GL211198   0.155  29.776   9.139
  623POPC   C1A11199   0.614  29.748   8.774
  623POPC   D2A11200   0.626  30.000   8.375
  623POPC   C3A11201   0.528  29.782   7.973
  623POPC   C4A11202   0.178  30.012   7.757
  623POPC   C1B11203   0.087  29.480   8.808
  623POPC   C2B11204   0.329  29.538   8.401
  623POPC   C3B11205   0.166  29.374   8.049
  623POPC   C4B11206   0.150  29.515   7.685
  624POPC   NC311207  17.602  36.425   9.523
  624POPC   PO411208  17.110  36.002   9.498
  624POPC   GL111209  17.294  36.070   9.109
  624POPC   GL211210  17.622  35.955   9.081
  624POPC   C1A11211  17.355  36.088   8.659
  624POPC   D2A11212  17.257  36.374   8.352
  624POPC   C3A11213  17.281  36.247   7.903
  624POPC   C4A11214  17.538  35.955   7.640
  624POPC   C1B11215  17.721  36.360   8.890
  624POPC   C2B11216  17.771  36.424   8.458
  624POPC   C3B11217  17.760  36.229   8.065
  624POPC   C4B11218  17.831  36.378   7.659
  625POPC   NC311219  35.057  18.021   9.544
  625POPC   PO411220  35.608  18.428   9.649
  625POPC   GL111221  35.554  18.344   9.225
  625POPC   GL211222  35.250  18.169   9.090
  625POPC   C1A11223  35.588  18.413   8.796
  625POPC   D2A11224  35.328  18.279   8.458
  625POPC   C3A11225  35.454  18.493   8.089
  625POPC   C4A11226  35.606  18.439   7.681
  625POPC   C1B11227  34.999  17.957   8.755
  625POPC   C2B11228  34.910  17.889   8.311
  625POPC   C3B11229  35.001  18.205   8.035
  625POPC   C4B11230  35.180  18.181   7.643
  626POPC   NC311231  19.419  41.817   9.384
  626POPC   PO411232  20.006  42.203   9.620
  626POPC   GL111233  20.067  42.229   9.173
  626POPC   GL211234  19.866  41.988   9.034
  626POPC   C1A11235  20.095  42.447   8.793
  626POPC   D2A11236  19.807  42.288   8.514
  626POPC   C3A11237  19.899  42.301   8.099
  626POPC   C4A11238  19.680  42.331   7.701
  626POPC   C1B11239  20.100  41.911   8.695
  626POPC   C2B11240  19.896  41.803   8.308
  626POPC   C3B11241  19.645  41.890   7.946
  626POPC   C4B11242  20.052  41.959   7.738
  627POPC   NC311243  23.520  25.113   9.363
  627POPC   PO411244  23.543  24.432   9.462
  627POPC   GL111245  23.457  24.330   9.041
  627POPC   GL211246  23.128  24.163   9.076
  627POPC   C1A11247  23.652  24.512   8.678
  627POPC   D2A11248  23.639  24.683   8.271
  627POPC   C3A11249  23.675  24.337   8.012
  627POPC   C4A11250  23.757  24.281   7.590
  627POPC   C1B11251  23.331  23.910   8.770
  627POPC   C2B11252  23.488  24.044   8.407
  627POPC   C3B11253  23.238  24.053   8.062
  627POPC   C4B11254  23.359  23.976   7.663
  628POPC   NC311255  42.434   7.065   9.229
  628POPC   PO411256  42.575   7.636   9.617
  628POPC   GL111257  42.390   7.651   9.236
  628POPC   GL211258  42.028   7.682   9.210
  628POPC   C1A11259  42.369   7.823   8.850
  628POPC   D2A11260  42.427   7.505   8.553
  628POPC   C3A11261  42.370   7.598   8.153
  628POPC   C4A11262  42.440   7.399   7.769
  628POPC   C1B11263  42.015   7.394   8.824
  628POPC   C2B11264  41.965   7.300   8.347
  628POPC   C3B11265  41.939   7.417   7.874
  628POPC   C4B11266  41.895   7.226   7.416
  629POPC   NC311267  19.323  41.261   9.871
  629POPC   PO411268  18.986  41.782   9.567
  629POPC   GL111269  19.045  41.554   9.157
  629POPC   GL211270  19.342  41.338   9.076
  629POPC   C1A11271  19.066  41.763   8.744
  629POPC   D2A11272  18.836  41.978   8.386
  629POPC   C3A11273  19.023  41.808   8.062
  629POPC   C4A11274  19.189  41.461   7.919
  629POPC   C1B11275  19.064  41.238   8.739
  629POPC   C2B11276  18.807  41.449   8.415
  629POPC   C3B11277  18.711  41.318   8.016
  629POPC   C4B11278  18.930  41.054   7.728
  630POPC   NC311279  14.557  38.604   9.691
  630POPC   PO411280  14.112  38.229   9.501
  630POPC   GL111281  14.488  38.337   9.232
  630POPC   GL211282  14.665  38.658   9.195
  630POPC   C1A11283  14.621  38.296   8.813
  630POPC   D2A11284  14.389  38.371   8.441
  630POPC   C3A11285  14.541  38.307   8.033
  630POPC   C4A11286  14.213  38.419   7.741
  630POPC   C1B11287  14.421  38.772   8.818
  630POPC   C2B11288  14.214  38.863   8.403
  630POPC   C3B11289  14.421  38.808   8.024
  630POPC   C4B11290  14.651  38.674   7.668
  631POPC   NC311291  21.312  18.421   9.442
  631POPC   PO411292  21.496  17.717   9.517
  631POPC   GL111293  21.601  18.058   9.176
  631POPC   GL211294  21.698  18.427   9.137
  631POPC   C1A11295  21.444  18.134   8.751
  631POPC   D2A11296  21.415  17.912   8.359
  631POPC   C3A11297  21.430  18.105   7.979
  631POPC   C4A11298  21.113  18.408   7.870
  631POPC   C1B11299  21.535  18.639   8.770
  631POPC   C2B11300  21.481  18.492   8.351
  631POPC   C3B11301  21.523  18.692   7.969
  631POPC   C4B11302  21.598  18.435   7.633
  632POPC   NC311303   3.299  37.919   9.510
  632POPC   PO411304   3.767  38.514   9.551
  632POPC   GL111305   3.481  38.360   9.228
  632POPC   GL211306   3.622  38.038   9.155
  632POPC   C1A11307   3.458  38.329   8.765
  632POPC   D2A11308   3.667  38.484   8.387
  632POPC   C3A11309   3.563  38.259   8.032
  632POPC   C4A11310   3.484  38.310   7.610
  632POPC   C1B11311   3.793  37.886   8.796
  632POPC   C2B11312   3.821  37.970   8.379
  632POPC   C3B11313   3.784  37.765   7.997
  632POPC   C4B11314   3.659  37.838   7.596
  633POPC   NC311315   4.577  27.888   9.605
  633POPC   PO411316   4.437  27.240   9.406
  633POPC   GL111317   4.353  27.595   9.160
  633POPC   GL211318   4.672  27.775   9.116
  633POPC   C1A11319   4.089  27.511   8.793
  633POPC   D2A11320   3.992  27.154   8.497
  633POPC   C3A11321   3.994  27.264   8.070
  633POPC   C4A11322   4.084  27.623   7.852
  633POPC   C1B11323   4.441  27.883   8.736
  633POPC   C2B11324   4.426  27.648   8.344
  633POPC   C3B11325   4.585  27.704   7.927
  633POPC   C4B11326   4.346  28.056   7.741
  634POPC   NC311327  35.542  26.918   9.524
  634POPC   PO411328  34.914  27.015   9.450
  634POPC   GL111329  35.201  27.069   9.114
  634POPC   GL211330  35.430  26.801   9.025
  634POPC   C1A11331  35.245  27.172   8.668
  634POPC   D2A11332  35.538  27.191   8.299
  634POPC   C3A11333  35.397  26.930   7.926
  634POPC   C4A11334  35.649  26.809   7.568
  634POPC   C1B11335  35.036  26.651   8.836
  634POPC   C2B11336  34.921  26.582   8.403
  634POPC   C3B11337  35.169  26.467   8.024
  634POPC   C4B11338  35.141  26.205   7.658
  635POPC   NC311339  25.911   0.153   9.414
  635POPC   PO411340  26.365   0.708   9.448
  635POPC   GL111341  26.130   0.523   9.132
  635POPC   GL211342  26.253   0.198   9.030
  635POPC   C1A11343  25.851   0.494   8.778
  635POPC   D2A11344  25.766   0.787   8.454
  635POPC   C3A11345  25.932   0.608   8.081
  635POPC   C4A11346  25.936   0.693   7.638
  635POPC   C1B11347  26.359   0.482   8.672
  635POPC   C2B11348  26.467   0.503   8.269
  635POPC   C3B11349  26.398   0.544   7.849
  635POPC   C4B11350  26.273   0.333   7.487
  636POPC   NC311351  28.052  26.894   9.543
  636POPC   PO411352  28.527  26.511   9.582
  636POPC   GL111353  28.620  26.744   9.206
  636POPC   GL211354  28.299  26.815   9.111
  636POPC   C1A11355  28.689  26.780   8.760
  636POPC   D2A11356  28.578  27.058   8.435
  636POPC   C3A11357  28.641  26.843   8.070
  636POPC   C4A11358  28.465  26.751   7.736
  636POPC   C1B11359  28.153  26.978   8.706
  636POPC   C2B11360  27.998  26.883   8.271
  636POPC   C3B11361  28.049  27.042   7.834
  636POPC   C4B11362  28.133  26.881   7.383
  637POPC   NC311363  12.714  11.557   9.500
  637POPC   PO411364  12.940  12.251   9.447
  637POPC   GL111365  12.970  11.935   9.110
  637POPC   GL211366  12.678  11.757   9.034
  637POPC   C1A11367  13.060  11.784   8.679
  637POPC   D2A11368  13.321  11.760   8.291
  637POPC   C3A11369  13.083  11.814   7.921
  637POPC   C4A11370  12.948  12.172   7.699
  637POPC   C1B11371  12.422  11.844   8.692
  637POPC   C2B11372  12.390  12.092   8.288
  637POPC   C3B11373  12.552  11.920   7.890
  637POPC   C4B11374  12.752  11.737   7.492
  638POPC   NC311375   2.559  37.968   9.544
  638POPC   PO411376   2.002  37.478   9.493
  638POPC   GL111377   2.101  37.783   9.192
  638POPC   GL211378   1.811  38.006   9.142
  638POPC   C1A11379   2.220  37.772   8.762
  638POPC   D2A11380   2.094  37.522   8.420
  638POPC   C3A11381   2.305  37.580   8.057
  638POPC   C4A11382   2.124  37.563   7.672
  638POPC   C1B11383   1.761  38.005   8.686
  638POPC   C2B11384   1.988  38.026   8.276
  638POPC   C3B11385   2.084  38.043   7.800
  638POPC   C4B11386   1.891  38.050   7.344
  639POPC   NC311387  22.998  17.539   9.702
  639POPC   PO411388  22.473  17.764   9.377
  639POPC   GL111389  22.933  17.711   9.143
  639POPC   GL211390  23.281  17.570   9.228
  639POPC   C1A11391  22.877  17.537   8.705
  639POPC   D2A11392  22.643  17.309   8.383
  639POPC   C3A11393  22.810  17.519   8.002
  639POPC   C4A11394  22.949  17.425   7.587
  639POPC   C1B11395  23.353  17.735   8.794
  639POPC   C2B11396  23.178  17.782   8.363
  639POPC   C3B11397  23.357  17.916   7.963
  639POPC   C4B11398  23.255  17.889   7.535
  640POPC   NC311399  15.678  42.623   9.608
  640POPC   PO411400  16.341  42.368   9.537
  640POPC   GL111401  16.132  42.435   9.156
  640POPC   GL211402  15.805  42.388   9.181
  640POPC   C1A11403  16.006  42.613   8.753
  640POPC   D2A11404  16.037  42.319   8.393
  640POPC   C3A11405  15.861  42.444   8.001
  640POPC   C4A11406  15.993  42.433   7.546
  640POPC   C1B11407  15.688  42.217   8.803
  640POPC   C2B11408  15.527  42.364   8.435
  640POPC   C3B11409  15.445  42.109   8.115
  640POPC   C4B11410  15.555  42.167   7.691
  641POPC   NC311411  25.878  34.726   9.750
  641POPC   PO411412  26.287  34.328   9.504
  641POPC   GL111413  26.050  34.635   9.214
  641POPC   GL211414  25.814  34.879   9.244
  641POPC   C1A11415  26.266  34.758   8.790
  641POPC   D2A11416  26.267  34.352   8.601
  641POPC   C3A11417  26.253  34.328   8.152
  641POPC   C4A11418  26.304  34.700   7.854
  641POPC   C1B11419  25.799  34.598   8.800
  641POPC   C2B11420  25.916  34.669   8.391
  641POPC   C3B11421  25.827  34.546   7.979
  641POPC   C4B11422  25.814  34.596   7.574
  642POPC   NC311423  29.641  26.910   9.864
  642POPC   PO411424  29.181  26.836   9.330
  642POPC   GL111425  29.104  26.600   8.991
  642POPC   GL211426  29.396  26.431   8.993
  642POPC   C1A11427  29.084  26.423   8.604
  642POPC   D2A11428  29.067  26.706   8.306
  642POPC   C3A11429  29.290  26.749   7.905
  642POPC   C4A11430  28.979  26.763   7.578
  642POPC   C1B11431  29.462  26.786   8.679
  642POPC   C2B11432  29.480  27.016   8.300
  642POPC   C3B11433  29.624  27.124   7.890
  642POPC   C4B11434  29.529  27.030   7.454
  643POPC   NC311435  38.013  17.354   9.588
  643POPC   PO411436  37.639  17.832   9.518
  643POPC   GL111437  37.741  17.552   9.170
  643POPC   GL211438  38.116  17.653   9.128
  643POPC   C1A11439  37.532  17.366   8.755
  643POPC   D2A11440  37.645  17.500   8.305
  643POPC   C3A11441  37.487  17.320   7.928
  643POPC   C4A11442  37.362  17.291   7.475
  643POPC   C1B11443  37.886  17.725   8.725
  643POPC   C2B11444  37.743  18.007   8.409
  643POPC   C3B11445  37.854  17.879   8.010
  643POPC   C4B11446  37.668  17.695   7.640
  644POPC   NC311447   0.173  39.121   9.467
  644POPC   PO411448   0.673  39.640   9.471
  644POPC   GL111449   0.436  39.451   9.135
  644POPC   GL211450   0.079  39.469   9.095
  644POPC   C1A11451   0.380  39.240   8.759
  644POPC   D2A11452   0.509  39.412   8.389
  644POPC   C3A11453   0.525  39.192   8.045
  644POPC   C4A11454   0.624  39.306   7.674
  644POPC   C1B11455  44.910  39.522   8.681
  644POPC   C2B11456   0.046  39.584   8.254
  644POPC   C3B11457   0.088  39.349   7.842
  644POPC   C4B11458  44.872  39.397   7.438
  645POPC   NC311459   7.768  17.639  10.013
  645POPC   PO411460   7.283  17.603   9.523
  645POPC   GL111461   7.348  17.501   9.117
  645POPC   GL211462   7.201  17.185   9.126
  645POPC   C1A11463   7.328  17.669   8.699
  645POPC   D2A11464   7.607  17.581   8.378
  645POPC   C3A11465   7.472  17.486   8.034
  645POPC   C4A11466   7.498  17.662   7.696
  645POPC   C1B11467   6.961  17.339   8.803
  645POPC   C2B11468   7.172  17.264   8.418
  645POPC   C3B11469   7.086  17.119   8.031
  645POPC   C4B11470   7.120  17.336   7.644
  646POPC   NC311471   1.404  30.474   9.568
  646POPC   PO411472   0.775  30.764   9.482
  646POPC   GL111473   1.122  30.688   9.163
  646POPC   GL211474   1.283  30.352   9.086
  646POPC   C1A11475   1.114  30.770   8.722
  646POPC   D2A11476   1.342  30.902   8.354
  646POPC   C3A11477   1.049  30.836   8.001
  646POPC   C4A11478   0.996  30.633   7.584
  646POPC   C1B11479   1.578  30.559   8.774
  646POPC   C2B11480   1.605  30.443   8.324
  646POPC   C3B11481   1.341  30.424   7.940
  646POPC   C4B11482   1.259  30.185   7.568
  647POPC   NC311483  41.737  34.743   9.447
  647POPC   PO411484  41.928  34.154   9.388
  647POPC   GL111485  41.700  34.365   9.084
  647POPC   GL211486  41.351  34.488   9.220
  647POPC   C1A11487  41.643  34.713   8.798
  647POPC   D2A11488  41.416  34.701   8.421
  647POPC   C3A11489  41.659  34.752   8.059
  647POPC   C4A11490  41.632  34.480   7.718
  647POPC   C1B11491  41.259  34.349   8.813
  647POPC   C2B11492  41.170  34.191   8.431
  647POPC   C3B11493  41.295  34.319   8.064
  647POPC   C4B11494  41.334  34.066   7.667
  648POPC   NC311495  24.744  12.567   9.472
  648POPC   PO411496  24.230  12.942   9.486
  648POPC   GL111497  24.225  12.935   9.090
  648POPC   GL211498  24.408  12.625   9.071
  648POPC   C1A11499  24.395  13.101   8.728
  648POPC   D2A11500  24.621  13.190   8.359
  648POPC   C3A11501  24.424  12.951   8.013
  648POPC   C4A11502  24.597  12.587   7.829
  648POPC   C1B11503  24.179  12.598   8.690
  648POPC   C2B11504  24.331  12.473   8.273
  648POPC   C3B11505  24.108  12.519   7.867
  648POPC   C4B11506  24.249  12.750   7.484
  649POPC   NC311507  15.260  27.071   9.688
  649POPC   PO411508  14.690  27.085   9.343
  649POPC   GL111509  14.951  26.875   9.014
  649POPC   GL211510  15.305  26.925   9.101
  649POPC   C1A11511  15.103  26.846   8.582
  649POPC   D2A11512  15.256  27.084   8.246
  649POPC   C3A11513  15.000  27.041   7.899
  649POPC   C4A11514  15.178  27.075   7.466
  649POPC   C1B11515  15.508  26.622   8.815
  649POPC   C2B11516  15.468  26.358   8.461
  649POPC   C3B11517  15.362  26.575   8.109
  649POPC   C4B11518  15.249  26.637   7.707
  650POPC   NC311519   9.175   3.698   9.676
  650POPC   PO411520   9.229   2.959   9.656
  650POPC   GL111521   9.285   3.328   9.320
  650POPC   GL211522   9.012   3.547   9.197
  650POPC   C1A11523   9.311   3.424   8.829
  650POPC   D2A11524   9.059   3.558   8.463
  650POPC   C3A11525   9.129   3.388   8.070
  650POPC   C4A11526   9.160   3.647   7.717
  650POPC   C1B11527   8.725   3.696   8.868
  650POPC   C2B11528   8.508   3.538   8.505
  650POPC   C3B11529   8.641   3.538   8.110
  650POPC   C4B11530   8.649   3.697   7.742
  651POPC   NC311531  37.229   1.442   9.535
  651POPC   PO411532  36.744   1.077   9.332
  651POPC   GL111533  36.921   1.061   9.020
  651POPC   GL211534  37.210   1.084   9.140
  651POPC   C1A11535  36.760   1.230   8.688
  651POPC   D2A11536  36.429   1.355   8.468
  651POPC   C3A11537  36.707   1.285   8.152
  651POPC   C4A11538  36.791   1.270   7.750
  651POPC   C1B11539  37.309   1.261   8.752
  651POPC   C2B11540  37.158   1.404   8.398
  651POPC   C3B11541  37.280   1.315   7.989
  651POPC   C4B11542  37.230   1.074   7.611
  652POPC   NC311543  37.268  28.611   9.561
  652POPC   PO411544  37.912  28.370   9.445
  652POPC   GL111545  37.543  28.401   9.186
  652POPC   GL211546  37.464  28.079   9.054
  652POPC   C1A11547  37.556  28.525   8.805
  652POPC   D2A11548  37.695  28.345   8.451
  652POPC   C3A11549  37.641  28.604   8.118
  652POPC   C4A11550  37.675  28.329   7.776
  652POPC   C1B11551  37.139  28.185   8.834
  652POPC   C2B11552  37.103  28.048   8.448
  652POPC   C3B11553  37.313  28.187   8.111
  652POPC   C4B11554  37.128  28.151   7.743
  653POPC   NC311555  44.332  27.346   9.500
  653POPC   PO411556  44.938  27.724   9.533
  653POPC   GL111557  44.776  27.775   9.150
  653POPC   GL211558  44.424  27.723   9.141
  653POPC   C1A11559  44.785  27.881   8.731
  653POPC   D2A11560  44.798  27.674   8.352
  653POPC   C3A11561  44.717  27.831   7.953
  653POPC   C4A11562   0.057  27.704   7.686
  653POPC   C1B11563  44.626  27.386   8.846
  653POPC   C2B11564  44.674  27.170   8.447
  653POPC   C3B11565  44.623  27.301   7.998
  653POPC   C4B11566  44.477  27.265   7.562
  654POPC   NC311567  25.563  12.632   9.511
  654POPC   PO411568  24.987  12.979   9.448
  654POPC   GL111569  25.345  12.942   9.153
  654POPC   GL211570  25.458  12.619   9.013
  654POPC   C1A11571  25.454  13.108   8.785
  654POPC   D2A11572  25.426  12.911   8.388
  654POPC   C3A11573  25.275  13.173   8.058
  654POPC   C4A11574  25.510  13.309   7.706
  654POPC   C1B11575  25.034  12.589   8.866
  654POPC   C2B11576  24.795  12.556   8.492
  654POPC   C3B11577  25.013  12.652   8.112
  654POPC   C4B11578  25.039  12.858   7.715
  655POPC   NC311579   0.639  18.850   9.287
  655POPC   PO411580   0.403  18.328   9.679
  655POPC   GL111581   0.317  18.208   9.241
  655POPC   GL211582   0.008  18.379   9.255
  655POPC   C1A11583   0.567  18.134   8.841
  655POPC   D2A11584   0.857  18.343   8.513
  655POPC   C3A11585   0.695  18.331   8.088
  655POPC   C4A11586   0.616  18.030   7.748
  655POPC   C1B11587   0.084  18.428   8.809
  655POPC   C2B11588   0.302  18.311   8.434
  655POPC   C3B11589   0.218  18.137   8.039
  655POPC   C4B11590   0.055  18.166   7.628
  656POPC   NC311591  44.258  17.280   9.577
  656POPC   PO411592  43.822  17.785   9.522
  656POPC   GL111593  43.879  17.473   9.252
  656POPC   GL211594  44.187  17.643   9.162
  656POPC   C1A11595  43.863  17.420   8.817
  656POPC   D2A11596  44.001  17.582   8.439
  656POPC   C3A11597  43.721  17.596   8.103
  656POPC   C4A11598  43.729  17.464   7.727
  656POPC   C1B11599  44.330  17.277   8.896
  656POPC   C2B11600  44.353  17.205   8.467
  656POPC   C3B11601  44.072  17.193   8.101
  656POPC   C4B11602  44.226  17.231   7.705
  657POPC   NC311603  33.707  37.224   9.471
  657POPC   PO411604  34.212  36.802   9.513
  657POPC   GL111605  33.946  36.719   9.154
  657POPC   GL211606  33.610  36.808   9.193
  657POPC   C1A11607  33.896  36.874   8.729
  657POPC   D2A11608  33.620  36.959   8.365
  657POPC   C3A11609  33.860  37.033   7.984
  657POPC   C4A11610  34.106  36.798   7.677
  657POPC   C1B11611  33.435  37.097   8.857
  657POPC   C2B11612  33.474  37.416   8.536
  657POPC   C3B11613  33.444  37.374   8.070
  657POPC   C4B11614  33.656  37.368   7.666
  658POPC   NC311615  16.845   6.921   9.309
  658POPC   PO411616  16.760   7.471   9.651
  658POPC   GL111617  16.600   7.378   9.210
  658POPC   GL211618  16.831   7.291   8.973
  658POPC   C1A11619  16.463   7.651   8.835
  658POPC   D2A11620  16.595   7.932   8.476
  658POPC   C3A11621  16.513   7.826   8.046
  658POPC   C4A11622  16.620   7.766   7.603
  658POPC   C1B11623  16.627   7.201   8.634
  658POPC   C2B11624  16.485   7.385   8.301
  658POPC   C3B11625  16.681   7.321   7.905
  658POPC   C4B11626  16.820   7.077   7.558
  659POPC   NC311627  15.666   0.028   9.496
  659POPC   PO411628  16.316   0.294   9.621
  659POPC   GL111629  16.137   0.431   9.259
  659POPC   GL211630  16.071   0.079   9.184
  659POPC   C1A11631  15.968   0.541   8.846
  659POPC   D2A11632  16.059   0.772   8.449
  659POPC   C3A11633  15.914   0.592   8.057
  659POPC   C4A11634  15.833   0.797   7.662
  659POPC   C1B11635  16.345   0.175   8.851
  659POPC   C2B11636  16.215   0.263   8.435
  659POPC   C3B11637  16.277   0.200   7.997
  659POPC   C4B11638  16.003   0.261   7.649
  660POPC   NC311639  11.822  20.355   9.492
  660POPC   PO411640  11.857  19.688   9.441
  660POPC   GL111641  12.201  19.779   9.190
  660POPC   GL211642  12.124  20.101   9.128
  660POPC   C1A11643  12.398  19.735   8.798
  660POPC   D2A11644  12.178  19.595   8.459
  660POPC   C3A11645  12.330  19.633   8.093
  660POPC   C4A11646  12.029  19.722   7.800
  660POPC   C1B11647  11.888  19.876   8.784
  660POPC   C2B11648  11.783  20.031   8.367
  660POPC   C3B11649  11.884  20.191   7.944
  660POPC   C4B11650  11.742  20.044   7.536
  661POPC   NC311651  21.942  38.609   9.366
  661POPC   PO411652  22.238  38.096   9.699
  661POPC   GL111653  22.318  38.240   9.270
  661POPC   GL211654  22.423  38.583   9.177
  661POPC   C1A11655  22.132  38.284   8.836
  661POPC   D2A11656  22.175  38.120   8.430
  661POPC   C3A11657  22.076  38.425   8.142
  661POPC   C4A11658  22.055  38.514   7.714
  661POPC   C1B11659  22.547  38.712   8.769
  661POPC   C2B11660  22.547  38.554   8.363
  661POPC   C3B11661  22.460  38.715   7.948
  661POPC   C4B11662  22.450  38.809   7.463
  662POPC   NC311663  32.679  31.814   9.497
  662POPC   PO411664  32.092  31.467   9.443
  662POPC   GL111665  32.154  31.587   9.035
  662POPC   GL211666  32.366  31.878   9.096
  662POPC   C1A11667  32.374  31.449   8.700
  662POPC   D2A11668  32.480  31.257   8.309
  662POPC   C3A11669  32.143  31.307   8.034
  662POPC   C4A11670  32.257  31.138   7.672
  662POPC   C1B11671  32.696  31.861   8.784
  662POPC   C2B11672  32.708  31.709   8.394
  662POPC   C3B11673  32.492  31.786   8.018
  662POPC   C4B11674  32.300  31.632   7.666
  663POPC   NC311675  12.266  12.594   9.752
  663POPC   PO411676  11.727  13.032   9.552
  663POPC   GL111677  11.871  12.754   9.210
  663POPC   GL211678  12.240  12.650   9.235
  663POPC   C1A11679  11.808  12.966   8.837
  663POPC   D2A11680  11.681  13.079   8.460
  663POPC   C3A11681  11.905  13.105   8.064
  663POPC   C4A11682  12.041  12.882   7.708
  663POPC   C1B11683  12.293  12.800   8.846
  663POPC   C2B11684  12.142  12.813   8.440
  663POPC   C3B11685  12.386  12.815   8.078
  663POPC   C4B11686  12.537  12.828   7.665
  664POPC   NC311687  20.122  27.751   9.462
  664POPC   PO411688  19.676  27.209   9.454
  664POPC   GL111689  19.928  27.394   9.161
  664POPC   GL211690  19.715  27.669   9.150
  664POPC   C1A11691  20.044  27.620   8.771
  664POPC   D2A11692  19.928  27.823   8.411
  664POPC   C3A11693  20.077  27.720   8.048
  664POPC   C4A11694  19.820  27.590   7.736
  664POPC   C1B11695  19.556  27.815   8.786
  664POPC   C2B11696  19.404  27.921   8.418
  664POPC   C3B11697  19.590  27.975   8.035
  664POPC   C4B11698  19.611  28.040   7.618
  665POPC   NC311699   6.599  39.309   9.430
  665POPC   PO411700   6.855  39.945   9.357
  665POPC   GL111701   6.657  39.670   9.074
  665POPC   GL211702   6.967  39.490   9.071
  665POPC   C1A11703   6.642  39.320   8.748
  665POPC   D2A11704   6.591  39.375   8.348
  665POPC   C3A11705   6.805  39.233   8.024
  665POPC   C4A11706   6.627  38.951   7.747
  665POPC   C1B11707   7.088  39.062   8.885
  665POPC   C2B11708   6.948  38.901   8.480
  665POPC   C3B11709   7.112  38.804   8.076
  665POPC   C4B11710   7.141  39.018   7.700
  666POPC   NC311711   0.296  35.864   9.479
  666POPC   PO411712   0.671  36.416   9.487
  666POPC   GL111713   0.503  36.192   9.152
  666POPC   GL211714   0.145  36.217   9.127
  666POPC   C1A11715   0.723  35.993   8.833
  666POPC   D2A11716   0.673  36.081   8.413
  666POPC   C3A11717   0.371  35.975   8.111
  666POPC   C4A11718   0.489  35.949   7.685
  666POPC   C1B11719   0.224  36.037   8.715
  666POPC   C2B11720   0.134  36.322   8.404
  666POPC   C3B11721  44.966  36.414   8.030
  666POPC   C4B11722   0.041  36.188   7.724
  667POPC   NC311723  18.838  16.552   9.441
  667POPC   PO411724  19.367  16.811   9.739
  667POPC   GL111725  19.269  16.851   9.289
  667POPC   GL211726  19.182  16.501   9.080
  667POPC   C1A11727  19.450  16.859   8.891
  667POPC   D2A11728  19.319  16.597   8.565
  667POPC   C3A11729  19.340  16.688   8.140
  667POPC   C4A11730  19.450  16.421   7.795
  667POPC   C1B11731  18.877  16.434   8.757
  667POPC   C2B11732  18.791  16.628   8.387
  667POPC   C3B11733  18.818  16.655   7.975
  667POPC   C4B11734  18.733  16.588   7.532
  668POPC   NC311735  30.747  20.394   9.557
  668POPC   PO411736  30.651  19.719   9.480
  668POPC   GL111737  30.721  19.624   9.114
  668POPC   GL211738  30.936  19.907   9.098
  668POPC   C1A11739  30.549  19.555   8.749
  668POPC   D2A11740  30.781  19.562   8.387
  668POPC   C3A11741  30.729  19.827   8.088
  668POPC   C4A11742  30.483  19.805   7.729
  668POPC   C1B11743  30.875  19.969   8.691
  668POPC   C2B11744  30.845  20.261   8.363
  668POPC   C3B11745  31.005  20.333   7.978
  668POPC   C4B11746  30.857  20.444   7.576
  669POPC   NC311747  23.071  41.658   9.574
  669POPC   PO411748  22.818  41.001   9.471
  669POPC   GL111749  22.786  41.431   9.199
  669POPC   GL211750  22.722  41.846   9.221
  669POPC   C1A11751  23.037  41.618   8.855
  669POPC   D2A11752  23.014  41.486   8.423
  669POPC   C3A11753  23.048  41.780   8.065
  669POPC   C4A11754  23.285  41.851   7.692
  669POPC   C1B11755  22.563  41.787   8.832
  669POPC   C2B11756  22.716  41.899   8.462
  669POPC   C3B11757  22.539  41.816   8.070
  669POPC   C4B11758  22.616  41.931   7.690
  670POPC   NC311759   1.853  40.186   9.567
  670POPC   PO411760   1.970  39.554   9.661
  670POPC   GL111761   1.984  39.754   9.232
  670POPC   GL211762   1.667  39.932   9.152
  670POPC   C1A11763   2.099  39.905   8.808
  670POPC   D2A11764   2.304  39.884   8.400
  670POPC   C3A11765   2.117  40.061   8.038
  670POPC   C4A11766   2.069  39.975   7.597
  670POPC   C1B11767   1.548  39.815   8.749
  670POPC   C2B11768   1.741  39.808   8.334
  670POPC   C3B11769   1.684  39.814   7.882
  670POPC   C4B11770   1.634  39.760   7.415
  671POPC   NC311771  36.008  38.886   9.396
  671POPC   PO411772  36.349  39.474   9.489
  671POPC   GL111773  36.106  39.473   9.135
  671POPC   GL211774  35.803  39.271   9.134
  671POPC   C1A11775  36.206  39.465   8.725
  671POPC   D2A11776  36.494  39.264   8.479
  671POPC   C3A11777  36.432  39.387   8.070
  671POPC   C4A11778  36.490  39.036   7.797
  671POPC   C1B11779  35.971  39.031   8.752
  671POPC   C2B11780  36.029  39.145   8.296
  671POPC   C3B11781  36.014  39.183   7.840
  671POPC   C4B11782  35.827  39.375   7.505
  672POPC   NC311783  44.158  38.251   9.155
  672POPC   PO411784  43.825  38.726   9.378
  672POPC   GL111785  44.116  38.780   9.042
  672POPC   GL211786  43.898  38.582   8.817
  672POPC   C1A11787  44.261  38.942   8.593
  672POPC   D2A11788  44.224  38.581   8.344
  672POPC   C3A11789  44.053  38.570   7.946
  672POPC   C4A11790  44.120  38.329   7.558
  672POPC   C1B11791  43.713  38.211   8.567
  672POPC   C2B11792  43.610  38.094   8.134
  672POPC   C3B11793  43.630  38.349   7.815
  672POPC   C4B11794  43.562  38.787   7.894
  673POPC   NC311795  15.081   8.512   9.486
  673POPC   PO411796  15.031   7.843   9.411
  673POPC   GL111797  15.101   8.098   9.081
  673POPC   GL211798  15.431   8.254   9.134
  673POPC   C1A11799  15.136   7.922   8.672
  673POPC   D2A11800  15.283   8.064   8.288
  673POPC   C3A11801  15.002   7.983   7.967
  673POPC   C4A11802  14.764   8.186   7.658
  673POPC   C1B11803  15.350   8.406   8.691
  673POPC   C2B11804  15.265   8.588   8.244
  673POPC   C3B11805  15.271   8.409   7.865
  673POPC   C4B11806  15.569   8.064   7.856
  674POPC   NC311807  16.263  23.839   9.809
  674POPC   PO411808  16.470  23.317   9.391
  674POPC   GL111809  16.693  23.589   9.071
  674POPC   GL211810  16.939  23.864   9.106
  674POPC   C1A11811  16.873  23.665   8.647
  674POPC   D2A11812  16.736  23.914   8.333
  674POPC   C3A11813  16.647  23.730   7.986
  674POPC   C4A11814  16.950  23.656   7.697
  674POPC   C1B11815  16.541  24.031   8.804
  674POPC   C2B11816  16.369  24.260   8.419
  674POPC   C3B11817  16.562  24.278   7.979
  674POPC   C4B11818  16.596  24.028   7.580
  675POPC   NC311819  27.747  13.766   9.461
  675POPC   PO411820  27.358  13.154   9.482
  675POPC   GL111821  27.454  13.417   9.142
  675POPC   GL211822  27.786  13.469   9.048
  675POPC   C1A11823  27.233  13.583   8.796
  675POPC   D2A11824  27.277  13.818   8.437
  675POPC   C3A11825  27.448  13.603   8.093
  675POPC   C4A11826  27.602  13.849   7.756
  675POPC   C1B11827  27.734  13.654   8.649
  675POPC   C2B11828  27.909  13.413   8.323
  675POPC   C3B11829  28.028  13.418   7.920
  675POPC   C4B11830  28.005  13.672   7.537
  676POPC   NC311831  14.777  13.054   9.530
  676POPC   PO411832  15.394  12.996   9.400
  676POPC   GL111833  15.084  12.924   9.121
  676POPC   GL211834  14.994  13.260   9.063
  676POPC   C1A11835  15.164  12.843   8.712
  676POPC   D2A11836  14.979  12.980   8.373
  676POPC   C3A11837  15.139  12.686   8.090
  676POPC   C4A11838  14.943  12.469   7.773
  676POPC   C1B11839  15.306  13.325   8.713
  676POPC   C2B11840  15.473  13.080   8.338
  676POPC   C3B11841  15.227  13.171   7.952
  676POPC   C4B11842  15.272  13.420   7.539
  677POPC   NC311843  27.181  16.887   9.493
  677POPC   PO411844  27.821  16.654   9.527
  677POPC   GL111845  27.612  16.891   9.225
  677POPC   GL211846  27.453  16.588   9.136
  677POPC   C1A11847  27.368  16.944   8.811
  677POPC   D2A11848  27.448  16.568   8.515
  677POPC   C3A11849  27.517  16.698   8.114
  677POPC   C4A11850  27.372  16.880   7.779
  677POPC   C1B11851  27.280  16.234   8.884
  677POPC   C2B11852  27.104  16.132   8.477
  677POPC   C3B11853  27.247  16.205   8.062
  677POPC   C4B11854  27.365  16.283   7.641
  678POPC   NC311855  20.668  41.160   9.982
  678POPC   PO411856  20.586  41.814   9.558
  678POPC   GL111857  20.553  41.677   9.171
  678POPC   GL211858  20.345  41.391   9.227
  678POPC   C1A11859  20.569  41.680   8.749
  678POPC   D2A11860  20.397  41.665   8.356
  678POPC   C3A11861  20.641  41.695   7.998
  678POPC   C4A11862  20.407  41.615   7.624
  678POPC   C1B11863  20.545  41.201   8.899
  678POPC   C2B11864  20.529  41.173   8.454
  678POPC   C3B11865  20.719  41.196   8.037
  678POPC   C4B11866  20.805  41.287   7.600
  679POPC   NC311867  23.077  31.941   9.405
  679POPC   PO411868  22.384  31.846   9.438
  679POPC   GL111869  22.629  32.094   9.124
  679POPC   GL211870  22.617  32.467   9.134
  679POPC   C1A11871  22.826  32.208   8.709
  679POPC   D2A11872  23.193  32.396   8.448
  679POPC   C3A11873  23.160  32.375   7.963
  679POPC   C4A11874  23.018  32.034   7.675
  679POPC   C1B11875  22.345  32.426   8.776
  679POPC   C2B11876  22.370  32.218   8.375
  679POPC   C3B11877  22.638  32.260   8.004
  679POPC   C4B11878  22.741  32.454   7.591
  680POPC   NC311879  16.925   7.940   9.631
  680POPC   PO411880  17.091   8.644   9.602
  680POPC   GL111881  16.825   8.355   9.308
  680POPC   GL211882  17.074   8.138   9.188
  680POPC   C1A11883  16.598   8.217   8.905
  680POPC   D2A11884  16.326   8.377   8.547
  680POPC   C3A11885  16.483   8.350   8.094
  680POPC   C4A11886  16.525   8.263   7.656
  680POPC   C1B11887  17.072   8.354   8.802
  680POPC   C2B11888  16.906   8.377   8.380
  680POPC   C3B11889  16.973   8.487   7.928
  680POPC   C4B11890  17.346   8.484   7.647
  681POPC   NC311891   9.092   6.251   9.485
  681POPC   PO411892   8.776   5.636   9.548
  681POPC   GL111893   8.990   5.769   9.197
  681POPC   GL211894   8.685   5.720   9.053
  681POPC   C1A11895   9.108   5.670   8.760
  681POPC   D2A11896   9.331   5.935   8.461
  681POPC   C3A11897   9.271   5.759   8.058
  681POPC   C4A11898   9.077   5.878   7.700
  681POPC   C1B11899   8.626   5.954   8.708
  681POPC   C2B11900   8.826   5.893   8.349
  681POPC   C3B11901   8.653   5.811   7.985
  681POPC   C4B11902   8.619   6.122   7.708
  682POPC   NC311903  31.031  42.221   9.557
  682POPC   PO411904  30.400  42.150   9.661
  682POPC   GL111905  30.617  42.347   9.209
  682POPC   GL211906  30.994  42.546   9.150
  682POPC   C1A11907  30.827  42.225   8.791
  682POPC   D2A11908  30.984  42.181   8.350
  682POPC   C3A11909  30.725  42.204   7.953
  682POPC   C4A11910  30.391  42.397   7.693
  682POPC   C1B11911  30.712  42.728   8.847
  682POPC   C2B11912  30.756  42.645   8.458
  682POPC   C3B11913  30.912  42.662   8.078
  682POPC   C4B11914  30.788  42.771   7.699
  683POPC   NC311915  30.503  15.937   9.516
  683POPC   PO411916  31.112  15.691   9.241
  683POPC   GL111917  30.780  15.926   9.096
  683POPC   GL211918  30.578  15.619   9.077
  683POPC   C1A11919  30.587  16.143   8.751
  683POPC   D2A11920  30.512  16.050   8.326
  683POPC   C3A11921  30.786  16.059   7.993
  683POPC   C4A11922  30.500  15.826   7.785
  683POPC   C1B11923  30.778  15.657   8.640
  683POPC   C2B11924  30.774  15.561   8.180
  683POPC   C3B11925  30.982  15.605   7.782
  683POPC   C4B11926  31.092  15.490   7.349
  684POPC   NC311927  27.170  43.917   9.991
  684POPC   PO411928  26.883  43.578   9.487
  684POPC   GL111929  26.783  43.941   9.222
  684POPC   GL211930  26.586  44.263   9.265
  684POPC   C1A11931  26.963  44.089   8.832
  684POPC   D2A11932  26.758  44.013   8.424
  684POPC   C3A11933  26.929  43.889   8.026
  684POPC   C4A11934  26.867  43.889   7.563
  684POPC   C1B11935  26.530  44.323   8.798
  684POPC   C2B11936  26.452  44.421   8.338
  684POPC   C3B11937  26.562  44.254   7.905
  684POPC   C4B11938  26.507  44.225   7.445
  685POPC   NC311939  23.120  28.608   9.585
  685POPC   PO411940  22.702  28.132   9.542
  685POPC   GL111941  22.837  28.382   9.207
  685POPC   GL211942  23.168  28.220   9.237
  685POPC   C1A11943  22.833  28.489   8.773
  685POPC   D2A11944  23.075  28.551   8.379
  685POPC   C3A11945  22.844  28.443   8.026
  685POPC   C4A11946  22.757  28.512   7.616
  685POPC   C1B11947  23.300  28.279   8.807
  685POPC   C2B11948  23.439  28.193   8.386
  685POPC   C3B11949  23.254  28.130   8.000
  685POPC   C4B11950  23.380  28.046   7.585
  686POPC   NC311951  19.730  39.981   9.558
  686POPC   PO411952  19.560  40.534   9.455
  686POPC   GL111953  19.549  40.208   9.144
  686POPC   GL211954  19.913  40.113   9.087
  686POPC   C1A11955  19.504  39.896   8.835
  686POPC   D2A11956  19.509  40.100   8.434
  686POPC   C3A11957  19.652  39.906   8.089
  686POPC   C4A11958  19.625  40.065   7.697
  686POPC   C1B11959  19.966  40.005   8.644
  686POPC   C2B11960  20.116  39.678   8.366
  686POPC   C3B11961  20.102  39.701   7.929
  686POPC   C4B11962  20.114  40.096   7.786
  687POPC   NC311963  32.838  42.618   9.475
  687POPC   PO411964  33.025  41.975   9.550
  687POPC   GL111965  32.876  42.183   9.193
  687POPC   GL211966  33.148  42.406   9.123
  687POPC   C1A11967  32.934  42.156   8.748
  687POPC   D2A11968  32.789  42.064   8.341
  687POPC   C3A11969  33.011  42.033   7.954
  687POPC   C4A11970  32.871  42.147   7.542
  687POPC   C1B11971  33.128  42.631   8.700
  687POPC   C2B11972  33.005  42.558   8.254
  687POPC   C3B11973  33.117  42.507   7.817
  687POPC   C4B11974  33.444  42.602   7.447
  688POPC   NC311975  35.401  33.373   9.660
  688POPC   PO411976  35.511  34.019   9.509
  688POPC   GL111977  35.370  33.924   9.089
  688POPC   GL211978  35.592  33.657   8.982
  688POPC   C1A11979  35.192  33.844   8.656
  688POPC   D2A11980  35.317  33.934   8.218
  688POPC   C3A11981  34.962  33.945   7.932
  688POPC   C4A11982  34.929  33.633   7.593
  688POPC   C1B11983  35.710  33.767   8.549
  688POPC   C2B11984  35.707  33.582   8.124
  688POPC   C3B11985  35.681  33.598   7.744
  688POPC   C4B11986  35.381  33.862   7.681
  689POPC   NC311987  37.218  20.952   9.516
  689POPC   PO411988  37.858  21.240   9.549
  689POPC   GL111989  37.788  21.246   9.122
  689POPC   GL211990  37.468  21.268   9.196
  689POPC   C1A11991  37.797  21.197   8.668
  689POPC   D2A11992  37.921  21.533   8.404
  689POPC   C3A11993  37.864  21.524   7.982
  689POPC   C4A11994  37.765  21.149   7.739
  689POPC   C1B11995  37.319  21.191   8.849
  689POPC   C2B11996  37.347  21.341   8.435
  689POPC   C3B11997  37.378  21.129   8.060
  689POPC   C4B11998  37.181  21.090   7.679
  690POPC   NC311999  32.326  24.020   9.644
  690POPC   PO412000  32.656  23.486   9.424
  690POPC   GL112001  32.345  23.747   9.149
  690POPC   GL212002  31.979  23.751   9.118
  690POPC   C1A12003  32.283  23.886   8.719
  690POPC   D2A12004  32.345  23.663   8.324
  690POPC   C3A12005  32.175  23.805   7.913
  690POPC   C4A12006  32.257  23.784   7.464
  690POPC   C1B12007  31.942  23.507   8.669
  690POPC   C2B12008  31.939  23.355   8.190
  690POPC   C3B12009  31.886  23.407   7.718
  690POPC   C4B12010  31.729  23.813   7.529
  691POPC   NC312011  27.888  30.259   9.654
  691POPC   PO412012  27.533  29.652   9.396
  691POPC   GL112013  27.781  29.776   9.032
  691POPC   GL212014  27.936  30.099   9.160
  691POPC   C1A12015  27.928  29.466   8.712
  691POPC   D2A12016  27.743  29.438   8.296
  691POPC   C3A12017  27.547  29.796   8.098
  691POPC   C4A12018  27.134  29.817   7.887
  691POPC   C1B12019  27.828  30.178   8.728
  691POPC   C2B12020  27.750  30.268   8.287
  691POPC   C3B12021  27.925  30.142   7.910
  691POPC   C4B12022  27.956  30.165   7.475
  692POPC   NC312023  23.116  44.525   9.444
  692POPC   PO412024  22.458  44.734   9.531
  692POPC   GL112025  22.620  44.575   9.104
  692POPC   GL212026  22.979  44.508   8.971
  692POPC   C1A12027  22.600  44.474   8.656
  692POPC   D2A12028  22.996  44.461   8.388
  692POPC   C3A12029  22.835  44.573   7.996
  692POPC   C4A12030  22.801  44.753   7.554
  692POPC   C1B12031  22.941  44.845   8.693
  692POPC   C2B12032  23.053  44.997   8.307
  692POPC   C3B12033  22.968   0.070   7.899
  692POPC   C4B12034  23.286  44.982   7.593
  693POPC   NC312035  33.254  30.996   9.500
  693POPC   PO412036  32.739  30.566   9.409
  693POPC   GL112037  32.941  30.858   9.103
  693POPC   GL212038  33.234  30.670   9.062
  693POPC   C1A12039  33.035  30.829   8.631
  693POPC   D2A12040  32.743  30.758   8.304
  693POPC   C3A12041  32.781  30.976   7.911
  693POPC   C4A12042  33.095  30.981   7.585
  693POPC   C1B12043  33.302  30.335   8.755
  693POPC   C2B12044  33.116  30.379   8.363
  693POPC   C3B12045  33.219  30.719   8.088
  693POPC   C4B12046  33.363  30.569   7.715
  694POPC   NC312047  37.960  20.424   9.665
  694POPC   PO412048  37.349  20.490   9.464
  694POPC   GL112049  37.642  20.767   9.267
  694POPC   GL212050  38.015  20.813   9.311
  694POPC   C1A12051  37.592  20.750   8.841
  694POPC   D2A12052  37.395  20.831   8.485
  694POPC   C3A12053  37.330  20.554   8.151
  694POPC   C4A12054  37.418  20.663   7.768
  694POPC   C1B12055  38.071  20.651   8.902
  694POPC   C2B12056  37.950  20.732   8.484
  694POPC   C3B12057  37.769  20.773   8.129
  694POPC   C4B12058  37.932  20.676   7.762
  695POPC   NC312059  29.739   3.745   9.296
  695POPC   PO412060  29.938   4.390   9.500
  695POPC   GL112061  29.951   4.193   9.127
  695POPC   GL212062  29.618   4.194   9.099
  695POPC   C1A12063  30.181   4.189   8.763
  695POPC   D2A12064  30.038   4.212   8.352
  695POPC   C3A12065  30.067   4.452   7.997
  695POPC   C4A12066  30.135   4.214   7.640
  695POPC   C1B12067  29.656   4.142   8.681
  695POPC   C2B12068  29.725   3.801   8.371
  695POPC   C3B12069  29.837   3.929   7.972
  695POPC   C4B12070  29.663   4.025   7.613
  696POPC   NC312071  43.973   0.161   9.394
  696POPC   PO412072  43.555   0.755   9.476
  696POPC   GL112073  43.727   0.546   9.130
  696POPC   GL212074  44.094   0.550   9.092
  696POPC   C1A12075  43.818   0.479   8.694
  696POPC   D2A12076  44.014   0.705   8.383
  696POPC   C3A12077  43.725   0.560   8.053
  696POPC   C4A12078  43.674   0.160   7.821
  696POPC   C1B12079  44.209   0.159   8.804
  696POPC   C2B12080  44.143   0.215   8.342
  696POPC   C3B12081  44.151   0.340   7.906
  696POPC   C4B12082  44.037   0.288   7.472
  697POPC   NC312083  39.441   4.170   9.579
  697POPC   PO412084  38.811   4.089   9.636
  697POPC   GL112085  39.113   4.097   9.215
  697POPC   GL212086  39.328   4.427   9.147
  697POPC   C1A12087  39.310   4.103   8.797
  697POPC   D2A12088  39.147   4.158   8.444
  697POPC   C3A12089  39.279   4.053   8.062
  697POPC   C4A12090  39.284   4.252   7.692
  697POPC   C1B12091  39.654   4.501   8.795
  697POPC   C2B12092  39.734   4.806   8.443
  697POPC   C3B12093  39.660   4.585   8.034
  697POPC   C4B12094  39.468   4.711   7.622
  698POPC   NC312095  21.784   8.388   9.624
  698POPC   PO412096  22.445   8.297   9.587
  698POPC   GL112097  22.326   8.249   9.157
  698POPC   GL212098  21.962   8.235   9.172
  698POPC   C1A12099  22.372   8.038   8.748
  698POPC   D2A12100  22.568   8.063   8.327
  698POPC   C3A12101  22.263   8.050   7.950
  698POPC   C4A12102  22.164   8.375   7.653
  698POPC   C1B12103  21.855   8.049   8.787
  698POPC   C2B12104  22.023   8.175   8.386
  698POPC   C3B12105  21.811   8.293   7.999
  698POPC   C4B12106  21.757   8.062   7.593
  699POPC   NC312107  14.730  21.741   9.454
  699POPC   PO412108  14.224  22.234   9.570
  699POPC   GL112109  14.490  22.110   9.212
  699POPC   GL212110  14.324  21.781   9.160
  699POPC   C1A12111  14.727  22.021   8.806
  699POPC   D2A12112  14.532  22.085   8.372
  699POPC   C3A12113  14.783  22.123   7.979
  699POPC   C4A12114  14.644  22.307   7.551
  699POPC   C1B12115  14.263  21.793   8.740
  699POPC   C2B12116  14.311  21.601   8.336
  699POPC   C3B12117  14.203  21.748   7.918
  699POPC   C4B12118  14.397  21.873   7.558
  700POPC   NC312119   3.885  14.961   9.378
  700POPC   PO412120   4.486  15.049   9.594
  700POPC   GL112121   4.364  15.118   9.194
  700POPC   GL212122   4.236  14.803   9.012
  700POPC   C1A12123   4.587  15.191   8.839
  700POPC   D2A12124   4.507  14.895   8.520
  700POPC   C3A12125   4.511  15.005   8.101
  700POPC   C4A12126   4.488  15.275   7.768
  700POPC   C1B12127   4.087  15.130   8.720
  700POPC   C2B12128   4.209  15.357   8.330
  700POPC   C3B12129   4.028  15.209   7.947
  700POPC   C4B12130   4.112  14.949   7.602
  701POPC   NC312131   4.122  43.639   9.667
  701POPC   PO412132   4.220  42.888   9.624
  701POPC   GL112133   4.135  43.184   9.293
  701POPC   GL212134   4.433  43.222   9.115
  701POPC   C1A12135   3.984  43.134   8.847
  701POPC   D2A12136   4.045  42.937   8.442
  701POPC   C3A12137   4.191  43.152   8.110
  701POPC   C4A12138   4.018  43.084   7.714
  701POPC   C1B12139   4.460  43.163   8.654
  701POPC   C2B12140   4.615  42.849   8.385
  701POPC   C3B12141   4.674  42.925   7.964
  701POPC   C4B12142   4.628  43.327   7.760
  702POPC   NC312143  16.161  41.052   9.363
  702POPC   PO412144  16.801  40.673   9.469
  702POPC   GL112145  16.523  40.733   9.174
  702POPC   GL212146  16.626  41.089   9.139
  702POPC   C1A12147  16.370  40.743   8.773
  702POPC   D2A12148  16.526  40.881   8.411
  702POPC   C3A12149  16.804  40.584   8.217
  702POPC   C4A12150  16.814  40.480   7.783
  702POPC   C1B12151  16.895  40.943   8.804
  702POPC   C2B12152  17.005  41.034   8.377
  702POPC   C3B12153  16.800  41.012   7.940
  702POPC   C4B12154  16.857  40.942   7.498
  703POPC   NC312155  33.284  16.821   9.435
  703POPC   PO412156  32.932  16.269   9.399
  703POPC   GL112157  33.038  16.589   9.058
  703POPC   GL212158  32.924  16.964   9.087
  703POPC   C1A12159  33.227  16.814   8.719
  703POPC   D2A12160  33.145  16.693   8.343
  703POPC   C3A12161  33.234  16.900   7.989
  703POPC   C4A12162  33.331  16.723   7.597
  703POPC   C1B12163  32.705  16.866   8.751
  703POPC   C2B12164  32.763  17.028   8.366
  703POPC   C3B12165  32.718  16.773   8.069
  703POPC   C4B12166  32.833  16.703   7.690
  704POPC   NC312167  33.771  33.626   9.434
  704POPC   PO412168  33.714  34.262   9.359
  704POPC   GL112169  33.671  33.936   9.036
  704POPC   GL212170  34.000  33.798   9.008
  704POPC   C1A12171  33.487  33.542   8.804
  704POPC   D2A12172  33.307  33.549   8.380
  704POPC   C3A12173  33.630  33.827   8.153
  704POPC   C4A12174  33.794  34.200   7.928
  704POPC   C1B12175  34.251  34.009   8.687
  704POPC   C2B12176  34.170  33.944   8.223
  704POPC   C3B12177  34.029  33.668   7.868
  704POPC   C4B12178  34.086  33.642   7.408
  705POPC   NC312179  40.300  36.018   9.445
  705POPC   PO412180  39.706  36.359   9.494
  705POPC   GL112181  39.779  36.225   9.122
  705POPC   GL212182  40.113  36.265   9.022
  705POPC   C1A12183  39.706  36.050   8.744
  705POPC   D2A12184  39.940  35.923   8.395
  705POPC   C3A12185  39.938  36.044   7.972
  705POPC   C4A12186  40.316  35.786   7.857
  705POPC   C1B12187  40.325  36.559   8.731
  705POPC   C2B12188  40.555  36.475   8.394
  705POPC   C3B12189  40.406  36.270   8.043
  705POPC   C4B12190  40.269  36.230   7.619
  706POPC   NC312191  36.469  19.171   9.496
  706POPC   PO412192  37.024  18.759   9.501
  706POPC   GL112193  36.819  18.916   9.124
  706POPC   GL212194  36.435  18.888   9.077
  706POPC   C1A12195  36.996  19.111   8.739
  706POPC   D2A12196  36.906  18.979   8.311
  706POPC   C3A12197  37.129  19.222   8.045
  706POPC   C4A12198  37.116  19.048   7.661
  706POPC   C1B12199  36.535  18.924   8.667
  706POPC   C2B12200  36.608  19.360   8.472
  706POPC   C3B12201  36.638  19.403   8.033
  706POPC   C4B12202  36.513  19.094   7.699
  707POPC   NC312203   6.835  35.669   9.305
  707POPC   PO412204   6.330  35.233   9.386
  707POPC   GL112205   6.467  35.352   9.017
  707POPC   GL212206   6.775  35.187   9.038
  707POPC   C1A12207   6.562  35.553   8.651
  707POPC   D2A12208   6.447  35.846   8.325
  707POPC   C3A12209   6.628  35.647   7.976
  707POPC   C4A12210   6.893  35.319   7.822
  707POPC   C1B12211   6.715  34.981   8.607
  707POPC   C2B12212   6.539  35.204   8.230
  707POPC   C3B12213   6.390  35.239   7.786
  707POPC   C4B12214   6.231  35.165   7.340
  708POPC   NC312215  38.377  38.058   9.511
  708POPC   PO412216  38.605  38.665   9.730
  708POPC   GL112217  38.483  38.726   9.291
  708POPC   GL212218  38.810  38.786   9.169
  708POPC   C1A12219  38.192  38.558   8.960
  708POPC   D2A12220  38.114  38.501   8.495
  708POPC   C3A12221  38.335  38.219   8.198
  708POPC   C4A12222  38.302  38.228   7.760
  708POPC   C1B12223  38.649  38.653   8.740
  708POPC   C2B12224  38.818  38.471   8.338
  708POPC   C3B12225  38.703  38.541   7.938
  708POPC   C4B12226  38.341  38.797   7.861
  709POPC   NC312227   6.870  29.099   9.359
  709POPC   PO412228   6.514  28.576   9.714
  709POPC   GL112229   6.579  28.459   9.276
  709POPC   GL212230   6.932  28.281   9.171
  709POPC   C1A12231   6.468  28.275   8.892
  709POPC   D2A12232   6.481  28.218   8.461
  709POPC   C3A12233   6.418  28.477   8.085
  709POPC   C4A12234   6.594  28.283   7.731
  709POPC   C1B12235   6.854  28.659   8.912
  709POPC   C2B12236   6.665  28.727   8.570
  709POPC   C3B12237   6.877  28.491   8.299
  709POPC   C4B12238   7.003  28.546   7.917
  710POPC   NC312239   6.071  41.844   9.463
  710POPC   PO412240   5.879  41.157   9.453
  710POPC   GL112241   6.068  41.419   9.147
  710POPC   GL212242   5.807  41.681   9.062
  710POPC   C1A12243   6.224  41.605   8.769
  710POPC   D2A12244   6.184  41.958   8.488
  710POPC   C3A12245   6.298  41.953   8.055
  710POPC   C4A12246   5.980  41.943   7.747
  710POPC   C1B12247   5.713  41.297   8.813
  710POPC   C2B12248   5.784  41.225   8.404
  710POPC   C3B12249   5.716  41.484   8.062
  710POPC   C4B12250   5.936  41.426   7.712
  711POPC   NC312251  17.157  10.736   9.482
  711POPC   PO412252  17.756  10.655   9.781
  711POPC   GL112253  17.731  10.581   9.335
  711POPC   GL212254  17.450  10.383   9.201
  711POPC   C1A12255  17.715  10.739   8.903
  711POPC   D2A12256  17.494  10.742   8.484
  711POPC   C3A12257  17.784  10.707   8.135
  711POPC   C4A12258  17.861  10.782   7.725
  711POPC   C1B12259  17.169  10.537   8.852
  711POPC   C2B12260  17.051  10.419   8.438
  711POPC   C3B12261  17.269  10.272   8.062
  711POPC   C4B12262  17.617  10.341   7.783
  712POPC   NC312263  42.204  23.941   9.493
  712POPC   PO412264  42.201  24.619   9.628
  712POPC   GL112265  42.250  24.671   9.181
  712POPC   GL212266  42.262  24.303   9.132
  712POPC   C1A12267  42.112  24.638   8.729
  712POPC   D2A12268  41.883  24.671   8.315
  712POPC   C3A12269  42.180  24.601   7.971
  712POPC   C4A12270  42.521  24.888   7.816
  712POPC   C1B12271  42.528  24.309   8.777
  712POPC   C2B12272  42.477  24.421   8.360
  712POPC   C3B12273  42.654  24.378   7.956
  712POPC   C4B12274  42.462  24.399   7.551
  713POPC   NC312275  18.146  22.824   9.895
  713POPC   PO412276  18.341  23.305   9.480
  713POPC   GL112277  18.313  23.028   9.154
  713POPC   GL212278  18.028  23.127   9.088
  713POPC   C1A12279  18.224  22.822   8.737
  713POPC   D2A12280  18.192  22.586   8.367
  713POPC   C3A12281  18.399  22.781   8.040
  713POPC   C4A12282  18.462  22.741   7.594
  713POPC   C1B12283  17.933  23.261   8.670
  713POPC   C2B12284  18.079  23.104   8.300
  713POPC   C3B12285  18.014  23.047   7.869
  713POPC   C4B12286  18.079  23.192   7.451
  714POPC   NC312287  22.366  16.063   9.709
  714POPC   PO412288  21.713  15.808   9.805
  714POPC   GL112289  21.877  15.935   9.329
  714POPC   GL212290  22.243  16.005   9.197
  714POPC   C1A12291  21.912  15.926   8.811
  714POPC   D2A12292  22.102  16.121   8.396
  714POPC   C3A12293  22.218  15.882   7.985
  714POPC   C4A12294  22.055  15.820   7.550
  714POPC   C1B12295  22.489  16.211   8.828
  714POPC   C2B12296  22.595  16.404   8.413
  714POPC   C3B12297  22.542  16.270   7.977
  714POPC   C4B12298  22.496  16.088   7.537
  715POPC   NC312299  32.923  43.329   9.399
  715POPC   PO412300  33.293  42.714   9.504
  715POPC   GL112301  33.109  42.916   9.152
  715POPC   GL212302  33.436  43.076   9.154
  715POPC   C1A12303  32.799  43.050   8.809
  715POPC   D2A12304  32.671  42.950   8.388
  715POPC   C3A12305  32.855  43.181   8.047
  715POPC   C4A12306  33.128  42.991   7.756
  715POPC   C1B12307  33.304  43.134   8.736
  715POPC   C2B12308  33.231  43.021   8.336
  715POPC   C3B12309  33.355  43.342   8.037
  715POPC   C4B12310  33.502  43.337   7.618
  716POPC   NC312311  13.318   8.979   9.470
  716POPC   PO412312  12.775   9.291   9.530
  716POPC   GL112313  12.831   8.967   9.196
  716POPC   GL212314  13.068   8.676   9.157
  716POPC   C1A12315  12.747   8.872   8.762
  716POPC   D2A12316  12.535   8.860   8.368
  716POPC   C3A12317  12.771   9.116   8.110
  716POPC   C4A12318  13.102   9.077   7.870
  716POPC   C1B12319  13.213   8.675   8.719
  716POPC   C2B12320  13.023   8.632   8.298
  716POPC   C3B12321  12.809   8.658   7.910
  716POPC   C4B12322  13.032   8.615   7.494
  717POPC   NC312323  11.197  44.797   9.574
  717POPC   PO412324  11.527  44.274   9.842
  717POPC   GL112325  11.540  44.542   9.329
  717POPC   GL212326  11.317  44.783   9.103
  717POPC   C1A12327  11.428  44.422   8.800
  717POPC   D2A12328  11.141  44.434   8.425
  717POPC   C3A12329  11.319  44.636   8.099
  717POPC   C4A12330  11.510  44.476   7.755
  717POPC   C1B12331  11.098  44.846   8.737
  717POPC   C2B12332  10.922  44.937   8.349
  717POPC   C3B12333  11.135   0.101   8.003
  717POPC   C4B12334  11.256  44.892   7.617
  718POPC   NC312335  15.940  35.928   9.443
  718POPC   PO412336  15.481  36.376   9.362
  718POPC   GL112337  15.848  36.338   9.127
  718POPC   GL212338  15.710  36.042   8.996
  718POPC   C1A12339  16.109  36.237   8.754
  718POPC   D2A12340  15.986  36.246   8.314
  718POPC   C3A12341  16.296  36.319   7.993
  718POPC   C4A12342  16.365  36.101   7.623
  718POPC   C1B12343  15.509  35.812   8.662
  718POPC   C2B12344  15.452  35.822   8.218
  718POPC   C3B12345  15.670  36.045   7.923
  718POPC   C4B12346  15.981  35.805   7.698
  719POPC   NC312347  17.006  37.915   9.481
  719POPC   PO412348  16.588  37.488   9.503
  719POPC   GL112349  16.671  37.472   9.103
  719POPC   GL212350  16.656  37.817   9.104
  719POPC   C1A12351  16.836  37.426   8.692
  719POPC   D2A12352  16.951  37.546   8.286
  719POPC   C3A12353  16.760  37.319   7.929
  719POPC   C4A12354  16.816  37.241   7.489
  719POPC   C1B12355  16.735  37.928   8.709
  719POPC   C2B12356  16.587  37.939   8.340
  719POPC   C3B12357  16.748  37.888   7.963
  719POPC   C4B12358  16.729  37.754   7.591
  720POPC   NC312359  25.906  19.136   9.519
  720POPC   PO412360  26.506  19.171   9.337
  720POPC   GL112361  26.209  18.919   9.090
  720POPC   GL212362  25.822  18.800   9.116
  720POPC   C1A12363  26.159  18.987   8.662
  720POPC   D2A12364  25.987  19.110   8.282
  720POPC   C3A12365  26.244  19.053   7.943
  720POPC   C4A12366  26.150  19.239   7.526
  720POPC   C1B12367  25.566  18.874   8.711
  720POPC   C2B12368  25.551  18.867   8.248
  720POPC   C3B12369  25.742  18.978   7.817
  720POPC   C4B12370  25.814  18.915   7.344
  721POPC   NC312371   8.199  13.260   9.536
  721POPC   PO412372   7.984  13.870   9.470
  721POPC   GL112373   8.184  13.886   9.111
  721POPC   GL212374   8.248  13.556   9.109
  721POPC   C1A12375   8.217  13.829   8.683
  721POPC   D2A12376   8.358  13.935   8.319
  721POPC   C3A12377   8.365  13.666   7.964
  721POPC   C4A12378   8.366  13.874   7.599
  721POPC   C1B12379   8.049  13.351   8.757
  721POPC   C2B12380   8.157  13.423   8.358
  721POPC   C3B12381   7.991  13.274   7.987
  721POPC   C4B12382   8.177  13.220   7.632
  722POPC   NC312383  22.692  15.358   9.427
  722POPC   PO412384  23.345  15.460   9.516
  722POPC   GL112385  23.138  15.173   9.174
  722POPC   GL212386  22.799  14.952   9.139
  722POPC   C1A12387  22.971  15.282   8.761
  722POPC   D2A12388  23.011  15.547   8.402
  722POPC   C3A12389  23.116  15.316   8.047
  722POPC   C4A12390  23.079  15.124   7.649
  722POPC   C1B12391  22.513  15.027   8.773
  722POPC   C2B12392  22.543  15.322   8.412
  722POPC   C3B12393  22.622  15.230   7.979
  722POPC   C4B12394  22.592  14.976   7.593
  723POPC   NC312395  40.795   5.443   9.429
  723POPC   PO412396  40.529   4.820   9.427
  723POPC   GL112397  40.766   4.992   9.126
  723POPC   GL212398  41.075   4.811   9.055
  723POPC   C1A12399  40.623   5.215   8.766
  723POPC   D2A12400  40.696   5.395   8.372
  723POPC   C3A12401  40.653   5.116   8.056
  723POPC   C4A12402  40.405   5.062   7.719
  723POPC   C1B12403  41.136   5.151   8.794
  723POPC   C2B12404  41.008   4.996   8.433
  723POPC   C3B12405  41.162   5.013   8.061
  723POPC   C4B12406  41.152   5.110   7.661
  724POPC   NC312407  44.210  28.926   9.329
  724POPC   PO412408  43.847  29.491   9.555
  724POPC   GL112409  43.873  29.322   9.181
  724POPC   GL212410  43.738  29.003   9.096
  724POPC   C1A12411  44.064  29.267   8.802
  724POPC   D2A12412  43.915  29.362   8.453
  724POPC   C3A12413  44.026  29.079   8.148
  724POPC   C4A12414  44.211  28.908   7.802
  724POPC   C1B12415  43.747  28.908   8.659
  724POPC   C2B12416  43.518  29.099   8.317
  724POPC   C3B12417  43.599  29.219   7.890
  724POPC   C4B12418  43.670  28.867   7.623
  725POPC   NC312419  38.574  20.235   9.598
  725POPC   PO412420  38.286  20.741   9.738
  725POPC   GL112421  38.528  20.707   9.355
  725POPC   GL212422  38.412  20.429   9.179
  725POPC   C1A12423  38.647  20.762   8.882
  725POPC   D2A12424  38.433  20.619   8.545
  725POPC   C3A12425  38.503  20.781   8.156
  725POPC   C4A12426  38.808  20.792   7.811
  725POPC   C1B12427  38.254  20.166   8.895
  725POPC   C2B12428  38.120  20.194   8.500
  725POPC   C3B12429  38.138  20.391   8.129
  725POPC   C4B12430  38.431  20.430   7.800
  726POPC   NC312431   6.366  24.881   9.299
  726POPC   PO412432   6.517  24.280   9.492
  726POPC   GL112433   6.757  24.303   9.129
  726POPC   GL212434   6.856  24.648   9.178
  726POPC   C1A12435   6.635  24.227   8.712
  726POPC   D2A12436   6.619  24.462   8.305
  726POPC   C3A12437   6.622  24.088   8.016
  726POPC   C4A12438   6.546  24.085   7.599
  726POPC   C1B12439   6.764  24.734   8.736
  726POPC   C2B12440   6.782  24.972   8.335
  726POPC   C3B12441   6.533  24.928   7.945
  726POPC   C4B12442   6.584  24.544   7.793
  727POPC   NC312443  11.559  18.011   9.515
  727POPC   PO412444  11.377  17.383   9.679
  727POPC   GL112445  11.433  17.529   9.244
  727POPC   GL212446  11.099  17.687   9.177
  727POPC   C1A12447  11.321  17.405   8.801
  727POPC   D2A12448  11.198  17.186   8.411
  727POPC   C3A12449  11.393  17.397   8.039
  727POPC   C4A12450  11.490  17.688   7.688
  727POPC   C1B12451  10.929  17.779   8.743
  727POPC   C2B12452  11.019  17.668   8.350
  727POPC   C3B12453  11.130  17.881   8.012
  727POPC   C4B12454  11.009  17.811   7.631
  728POPC   NC312455   4.053  13.298   9.292
  728POPC   PO412456   4.642  13.478   9.595
  728POPC   GL112457   4.542  13.668   9.200
  728POPC   GL212458   4.209  13.793   9.115
  728POPC   C1A12459   4.631  13.955   8.859
  728POPC   D2A12460   4.382  13.931   8.494
  728POPC   C3A12461   4.574  13.994   8.105
  728POPC   C4A12462   4.306  14.116   7.795
  728POPC   C1B12463   4.327  13.511   8.758
  728POPC   C2B12464   4.165  13.364   8.383
  728POPC   C3B12465   4.247  13.572   8.007
  728POPC   C4B12466   4.023  13.653   7.650
  729POPC   NC312467  23.286  13.512   9.428
  729POPC   PO412468  22.828  13.999   9.517
  729POPC   GL112469  22.920  13.742   9.149
  729POPC   GL212470  22.613  13.590   9.001
  729POPC   C1A12471  23.039  13.551   8.746
  729POPC   D2A12472  23.142  13.652   8.321
  729POPC   C3A12473  22.975  13.457   7.985
  729POPC   C4A12474  23.111  13.279   7.645
  729POPC   C1B12475  22.689  13.974   8.766
  729POPC   C2B12476  22.823  14.090   8.404
  729POPC   C3B12477  22.809  13.931   8.000
  729POPC   C4B12478  22.522  13.944   7.681
  730POPC   NC312479  21.926  31.760   9.524
  730POPC   PO412480  22.139  31.125   9.426
  730POPC   GL112481  22.279  31.435   9.084
  730POPC   GL212482  21.988  31.603   9.050
  730POPC   C1A12483  22.354  31.346   8.668
  730POPC   D2A12484  22.025  31.194   8.413
  730POPC   C3A12485  22.018  31.375   8.018
  730POPC   C4A12486  22.082  31.276   7.623
  730POPC   C1B12487  21.757  31.923   8.828
  730POPC   C2B12488  21.823  32.134   8.435
  730POPC   C3B12489  21.844  31.947   8.042
  730POPC   C4B12490  21.911  31.752   7.676
  731POPC   NC312491   8.571  15.120   9.458
  731POPC   PO412492   9.115  15.426   9.729
  731POPC   GL112493   9.085  15.345   9.249
  731POPC   GL212494   9.077  15.642   9.022
  731POPC   C1A12495   8.964  15.128   8.837
  731POPC   D2A12496   9.100  14.921   8.418
  731POPC   C3A12497   8.947  15.004   7.978
  731POPC   C4A12498   9.185  15.136   7.610
  731POPC   C1B12499   8.675  15.566   8.821
  731POPC   C2B12500   8.716  15.357   8.423
  731POPC   C3B12501   8.652  15.419   8.000
  731POPC   C4B12502   8.742  15.361   7.566
  732POPC   NC312503   5.113  10.082   9.328
  732POPC   PO412504   5.017   9.486   9.609
  732POPC   GL112505   5.079   9.354   9.205
  732POPC   GL212506   5.233   9.614   9.071
  732POPC   C1A12507   4.845   9.430   8.809
  732POPC   D2A12508   4.943   9.341   8.432
  732POPC   C3A12509   5.064   9.633   8.150
  732POPC   C4A12510   5.059   9.682   7.727
  732POPC   C1B12511   5.259   9.726   8.655
  732POPC   C2B12512   5.279  10.054   8.369
  732POPC   C3B12513   5.400   9.982   7.953
  732POPC   C4B12514   5.235  10.137   7.562
  733POPC   NC312515  44.126  16.555   9.499
  733POPC   PO412516  43.784  17.127   9.644
  733POPC   GL112517  43.739  16.970   9.244
  733POPC   GL212518  44.078  16.963   9.173
  733POPC   C1A12519  43.522  17.056   8.863
  733POPC   D2A12520  43.624  17.172   8.417
  733POPC   C3A12521  43.700  16.847   8.107
  733POPC   C4A12522  43.663  16.482   7.831
  733POPC   C1B12523  44.010  16.904   8.703
  733POPC   C2B12524  44.187  16.723   8.282
  733POPC   C3B12525  44.146  16.718   7.791
  733POPC   C4B12526  44.324  16.515   7.397
  734POPC   NC312527  38.129  30.836   9.371
  734POPC   PO412528  37.533  30.772   9.680
  734POPC   GL112529  37.632  30.932   9.276
  734POPC   GL212530  37.671  30.596   9.194
  734POPC   C1A12531  37.797  30.927   8.835
  734POPC   D2A12532  37.903  30.673   8.475
  734POPC   C3A12533  37.803  30.842   8.062
  734POPC   C4A12534  37.920  30.812   7.626
  734POPC   C1B12535  37.494  30.499   8.770
  734POPC   C2B12536  37.546  30.330   8.327
  734POPC   C3B12537  37.577  30.428   7.854
  734POPC   C4B12538  37.629  30.484   7.382
  735POPC   NC312539   0.493  18.884   9.785
  735POPC   PO412540   0.693  19.329   9.270
  735POPC   GL112541   0.357  19.177   9.010
  735POPC   GL212542   0.245  19.476   8.855
  735POPC   C1A12543   0.290  18.879   8.692
  735POPC   D2A12544   0.065  18.747   8.333
  735POPC   C3A12545   0.318  18.694   7.953
  735POPC   C4A12546   0.266  18.618   7.512
  735POPC   C1B12547   0.610  19.285   8.606
  735POPC   C2B12548   0.572  19.232   8.162
  735POPC   C3B12549   0.364  19.506   7.876
  735POPC   C4B12550   0.487  19.465   7.446
  736POPC   NC312551  27.988  33.631   9.602
  736POPC   PO412552  28.459  33.151   9.525
  736POPC   GL112553  28.416  33.507   9.223
  736POPC   GL212554  28.088  33.533   9.121
  736POPC   C1A12555  28.527  33.771   8.873
  736POPC   D2A12556  28.435  33.766   8.452
  736POPC   C3A12557  28.218  34.008   8.169
  736POPC   C4A12558  28.395  33.831   7.794
  736POPC   C1B12559  28.015  33.689   8.731
  736POPC   C2B12560  27.792  33.710   8.360
  736POPC   C3B12561  27.891  33.581   7.951
  736POPC   C4B12562  27.900  33.968   7.758
  737POPC   NC312563   4.779   9.087   9.554
  737POPC   PO412564   5.390   8.838   9.654
  737POPC   GL112565   5.143   8.839   9.290
  737POPC   GL212566   5.105   8.533   9.125
  737POPC   C1A12567   4.956   8.951   8.901
  737POPC   D2A12568   4.802   8.845   8.516
  737POPC   C3A12569   5.050   8.957   8.147
  737POPC   C4A12570   4.885   9.193   7.795
  737POPC   C1B12571   5.407   8.687   8.811
  737POPC   C2B12572   5.489   8.803   8.375
  737POPC   C3B12573   5.362   8.603   7.965
  737POPC   C4B12574   4.931   8.690   7.739
  738POPC   NC312575  26.294  17.285   9.693
  738POPC   PO412576  25.904  17.748   9.459
  738POPC   GL112577  26.023  17.416   9.155
  738POPC   GL212578  26.384  17.319   9.190
  738POPC   C1A12579  25.947  17.495   8.703
  738POPC   D2A12580  26.110  17.809   8.378
  738POPC   C3A12581  26.064  17.619   7.963
  738POPC   C4A12582  25.781  17.681   7.615
  738POPC   C1B12583  26.464  17.502   8.799
  738POPC   C2B12584  26.336  17.351   8.403
  738POPC   C3B12585  26.527  17.326   8.022
  738POPC   C4B12586  26.469  17.565   7.669
  739POPC   NC312587   0.765  27.967   9.496
  739POPC   PO412588   0.260  28.446   9.500
  739POPC   GL112589   0.508  28.286   9.193
  739POPC   GL212590   0.262  28.014   9.198
  739POPC   C1A12591   0.683  28.323   8.803
  739POPC   D2A12592   0.529  28.142   8.451
  739POPC   C3A12593   0.503  28.407   8.115
  739POPC   C4A12594   0.515  28.513   7.689
  739POPC   C1B12595   0.158  28.214   8.804
  739POPC   C2B12596   0.023  28.147   8.343
  739POPC   C3B12597   0.080  28.205   7.899
  739POPC   C4B12598  44.790  28.178   7.568
  740POPC   NC312599   1.467  10.419   9.822
  740POPC   PO412600   2.051  10.549   9.517
  740POPC   GL112601   1.751  10.492   9.212
  740POPC   GL212602   1.597  10.836   9.242
  740POPC   C1A12603   1.993  10.371   8.825
  740POPC   D2A12604   2.306  10.488   8.483
  740POPC   C3A12605   2.088  10.385   8.098
  740POPC   C4A12606   1.993  10.475   7.674
  740POPC   C1B12607   1.804  10.858   8.838
  740POPC   C2B12608   1.669  10.950   8.411
  740POPC   C3B12609   1.764  10.818   8.014
  740POPC   C4B12610   1.566  10.781   7.626
  741POPC   NC312611   6.101  22.867   9.724
  741POPC   PO412612   6.722  22.793   9.379
  741POPC   GL112613   6.583  22.972   9.051
  741POPC   GL212614   6.418  23.305   9.153
  741POPC   C1A12615   6.749  22.866   8.671
  741POPC   D2A12616   6.686  22.925   8.271
  741POPC   C3A12617   6.290  22.963   8.111
  741POPC   C4A12618   6.528  23.099   7.775
  741POPC   C1B12619   6.622  23.384   8.740
  741POPC   C2B12620   6.965  23.323   8.444
  741POPC   C3B12621   6.977  23.226   7.985
  741POPC   C4B12622   6.985  23.362   7.536
  742POPC   NC312623  44.607  43.563   9.629
  742POPC   PO412624  44.929  44.071   9.365
  742POPC   GL112625  44.731  43.710   9.127
  742POPC   GL212626  44.421  43.547   9.014
  742POPC   C1A12627  44.845  43.765   8.711
  742POPC   D2A12628  44.891  44.113   8.423
  742POPC   C3A12629  44.723  44.065   7.988
  742POPC   C4A12630  44.562  43.731   7.745
  742POPC   C1B12631  44.340  43.870   8.687
  742POPC   C2B12632  44.327  43.851   8.229
  742POPC   C3B12633  44.196  44.062   7.844
  742POPC   C4B12634  44.200  43.906   7.395
  743POPC   NC312635   8.724  20.880   9.442
  743POPC   PO412636   9.262  20.480   9.420
  743POPC   GL112637   9.118  20.778   9.147
  743POPC   GL212638   8.842  20.559   9.057
  743POPC   C1A12639   9.159  20.809   8.739
  743POPC   D2A12640   9.067  20.450   8.516
  743POPC   C3A12641   9.007  20.506   8.105
  743POPC   C4A12642   9.020  20.527   7.672
  743POPC   C1B12643   8.633  20.676   8.698
  743POPC   C2B12644   8.533  20.453   8.314
  743POPC   C3B12645   8.544  20.583   7.889
  743POPC   C4B12646   8.554  20.490   7.451
  744POPC   NC312647  33.452  10.980   9.540
  744POPC   PO412648  32.801  11.316   9.551
  744POPC   GL112649  32.750  11.249   9.120
  744POPC   GL212650  33.104  11.130   9.164
  744POPC   C1A12651  32.678  11.423   8.675
  744POPC   D2A12652  32.902  11.180   8.387
  744POPC   C3A12653  32.780  11.143   7.996
  744POPC   C4A12654  33.049  11.250   7.698
  744POPC   C1B12655  33.047  10.915   8.796
  744POPC   C2B12656  33.299  10.817   8.439
  744POPC   C3B12657  33.249  10.919   8.034
  744POPC   C4B12658  33.085  10.743   7.692
  745POPC   NC312659  40.115  27.895   9.486
  745POPC   PO412660  40.249  27.230   9.395
  745POPC   GL112661  40.236  27.561   9.099
  745POPC   GL212662  39.883  27.711   9.068
  745POPC   C1A12663  40.221  27.524   8.658
  745POPC   D2A12664  40.296  27.399   8.233
  745POPC   C3A12665  40.160  27.638   7.953
  745POPC   C4A12666  39.831  27.733   7.725
  745POPC   C1B12667  39.777  27.334   8.834
  745POPC   C2B12668  39.767  27.431   8.383
  745POPC   C3B12669  39.747  27.274   7.971
  745POPC   C4B12670  39.750  27.227   7.518
  746POPC   NC312671  38.825   1.773   9.550
  746POPC   PO412672  39.602   2.037   9.525
  746POPC   GL112673  39.462   1.914   9.136
  746POPC   GL212674  39.131   2.028   9.209
  746POPC   C1A12675  39.287   1.778   8.728
  746POPC   D2A12676  39.247   1.620   8.289
  746POPC   C3A12677  39.465   1.824   7.921
  746POPC   C4A12678  39.338   1.806   7.477
  746POPC   C1B12679  38.953   2.205   8.862
  746POPC   C2B12680  38.772   2.173   8.451
  746POPC   C3B12681  38.869   2.301   8.036
  746POPC   C4B12682  39.149   2.238   7.679
  747POPC   NC312683  21.290  15.534   9.864
  747POPC   PO412684  21.595  14.968   9.775
  747POPC   GL112685  21.537  15.027   9.266
  747POPC   GL212686  21.282  14.934   9.191
  747POPC   C1A12687  21.558  15.253   8.839
  747POPC   D2A12688  21.624  15.309   8.377
  747POPC   C3A12689  21.395  15.434   8.018
  747POPC   C4A12690  21.543  15.210   7.681
  747POPC   C1B12691  21.536  14.763   8.850
  747POPC   C2B12692  21.391  14.857   8.466
  747POPC   C3B12693  21.347  14.909   8.045
  747POPC   C4B12694  21.200  14.801   7.632
  748POPC   NC312695   1.370  40.608   9.491
  748POPC   PO412696   1.330  39.890   9.534
  748POPC   GL112697   1.127  39.787   9.193
  748POPC   GL212698   1.134  40.148   9.088
  748POPC   C1A12699   1.026  39.729   8.783
  748POPC   D2A12700   0.929  39.699   8.378
  748POPC   C3A12701   1.227  39.858   8.126
  748POPC   C4A12702   1.214  39.770   7.713
  748POPC   C1B12703   0.915  40.271   8.694
  748POPC   C2B12704   0.899  40.277   8.227
  748POPC   C3B12705   1.050  40.308   7.801
  748POPC   C4B12706   0.923  40.456   7.382
  749POPC   NC312707  42.789  23.504   9.459
  749POPC   PO412708  42.162  23.509   9.647
  749POPC   GL112709  42.140  23.548   9.178
  749POPC   GL212710  42.494  23.592   9.032
  749POPC   C1A12711  42.120  23.864   8.832
  749POPC   D2A12712  42.397  23.916   8.496
  749POPC   C3A12713  42.287  24.016   8.081
  749POPC   C4A12714  42.379  23.837   7.706
  749POPC   C1B12715  42.369  23.428   8.608
  749POPC   C2B12716  42.454  23.519   8.151
  749POPC   C3B12717  42.408  23.313   7.735
  749POPC   C4B12718  42.543  23.347   7.305
  750POPC   NC312719   3.251  37.247   9.586
  750POPC   PO412720   3.728  37.676   9.524
  750POPC   GL112721   3.618  37.513   9.163
  750POPC   GL212722   3.279  37.413   9.095
  750POPC   C1A12723   3.700  37.332   8.780
  750POPC   D2A12724   3.543  37.532   8.412
  750POPC   C3A12725   3.482  37.344   8.009
  750POPC   C4A12726   3.673  37.298   7.597
  750POPC   C1B12727   3.284  37.811   8.833
  750POPC   C2B12728   3.308  37.989   8.405
  750POPC   C3B12729   3.270  37.829   7.975
  750POPC   C4B12730   3.118  37.900   7.560
  751POPC   NC312731  22.539  18.296   9.476
  751POPC   PO412732  23.181  17.966   9.581
  751POPC   GL112733  22.983  18.208   9.205
  751POPC   GL212734  22.953  18.578   9.199
  751POPC   C1A12735  22.922  18.073   8.779
  751POPC   D2A12736  22.647  18.177   8.452
  751POPC   C3A12737  22.848  18.093   8.081
  751POPC   C4A12738  22.767  17.950   7.680
  751POPC   C1B12739  22.911  18.581   8.795
  751POPC   C2B12740  23.068  18.494   8.430
  751POPC   C3B12741  23.180  18.642   8.072
  751POPC   C4B12742  23.122  18.369   7.744
  752POPC   NC312743  38.624  37.140   9.749
  752POPC   PO412744  38.223  37.703   9.756
  752POPC   GL112745  38.237  37.621   9.257
  752POPC   GL212746  38.570  37.692   9.114
  752POPC   C1A12747  38.209  37.772   8.777
  752POPC   D2A12748  38.202  37.608   8.343
  752POPC   C3A12749  38.400  37.737   7.937
  752POPC   C4A12750  38.345  37.452   7.569
  752POPC   C1B12751  38.729  37.597   8.637
  752POPC   C2B12752  38.790  37.456   8.166
  752POPC   C3B12753  38.838  37.558   7.739
  752POPC   C4B12754  38.776  37.433   7.308
  753POPC   NC312755  10.775  13.782   9.510
  753POPC   PO412756  10.413  14.414   9.554
  753POPC   GL112757  10.660  14.384   9.222
  753POPC   GL212758  11.017  14.372   9.285
  753POPC   C1A12759  10.493  14.411   8.847
  753POPC   D2A12760  10.552  14.620   8.486
  753POPC   C3A12761  10.402  14.493   8.086
  753POPC   C4A12762  10.343  14.125   7.862
  753POPC   C1B12763  11.006  14.307   8.835
  753POPC   C2B12764  10.761  14.122   8.529
  753POPC   C3B12765  10.784  14.148   8.117
  753POPC   C4B12766  10.870  14.276   7.740
  754POPC   NC312767  39.242   2.332   9.625
  754POPC   PO412768  39.130   2.919   9.537
  754POPC   GL112769  39.110   2.594   9.182
  754POPC   GL212770  39.469   2.438   9.167
  754POPC   C1A12771  39.163   2.669   8.710
  754POPC   D2A12772  39.411   2.866   8.353
  754POPC   C3A12773  39.148   3.000   7.987
  754POPC   C4A12774  38.938   2.709   7.727
  754POPC   C1B12775  39.472   2.257   8.751
  754POPC   C2B12776  39.339   2.230   8.304
  754POPC   C3B12777  39.430   2.540   7.957
  754POPC   C4B12778  39.383   2.647   7.503
  755POPC   NC312779  15.738  31.767   9.764
  755POPC   PO412780  15.274  31.295   9.569
  755POPC   GL112781  15.061  31.327   9.124
  755POPC   GL212782  14.908  31.660   9.060
  755POPC   C1A12783  15.073  31.362   8.677
  755POPC   D2A12784  15.168  31.202   8.322
  755POPC   C3A12785  15.348  31.323   7.972
  755POPC   C4A12786  14.949  31.320   7.828
  755POPC   C1B12787  15.115  31.861   8.687
  755POPC   C2B12788  15.316  31.714   8.306
  755POPC   C3B12789  15.244  31.808   7.871
  755POPC   C4B12790  15.426  32.008   7.515
  756POPC   NC312791   1.942  10.032   9.433
  756POPC   PO412792   1.772   9.322   9.326
  756POPC   GL112793   1.964   9.591   9.054
  756POPC   GL212794   2.269   9.677   9.125
  756POPC   C1A12795   1.990   9.763   8.648
  756POPC   D2A12796   1.955   9.546   8.254
  756POPC   C3A12797   2.067   9.868   7.974
  756POPC   C4A12798   1.824   9.916   7.639
  756POPC   C1B12799   2.410   9.512   8.755
  756POPC   C2B12800   2.437   9.699   8.367
  756POPC   C3B12801   2.410   9.493   7.990
  756POPC   C4B12802   2.393   9.686   7.559
  757POPC   NC312803  27.635  24.594   9.546
  757POPC   PO412804  28.096  24.230   9.469
  757POPC   GL112805  27.826  24.409   9.112
  757POPC   GL212806  27.430  24.323   9.165
  757POPC   C1A12807  27.558  24.640   8.802
  757POPC   D2A12808  27.508  24.480   8.394
  757POPC   C3A12809  27.802  24.492   8.053
  757POPC   C4A12810  27.597  24.511   7.647
  757POPC   C1B12811  27.540  24.117   8.769
  757POPC   C2B12812  27.521  23.978   8.322
  757POPC   C3B12813  27.479  24.112   7.913
  757POPC   C4B12814  27.386  24.026   7.469
  758POPC   NC312815  40.222  28.657   9.406
  758POPC   PO412816  39.723  28.156   9.532
  758POPC   GL112817  39.961  28.250   9.169
  758POPC   GL212818  39.798  28.505   9.106
  758POPC   C1A12819  40.163  28.085   8.793
  758POPC   D2A12820  39.940  27.900   8.421
  758POPC   C3A12821  39.861  28.124   8.063
  758POPC   C4A12822  40.202  28.120   7.814
  758POPC   C1B12823  39.988  28.587   8.753
  758POPC   C2B12824  39.798  28.552   8.378
  758POPC   C3B12825  39.982  28.632   7.991
  758POPC   C4B12826  40.271  28.595   7.669
  759POPC   NC312827  23.079  36.172   9.597
  759POPC   PO412828  22.677  35.733   9.378
  759POPC   GL112829  22.874  36.083   9.138
  759POPC   GL212830  23.246  36.042   9.133
  759POPC   C1A12831  22.943  36.004   8.718
  759POPC   D2A12832  22.762  35.966   8.345
  759POPC   C3A12833  22.992  36.004   7.981
  759POPC   C4A12834  22.884  35.687   7.694
  759POPC   C1B12835  23.326  36.329   8.808
  759POPC   C2B12836  23.226  36.279   8.378
  759POPC   C3B12837  23.300  36.528   8.016
  759POPC   C4B12838  23.211  36.473   7.577
  760POPC   NC312839   5.416  36.713   9.591
  760POPC   PO412840   4.958  37.141   9.390
  760POPC   GL112841   5.213  37.123   9.050
  760POPC   GL212842   5.220  36.782   9.089
  760POPC   C1A12843   5.084  37.302   8.640
  760POPC   D2A12844   5.018  37.289   8.185
  760POPC   C3A12845   4.816  36.966   7.973
  760POPC   C4A12846   4.913  37.017   7.566
  760POPC   C1B12847   5.020  36.787   8.674
  760POPC   C2B12848   5.192  36.758   8.245
  760POPC   C3B12849   5.158  36.621   7.803
  760POPC   C4B12850   5.050  36.529   7.347
  761POPC   NC312851  18.391   8.719   9.453
  761POPC   PO412852  18.045   9.308   9.497
  761POPC   GL112853  18.205   9.084   9.130
  761POPC   GL212854  18.531   9.171   8.998
  761POPC   C1A12855  18.177   8.929   8.695
  761POPC   D2A12856  18.439   9.182   8.414
  761POPC   C3A12857  18.475   9.178   7.945
  761POPC   C4A12858  18.457   9.306   7.487
  761POPC   C1B12859  18.668   8.780   8.824
  761POPC   C2B12860  18.511   8.599   8.448
  761POPC   C3B12861  18.550   8.654   8.035
  761POPC   C4B12862  18.282   8.614   7.716
  762POPC   NC312863  21.661  13.948   9.478
  762POPC   PO412864  21.154  13.468   9.517
  762POPC   GL112865  21.350  13.576   9.142
  762POPC   GL212866  21.241  13.915   9.161
  762POPC   C1A12867  21.150  13.513   8.722
  762POPC   D2A12868  21.331  13.334   8.378
  762POPC   C3A12869  21.144  13.404   8.001
  762POPC   C4A12870  21.361  13.269   7.680
  762POPC   C1B12871  21.366  13.956   8.740
  762POPC   C2B12872  21.367  13.825   8.308
  762POPC   C3B12873  21.265  13.885   7.873
  762POPC   C4B12874  21.195  13.847   7.449
  763POPC   NC312875  31.214  33.189   9.500
  763POPC   PO412876  31.591  32.628   9.471
  763POPC   GL112877  31.648  33.049   9.226
  763POPC   GL212878  31.333  33.045   9.039
  763POPC   C1A12879  31.668  33.324   8.819
  763POPC   D2A12880  31.636  33.061   8.458
  763POPC   C3A12881  31.555  33.215   8.056
  763POPC   C4A12882  31.594  33.064   7.659
  763POPC   C1B12883  31.099  32.852   8.721
  763POPC   C2B12884  31.051  32.709   8.314
  763POPC   C3B12885  31.180  32.887   7.959
  763POPC   C4B12886  31.109  33.217   7.701
  764POPC   NC312887  38.719  40.272   9.621
  764POPC   PO412888  38.179  39.793   9.494
  764POPC   GL112889  38.378  40.130   9.214
  764POPC   GL212890  38.737  40.117   9.148
  764POPC   C1A12891  38.361  40.154   8.763
  764POPC   D2A12892  38.397  39.814   8.443
  764POPC   C3A12893  38.127  39.853   8.095
  764POPC   C4A12894  38.054  39.742   7.676
  764POPC   C1B12895  38.806  39.897   8.777
  764POPC   C2B12896  38.769  40.173   8.438
  764POPC   C3B12897  38.502  40.218   8.094
  764POPC   C4B12898  38.676  40.165   7.713
  765POPC   NC312899  33.279  14.571   9.419
  765POPC   PO412900  32.912  14.052   9.630
  765POPC   GL112901  32.837  14.227   9.194
  765POPC   GL212902  32.647  14.547   9.196
  765POPC   C1A12903  33.016  14.332   8.776
  765POPC   D2A12904  33.221  14.449   8.351
  765POPC   C3A12905  33.096  14.138   8.052
  765POPC   C4A12906  32.785  14.123   7.742
  765POPC   C1B12907  32.770  14.802   8.837
  765POPC   C2B12908  32.758  14.612   8.435
  765POPC   C3B12909  32.875  14.603   8.004
  765POPC   C4B12910  33.280  14.566   7.812
  766POPC   NC312911  13.246  28.286   9.530
  766POPC   PO412912  12.595  28.394   9.524
  766POPC   GL112913  12.849  28.215   9.154
  766POPC   GL212914  13.068  27.937   9.166
  766POPC   C1A12915  12.884  28.175   8.685
  766POPC   D2A12916  12.789  28.486   8.367
  766POPC   C3A12917  12.605  28.387   7.959
  766POPC   C4A12918  12.496  28.751   7.694
  766POPC   C1B12919  13.351  28.233   8.880
  766POPC   C2B12920  13.314  28.435   8.465
  766POPC   C3B12921  13.130  28.256   8.079
  766POPC   C4B12922  13.041  28.502   7.732
  767POPC   NC312923   0.217  42.957   9.922
  767POPC   PO412924   0.352  43.250   9.372
  767POPC   GL112925   0.324  43.078   9.034
  767POPC   GL212926   0.662  43.004   8.977
  767POPC   C1A12927   0.344  43.291   8.663
  767POPC   D2A12928   0.351  43.142   8.256
  767POPC   C3A12929   0.046  43.110   8.009
  767POPC   C4A12930   0.012  43.544   7.917
  767POPC   C1B12931   0.729  42.966   8.539
  767POPC   C2B12932   0.757  42.898   8.102
  767POPC   C3B12933   0.576  43.106   7.776
  767POPC   C4B12934   0.696  42.994   7.351
  768POPC   NC312935  34.214   2.735   9.384
  768POPC   PO412936  33.649   2.987   9.557
  768POPC   GL112937  33.810   2.942   9.155
  768POPC   GL212938  34.122   3.182   9.171
  768POPC   C1A12939  33.821   2.553   8.850
  768POPC   D2A12940  33.751   2.337   8.434
  768POPC   C3A12941  34.011   2.429   8.058
  768POPC   C4A12942  33.742   2.663   7.752
  768POPC   C1B12943  34.097   2.965   8.754
  768POPC   C2B12944  33.926   2.852   8.355
  768POPC   C3B12945  34.118   2.935   7.934
  768POPC   C4B12946  33.912   3.136   7.607
  769POPC   NC312947  35.748  43.557   9.402
  769POPC   PO412948  35.209  44.101   9.601
  769POPC   GL112949  35.264  44.162   9.196
  769POPC   GL212950  34.948  44.155   9.120
  769POPC   C1A12951  35.399  43.953   8.811
  769POPC   D2A12952  35.305  43.501   8.664
  769POPC   C3A12953  35.280  43.408   8.214
  769POPC   C4A12954  35.247  43.493   7.744
  769POPC   C1B12955  34.901  43.864   8.818
  769POPC   C2B12956  35.075  43.885   8.409
  769POPC   C3B12957  35.185  43.928   8.011
  769POPC   C4B12958  34.962  44.100   7.680
  770POPC   NC312959  34.833  18.817   9.584
  770POPC   PO412960  34.305  19.262   9.636
  770POPC   GL112961  34.505  19.185   9.247
  770POPC   GL212962  34.267  19.409   9.126
  770POPC   C1A12963  34.461  19.023   8.788
  770POPC   D2A12964  34.664  19.032   8.354
  770POPC   C3A12965  34.498  18.871   7.995
  770POPC   C4A12966  34.662  19.052   7.697
  770POPC   C1B12967  34.094  19.382   8.750
  770POPC   C2B12968  34.197  19.243   8.331
  770POPC   C3B12969  34.357  19.424   7.943
  770POPC   C4B12970  34.115  19.553   7.596
  771POPC   NC312971  37.172  14.178   9.335
  771POPC   PO412972  36.676  14.694   9.495
  771POPC   GL112973  36.904  14.772   9.095
  771POPC   GL212974  37.134  14.521   8.963
  771POPC   C1A12975  36.756  14.679   8.675
  771POPC   D2A12976  36.793  14.312   8.405
  771POPC   C3A12977  36.770  14.466   7.993
  771POPC   C4A12978  36.619  14.740   7.696
  771POPC   C1B12979  37.226  14.168   8.658
  771POPC   C2B12980  37.143  13.908   8.284
  771POPC   C3B12981  36.913  13.993   7.901
  771POPC   C4B12982  37.047  14.082   7.446
  772POPC   NC312983   0.104  41.471   9.591
  772POPC   PO412984  44.457  41.720   9.594
  772POPC   GL112985  44.680  41.755   9.236
  772POPC   GL212986  44.737  41.397   9.228
  772POPC   C1A12987  44.568  41.672   8.794
  772POPC   D2A12988  44.797  41.819   8.437
  772POPC   C3A12989  44.596  41.848   8.056
  772POPC   C4A12990  44.625  41.642   7.676
  772POPC   C1B12991  44.798  41.179   8.849
  772POPC   C2B12992  44.652  41.261   8.458
  772POPC   C3B12993  44.844  41.319   8.100
  772POPC   C4B12994  44.741  41.137   7.762
  773POPC   NC312995  11.200  30.193   9.483
  773POPC   PO412996  11.093  30.865   9.390
  773POPC   GL112997  11.503  30.792   9.172
  773POPC   GL212998  11.562  30.414   9.147
  773POPC   C1A12999  11.674  30.745   8.763
  773POPC   D2A13000  11.597  30.489   8.382
  773POPC   C3A13001  11.679  30.653   7.945
  773POPC   C4A13002  11.703  30.518   7.474
  773POPC   C1B13003  11.224  30.467   8.815
  773POPC   C2B13004  11.023  30.689   8.458
  773POPC   C3B13005  10.975  30.569   8.028
  773POPC   C4B13006  11.239  30.590   7.650
  774POPC   NC313007  41.712  23.404   9.602
  774POPC   PO413008  41.675  24.017   9.517
  774POPC   GL113009  41.705  23.838   9.132
  774POPC   GL213010  41.580  23.514   9.108
  774POPC   C1A13011  41.573  23.862   8.689
  774POPC   D2A13012  41.320  23.889   8.317
  774POPC   C3A13013  41.529  23.746   7.996
  774POPC   C4A13014  41.442  23.356   7.786
  774POPC   C1B13015  41.856  23.437   8.733
  774POPC   C2B13016  41.966  23.679   8.346
  774POPC   C3B13017  41.986  23.545   7.922
  774POPC   C4B13018  41.913  23.174   7.671
  775POPC   NC313019  31.903  17.573   9.833
  775POPC   PO413020  31.432  17.606   9.430
  775POPC   GL113021  31.539  17.489   9.017
  775POPC   GL213022  31.719  17.785   9.042
  775POPC   C1A13023  31.626  17.113   8.737
  775POPC   D2A13024  31.497  17.007   8.315
  775POPC   C3A13025  31.526  17.398   8.075
  775POPC   C4A13026  31.849  17.433   7.778
  775POPC   C1B13027  31.475  17.896   8.715
  775POPC   C2B13028  31.771  17.781   8.384
  775POPC   C3B13029  31.712  17.905   7.967
  775POPC   C4B13030  31.288  17.953   7.774
  776POPC   NC313031  44.031  10.026   9.463
  776POPC   PO413032  43.838  10.648   9.497
  776POPC   GL113033  43.856  10.405   9.175
  776POPC   GL213034  44.243  10.358   9.129
  776POPC   C1A13035  43.769  10.508   8.789
  776POPC   D2A13036  44.002  10.728   8.485
  776POPC   C3A13037  43.866  10.695   8.078
  776POPC   C4A13038  44.007  10.472   7.762
  776POPC   C1B13039  44.062  10.073   8.816
  776POPC   C2B13040  43.916  10.167   8.426
  776POPC   C3B13041  43.932  10.047   8.028
  776POPC   C4B13042  43.615  10.159   7.722
  777POPC   NC313043   9.653  34.751   9.810
  777POPC   PO413044   9.884  34.134   9.628
  777POPC   GL113045   9.698  34.403   9.327
  777POPC   GL213046   9.967  34.523   9.146
  777POPC   C1A13047   9.505  34.470   8.894
  777POPC   D2A13048   9.482  34.594   8.445
  777POPC   C3A13049   9.668  34.507   8.014
  777POPC   C4A13050   9.437  34.498   7.621
  777POPC   C1B13051   9.926  34.724   8.746
  777POPC   C2B13052  10.018  34.740   8.352
  777POPC   C3B13053   9.934  34.969   8.022
  777POPC   C4B13054   9.859  34.814   7.590
  778POPC   NC313055  10.864   5.249   9.581
  778POPC   PO413056  10.228   5.145   9.486
  778POPC   GL113057  10.553   5.150   9.170
  778POPC   GL213058  10.820   4.927   9.184
  778POPC   C1A13059  10.654   5.227   8.743
  778POPC   D2A13060  10.405   5.046   8.428
  778POPC   C3A13061  10.542   5.155   8.042
  778POPC   C4A13062  10.374   5.132   7.656
  778POPC   C1B13063  11.016   4.899   8.776
  778POPC   C2B13064  10.875   4.894   8.376
  778POPC   C3B13065  10.779   4.675   7.997
  778POPC   C4B13066  10.987   4.642   7.588
  779POPC   NC313067  34.581  28.906   9.505
  779POPC   PO413068  34.933  29.379   9.195
  779POPC   GL113069  34.502  29.262   9.096
  779POPC   GL213070  34.329  28.904   9.069
  779POPC   C1A13071  34.367  29.211   8.676
  779POPC   D2A13072  34.500  28.929   8.340
  779POPC   C3A13073  34.592  29.216   8.009
  779POPC   C4A13074  34.739  29.277   7.612
  779POPC   C1B13075  34.050  28.813   8.705
  779POPC   C2B13076  34.083  28.619   8.292
  779POPC   C3B13077  34.246  28.849   7.897
  779POPC   C4B13078  34.668  28.776   7.704
  780POPC   NC313079  43.465  14.258   9.419
  780POPC   PO413080  42.883  14.448   9.495
  780POPC   GL113081  42.864  14.678   9.123
  780POPC   GL213082  43.233  14.620   9.048
  780POPC   C1A13083  42.799  14.585   8.686
  780POPC   D2A13084  42.993  14.367   8.339
  780POPC   C3A13085  43.203  14.556   7.981
  780POPC   C4A13086  43.028  14.426   7.547
  780POPC   C1B13087  43.189  14.191   8.801
  780POPC   C2B13088  43.310  13.853   8.472
  780POPC   C3B13089  43.226  14.001   8.033
  780POPC   C4B13090  43.452  14.229   7.702
  781POPC   NC313091  15.775   6.806   9.587
  781POPC   PO413092  16.418   6.879   9.506
  781POPC   GL113093  16.111   6.626   9.197
  781POPC   GL213094  15.794   6.471   9.105
  781POPC   C1A13095  16.174   6.384   8.802
  781POPC   D2A13096  15.908   6.392   8.421
  781POPC   C3A13097  16.108   6.488   8.031
  781POPC   C4A13098  16.046   6.333   7.593
  781POPC   C1B13099  15.851   6.793   8.776
  781POPC   C2B13100  15.591   6.821   8.427
  781POPC   C3B13101  15.596   6.656   8.041
  781POPC   C4B13102  15.811   6.763   7.693
  782POPC   NC313103  37.667   2.427   9.408
  782POPC   PO413104  37.298   2.946   9.444
  782POPC   GL113105  37.716   2.912   9.215
  782POPC   GL213106  37.511   2.826   8.980
  782POPC   C1A13107  37.985   2.824   8.802
  782POPC   D2A13108  37.980   2.988   8.361
  782POPC   C3A13109  37.941   2.689   8.014
  782POPC   C4A13110  37.742   2.771   7.596
  782POPC   C1B13111  37.572   2.527   8.715
  782POPC   C2B13112  37.542   2.705   8.344
  782POPC   C3B13113  37.429   2.504   7.977
  782POPC   C4B13114  37.736   2.251   7.772
  783POPC   NC313115   8.903  20.168   9.408
  783POPC   PO413116   8.941  19.609   9.792
  783POPC   GL113117   8.938  19.677   9.255
  783POPC   GL213118   8.667  19.842   9.091
  783POPC   C1A13119   9.131  19.858   8.806
  783POPC   D2A13120   9.406  20.078   8.434
  783POPC   C3A13121   9.221  20.061   7.990
  783POPC   C4A13122   9.053  19.677   7.800
  783POPC   C1B13123   8.707  20.146   8.732
  783POPC   C2B13124   8.824  20.036   8.296
  783POPC   C3B13125   8.742  20.106   7.821
  783POPC   C4B13126   8.572  19.991   7.377
  784POPC   NC313127   3.345   5.503   9.863
  784POPC   PO413128   3.662   6.071   9.623
  784POPC   GL113129   3.686   5.968   9.157
  784POPC   GL213130   3.539   5.642   9.083
  784POPC   C1A13131   3.602   5.945   8.687
  784POPC   D2A13132   3.481   5.709   8.318
  784POPC   C3A13133   3.616   5.860   7.904
  784POPC   C4A13134   3.744   5.722   7.492
  784POPC   C1B13135   3.152   5.645   8.768
  784POPC   C2B13136   2.989   5.590   8.348
  784POPC   C3B13137   3.115   5.696   7.926
  784POPC   C4B13138   3.188   6.101   7.744
  785POPC   NC313139  20.798  41.323   9.494
  785POPC   PO413140  21.354  41.742   9.298
  785POPC   GL113141  21.479  41.346   9.114
  785POPC   GL213142  21.233  41.160   9.273
  785POPC   C1A13143  21.487  41.277   8.672
  785POPC   D2A13144  21.392  41.670   8.475
  785POPC   C3A13145  21.535  41.763   8.059
  785POPC   C4A13146  21.528  41.959   7.628
  785POPC   C1B13147  21.011  41.394   8.869
  785POPC   C2B13148  20.916  41.508   8.424
  785POPC   C3B13149  21.187  41.375   8.098
  785POPC   C4B13150  21.289  41.476   7.684
  786POPC   NC313151  34.223  27.960   9.542
  786POPC   PO413152  34.270  28.580   9.474
  786POPC   GL113153  34.498  28.411   9.157
  786POPC   GL213154  34.818  28.299   9.314
  786POPC   C1A13155  34.461  28.525   8.721
  786POPC   D2A13156  34.422  28.257   8.366
  786POPC   C3A13157  34.483  28.407   8.005
  786POPC   C4A13158  34.628  28.243   7.642
  786POPC   C1B13159  34.896  28.314   8.849
  786POPC   C2B13160  34.877  28.533   8.421
  786POPC   C3B13161  35.003  28.406   8.019
  786POPC   C4B13162  35.086  28.495   7.599
  787POPC   NC313163   0.123  16.515   9.436
  787POPC   PO413164  44.494  16.868   9.507
  787POPC   GL113165  44.636  16.919   9.103
  787POPC   GL213166   0.011  16.962   9.118
  787POPC   C1A13167  44.479  16.656   8.752
  787POPC   D2A13168  44.654  16.384   8.420
  787POPC   C3A13169  44.545  16.444   8.011
  787POPC   C4A13170  44.728  16.341   7.649
  787POPC   C1B13171  44.983  16.743   8.723
  787POPC   C2B13172  44.750  16.892   8.382
  787POPC   C3B13173  44.562  16.976   8.023
  787POPC   C4B13174  44.890  16.785   7.824
  788POPC   NC313175  39.706  38.339   9.509
  788POPC   PO413176  40.390  38.667   9.542
  788POPC   GL113177  40.136  38.655   9.166
  788POPC   GL213178  39.822  38.808   9.130
  788POPC   C1A13179  39.993  38.400   8.792
  788POPC   D2A13180  39.750  38.324   8.387
  788POPC   C3A13181  39.827  38.133   7.966
  788POPC   C4A13182  40.002  38.313   7.573
  788POPC   C1B13183  39.976  38.913   8.727
  788POPC   C2B13184  39.811  38.818   8.342
  788POPC   C3B13185  39.787  38.648   7.913
  788POPC   C4B13186  39.821  38.760   7.446
  789POPC   NC313187  44.247   2.446   9.368
  789POPC   PO413188  43.852   2.941   9.382
  789POPC   GL113189  43.760   2.769   9.026
  789POPC   GL213190  44.088   2.681   8.946
  789POPC   C1A13191  43.761   2.827   8.589
  789POPC   D2A13192  43.811   2.624   8.203
  789POPC   C3A13193  43.647   2.874   7.883
  789POPC   C4A13194  43.665   2.974   7.424
  789POPC   C1B13195  44.304   2.336   8.739
  789POPC   C2B13196  44.237   2.191   8.353
  789POPC   C3B13197  44.157   2.311   7.957
  789POPC   C4B13198  44.074   2.653   7.720
  790POPC   NC313199  13.339  40.972   9.722
  790POPC   PO413200  12.681  40.705   9.518
  790POPC   GL113201  12.894  40.977   9.266
  790POPC   GL213202  13.232  40.925   9.226
  790POPC   C1A13203  12.830  41.063   8.835
  790POPC   D2A13204  12.988  41.157   8.430
  790POPC   C3A13205  12.734  40.937   8.157
  790POPC   C4A13206  12.709  40.804   7.732
  790POPC   C1B13207  13.189  40.714   8.816
  790POPC   C2B13208  13.102  40.636   8.359
  790POPC   C3B13209  13.191  40.817   7.948
  790POPC   C4B13210  13.389  41.100   7.680
  791POPC   NC313211   4.548   2.185   9.607
  791POPC   PO413212   4.040   1.825   9.705
  791POPC   GL113213   4.261   1.896   9.284
  791POPC   GL213214   4.297   2.249   9.163
  791POPC   C1A13215   4.200   1.847   8.843
  791POPC   D2A13216   4.437   1.895   8.470
  791POPC   C3A13217   4.294   1.984   8.088
  791POPC   C4A13218   4.428   1.814   7.734
  791POPC   C1B13219   4.340   2.345   8.717
  791POPC   C2B13220   4.417   2.421   8.311
  791POPC   C3B13221   4.439   2.495   7.897
  791POPC   C4B13222   4.331   2.269   7.526
  792POPC   NC313223   4.067  34.782   9.422
  792POPC   PO413224   4.399  34.248   9.561
  792POPC   GL113225   4.335  34.383   9.154
  792POPC   GL213226   4.501  34.734   9.124
  792POPC   C1A13227   4.470  34.432   8.719
  792POPC   D2A13228   4.279  34.655   8.377
  792POPC   C3A13229   4.352  34.490   7.974
  792POPC   C4A13230   4.250  34.571   7.550
  792POPC   C1B13231   4.556  34.984   8.698
  792POPC   C2B13232   4.619  35.000   8.215
  792POPC   C3B13233   4.659  34.832   7.746
  792POPC   C4B13234   4.607  34.753   7.253
  793POPC   NC313235  37.020  13.257   9.550
  793POPC   PO413236  36.797  12.652   9.751
  793POPC   GL113237  36.838  12.723   9.280
  793POPC   GL213238  37.130  12.852   9.138
  793POPC   C1A13239  36.700  12.811   8.856
  793POPC   D2A13240  36.925  12.873   8.504
  793POPC   C3A13241  36.797  12.633   8.152
  793POPC   C4A13242  36.884  12.673   7.738
  793POPC   C1B13243  37.370  13.009   8.782
  793POPC   C2B13244  37.237  13.289   8.433
  793POPC   C3B13245  37.123  13.061   8.082
  793POPC   C4B13246  37.263  13.040   7.680
  794POPC   NC313247  13.142   6.970   9.523
  794POPC   PO413248  12.951   6.316   9.550
  794POPC   GL113249  12.832   6.537   9.179
  794POPC   GL213250  12.980   6.857   9.055
  794POPC   C1A13251  12.751   6.563   8.710
  794POPC   D2A13252  13.018   6.648   8.386
  794POPC   C3A13253  12.859   6.525   7.996
  794POPC   C4A13254  12.488   6.637   7.830
  794POPC   C1B13255  12.689   7.055   8.728
  794POPC   C2B13256  12.569   6.969   8.274
  794POPC   C3B13257  12.812   7.024   7.905
  794POPC   C4B13258  13.279   6.851   7.900
  795POPC   NC313259  39.255  29.617   9.544
  795POPC   PO413260  39.120  28.962   9.526
  795POPC   GL113261  39.349  29.021   9.104
  795POPC   GL213262  39.487  29.360   9.129
  795POPC   C1A13263  39.254  29.026   8.640
  795POPC   D2A13264  39.467  28.948   8.242
  795POPC   C3A13265  39.122  28.844   7.942
  795POPC   C4A13266  39.075  28.963   7.537
  795POPC   C1B13267  39.444  29.514   8.695
  795POPC   C2B13268  39.254  29.437   8.302
  795POPC   C3B13269  39.342  29.307   7.900
  795POPC   C4B13270  39.453  29.319   7.501
  796POPC   NC313271  22.459  36.948   9.510
  796POPC   PO413272  21.822  36.893   9.600
  796POPC   GL113273  21.975  36.975   9.196
  796POPC   GL213274  21.750  36.728   9.108
  796POPC   C1A13275  22.332  37.017   8.885
  796POPC   D2A13276  22.518  36.891   8.520
  796POPC   C3A13277  22.297  36.725   8.159
  796POPC   C4A13278  22.451  36.870   7.747
  796POPC   C1B13279  21.966  36.699   8.717
  796POPC   C2B13280  21.773  36.829   8.349
  796POPC   C3B13281  21.789  36.713   7.957
  796POPC   C4B13282  21.942  36.632   7.555
  797POPC   NC313283  44.906  26.604   9.463
  797POPC   PO413284  44.280  26.864   9.575
  797POPC   GL113285  44.568  26.898   9.213
  797POPC   GL213286  44.799  27.179   9.281
  797POPC   C1A13287  44.703  26.711   8.790
  797POPC   D2A13288  44.408  26.644   8.435
  797POPC   C3A13289  44.526  26.579   8.042
  797POPC   C4A13290  44.648  26.785   7.690
  797POPC   C1B13291   0.056  27.055   8.924
  797POPC   C2B13292   0.142  26.872   8.511
  797POPC   C3B13293  44.964  26.913   8.084
  797POPC   C4B13294   0.002  27.148   7.662
  798POPC   NC313295  40.405  24.530   9.505
  798POPC   PO413296  39.888  24.119   9.377
  798POPC   GL113297  39.837  24.480   9.126
  798POPC   GL213298  40.144  24.680   9.108
  798POPC   C1A13299  39.752  24.427   8.696
  798POPC   D2A13300  39.970  24.546   8.325
  798POPC   C3A13301  39.994  24.333   7.970
  798POPC   C4A13302  40.000  24.612   7.661
  798POPC   C1B13303  40.278  24.550   8.725
  798POPC   C2B13304  40.485  24.620   8.347
  798POPC   C3B13305  40.376  24.790   7.982
  798POPC   C4B13306  40.498  24.714   7.589
  799POPC   NC313307  44.519  26.262   9.652
  799POPC   PO413308  44.520  25.712   9.302
  799POPC   GL113309  44.374  26.121   9.199
  799POPC   GL213310  44.667  26.307   9.143
  799POPC   C1A13311  44.280  26.280   8.825
  799POPC   D2A13312  44.311  25.917   8.558
  799POPC   C3A13313  44.347  25.954   8.123
  799POPC   C4A13314  44.545  26.162   7.764
  799POPC   C1B13315  44.770  26.193   8.718
  799POPC   C2B13316  44.900  26.451   8.361
  799POPC   C3B13317  44.990  26.356   7.942
  799POPC   C4B13318  44.974  25.905   7.817
  800POPC   NC313319  21.028   2.942   9.570
  800POPC   PO413320  21.736   2.916   9.517
  800POPC   GL113321  21.603   2.657   9.205
  800POPC   GL213322  21.345   2.847   9.171
  800POPC   C1A13323  21.704   2.477   8.818
  800POPC   D2A13324  21.544   2.545   8.418
  800POPC   C3A13325  21.797   2.554   8.069
  800POPC   C4A13326  21.480   2.510   7.764
  800POPC   C1B13327  21.262   2.800   8.769
  800POPC   C2B13328  21.278   2.993   8.392
  800POPC   C3B13329  21.448   2.942   8.039
  800POPC   C4B13330  21.214   3.011   7.689
  801POPC   NC313331   8.182  10.558   9.559
  801POPC   PO413332   7.860  10.023   9.196
  801POPC   GL113333   8.021  10.376   9.121
  801POPC   GL213334   8.399  10.311   9.159
  801POPC   C1A13335   8.067  10.508   8.730
  801POPC   D2A13336   8.258  10.430   8.357
  801POPC   C3A13337   7.978  10.521   7.994
  801POPC   C4A13338   8.066  10.692   7.584
  801POPC   C1B13339   8.471  10.715   8.952
  801POPC   C2B13340   8.517  10.863   8.497
  801POPC   C3B13341   8.406  10.778   8.021
  801POPC   C4B13342   8.516  10.330   7.908
  802POPC   NC313343  25.010  38.266   9.219
  802POPC   PO413344  25.239  37.580   9.512
  802POPC   GL113345  25.585  37.549   9.273
  802POPC   GL213346  25.452  37.836   9.107
  802POPC   C1A13347  25.531  37.356   8.859
  802POPC   D2A13348  25.507  37.547   8.465
  802POPC   C3A13349  25.309  37.724   8.141
  802POPC   C4A13350  25.221  37.587   7.749
  802POPC   C1B13351  25.273  37.933   8.701
  802POPC   C2B13352  25.191  38.182   8.330
  802POPC   C3B13353  25.050  38.098   7.903
  802POPC   C4B13354  24.914  38.205   7.506
  803POPC   NC313355  20.183  31.928   9.523
  803POPC   PO413356  20.861  32.004   9.580
  803POPC   GL113357  20.612  31.987   9.215
  803POPC   GL213358  20.711  32.301   9.109
  803POPC   C1A13359  20.428  32.062   8.768
  803POPC   D2A13360  20.441  32.418   8.449
  803POPC   C3A13361  20.467  32.323   7.991
  803POPC   C4A13362  20.216  31.990   7.765
  803POPC   C1B13363  20.911  32.179   8.723
  803POPC   C2B13364  20.902  32.239   8.270
  803POPC   C3B13365  20.928  32.082   7.843
  803POPC   C4B13366  21.149  32.218   7.438
  804POPC   NC313367  36.399  41.867   9.461
  804POPC   PO413368  37.060  41.652   9.480
  804POPC   GL113369  36.986  41.473   9.097
  804POPC   GL213370  36.639  41.543   9.037
  804POPC   C1A13371  37.017  41.483   8.677
  804POPC   D2A13372  36.902  41.646   8.272
  804POPC   C3A13373  36.880  41.441   7.895
  804POPC   C4A13374  36.616  41.348   7.565
  804POPC   C1B13375  36.734  41.893   8.682
  804POPC   C2B13376  36.574  42.063   8.279
  804POPC   C3B13377  36.599  41.874   7.837
  804POPC   C4B13378  36.714  41.828   7.373
  805POPC   NC313379  43.937  39.828   9.576
  805POPC   PO413380  43.763  39.211   9.706
  805POPC   GL113381  43.903  39.213   9.256
  805POPC   GL213382  44.066  39.461   9.067
  805POPC   C1A13383  43.838  39.099   8.791
  805POPC   D2A13384  43.803  38.920   8.330
  805POPC   C3A13385  43.985  39.066   7.880
  805POPC   C4A13386  44.263  38.826   7.550
  805POPC   C1B13387  43.845  39.565   8.643
  805POPC   C2B13388  44.039  39.369   8.327
  805POPC   C3B13389  44.214  39.524   8.023
  805POPC   C4B13390  43.964  39.538   7.677
  806POPC   NC313391  25.975  39.714   9.536
  806POPC   PO413392  26.395  40.195   9.695
  806POPC   GL113393  26.254  40.050   9.253
  806POPC   GL213394  25.904  40.144   9.189
  806POPC   C1A13395  26.168  39.932   8.804
  806POPC   D2A13396  26.095  40.133   8.437
  806POPC   C3A13397  25.989  39.911   8.098
  806POPC   C4A13398  26.127  40.009   7.686
  806POPC   C1B13399  25.704  40.179   8.771
  806POPC   C2B13400  25.625  40.349   8.338
  806POPC   C3B13401  25.578  40.152   7.911
  806POPC   C4B13402  25.678  39.973   7.477
  807POPC   NC313403  37.941  10.199   9.700
  807POPC   PO413404  38.642  10.496   9.653
  807POPC   GL113405  38.576  10.632   9.233
  807POPC   GL213406  38.228  10.748   9.291
  807POPC   C1A13407  38.649  10.463   8.818
  807POPC   D2A13408  38.501  10.626   8.429
  807POPC   C3A13409  38.744  10.542   8.058
  807POPC   C4A13410  38.699  10.323   7.678
  807POPC   C1B13411  38.247  10.842   8.844
  807POPC   C2B13412  38.192  11.036   8.439
  807POPC   C3B13413  38.380  10.965   8.052
  807POPC   C4B13414  38.270  10.579   7.858
  808POPC   NC313415  12.902  37.933   9.492
  808POPC   PO413416  13.145  37.377   9.613
  808POPC   GL113417  12.880  37.489   9.210
  808POPC   GL213418  12.664  37.800   9.088
  808POPC   C1A13419  13.029  37.617   8.808
  808POPC   D2A13420  12.835  37.675   8.415
  808POPC   C3A13421  13.024  37.535   8.069
  808POPC   C4A13422  12.887  37.388   7.685
  808POPC   C1B13423  12.754  38.055   8.740
  808POPC   C2B13424  12.552  38.095   8.370
  808POPC   C3B13425  12.560  37.817   7.993
  808POPC   C4B13426  12.906  37.879   7.695
  809POPC   NC313427  37.108  40.369   9.537
  809POPC   PO413428  37.272  39.757   9.229
  809POPC   GL113429  37.043  40.163   9.081
  809POPC   GL213430  36.709  40.380   9.230
  809POPC   C1A13431  37.041  40.253   8.660
  809POPC   D2A13432  37.078  40.102   8.248
  809POPC   C3A13433  36.733  39.871   8.093
  809POPC   C4A13434  36.916  40.018   7.690
  809POPC   C1B13435  36.632  40.545   8.824
  809POPC   C2B13436  36.555  40.347   8.425
  809POPC   C3B13437  36.660  40.359   8.013
  809POPC   C4B13438  36.728  40.530   7.646
  810POPC   NC313439  24.743  21.488   9.571
  810POPC   PO413440  24.106  21.171   9.509
  810POPC   GL113441  24.460  21.272   9.202
  810POPC   GL213442  24.738  21.019   9.315
  810POPC   C1A13443  24.471  21.613   8.856
  810POPC   D2A13444  24.233  21.683   8.460
  810POPC   C3A13445  24.398  21.603   8.028
  810POPC   C4A13446  24.154  21.276   7.793
  810POPC   C1B13447  24.818  20.882   8.894
  810POPC   C2B13448  24.777  21.064   8.472
  810POPC   C3B13449  24.559  21.088   8.062
  810POPC   C4B13450  24.573  21.061   7.597
  811POPC   NC313451  36.724  38.737   9.584
  811POPC   PO413452  37.181  38.251   9.641
  811POPC   GL113453  37.066  38.463   9.238
  811POPC   GL213454  36.701  38.429   9.181
  811POPC   C1A13455  37.088  38.577   8.790
  811POPC   D2A13456  37.174  38.377   8.393
  811POPC   C3A13457  36.936  38.357   8.003
  811POPC   C4A13458  36.859  38.713   7.701
  811POPC   C1B13459  36.728  38.206   8.810
  811POPC   C2B13460  36.637  38.394   8.428
  811POPC   C3B13461  36.469  38.594   8.087
  811POPC   C4B13462  36.497  38.335   7.731
  812POPC   NC313463  30.421  35.646   9.543
  812POPC   PO413464  30.895  36.221   9.584
  812POPC   GL113465  30.850  36.018   9.176
  812POPC   GL213466  30.537  35.837   9.073
  812POPC   C1A13467  30.978  36.028   8.729
  812POPC   D2A13468  30.747  36.171   8.364
  812POPC   C3A13469  30.977  36.200   8.019
  812POPC   C4A13470  30.924  36.049   7.617
  812POPC   C1B13471  30.514  36.235   8.826
  812POPC   C2B13472  30.607  36.612   8.577
  812POPC   C3B13473  30.533  36.614   8.133
  812POPC   C4B13474  30.614  36.425   7.752
  813POPC   NC313475  42.250   7.973   9.611
  813POPC   PO413476  42.806   8.354   9.683
  813POPC   GL113477  42.581   8.184   9.263
  813POPC   GL213478  42.181   8.219   9.180
  813POPC   C1A13479  42.570   8.314   8.813
  813POPC   D2A13480  42.656   8.451   8.388
  813POPC   C3A13481  42.365   8.352   8.055
  813POPC   C4A13482  42.321   8.509   7.657
  813POPC   C1B13483  42.059   8.285   8.751
  813POPC   C2B13484  42.185   8.019   8.406
  813POPC   C3B13485  41.998   7.926   8.000
  813POPC   C4B13486  41.999   8.116   7.636
  814POPC   NC313487  34.589  23.854   9.575
  814POPC   PO413488  34.192  23.306   9.422
  814POPC   GL113489  34.496  23.571   9.164
  814POPC   GL213490  34.524  23.928   9.083
  814POPC   C1A13491  34.530  23.545   8.735
  814POPC   D2A13492  34.429  23.798   8.413
  814POPC   C3A13493  34.513  23.687   8.002
  814POPC   C4A13494  34.642  23.592   7.617
  814POPC   C1B13495  34.888  23.995   8.817
  814POPC   C2B13496  34.941  23.855   8.385
  814POPC   C3B13497  34.874  24.058   7.989
  814POPC   C4B13498  34.785  24.067   7.531
  815POPC   NC313499  28.879  17.144   9.515
  815POPC   PO413500  29.268  16.585   9.504
  815POPC   GL113501  29.201  16.434   9.093
  815POPC   GL213502  28.862  16.569   9.189
  815POPC   C1A13503  29.326  16.508   8.639
  815POPC   D2A13504  29.506  16.919   8.452
  815POPC   C3A13505  29.554  16.997   7.988
  815POPC   C4A13506  29.310  16.806   7.646
  815POPC   C1B13507  29.019  16.846   8.874
  815POPC   C2B13508  28.993  16.849   8.448
  815POPC   C3B13509  29.152  16.652   8.114
  815POPC   C4B13510  28.871  16.384   7.927
  816POPC   NC313511   4.251  38.966   9.466
  816POPC   PO413512   4.508  39.486   9.749
  816POPC   GL113513   4.467  39.412   9.285
  816POPC   GL213514   4.176  39.567   9.112
  816POPC   C1A13515   4.467  39.216   8.840
  816POPC   D2A13516   4.189  39.241   8.468
  816POPC   C3A13517   4.260  39.301   8.010
  816POPC   C4A13518   4.138  39.057   7.662
  816POPC   C1B13519   4.382  39.702   8.725
  816POPC   C2B13520   4.513  39.627   8.335
  816POPC   C3B13521   4.415  39.803   7.951
  816POPC   C4B13522   4.638  39.631   7.639
  817POPC   NC313523  20.248  20.542   9.405
  817POPC   PO413524  19.668  20.849   9.438
  817POPC   GL113525  19.578  20.509   9.144
  817POPC   GL213526  19.892  20.426   9.083
  817POPC   C1A13527  19.627  20.596   8.699
  817POPC   D2A13528  19.861  20.568   8.304
  817POPC   C3A13529  19.594  20.581   7.935
  817POPC   C4A13530  19.571  20.188   7.723
  817POPC   C1B13531  20.162  20.483   8.739
  817POPC   C2B13532  20.285  20.198   8.440
  817POPC   C3B13533  20.379  20.421   8.120
  817POPC   C4B13534  20.081  20.535   7.821
  818POPC   NC313535   4.765  36.715   9.367
  818POPC   PO413536   4.148  36.970   9.480
  818POPC   GL113537   4.165  37.061   9.090
  818POPC   GL213538   4.511  37.026   9.053
  818POPC   C1A13539   4.177  37.145   8.662
  818POPC   D2A13540   4.541  37.052   8.431
  818POPC   C3A13541   4.358  36.792   8.120
  818POPC   C4A13542   4.319  36.916   7.725
  818POPC   C1B13543   4.353  36.663   8.804
  818POPC   C2B13544   4.617  36.540   8.479
  818POPC   C3B13545   4.715  36.409   8.083
  818POPC   C4B13546   4.654  36.549   7.681
  819POPC   NC313547  27.107  17.676   9.594
  819POPC   PO413548  26.706  17.112   9.569
  819POPC   GL113549  26.910  17.335   9.267
  819POPC   GL213550  26.742  17.681   9.238
  819POPC   C1A13551  26.996  17.341   8.862
  819POPC   D2A13552  26.875  17.452   8.452
  819POPC   C3A13553  27.071  17.188   8.141
  819POPC   C4A13554  26.878  17.050   7.768
  819POPC   C1B13555  26.876  17.858   8.853
  819POPC   C2B13556  26.837  17.977   8.425
  819POPC   C3B13557  27.114  17.799   8.138
  819POPC   C4B13558  26.954  17.552   7.802
  820POPC   NC313559  31.043   5.164   9.528
  820POPC   PO413560  30.386   5.246   9.505
  820POPC   GL113561  30.503   5.016   9.147
  820POPC   GL213562  30.864   5.026   9.025
  820POPC   C1A13563  30.372   5.087   8.738
  820POPC   D2A13564  30.650   5.004   8.387
  820POPC   C3A13565  30.736   5.169   7.980
  820POPC   C4A13566  30.820   4.878   7.633
  820POPC   C1B13567  30.775   5.406   8.711
  820POPC   C2B13568  30.800   5.609   8.261
  820POPC   C3B13569  31.109   5.524   7.913
  820POPC   C4B13570  31.045   5.314   7.543
  821POPC   NC313571   8.666   0.503   9.475
  821POPC   PO413572   9.321   0.315   9.484
  821POPC   GL113573   9.041   0.292   9.127
  821POPC   GL213574   8.975   0.643   9.073
  821POPC   C1A13575   8.762   0.326   8.738
  821POPC   D2A13576   8.611   0.460   8.306
  821POPC   C3A13577   8.884   0.276   7.989
  821POPC   C4A13578   8.906   0.216   7.532
  821POPC   C1B13579   9.013   0.808   8.649
  821POPC   C2B13580   9.008   0.761   8.199
  821POPC   C3B13581   8.767   0.781   7.854
  821POPC   C4B13582   8.808   0.719   7.424
  822POPC   NC313583   4.486  12.408   9.438
  822POPC   PO413584   3.978  11.973   9.543
  822POPC   GL113585   4.179  11.834   9.176
  822POPC   GL213586   4.570  11.842   9.153
  822POPC   C1A13587   3.965  11.958   8.768
  822POPC   D2A13588   3.865  12.184   8.374
  822POPC   C3A13589   4.274  12.297   8.205
  822POPC   C4A13590   4.456  12.191   7.816
  822POPC   C1B13591   4.463  11.830   8.714
  822POPC   C2B13592   4.202  11.751   8.346
  822POPC   C3B13593   4.355  11.687   7.921
  822POPC   C4B13594   4.670  11.789   7.597
  823POPC   NC313595  19.305  38.480   9.438
  823POPC   PO413596  19.990  38.520   9.389
  823POPC   GL113597  19.778  38.216   9.140
  823POPC   GL213598  19.458  38.096   9.118
  823POPC   C1A13599  19.836  38.061   8.745
  823POPC   D2A13600  19.836  37.978   8.325
  823POPC   C3A13601  20.100  38.310   8.149
  823POPC   C4A13602  20.276  38.396   7.756
  823POPC   C1B13603  19.438  38.474   8.816
  823POPC   C2B13604  19.228  38.537   8.408
  823POPC   C3B13605  19.599  38.496   8.144
  823POPC   C4B13606  19.849  38.669   7.827
  824POPC   NC313607  39.463  36.740   9.629
  824POPC   PO413608  39.034  36.166   9.521
  824POPC   GL113609  39.149  36.188   9.134
  824POPC   GL213610  39.316  36.468   9.159
  824POPC   C1A13611  39.202  35.901   8.790
  824POPC   D2A13612  38.933  35.781   8.437
  824POPC   C3A13613  39.139  35.963   8.099
  824POPC   C4A13614  39.437  35.941   7.765
  824POPC   C1B13615  39.313  36.396   8.701
  824POPC   C2B13616  39.516  36.232   8.311
  824POPC   C3B13617  39.532  36.424   7.907
  824POPC   C4B13618  39.266  36.550   7.556
  825POPC   NC313619   1.774  29.645   9.339
  825POPC   PO413620   2.395  29.981   9.433
  825POPC   GL113621   2.112  29.975   9.106
  825POPC   GL213622   1.749  30.087   9.088
  825POPC   C1A13623   2.057  29.722   8.758
  825POPC   D2A13624   1.882  29.855   8.403
  825POPC   C3A13625   2.034  29.682   8.061
  825POPC   C4A13626   1.959  29.675   7.644
  825POPC   C1B13627   1.510  30.064   8.696
  825POPC   C2B13628   1.403  29.943   8.254
  825POPC   C3B13629   1.718  30.082   7.967
  825POPC   C4B13630   2.129  30.147   7.812
  826POPC   NC313631  26.662  14.972   9.528
  826POPC   PO413632  26.990  15.510   9.342
  826POPC   GL113633  26.939  15.112   9.114
  826POPC   GL213634  27.131  15.126   8.822
  826POPC   C1A13635  26.630  14.944   8.782
  826POPC   D2A13636  26.441  15.114   8.370
  826POPC   C3A13637  26.673  14.961   8.008
  826POPC   C4A13638  27.097  15.146   7.867
  826POPC   C1B13639  26.779  15.427   8.718
  826POPC   C2B13640  26.786  15.711   8.392
  826POPC   C3B13641  26.761  15.575   7.971
  826POPC   C4B13642  26.572  15.689   7.605
  827POPC   NC313643  30.958   0.838   9.655
  827POPC   PO413644  30.499   1.218   9.828
  827POPC   GL113645  30.689   1.076   9.305
  827POPC   GL213646  30.496   0.789   9.141
  827POPC   C1A13647  30.955   1.124   8.855
  827POPC   D2A13648  30.925   1.333   8.380
  827POPC   C3A13649  30.647   1.251   7.980
  827POPC   C4A13650  30.462   1.505   7.598
  827POPC   C1B13651  30.487   0.999   8.741
  827POPC   C2B13652  30.696   0.886   8.375
  827POPC   C3B13653  30.860   0.773   7.965
  827POPC   C4B13654  30.690   0.911   7.588
  828POPC   NC313655  35.429  10.367   9.565
  828POPC   PO413656  35.088  10.943   9.482
  828POPC   GL113657  35.355  10.704   9.166
  828POPC   GL213658  35.201  10.350   9.113
  828POPC   C1A13659  35.551  10.852   8.782
  828POPC   D2A13660  35.672  10.703   8.369
  828POPC   C3A13661  35.545  10.788   7.939
  828POPC   C4A13662  35.787  10.826   7.549
  828POPC   C1B13663  35.484  10.346   8.744
  828POPC   C2B13664  35.315  10.343   8.315
  828POPC   C3B13665  35.334  10.260   7.899
  828POPC   C4B13666  35.283   9.930   7.541
  829POPC   NC313667  28.179  26.189   9.653
  829POPC   PO413668  28.570  25.678   9.473
  829POPC   GL113669  28.268  25.897   9.232
  829POPC   GL213670  28.298  26.277   9.175
  829POPC   C1A13671  28.088  25.941   8.841
  829POPC   D2A13672  28.245  26.064   8.476
  829POPC   C3A13673  28.113  25.887   8.139
  829POPC   C4A13674  28.166  25.943   7.734
  829POPC   C1B13675  28.143  26.460   8.809
  829POPC   C2B13676  28.350  26.565   8.435
  829POPC   C3B13677  28.245  26.400   8.043
  829POPC   C4B13678  28.084  26.426   7.601
  830POPC   NC313679  11.228  42.275   9.524
  830POPC   PO413680  10.721  42.680   9.260
  830POPC   GL113681  11.054  42.509   8.999
  830POPC   GL213682  11.374  42.560   9.142
  830POPC   C1A13683  11.112  42.342   8.544
  830POPC   D2A13684  11.357  42.052   8.240
  830POPC   C3A13685  11.219  42.121   7.803
  830POPC   C4A13686  11.011  42.218   7.398
  830POPC   C1B13687  11.545  42.447   8.777
  830POPC   C2B13688  11.568  42.532   8.346
  830POPC   C3B13689  11.661  42.387   7.945
  830POPC   C4B13690  11.541  42.423   7.520
  831POPC   NC313691  12.009  29.896   9.792
  831POPC   PO413692  12.414  29.696   9.301
  831POPC   GL113693  12.195  29.849   8.976
  831POPC   GL213694  11.973  30.095   9.109
  831POPC   C1A13695  12.342  29.799   8.576
  831POPC   D2A13696  12.517  30.162   8.456
  831POPC   C3A13697  12.497  30.130   8.048
  831POPC   C4A13698  12.288  30.012   7.714
  831POPC   C1B13699  11.889  30.042   8.633
  831POPC   C2B13700  12.010  30.174   8.219
  831POPC   C3B13701  11.815  30.141   7.854
  831POPC   C4B13702  11.611  29.755   7.885
  832POPC   NC313703  27.257   8.902   9.677
  832POPC   PO413704  27.657   9.399   9.651
  832POPC   GL113705  27.597   9.070   9.332
  832POPC   GL213706  27.274   9.162   9.237
  832POPC   C1A13707  27.611   8.884   8.906
  832POPC   D2A13708  27.770   8.855   8.470
  832POPC   C3A13709  27.592   8.968   8.054
  832POPC   C4A13710  27.885   9.247   7.831
  832POPC   C1B13711  27.188   9.166   8.816
  832POPC   C2B13712  27.245   8.920   8.457
  832POPC   C3B13713  27.062   9.032   8.086
  832POPC   C4B13714  27.173   9.257   7.730
  833POPC   NC313715  38.395  23.359   9.556
  833POPC   PO413716  38.179  23.949   9.501
  833POPC   GL113717  38.480  23.760   9.198
  833POPC   GL213718  38.800  23.535   9.264
  833POPC   C1A13719  38.499  23.901   8.764
  833POPC   D2A13720  38.462  24.039   8.311
  833POPC   C3A13721  38.288  23.721   8.020
  833POPC   C4A13722  37.983  23.697   7.658
  833POPC   C1B13723  38.786  23.473   8.822
  833POPC   C2B13724  38.882  23.756   8.443
  833POPC   C3B13725  38.821  23.826   7.983
  833POPC   C4B13726  38.698  23.454   7.788
  834POPC   NC313727  36.196  22.734   9.605
  834POPC   PO413728  35.877  23.294   9.342
  834POPC   GL113729  36.092  22.975   9.128
  834POPC   GL213730  36.371  22.777   9.146
  834POPC   C1A13731  36.167  23.107   8.711
  834POPC   D2A13732  36.307  22.926   8.363
  834POPC   C3A13733  36.124  23.028   7.993
  834POPC   C4A13734  36.241  22.842   7.598
  834POPC   C1B13735  36.232  22.611   8.787
  834POPC   C2B13736  36.249  22.382   8.437
  834POPC   C3B13737  36.223  22.514   8.031
  834POPC   C4B13738  36.529  22.443   7.715
  835POPC   NC313739   9.339  37.357   9.538
  835POPC   PO413740   8.936  37.854   9.543
  835POPC   GL113741   9.044  37.632   9.183
  835POPC   GL213742   8.937  37.283   9.212
  835POPC   C1A13743   9.121  37.818   8.801
  835POPC   D2A13744   8.934  38.081   8.467
  835POPC   C3A13745   9.013  37.912   8.034
  835POPC   C4A13746   9.344  37.713   7.768
  835POPC   C1B13747   9.123  37.273   8.805
  835POPC   C2B13748   9.097  37.511   8.398
  835POPC   C3B13749   8.800  37.446   8.081
  835POPC   C4B13750   8.862  37.551   7.690
  836POPC   NC313751   7.399  35.963   9.647
  836POPC   PO413752   7.500  36.601   9.593
  836POPC   GL113753   7.447  36.241   9.224
  836POPC   GL213754   7.087  36.129   9.236
  836POPC   C1A13755   7.336  36.001   8.790
  836POPC   D2A13756   7.165  35.957   8.352
  836POPC   C3A13757   7.477  36.150   8.100
  836POPC   C4A13758   7.670  36.044   7.733
  836POPC   C1B13759   7.053  36.420   8.887
  836POPC   C2B13760   7.187  36.466   8.420
  836POPC   C3B13761   7.090  36.452   7.951
  836POPC   C4B13762   7.214  36.245   7.544
  837POPC   NC313763   8.365  42.863   9.330
  837POPC   PO413764   8.127  42.243   9.471
  837POPC   GL113765   8.293  42.250   9.081
  837POPC   GL213766   8.123  42.565   8.984
  837POPC   C1A13767   8.314  42.003   8.686
  837POPC   D2A13768   8.162  42.141   8.290
  837POPC   C3A13769   8.210  41.960   7.880
  837POPC   C4A13770   8.065  42.228   7.525
  837POPC   C1B13771   8.430  42.497   8.644
  837POPC   C2B13772   8.631  42.365   8.261
  837POPC   C3B13773   8.487  42.384   7.855
  837POPC   C4B13774   8.412  42.581   7.467
  838POPC   NC313775  31.531  40.370   9.705
  838POPC   PO413776  31.124  40.105   9.410
  838POPC   GL113777  31.539  40.084   9.127
  838POPC   GL213778  31.861  40.257   9.275
  838POPC   C1A13779  31.609  39.869   8.683
  838POPC   D2A13780  31.699  39.681   8.244
  838POPC   C3A13781  31.404  39.719   7.885
  838POPC   C4A13782  31.341  39.510   7.462
  838POPC   C1B13783  31.981  40.191   8.809
  838POPC   C2B13784  31.848  40.190   8.341
  838POPC   C3B13785  31.779  40.096   7.899
  838POPC   C4B13786  31.883  40.375   7.515
  839POPC   NC313787  21.736  42.588   9.619
  839POPC   PO413788  22.069  41.983   9.512
  839POPC   GL113789  22.289  42.189   9.189
  839POPC   GL213790  22.022  42.414   9.191
  839POPC   C1A13791  22.211  42.148   8.719
  839POPC   D2A13792  22.080  42.348   8.337
  839POPC   C3A13793  22.317  42.296   7.970
  839POPC   C4A13794  22.292  42.674   7.713
  839POPC   C1B13795  21.762  42.096   8.933
  839POPC   C2B13796  21.682  42.079   8.478
  839POPC   C3B13797  21.674  42.243   8.039
  839POPC   C4B13798  21.900  42.325   7.676
  840POPC   NC313799  42.112  44.141   9.560
  840POPC   PO413800  42.463  43.427   9.532
  840POPC   GL113801  42.315  43.650   9.153
  840POPC   GL213802  42.346  43.998   9.150
  840POPC   C1A13803  42.307  43.727   8.693
  840POPC   D2A13804  42.554  43.539   8.354
  840POPC   C3A13805  42.511  43.767   7.954
  840POPC   C4A13806  42.433  43.765   7.491
  840POPC   C1B13807  42.457  44.227   8.820
  840POPC   C2B13808  42.265  44.218   8.431
  840POPC   C3B13809  42.122  44.115   8.075
  840POPC   C4B13810  42.294  44.188   7.712
  841POPC   NC313811  30.328  44.983   9.812
  841POPC   PO413812  29.883   0.041   9.338
  841POPC   GL113813  30.078  44.714   9.142
  841POPC   GL213814  29.754  44.556   9.165
  841POPC   C1A13815  30.099  44.564   8.727
  841POPC   D2A13816  30.267  44.594   8.319
  841POPC   C3A13817  30.088  44.370   7.951
  841POPC   C4A13818  30.072  44.315   7.475
  841POPC   C1B13819  29.577  44.607   8.773
  841POPC   C2B13820  29.691  44.580   8.357
  841POPC   C3B13821  29.643  44.642   7.911
  841POPC   C4B13822  29.968  44.795   7.636
  842POPC   NC313823  14.099   9.402   9.524
  842POPC   PO413824  14.758   9.660   9.557
  842POPC   GL113825  14.588   9.610   9.162
  842POPC   GL213826  14.263   9.722   9.153
  842POPC   C1A13827  14.462   9.554   8.738
  842POPC   D2A13828  14.536   9.495   8.336
  842POPC   C3A13829  14.350   9.747   8.070
  842POPC   C4A13830  14.282   9.679   7.651
  842POPC   C1B13831  14.080   9.945   8.782
  842POPC   C2B13832  13.924   9.943   8.341
  842POPC   C3B13833  13.970  10.018   7.886
  842POPC   C4B13834  13.970  10.069   7.447
  843POPC   NC313835  18.982   5.437   9.591
  843POPC   PO413836  19.265   6.076   9.551
  843POPC   GL113837  19.268   5.972   9.156
  843POPC   GL213838  19.135   5.646   9.146
  843POPC   C1A13839  19.196   6.019   8.738
  843POPC   D2A13840  18.980   5.919   8.367
  843POPC   C3A13841  19.247   5.929   8.043
  843POPC   C4A13842  19.220   6.067   7.637
  843POPC   C1B13843  18.993   5.522   8.729
  843POPC   C2B13844  18.931   5.430   8.260
  843POPC   C3B13845  18.959   5.468   7.777
  843POPC   C4B13846  19.056   5.443   7.308
  844POPC   NC313847  10.270  33.154   9.542
  844POPC   PO413848  10.844  32.819   9.478
  844POPC   GL113849  10.687  33.022   9.111
  844POPC   GL213850  10.386  33.228   9.076
  844POPC   C1A13851  10.712  33.039   8.657
  844POPC   D2A13852  10.981  33.123   8.318
  844POPC   C3A13853  10.866  32.865   8.032
  844POPC   C4A13854  10.556  32.730   7.864
  844POPC   C1B13855  10.199  33.054   8.716
  844POPC   C2B13856  10.307  32.937   8.277
  844POPC   C3B13857  10.300  33.187   7.887
  844POPC   C4B13858  10.042  33.205   7.501
  845POPC   NC313859   7.109  25.587   9.364
  845POPC   PO413860   7.504  25.175   9.740
  845POPC   GL113861   7.540  25.192   9.272
  845POPC   GL213862   7.573  25.512   9.110
  845POPC   C1A13863   7.672  25.087   8.834
  845POPC   D2A13864   7.564  25.004   8.440
  845POPC   C3A13865   7.673  25.290   8.124
  845POPC   C4A13866   7.587  25.088   7.770
  845POPC   C1B13867   7.333  25.456   8.714
  845POPC   C2B13868   7.188  25.358   8.298
  845POPC   C3B13869   7.272  25.500   7.860
  845POPC   C4B13870   7.197  25.307   7.466
  846POPC   NC313871  39.013   3.364   9.604
  846POPC   PO413872  39.619   3.747   9.526
  846POPC   GL113873  39.442   3.698   9.115
  846POPC   GL213874  39.084   3.588   9.131
  846POPC   C1A13875  39.349   3.616   8.673
  846POPC   D2A13876  39.278   3.350   8.353
  846POPC   C3A13877  39.373   3.550   7.989
  846POPC   C4A13878  39.458   3.773   7.618
  846POPC   C1B13879  38.888   3.824   8.776
  846POPC   C2B13880  38.951   3.737   8.318
  846POPC   C3B13881  38.876   3.466   8.027
  846POPC   C4B13882  39.047   3.397   7.631
  847POPC   NC313883  33.311  44.251   9.378
  847POPC   PO413884  32.822  43.781   9.440
  847POPC   GL113885  33.007  43.925   9.092
  847POPC   GL213886  32.823  44.250   9.136
  847POPC   C1A13887  33.023  43.692   8.689
  847POPC   D2A13888  32.879  43.839   8.279
  847POPC   C3A13889  33.129  43.795   7.901
  847POPC   C4A13890  33.334  43.802   7.500
  847POPC   C1B13891  32.768  44.157   8.703
  847POPC   C2B13892  32.553  44.256   8.330
  847POPC   C3B13893  32.695  44.181   7.923
  847POPC   C4B13894  32.632  43.744   7.826
  848POPC   NC313895  20.310  30.167   9.514
  848POPC   PO413896  20.993  29.924   9.477
  848POPC   GL113897  20.614  29.849   9.223
  848POPC   GL213898  20.497  30.123   9.014
  848POPC   C1A13899  20.418  29.636   8.878
  848POPC   D2A13900  20.336  29.600   8.407
  848POPC   C3A13901  20.745  29.600   8.178
  848POPC   C4A13902  20.895  29.630   7.737
  848POPC   C1B13903  20.217  30.058   8.669
  848POPC   C2B13904  20.388  30.088   8.281
  848POPC   C3B13905  20.679  30.124   7.971
  848POPC   C4B13906  20.324  30.331   7.799
  849POPC   NC313907  33.477   7.452   9.729
  849POPC   PO413908  32.761   7.524   9.715
  849POPC   GL113909  32.788   7.439   9.193
  849POPC   GL213910  32.966   7.185   9.008
  849POPC   C1A13911  33.046   7.642   8.829
  849POPC   D2A13912  33.166   7.816   8.431
  849POPC   C3A13913  33.256   7.726   8.013
  849POPC   C4A13914  32.869   7.699   7.864
  849POPC   C1B13915  33.035   7.207   8.541
  849POPC   C2B13916  33.060   7.253   8.086
  849POPC   C3B13917  32.836   7.189   7.687
  849POPC   C4B13918  32.943   7.104   7.231
  850POPC   NC313919  28.218  18.380   9.620
  850POPC   PO413920  28.152  17.727   9.325
  850POPC   GL113921  28.249  18.144   9.157
  850POPC   GL213922  28.189  18.538   9.158
  850POPC   C1A13923  28.465  18.201   8.776
  850POPC   D2A13924  28.660  18.304   8.382
  850POPC   C3A13925  28.385  18.080   8.103
  850POPC   C4A13926  28.160  18.074   7.715
  850POPC   C1B13927  28.361  18.681   8.810
  850POPC   C2B13928  28.230  18.576   8.409
  850POPC   C3B13929  28.332  18.577   8.007
  850POPC   C4B13930  28.547  18.384   7.735
  851POPC   NC313931  33.856  13.157   9.596
  851POPC   PO413932  34.096  12.550   9.317
  851POPC   GL113933  33.908  12.887   9.070
  851POPC   GL213934  33.654  13.170   9.123
  851POPC   C1A13935  33.977  12.807   8.642
  851POPC   D2A13936  34.102  12.581   8.282
  851POPC   C3A13937  33.943  12.740   7.923
  851POPC   C4A13938  33.683  12.577   7.612
  851POPC   C1B13939  33.482  12.936   8.764
  851POPC   C2B13940  33.576  12.846   8.321
  851POPC   C3B13941  33.427  12.914   7.913
  851POPC   C4B13942  33.410  13.274   7.681
  852POPC   NC313943  26.666  33.050   9.857
  852POPC   PO413944  27.294  33.007   9.589
  852POPC   GL113945  27.011  33.170   9.244
  852POPC   GL213946  26.666  33.104   9.251
  852POPC   C1A13947  27.015  33.209   8.781
  852POPC   D2A13948  27.146  32.999   8.400
  852POPC   C3A13949  26.939  33.088   7.993
  852POPC   C4A13950  26.764  33.161   7.567
  852POPC   C1B13951  26.510  33.262   8.844
  852POPC   C2B13952  26.574  33.183   8.376
  852POPC   C3B13953  26.404  33.046   7.945
  852POPC   C4B13954  26.445  32.732   7.588
  853POPC   NC313955  15.452   1.005   9.471
  853POPC   PO413956  15.254   1.638   9.631
  853POPC   GL113957  15.174   1.356   9.223
  853POPC   GL213958  15.097   0.964   9.086
  853POPC   C1A13959  15.396   1.297   8.829
  853POPC   D2A13960  15.487   1.121   8.452
  853POPC   C3A13961  15.390   1.343   8.085
  853POPC   C4A13962  15.357   1.103   7.726
  853POPC   C1B13963  15.061   0.865   8.605
  853POPC   C2B13964  15.072   0.934   8.133
  853POPC   C3B13965  14.839   1.125   7.737
  853POPC   C4B13966  14.542   1.157   7.378
  854POPC   NC313967  24.539   1.806   9.498
  854POPC   PO413968  23.924   1.733   9.537
  854POPC   GL113969  24.153   1.856   9.179
  854POPC   GL213970  24.251   2.218   9.189
  854POPC   C1A13971  24.385   1.783   8.830
  854POPC   D2A13972  24.221   1.910   8.455
  854POPC   C3A13973  24.442   1.831   8.092
  854POPC   C4A13974  24.646   1.735   7.758
  854POPC   C1B13975  24.409   2.293   8.767
  854POPC   C2B13976  24.672   2.138   8.413
  854POPC   C3B13977  24.694   2.260   7.974
  854POPC   C4B13978  24.540   2.524   7.646
  855POPC   NC313979  32.387  26.336   9.513
  855POPC   PO413980  31.844  25.981   9.443
  855POPC   GL113981  32.087  26.176   9.094
  855POPC   GL213982  32.467  26.149   9.044
  855POPC   C1A13983  31.977  26.242   8.660
  855POPC   D2A13984  32.068  26.264   8.209
  855POPC   C3A13985  32.069  25.905   7.968
  855POPC   C4A13986  32.449  25.728   7.854
  855POPC   C1B13987  32.464  26.165   8.584
  855POPC   C2B13988  32.544  26.146   8.145
  855POPC   C3B13989  32.368  26.279   7.752
  855POPC   C4B13990  32.591  26.404   7.336
  856POPC   NC313991  16.067  21.378   9.352
  856POPC   PO413992  15.495  21.799   9.369
  856POPC   GL113993  15.618  21.488   9.037
  856POPC   GL213994  15.697  21.120   9.057
  856POPC   C1A13995  15.553  21.384   8.603
  856POPC   D2A13996  15.800  21.446   8.241
  856POPC   C3A13997  15.703  21.673   7.871
  856POPC   C4A13998  16.054  21.558   7.582
  856POPC   C1B13999  15.987  21.143   8.710
  856POPC   C2B14000  16.150  21.056   8.304
  856POPC   C3B14001  16.064  21.121   7.840
  856POPC   C4B14002  15.982  21.067   7.359
  857POPC   NC314003   7.743   8.137   9.346
  857POPC   PO414004   7.117   8.013   9.564
  857POPC   GL114005   7.243   8.178   9.124
  857POPC   GL214006   7.414   7.960   8.984
  857POPC   C1A14007   7.337   8.397   8.708
  857POPC   D2A14008   7.608   8.405   8.311
  857POPC   C3A14009   7.380   8.213   7.906
  857POPC   C4A14010   7.243   8.152   7.446
  857POPC   C1B14011   7.697   8.010   8.654
  857POPC   C2B14012   7.696   7.897   8.229
  857POPC   C3B14013   7.366   7.679   8.043
  857POPC   C4B14014   7.194   7.700   7.653
  858POPC   NC314015  35.501  28.735   9.530
  858POPC   PO414016  35.553  28.028   9.577
  858POPC   GL114017  35.615  28.290   9.234
  858POPC   GL214018  35.296  28.432   9.167
  858POPC   C1A14019  35.579  28.210   8.798
  858POPC   D2A14020  35.289  28.231   8.491
  858POPC   C3A14021  35.497  28.276   8.108
  858POPC   C4A14022  35.390  28.126   7.745
  858POPC   C1B14023  35.248  28.653   8.775
  858POPC   C2B14024  35.387  28.724   8.380
  858POPC   C3B14025  35.607  28.785   8.010
  858POPC   C4B14026  35.612  28.592   7.626
  859POPC   NC314027  20.428   0.284   9.608
  859POPC   PO414028  20.948   0.672   9.481
  859POPC   GL114029  20.770   0.485   9.090
  859POPC   GL214030  20.406   0.423   9.108
  859POPC   C1A14031  20.872   0.459   8.643
  859POPC   D2A14032  21.047   0.124   8.372
  859POPC   C3A14033  21.009   0.189   7.934
  859POPC   C4A14034  20.716   0.428   7.693
  859POPC   C1B14035  20.383   0.678   8.736
  859POPC   C2B14036  20.502   0.632   8.314
  859POPC   C3B14037  20.401   0.796   7.935
  859POPC   C4B14038  20.313   0.699   7.512
  860POPC   NC314039  38.318  21.201   9.569
  860POPC   PO414040  38.969  20.949   9.448
  860POPC   GL114041  38.766  21.357   9.291
  860POPC   GL214042  38.581  21.168   9.154
  860POPC   C1A14043  38.563  21.540   8.845
  860POPC   D2A14044  38.400  21.692   8.435
  860POPC   C3A14045  38.442  21.485   8.046
  860POPC   C4A14046  38.651  21.537   7.663
  860POPC   C1B14047  38.255  21.121   8.900
  860POPC   C2B14048  38.281  21.150   8.475
  860POPC   C3B14049  38.131  21.103   8.083
  860POPC   C4B14050  38.360  21.006   7.713
  861POPC   NC314051   5.562  39.801   9.601
  861POPC   PO414052   4.911  40.153   9.599
  861POPC   GL114053   5.190  40.112   9.250
  861POPC   GL214054   4.885  40.260   9.103
  861POPC   C1A14055   5.327  39.962   8.818
  861POPC   D2A14056   5.381  40.109   8.394
  861POPC   C3A14057   5.308  39.928   7.977
  861POPC   C4A14058   5.428  40.122   7.564
  861POPC   C1B14059   4.824  39.933   8.827
  861POPC   C2B14060   4.769  40.059   8.417
  861POPC   C3B14061   4.970  40.338   8.187
  861POPC   C4B14062   4.990  40.289   7.759
  862POPC   NC314063  32.815  33.433   9.584
  862POPC   PO414064  33.189  32.844   9.437
  862POPC   GL114065  33.070  33.160   9.150
  862POPC   GL214066  32.726  33.083   9.128
  862POPC   C1A14067  33.145  33.132   8.704
  862POPC   D2A14068  32.958  32.971   8.334
  862POPC   C3A14069  33.087  33.053   7.941
  862POPC   C4A14070  33.370  32.794   7.736
  862POPC   C1B14071  32.626  33.133   8.691
  862POPC   C2B14072  32.475  33.132   8.245
  862POPC   C3B14073  32.595  33.044   7.836
  862POPC   C4B14074  32.757  33.328   7.506
  863POPC   NC314075  10.977  33.213   9.664
  863POPC   PO414076  11.361  32.611   9.557
  863POPC   GL114077  11.285  32.853   9.160
  863POPC   GL214078  11.185  33.150   9.208
  863POPC   C1A14079  11.283  33.032   8.718
  863POPC   D2A14080  11.571  33.274   8.441
  863POPC   C3A14081  11.429  33.258   8.063
  863POPC   C4A14082  11.253  33.045   7.783
  863POPC   C1B14083  10.977  33.391   8.904
  863POPC   C2B14084  10.947  33.588   8.523
  863POPC   C3B14085  11.009  33.563   8.088
  863POPC   C4B14086  10.829  33.324   7.738
  864POPC   NC314087  18.818   1.890   9.652
  864POPC   PO414088  19.443   2.196   9.441
  864POPC   GL114089  19.076   1.983   9.180
  864POPC   GL214090  18.690   1.934   9.158
  864POPC   C1A14091  19.023   1.714   8.811
  864POPC   D2A14092  19.020   1.582   8.384
  864POPC   C3A14093  19.093   1.856   8.041
  864POPC   C4A14094  19.266   1.753   7.647
  864POPC   C1B14095  18.738   2.134   8.791
  864POPC   C2B14096  18.971   2.212   8.413
  864POPC   C3B14097  19.034   2.360   7.987
  864POPC   C4B14098  19.029   2.215   7.525
  865POPC   NC314099  30.452   1.656   9.651
  865POPC   PO414100  31.001   2.060   9.632
  865POPC   GL114101  30.671   1.937   9.281
  865POPC   GL214102  30.665   1.600   9.187
  865POPC   C1A14103  30.482   2.012   8.870
  865POPC   D2A14104  30.629   2.082   8.449
  865POPC   C3A14105  30.633   2.250   8.040
  865POPC   C4A14106  30.537   2.019   7.651
  865POPC   C1B14107  30.631   1.514   8.768
  865POPC   C2B14108  30.426   1.570   8.404
  865POPC   C3B14109  30.552   1.739   8.061
  865POPC   C4B14110  30.901   1.670   7.794
  866POPC   NC314111   2.317  36.155   9.640
  866POPC   PO414112   1.721  36.092   9.672
  866POPC   GL114113   1.714  36.025   9.226
  866POPC   GL214114   1.907  36.319   9.156
  866POPC   C1A14115   1.888  35.929   8.811
  866POPC   D2A14116   2.193  36.185   8.554
  866POPC   C3A14117   2.158  36.050   8.134
  866POPC   C4A14118   1.800  35.879   7.935
  866POPC   C1B14119   1.703  36.396   8.753
  866POPC   C2B14120   1.692  36.185   8.347
  866POPC   C3B14121   1.797  36.400   7.958
  866POPC   C4B14122   1.595  36.814   7.906
  867POPC   NC314123  41.689   1.504   9.305
  867POPC   PO414124  41.805   2.065   9.553
  867POPC   GL114125  41.572   2.052   9.193
  867POPC   GL214126  41.288   1.866   9.235
  867POPC   C1A14127  41.493   2.277   8.810
  867POPC   D2A14128  41.631   2.106   8.422
  867POPC   C3A14129  41.833   2.280   8.068
  867POPC   C4A14130  41.716   2.189   7.657
  867POPC   C1B14131  41.240   1.800   8.806
  867POPC   C2B14132  41.371   1.661   8.416
  867POPC   C3B14133  41.567   1.776   8.039
  867POPC   C4B14134  41.312   1.875   7.721
  868POPC   NC314135  23.746   0.097   9.600
  868POPC   PO414136  23.568  44.412   9.495
  868POPC   GL114137  23.709  44.695   9.195
  868POPC   GL214138  23.395  44.858   9.135
  868POPC   C1A14139  23.975  44.588   8.815
  868POPC   D2A14140  24.151  44.689   8.393
  868POPC   C3A14141  24.000  44.437   8.039
  868POPC   C4A14142  23.642  44.368   7.727
  868POPC   C1B14143  23.434  44.598   8.750
  868POPC   C2B14144  23.590  44.524   8.336
  868POPC   C3B14145  23.341  44.672   7.992
  868POPC   C4B14146  23.140  44.401   7.632
  869POPC   NC314147  19.640  22.828   9.561
  869POPC   PO414148  20.320  22.833   9.407
  869POPC   GL114149  19.969  23.034   9.170
  869POPC   GL214150  19.611  23.088   9.150
  869POPC   C1A14151  19.938  23.248   8.769
  869POPC   D2A14152  19.869  23.031   8.364
  869POPC   C3A14153  19.835  23.135   7.920
  869POPC   C4A14154  19.735  22.936   7.508
  869POPC   C1B14155  19.428  23.221   8.815
  869POPC   C2B14156  19.483  23.380   8.439
  869POPC   C3B14157  19.442  23.441   8.009
  869POPC   C4B14158  19.425  23.331   7.589
  870POPC   NC314159  36.315  14.311   9.606
  870POPC   PO414160  35.961  14.910   9.799
  870POPC   GL114161  36.084  14.684   9.360
  870POPC   GL214162  35.897  14.358   9.259
  870POPC   C1A14163  36.330  14.453   8.978
  870POPC   D2A14164  36.267  14.211   8.605
  870POPC   C3A14165  36.299  14.328   8.180
  870POPC   C4A14166  36.190  14.473   7.771
  870POPC   C1B14167  35.859  14.634   8.900
  870POPC   C2B14168  35.847  14.532   8.462
  870POPC   C3B14169  35.758  14.446   8.037
  870POPC   C4B14170  35.745  14.728   7.673
  871POPC   NC314171  43.414  26.248   9.486
  871POPC   PO414172  44.076  26.159   9.711
  871POPC   GL114173  43.857  26.108   9.269
  871POPC   GL214174  43.595  25.841   9.190
  871POPC   C1A14175  43.767  26.314   8.851
  871POPC   D2A14176  43.979  26.318   8.431
  871POPC   C3A14177  43.874  26.195   8.033
  871POPC   C4A14178  44.103  26.422   7.752
  871POPC   C1B14179  43.867  25.801   8.823
  871POPC   C2B14180  43.836  25.794   8.368
  871POPC   C3B14181  43.950  25.653   7.951
  871POPC   C4B14182  44.102  25.916   7.667
  872POPC   NC314183  27.277   2.922   9.501
  872POPC   PO414184  27.985   2.733   9.524
  872POPC   GL114185  27.624   2.655   9.251
  872POPC   GL214186  27.824   2.545   9.034
  872POPC   C1A14187  27.429   2.817   8.839
  872POPC   D2A14188  27.542   2.711   8.390
  872POPC   C3A14189  27.415   2.893   7.972
  872POPC   C4A14190  27.761   2.911   7.668
  872POPC   C1B14191  27.836   2.390   8.662
  872POPC   C2B14192  27.790   2.224   8.279
  872POPC   C3B14193  27.706   2.473   7.932
  872POPC   C4B14194  27.660   2.471   7.439
  873POPC   NC314195  44.320  34.755   9.561
  873POPC   PO414196  43.764  34.416   9.804
  873POPC   GL114197  43.765  34.538   9.326
  873POPC   GL214198  43.528  34.348   9.148
  873POPC   C1A14199  43.753  34.652   8.816
  873POPC   D2A14200  43.605  34.664   8.356
  873POPC   C3A14201  43.732  34.857   7.927
  873POPC   C4A14202  43.995  34.874   7.515
  873POPC   C1B14203  43.497  34.167   8.719
  873POPC   C2B14204  43.507  34.111   8.249
  873POPC   C3B14205  43.545  34.256   7.820
  873POPC   C4B14206  43.828  34.404   7.541
  874POPC   NC314207  39.247   4.812   9.453
  874POPC   PO414208  39.506   5.342   9.480
  874POPC   GL114209  39.365   5.238   9.093
  874POPC   GL214210  39.585   4.933   9.076
  874POPC   C1A14211  39.044   5.267   8.755
  874POPC   D2A14212  38.994   5.039   8.331
  874POPC   C3A14213  39.380   5.032   8.113
  874POPC   C4A14214  39.483   5.213   7.756
  874POPC   C1B14215  39.251   4.808   8.801
  874POPC   C2B14216  39.271   4.623   8.435
  874POPC   C3B14217  39.125   4.583   8.047
  874POPC   C4B14218  38.939   4.908   7.821
  875POPC   NC314219   5.826  27.989   9.506
  875POPC   PO414220   5.856  27.259   9.485
  875POPC   GL114221   5.739  27.535   9.186
  875POPC   GL214222   5.994  27.793   9.066
  875POPC   C1A14223   5.726  27.487   8.754
  875POPC   D2A14224   5.811  27.706   8.376
  875POPC   C3A14225   5.938  27.535   7.984
  875POPC   C4A14226   5.750  27.326   7.676
  875POPC   C1B14227   6.233  27.816   8.693
  875POPC   C2B14228   6.300  27.798   8.240
  875POPC   C3B14229   6.161  28.064   7.887
  875POPC   C4B14230   6.216  28.049   7.418
  876POPC   NC314231  22.536  13.627   9.493
  876POPC   PO414232  21.882  13.533   9.465
  876POPC   GL114233  22.083  13.690   9.119
  876POPC   GL214234  21.812  13.846   9.007
  876POPC   C1A14235  22.223  13.633   8.683
  876POPC   D2A14236  22.613  13.604   8.419
  876POPC   C3A14237  22.463  13.505   8.008
  876POPC   C4A14238  22.225  13.270   7.693
  876POPC   C1B14239  21.695  13.558   8.707
  876POPC   C2B14240  21.850  13.537   8.302
  876POPC   C3B14241  21.675  13.594   7.931
  876POPC   C4B14242  21.659  13.722   7.530
  877POPC   NC314243  18.213  29.353   9.458
  877POPC   PO414244  18.476  28.664   9.415
  877POPC   GL114245  18.203  28.813   9.089
  877POPC   GL214246  17.938  28.954   9.276
  877POPC   C1A14247  18.302  28.935   8.653
  877POPC   D2A14248  18.200  28.828   8.213
  877POPC   C3A14249  18.290  29.078   7.845
  877POPC   C4A14250  18.459  29.030   7.392
  877POPC   C1B14251  17.956  29.241   8.888
  877POPC   C2B14252  18.052  29.360   8.468
  877POPC   C3B14253  17.883  29.315   8.061
  877POPC   C4B14254  17.979  29.376   7.601
  878POPC   NC314255  12.523  35.609   9.322
  878POPC   PO414256  11.868  35.290   9.598
  878POPC   GL114257  12.094  35.304   9.223
  878POPC   GL214258  12.071  35.626   9.071
  878POPC   C1A14259  12.186  35.244   8.784
  878POPC   D2A14260  12.241  35.454   8.413
  878POPC   C3A14261  12.018  35.320   8.079
  878POPC   C4A14262  12.091  35.307   7.687
  878POPC   C1B14263  11.799  35.663   8.726
  878POPC   C2B14264  11.802  35.757   8.273
  878POPC   C3B14265  11.680  35.594   7.842
  878POPC   C4B14266  11.772  35.537   7.384
  879POPC   NC314267  36.587  30.194   9.413
  879POPC   PO414268  37.186  29.877   9.553
  879POPC   GL114269  37.008  29.979   9.185
  879POPC   GL214270  37.277  30.191   9.108
  879POPC   C1A14271  36.785  29.742   8.830
  879POPC   D2A14272  36.740  29.604   8.384
  879POPC   C3A14273  36.735  29.873   7.993
  879POPC   C4A14274  36.900  29.849   7.571
  879POPC   C1B14275  37.101  30.140   8.712
  879POPC   C2B14276  37.117  30.010   8.310
  879POPC   C3B14277  37.133  30.188   7.895
  879POPC   C4B14278  37.212  30.232   7.445
  880POPC   NC314279  34.489  27.218   9.478
  880POPC   PO414280  34.690  27.828   9.571
  880POPC   GL114281  34.648  27.848   9.166
  880POPC   GL214282  34.391  27.616   9.170
  880POPC   C1A14283  34.486  27.994   8.792
  880POPC   D2A14284  34.369  27.752   8.420
  880POPC   C3A14285  34.472  27.875   7.993
  880POPC   C4A14286  34.594  27.727   7.567
  880POPC   C1B14287  34.587  27.485   8.803
  880POPC   C2B14288  34.849  27.476   8.437
  880POPC   C3B14289  34.747  27.454   8.031
  880POPC   C4B14290  34.925  27.145   7.793
  881POPC   NC314291   0.234   1.518   9.529
  881POPC   PO414292   0.266   0.854   9.651
  881POPC   GL114293   0.189   1.054   9.241
  881POPC   GL214294   0.550   1.045   9.127
  881POPC   C1A14295   0.227   1.333   8.857
  881POPC   D2A14296   0.556   1.364   8.540
  881POPC   C3A14297   0.346   1.484   8.183
  881POPC   C4A14298   0.144   1.450   7.814
  881POPC   C1B14299   0.310   0.845   8.775
  881POPC   C2B14300   0.361   0.774   8.350
  881POPC   C3B14301   0.341   0.983   7.964
  881POPC   C4B14302   0.600   1.246   7.762
  882POPC   NC314303  35.995  19.633   9.626
  882POPC   PO414304  36.466  20.047   9.620
  882POPC   GL114305  36.191  19.909   9.213
  882POPC   GL214306  35.913  19.686   9.121
  882POPC   C1A14307  36.180  19.899   8.736
  882POPC   D2A14308  36.041  20.084   8.318
  882POPC   C3A14309  36.173  19.918   7.926
  882POPC   C4A14310  36.301  19.576   7.651
  882POPC   C1B14311  35.682  19.353   8.879
  882POPC   C2B14312  35.683  19.367   8.425
  882POPC   C3B14313  35.727  19.706   8.123
  882POPC   C4B14314  35.757  19.752   7.667
  883POPC   NC314315  39.229  31.851   9.678
  883POPC   PO414316  39.462  31.319   9.521
  883POPC   GL114317  39.459  31.373   9.080
  883POPC   GL214318  39.128  31.419   9.120
  883POPC   C1A14319  39.317  31.422   8.636
  883POPC   D2A14320  39.158  31.224   8.286
  883POPC   C3A14321  39.269  31.511   8.032
  883POPC   C4A14322  39.453  31.777   7.817
  883POPC   C1B14323  38.892  31.618   8.820
  883POPC   C2B14324  38.900  31.709   8.418
  883POPC   C3B14325  38.758  31.562   8.058
  883POPC   C4B14326  38.923  31.249   7.794
  884POPC   NC314327  39.880  23.680   9.550
  884POPC   PO414328  40.599  23.726   9.599
  884POPC   GL114329  40.324  23.902   9.221
  884POPC   GL214330  40.105  23.665   9.094
  884POPC   C1A14331  40.152  24.059   8.772
  884POPC   D2A14332  39.903  24.024   8.388
  884POPC   C3A14333  39.994  23.814   7.977
  884POPC   C4A14334  40.171  23.819   7.536
  884POPC   C1B14335  39.924  23.519   8.729
  884POPC   C2B14336  39.731  23.501   8.340
  884POPC   C3B14337  39.645  23.307   7.948
  884POPC   C4B14338  39.681  23.608   7.630
  885POPC   NC314339  39.458  33.391   9.601
  885POPC   PO414340  38.920  32.888   9.443
  885POPC   GL114341  38.966  33.160   9.114
  885POPC   GL214342  39.312  33.183   9.110
  885POPC   C1A14343  39.080  33.110   8.675
  885POPC   D2A14344  38.990  32.830   8.384
  885POPC   C3A14345  38.994  33.047   8.020
  885POPC   C4A14346  39.254  33.183   7.715
  885POPC   C1B14347  39.564  33.019   8.776
  885POPC   C2B14348  39.607  33.090   8.367
  885POPC   C3B14349  39.492  32.883   8.051
  885POPC   C4B14350  39.542  32.744   7.661
  886POPC   NC314351   0.848  41.086   9.391
  886POPC   PO414352   1.528  41.058   9.493
  886POPC   GL114353   1.341  41.037   9.105
  886POPC   GL214354   1.094  40.774   9.049
  886POPC   C1A14355   1.259  41.026   8.657
  886POPC   D2A14356   1.077  40.711   8.439
  886POPC   C3A14357   1.211  40.735   8.047
  886POPC   C4A14358   1.079  40.855   7.654
  886POPC   C1B14359   1.385  40.519   8.824
  886POPC   C2B14360   1.390  40.244   8.448
  886POPC   C3B14361   1.532  40.294   8.013
  886POPC   C4B14362   1.492  40.545   7.633
  887POPC   NC314363  37.363  41.290   9.427
  887POPC   PO414364  38.006  41.517   9.658
  887POPC   GL114365  37.876  41.461   9.221
  887POPC   GL214366  37.594  41.702   9.188
  887POPC   C1A14367  38.033  41.499   8.774
  887POPC   D2A14368  37.916  41.318   8.346
  887POPC   C3A14369  37.869  41.410   7.857
  887POPC   C4A14370  37.660  41.757   7.593
  887POPC   C1B14371  37.514  41.465   8.809
  887POPC   C2B14372  37.427  41.492   8.383
  887POPC   C3B14373  37.394  41.679   8.026
  887POPC   C4B14374  37.357  41.350   7.771
  888POPC   NC314375  17.455  31.846   9.496
  888POPC   PO414376  17.778  31.240   9.560
  888POPC   GL114377  17.589  31.418   9.209
  888POPC   GL214378  17.281  31.437   9.085
  888POPC   C1A14379  17.610  31.208   8.794
  888POPC   D2A14380  17.370  31.162   8.407
  888POPC   C3A14381  17.610  31.312   8.043
  888POPC   C4A14382  17.640  31.145   7.658
  888POPC   C1B14383  17.376  31.628   8.660
  888POPC   C2B14384  17.534  31.759   8.236
  888POPC   C3B14385  17.450  31.713   7.760
  888POPC   C4B14386  17.102  31.849   7.468
  889POPC   NC314387  41.665  17.279   9.316
  889POPC   PO414388  41.578  16.670   9.677
  889POPC   GL114389  41.629  16.600   9.221
  889POPC   GL214390  41.866  16.858   9.157
  889POPC   C1A14391  41.416  16.424   8.828
  889POPC   D2A14392  41.217  16.656   8.455
  889POPC   C3A14393  41.405  16.696   8.039
  889POPC   C4A14394  41.504  16.802   7.596
  889POPC   C1B14395  41.737  16.816   8.733
  889POPC   C2B14396  41.754  16.963   8.315
  889POPC   C3B14397  41.903  16.788   7.941
  889POPC   C4B14398  42.003  16.862   7.513
  890POPC   NC314399  40.955  35.131   9.586
  890POPC   PO414400  40.661  35.722   9.474
  890POPC   GL114401  40.878  35.612   9.107
  890POPC   GL214402  41.036  35.298   9.123
  890POPC   C1A14403  40.807  35.620   8.668
  890POPC   D2A14404  40.500  35.386   8.424
  890POPC   C3A14405  40.641  35.342   7.998
  890POPC   C4A14406  41.050  35.364   7.795
  890POPC   C1B14407  40.733  35.143   8.828
  890POPC   C2B14408  40.952  35.138   8.428
  890POPC   C3B14409  41.101  34.929   8.053
  890POPC   C4B14410  40.765  34.908   7.746
  891POPC   NC314411  21.704  26.464   9.625
  891POPC   PO414412  21.024  26.516   9.335
  891POPC   GL114413  21.239  26.919   9.072
  891POPC   GL214414  21.582  27.027   9.219
  891POPC   C1A14415  21.244  26.965   8.640
  891POPC   D2A14416  21.086  26.640   8.363
  891POPC   C3A14417  21.311  26.520   7.991
  891POPC   C4A14418  21.757  26.360   7.977
  891POPC   C1B14419  21.746  26.856   8.809
  891POPC   C2B14420  21.643  26.747   8.354
  891POPC   C3B14421  21.555  26.987   7.961
  891POPC   C4B14422  21.735  27.146   7.543
  892POPC   NC314423   6.107  24.163   9.664
  892POPC   PO414424   5.794  24.750   9.402
  892POPC   GL114425   5.927  24.568   9.054
  892POPC   GL214426   6.262  24.433   9.073
  892POPC   C1A14427   5.733  24.622   8.664
  892POPC   D2A14428   5.753  24.393   8.285
  892POPC   C3A14429   5.792  24.642   7.983
  892POPC   C4A14430   6.111  24.678   7.672
  892POPC   C1B14431   6.210  24.474   8.639
  892POPC   C2B14432   6.219  24.164   8.346
  892POPC   C3B14433   6.147  24.240   7.926
  892POPC   C4B14434   5.771  24.166   7.763
  893POPC   NC314435  31.822  25.514   9.392
  893POPC   PO414436  32.455  25.190   9.448
  893POPC   GL114437  32.293  25.456   9.140
  893POPC   GL214438  32.156  25.159   8.983
  893POPC   C1A14439  32.125  25.613   8.725
  893POPC   D2A14440  32.104  25.477   8.279
  893POPC   C3A14441  31.763  25.459   7.981
  893POPC   C4A14442  31.840  25.085   7.704
  893POPC   C1B14443  32.494  25.225   8.722
  893POPC   C2B14444  32.542  25.190   8.313
  893POPC   C3B14445  32.434  25.220   7.905
  893POPC   C4B14446  32.764  25.088   7.655
  894POPC   NC314447  17.726  19.083   9.471
  894POPC   PO414448  17.249  19.597   9.367
  894POPC   GL114449  17.442  19.358   9.056
  894POPC   GL214450  17.481  18.996   9.053
  894POPC   C1A14451  17.448  19.304   8.610
  894POPC   D2A14452  17.830  19.331   8.376
  894POPC   C3A14453  17.775  19.098   8.032
  894POPC   C4A14454  18.020  19.106   7.691
  894POPC   C1B14455  17.295  18.786   8.742
  894POPC   C2B14456  17.442  18.767   8.333
  894POPC   C3B14457  17.246  18.885   7.963
  894POPC   C4B14458  17.283  19.274   7.760
  895POPC   NC314459  38.682   2.761   9.487
  895POPC   PO414460  38.110   2.375   9.322
  895POPC   GL114461  38.467   2.512   9.108
  895POPC   GL214462  38.407   2.872   9.084
  895POPC   C1A14463  38.650   2.596   8.729
  895POPC   D2A14464  38.419   2.756   8.427
  895POPC   C3A14465  38.476   2.666   7.976
  895POPC   C4A14466  38.221   2.648   7.581
  895POPC   C1B14467  38.778   3.073   8.873
  895POPC   C2B14468  38.826   3.080   8.429
  895POPC   C3B14469  38.480   3.166   8.136
  895POPC   C4B14470  38.649   3.114   7.732
  896POPC   NC314471  31.995  33.495   9.430
  896POPC   PO414472  32.531  33.853   9.526
  896POPC   GL114473  32.302  33.897   9.165
  896POPC   GL214474  31.939  33.894   9.095
  896POPC   C1A14475  32.473  33.871   8.773
  896POPC   D2A14476  32.542  34.159   8.487
  896POPC   C3A14477  32.605  34.034   8.086
  896POPC   C4A14478  32.314  34.011   7.774
  896POPC   C1B14479  32.014  33.699   8.692
  896POPC   C2B14480  32.179  33.792   8.284
  896POPC   C3B14481  31.922  33.731   7.910
  896POPC   C4B14482  31.928  33.910   7.474
  897POPC   NC314483  21.168  39.035   9.376
  897POPC   PO414484  21.546  39.624   9.586
  897POPC   GL114485  21.434  39.467   9.210
  897POPC   GL214486  21.758  39.323   9.133
  897POPC   C1A14487  21.251  39.360   8.817
  897POPC   D2A14488  21.344  39.538   8.466
  897POPC   C3A14489  21.203  39.380   8.110
  897POPC   C4A14490  21.167  39.332   7.692
  897POPC   C1B14491  21.655  39.055   8.770
  897POPC   C2B14492  21.688  39.167   8.338
  897POPC   C3B14493  21.648  39.226   7.913
  897POPC   C4B14494  21.667  39.307   7.479
  898POPC   NC314495  21.099   0.221   9.378
  898POPC   PO414496  21.766   0.497   9.448
  898POPC   GL114497  21.617   0.372   9.044
  898POPC   GL214498  21.272   0.261   8.917
  898POPC   C1A14499  21.637   0.476   8.617
  898POPC   D2A14500  21.292   0.575   8.353
  898POPC   C3A14501  21.381   0.535   7.941
  898POPC   C4A14502  21.220   0.478   7.520
  898POPC   C1B14503  21.477  44.983   8.646
  898POPC   C2B14504  21.523   0.050   8.199
  898POPC   C3B14505  21.478   0.063   7.737
  898POPC   C4B14506  21.519   0.102   7.283
  899POPC   NC314507  24.690   3.921   9.473
  899POPC   PO414508  24.396   4.545   9.650
  899POPC   GL114509  24.521   4.354   9.246
  899POPC   GL214510  24.208   4.387   9.136
  899POPC   C1A14511  24.541   4.192   8.773
  899POPC   D2A14512  24.494   4.360   8.323
  899POPC   C3A14513  24.540   4.162   7.899
  899POPC   C4A14514  24.818   4.190   7.523
  899POPC   C1B14515  24.215   4.602   8.769
  899POPC   C2B14516  24.028   4.537   8.386
  899POPC   C3B14517  24.169   4.576   7.959
  899POPC   C4B14518  23.942   4.743   7.617
  900POPC   NC314519  40.398   6.095   9.515
  900POPC   PO414520  41.047   5.855   9.491
  900POPC   GL114521  40.750   5.895   9.187
  900POPC   GL214522  40.793   6.236   9.132
  900POPC   C1A14523  40.840   5.766   8.784
  900POPC   D2A14524  40.701   5.899   8.423
  900POPC   C3A14525  40.902   5.811   8.046
  900POPC   C4A14526  40.837   5.481   7.750
  900POPC   C1B14527  40.460   6.144   8.825
  900POPC   C2B14528  40.241   6.146   8.430
  900POPC   C3B14529  40.413   6.055   8.045
  900POPC   C4B14530  40.643   6.145   7.723
  901POPC   NC314531  43.526  42.944   9.408
  901POPC   PO414532  43.224  43.491   9.310
  901POPC   GL114533  43.243  43.174   9.045
  901POPC   GL214534  43.003  42.939   9.129
  901POPC   C1A14535  43.093  43.191   8.650
  901POPC   D2A14536  42.931  43.080   8.278
  901POPC   C3A14537  43.128  43.322   7.954
  901POPC   C4A14538  42.887  43.574   7.654
  901POPC   C1B14539  43.212  42.725   8.777
  901POPC   C2B14540  43.316  42.751   8.366
  901POPC   C3B14541  43.157  42.791   7.915
  901POPC   C4B14542  43.382  42.852   7.546
  902POPC   NC314543  12.928  35.703   9.684
  902POPC   PO414544  12.532  35.157   9.446
  902POPC   GL114545  12.731  35.248   9.038
  902POPC   GL214546  13.067  35.286   8.911
  902POPC   C1A14547  12.647  35.188   8.602
  902POPC   D2A14548  12.773  35.130   8.223
  902POPC   C3A14549  12.529  35.344   7.977
  902POPC   C4A14550  12.641  35.556   7.661
  902POPC   C1B14551  12.849  35.636   8.728
  902POPC   C2B14552  12.747  35.687   8.309
  902POPC   C3B14553  13.025  35.550   7.972
  902POPC   C4B14554  13.284  35.486   7.597
  903POPC   NC314555  36.557  33.693   9.593
  903POPC   PO414556  37.186  33.982   9.520
  903POPC   GL114557  36.953  33.843   9.164
  903POPC   GL214558  36.882  34.159   8.983
  903POPC   C1A14559  36.922  33.723   8.722
  903POPC   D2A14560  37.079  33.910   8.350
  903POPC   C3A14561  37.021  33.736   7.931
  903POPC   C4A14562  37.032  33.814   7.458
  903POPC   C1B14563  36.555  34.105   8.650
  903POPC   C2B14564  36.497  33.965   8.295
  903POPC   C3B14565  36.744  34.153   8.061
  903POPC   C4B14566  36.686  34.091   7.688
  904POPC   NC314567  42.733  13.999   9.415
  904POPC   PO414568  43.349  13.796   9.348
  904POPC   GL114569  43.180  13.414   9.135
  904POPC   GL214570  42.804  13.465   9.184
  904POPC   C1A14571  43.276  13.330   8.694
  904POPC   D2A14572  43.042  13.394   8.315
  904POPC   C3A14573  43.303  13.470   7.936
  904POPC   C4A14574  43.641  13.782   7.853
  904POPC   C1B14575  42.870  13.682   8.762
  904POPC   C2B14576  42.819  13.883   8.334
  904POPC   C3B14577  42.831  13.670   7.926
  904POPC   C4B14578  42.783  13.556   7.476
  905POPC   NC314579  26.682   6.375   9.444
  905POPC   PO414580  27.197   6.762   9.479
  905POPC   GL114581  26.959   6.818   9.108
  905POPC   GL214582  26.643   6.691   9.019
  905POPC   C1A14583  26.981   6.969   8.711
  905POPC   D2A14584  27.044   6.755   8.330
  905POPC   C3A14585  26.797   6.946   8.002
  905POPC   C4A14586  26.651   6.836   7.586
  905POPC   C1B14587  26.817   6.463   8.711
  905POPC   C2B14588  26.677   6.404   8.282
  905POPC   C3B14589  26.895   6.454   7.885
  905POPC   C4B14590  26.969   6.473   7.434
  906POPC   NC314591   9.265  43.198   9.454
  906POPC   PO414592   8.944  43.822   9.657
  906POPC   GL114593   9.153  43.948   9.272
  906POPC   GL214594   9.007  44.270   9.133
  906POPC   C1A14595   9.316  43.701   8.914
  906POPC   D2A14596   9.435  43.733   8.459
  906POPC   C3A14597   9.135  43.652   8.121
  906POPC   C4A14598   8.986  43.717   7.694
  906POPC   C1B14599   8.972  44.043   8.723
  906POPC   C2B14600   8.737  43.936   8.337
  906POPC   C3B14601   8.773  44.124   7.928
  906POPC   C4B14602   8.940  44.186   7.483
  907POPC   NC314603  41.341  44.023   9.621
  907POPC   PO414604  41.916  43.739   9.479
  907POPC   GL114605  41.736  44.087   9.193
  907POPC   GL214606  41.336  44.231   9.161
  907POPC   C1A14607  41.833  43.958   8.782
  907POPC   D2A14608  41.592  43.707   8.482
  907POPC   C3A14609  41.810  43.723   8.110
  907POPC   C4A14610  41.993  43.727   7.718
  907POPC   C1B14611  41.322  44.052   8.775
  907POPC   C2B14612  41.167  44.117   8.375
  907POPC   C3B14613  41.337  43.881   8.046
  907POPC   C4B14614  41.539  44.008   7.694
  908POPC   NC314615  44.438  44.283   9.345
  908POPC   PO414616  44.863  44.689   9.681
  908POPC   GL114617  44.691  44.752   9.241
  908POPC   GL214618   0.014  44.806   9.119
  908POPC   C1A14619  44.499  44.702   8.791
  908POPC   D2A14620  44.447  44.342   8.480
  908POPC   C3A14621  44.456  44.489   8.051
  908POPC   C4A14622  44.625  44.860   7.846
  908POPC   C1B14623  44.981  44.488   8.810
  908POPC   C2B14624  44.881  44.638   8.402
  908POPC   C3B14625   0.004  44.503   8.020
  908POPC   C4B14626  44.901  44.464   7.608
  909POPC   NC314627  31.403  28.820   9.399
  909POPC   PO414628  31.272  28.125   9.356
  909POPC   GL114629  31.148  28.401   9.059
  909POPC   GL214630  31.448  28.566   8.973
  909POPC   C1A14631  31.236  28.260   8.649
  909POPC   D2A14632  31.532  28.133   8.350
  909POPC   C3A14633  31.304  28.201   8.030
  909POPC   C4A14634  31.165  28.024   7.709
  909POPC   C1B14635  31.683  28.554   8.628
  909POPC   C2B14636  31.557  28.623   8.222
  909POPC   C3B14637  31.667  28.472   7.812
  909POPC   C4B14638  31.518  28.617   7.428
  910POPC   NC314639  16.591  13.120   9.527
  910POPC   PO414640  16.970  12.638   9.389
  910POPC   GL114641  16.754  12.880   9.081
  910POPC   GL214642  16.490  13.131   9.051
  910POPC   C1A14643  16.671  12.835   8.665
  910POPC   D2A14644  16.726  13.087   8.311
  910POPC   C3A14645  16.830  12.842   7.961
  910POPC   C4A14646  16.894  12.964   7.533
  910POPC   C1B14647  16.227  13.067   8.756
  910POPC   C2B14648  16.212  12.918   8.388
  910POPC   C3B14649  16.301  13.013   8.003
  910POPC   C4B14650  16.435  12.846   7.650
  911POPC   NC314651  39.183  10.353   9.649
  911POPC   PO414652  39.636  10.811   9.401
  911POPC   GL114653  39.152  10.839   9.304
  911POPC   GL214654  39.080  10.519   9.182
  911POPC   C1A14655  38.990  10.873   8.863
  911POPC   D2A14656  39.312  10.853   8.529
  911POPC   C3A14657  39.246  10.708   8.099
  911POPC   C4A14658  39.142  10.684   7.652
  911POPC   C1B14659  39.170  10.369   8.754
  911POPC   C2B14660  39.073  10.250   8.328
  911POPC   C3B14661  39.164  10.232   7.881
  911POPC   C4B14662  39.134  10.203   7.407
  912POPC   NC314663   8.823  26.177   9.380
  912POPC   PO414664   9.254  25.667   9.418
  912POPC   GL114665   9.127  25.925   9.075
  912POPC   GL214666   9.139  26.224   8.966
  912POPC   C1A14667   9.173  25.800   8.671
  912POPC   D2A14668   8.930  25.770   8.345
  912POPC   C3A14669   9.123  25.959   8.009
  912POPC   C4A14670   9.017  25.854   7.590
  912POPC   C1B14671   8.953  26.496   8.678
  912POPC   C2B14672   9.199  26.326   8.388
  912POPC   C3B14673   9.184  26.479   8.020
  912POPC   C4B14674   9.216  26.321   7.632
  913POPC   NC314675  20.205  39.529   9.761
  913POPC   PO414676  20.707  39.099   9.446
  913POPC   GL114677  20.407  39.202   9.125
  913POPC   GL214678  20.388  39.542   9.208
  913POPC   C1A14679  20.467  39.294   8.659
  913POPC   D2A14680  20.871  39.166   8.453
  913POPC   C3A14681  20.868  38.966   8.039
  913POPC   C4A14682  21.036  38.826   7.659
  913POPC   C1B14683  20.793  39.572   8.920
  913POPC   C2B14684  20.849  39.678   8.437
  913POPC   C3B14685  20.711  39.462   7.976
  913POPC   C4B14686  20.397  39.458   7.596
  914POPC   NC314687   6.904  40.218   9.714
  914POPC   PO414688   6.393  40.532   9.356
  914POPC   GL114689   6.528  40.289   9.005
  914POPC   GL214690   6.190  40.124   8.943
  914POPC   C1A14691   6.740  40.043   8.723
  914POPC   D2A14692   6.817  39.849   8.359
  914POPC   C3A14693   6.689  40.105   8.028
  914POPC   C4A14694   6.691  39.882   7.648
  914POPC   C1B14695   6.293  39.767   8.691
  914POPC   C2B14696   6.291  39.753   8.246
  914POPC   C3B14697   6.224  39.908   7.863
  914POPC   C4B14698   6.336  40.248   7.645
  915POPC   NC314699   4.809   5.153   9.565
  915POPC   PO414700   4.703   4.523   9.789
  915POPC   GL114701   4.969   4.754   9.307
  915POPC   GL214702   5.113   5.124   9.179
  915POPC   C1A14703   4.984   4.764   8.845
  915POPC   D2A14704   5.147   4.910   8.463
  915POPC   C3A14705   4.879   5.006   8.110
  915POPC   C4A14706   5.124   4.895   7.710
  915POPC   C1B14707   5.026   5.305   8.787
  915POPC   C2B14708   5.185   5.419   8.385
  915POPC   C3B14709   5.270   5.323   7.981
  915POPC   C4B14710   4.897   5.364   7.739
  916POPC   NC314711  23.630   5.580   9.631
  916POPC   PO414712  23.627   4.915   9.512
  916POPC   GL114713  23.486   5.236   9.231
  916POPC   GL214714  23.835   5.350   9.176
  916POPC   C1A14715  23.409   5.100   8.811
  916POPC   D2A14716  23.603   4.874   8.475
  916POPC   C3A14717  23.434   4.930   8.080
  916POPC   C4A14718  23.693   5.131   7.813
  916POPC   C1B14719  23.947   5.193   8.746
  916POPC   C2B14720  23.882   5.323   8.295
  916POPC   C3B14721  24.140   5.374   7.898
  916POPC   C4B14722  24.030   5.314   7.445
  917POPC   NC314723  25.562  41.038   9.393
  917POPC   PO414724  24.973  40.725   9.444
  917POPC   GL114725  25.242  40.761   9.120
  917POPC   GL214726  25.158  41.101   9.075
  917POPC   C1A14727  25.465  40.689   8.740
  917POPC   D2A14728  25.446  40.949   8.393
  917POPC   C3A14729  25.682  40.784   8.061
  917POPC   C4A14730  25.459  40.770   7.694
  917POPC   C1B14731  24.968  40.863   8.728
  917POPC   C2B14732  25.012  40.635   8.367
  917POPC   C3B14733  25.075  40.856   8.011
  917POPC   C4B14734  24.977  41.085   7.652
  918POPC   NC314735   0.785  30.332   9.322
  918POPC   PO414736   1.395  29.980   9.449
  918POPC   GL114737   1.334  29.754   9.080
  918POPC   GL214738   1.018  29.867   9.076
  918POPC   C1A14739   1.219  29.656   8.654
  918POPC   D2A14740   0.912  29.598   8.371
  918POPC   C3A14741   1.092  29.548   7.992
  918POPC   C4A14742   1.454  29.704   7.753
  918POPC   C1B14743   1.000  30.127   8.729
  918POPC   C2B14744   1.073  30.317   8.358
  918POPC   C3B14745   0.975  30.064   7.980
  918POPC   C4B14746   0.706  30.156   7.628
  919POPC   NC314747  11.731  38.928   9.376
  919POPC   PO414748  12.018  39.553   9.537
  919POPC   GL114749  12.011  39.330   9.165
  919POPC   GL214750  12.339  39.361   9.004
  919POPC   C1A14751  11.858  39.310   8.750
  919POPC   D2A14752  12.124  39.431   8.420
  919POPC   C3A14753  11.934  39.556   8.059
  919POPC   C4A14754  12.063  39.425   7.668
  919POPC   C1B14755  12.229  38.949   8.828
  919POPC   C2B14756  12.265  38.937   8.385
  919POPC   C3B14757  12.258  39.022   7.916
  919POPC   C4B14758  12.308  39.036   7.435
  920POPC   NC314759  13.519  27.477   9.530
  920POPC   PO414760  13.656  28.104   9.514
  920POPC   GL114761  13.555  27.812   9.152
  920POPC   GL214762  13.684  27.497   9.059
  920POPC   C1A14763  13.319  27.711   8.769
  920POPC   D2A14764  13.355  27.932   8.417
  920POPC   C3A14765  13.490  27.738   8.080
  920POPC   C4A14766  13.819  27.789   7.816
  920POPC   C1B14767  13.858  27.386   8.703
  920POPC   C2B14768  13.914  27.503   8.332
  920POPC   C3B14769  13.775  27.322   8.028
  920POPC   C4B14770  13.541  27.396   7.670
  921POPC   NC314771  33.786  33.241   9.922
  921POPC   PO414772  34.026  33.288   9.261
  921POPC   GL114773  33.777  32.976   9.072
  921POPC   GL214774  34.015  32.722   9.059
  921POPC   C1A14775  33.646  33.053   8.645
  921POPC   D2A14776  33.502  33.063   8.230
  921POPC   C3A14777  33.796  33.182   7.926
  921POPC   C4A14778  33.729  33.312   7.525
  921POPC   C1B14779  33.900  32.602   8.657
  921POPC   C2B14780  33.990  32.840   8.309
  921POPC   C3B14781  34.067  32.751   7.904
  921POPC   C4B14782  33.828  32.812   7.521
  922POPC   NC314783  35.206   0.294   9.600
  922POPC   PO414784  35.847   0.653   9.459
  922POPC   GL114785  35.396   0.614   9.220
  922POPC   GL214786  35.089   0.360   9.122
  922POPC   C1A14787  35.326   0.622   8.777
  922POPC   D2A14788  35.509   0.266   8.585
  922POPC   C3A14789  35.505   0.261   8.154
  922POPC   C4A14790  35.442   0.364   7.725
  922POPC   C1B14791  34.861   0.359   8.741
  922POPC   C2B14792  35.044   0.381   8.380
  922POPC   C3B14793  35.109   0.597   8.037
  922POPC   C4B14794  34.969   0.481   7.602
  923POPC   NC314795  38.650  15.312   9.714
  923POPC   PO414796  38.145  14.812   9.672
  923POPC   GL114797  38.510  14.862   9.332
  923POPC   GL214798  38.518  15.179   9.171
  923POPC   C1A14799  38.485  14.767   8.839
  923POPC   D2A14800  38.148  14.868   8.495
  923POPC   C3A14801  38.313  14.921   8.065
  923POPC   C4A14802  38.596  14.869   7.710
  923POPC   C1B14803  38.420  15.257   8.726
  923POPC   C2B14804  38.579  15.340   8.295
  923POPC   C3B14805  38.558  15.349   7.862
  923POPC   C4B14806  38.104  15.300   7.760
  924POPC   NC314807   6.433   5.227   9.497
  924POPC   PO414808   6.865   5.464   9.207
  924POPC   GL114809   6.631   5.118   9.031
  924POPC   GL214810   6.397   4.820   9.182
  924POPC   C1A14811   6.823   5.044   8.650
  924POPC   D2A14812   6.953   4.845   8.311
  924POPC   C3A14813   6.825   5.142   8.012
  924POPC   C4A14814   6.910   5.012   7.604
  924POPC   C1B14815   6.438   4.732   8.726
  924POPC   C2B14816   6.428   4.918   8.304
  924POPC   C3B14817   6.595   4.678   7.947
  924POPC   C4B14818   6.486   4.699   7.519
  925POPC   NC314819   7.147  36.907   9.522
  925POPC   PO414820   6.526  36.818   9.528
  925POPC   GL114821   6.615  36.919   9.128
  925POPC   GL214822   6.333  37.172   9.119
  925POPC   C1A14823   6.655  36.691   8.721
  925POPC   D2A14824   6.814  36.785   8.325
  925POPC   C3A14825   6.603  36.647   7.951
  925POPC   C4A14826   6.730  36.555   7.516
  925POPC   C1B14827   6.526  37.188   8.712
  925POPC   C2B14828   6.397  37.060   8.315
  925POPC   C3B14829   6.561  37.156   7.930
  925POPC   C4B14830   6.414  37.003   7.543
  926POPC   NC314831  18.907  44.196   9.914
  926POPC   PO414832  19.065  43.748   9.433
  926POPC   GL114833  18.910  43.882   9.013
  926POPC   GL214834  19.257  44.022   9.049
  926POPC   C1A14835  18.794  43.923   8.542
  926POPC   D2A14836  19.043  43.934   8.144
  926POPC   C3A14837  18.918  43.938   7.676
  926POPC   C4A14838  18.980  44.208   7.275
  926POPC   C1B14839  19.295  43.864   8.670
  926POPC   C2B14840  19.515  43.989   8.364
  926POPC   C3B14841  19.541  44.202   8.048
  926POPC   C4B14842  19.410  44.047   7.712
  927POPC   NC314843   5.996  40.581   9.606
  927POPC   PO414844   5.418  40.734   9.445
  927POPC   GL114845   5.686  40.860   9.091
  927POPC   GL214846   6.018  40.779   9.115
  927POPC   C1A14847   5.786  40.774   8.658
  927POPC   D2A14848   5.869  40.556   8.297
  927POPC   C3A14849   5.685  40.871   8.021
  927POPC   C4A14850   5.738  40.963   7.604
  927POPC   C1B14851   6.162  41.074   8.778
  927POPC   C2B14852   6.221  40.935   8.355
  927POPC   C3B14853   6.156  40.998   7.923
  927POPC   C4B14854   6.194  40.748   7.535
  928POPC   NC314855  16.009   9.380   9.361
  928POPC   PO414856  15.726   9.909   9.579
  928POPC   GL114857  15.650   9.735   9.158
  928POPC   GL214858  15.995   9.731   8.999
  928POPC   C1A14859  15.623   9.885   8.710
  928POPC   D2A14860  15.972   9.766   8.412
  928POPC   C3A14861  15.792   9.785   7.990
  928POPC   C4A14862  15.623   9.660   7.600
  928POPC   C1B14863  16.388   9.723   8.767
  928POPC   C2B14864  16.517   9.837   8.383
  928POPC   C3B14865  16.265   9.963   8.025
  928POPC   C4B14866  16.042   9.949   7.567
  929POPC   NC314867   8.477  41.850   9.413
  929POPC   PO414868   7.840  41.468   9.429
  929POPC   GL114869   8.189  41.478   9.186
  929POPC   GL214870   8.062  41.791   9.094
  929POPC   C1A14871   8.399  41.509   8.781
  929POPC   D2A14872   8.322  41.281   8.427
  929POPC   C3A14873   8.328  41.468   8.043
  929POPC   C4A14874   8.023  41.338   7.782
  929POPC   C1B14875   7.880  41.528   8.762
  929POPC   C2B14876   7.953  41.672   8.354
  929POPC   C3B14877   7.734  41.788   7.993
  929POPC   C4B14878   7.836  41.757   7.583
  930POPC   NC314879   3.835  39.767   9.512
  930POPC   PO414880   3.260  40.024   9.648
  930POPC   GL114881   3.510  40.058   9.237
  930POPC   GL214882   3.656  39.762   9.039
  930POPC   C1A14883   3.578  40.206   8.836
  930POPC   D2A14884   3.582  39.912   8.469
  930POPC   C3A14885   3.497  40.018   8.029
  930POPC   C4A14886   3.633  40.213   7.628
  930POPC   C1B14887   3.889  39.582   8.698
  930POPC   C2B14888   3.975  39.668   8.245
  930POPC   C3B14889   3.839  39.692   7.802
  930POPC   C4B14890   3.776  39.786   7.319
  931POPC   NC314891  26.320  35.706   9.465
  931POPC   PO414892  26.225  35.019   9.637
  931POPC   GL114893  26.252  35.160   9.192
  931POPC   GL214894  25.969  35.382   9.150
  931POPC   C1A14895  26.325  35.327   8.745
  931POPC   D2A14896  26.251  35.562   8.324
  931POPC   C3A14897  26.294  35.263   7.986
  931POPC   C4A14898  26.361  35.346   7.551
  931POPC   C1B14899  25.875  35.098   8.804
  931POPC   C2B14900  25.866  35.236   8.403
  931POPC   C3B14901  25.766  35.400   8.006
  931POPC   C4B14902  25.865  35.081   7.754
  932POPC   NC314903  43.395   2.900   9.426
  932POPC   PO414904  43.290   2.268   9.545
  932POPC   GL114905  43.177   2.451   9.167
  932POPC   GL214906  42.976   2.742   9.140
  932POPC   C1A14907  43.353   2.579   8.776
  932POPC   D2A14908  43.317   2.792   8.351
  932POPC   C3A14909  43.278   2.537   8.005
  932POPC   C4A14910  43.346   2.606   7.562
  932POPC   C1B14911  43.005   2.947   8.734
  932POPC   C2B14912  42.887   3.116   8.329
  932POPC   C3B14913  42.703   3.217   7.933
  932POPC   C4B14914  42.575   3.025   7.528
  933POPC   NC314915  19.281  10.779   9.423
  933POPC   PO414916  19.201  11.482   9.481
  933POPC   GL114917  18.998  11.300   9.064
  933POPC   GL214918  19.218  11.085   8.980
  933POPC   C1A14919  18.735  11.122   8.714
  933POPC   D2A14920  18.836  10.971   8.277
  933POPC   C3A14921  19.044  11.299   8.013
  933POPC   C4A14922  18.940  11.463   7.589
  933POPC   C1B14923  19.195  11.338   8.584
  933POPC   C2B14924  19.511  11.258   8.290
  933POPC   C3B14925  19.517  10.973   7.919
  933POPC   C4B14926  19.306  11.108   7.549
  934POPC   NC314927   6.764  28.144   9.636
  934POPC   PO414928   6.222  27.711   9.513
  934POPC   GL114929   6.542  27.835   9.191
  934POPC   GL214930   6.874  27.653   9.234
  934POPC   C1A14931   6.757  27.859   8.769
  934POPC   D2A14932   6.968  27.795   8.358
  934POPC   C3A14933   6.725  27.841   7.964
  934POPC   C4A14934   6.390  27.665   7.711
  934POPC   C1B14935   6.933  27.352   8.855
  934POPC   C2B14936   7.063  27.268   8.401
  934POPC   C3B14937   6.837  27.343   7.997
  934POPC   C4B14938   6.812  27.461   7.551
  935POPC   NC314939  27.574  20.048   9.414
  935POPC   PO414940  28.072  19.611   9.647
  935POPC   GL114941  27.760  19.619   9.227
  935POPC   GL214942  27.748  19.926   8.966
  935POPC   C1A14943  27.491  19.525   8.830
  935POPC   D2A14944  27.710  19.622   8.464
  935POPC   C3A14945  27.672  19.484   8.042
  935POPC   C4A14946  27.526  19.793   7.750
  935POPC   C1B14947  27.443  20.021   8.646
  935POPC   C2B14948  27.413  19.996   8.213
  935POPC   C3B14949  27.137  20.110   7.851
  935POPC   C4B14950  27.283  20.105   7.413
  936POPC   NC314951  35.555  31.058   9.492
  936POPC   PO414952  35.229  31.613   9.670
  936POPC   GL114953  35.371  31.487   9.244
  936POPC   GL214954  35.162  31.241   9.128
  936POPC   C1A14955  35.411  31.476   8.776
  936POPC   D2A14956  35.587  31.241   8.459
  936POPC   C3A14957  35.497  31.433   8.067
  936POPC   C4A14958  35.506  31.300   7.648
  936POPC   C1B14959  34.928  31.297   8.727
  936POPC   C2B14960  35.071  31.238   8.304
  936POPC   C3B14961  35.031  31.296   7.840
  936POPC   C4B14962  35.055  31.110   7.416
  937POPC   NC314963  10.644  30.799   9.569
  937POPC   PO414964  10.756  30.147   9.715
  937POPC   GL114965  10.632  30.367   9.254
  937POPC   GL214966  10.385  30.695   9.158
  937POPC   C1A14967  10.667  30.527   8.792
  937POPC   D2A14968  10.402  30.812   8.508
  937POPC   C3A14969  10.644  30.953   8.147
  937POPC   C4A14970  10.806  30.910   7.708
  937POPC   C1B14971  10.161  30.420   8.887
  937POPC   C2B14972  10.303  30.299   8.492
  937POPC   C3B14973  10.269  30.463   8.083
  937POPC   C4B14974  10.314  30.800   7.793
  938POPC   NC314975  31.404  17.148   9.365
  938POPC   PO414976  31.686  16.494   9.396
  938POPC   GL114977  31.501  16.720   9.072
  938POPC   GL214978  31.149  16.784   9.113
  938POPC   C1A14979  31.369  16.644   8.668
  938POPC   D2A14980  31.241  16.445   8.321
  938POPC   C3A14981  31.547  16.564   8.054
  938POPC   C4A14982  31.536  16.644   7.600
  938POPC   C1B14983  31.091  17.078   8.756
  938POPC   C2B14984  30.961  16.971   8.347
  938POPC   C3B14985  31.122  16.822   7.982
  938POPC   C4B14986  31.332  17.100   7.722
  939POPC   NC314987  21.408   0.752   9.588
  939POPC   PO414988  21.304   1.377   9.522
  939POPC   GL114989  21.429   1.132   9.169
  939POPC   GL214990  21.275   0.767   9.097
  939POPC   C1A14991  21.597   1.410   8.805
  939POPC   D2A14992  21.708   1.644   8.416
  939POPC   C3A14993  21.446   1.621   8.054
  939POPC   C4A14994  21.562   1.334   7.739
  939POPC   C1B14995  21.389   0.931   8.706
  939POPC   C2B14996  21.349   1.223   8.372
  939POPC   C3B14997  21.123   1.220   7.979
  939POPC   C4B14998  21.251   0.955   7.636
  940POPC   NC314999   2.986  34.278   9.819
  940POPC   PO415000   2.735  34.813   9.602
  940POPC   GL115001   2.636  34.467   9.221
  940POPC   GL215002   2.984  34.231   9.042
  940POPC   C1A15003   2.653  34.497   8.774
  940POPC   D2A15004   2.475  34.536   8.390
  940POPC   C3A15005   2.620  34.546   7.973
  940POPC   C4A15006   2.572  34.827   7.639
  940POPC   C1B15007   3.156  34.502   8.706
  940POPC   C2B15008   3.026  34.589   8.291
  940POPC   C3B15009   3.054  34.945   8.008
  940POPC   C4B15010   2.975  35.135   7.616
  941POPC   NC315011  41.290  26.635   9.446
  941POPC   PO415012  41.812  27.077   9.567
  941POPC   GL115013  41.699  26.919   9.169
  941POPC   GL215014  41.375  27.041   9.136
  941POPC   C1A15015  41.490  26.718   8.769
  941POPC   D2A15016  41.417  26.739   8.314
  941POPC   C3A15017  41.738  26.566   8.055
  941POPC   C4A15018  41.929  26.647   7.667
  941POPC   C1B15019  41.492  27.240   8.800
  941POPC   C2B15020  41.710  27.154   8.454
  941POPC   C3B15021  41.570  27.174   8.068
  941POPC   C4B15022  41.583  26.998   7.701
  942POPC   NC315023  22.247  30.669   9.452
  942POPC   PO415024  21.604  30.585   9.455
  942POPC   GL115025  21.961  30.485   9.083
  942POPC   GL215026  22.246  30.225   9.183
  942POPC   C1A15027  22.201  30.795   8.761
  942POPC   D2A15028  22.465  30.921   8.377
  942POPC   C3A15029  22.217  30.892   8.024
  942POPC   C4A15030  22.018  30.542   7.897
  942POPC   C1B15031  22.356  30.304   8.749
  942POPC   C2B15032  22.264  30.412   8.322
  942POPC   C3B15033  22.427  30.234   7.904
  942POPC   C4B15034  22.440  30.338   7.446
  943POPC   NC315035   1.875   6.913   9.526
  943POPC   PO415036   1.819   7.563   9.618
  943POPC   GL115037   1.885   7.749   9.205
  943POPC   GL215038   1.627   7.540   9.101
  943POPC   C1A15039   2.059   7.622   8.787
  943POPC   D2A15040   2.093   7.339   8.435
  943POPC   C3A15041   2.016   7.495   8.035
  943POPC   C4A15042   2.124   7.302   7.614
  943POPC   C1B15043   1.634   7.149   8.868
  943POPC   C2B15044   1.752   6.948   8.484
  943POPC   C3B15045   1.899   6.993   8.060
  943POPC   C4B15046   1.687   7.025   7.631
  944POPC   NC315047  35.728  21.201   9.415
  944POPC   PO415048  36.188  21.573   9.640
  944POPC   GL115049  36.214  21.405   9.151
  944POPC   GL215050  36.406  21.146   8.969
  944POPC   C1A15051  35.997  21.366   8.728
  944POPC   D2A15052  36.050  21.141   8.315
  944POPC   C3A15053  36.037  21.360   7.911
  944POPC   C4A15054  35.961  21.693   7.624
  944POPC   C1B15055  36.498  21.497   8.655
  944POPC   C2B15056  36.452  21.562   8.190
  944POPC   C3B15057  36.462  21.576   7.708
  944POPC   C4B15058  36.569  21.517   7.217
  945POPC   NC315059  41.924  15.171   9.502
  945POPC   PO415060  42.617  15.077   9.530
  945POPC   GL115061  42.323  14.966   9.195
  945POPC   GL215062  42.098  15.226   9.045
  945POPC   C1A15063  42.347  14.893   8.779
  945POPC   D2A15064  42.164  15.199   8.518
  945POPC   C3A15065  42.140  15.065   8.139
  945POPC   C4A15066  42.413  15.038   7.818
  945POPC   C1B15067  42.460  15.412   8.883
  945POPC   C2B15068  42.602  15.475   8.456
  945POPC   C3B15069  42.407  15.513   8.059
  945POPC   C4B15070  42.108  15.451   7.743
  946POPC   NC315071   1.444  26.288   9.395
  946POPC   PO415072   1.100  25.718   9.518
  946POPC   GL115073   1.071  26.004   9.175
  946POPC   GL215074   1.363  25.854   9.077
  946POPC   C1A15075   1.038  26.303   8.830
  946POPC   D2A15076   1.068  26.413   8.405
  946POPC   C3A15077   1.347  26.231   8.121
  946POPC   C4A15078   1.251  26.130   7.676
  946POPC   C1B15079   1.430  25.989   8.666
  946POPC   C2B15080   1.751  26.019   8.358
  946POPC   C3B15081   1.564  25.774   8.004
  946POPC   C4B15082   1.174  25.633   7.846
  947POPC   NC315083   9.577  44.920   9.486
  947POPC   PO415084   9.913  44.322   9.577
  947POPC   GL115085   9.786  44.544   9.203
  947POPC   GL215086   9.986  44.865   9.184
  947POPC   C1A15087   9.650  44.668   8.798
  947POPC   D2A15088   9.868  44.628   8.406
  947POPC   C3A15089   9.614  44.654   8.044
  947POPC   C4A15090   9.775  44.797   7.638
  947POPC   C1B15091   9.999   0.036   8.770
  947POPC   C2B15092   9.776   0.166   8.419
  947POPC   C3B15093   9.970   0.031   8.054
  947POPC   C4B15094  10.246   0.055   7.687
  948POPC   NC315095  12.146  13.125   9.417
  948POPC   PO415096  12.140  13.812   9.408
  948POPC   GL115097  12.211  13.686   9.038
  948POPC   GL215098  11.942  13.430   9.060
  948POPC   C1A15099  11.969  13.794   8.692
  948POPC   D2A15100  11.860  13.544   8.368
  948POPC   C3A15101  12.058  13.628   8.038
  948POPC   C4A15102  12.197  13.978   7.909
  948POPC   C1B15103  12.180  13.298   8.690
  948POPC   C2B15104  12.350  13.268   8.285
  948POPC   C3B15105  12.374  13.281   7.844
  948POPC   C4B15106  12.434  13.621   7.582
  949POPC   NC315107  41.295  15.381   9.723
  949POPC   PO415108  41.201  14.681   9.780
  949POPC   GL115109  41.359  15.013   9.376
  949POPC   GL215110  41.463  14.834   9.085
  949POPC   C1A15111  41.589  15.302   8.996
  949POPC   D2A15112  41.665  15.279   8.554
  949POPC   C3A15113  41.801  15.441   8.181
  949POPC   C4A15114  41.604  15.376   7.782
  949POPC   C1B15115  41.817  14.867   8.819
  949POPC   C2B15116  41.769  14.797   8.398
  949POPC   C3B15117  41.590  14.885   8.018
  949POPC   C4B15118  41.885  14.972   7.716
  950POPC   NC315119   9.772  16.345   9.459
  950POPC   PO415120   9.404  15.794   9.386
  950POPC   GL115121   9.746  15.956   9.108
  950POPC   GL215122   9.965  16.263   9.013
  950POPC   C1A15123   9.839  15.900   8.680
  950POPC   D2A15124   9.702  15.636   8.385
  950POPC   C3A15125   9.817  15.741   7.981
  950POPC   C4A15126   9.588  15.573   7.641
  950POPC   C1B15127   9.679  16.373   8.657
  950POPC   C2B15128   9.790  16.236   8.235
  950POPC   C3B15129   9.944  16.215   7.808
  950POPC   C4B15130   9.822  16.405   7.420
  951POPC   NC315131   4.082  44.064   9.383
  951POPC   PO415132   4.563  43.545   9.527
  951POPC   GL115133   4.388  43.728   9.150
  951POPC   GL215134   4.014  43.652   9.103
  951POPC   C1A15135   4.365  44.037   8.791
  951POPC   D2A15136   4.089  44.036   8.437
  951POPC   C3A15137   4.272  44.106   8.070
  951POPC   C4A15138   4.575  43.941   7.784
  951POPC   C1B15139   4.182  43.580   8.720
  951POPC   C2B15140   4.388  43.578   8.338
  951POPC   C3B15141   4.208  43.631   7.957
  951POPC   C4B15142   4.150  43.541   7.589
  952POPC   NC315143  20.244  33.052   9.481
  952POPC   PO415144  19.609  32.905   9.284
  952POPC   GL115145  19.848  33.205   9.154
  952POPC   GL215146  19.588  33.324   8.991
  952POPC   C1A15147  20.178  33.257   8.843
  952POPC   D2A15148  20.243  32.929   8.517
  952POPC   C3A15149  20.089  33.114   8.136
  952POPC   C4A15150  20.012  33.020   7.717
  952POPC   C1B15151  19.747  33.128   8.599
  952POPC   C2B15152  19.592  33.040   8.190
  952POPC   C3B15153  19.662  32.729   7.917
  952POPC   C4B15154  19.596  32.769   7.485
  953POPC   NC315155  43.689  30.365   9.623
  953POPC   PO415156  44.028  30.890   9.687
  953POPC   GL115157  43.812  30.726   9.272
  953POPC   GL215158  43.999  30.437   9.173
  953POPC   C1A15159  43.730  30.683   8.794
  953POPC   D2A15160  43.581  30.428   8.430
  953POPC   C3A15161  43.636  30.541   8.003
  953POPC   C4A15162  43.907  30.774   7.716
  953POPC   C1B15163  43.894  30.201   8.771
  953POPC   C2B15164  44.058  30.298   8.362
  953POPC   C3B15165  44.116  30.351   7.953
  953POPC   C4B15166  44.338  30.528   7.617
  954POPC   NC315167  29.623  43.502   9.330
  954POPC   PO415168  30.076  43.095   9.695
  954POPC   GL115169  30.039  43.196   9.280
  954POPC   GL215170  29.743  42.989   9.203
  954POPC   C1A15171  29.975  43.226   8.825
  954POPC   D2A15172  30.162  43.323   8.433
  954POPC   C3A15173  29.951  43.224   8.076
  954POPC   C4A15174  29.926  43.277   7.653
  954POPC   C1B15175  29.633  42.862   8.762
  954POPC   C2B15176  29.476  42.940   8.343
  954POPC   C3B15177  29.538  42.875   7.914
  954POPC   C4B15178  29.583  42.928   7.476
  955POPC   NC315179  26.595  18.713   9.437
  955POPC   PO415180  26.909  18.096   9.569
  955POPC   GL115181  26.808  18.294   9.143
  955POPC   GL215182  26.578  18.556   8.970
  955POPC   C1A15183  26.956  18.379   8.707
  955POPC   D2A15184  26.919  18.562   8.280
  955POPC   C3A15185  26.975  18.307   7.866
  955POPC   C4A15186  27.124  18.304   7.407
  955POPC   C1B15187  26.456  18.168   8.774
  955POPC   C2B15188  26.390  18.293   8.361
  955POPC   C3B15189  26.501  18.503   7.980
  955POPC   C4B15190  26.453  18.166   7.700
  956POPC   NC315191  23.006  19.214   9.514
  956POPC   PO415192  22.576  18.754   9.472
  956POPC   GL115193  22.659  19.054   9.162
  956POPC   GL215194  23.030  19.062   9.033
  956POPC   C1A15195  22.605  18.975   8.765
  956POPC   D2A15196  22.892  18.992   8.447
  956POPC   C3A15197  22.714  18.869   8.071
  956POPC   C4A15198  22.898  18.893   7.726
  956POPC   C1B15199  23.205  19.342   8.727
  956POPC   C2B15200  23.141  19.431   8.294
  956POPC   C3B15201  23.233  19.203   7.919
  956POPC   C4B15202  23.196  19.184   7.425
  957POPC   NC315203  38.836  36.600   9.504
  957POPC   PO415204  38.262  36.729   9.818
  957POPC   GL115205  38.363  36.930   9.328
  957POPC   GL215206  38.573  37.169   9.203
  957POPC   C1A15207  38.429  36.786   8.850
  957POPC   D2A15208  38.719  36.698   8.504
  957POPC   C3A15209  38.547  36.736   8.088
  957POPC   C4A15210  38.407  36.448   7.784
  957POPC   C1B15211  38.365  37.286   8.833
  957POPC   C2B15212  38.498  37.155   8.433
  957POPC   C3B15213  38.354  37.212   8.018
  957POPC   C4B15214  38.220  36.949   7.668
  958POPC   NC315215  25.918  24.456   9.543
  958POPC   PO415216  26.519  24.775   9.478
  958POPC   GL115217  26.225  24.641   9.127
  958POPC   GL215218  25.847  24.737   9.106
  958POPC   C1A15219  26.131  24.680   8.683
  958POPC   D2A15220  26.228  24.859   8.294
  958POPC   C3A15221  26.157  24.573   8.002
  958POPC   C4A15222  25.909  24.652   7.686
  958POPC   C1B15223  25.840  24.291   8.888
  958POPC   C2B15224  25.865  23.984   8.532
  958POPC   C3B15225  25.875  24.164   8.139
  958POPC   C4B15226  25.811  24.104   7.744
  959POPC   NC315227  26.185  13.405   9.436
  959POPC   PO415228  25.593  13.775   9.443
  959POPC   GL115229  25.924  13.752   9.167
  959POPC   GL215230  25.811  13.400   9.090
  959POPC   C1A15231  26.202  13.694   8.810
  959POPC   D2A15232  26.127  13.629   8.382
  959POPC   C3A15233  26.316  13.785   8.026
  959POPC   C4A15234  26.027  13.924   7.697
  959POPC   C1B15235  25.916  13.271   8.681
  959POPC   C2B15236  25.704  13.362   8.288
  959POPC   C3B15237  25.951  13.426   7.922
  959POPC   C4B15238  25.949  13.484   7.477
  960POPC   NC315239  30.127   4.844   9.510
  960POPC   PO415240  29.813   5.411   9.398
  960POPC   GL115241  30.032   5.234   9.096
  960POPC   GL215242  29.960   4.876   9.043
  960POPC   C1A15243  29.892   5.254   8.676
  960POPC   D2A15244  29.621   5.228   8.364
  960POPC   C3A15245  29.848   5.223   7.974
  960POPC   C4A15246  30.014   5.234   7.542
  960POPC   C1B15247  29.988   4.676   8.659
  960POPC   C2B15248  30.100   4.921   8.315
  960POPC   C3B15249  30.282   4.943   7.916
  960POPC   C4B15250  30.113   4.744   7.568
  961POPC   NC315251  40.893  18.567   9.387
  961POPC   PO415252  40.553  18.004   9.433
  961POPC   GL115253  40.529  18.316   9.110
  961POPC   GL215254  40.848  18.190   9.027
  961POPC   C1A15255  40.640  18.490   8.686
  961POPC   D2A15256  40.933  18.557   8.358
  961POPC   C3A15257  40.743  18.718   7.987
  961POPC   C4A15258  40.659  18.585   7.563
  961POPC   C1B15259  40.563  17.991   8.710
  961POPC   C2B15260  40.536  18.123   8.257
  961POPC   C3B15261  40.857  18.234   7.945
  961POPC   C4B15262  41.257  18.061   7.777
  962POPC   NC315263   8.953  17.704   9.607
  962POPC   PO415264   8.688  17.211   9.227
  962POPC   GL115265   9.027  17.464   9.034
  962POPC   GL215266   9.276  17.652   9.192
  962POPC   C1A15267   8.980  17.558   8.594
  962POPC   D2A15268   8.530  17.505   8.433
  962POPC   C3A15269   8.433  17.668   8.039
  962POPC   C4A15270   8.697  17.609   7.717
  962POPC   C1B15271   9.358  17.873   8.781
  962POPC   C2B15272   9.343  17.845   8.323
  962POPC   C3B15273   9.076  17.600   8.067
  962POPC   C4B15274   9.161  17.425   7.659
  963POPC   NC315275  32.471   9.298   9.495
  963POPC   PO415276  32.055   8.749   9.507
  963POPC   GL115277  32.170   9.013   9.188
  963POPC   GL215278  32.388   8.762   9.095
  963POPC   C1A15279  32.168   9.112   8.767
  963POPC   D2A15280  32.004   9.007   8.395
  963POPC   C3A15281  32.180   8.934   8.006
  963POPC   C4A15282  32.325   9.136   7.646
  963POPC   C1B15283  32.011   8.629   8.797
  963POPC   C2B15284  32.021   8.502   8.328
  963POPC   C3B15285  32.169   8.431   7.898
  963POPC   C4B15286  31.976   8.687   7.599
  964POPC   NC315287  24.452  42.538   9.643
  964POPC   PO415288  24.953  42.347   9.214
  964POPC   GL115289  24.474  42.319   9.179
  964POPC   GL215290  24.278  42.615   9.177
  964POPC   C1A15291  24.221  42.235   8.829
  964POPC   D2A15292  24.332  42.014   8.455
  964POPC   C3A15293  24.149  42.085   8.068
  964POPC   C4A15294  24.382  42.040   7.716
  964POPC   C1B15295  24.363  42.738   8.736
  964POPC   C2B15296  24.299  42.520   8.355
  964POPC   C3B15297  24.409  42.503   7.942
  964POPC   C4B15298  24.459  42.737   7.593
  965POPC   NC315299  38.691  10.973   9.600
  965POPC   PO415300  38.159  11.374   9.610
  965POPC   GL115301  38.137  11.253   9.184
  965POPC   GL215302  38.503  11.180   9.142
  965POPC   C1A15303  38.195  11.429   8.764
  965POPC   D2A15304  38.374  11.504   8.335
  965POPC   C3A15305  38.152  11.416   7.936
  965POPC   C4A15306  38.167  11.682   7.566
  965POPC   C1B15307  38.623  11.174   8.694
  965POPC   C2B15308  38.847  10.981   8.357
  965POPC   C3B15309  38.878  11.034   7.929
  965POPC   C4B15310  38.649  10.842   7.622
  966POPC   NC315311  36.318  31.449   9.404
  966POPC   PO415312  37.004  31.580   9.563
  966POPC   GL115313  36.998  31.416   9.173
  966POPC   GL215314  37.371  31.365   9.162
  966POPC   C1A15315  36.749  31.653   8.817
  966POPC   D2A15316  36.724  31.860   8.396
  966POPC   C3A15317  36.694  31.505   8.097
  966POPC   C4A15318  36.399  31.307   7.852
  966POPC   C1B15319  37.262  31.575   8.777
  966POPC   C2B15320  37.127  31.533   8.371
  966POPC   C3B15321  37.164  31.737   7.972
  966POPC   C4B15322  37.295  31.419   7.690
  967POPC   NC315323   9.269   7.136   9.535
  967POPC   PO415324   8.674   7.484   9.474
  967POPC   GL115325   9.005   7.500   9.218
  967POPC   GL215326   8.936   7.142   9.153
  967POPC   C1A15327   8.977   7.539   8.793
  967POPC   D2A15328   8.701   7.364   8.476
  967POPC   C3A15329   8.835   7.412   8.052
  967POPC   C4A15330   9.233   7.359   7.844
  967POPC   C1B15331   8.970   7.005   8.756
  967POPC   C2B15332   8.876   6.875   8.354
  967POPC   C3B15333   8.949   6.936   7.949
  967POPC   C4B15334   8.907   7.116   7.538
  968POPC   NC315335  11.940  34.002   9.424
  968POPC   PO415336  12.018  33.350   9.408
  968POPC   GL115337  12.199  33.609   9.107
  968POPC   GL215338  11.832  33.680   9.025
  968POPC   C1A15339  12.191  33.817   8.706
  968POPC   D2A15340  11.833  33.752   8.448
  968POPC   C3A15341  11.938  33.523   8.097
  968POPC   C4A15342  12.318  33.688   7.913
  968POPC   C1B15343  11.645  34.063   8.833
  968POPC   C2B15344  11.658  34.240   8.444
  968POPC   C3B15345  11.797  34.114   8.055
  968POPC   C4B15346  12.130  34.138   7.779
  969POPC   NC315347  21.383  23.235   9.574
  969POPC   PO415348  21.260  22.598   9.450
  969POPC   GL115349  21.283  22.949   9.138
  969POPC   GL215350  21.621  23.117   9.111
  969POPC   C1A15351  21.332  23.081   8.696
  969POPC   D2A15352  21.355  23.260   8.267
  969POPC   C3A15353  21.159  23.064   7.915
  969POPC   C4A15354  20.997  23.141   7.494
  969POPC   C1B15355  21.706  22.780   8.845
  969POPC   C2B15356  21.726  22.846   8.391
  969POPC   C3B15357  21.753  22.980   7.978
  969POPC   C4B15358  21.570  23.227   7.654
  970POPC   NC315359   5.489  20.688   9.445
  970POPC   PO415360   6.180  20.655   9.523
  970POPC   GL115361   5.936  20.579   9.156
  970POPC   GL215362   5.610  20.438   9.038
  970POPC   C1A15363   5.938  20.692   8.741
  970POPC   D2A15364   6.025  20.523   8.348
  970POPC   C3A15365   5.950  20.877   8.065
  970POPC   C4A15366   6.030  20.891   7.638
  970POPC   C1B15367   5.429  20.757   8.805
  970POPC   C2B15368   5.562  20.729   8.397
  970POPC   C3B15369   5.503  20.627   7.990
  970POPC   C4B15370   5.508  21.005   7.748
  971POPC   NC315371  24.277  27.730   9.687
  971POPC   PO415372  24.745  27.274   9.481
  971POPC   GL115373  24.581  27.659   9.254
  971POPC   GL215374  24.232  27.649   9.145
  971POPC   C1A15375  24.571  27.841   8.836
  971POPC   D2A15376  24.726  27.820   8.426
  971POPC   C3A15377  24.404  27.751   8.117
  971POPC   C4A15378  24.222  27.939   7.753
  971POPC   C1B15379  24.302  27.415   8.754
  971POPC   C2B15380  24.608  27.304   8.445
  971POPC   C3B15381  24.521  27.255   8.038
  971POPC   C4B15382  24.283  27.429   7.690
  972POPC   NC315383  21.111  26.138   9.578
  972POPC   PO415384  21.421  26.797   9.709
  972POPC   GL115385  21.500  26.518   9.198
  972POPC   GL215386  21.356  26.168   9.139
  972POPC   C1A15387  21.390  26.490   8.763
  972POPC   D2A15388  21.462  26.260   8.420
  972POPC   C3A15389  21.090  26.104   8.242
  972POPC   C4A15390  21.081  26.076   7.816
  972POPC   C1B15391  21.517  25.895   8.818
  972POPC   C2B15392  21.494  25.754   8.372
  972POPC   C3B15393  21.550  25.878   7.945
  972POPC   C4B15394  21.382  25.703   7.554
  973POPC   NC315395  21.282   4.640   9.691
  973POPC   PO415396  21.260   4.060   9.365
  973POPC   GL115397  21.205   4.241   9.044
  973POPC   GL215398  21.332   4.558   9.157
  973POPC   C1A15399  21.346   4.346   8.678
  973POPC   D2A15400  21.445   4.388   8.278
  973POPC   C3A15401  21.151   4.370   7.980
  973POPC   C4A15402  21.104   4.331   7.575
  973POPC   C1B15403  21.712   4.628   8.891
  973POPC   C2B15404  21.865   4.784   8.516
  973POPC   C3B15405  21.925   4.509   8.166
  973POPC   C4B15406  21.651   4.412   7.788
  974POPC   NC315407  32.378  14.977   9.460
  974POPC   PO415408  32.008  15.438   9.465
  974POPC   GL115409  32.236  15.283   9.075
  974POPC   GL215410  32.273  14.893   8.980
  974POPC   C1A15411  32.303  15.343   8.652
  974POPC   D2A15412  32.139  15.261   8.277
  974POPC   C3A15413  32.290  15.345   7.876
  974POPC   C4A15414  32.037  15.401   7.518
  974POPC   C1B15415  32.335  14.840   8.540
  974POPC   C2B15416  32.592  15.031   8.188
  974POPC   C3B15417  32.607  14.969   7.748
  974POPC   C4B15418  32.337  14.882   7.396
  975POPC   NC315419  35.967  21.809   9.299
  975POPC   PO415420  35.816  22.441   9.622
  975POPC   GL115421  35.585  22.315   9.211
  975POPC   GL215422  35.340  22.045   9.188
  975POPC   C1A15423  35.341  22.444   8.834
  975POPC   D2A15424  35.286  22.279   8.431
  975POPC   C3A15425  35.235  22.485   8.046
  975POPC   C4A15426  35.329  22.423   7.619
  975POPC   C1B15427  35.505  21.926   8.782
  975POPC   C2B15428  35.455  21.781   8.363
  975POPC   C3B15429  35.324  21.981   7.990
  975POPC   C4B15430  35.285  21.920   7.556
  976POPC   NC315431  44.916  23.360   9.443
  976POPC   PO415432  44.672  23.911   9.639
  976POPC   GL115433  44.610  23.754   9.225
  976POPC   GL215434  44.463  23.464   9.169
  976POPC   C1A15435  44.504  23.845   8.813
  976POPC   D2A15436  44.782  23.972   8.499
  976POPC   C3A15437  44.901  23.715   8.193
  976POPC   C4A15438  44.923  24.002   7.838
  976POPC   C1B15439  44.572  23.327   8.763
  976POPC   C2B15440  44.427  23.528   8.381
  976POPC   C3B15441  44.424  23.714   7.979
  976POPC   C4B15442  44.729  23.545   7.742
  977POPC   NC315443  14.395  14.884   9.408
  977POPC   PO415444  14.618  15.488   9.589
  977POPC   GL115445  14.655  15.290   9.178
  977POPC   GL215446  14.278  15.283   9.103
  977POPC   C1A15447  14.606  15.074   8.764
  977POPC   D2A15448  14.580  14.959   8.330
  977POPC   C3A15449  14.644  15.203   7.983
  977POPC   C4A15450  14.699  14.908   7.689
  977POPC   C1B15451  14.059  15.043   8.765
  977POPC   C2B15452  14.073  15.081   8.329
  977POPC   C3B15453  14.206  14.910   7.944
  977POPC   C4B15454  14.229  15.042   7.521
  978POPC   NC315455  29.337   7.703   9.526
  978POPC   PO415456  28.715   7.444   9.568
  978POPC   GL115457  28.987   7.388   9.193
  978POPC   GL215458  29.333   7.250   9.276
  978POPC   C1A15459  28.995   7.556   8.748
  978POPC   D2A15460  29.207   7.766   8.382
  978POPC   C3A15461  29.054   7.568   7.982
  978POPC   C4A15462  29.244   7.405   7.583
  978POPC   C1B15463  29.370   7.240   8.866
  978POPC   C2B15464  29.318   7.266   8.412
  978POPC   C3B15465  29.282   7.093   8.003
  978POPC   C4B15466  28.957   7.022   7.749
  979POPC   NC315467   1.803  33.043   9.513
  979POPC   PO415468   2.457  33.240   9.405
  979POPC   GL115469   2.245  32.996   9.102
  979POPC   GL215470   1.920  32.824   9.050
  979POPC   C1A15471   2.184  33.072   8.665
  979POPC   D2A15472   2.428  33.097   8.300
  979POPC   C3A15473   2.245  32.918   7.858
  979POPC   C4A15474   2.025  32.769   7.447
  979POPC   C1B15475   1.770  32.802   8.612
  979POPC   C2B15476   1.891  33.017   8.217
  979POPC   C3B15477   1.729  32.974   7.794
  979POPC   C4B15478   1.487  32.815   7.449
  980POPC   NC315479  24.667  23.129   9.609
  980POPC   PO415480  24.285  22.681   9.431
  980POPC   GL115481  24.518  22.887   9.123
  980POPC   GL215482  24.842  23.018   9.103
  980POPC   C1A15483  24.667  22.698   8.744
  980POPC   D2A15484  24.525  22.489   8.389
  980POPC   C3A15485  24.620  22.721   8.036
  980POPC   C4A15486  24.379  22.747   7.683
  980POPC   C1B15487  24.665  23.233   8.748
  980POPC   C2B15488  24.678  23.288   8.310
  980POPC   C3B15489  24.421  23.195   7.956
  980POPC   C4B15490  24.757  23.122   7.686
  981POPC   NC315491  36.123   0.198   9.506
  981POPC   PO415492  36.605   0.622   9.655
  981POPC   GL115493  36.341   0.575   9.212
  981POPC   GL215494  36.009   0.423   9.048
  981POPC   C1A15495  36.420   0.382   8.782
  981POPC   D2A15496  36.372  44.976   8.533
  981POPC   C3A15497  36.363   0.057   8.083
  981POPC   C4A15498  36.411   0.473   7.884
  981POPC   C1B15499  35.836   0.729   8.741
  981POPC   C2B15500  35.596   0.771   8.338
  981POPC   C3B15501  35.784   0.675   7.939
  981POPC   C4B15502  35.932   0.243   7.880
  982POPC   NC315503  30.532   2.351   9.520
  982POPC   PO415504  30.586   2.986   9.562
  982POPC   GL115505  30.831   2.872   9.198
  982POPC   GL215506  30.498   2.774   9.069
  982POPC   C1A15507  31.106   2.848   8.802
  982POPC   D2A15508  30.993   3.005   8.390
  982POPC   C3A15509  30.702   2.799   8.110
  982POPC   C4A15510  30.832   2.915   7.727
  982POPC   C1B15511  30.650   2.664   8.637
  982POPC   C2B15512  31.005   2.478   8.379
  982POPC   C3B15513  31.066   2.500   7.915
  982POPC   C4B15514  30.725   2.460   7.578
  983POPC   NC315515   7.318  33.668   9.688
  983POPC   PO415516   7.664  34.181   9.584
  983POPC   GL115517   7.472  33.922   9.239
  983POPC   GL215518   7.563  33.569   9.198
  983POPC   C1A15519   7.423  33.835   8.790
  983POPC   D2A15520   7.574  33.822   8.382
  983POPC   C3A15521   7.307  33.689   8.027
  983POPC   C4A15522   7.404  33.981   7.713
  983POPC   C1B15523   7.864  33.451   8.844
  983POPC   C2B15524   7.962  33.405   8.398
  983POPC   C3B15525   7.808  33.574   8.006
  983POPC   C4B15526   7.655  33.570   7.600
  984POPC   NC315527  42.840  30.885   9.532
  984POPC   PO415528  43.240  30.286   9.539
  984POPC   GL115529  43.286  30.555   9.164
  984POPC   GL215530  42.938  30.604   9.127
  984POPC   C1A15531  43.220  30.670   8.702
  984POPC   D2A15532  43.144  30.600   8.246
  984POPC   C3A15533  43.230  30.861   7.863
  984POPC   C4A15534  43.481  31.060   7.518
  984POPC   C1B15535  42.799  30.375   8.804
  984POPC   C2B15536  42.678  30.281   8.412
  984POPC   C3B15537  42.767  30.334   8.040
  984POPC   C4B15538  42.814  30.511   7.681
  985POPC   NC315539  14.414  29.403   9.562
  985POPC   PO415540  14.416  28.699   9.514
  985POPC   GL115541  14.445  29.003   9.184
  985POPC   GL215542  14.175  29.248   9.146
  985POPC   C1A15543  14.301  28.949   8.752
  985POPC   D2A15544  14.043  28.942   8.378
  985POPC   C3A15545  14.344  28.886   8.059
  985POPC   C4A15546  14.460  28.914   7.643
  985POPC   C1B15547  14.500  29.407   8.862
  985POPC   C2B15548  14.255  29.387   8.501
  985POPC   C3B15549  14.157  29.372   8.088
  985POPC   C4B15550  14.412  29.430   7.765
  986POPC   NC315551  41.050  28.250   9.544
  986POPC   PO415552  40.437  28.212   9.406
  986POPC   GL115553  40.764  28.241   9.090
  986POPC   GL215554  41.043  28.490   9.105
  986POPC   C1A15555  40.645  28.301   8.668
  986POPC   D2A15556  40.302  28.399   8.374
  986POPC   C3A15557  40.571  28.412   8.030
  986POPC   C4A15558  40.674  28.251   7.624
  986POPC   C1B15559  40.979  28.677   8.738
  986POPC   C2B15560  41.041  28.478   8.330
  986POPC   C3B15561  41.085  28.407   7.898
  986POPC   C4B15562  41.276  28.729   7.634
  987POPC   NC315563  10.142   3.939   9.585
  987POPC   PO415564  10.599   3.415   9.609
  987POPC   GL115565  10.586   3.648   9.203
  987POPC   GL215566  10.249   3.739   9.117
  987POPC   C1A15567  10.671   3.731   8.760
  987POPC   D2A15568  10.499   3.655   8.348
  987POPC   C3A15569  10.700   3.677   7.934
  987POPC   C4A15570  10.442   3.474   7.599
  987POPC   C1B15571  10.178   3.888   8.695
  987POPC   C2B15572   9.988   3.805   8.304
  987POPC   C3B15573  10.214   3.826   7.942
  987POPC   C4B15574  10.125   3.875   7.534
  988POPC   NC315575  27.097  23.389   9.806
  988POPC   PO415576  26.634  23.785   9.564
  988POPC   GL115577  26.563  23.881   9.112
  988POPC   GL215578  26.887  23.746   9.023
  988POPC   C1A15579  26.587  23.873   8.637
  988POPC   D2A15580  26.773  23.563   8.366
  988POPC   C3A15581  26.695  23.628   7.936
  988POPC   C4A15582  26.566  23.406   7.584
  988POPC   C1B15583  27.086  23.932   8.639
  988POPC   C2B15584  27.028  23.973   8.196
  988POPC   C3B15585  27.191  23.709   7.858
  988POPC   C4B15586  27.004  23.681   7.462
  989POPC   NC315587  25.797  18.152   9.661
  989POPC   PO415588  26.123  18.717   9.575
  989POPC   GL115589  26.168  18.426   9.233
  989POPC   GL215590  25.908  18.224   9.182
  989POPC   C1A15591  26.060  18.490   8.777
  989POPC   D2A15592  25.876  18.312   8.400
  989POPC   C3A15593  25.981  18.592   8.070
  989POPC   C4A15594  26.141  18.646   7.657
  989POPC   C1B15595  25.908  17.992   8.825
  989POPC   C2B15596  25.610  17.840   8.534
  989POPC   C3B15597  25.666  17.911   8.110
  989POPC   C4B15598  25.947  18.133   7.818
  990POPC   NC315599  19.681  40.969   9.408
  990POPC   PO415600  20.434  41.007   9.569
  990POPC   GL115601  20.275  40.841   9.138
  990POPC   GL215602  19.940  40.655   9.098
  990POPC   C1A15603  20.156  40.876   8.668
  990POPC   D2A15604  19.832  40.836   8.336
  990POPC   C3A15605  19.887  40.938   7.915
  990POPC   C4A15606  20.092  40.629   7.716
  990POPC   C1B15607  19.725  40.485   8.735
  990POPC   C2B15608  19.392  40.596   8.427
  990POPC   C3B15609  19.544  40.479   8.016
  990POPC   C4B15610  19.535  40.650   7.600
  991POPC   NC315611   7.907  20.093   9.455
  991POPC   PO415612   7.566  19.557   9.391
  991POPC   GL115613   7.512  19.892   9.109
  991POPC   GL215614   7.709  20.206   8.984
  991POPC   C1A15615   7.355  19.773   8.705
  991POPC   D2A15616   7.565  19.921   8.313
  991POPC   C3A15617   7.416  19.701   7.953
  991POPC   C4A15618   7.606  19.581   7.582
  991POPC   C1B15619   7.268  20.248   8.815
  991POPC   C2B15620   7.089  20.078   8.403
  991POPC   C3B15621   7.226  20.201   7.987
  991POPC   C4B15622   7.237  20.119   7.551
  992POPC   NC315623  36.449  10.843   9.426
  992POPC   PO415624  35.771  10.649   9.454
  992POPC   GL115625  36.038  10.694   9.150
  992POPC   GL215626  36.300  10.421   9.143
  992POPC   C1A15627  36.009  10.569   8.735
  992POPC   D2A15628  36.202  10.641   8.367
  992POPC   C3A15629  35.978  10.498   8.005
  992POPC   C4A15630  36.316  10.627   7.788
  992POPC   C1B15631  36.212  10.108   8.785
  992POPC   C2B15632  36.143  10.133   8.330
  992POPC   C3B15633  36.303  10.122   7.892
  992POPC   C4B15634  36.210   9.918   7.523
  993POPC   NC315635   0.794  17.207   9.566
  993POPC   PO415636   0.322  17.675   9.517
  993POPC   GL115637   0.401  17.395   9.155
  993POPC   GL215638   0.637  17.179   9.101
  993POPC   C1A15639   0.268  17.497   8.731
  993POPC   D2A15640   0.447  17.808   8.452
  993POPC   C3A15641   0.445  17.650   8.059
  993POPC   C4A15642   0.135  17.676   7.736
  993POPC   C1B15643   0.428  17.005   8.785
  993POPC   C2B15644   0.266  17.067   8.424
  993POPC   C3B15645   0.526  17.116   8.093
  993POPC   C4B15646   0.524  17.290   7.698
  994POPC   NC315647   1.563  37.760   9.584
  994POPC   PO415648   0.833  38.019   9.580
  994POPC   GL115649   1.115  37.754   9.235
  994POPC   GL215650   1.462  37.616   9.136
  994POPC   C1A15651   1.236  37.870   8.774
  994POPC   D2A15652   1.098  37.692   8.391
  994POPC   C3A15653   1.250  37.816   8.023
  994POPC   C4A15654   1.108  37.686   7.637
  994POPC   C1B15655   1.759  37.512   8.834
  994POPC   C2B15656   1.600  37.602   8.417
  994POPC   C3B15657   1.749  37.635   8.031
  994POPC   C4B15658   1.625  37.752   7.666
  995POPC   NC315659  42.839  27.788   9.364
  995POPC   PO415660  43.039  27.216   9.499
  995POPC   GL115661  43.059  27.396   9.088
  995POPC   GL215662  43.358  27.601   9.133
  995POPC   C1A15663  42.867  27.485   8.675
  995POPC   D2A15664  42.596  27.664   8.350
  995POPC   C3A15665  42.793  27.794   7.997
  995POPC   C4A15666  43.013  27.453   7.862
  995POPC   C1B15667  43.259  27.810   8.759
  995POPC   C2B15668  43.220  27.703   8.351
  995POPC   C3B15669  43.291  27.935   8.027
  995POPC   C4B15670  43.329  27.785   7.662
  996POPC   NC315671  37.194  29.418   9.584
  996POPC   PO415672  36.642  29.047   9.429
  996POPC   GL115673  36.897  29.271   9.159
  996POPC   GL215674  37.147  29.028   9.208
  996POPC   C1A15675  36.898  29.225   8.717
  996POPC   D2A15676  36.713  28.896   8.467
  996POPC   C3A15677  36.722  29.005   8.055
  996POPC   C4A15678  36.768  29.386   7.791
  996POPC   C1B15679  37.366  29.114   8.805
  996POPC   C2B15680  37.269  29.068   8.366
  996POPC   C3B15681  37.226  29.077   7.932
  996POPC   C4B15682  37.350  29.051   7.479
  997POPC   NC315683  40.114  41.545   9.495
  997POPC   PO415684  39.523  41.846   9.503
  997POPC   GL115685  39.811  41.771   9.166
  997POPC   GL215686  39.700  41.472   9.155
  997POPC   C1A15687  40.045  41.484   8.789
  997POPC   D2A15688  40.191  41.444   8.315
  997POPC   C3A15689  40.464  41.234   7.988
  997POPC   C4A15690  40.481  41.474   7.621
  997POPC   C1B15691  39.562  41.664   8.753
  997POPC   C2B15692  39.450  41.688   8.346
  997POPC   C3B15693  39.704  41.632   8.003
  997POPC   C4B15694  39.987  41.367   7.816
  998POPC   NC315695   2.205   7.999   9.544
  998POPC   PO415696   1.619   8.168   9.340
  998POPC   GL115697   1.822   8.339   9.031
  998POPC   GL215698   2.131   8.230   9.088
  998POPC   C1A15699   1.939   8.270   8.609
  998POPC   D2A15700   2.017   7.976   8.309
  998POPC   C3A15701   1.914   8.235   7.970
  998POPC   C4A15702   1.779   8.630   7.775
  998POPC   C1B15703   2.371   8.028   8.768
  998POPC   C2B15704   2.513   8.108   8.361
  998POPC   C3B15705   2.381   8.004   7.943
  998POPC   C4B15706   2.204   8.242   7.559
  999POPC   NC315707  26.196  23.624   9.580
  999POPC   PO415708  26.243  24.193   9.397
  999POPC   GL115709  26.033  23.895   9.164
  999POPC   GL215710  25.737  23.727   9.263
  999POPC   C1A15711  26.153  23.676   8.834
  999POPC   D2A15712  26.246  23.579   8.415
  999POPC   C3A15713  26.261  23.846   8.070
  999POPC   C4A15714  26.150  23.676   7.688
  999POPC   C1B15715  25.664  23.533   8.853
  999POPC   C2B15716  25.759  23.428   8.427
  999POPC   C3B15717  25.793  23.647   8.058
  999POPC   C4B15718  25.592  23.671   7.648
 1000POPC   NC315719   9.139  23.858  10.087
 1000POPC   PO415720   8.803  23.727   9.478
 1000POPC   GL115721   8.892  23.731   9.078
 1000POPC   GL215722   8.619  23.861   9.011
 1000POPC   C1A15723   8.831  23.555   8.665
 1000POPC   D2A15724   9.113  23.431   8.354
 1000POPC   C3A15725   9.303  23.733   8.071
 1000POPC   C4A15726   9.287  23.756   7.647
 1000POPC   C1B15727   8.770  24.082   8.706
 1000POPC   C2B15728   8.948  23.953   8.356
 1000POPC   C3B15729   8.786  23.697   8.015
 1000POPC   C4B15730   8.755  23.833   7.600
 1001POPC   NC315731   3.024  33.632   9.452
 1001POPC   PO415732   2.573  34.138   9.653
 1001POPC   GL115733   2.650  33.939   9.266
 1001POPC   GL215734   2.657  33.602   9.109
 1001POPC   C1A15735   2.574  33.994   8.814
 1001POPC   D2A15736   2.768  34.094   8.422
 1001POPC   C3A15737   2.545  34.014   8.041
 1001POPC   C4A15738   2.738  34.082   7.693
 1001POPC   C1B15739   2.810  33.541   8.681
 1001POPC   C2B15740   2.677  33.556   8.247
 1001POPC   C3B15741   2.845  33.617   7.826
 1001POPC   C4B15742   2.955  33.584   7.386
 1002POPC   NC315743   6.509   1.697   9.613
 1002POPC   PO415744   6.766   2.325   9.476
 1002POPC   GL115745   6.800   1.946   9.251
 1002POPC   GL215746   6.470   1.876   9.118
 1002POPC   C1A15747   6.872   1.870   8.814
 1002POPC   D2A15748   6.732   2.059   8.444
 1002POPC   C3A15749   6.733   1.941   8.021
 1002POPC   C4A15750   6.832   2.252   7.728
 1002POPC   C1B15751   6.303   1.958   8.687
 1002POPC   C2B15752   6.292   1.740   8.284
 1002POPC   C3B15753   6.189   1.787   7.834
 1002POPC   C4B15754   6.386   1.757   7.400
 1003POPC   NC315755  11.819  44.064   9.516
 1003POPC   PO415756  12.135  43.463   9.625
 1003POPC   GL115757  11.885  43.707   9.187
 1003POPC   GL215758  12.029  44.045   9.069
 1003POPC   C1A15759  11.669  43.907   8.745
 1003POPC   D2A15760  11.597  44.198   8.363
 1003POPC   C3A15761  11.683  44.040   7.962
 1003POPC   C4A15762  12.049  43.917   7.799
 1003POPC   C1B15763  12.169  43.973   8.664
 1003POPC   C2B15764  12.106  44.001   8.281
 1003POPC   C3B15765  12.421  44.183   7.989
 1003POPC   C4B15766  12.309  44.240   7.544
 1004POPC   NC315767  41.713  39.223   9.554
 1004POPC   PO415768  42.193  38.681   9.524
 1004POPC   GL115769  42.041  39.036   9.200
 1004POPC   GL215770  41.662  39.055   9.101
 1004POPC   C1A15771  41.978  39.258   8.783
 1004POPC   D2A15772  41.858  39.015   8.431
 1004POPC   C3A15773  41.638  39.156   8.059
 1004POPC   C4A15774  41.692  38.867   7.703
 1004POPC   C1B15775  41.441  39.039   8.748
 1004POPC   C2B15776  41.249  39.198   8.419
 1004POPC   C3B15777  41.071  39.046   8.066
 1004POPC   C4B15778  41.223  39.089   7.715
 1005POPC   NC315779  14.434  41.272   9.688
 1005POPC   PO415780  14.058  41.606   9.217
 1005POPC   GL115781  14.353  41.401   8.972
 1005POPC   GL215782  14.713  41.512   8.977
 1005POPC   C1A15783  14.367  41.554   8.568
 1005POPC   D2A15784  14.166  41.825   8.292
 1005POPC   C3A15785  14.198  41.675   7.911
 1005POPC   C4A15786  14.265  41.493   7.523
 1005POPC   C1B15787  14.772  41.839   8.700
 1005POPC   C2B15788  14.679  41.886   8.269
 1005POPC   C3B15789  14.705  41.738   7.826
 1005POPC   C4B15790  14.596  41.845   7.395
 1006POPC   NC315791  29.637  17.287   9.457
 1006POPC   PO415792  29.768  17.910   9.610
 1006POPC   GL115793  29.688  17.746   9.199
 1006POPC   GL215794  29.983  17.511   9.163
 1006POPC   C1A15795  29.550  17.485   8.837
 1006POPC   D2A15796  29.694  17.420   8.416
 1006POPC   C3A15797  29.714  17.777   8.203
 1006POPC   C4A15798  29.579  17.544   7.865
 1006POPC   C1B15799  30.038  17.632   8.753
 1006POPC   C2B15800  30.195  17.562   8.351
 1006POPC   C3B15801  30.098  17.503   7.950
 1006POPC   C4B15802  30.166  17.692   7.571
 1007POPC   NC315803  41.928  39.945   9.429
 1007POPC   PO415804  41.379  39.548   9.477
 1007POPC   GL115805  41.463  39.908   9.189
 1007POPC   GL215806  41.316  40.246   9.224
 1007POPC   C1A15807  41.665  39.844   8.782
 1007POPC   D2A15808  41.650  39.519   8.465
 1007POPC   C3A15809  41.560  39.694   8.059
 1007POPC   C4A15810  41.286  39.924   7.780
 1007POPC   C1B15811  41.430  40.296   8.806
 1007POPC   C2B15812  41.453  40.118   8.377
 1007POPC   C3B15813  41.573  40.301   7.987
 1007POPC   C4B15814  41.399  40.350   7.556
 1008POPC   NC315815  29.964  31.690   9.465
 1008POPC   PO415816  29.710  31.057   9.531
 1008POPC   GL115817  29.935  31.241   9.165
 1008POPC   GL215818  29.808  31.551   8.998
 1008POPC   C1A15819  30.251  31.268   8.813
 1008POPC   D2A15820  30.326  31.470   8.385
 1008POPC   C3A15821  29.999  31.369   8.077
 1008POPC   C4A15822  29.575  31.505   7.968
 1008POPC   C1B15823  30.157  31.779   8.792
 1008POPC   C2B15824  30.233  31.974   8.385
 1008POPC   C3B15825  29.940  31.896   8.069
 1008POPC   C4B15826  29.951  31.696   7.664
 1009POPC   NC315827  38.716  29.185   9.653
 1009POPC   PO415828  38.229  29.289   9.212
 1009POPC   GL115829  38.649  29.128   9.126
 1009POPC   GL215830  38.959  29.341   9.221
 1009POPC   C1A15831  38.723  28.933   8.701
 1009POPC   D2A15832  38.554  28.915   8.253
 1009POPC   C3A15833  38.298  29.276   8.039
 1009POPC   C4A15834  38.159  29.195   7.582
 1009POPC   C1B15835  38.948  29.388   8.795
 1009POPC   C2B15836  38.757  29.372   8.417
 1009POPC   C3B15837  38.833  29.279   7.993
 1009POPC   C4B15838  38.605  29.004   7.731
 1010POPC   NC315839  11.071  10.259   9.444
 1010POPC   PO415840  11.481  10.736   9.440
 1010POPC   GL115841  11.411  10.495   9.104
 1010POPC   GL215842  11.473  10.137   9.153
 1010POPC   C1A15843  11.402  10.669   8.692
 1010POPC   D2A15844  11.172  10.802   8.335
 1010POPC   C3A15845  11.357  10.645   7.977
 1010POPC   C4A15846  11.387  10.810   7.565
 1010POPC   C1B15847  11.284  10.144   8.773
 1010POPC   C2B15848  11.139  10.297   8.436
 1010POPC   C3B15849  11.193  10.166   8.059
 1010POPC   C4B15850  10.994  10.337   7.741
 1011POPC   NC315851  14.331  11.031   9.475
 1011POPC   PO415852  14.672  11.643   9.289
 1011POPC   GL115853  14.425  11.355   9.097
 1011POPC   GL215854  14.505  11.004   9.019
 1011POPC   C1A15855  14.326  11.488   8.731
 1011POPC   D2A15856  14.060  11.417   8.423
 1011POPC   C3A15857  14.255  11.422   8.042
 1011POPC   C4A15858  14.068  11.572   7.668
 1011POPC   C1B15859  14.698  11.056   8.670
 1011POPC   C2B15860  14.649  11.291   8.346
 1011POPC   C3B15861  14.787  11.211   7.964
 1011POPC   C4B15862  14.702  11.085   7.552
 1012POPC   NC315863  37.798  13.413   9.489
 1012POPC   PO415864  37.551  14.017   9.550
 1012POPC   GL115865  37.528  13.799   9.183
 1012POPC   GL215866  37.844  13.701   9.075
 1012POPC   C1A15867  37.411  13.668   8.752
 1012POPC   D2A15868  37.733  13.663   8.449
 1012POPC   C3A15869  37.595  13.752   8.080
 1012POPC   C4A15870  37.398  13.955   7.788
 1012POPC   C1B15871  37.775  13.306   8.849
 1012POPC   C2B15872  37.737  13.149   8.453
 1012POPC   C3B15873  37.595  13.246   8.068
 1012POPC   C4B15874  37.634  13.408   7.693
 1013POPC   NC315875  40.205  11.223   9.410
 1013POPC   PO415876  39.670  11.675   9.331
 1013POPC   GL115877  39.925  11.464   9.056
 1013POPC   GL215878  39.889  11.092   9.037
 1013POPC   C1A15879  40.001  11.384   8.642
 1013POPC   D2A15880  39.955  11.529   8.256
 1013POPC   C3A15881  40.308  11.630   8.044
 1013POPC   C4A15882  40.295  11.467   7.652
 1013POPC   C1B15883  40.224  10.933   8.737
 1013POPC   C2B15884  40.312  11.119   8.339
 1013POPC   C3B15885  40.134  11.120   7.984
 1013POPC   C4B15886  40.179  10.881   7.651
 1014POPC   NC315887  10.849  20.208   9.587
 1014POPC   PO415888  10.257  19.757   9.529
 1014POPC   GL115889  10.635  19.817   9.290
 1014POPC   GL215890  10.576  19.512   9.151
 1014POPC   C1A15891  10.788  20.025   8.903
 1014POPC   D2A15892  10.503  20.031   8.543
 1014POPC   C3A15893  10.626  20.096   8.143
 1014POPC   C4A15894  10.474  19.966   7.732
 1014POPC   C1B15895  10.544  19.585   8.771
 1014POPC   C2B15896  10.785  19.640   8.418
 1014POPC   C3B15897  10.444  19.638   8.143
 1014POPC   C4B15898  10.316  19.463   7.796
 1015POPC   NC315899  33.237  40.819   9.648
 1015POPC   PO415900  32.623  40.557   9.672
 1015POPC   GL115901  32.771  40.775   9.269
 1015POPC   GL215902  33.101  40.880   9.181
 1015POPC   C1A15903  32.768  40.835   8.801
 1015POPC   D2A15904  32.631  40.746   8.378
 1015POPC   C3A15905  32.925  40.840   8.048
 1015POPC   C4A15906  32.929  41.179   7.765
 1015POPC   C1B15907  33.307  40.814   8.817
 1015POPC   C2B15908  33.165  40.633   8.487
 1015POPC   C3B15909  33.302  40.487   8.128
 1015POPC   C4B15910  33.159  40.463   7.752
 1016POPC   NC315911   3.814   7.941   9.552
 1016POPC   PO415912   3.179   8.320   9.401
 1016POPC   GL115913   3.456   8.054   9.176
 1016POPC   GL215914   3.788   8.231   9.090
 1016POPC   C1A15915   3.350   7.972   8.754
 1016POPC   D2A15916   3.531   8.044   8.356
 1016POPC   C3A15917   3.353   8.309   8.075
 1016POPC   C4A15918   3.202   8.250   7.693
 1016POPC   C1B15919   3.887   8.361   8.640
 1016POPC   C2B15920   3.880   8.362   8.155
 1016POPC   C3B15921   3.747   8.193   7.730
 1016POPC   C4B15922   3.939   8.219   7.267
 1017POPC   NC315923  20.403  38.741   9.527
 1017POPC   PO415924  20.674  38.113   9.611
 1017POPC   GL115925  20.716  38.328   9.240
 1017POPC   GL215926  20.868  38.620   9.320
 1017POPC   C1A15927  20.614  38.187   8.825
 1017POPC   D2A15928  20.349  38.032   8.493
 1017POPC   C3A15929  20.601  38.124   8.122
 1017POPC   C4A15930  20.772  38.436   7.856
 1017POPC   C1B15931  20.750  38.701   8.877
 1017POPC   C2B15932  20.706  38.556   8.434
 1017POPC   C3B15933  20.417  38.723   8.128
 1017POPC   C4B15934  20.432  38.908   7.725
 1018POPC   NC315935  20.656  43.766   9.504
 1018POPC   PO415936  20.236  44.279   9.590
 1018POPC   GL115937  20.381  44.099   9.193
 1018POPC   GL215938  20.731  44.113   9.135
 1018POPC   C1A15939  20.474  43.782   8.838
 1018POPC   D2A15940  20.610  43.594   8.422
 1018POPC   C3A15941  20.372  43.703   8.061
 1018POPC   C4A15942  20.420  43.981   7.677
 1018POPC   C1B15943  20.584  44.277   8.750
 1018POPC   C2B15944  20.427  44.106   8.394
 1018POPC   C3B15945  20.720  44.102   8.066
 1018POPC   C4B15946  20.790  44.336   7.701
 1019POPC   NC315947   3.374   4.153   9.853
 1019POPC   PO415948   3.794   4.363   9.406
 1019POPC   GL115949   3.662   4.328   9.046
 1019POPC   GL215950   3.331   4.188   9.125
 1019POPC   C1A15951   3.838   4.402   8.648
 1019POPC   D2A15952   3.924   4.508   8.208
 1019POPC   C3A15953   4.046   4.228   7.918
 1019POPC   C4A15954   3.716   4.080   7.696
 1019POPC   C1B15955   3.290   4.365   8.709
 1019POPC   C2B15956   3.093   4.556   8.373
 1019POPC   C3B15957   3.259   4.367   8.025
 1019POPC   C4B15958   3.404   4.463   7.668
 1020POPC   NC315959  34.028   0.302  10.167
 1020POPC   PO415960  33.882   0.559   9.572
 1020POPC   GL115961  33.754   0.415   9.171
 1020POPC   GL215962  34.056   0.312   9.083
 1020POPC   C1A15963  33.847   0.662   8.764
 1020POPC   D2A15964  34.137   0.821   8.442
 1020POPC   C3A15965  33.925   0.774   8.067
 1020POPC   C4A15966  33.600   0.516   7.857
 1020POPC   C1B15967  33.990   0.182   8.680
 1020POPC   C2B15968  33.855   0.301   8.296
 1020POPC   C3B15969  34.059   0.268   7.911
 1020POPC   C4B15970  33.824   0.122   7.570
 1021POPC   NC315971  12.270  15.833   9.521
 1021POPC   PO415972  11.648  15.870   9.595
 1021POPC   GL115973  11.841  15.762   9.211
 1021POPC   GL215974  11.975  16.101   9.200
 1021POPC   C1A15975  12.098  15.760   8.814
 1021POPC   D2A15976  11.946  15.894   8.424
 1021POPC   C3A15977  12.172  15.826   8.065
 1021POPC   C4A15978  12.081  15.925   7.686
 1021POPC   C1B15979  12.205  16.258   8.849
 1021POPC   C2B15980  12.185  16.359   8.435
 1021POPC   C3B15981  11.977  16.300   8.075
 1021POPC   C4B15982  12.014  16.437   7.670
 1022POPC   NC315983  12.145   7.059   9.802
 1022POPC   PO415984  12.140   6.429   9.600
 1022POPC   GL115985  12.065   6.568   9.205
 1022POPC   GL215986  12.365   6.671   9.027
 1022POPC   C1A15987  11.876   6.580   8.815
 1022POPC   D2A15988  11.809   6.269   8.507
 1022POPC   C3A15989  12.035   6.438   8.189
 1022POPC   C4A15990  12.001   6.509   7.742
 1022POPC   C1B15991  12.218   6.889   8.643
 1022POPC   C2B15992  11.946   6.926   8.290
 1022POPC   C3B15993  12.167   7.017   7.918
 1022POPC   C4B15994  12.217   6.902   7.463
 1023POPC   NC315995  11.381  17.117  10.048
 1023POPC   PO415996  11.181  16.668   9.579
 1023POPC   GL115997  11.160  16.575   9.160
 1023POPC   GL215998  10.966  16.286   9.192
 1023POPC   C1A15999  11.067  16.786   8.759
 1023POPC   D2A16000  11.240  16.661   8.362
 1023POPC   C3A16001  11.216  16.914   7.978
 1023POPC   C4A16002  11.259  16.844   7.529
 1023POPC   C1B16003  10.781  16.335   8.757
 1023POPC   C2B16004  10.851  16.322   8.276
 1023POPC   C3B16005  11.137  16.413   7.922
 1023POPC   C4B16006  11.105  16.377   7.468
 1024POPC   NC316007  14.673  17.851   9.429
 1024POPC   PO416008  14.229  18.421   9.623
 1024POPC   GL116009  14.359  18.379   9.219
 1024POPC   GL216010  14.086  18.493   9.122
 1024POPC   C1A16011  14.521  18.425   8.779
 1024POPC   D2A16012  14.660  18.219   8.365
 1024POPC   C3A16013  14.531  18.341   7.968
 1024POPC   C4A16014  14.729  18.348   7.556
 1024POPC   C1B16015  14.002  18.264   8.767
 1024POPC   C2B16016  14.170  18.298   8.393
 1024POPC   C3B16017  14.062  18.148   8.009
 1024POPC   C4B16018  14.136  18.420   7.670
 1025POPC   NC316019  32.472  13.982   9.462
 1025POPC   PO416020  32.041  13.394   9.511
 1025POPC   GL116021  32.146  13.710   9.173
 1025POPC   GL216022  32.471  13.835   8.991
 1025POPC   C1A16023  32.092  13.601   8.758
 1025POPC   D2A16024  32.246  13.474   8.396
 1025POPC   C3A16025  32.123  13.838   8.220
 1025POPC   C4A16026  32.052  13.669   7.850
 1025POPC   C1B16027  32.608  13.458   8.776
 1025POPC   C2B16028  32.771  13.517   8.372
 1025POPC   C3B16029  32.577  13.737   8.022
 1025POPC   C4B16030  32.450  13.773   7.574
 1026POPC   NC316031  40.982  39.980   9.566
 1026POPC   PO416032  40.416  40.403   9.721
 1026POPC   GL116033  40.484  40.249   9.252
 1026POPC   GL216034  40.668  39.949   9.174
 1026POPC   C1A16035  40.606  40.257   8.805
 1026POPC   D2A16036  40.695  39.963   8.469
 1026POPC   C3A16037  40.890  40.080   8.112
 1026POPC   C4A16038  40.708  40.299   7.756
 1026POPC   C1B16039  41.040  39.951   8.866
 1026POPC   C2B16040  41.159  39.709   8.460
 1026POPC   C3B16041  41.043  39.559   8.029
 1026POPC   C4B16042  40.788  39.775   7.715
 1027POPC   NC316043  41.107  30.163   9.440
 1027POPC   PO416044  40.442  29.869   9.471
 1027POPC   GL116045  40.782  29.885   9.184
 1027POPC   GL216046  40.977  29.567   9.200
 1027POPC   C1A16047  41.077  29.965   8.821
 1027POPC   D2A16048  40.934  30.236   8.490
 1027POPC   C3A16049  41.021  30.281   8.054
 1027POPC   C4A16050  40.644  30.411   7.887
 1027POPC   C1B16051  40.715  29.579   8.805
 1027POPC   C2B16052  40.893  29.702   8.410
 1027POPC   C3B16053  40.662  29.908   8.112
 1027POPC   C4B16054  40.682  29.906   7.691
 1028POPC   NC316055  39.268  13.939   9.488
 1028POPC   PO416056  39.120  13.223   9.492
 1028POPC   GL116057  39.195  13.492   9.163
 1028POPC   GL216058  38.937  13.717   9.138
 1028POPC   C1A16059  39.384  13.696   8.813
 1028POPC   D2A16060  39.273  13.748   8.388
 1028POPC   C3A16061  39.483  13.605   8.032
 1028POPC   C4A16062  39.524  13.266   7.787
 1028POPC   C1B16063  38.917  13.896   8.730
 1028POPC   C2B16064  38.946  14.132   8.343
 1028POPC   C3B16065  39.253  14.073   7.983
 1028POPC   C4B16066  39.257  13.783   7.596
 1029POPC   NC316067   2.409  17.987   9.446
 1029POPC   PO416068   2.831  18.555   9.414
 1029POPC   GL116069   2.867  18.419   9.023
 1029POPC   GL216070   2.724  18.098   9.058
 1029POPC   C1A16071   2.782  18.313   8.588
 1029POPC   D2A16072   2.425  18.434   8.312
 1029POPC   C3A16073   2.581  18.460   7.918
 1029POPC   C4A16074   3.020  18.344   7.829
 1029POPC   C1B16075   2.433  17.847   8.801
 1029POPC   C2B16076   2.546  17.903   8.390
 1029POPC   C3B16077   2.788  17.953   8.047
 1029POPC   C4B16078   2.555  18.004   7.690
 1030POPC   NC316079   5.060   4.343   9.555
 1030POPC   PO416080   5.484   4.808   9.289
 1030POPC   GL116081   5.329   4.411   9.090
 1030POPC   GL216082   5.288   4.056   9.132
 1030POPC   C1A16083   4.998   4.264   8.797
 1030POPC   D2A16084   4.830   4.462   8.445
 1030POPC   C3A16085   5.057   4.542   8.096
 1030POPC   C4A16086   4.813   4.495   7.741
 1030POPC   C1B16087   5.312   3.871   8.755
 1030POPC   C2B16088   5.264   4.122   8.378
 1030POPC   C3B16089   5.016   4.056   8.024
 1030POPC   C4B16090   5.268   4.267   7.692
 1031POPC   NC316091   6.245  36.569   9.251
 1031POPC   PO416092   6.639  36.097   9.518
 1031POPC   GL116093   6.547  36.023   9.087
 1031POPC   GL216094   6.247  35.834   8.978
 1031POPC   C1A16095   6.782  36.027   8.695
 1031POPC   D2A16096   6.722  36.284   8.318
 1031POPC   C3A16097   6.685  36.139   7.884
 1031POPC   C4A16098   6.880  35.844   7.575
 1031POPC   C1B16099   6.318  36.236   8.698
 1031POPC   C2B16100   6.284  36.538   8.406
 1031POPC   C3B16101   6.215  36.261   8.108
 1031POPC   C4B16102   6.176  35.867   7.859
 1032POPC   NC316103  39.557  13.125   9.254
 1032POPC   PO416104  40.039  12.975   9.684
 1032POPC   GL116105  40.062  12.848   9.179
 1032POPC   GL216106  40.370  12.694   9.086
 1032POPC   C1A16107  39.951  13.086   8.734
 1032POPC   D2A16108  39.744  13.207   8.316
 1032POPC   C3A16109  39.886  12.953   7.954
 1032POPC   C4A16110  39.864  12.906   7.528
 1032POPC   C1B16111  40.219  12.657   8.692
 1032POPC   C2B16112  40.215  12.825   8.319
 1032POPC   C3B16113  40.206  12.539   7.996
 1032POPC   C4B16114  40.043  12.399   7.624
 1033POPC   NC316115  36.393  15.074   9.548
 1033POPC   PO416116  35.855  15.323   9.403
 1033POPC   GL116117  36.094  15.113   9.078
 1033POPC   GL216118  36.423  14.945   9.057
 1033POPC   C1A16119  36.266  15.353   8.756
 1033POPC   D2A16120  36.049  15.437   8.392
 1033POPC   C3A16121  36.283  15.430   8.042
 1033POPC   C4A16122  36.092  15.458   7.709
 1033POPC   C1B16123  36.264  14.838   8.644
 1033POPC   C2B16124  36.132  14.924   8.239
 1033POPC   C3B16125  36.196  14.973   7.801
 1033POPC   C4B16126  36.385  15.125   7.438
 1034POPC   NC316127  22.715  21.442   9.526
 1034POPC   PO416128  22.825  22.084   9.686
 1034POPC   GL116129  22.767  22.075   9.240
 1034POPC   GL216130  22.532  21.857   9.291
 1034POPC   C1A16131  22.968  22.064   8.815
 1034POPC   D2A16132  23.140  22.263   8.442
 1034POPC   C3A16133  22.901  22.156   8.083
 1034POPC   C4A16134  23.046  22.234   7.669
 1034POPC   C1B16135  22.499  21.817   8.864
 1034POPC   C2B16136  22.694  21.759   8.475
 1034POPC   C3B16137  22.488  21.792   8.084
 1034POPC   C4B16138  22.630  21.910   7.702
 1035POPC   NC316139   6.442  18.260   9.379
 1035POPC   PO416140   6.935  18.530   9.667
 1035POPC   GL116141   6.860  18.457   9.187
 1035POPC   GL216142   6.554  18.693   9.134
 1035POPC   C1A16143   6.648  18.267   8.786
 1035POPC   D2A16144   6.462  18.239   8.389
 1035POPC   C3A16145   6.733  18.516   8.162
 1035POPC   C4A16146   7.045  18.391   7.820
 1035POPC   C1B16147   6.251  18.669   8.800
 1035POPC   C2B16148   6.251  18.712   8.374
 1035POPC   C3B16149   6.165  18.478   8.016
 1035POPC   C4B16150   6.509  18.408   7.731
 1036POPC   NC316151  31.021  17.855   9.455
 1036POPC   PO416152  30.942  17.161   9.398
 1036POPC   GL116153  31.018  17.462   9.121
 1036POPC   GL216154  30.641  17.444   9.064
 1036POPC   C1A16155  30.990  17.608   8.712
 1036POPC   D2A16156  30.649  17.391   8.506
 1036POPC   C3A16157  30.675  17.328   8.063
 1036POPC   C4A16158  31.009  17.512   7.792
 1036POPC   C1B16159  30.515  17.812   8.830
 1036POPC   C2B16160  30.571  17.935   8.399
 1036POPC   C3B16161  30.541  17.808   7.974
 1036POPC   C4B16162  30.638  18.021   7.617
 1037POPC   NC316163  30.427  27.406   9.587
 1037POPC   PO416164  30.382  28.049   9.530
 1037POPC   GL116165  30.544  27.801   9.148
 1037POPC   GL216166  30.666  27.431   9.146
 1037POPC   C1A16167  30.800  27.918   8.772
 1037POPC   D2A16168  30.949  27.984   8.348
 1037POPC   C3A16169  30.710  27.840   7.951
 1037POPC   C4A16170  30.547  27.544   7.601
 1037POPC   C1B16171  30.562  27.452   8.739
 1037POPC   C2B16172  30.731  27.534   8.356
 1037POPC   C3B16173  30.751  27.285   8.015
 1037POPC   C4B16174  31.119  27.066   7.935
 1038POPC   NC316175  16.633  11.025   9.626
 1038POPC   PO416176  16.290  11.616   9.439
 1038POPC   GL116177  16.555  11.403   9.143
 1038POPC   GL216178  16.868  11.221   9.127
 1038POPC   C1A16179  16.631  11.446   8.728
 1038POPC   D2A16180  16.574  11.653   8.350
 1038POPC   C3A16181  16.698  11.348   8.066
 1038POPC   C4A16182  16.952  11.183   7.753
 1038POPC   C1B16183  17.016  11.047   8.713
 1038POPC   C2B16184  17.079  10.989   8.247
 1038POPC   C3B16185  17.180  10.741   7.847
 1038POPC   C4B16186  16.966  10.818   7.380
 1039POPC   NC316187  15.929  19.356   9.655
 1039POPC   PO416188  16.503  18.992   9.462
 1039POPC   GL116189  16.070  18.986   9.270
 1039POPC   GL216190  16.091  19.283   9.043
 1039POPC   C1A16191  15.753  18.925   8.930
 1039POPC   D2A16192  15.850  19.132   8.521
 1039POPC   C3A16193  15.786  19.003   8.073
 1039POPC   C4A16194  15.973  19.186   7.698
 1039POPC   C1B16195  16.262  18.914   8.773
 1039POPC   C2B16196  16.500  18.859   8.366
 1039POPC   C3B16197  16.332  18.811   7.921
 1039POPC   C4B16198  16.364  18.902   7.468
 1040POPC   NC316199  15.344  23.238   9.752
 1040POPC   PO416200  15.127  23.802   9.771
 1040POPC   GL116201  15.302  23.699   9.357
 1040POPC   GL216202  15.295  24.010   9.146
 1040POPC   C1A16203  15.353  23.553   8.906
 1040POPC   D2A16204  15.288  23.329   8.495
 1040POPC   C3A16205  15.318  23.515   8.059
 1040POPC   C4A16206  15.057  23.543   7.677
 1040POPC   C1B16207  15.482  24.048   8.706
 1040POPC   C2B16208  15.353  23.991   8.258
 1040POPC   C3B16209  15.216  23.994   7.817
 1040POPC   C4B16210  15.493  23.757   7.500
 1041POPC   NC316211  43.046   8.645   9.421
 1041POPC   PO416212  43.146   9.280   9.704
 1041POPC   GL116213  43.292   9.086   9.308
 1041POPC   GL216214  43.519   9.276   9.165
 1041POPC   C1A16215  43.293   8.914   8.867
 1041POPC   D2A16216  43.470   8.760   8.463
 1041POPC   C3A16217  43.288   8.861   8.034
 1041POPC   C4A16218  43.062   8.819   7.603
 1041POPC   C1B16219  43.359   9.423   8.769
 1041POPC   C2B16220  43.144   9.206   8.458
 1041POPC   C3B16221  43.126   9.386   8.090
 1041POPC   C4B16222  43.047   9.286   7.713
 1042POPC   NC316223   6.325   3.658   9.399
 1042POPC   PO416224   6.922   3.772   9.390
 1042POPC   GL116225   6.835   3.425   9.120
 1042POPC   GL216226   6.515   3.227   9.134
 1042POPC   C1A16227   6.751   3.488   8.717
 1042POPC   D2A16228   6.539   3.517   8.361
 1042POPC   C3A16229   6.797   3.560   8.065
 1042POPC   C4A16230   6.643   3.582   7.669
 1042POPC   C1B16231   6.482   3.013   8.704
 1042POPC   C2B16232   6.426   3.000   8.249
 1042POPC   C3B16233   6.219   3.176   7.828
 1042POPC   C4B16234   6.229   3.431   7.414
 1043POPC   NC316235  20.721  25.218   9.605
 1043POPC   PO416236  20.036  25.047   9.502
 1043POPC   GL116237  20.350  25.178   9.231
 1043POPC   GL216238  20.603  24.934   9.192
 1043POPC   C1A16239  20.322  25.195   8.797
 1043POPC   D2A16240  20.449  25.357   8.419
 1043POPC   C3A16241  20.297  25.113   8.086
 1043POPC   C4A16242  20.393  25.262   7.713
 1043POPC   C1B16243  20.825  25.227   8.944
 1043POPC   C2B16244  20.903  25.149   8.542
 1043POPC   C3B16245  20.844  25.193   8.112
 1043POPC   C4B16246  20.886  24.996   7.718
 1044POPC   NC316247  17.026  44.298   9.417
 1044POPC   PO416248  16.941  44.939   9.578
 1044POPC   GL116249  16.867  44.773   9.181
 1044POPC   GL216250  17.132  44.643   9.039
 1044POPC   C1A16251  16.768  44.899   8.768
 1044POPC   D2A16252  16.723   0.126   8.394
 1044POPC   C3A16253  16.716  44.917   7.982
 1044POPC   C4A16254  16.440  44.883   7.609
 1044POPC   C1B16255  16.809  44.396   8.804
 1044POPC   C2B16256  16.653  44.547   8.406
 1044POPC   C3B16257  16.797  44.415   8.009
 1044POPC   C4B16258  16.853  44.381   7.574
 1045POPC   NC316259  31.996   6.428   9.542
 1045POPC   PO416260  32.273   7.002   9.480
 1045POPC   GL116261  32.288   6.641   9.159
 1045POPC   GL216262  31.960   6.589   9.081
 1045POPC   C1A16263  32.269   6.449   8.709
 1045POPC   D2A16264  32.193   6.708   8.342
 1045POPC   C3A16265  32.130   6.568   7.924
 1045POPC   C4A16266  32.386   6.288   7.701
 1045POPC   C1B16267  31.887   6.845   8.765
 1045POPC   C2B16268  31.992   7.161   8.483
 1045POPC   C3B16269  31.984   7.089   8.060
 1045POPC   C4B16270  32.316   7.021   7.780
 1046POPC   NC316271  23.465   1.795   9.587
 1046POPC   PO416272  23.430   2.396   9.228
 1046POPC   GL116273  23.688   2.049   9.159
 1046POPC   GL216274  23.618   1.655   9.137
 1046POPC   C1A16275  23.902   2.120   8.785
 1046POPC   D2A16276  23.868   2.280   8.353
 1046POPC   C3A16277  23.977   2.010   8.016
 1046POPC   C4A16278  24.245   2.066   7.651
 1046POPC   C1B16279  23.864   1.604   8.795
 1046POPC   C2B16280  23.715   1.754   8.428
 1046POPC   C3B16281  23.618   1.632   8.025
 1046POPC   C4B16282  23.630   1.874   7.677
 1047POPC   NC316283  30.573   7.890   9.568
 1047POPC   PO416284  30.507   8.457   9.321
 1047POPC   GL116285  30.800   8.290   9.058
 1047POPC   GL216286  30.862   7.941   9.142
 1047POPC   C1A16287  30.780   8.386   8.629
 1047POPC   D2A16288  30.914   8.166   8.275
 1047POPC   C3A16289  30.885   8.341   7.878
 1047POPC   C4A16290  31.117   8.107   7.667
 1047POPC   C1B16291  30.709   7.873   8.732
 1047POPC   C2B16292  30.413   8.058   8.461
 1047POPC   C3B16293  30.450   8.135   8.052
 1047POPC   C4B16294  30.290   8.049   7.672
 1048POPC   NC316295  28.568  37.493   9.520
 1048POPC   PO416296  28.085  37.955   9.487
 1048POPC   GL116297  28.166  37.608   9.156
 1048POPC   GL216298  28.506  37.539   9.020
 1048POPC   C1A16299  28.071  37.387   8.764
 1048POPC   D2A16300  28.019  37.165   8.359
 1048POPC   C3A16301  28.194  37.387   7.982
 1048POPC   C4A16302  28.144  37.802   7.762
 1048POPC   C1B16303  28.762  37.412   8.664
 1048POPC   C2B16304  28.687  37.579   8.244
 1048POPC   C3B16305  28.651  37.650   7.817
 1048POPC   C4B16306  28.881  37.420   7.564
 1049POPC   NC316307  26.393  16.601   9.546
 1049POPC   PO416308  27.073  16.429   9.518
 1049POPC   GL116309  26.944  16.584   9.134
 1049POPC   GL216310  26.622  16.662   9.104
 1049POPC   C1A16311  26.972  16.630   8.709
 1049POPC   D2A16312  26.765  16.498   8.368
 1049POPC   C3A16313  27.000  16.661   8.091
 1049POPC   C4A16314  26.957  16.553   7.703
 1049POPC   C1B16315  26.627  16.998   8.829
 1049POPC   C2B16316  26.667  16.978   8.383
 1049POPC   C3B16317  26.500  16.790   7.989
 1049POPC   C4B16318  26.380  17.027   7.605
 1050POPC   NC316319  31.208  16.294   9.372
 1050POPC   PO416320  31.343  15.664   9.723
 1050POPC   GL116321  31.547  15.929   9.328
 1050POPC   GL216322  31.851  15.859   9.229
 1050POPC   C1A16323  31.565  16.040   8.848
 1050POPC   D2A16324  31.696  16.196   8.428
 1050POPC   C3A16325  31.527  16.030   8.015
 1050POPC   C4A16326  31.366  15.894   7.583
 1050POPC   C1B16327  31.908  15.630   8.840
 1050POPC   C2B16328  31.979  15.728   8.427
 1050POPC   C3B16329  31.866  15.615   8.001
 1050POPC   C4B16330  31.871  15.867   7.650
 1051POPC   NC316331   9.261  26.023   9.707
 1051POPC   PO416332   9.958  25.963   9.448
 1051POPC   GL116333   9.628  25.949   9.103
 1051POPC   GL216334   9.520  25.620   8.995
 1051POPC   C1A16335   9.589  26.101   8.682
 1051POPC   D2A16336   9.854  26.158   8.318
 1051POPC   C3A16337   9.661  26.305   7.942
 1051POPC   C4A16338   9.719  26.367   7.515
 1051POPC   C1B16339   9.842  25.653   8.736
 1051POPC   C2B16340   9.664  25.661   8.367
 1051POPC   C3B16341   9.615  25.794   8.005
 1051POPC   C4B16342   9.513  25.913   7.631
 1052POPC   NC316343  17.066  30.340   9.539
 1052POPC   PO416344  16.481  29.906   9.443
 1052POPC   GL116345  16.635  29.886   9.035
 1052POPC   GL216346  16.990  30.023   9.067
 1052POPC   C1A16347  16.703  29.830   8.624
 1052POPC   D2A16348  16.474  30.017   8.332
 1052POPC   C3A16349  16.659  29.772   8.078
 1052POPC   C4A16350  16.681  29.698   7.679
 1052POPC   C1B16351  17.230  29.913   8.716
 1052POPC   C2B16352  17.134  29.810   8.290
 1052POPC   C3B16353  17.120  29.935   7.845
 1052POPC   C4B16354  17.274  29.910   7.413
 1053POPC   NC316355  41.720  25.622   9.525
 1053POPC   PO416356  41.504  26.221   9.480
 1053POPC   GL116357  41.571  25.926   9.129
 1053POPC   GL216358  41.284  25.717   9.049
 1053POPC   C1A16359  41.689  25.980   8.691
 1053POPC   D2A16360  41.500  25.852   8.274
 1053POPC   C3A16361  41.673  25.990   7.882
 1053POPC   C4A16362  41.762  26.207   7.469
 1053POPC   C1B16363  41.191  25.913   8.684
 1053POPC   C2B16364  41.317  26.274   8.483
 1053POPC   C3B16365  41.259  26.302   8.078
 1053POPC   C4B16366  41.175  26.045   7.734
 1054POPC   NC316367   4.771  25.080   9.634
 1054POPC   PO416368   5.280  25.508   9.540
 1054POPC   GL116369   5.331  25.391   9.117
 1054POPC   GL216370   5.645  25.551   9.077
 1054POPC   C1A16371   5.102  25.277   8.728
 1054POPC   D2A16372   4.955  25.019   8.362
 1054POPC   C3A16373   4.990  25.191   7.920
 1054POPC   C4A16374   4.868  25.085   7.473
 1054POPC   C1B16375   5.504  25.596   8.659
 1054POPC   C2B16376   5.241  25.507   8.290
 1054POPC   C3B16377   5.368  25.586   7.878
 1054POPC   C4B16378   5.317  25.356   7.479
 1055POPC   NC316379   9.615  33.847   9.384
 1055POPC   PO416380  10.253  33.625   9.426
 1055POPC   GL116381  10.076  33.694   9.086
 1055POPC   GL216382  10.005  34.021   9.128
 1055POPC   C1A16383   9.929  33.533   8.721
 1055POPC   D2A16384   9.676  33.619   8.356
 1055POPC   C3A16385   9.935  33.536   8.027
 1055POPC   C4A16386  10.001  33.705   7.644
 1055POPC   C1B16387   9.728  34.014   8.747
 1055POPC   C2B16388   9.587  34.102   8.313
 1055POPC   C3B16389   9.566  33.880   7.902
 1055POPC   C4B16390   9.561  33.925   7.462
 1056POPC   NC316391  17.096  11.732   9.550
 1056POPC   PO416392  17.686  11.976   9.609
 1056POPC   GL116393  17.431  12.062   9.253
 1056POPC   GL216394  17.461  11.707   9.180
 1056POPC   C1A16395  17.380  12.018   8.795
 1056POPC   D2A16396  17.632  11.892   8.448
 1056POPC   C3A16397  17.442  11.951   8.080
 1056POPC   C4A16398  17.444  12.157   7.735
 1056POPC   C1B16399  17.172  11.544   8.878
 1056POPC   C2B16400  17.056  11.512   8.460
 1056POPC   C3B16401  17.171  11.527   8.058
 1056POPC   C4B16402  17.253  11.622   7.656
 1057POPC   NC316403  24.071   4.865   9.612
 1057POPC   PO416404  24.569   5.243   9.592
 1057POPC   GL116405  24.607   5.216   9.175
 1057POPC   GL216406  24.355   5.463   9.107
 1057POPC   C1A16407  24.537   5.011   8.788
 1057POPC   D2A16408  24.312   4.968   8.405
 1057POPC   C3A16409  24.578   4.858   8.071
 1057POPC   C4A16410  24.394   4.973   7.675
 1057POPC   C1B16411  24.607   5.534   8.742
 1057POPC   C2B16412  24.715   5.310   8.364
 1057POPC   C3B16413  24.671   5.337   7.903
 1057POPC   C4B16414  24.737   5.263   7.431
 1058POPC   NC316415  12.121  38.010   9.451
 1058POPC   PO416416  11.804  38.585   9.667
 1058POPC   GL116417  11.882  38.429   9.216
 1058POPC   GL216418  12.231  38.389   9.025
 1058POPC   C1A16419  11.807  38.282   8.783
 1058POPC   D2A16420  12.106  38.419   8.471
 1058POPC   C3A16421  11.964  38.640   8.091
 1058POPC   C4A16422  12.106  38.594   7.661
 1058POPC   C1B16423  12.237  37.964   8.789
 1058POPC   C2B16424  12.086  37.892   8.359
 1058POPC   C3B16425  12.204  38.198   8.012
 1058POPC   C4B16426  12.374  38.156   7.605
 1059POPC   NC316427  14.688   6.748   9.566
 1059POPC   PO416428  14.091   6.927   9.390
 1059POPC   GL116429  14.187   6.740   8.996
 1059POPC   GL216430  14.509   6.669   9.095
 1059POPC   C1A16431  14.210   6.483   8.622
 1059POPC   D2A16432  14.223   6.668   8.224
 1059POPC   C3A16433  14.273   6.520   7.793
 1059POPC   C4A16434  14.118   6.579   7.373
 1059POPC   C1B16435  14.687   6.360   8.833
 1059POPC   C2B16436  14.683   6.361   8.419
 1059POPC   C3B16437  14.712   6.592   8.076
 1059POPC   C4B16438  14.800   6.540   7.711
 1060POPC   NC316439  28.971  35.836   9.368
 1060POPC   PO416440  28.389  36.281   9.536
 1060POPC   GL116441  28.287  36.204   9.122
 1060POPC   GL216442  28.623  36.101   9.097
 1060POPC   C1A16443  28.375  36.208   8.677
 1060POPC   D2A16444  28.700  36.246   8.424
 1060POPC   C3A16445  28.420  36.224   8.115
 1060POPC   C4A16446  28.420  36.147   7.713
 1060POPC   C1B16447  28.753  35.854   8.755
 1060POPC   C2B16448  28.717  35.748   8.331
 1060POPC   C3B16449  28.815  35.921   7.943
 1060POPC   C4B16450  28.746  35.742   7.548
 1061POPC   NC316451  39.661  40.043   9.378
 1061POPC   PO416452  39.093  39.962   9.636
 1061POPC   GL116453  39.184  39.845   9.188
 1061POPC   GL216454  39.467  39.641   9.100
 1061POPC   C1A16455  39.277  40.078   8.784
 1061POPC   D2A16456  39.225  39.987   8.322
 1061POPC   C3A16457  39.091  40.312   8.024
 1061POPC   C4A16458  39.473  40.421   7.785
 1061POPC   C1B16459  39.435  39.618   8.641
 1061POPC   C2B16460  39.547  39.616   8.197
 1061POPC   C3B16461  39.524  39.731   7.796
 1061POPC   C4B16462  39.138  39.898   7.729
 1062POPC   NC316463  41.061   9.078   9.288
 1062POPC   PO416464  40.709   8.573   9.564
 1062POPC   GL116465  40.601   8.858   9.190
 1062POPC   GL216466  40.502   9.234   9.211
 1062POPC   C1A16467  40.775   8.868   8.770
 1062POPC   D2A16468  40.988   8.620   8.485
 1062POPC   C3A16469  40.863   8.802   8.113
 1062POPC   C4A16470  41.057   8.977   7.753
 1062POPC   C1B16471  40.612   9.345   8.795
 1062POPC   C2B16472  40.785   9.224   8.406
 1062POPC   C3B16473  40.704   9.278   8.009
 1062POPC   C4B16474  40.509   8.977   7.786
 1063POPC   NC316475  10.517  15.679   9.484
 1063POPC   PO416476  10.247  16.326   9.473
 1063POPC   GL116477  10.466  16.097   9.129
 1063POPC   GL216478  10.753  15.844   9.055
 1063POPC   C1A16479  10.370  15.975   8.712
 1063POPC   D2A16480  10.200  15.925   8.292
 1063POPC   C3A16481  10.530  15.976   8.049
 1063POPC   C4A16482  10.692  16.229   7.730
 1063POPC   C1B16483  10.648  15.483   8.805
 1063POPC   C2B16484  10.611  15.472   8.357
 1063POPC   C3B16485  10.519  15.476   7.963
 1063POPC   C4B16486  10.729  15.695   7.674
 1064POPC   NC316487  31.826  13.794   9.582
 1064POPC   PO416488  31.281  13.327   9.529
 1064POPC   GL116489  31.370  13.681   9.274
 1064POPC   GL216490  31.665  13.524   9.178
 1064POPC   C1A16491  31.282  13.893   8.877
 1064POPC   D2A16492  31.251  13.734   8.460
 1064POPC   C3A16493  31.261  13.576   8.089
 1064POPC   C4A16494  31.080  13.701   7.738
 1064POPC   C1B16495  31.593  13.494   8.777
 1064POPC   C2B16496  31.730  13.533   8.377
 1064POPC   C3B16497  31.699  13.330   8.005
 1064POPC   C4B16498  31.589  13.573   7.669
 1065POPC   NC316499  23.947  44.167   9.607
 1065POPC   PO416500  24.154  43.610   9.352
 1065POPC   GL116501  23.880  43.915   9.167
 1065POPC   GL216502  23.535  43.916   9.292
 1065POPC   C1A16503  23.737  43.855   8.767
 1065POPC   D2A16504  23.921  43.665   8.400
 1065POPC   C3A16505  23.768  43.906   8.045
 1065POPC   C4A16506  24.023  44.055   7.712
 1065POPC   C1B16507  23.332  44.123   8.937
 1065POPC   C2B16508  23.357  44.093   8.504
 1065POPC   C3B16509  23.277  44.164   8.085
 1065POPC   C4B16510  23.347  43.953   7.740
 1066POPC   NC316511   1.397   6.148   9.273
 1066POPC   PO416512   0.852   5.832   9.548
 1066POPC   GL116513   0.835   5.891   9.106
 1066POPC   GL216514   0.874   6.234   9.131
 1066POPC   C1A16515   0.991   5.581   8.773
 1066POPC   D2A16516   1.312   5.574   8.473
 1066POPC   C3A16517   1.262   5.848   8.112
 1066POPC   C4A16518   1.378   5.629   7.734
 1066POPC   C1B16519   1.059   6.112   8.699
 1066POPC   C2B16520   0.812   5.868   8.397
 1066POPC   C3B16521   0.819   5.619   8.057
 1066POPC   C4B16522   0.922   5.841   7.691
 1067POPC   NC316523  15.964  39.223   9.504
 1067POPC   PO416524  16.519  39.232   9.212
 1067POPC   GL116525  16.104  39.347   9.011
 1067POPC   GL216526  15.724  39.364   9.098
 1067POPC   C1A16527  15.876  39.048   8.743
 1067POPC   D2A16528  15.684  38.942   8.345
 1067POPC   C3A16529  16.018  38.931   8.024
 1067POPC   C4A16530  16.217  39.276   7.804
 1067POPC   C1B16531  15.674  39.513   8.693
 1067POPC   C2B16532  15.605  39.610   8.282
 1067POPC   C3B16533  15.731  39.381   7.922
 1067POPC   C4B16534  15.828  39.328   7.466
 1068POPC   NC316535  34.749  36.679   9.446
 1068POPC   PO416536  34.872  36.047   9.615
 1068POPC   GL116537  34.807  36.062   9.170
 1068POPC   GL216538  35.011  35.818   9.031
 1068POPC   C1A16539  34.538  35.960   8.777
 1068POPC   D2A16540  34.424  35.684   8.433
 1068POPC   C3A16541  34.326  35.873   8.065
 1068POPC   C4A16542  34.546  36.025   7.734
 1068POPC   C1B16543  35.005  36.121   8.691
 1068POPC   C2B16544  34.757  36.158   8.308
 1068POPC   C3B16545  34.958  36.260   7.917
 1068POPC   C4B16546  34.934  36.205   7.478
 1069POPC   NC316547  34.860   2.550   9.340
 1069POPC   PO416548  35.503   2.963   9.433
 1069POPC   GL116549  35.327   2.773   9.117
 1069POPC   GL216550  35.396   2.453   9.258
 1069POPC   C1A16551  35.458   2.829   8.685
 1069POPC   D2A16552  35.675   2.763   8.306
 1069POPC   C3A16553  35.400   2.978   8.065
 1069POPC   C4A16554  35.145   3.012   7.752
 1069POPC   C1B16555  35.303   2.348   8.825
 1069POPC   C2B16556  35.246   2.437   8.398
 1069POPC   C3B16557  35.296   2.483   7.970
 1069POPC   C4B16558  35.687   2.307   7.825
 1070POPC   NC316559  41.810  35.650   9.571
 1070POPC   PO416560  41.412  35.063   9.500
 1070POPC   GL116561  41.552  35.210   9.111
 1070POPC   GL216562  41.826  35.466   9.110
 1070POPC   C1A16563  41.364  35.367   8.739
 1070POPC   D2A16564  41.442  35.205   8.340
 1070POPC   C3A16565  41.602  35.254   7.966
 1070POPC   C4A16566  41.528  35.390   7.583
 1070POPC   C1B16567  41.724  35.734   8.786
 1070POPC   C2B16568  41.736  35.640   8.370
 1070POPC   C3B16569  41.935  35.666   7.980
 1070POPC   C4B16570  41.741  35.859   7.667
 1071POPC   NC316571  24.277  36.808   9.610
 1071POPC   PO416572  23.603  36.750   9.574
 1071POPC   GL116573  23.644  36.735   9.180
 1071POPC   GL216574  23.976  36.861   9.164
 1071POPC   C1A16575  23.393  36.832   8.845
 1071POPC   D2A16576  23.520  36.695   8.457
 1071POPC   C3A16577  23.634  36.970   8.112
 1071POPC   C4A16578  23.540  36.851   7.687
 1071POPC   C1B16579  23.946  36.604   8.784
 1071POPC   C2B16580  24.020  36.667   8.341
 1071POPC   C3B16581  23.973  36.623   7.906
 1071POPC   C4B16582  24.019  37.020   7.706
 1072POPC   NC316583   8.860  43.387   9.857
 1072POPC   PO416584   8.821  43.016   9.295
 1072POPC   GL116585   9.083  43.186   8.989
 1072POPC   GL216586   9.312  42.889   9.047
 1072POPC   C1A16587   9.026  43.412   8.604
 1072POPC   D2A16588   8.923  43.150   8.291
 1072POPC   C3A16589   8.854  43.248   7.903
 1072POPC   C4A16590   8.589  43.401   7.630
 1072POPC   C1B16591   9.328  42.973   8.606
 1072POPC   C2B16592   9.414  43.229   8.283
 1072POPC   C3B16593   9.335  43.070   7.870
 1072POPC   C4B16594   9.261  42.800   7.531
 1073POPC   NC316595  40.140  19.218   9.479
 1073POPC   PO416596  39.766  18.565   9.453
 1073POPC   GL116597  39.923  18.822   9.113
 1073POPC   GL216598  39.806  19.188   9.080
 1073POPC   C1A16599  39.946  18.907   8.663
 1073POPC   D2A16600  39.754  18.739   8.306
 1073POPC   C3A16601  39.891  18.997   7.991
 1073POPC   C4A16602  39.973  19.009   7.550
 1073POPC   C1B16603  40.019  19.407   8.702
 1073POPC   C2B16604  40.075  19.436   8.253
 1073POPC   C3B16605  40.186  19.418   7.796
 1073POPC   C4B16606  40.138  19.421   7.308
 1074POPC   NC316607  22.071  18.870   9.510
 1074POPC   PO416608  22.189  19.593   9.560
 1074POPC   GL116609  22.150  19.309   9.189
 1074POPC   GL216610  21.845  19.096   9.111
 1074POPC   C1A16611  22.193  19.259   8.749
 1074POPC   D2A16612  22.400  19.180   8.342
 1074POPC   C3A16613  22.233  19.194   7.918
 1074POPC   C4A16614  22.387  18.870   7.651
 1074POPC   C1B16615  22.011  18.793   8.815
 1074POPC   C2B16616  21.911  18.904   8.403
 1074POPC   C3B16617  22.029  18.734   8.029
 1074POPC   C4B16618  21.888  18.848   7.644
 1075POPC   NC316619  41.402  27.346   9.545
 1075POPC   PO416620  41.972  27.737   9.490
 1075POPC   GL116621  41.873  27.451   9.179
 1075POPC   GL216622  41.546  27.617   9.138
 1075POPC   C1A16623  41.862  27.576   8.746
 1075POPC   D2A16624  41.556  27.649   8.449
 1075POPC   C3A16625  41.791  27.630   8.069
 1075POPC   C4A16626  41.760  27.513   7.644
 1075POPC   C1B16627  41.336  27.990   8.965
 1075POPC   C2B16628  41.150  28.043   8.555
 1075POPC   C3B16629  41.150  27.828   8.157
 1075POPC   C4B16630  41.027  27.885   7.733
 1076POPC   NC316631  22.802   8.561   9.532
 1076POPC   PO416632  23.105   7.984   9.477
 1076POPC   GL116633  22.850   8.173   9.161
 1076POPC   GL216634  22.997   8.485   9.047
 1076POPC   C1A16635  22.879   7.993   8.759
 1076POPC   D2A16636  23.111   8.032   8.372
 1076POPC   C3A16637  22.947   8.108   7.973
 1076POPC   C4A16638  22.663   8.306   7.714
 1076POPC   C1B16639  22.886   8.475   8.602
 1076POPC   C2B16640  22.890   8.565   8.178
 1076POPC   C3B16641  23.075   8.580   7.817
 1076POPC   C4B16642  23.212   8.867   7.565
 1077POPC   NC316643  18.675  10.358   9.280
 1077POPC   PO416644  19.330  10.274   9.510
 1077POPC   GL116645  19.155  10.276   9.103
 1077POPC   GL216646  19.022  10.613   8.996
 1077POPC   C1A16647  19.191  10.282   8.654
 1077POPC   D2A16648  19.203  10.538   8.295
 1077POPC   C3A16649  19.160  10.289   7.938
 1077POPC   C4A16650  19.230  10.593   7.606
 1077POPC   C1B16651  18.764  10.579   8.629
 1077POPC   C2B16652  18.743  10.301   8.269
 1077POPC   C3B16653  18.692  10.440   7.841
 1077POPC   C4B16654  18.746  10.522   7.410
 1078POPC   NC316655   8.735  42.774   9.696
 1078POPC   PO416656   8.914  42.139   9.531
 1078POPC   GL116657   8.937  42.320   9.119
 1078POPC   GL216658   8.702  42.567   9.079
 1078POPC   C1A16659   8.874  42.211   8.686
 1078POPC   D2A16660   9.161  42.145   8.331
 1078POPC   C3A16661   9.000  42.161   7.937
 1078POPC   C4A16662   9.081  42.006   7.517
 1078POPC   C1B16663   8.870  42.757   8.702
 1078POPC   C2B16664   9.038  42.656   8.325
 1078POPC   C3B16665   8.911  42.711   7.923
 1078POPC   C4B16666   8.892  42.465   7.552
 1079POPC   NC316667  11.203  34.808   9.424
 1079POPC   PO416668  10.817  34.258   9.423
 1079POPC   GL116669  11.034  34.452   9.093
 1079POPC   GL216670  10.868  34.748   9.040
 1079POPC   C1A16671  11.368  34.556   8.770
 1079POPC   D2A16672  11.698  34.734   8.451
 1079POPC   C3A16673  11.556  34.571   8.040
 1079POPC   C4A16674  11.399  34.537   7.607
 1079POPC   C1B16675  10.907  34.909   8.630
 1079POPC   C2B16676  11.185  34.820   8.342
 1079POPC   C3B16677  11.054  34.674   7.981
 1079POPC   C4B16678  11.089  34.950   7.678
 1080POPC   NC316679  36.638  25.738   9.533
 1080POPC   PO416680  37.174  26.182   9.742
 1080POPC   GL116681  37.076  26.232   9.255
 1080POPC   GL216682  37.181  25.979   9.016
 1080POPC   C1A16683  36.808  26.319   8.855
 1080POPC   D2A16684  36.706  26.137   8.404
 1080POPC   C3A16685  36.788  26.310   7.961
 1080POPC   C4A16686  36.926  26.143   7.532
 1080POPC   C1B16687  36.800  25.793   8.805
 1080POPC   C2B16688  36.700  25.480   8.522
 1080POPC   C3B16689  36.881  25.445   8.113
 1080POPC   C4B16690  36.815  25.775   7.848
 1081POPC   NC316691  12.497   9.635   9.388
 1081POPC   PO416692  11.846   9.881   9.481
 1081POPC   GL116693  12.010   9.642   9.155
 1081POPC   GL216694  12.187   9.948   9.086
 1081POPC   C1A16695  11.839   9.387   8.741
 1081POPC   D2A16696  11.634   9.330   8.322
 1081POPC   C3A16697  11.890   9.426   7.955
 1081POPC   C4A16698  11.879   9.659   7.585
 1081POPC   C1B16699  12.243   9.717   8.712
 1081POPC   C2B16700  11.996   9.748   8.350
 1081POPC   C3B16701  12.091   9.922   7.958
 1081POPC   C4B16702  12.391   9.746   7.604
 1082POPC   NC316703  13.792  29.975   9.604
 1082POPC   PO416704  13.212  30.146   9.249
 1082POPC   GL116705  13.598  29.922   9.147
 1082POPC   GL216706  13.946  30.104   9.145
 1082POPC   C1A16707  13.676  29.716   8.785
 1082POPC   D2A16708  13.547  29.896   8.397
 1082POPC   C3A16709  13.700  29.753   8.011
 1082POPC   C4A16710  13.318  29.764   7.799
 1082POPC   C1B16711  13.764  30.232   8.762
 1082POPC   C2B16712  13.872  30.313   8.345
 1082POPC   C3B16713  13.709  30.271   7.916
 1082POPC   C4B16714  13.820  30.339   7.464
 1083POPC   NC316715  43.951  11.078   9.404
 1083POPC   PO416716  43.536  11.613   9.522
 1083POPC   GL116717  43.609  11.377   9.134
 1083POPC   GL216718  43.498  11.001   9.183
 1083POPC   C1A16719  43.930  11.482   8.770
 1083POPC   D2A16720  43.872  11.651   8.338
 1083POPC   C3A16721  44.032  11.450   7.947
 1083POPC   C4A16722  43.949  11.478   7.509
 1083POPC   C1B16723  43.705  11.031   8.768
 1083POPC   C2B16724  43.649  11.155   8.339
 1083POPC   C3B16725  43.640  11.117   7.893
 1083POPC   C4B16726  43.936  10.956   7.599
 1084POPC   NC316727  32.831   6.050   9.539
 1084POPC   PO416728  33.465   6.246   9.304
 1084POPC   GL116729  33.150   6.004   9.088
 1084POPC   GL216730  33.234   5.661   8.991
 1084POPC   C1A16731  33.106   6.011   8.628
 1084POPC   D2A16732  32.988   5.773   8.246
 1084POPC   C3A16733  33.071   5.925   7.814
 1084POPC   C4A16734  33.322   6.143   7.491
 1084POPC   C1B16735  32.814   5.590   8.777
 1084POPC   C2B16736  32.553   5.552   8.396
 1084POPC   C3B16737  32.689   5.438   7.969
 1084POPC   C4B16738  32.996   5.448   7.646
 1085POPC   NC316739  43.333  23.764   9.523
 1085POPC   PO416740  42.661  23.947   9.366
 1085POPC   GL116741  42.990  23.848   9.090
 1085POPC   GL216742  43.224  23.589   9.075
 1085POPC   C1A16743  42.960  23.740   8.657
 1085POPC   D2A16744  42.846  24.019   8.325
 1085POPC   C3A16745  42.811  23.866   7.955
 1085POPC   C4A16746  43.154  23.828   7.766
 1085POPC   C1B16747  43.520  23.551   8.736
 1085POPC   C2B16748  43.370  23.637   8.332
 1085POPC   C3B16749  43.249  23.390   8.001
 1085POPC   C4B16750  42.912  23.394   7.681
 1086POPC   NC316751  16.808   2.094   9.646
 1086POPC   PO416752  16.876   1.450   9.478
 1086POPC   GL116753  16.720   1.806   9.217
 1086POPC   GL216754  16.604   2.191   9.189
 1086POPC   C1A16755  16.760   1.907   8.809
 1086POPC   D2A16756  17.015   1.827   8.464
 1086POPC   C3A16757  17.025   1.905   8.013
 1086POPC   C4A16758  16.676   1.795   7.741
 1086POPC   C1B16759  16.382   2.238   8.801
 1086POPC   C2B16760  16.590   2.164   8.416
 1086POPC   C3B16761  16.668   2.271   8.039
 1086POPC   C4B16762  16.463   2.250   7.690
 1087POPC   NC316763  21.930  14.843   9.477
 1087POPC   PO416764  22.109  14.229   9.608
 1087POPC   GL116765  22.167  14.351   9.215
 1087POPC   GL216766  22.416  14.070   9.178
 1087POPC   C1A16767  22.090  14.646   8.859
 1087POPC   D2A16768  21.862  14.614   8.479
 1087POPC   C3A16769  22.068  14.425   8.168
 1087POPC   C4A16770  22.078  14.506   7.754
 1087POPC   C1B16771  22.209  14.131   8.773
 1087POPC   C2B16772  22.314  14.007   8.342
 1087POPC   C3B16773  22.118  13.873   7.978
 1087POPC   C4B16774  22.015  14.050   7.580
 1088POPC   NC316775   7.455   9.124   9.579
 1088POPC   PO416776   7.482   8.533   9.358
 1088POPC   GL116777   7.559   8.888   9.117
 1088POPC   GL216778   7.232   9.032   9.123
 1088POPC   C1A16779   7.576   8.871   8.668
 1088POPC   D2A16780   7.293   8.814   8.327
 1088POPC   C3A16781   7.484   8.738   7.922
 1088POPC   C4A16782   7.287   8.661   7.545
 1088POPC   C1B16783   7.423   9.341   8.836
 1088POPC   C2B16784   7.358   9.326   8.391
 1088POPC   C3B16785   7.200   9.201   7.980
 1088POPC   C4B16786   7.420   9.140   7.581
 1089POPC   NC316787  37.862  32.568   9.442
 1089POPC   PO416788  37.441  32.103   9.621
 1089POPC   GL116789  37.560  32.208   9.201
 1089POPC   GL216790  37.523  32.546   9.056
 1089POPC   C1A16791  37.556  31.986   8.814
 1089POPC   D2A16792  37.427  31.938   8.394
 1089POPC   C3A16793  37.519  32.234   8.073
 1089POPC   C4A16794  37.600  32.124   7.663
 1089POPC   C1B16795  37.856  32.403   8.804
 1089POPC   C2B16796  37.884  32.234   8.428
 1089POPC   C3B16797  38.018  32.090   8.056
 1089POPC   C4B16798  38.101  32.251   7.699
 1090POPC   NC316799  21.413  43.516   9.575
 1090POPC   PO416800  21.038  44.092   9.566
 1090POPC   GL116801  21.121  43.799   9.246
 1090POPC   GL216802  21.451  43.865   9.172
 1090POPC   C1A16803  21.008  43.738   8.823
 1090POPC   D2A16804  21.113  43.493   8.456
 1090POPC   C3A16805  21.118  43.718   8.053
 1090POPC   C4A16806  21.227  44.161   7.896
 1090POPC   C1B16807  21.565  43.944   8.733
 1090POPC   C2B16808  21.569  44.089   8.294
 1090POPC   C3B16809  21.740  44.093   7.873
 1090POPC   C4B16810  21.762  44.142   7.408
 1091POPC   NC316811  31.865  38.756   9.425
 1091POPC   PO416812  31.261  38.824   9.346
 1091POPC   GL116813  31.351  38.438   9.075
 1091POPC   GL216814  31.710  38.304   9.116
 1091POPC   C1A16815  31.298  38.470   8.617
 1091POPC   D2A16816  31.405  38.778   8.309
 1091POPC   C3A16817  31.593  38.601   7.981
 1091POPC   C4A16818  31.370  38.304   7.741
 1091POPC   C1B16819  31.607  38.078   8.717
 1091POPC   C2B16820  31.534  38.170   8.270
 1091POPC   C3B16821  31.811  38.118   7.906
 1091POPC   C4B16822  31.831  38.198   7.437
 1092POPC   NC316823   6.385  34.011   9.456
 1092POPC   PO416824   7.004  33.711   9.367
 1092POPC   GL116825   6.983  33.942   9.017
 1092POPC   GL216826   6.643  34.019   9.001
 1092POPC   C1A16827   6.920  33.966   8.566
 1092POPC   D2A16828   6.544  33.891   8.324
 1092POPC   C3A16829   6.636  33.694   7.929
 1092POPC   C4A16830   6.903  33.907   7.628
 1092POPC   C1B16831   6.249  34.023   8.751
 1092POPC   C2B16832   6.106  34.156   8.320
 1092POPC   C3B16833   6.272  34.054   7.904
 1092POPC   C4B16834   6.415  33.877   7.476
 1093POPC   NC316835  23.519  15.917   9.381
 1093POPC   PO416836  22.806  15.935   9.625
 1093POPC   GL116837  22.777  16.004   9.203
 1093POPC   GL216838  23.091  15.963   9.111
 1093POPC   C1A16839  22.743  15.763   8.803
 1093POPC   D2A16840  22.528  15.847   8.429
 1093POPC   C3A16841  22.732  15.780   8.055
 1093POPC   C4A16842  22.718  15.614   7.654
 1093POPC   C1B16843  23.281  15.753   8.786
 1093POPC   C2B16844  23.464  15.802   8.390
 1093POPC   C3B16845  23.267  15.896   8.022
 1093POPC   C4B16846  22.975  16.056   7.709
 1094POPC   NC316847  29.520  32.594   9.513
 1094POPC   PO416848  29.533  31.897   9.445
 1094POPC   GL116849  29.860  32.068   9.127
 1094POPC   GL216850  30.238  32.071   9.259
 1094POPC   C1A16851  29.855  32.181   8.675
 1094POPC   D2A16852  29.670  32.445   8.356
 1094POPC   C3A16853  29.663  32.331   7.935
 1094POPC   C4A16854  29.560  31.998   7.675
 1094POPC   C1B16855  30.337  32.267   8.865
 1094POPC   C2B16856  30.230  32.475   8.493
 1094POPC   C3B16857  30.169  32.378   8.062
 1094POPC   C4B16858  30.082  32.181   7.677
 1095POPC   NC316859  16.327  13.745   9.431
 1095POPC   PO416860  15.686  13.905   9.354
 1095POPC   GL116861  15.966  13.808   9.025
 1095POPC   GL216862  16.080  13.491   9.009
 1095POPC   C1A16863  16.103  13.772   8.586
 1095POPC   D2A16864  15.941  13.834   8.185
 1095POPC   C3A16865  16.016  13.675   7.816
 1095POPC   C4A16866  15.793  13.596   7.447
 1095POPC   C1B16867  15.823  13.344   8.653
 1095POPC   C2B16868  15.931  13.308   8.208
 1095POPC   C3B16869  15.691  13.269   7.824
 1095POPC   C4B16870  15.654  13.106   7.358
 1096POPC   NC316871   4.138  17.197   9.729
 1096POPC   PO416872   4.390  16.537   9.552
 1096POPC   GL116873   4.341  16.356   9.188
 1096POPC   GL216874   4.142  16.608   9.080
 1096POPC   C1A16875   4.427  16.381   8.737
 1096POPC   D2A16876   4.236  16.587   8.390
 1096POPC   C3A16877   4.551  16.617   8.112
 1096POPC   C4A16878   4.578  16.730   7.712
 1096POPC   C1B16879   3.936  16.812   8.731
 1096POPC   C2B16880   3.972  17.100   8.418
 1096POPC   C3B16881   4.165  16.993   8.040
 1096POPC   C4B16882   4.094  16.904   7.631
 1097POPC   NC316883  23.938  12.136   9.789
 1097POPC   PO416884  23.532  12.425   9.463
 1097POPC   GL116885  23.719  12.220   9.095
 1097POPC   GL216886  24.025  12.048   9.142
 1097POPC   C1A16887  23.840  12.140   8.667
 1097POPC   D2A16888  23.855  12.299   8.278
 1097POPC   C3A16889  23.834  12.083   7.909
 1097POPC   C4A16890  23.892  12.270   7.480
 1097POPC   C1B16891  24.069  11.715   8.787
 1097POPC   C2B16892  23.854  11.610   8.364
 1097POPC   C3B16893  23.743  11.546   7.905
 1097POPC   C4B16894  23.674  11.798   7.517
 1098POPC   NC316895  10.361   7.996   9.462
 1098POPC   PO416896  10.744   8.388   9.625
 1098POPC   GL116897  10.664   8.284   9.179
 1098POPC   GL216898  10.315   8.297   9.054
 1098POPC   C1A16899  10.817   8.423   8.784
 1098POPC   D2A16900  10.653   8.334   8.409
 1098POPC   C3A16901  10.842   8.222   8.062
 1098POPC   C4A16902  10.552   8.198   7.729
 1098POPC   C1B16903  10.355   8.010   8.706
 1098POPC   C2B16904  10.326   7.981   8.243
 1098POPC   C3B16905  10.086   8.008   7.880
 1098POPC   C4B16906  10.030   7.963   7.447
 1099POPC   NC316907  37.826  44.535   9.758
 1099POPC   PO416908  37.424   0.062   9.785
 1099POPC   GL116909  37.567  44.744   9.355
 1099POPC   GL216910  37.868  44.522   9.253
 1099POPC   C1A16911  37.642  44.713   8.844
 1099POPC   D2A16912  37.704  44.462   8.413
 1099POPC   C3A16913  37.654  44.705   7.996
 1099POPC   C4A16914  37.362   0.028   7.775
 1099POPC   C1B16915  37.990  44.333   8.834
 1099POPC   C2B16916  38.202  44.350   8.407
 1099POPC   C3B16917  37.973  44.274   7.960
 1099POPC   C4B16918  37.766  44.349   7.477
 1100POPC   NC316919  17.108  42.632   9.408
 1100POPC   PO416920  17.745  42.461   9.408
 1100POPC   GL116921  17.463  42.300   9.089
 1100POPC   GL216922  17.422  41.936   9.091
 1100POPC   C1A16923  17.504  42.283   8.636
 1100POPC   D2A16924  17.409  42.606   8.359
 1100POPC   C3A16925  17.481  42.697   7.980
 1100POPC   C4A16926  17.292  42.572   7.636
 1100POPC   C1B16927  17.742  41.825   8.747
 1100POPC   C2B16928  17.862  42.019   8.348
 1100POPC   C3B16929  17.603  42.204   8.011
 1100POPC   C4B16930  17.531  42.096   7.567
 1101POPC   NC316931  11.174  26.610   9.518
 1101POPC   PO416932  11.473  27.271   9.477
 1101POPC   GL116933  11.426  26.940   9.212
 1101POPC   GL216934  11.113  27.028   9.172
 1101POPC   C1A16935  11.440  26.696   8.834
 1101POPC   D2A16936  11.608  26.475   8.487
 1101POPC   C3A16937  11.359  26.492   8.150
 1101POPC   C4A16938  11.314  26.737   7.831
 1101POPC   C1B16939  10.943  26.837   8.843
 1101POPC   C2B16940  11.105  26.825   8.454
 1101POPC   C3B16941  10.913  26.921   8.075
 1101POPC   C4B16942  10.802  26.831   7.665
 1102POPC   NC316943  17.542   7.421   9.589
 1102POPC   PO416944  17.158   6.874   9.645
 1102POPC   GL116945  17.247   7.209   9.245
 1102POPC   GL216946  17.134   7.587   9.285
 1102POPC   C1A16947  17.403   7.467   8.843
 1102POPC   D2A16948  17.464   7.591   8.362
 1102POPC   C3A16949  17.654   7.310   8.020
 1102POPC   C4A16950  17.782   6.885   7.860
 1102POPC   C1B16951  16.973   7.758   8.873
 1102POPC   C2B16952  16.957   7.563   8.463
 1102POPC   C3B16953  17.008   7.691   8.036
 1102POPC   C4B16954  17.067   7.517   7.612
 1103POPC   NC316955  19.544   4.889   9.510
 1103POPC   PO416956  18.874   4.988   9.633
 1103POPC   GL116957  18.821   5.157   9.206
 1103POPC   GL216958  19.183   5.132   9.183
 1103POPC   C1A16959  18.839   4.991   8.781
 1103POPC   D2A16960  18.602   5.043   8.379
 1103POPC   C3A16961  18.841   4.983   7.986
 1103POPC   C4A16962  18.866   5.010   7.531
 1103POPC   C1B16963  19.365   5.147   8.787
 1103POPC   C2B16964  19.191   4.999   8.397
 1103POPC   C3B16965  19.299   5.192   8.014
 1103POPC   C4B16966  19.352   5.139   7.590
 1104POPC   NC316967  26.229  41.754   9.514
 1104POPC   PO416968  26.316  41.114   9.458
 1104POPC   GL116969  25.973  41.347   9.215
 1104POPC   GL216970  26.241  41.500   9.073
 1104POPC   C1A16971  25.879  41.514   8.747
 1104POPC   D2A16972  26.222  41.510   8.415
 1104POPC   C3A16973  26.024  41.539   8.002
 1104POPC   C4A16974  26.035  41.767   7.624
 1104POPC   C1B16975  26.282  41.882   8.839
 1104POPC   C2B16976  26.384  42.026   8.438
 1104POPC   C3B16977  26.358  41.926   8.032
 1104POPC   C4B16978  26.493  42.098   7.662
 1105POPC   NC316979  18.177  10.719   9.605
 1105POPC   PO416980  18.790  10.882   9.354
 1105POPC   GL116981  18.479  10.783   9.025
 1105POPC   GL216982  18.205  10.567   9.119
 1105POPC   C1A16983  18.244  10.628   8.630
 1105POPC   D2A16984  18.290  10.545   8.190
 1105POPC   C3A16985  18.370  10.831   7.846
 1105POPC   C4A16986  18.270  10.764   7.401
 1105POPC   C1B16987  17.909  10.282   8.903
 1105POPC   C2B16988  17.842  10.331   8.468
 1105POPC   C3B16989  17.994  10.147   8.062
 1105POPC   C4B16990  18.202  10.349   7.704
 1106POPC   NC316991   1.496  22.253   9.544
 1106POPC   PO416992   0.910  22.311   9.539
 1106POPC   GL116993   1.137  22.090   9.240
 1106POPC   GL216994   1.253  21.752   9.306
 1106POPC   C1A16995   1.248  22.200   8.847
 1106POPC   D2A16996   1.010  22.270   8.482
 1106POPC   C3A16997   1.234  22.194   8.096
 1106POPC   C4A16998   1.396  22.498   7.799
 1106POPC   C1B16999   0.999  21.758   8.894
 1106POPC   C2B17000   1.237  21.820   8.507
 1106POPC   C3B17001   1.360  21.672   8.124
 1106POPC   C4B17002   1.482  21.849   7.804
 1107POPC   NC317003  17.315  24.957   9.498
 1107POPC   PO417004  17.719  25.488   9.569
 1107POPC   GL117005  17.544  25.320   9.208
 1107POPC   GL217006  17.736  25.032   9.135
 1107POPC   C1A17007  17.320  25.217   8.835
 1107POPC   D2A17008  17.248  25.412   8.445
 1107POPC   C3A17009  17.324  25.202   8.049
 1107POPC   C4A17010  17.357  25.427   7.638
 1107POPC   C1B17011  17.797  25.330   8.755
 1107POPC   C2B17012  17.751  25.425   8.342
 1107POPC   C3B17013  17.800  25.428   7.936
 1107POPC   C4B17014  17.698  25.071   7.726
 1108POPC   NC317015  39.866  43.412   9.505
 1108POPC   PO417016  39.701  42.747   9.373
 1108POPC   GL117017  39.841  43.101   9.090
 1108POPC   GL217018  40.191  43.240   9.149
 1108POPC   C1A17019  39.792  43.375   8.736
 1108POPC   D2A17020  40.041  43.375   8.343
 1108POPC   C3A17021  39.914  43.135   7.956
 1108POPC   C4A17022  39.762  43.260   7.543
 1108POPC   C1B17023  40.227  43.088   8.731
 1108POPC   C2B17024  40.521  42.950   8.480
 1108POPC   C3B17025  40.410  43.062   8.104
 1108POPC   C4B17026  40.294  42.813   7.795
 1109POPC   NC317027  44.096   5.182   9.408
 1109POPC   PO417028  43.485   5.310   9.345
 1109POPC   GL117029  43.801   5.305   9.023
 1109POPC   GL217030  44.059   5.005   8.920
 1109POPC   C1A17031  43.833   5.309   8.610
 1109POPC   D2A17032  43.837   4.984   8.336
 1109POPC   C3A17033  43.959   5.140   7.978
 1109POPC   C4A17034  44.050   5.050   7.591
 1109POPC   C1B17035  43.582   4.903   8.777
 1109POPC   C2B17036  43.322   4.912   8.437
 1109POPC   C3B17037  43.483   4.708   8.082
 1109POPC   C4B17038  43.619   4.814   7.682
 1110POPC   NC317039  20.116  41.797   9.443
 1110POPC   PO417040  19.619  41.416   9.521
 1110POPC   GL117041  19.816  41.495   9.151
 1110POPC   GL217042  19.912  41.196   9.032
 1110POPC   C1A17043  19.640  41.595   8.736
 1110POPC   D2A17044  19.418  41.625   8.348
 1110POPC   C3A17045  19.686  41.403   8.019
 1110POPC   C4A17046  19.902  41.452   7.616
 1110POPC   C1B17047  20.117  41.403   8.742
 1110POPC   C2B17048  20.025  41.303   8.373
 1110POPC   C3B17049  20.217  41.337   8.008
 1110POPC   C4B17050  20.297  41.118   7.640
 1111POPC   NC317051   8.429  14.223   9.427
 1111POPC   PO417052   7.960  14.737   9.541
 1111POPC   GL117053   8.083  14.501   9.188
 1111POPC   GL217054   7.831  14.287   9.221
 1111POPC   C1A17055   8.340  14.477   8.789
 1111POPC   D2A17056   8.276  14.700   8.407
 1111POPC   C3A17057   8.403  14.424   8.097
 1111POPC   C4A17058   8.511  14.394   7.702
 1111POPC   C1B17059   7.911  14.198   8.801
 1111POPC   C2B17060   7.975  14.279   8.376
 1111POPC   C3B17061   8.048  14.109   7.945
 1111POPC   C4B17062   8.063  14.290   7.519
 1112POPC   NC317063  18.778  18.229   9.696
 1112POPC   PO417064  19.206  18.700   9.473
 1112POPC   GL117065  19.162  18.388   9.151
 1112POPC   GL217066  18.830  18.164   9.173
 1112POPC   C1A17067  19.228  18.249   8.710
 1112POPC   D2A17068  19.192  18.033   8.302
 1112POPC   C3A17069  19.054  18.271   7.963
 1112POPC   C4A17070  18.982  18.200   7.529
 1112POPC   C1B17071  18.778  18.500   8.840
 1112POPC   C2B17072  18.847  18.463   8.409
 1112POPC   C3B17073  18.666  18.101   8.251
 1112POPC   C4B17074  18.625  18.016   7.847
 1113POPC   NC317075  20.075  17.787   9.766
 1113POPC   PO417076  19.689  17.330   9.585
 1113POPC   GL117077  19.983  17.323   9.267
 1113POPC   GL217078  19.710  17.246   9.067
 1113POPC   C1A17079  20.031  17.568   8.854
 1113POPC   D2A17080  19.827  17.583   8.433
 1113POPC   C3A17081  20.048  17.603   8.021
 1113POPC   C4A17082  19.864  17.791   7.656
 1113POPC   C1B17083  19.483  17.310   8.679
 1113POPC   C2B17084  19.559  17.174   8.255
 1113POPC   C3B17085  19.568  17.392   7.849
 1113POPC   C4B17086  19.432  17.252   7.460
 1114POPC   NC317087  27.954   2.276   9.456
 1114POPC   PO417088  27.786   1.615   9.516
 1114POPC   GL117089  27.474   1.785   9.217
 1114POPC   GL217090  27.524   2.132   9.211
 1114POPC   C1A17091  27.468   1.823   8.761
 1114POPC   D2A17092  27.804   1.716   8.476
 1114POPC   C3A17093  27.725   1.697   8.058
 1114POPC   C4A17094  27.585   2.014   7.780
 1114POPC   C1B17095  27.348   2.318   8.859
 1114POPC   C2B17096  27.303   2.228   8.457
 1114POPC   C3B17097  27.192   2.448   8.112
 1114POPC   C4B17098  27.257   2.409   7.721
 1115POPC   NC317099  17.264  31.107   9.476
 1115POPC   PO417100  17.658  30.506   9.646
 1115POPC   GL117101  17.618  30.778   9.301
 1115POPC   GL217102  17.334  30.631   9.221
 1115POPC   C1A17103  17.605  30.717   8.811
 1115POPC   D2A17104  17.800  30.595   8.421
 1115POPC   C3A17105  17.605  30.799   8.056
 1115POPC   C4A17106  17.217  31.018   7.907
 1115POPC   C1B17107  17.208  30.417   8.814
 1115POPC   C2B17108  17.278  30.629   8.394
 1115POPC   C3B17109  17.251  30.432   7.958
 1115POPC   C4B17110  17.345  30.406   7.498
 1116POPC   NC317111   7.220  21.524   9.832
 1116POPC   PO417112   7.646  21.272   9.375
 1116POPC   GL117113   7.546  21.414   9.056
 1116POPC   GL217114   7.234  21.486   9.132
 1116POPC   C1A17115   7.707  21.559   8.699
 1116POPC   D2A17116   7.586  21.423   8.296
 1116POPC   C3A17117   7.586  21.704   7.958
 1116POPC   C4A17118   7.672  21.497   7.594
 1116POPC   C1B17119   7.233  21.271   8.677
 1116POPC   C2B17120   7.305  21.003   8.257
 1116POPC   C3B17121   7.261  21.278   7.881
 1116POPC   C4B17122   7.036  21.612   8.054
 1117POPC   NC317123  43.752  31.267   9.686
 1117POPC   PO417124  43.110  31.276   9.597
 1117POPC   GL117125  43.129  31.091   9.172
 1117POPC   GL217126  43.452  31.043   9.035
 1117POPC   C1A17127  43.031  31.129   8.754
 1117POPC   D2A17128  43.227  31.103   8.357
 1117POPC   C3A17129  42.966  31.297   8.075
 1117POPC   C4A17130  42.967  31.541   7.727
 1117POPC   C1B17131  43.477  31.418   8.735
 1117POPC   C2B17132  43.507  31.621   8.306
 1117POPC   C3B17133  43.429  31.456   7.891
 1117POPC   C4B17134  43.472  31.569   7.437
 1118POPC   NC317135  44.211  38.866   9.575
 1118POPC   PO417136  44.731  39.313   9.477
 1118POPC   GL117137  44.569  39.410   9.094
 1118POPC   GL217138  44.541  39.073   9.009
 1118POPC   C1A17139  44.400  39.442   8.674
 1118POPC   D2A17140  44.621  39.291   8.324
 1118POPC   C3A17141  44.480  39.084   7.992
 1118POPC   C4A17142  44.411  39.299   7.614
 1118POPC   C1B17143  44.909  39.011   8.754
 1118POPC   C2B17144   0.102  39.083   8.343
 1118POPC   C3B17145   0.096  38.856   7.955
 1118POPC   C4B17146  44.799  38.915   7.617
 1119POPC   NC317147  15.336   7.469   9.456
 1119POPC   PO417148  15.447   6.793   9.280
 1119POPC   GL117149  15.254   7.098   9.103
 1119POPC   GL217150  14.951   7.128   9.255
 1119POPC   C1A17151  15.320   7.342   8.763
 1119POPC   D2A17152  15.409   7.286   8.353
 1119POPC   C3A17153  15.250   7.514   8.009
 1119POPC   C4A17154  15.292   7.303   7.632
 1119POPC   C1B17155  14.846   7.428   8.901
 1119POPC   C2B17156  14.929   7.458   8.442
 1119POPC   C3B17157  14.725   7.488   8.029
 1119POPC   C4B17158  14.756   7.674   7.627
 1120POPC   NC317159   9.229  14.367   9.462
 1120POPC   PO417160   8.595  14.654   9.364
 1120POPC   GL117161   8.868  14.329   9.097
 1120POPC   GL217162   9.188  14.049   9.100
 1120POPC   C1A17163   9.066  14.485   8.741
 1120POPC   D2A17164   8.793  14.508   8.398
 1120POPC   C3A17165   8.952  14.497   7.985
 1120POPC   C4A17166   8.914  14.650   7.552
 1120POPC   C1B17167   9.069  13.975   8.726
 1120POPC   C2B17168   9.182  14.150   8.347
 1120POPC   C3B17169   9.276  13.965   7.976
 1120POPC   C4B17170   9.204  14.212   7.648
 1121POPC   NC317171   1.050  23.769   9.307
 1121POPC   PO417172   1.545  23.354   9.409
 1121POPC   GL117173   1.324  23.434   9.026
 1121POPC   GL217174   1.384  23.781   8.909
 1121POPC   C1A17175   1.081  23.538   8.650
 1121POPC   D2A17176   1.050  23.806   8.361
 1121POPC   C3A17177   1.250  23.578   8.098
 1121POPC   C4A17178   1.109  23.512   7.708
 1121POPC   C1B17179   1.690  23.944   8.702
 1121POPC   C2B17180   1.807  23.841   8.335
 1121POPC   C3B17181   1.515  24.050   8.117
 1121POPC   C4B17182   1.297  23.987   7.775
 1122POPC   NC317183   5.563  15.571   9.356
 1122POPC   PO417184   5.984  16.064   9.635
 1122POPC   GL117185   5.824  16.014   9.225
 1122POPC   GL217186   6.098  16.048   9.006
 1122POPC   C1A17187   5.623  16.159   8.832
 1122POPC   D2A17188   5.830  16.255   8.447
 1122POPC   C3A17189   5.871  15.939   8.099
 1122POPC   C4A17190   5.864  16.102   7.667
 1122POPC   C1B17191   6.030  15.808   8.633
 1122POPC   C2B17192   6.271  15.453   8.458
 1122POPC   C3B17193   6.195  15.413   8.032
 1122POPC   C4B17194   6.241  15.780   7.751
 1123POPC   NC317195  28.589  17.806   9.430
 1123POPC   PO417196  29.200  17.530   9.460
 1123POPC   GL117197  28.979  17.626   9.100
 1123POPC   GL217198  28.954  17.302   9.041
 1123POPC   C1A17199  29.077  17.558   8.642
 1123POPC   D2A17200  29.241  17.591   8.261
 1123POPC   C3A17201  29.051  17.664   7.890
 1123POPC   C4A17202  29.289  17.806   7.537
 1123POPC   C1B17203  28.708  17.205   8.665
 1123POPC   C2B17204  28.822  17.280   8.228
 1123POPC   C3B17205  28.980  17.150   7.810
 1123POPC   C4B17206  28.960  17.046   7.319
 1124POPC   NC317207  23.347   0.626   9.416
 1124POPC   PO417208  23.429   1.329   9.521
 1124POPC   GL117209  23.499   1.104   9.139
 1124POPC   GL217210  23.786   0.903   9.143
 1124POPC   C1A17211  23.544   0.987   8.687
 1124POPC   D2A17212  23.631   1.231   8.345
 1124POPC   C3A17213  23.479   1.141   7.943
 1124POPC   C4A17214  23.736   1.295   7.663
 1124POPC   C1B17215  24.069   0.753   8.841
 1124POPC   C2B17216  24.022   0.933   8.460
 1124POPC   C3B17217  24.031   1.032   8.038
 1124POPC   C4B17218  24.152   0.981   7.648
 1125POPC   NC317219  43.954   8.429   9.409
 1125POPC   PO417220  43.392   8.000   9.412
 1125POPC   GL117221  43.724   8.007   9.069
 1125POPC   GL217222  44.023   8.216   8.975
 1125POPC   C1A17223  43.820   7.847   8.685
 1125POPC   D2A17224  43.679   7.946   8.316
 1125POPC   C3A17225  43.952   8.068   8.021
 1125POPC   C4A17226  43.713   8.137   7.680
 1125POPC   C1B17227  44.188   8.173   8.584
 1125POPC   C2B17228  44.389   8.249   8.230
 1125POPC   C3B17229  44.293   8.503   7.889
 1125POPC   C4B17230  44.022   8.491   7.525
 1126POPC   NC317231  34.808  16.415   9.476
 1126POPC   PO417232  35.459  16.757   9.429
 1126POPC   GL117233  35.136  16.701   9.120
 1126POPC   GL217234  35.211  17.081   9.093
 1126POPC   C1A17235  35.102  16.421   8.717
 1126POPC   D2A17236  35.126  16.340   8.238
 1126POPC   C3A17237  35.358  16.613   7.961
 1126POPC   C4A17238  35.036  16.749   7.674
 1126POPC   C1B17239  35.359  16.886   8.694
 1126POPC   C2B17240  35.145  16.907   8.308
 1126POPC   C3B17241  35.231  17.118   7.937
 1126POPC   C4B17242  35.686  17.049   7.838
 1127POPC   NC317243  11.101  43.797   9.783
 1127POPC   PO417244  11.408  44.076   9.314
 1127POPC   GL117245  11.250  43.838   9.016
 1127POPC   GL217246  11.424  43.527   9.042
 1127POPC   C1A17247  11.154  43.971   8.634
 1127POPC   D2A17248  10.939  43.863   8.262
 1127POPC   C3A17249  11.157  44.093   7.952
 1127POPC   C4A17250  11.321  44.028   7.556
 1127POPC   C1B17251  11.366  43.447   8.626
 1127POPC   C2B17252  11.433  43.706   8.289
 1127POPC   C3B17253  11.423  43.604   7.888
 1127POPC   C4B17254  11.690  43.282   7.734
 1128POPC   NC317255   6.967  42.434   9.399
 1128POPC   PO417256   6.343  42.203   9.341
 1128POPC   GL117257   6.564  42.391   9.073
 1128POPC   GL217258   6.611  42.698   9.170
 1128POPC   C1A17259   6.823  42.288   8.771
 1128POPC   D2A17260   6.617  42.221   8.424
 1128POPC   C3A17261   6.772  42.215   8.029
 1128POPC   C4A17262   6.463  42.373   7.789
 1128POPC   C1B17263   6.891  42.793   8.792
 1128POPC   C2B17264   6.925  42.632   8.387
 1128POPC   C3B17265   6.822  42.731   7.990
 1128POPC   C4B17266   6.775  42.913   7.581
 1129POPC   NC317267  36.803   2.956   9.493
 1129POPC   PO417268  36.859   2.231   9.507
 1129POPC   GL117269  36.804   2.538   9.183
 1129POPC   GL217270  37.180   2.505   9.191
 1129POPC   C1A17271  36.622   2.831   8.826
 1129POPC   D2A17272  36.714   3.016   8.413
 1129POPC   C3A17273  36.641   2.698   8.086
 1129POPC   C4A17274  36.915   2.577   7.785
 1129POPC   C1B17275  37.078   2.590   8.769
 1129POPC   C2B17276  37.049   2.628   8.374
 1129POPC   C3B17277  37.125   2.914   8.095
 1129POPC   C4B17278  37.276   2.923   7.673
 1130POPC   NC317279   8.483  37.863   9.428
 1130POPC   PO417280   8.182  37.207   9.429
 1130POPC   GL117281   8.215  37.527   9.137
 1130POPC   GL217282   8.464  37.290   8.997
 1130POPC   C1A17283   8.172  37.747   8.749
 1130POPC   D2A17284   8.046  37.590   8.355
 1130POPC   C3A17285   7.895  37.876   8.057
 1130POPC   C4A17286   8.058  38.050   7.656
 1130POPC   C1B17287   8.675  37.550   8.710
 1130POPC   C2B17288   8.531  37.782   8.339
 1130POPC   C3B17289   8.367  37.704   7.909
 1130POPC   C4B17290   8.436  37.537   7.440
 1131POPC   NC317291  15.088   4.609  10.150
 1131POPC   PO417292  14.878   4.683   9.540
 1131POPC   GL117293  15.007   4.477   9.110
 1131POPC   GL217294  15.344   4.472   9.083
 1131POPC   C1A17295  15.172   4.679   8.659
 1131POPC   D2A17296  15.165   4.426   8.238
 1131POPC   C3A17297  15.058   4.522   7.755
 1131POPC   C4A17298  15.068   4.520   7.277
 1131POPC   C1B17299  15.429   4.233   8.717
 1131POPC   C2B17300  15.575   4.109   8.321
 1131POPC   C3B17301  15.548   4.258   7.916
 1131POPC   C4B17302  15.306   4.100   7.537
 1132POPC   NC317303   4.326  33.183   9.828
 1132POPC   PO417304   4.757  32.752   9.499
 1132POPC   GL117305   4.471  32.712   9.124
 1132POPC   GL217306   4.194  32.899   9.064
 1132POPC   C1A17307   4.593  32.969   8.751
 1132POPC   D2A17308   4.471  33.202   8.435
 1132POPC   C3A17309   4.634  32.965   8.151
 1132POPC   C4A17310   4.450  33.104   7.842
 1132POPC   C1B17311   4.085  32.898   8.628
 1132POPC   C2B17312   4.116  32.911   8.191
 1132POPC   C3B17313   3.995  32.929   7.751
 1132POPC   C4B17314   3.923  32.823   7.322
 1133POPC   NC317315  33.186  24.789   9.521
 1133POPC   PO417316  32.649  24.337   9.499
 1133POPC   GL117317  32.884  24.524   9.164
 1133POPC   GL217318  33.227  24.408   9.152
 1133POPC   C1A17319  32.890  24.415   8.730
 1133POPC   D2A17320  33.022  24.586   8.341
 1133POPC   C3A17321  32.984  24.285   7.996
 1133POPC   C4A17322  33.151  24.312   7.583
 1133POPC   C1B17323  33.386  24.568   8.735
 1133POPC   C2B17324  33.551  24.617   8.275
 1133POPC   C3B17325  33.288  24.710   7.892
 1133POPC   C4B17326  33.144  24.801   7.435
 1134POPC   NC317327  20.991  42.016   9.319
 1134POPC   PO417328  21.254  42.558   9.577
 1134POPC   GL117329  21.413  42.347   9.225
 1134POPC   GL217330  21.558  42.626   9.109
 1134POPC   C1A17331  21.317  42.306   8.763
 1134POPC   D2A17332  21.198  42.253   8.313
 1134POPC   C3A17333  21.124  42.056   7.899
 1134POPC   C4A17334  21.135  42.163   7.367
 1134POPC   C1B17335  21.809  42.551   8.747
 1134POPC   C2B17336  21.617  42.589   8.399
 1134POPC   C3B17337  21.372  42.678   8.084
 1134POPC   C4B17338  21.346  42.478   7.698
 1135POPC   NC317339  17.083  16.418   9.762
 1135POPC   PO417340  17.584  16.073   9.463
 1135POPC   GL117341  17.425  15.920   9.118
 1135POPC   GL217342  17.530  15.596   9.160
 1135POPC   C1A17343  17.382  16.082   8.692
 1135POPC   D2A17344  17.577  16.250   8.313
 1135POPC   C3A17345  17.521  16.031   7.934
 1135POPC   C4A17346  17.608  16.010   7.500
 1135POPC   C1B17347  17.253  15.583   8.777
 1135POPC   C2B17348  17.402  15.697   8.339
 1135POPC   C3B17349  17.581  15.533   7.920
 1135POPC   C4B17350  17.294  15.614   7.572
 1136POPC   NC317351  29.538  18.956   9.473
 1136POPC   PO417352  30.199  19.199   9.457
 1136POPC   GL117353  30.117  19.161   9.054
 1136POPC   GL217354  29.781  19.224   9.103
 1136POPC   C1A17355  29.911  19.020   8.663
 1136POPC   D2A17356  29.919  18.804   8.293
 1136POPC   C3A17357  29.867  19.019   7.964
 1136POPC   C4A17358  29.786  18.852   7.616
 1136POPC   C1B17359  29.545  19.356   8.716
 1136POPC   C2B17360  29.741  19.383   8.290
 1136POPC   C3B17361  29.466  19.332   7.893
 1136POPC   C4B17362  29.481  19.231   7.447
 1137POPC   NC317363   4.313   7.056   9.486
 1137POPC   PO417364   4.422   7.686   9.508
 1137POPC   GL117365   4.343   7.464   9.119
 1137POPC   GL217366   4.047   7.238   9.105
 1137POPC   C1A17367   4.193   7.497   8.678
 1137POPC   D2A17368   4.044   7.334   8.273
 1137POPC   C3A17369   4.299   7.503   7.918
 1137POPC   C4A17370   4.683   7.693   7.759
 1137POPC   C1B17371   4.369   7.040   8.813
 1137POPC   C2B17372   4.438   6.945   8.391
 1137POPC   C3B17373   4.328   7.007   7.969
 1137POPC   C4B17374   4.580   7.096   7.618
 1138POPC   NC317375   7.053  23.100   9.274
 1138POPC   PO417376   7.491  22.610   9.465
 1138POPC   GL117377   7.447  22.810   9.101
 1138POPC   GL217378   7.553  23.132   9.041
 1138POPC   C1A17379   7.263  22.824   8.697
 1138POPC   D2A17380   7.331  22.977   8.308
 1138POPC   C3A17381   7.216  22.670   8.008
 1138POPC   C4A17382   7.021  22.851   7.656
 1138POPC   C1B17383   7.773  22.916   8.704
 1138POPC   C2B17384   7.844  23.030   8.260
 1138POPC   C3B17385   7.625  22.947   7.878
 1138POPC   C4B17386   7.460  23.177   7.544
 1139POPC   NC317387  37.852  19.645   9.700
 1139POPC   PO417388  37.293  19.858   9.644
 1139POPC   GL117389  37.479  19.851   9.220
 1139POPC   GL217390  37.856  19.931   9.228
 1139POPC   C1A17391  37.467  19.966   8.763
 1139POPC   D2A17392  37.626  20.295   8.471
 1139POPC   C3A17393  37.641  20.148   8.032
 1139POPC   C4A17394  37.515  19.844   7.698
 1139POPC   C1B17395  37.895  19.703   8.822
 1139POPC   C2B17396  37.839  19.781   8.375
 1139POPC   C3B17397  37.875  19.607   7.961
 1139POPC   C4B17398  37.911  19.588   7.488
 1140POPC   NC317399  44.273  41.242   9.532
 1140POPC   PO417400  43.733  41.646   9.542
 1140POPC   GL117401  43.905  41.736   9.130
 1140POPC   GL217402  44.209  41.579   9.149
 1140POPC   C1A17403  43.818  41.603   8.699
 1140POPC   D2A17404  43.600  41.523   8.293
 1140POPC   C3A17405  43.914  41.563   7.967
 1140POPC   C4A17406  44.171  41.872   7.732
 1140POPC   C1B17407  44.267  41.249   8.833
 1140POPC   C2B17408  44.124  41.296   8.395
 1140POPC   C3B17409  44.354  41.363   8.000
 1140POPC   C4B17410  44.313  41.262   7.542
 1141POPC   NC317411  17.451  20.044   9.472
 1141POPC   PO417412  17.897  19.494   9.601
 1141POPC   GL117413  17.807  19.748   9.222
 1141POPC   GL217414  17.504  19.874   9.008
 1141POPC   C1A17415  17.841  19.585   8.814
 1141POPC   D2A17416  17.614  19.816   8.476
 1141POPC   C3A17417  17.495  19.597   8.108
 1141POPC   C4A17418  17.725  19.518   7.714
 1141POPC   C1B17419  17.176  19.742   8.734
 1141POPC   C2B17420  17.131  19.937   8.336
 1141POPC   C3B17421  17.441  20.128   8.062
 1141POPC   C4B17422  17.372  19.896   7.714
 1142POPC   NC317423  15.715   1.663   9.633
 1142POPC   PO417424  16.336   1.997   9.578
 1142POPC   GL117425  16.196   1.863   9.203
 1142POPC   GL217426  15.979   2.095   9.084
 1142POPC   C1A17427  16.254   1.720   8.809
 1142POPC   D2A17428  16.092   1.954   8.454
 1142POPC   C3A17429  16.281   1.907   8.063
 1142POPC   C4A17430  16.171   1.686   7.712
 1142POPC   C1B17431  15.751   1.717   8.872
 1142POPC   C2B17432  15.613   1.659   8.426
 1142POPC   C3B17433  15.720   1.774   7.979
 1142POPC   C4B17434  15.639   1.747   7.509
 1143POPC   NC317435  34.726  13.315   9.434
 1143POPC   PO417436  34.372  12.863   9.756
 1143POPC   GL117437  34.429  12.930   9.289
 1143POPC   GL217438  34.289  13.205   9.166
 1143POPC   C1A17439  34.629  12.879   8.881
 1143POPC   D2A17440  34.619  12.957   8.422
 1143POPC   C3A17441  34.480  12.785   8.000
 1143POPC   C4A17442  34.678  12.626   7.620
 1143POPC   C1B17443  34.257  13.220   8.726
 1143POPC   C2B17444  34.163  13.125   8.280
 1143POPC   C3B17445  34.168  13.196   7.858
 1143POPC   C4B17446  34.431  13.071   7.502
 1144POPC   NC317447  27.556   6.756   9.770
 1144POPC   PO417448  27.753   6.168  10.020
 1144POPC   GL117449  27.667   6.339   9.503
 1144POPC   GL217450  27.754   6.679   9.311
 1144POPC   C1A17451  27.533   6.328   9.008
 1144POPC   D2A17452  27.659   6.339   8.524
 1144POPC   C3A17453  27.624   6.552   8.102
 1144POPC   C4A17454  27.390   6.427   7.718
 1144POPC   C1B17455  27.566   6.796   8.861
 1144POPC   C2B17456  27.476   7.030   8.469
 1144POPC   C3B17457  27.363   6.997   8.023
 1144POPC   C4B17458  27.535   6.889   7.636
 1145POPC   NC317459  37.080  14.952   9.540
 1145POPC   PO417460  36.737  15.508   9.597
 1145POPC   GL117461  36.794  15.268   9.235
 1145POPC   GL217462  37.137  15.296   9.173
 1145POPC   C1A17463  36.790  15.202   8.785
 1145POPC   D2A17464  36.613  15.281   8.388
 1145POPC   C3A17465  36.767  15.203   7.962
 1145POPC   C4A17466  36.653  15.508   7.666
 1145POPC   C1B17467  37.303  15.242   8.774
 1145POPC   C2B17468  37.136  15.212   8.363
 1145POPC   C3B17469  37.293  15.114   7.956
 1145POPC   C4B17470  37.128  14.764   7.758
 1146POPC   NC317471  20.246  34.562   9.555
 1146POPC   PO417472  19.617  34.406   9.606
 1146POPC   GL117473  19.830  34.663   9.252
 1146POPC   GL217474  20.176  34.851   9.154
 1146POPC   C1A17475  20.025  34.443   8.902
 1146POPC   D2A17476  20.197  34.431   8.498
 1146POPC   C3A17477  19.940  34.441   8.139
 1146POPC   C4A17478  19.868  34.328   7.725
 1146POPC   C1B17479  19.886  34.925   8.825
 1146POPC   C2B17480  19.720  34.841   8.444
 1146POPC   C3B17481  19.973  34.941   8.131
 1146POPC   C4B17482  20.065  34.790   7.760
 1147POPC   NC317483  26.905  44.508   9.567
 1147POPC   PO417484  26.286  44.851   9.473
 1147POPC   GL117485  26.601  44.796   9.183
 1147POPC   GL217486  26.892  44.981   9.275
 1147POPC   C1A17487  26.878  44.681   8.857
 1147POPC   D2A17488  26.943  44.487   8.481
 1147POPC   C3A17489  26.888  44.597   8.070
 1147POPC   C4A17490  27.056  44.313   7.776
 1147POPC   C1B17491  27.211   0.083   8.959
 1147POPC   C2B17492  27.192  44.948   8.546
 1147POPC   C3B17493  27.147   0.017   8.128
 1147POPC   C4B17494  27.208  44.892   7.726
 1148POPC   NC317495   2.287  34.778   9.509
 1148POPC   PO417496   1.797  34.331   9.646
 1148POPC   GL117497   2.102  34.338   9.282
 1148POPC   GL217498   1.985  34.657   9.129
 1148POPC   C1A17499   2.173  34.309   8.828
 1148POPC   D2A17500   1.979  34.479   8.442
 1148POPC   C3A17501   2.152  34.364   8.032
 1148POPC   C4A17502   2.131  34.589   7.639
 1148POPC   C1B17503   2.241  34.811   8.779
 1148POPC   C2B17504   2.296  35.031   8.423
 1148POPC   C3B17505   2.195  34.872   8.060
 1148POPC   C4B17506   2.121  35.096   7.698
 1149POPC   NC317507  29.293  31.207   9.680
 1149POPC   PO417508  28.706  31.335   9.458
 1149POPC   GL117509  29.097  31.510   9.253
 1149POPC   GL217510  29.394  31.308   9.195
 1149POPC   C1A17511  29.094  31.713   8.830
 1149POPC   D2A17512  28.770  31.655   8.512
 1149POPC   C3A17513  28.942  31.799   8.130
 1149POPC   C4A17514  29.133  31.651   7.752
 1149POPC   C1B17515  29.406  31.312   8.756
 1149POPC   C2B17516  29.213  31.403   8.359
 1149POPC   C3B17517  29.195  31.141   7.980
 1149POPC   C4B17518  29.382  31.225   7.575
 1150POPC   NC317519  19.226   8.687   9.333
 1150POPC   PO417520  18.803   9.197   9.423
 1150POPC   GL117521  19.092   9.106   9.095
 1150POPC   GL217522  19.363   9.304   9.222
 1150POPC   C1A17523  19.165   8.913   8.692
 1150POPC   D2A17524  18.883   8.924   8.364
 1150POPC   C3A17525  18.958   9.003   7.949
 1150POPC   C4A17526  18.718   8.859   7.592
 1150POPC   C1B17527  19.427   9.357   8.765
 1150POPC   C2B17528  19.616   9.247   8.350
 1150POPC   C3B17529  19.456   9.211   7.900
 1150POPC   C4B17530  19.284   8.869   7.591
 1151POPC   NC317531   3.433   7.067   9.850
 1151POPC   PO417532   3.424   7.681   9.573
 1151POPC   GL117533   3.584   7.488   9.205
 1151POPC   GL217534   3.851   7.700   9.121
 1151POPC   C1A17535   3.678   7.374   8.774
 1151POPC   D2A17536   3.498   7.543   8.422
 1151POPC   C3A17537   3.521   7.296   8.061
 1151POPC   C4A17538   3.487   7.497   7.667
 1151POPC   C1B17539   3.851   7.866   8.739
 1151POPC   C2B17540   4.018   7.872   8.346
 1151POPC   C3B17541   3.828   7.731   7.979
 1151POPC   C4B17542   3.922   7.755   7.534
 1152POPC   NC317543  36.317  36.292   9.625
 1152POPC   PO417544  35.785  35.832   9.412
 1152POPC   GL117545  35.972  35.917   9.027
 1152POPC   GL217546  36.185  36.232   9.103
 1152POPC   C1A17547  36.269  35.840   8.721
 1152POPC   D2A17548  36.306  36.105   8.391
 1152POPC   C3A17549  36.138  35.899   8.035
 1152POPC   C4A17550  36.307  35.929   7.639
 1152POPC   C1B17551  36.337  36.603   8.825
 1152POPC   C2B17552  36.332  36.636   8.375
 1152POPC   C3B17553  36.379  36.404   7.974
 1152POPC   C4B17554  35.995  36.315   7.773
 1153POPC   NC317555  16.317  30.754   9.322
 1153POPC   PO417556  16.900  30.810   9.535
 1153POPC   GL117557  16.844  30.646   9.145
 1153POPC   GL217558  16.651  30.370   9.225
 1153POPC   C1A17559  17.072  30.895   8.821
 1153POPC   D2A17560  16.822  30.749   8.523
 1153POPC   C3A17561  16.850  30.726   8.090
 1153POPC   C4A17562  16.928  30.693   7.655
 1153POPC   C1B17563  16.709  30.315   8.762
 1153POPC   C2B17564  16.910  30.267   8.345
 1153POPC   C3B17565  16.709  30.262   7.912
 1153POPC   C4B17566  16.867  30.229   7.492
 1154POPC   NC317567  26.807  41.160   9.470
 1154POPC   PO417568  26.677  41.845   9.549
 1154POPC   GL117569  26.696  41.692   9.159
 1154POPC   GL217570  26.990  41.542   9.117
 1154POPC   C1A17571  26.639  41.532   8.741
 1154POPC   D2A17572  26.765  41.681   8.392
 1154POPC   C3A17573  26.615  41.475   8.038
 1154POPC   C4A17574  26.757  41.592   7.632
 1154POPC   C1B17575  27.143  41.413   8.700
 1154POPC   C2B17576  27.037  41.270   8.267
 1154POPC   C3B17577  27.180  41.390   7.837
 1154POPC   C4B17578  27.131  41.359   7.362
 1155POPC   NC317579  33.256  15.280   9.770
 1155POPC   PO417580  32.774  14.784   9.612
 1155POPC   GL117581  33.050  15.019   9.262
 1155POPC   GL217582  33.033  15.391   9.298
 1155POPC   C1A17583  33.196  15.124   8.802
 1155POPC   D2A17584  33.097  14.969   8.352
 1155POPC   C3A17585  33.106  15.055   7.889
 1155POPC   C4A17586  33.280  15.388   7.620
 1155POPC   C1B17587  32.736  15.346   8.962
 1155POPC   C2B17588  32.793  15.364   8.526
 1155POPC   C3B17589  32.993  15.467   8.150
 1155POPC   C4B17590  32.792  15.507   7.758
 1156POPC   NC317591  32.827   0.867   9.533
 1156POPC   PO417592  33.336   1.290   9.413
 1156POPC   GL117593  32.935   1.243   9.214
 1156POPC   GL217594  32.753   1.548   9.242
 1156POPC   C1A17595  32.787   1.092   8.815
 1156POPC   D2A17596  32.801   0.797   8.444
 1156POPC   C3A17597  33.131   0.844   8.186
 1156POPC   C4A17598  33.125   0.999   7.809
 1156POPC   C1B17599  33.019   1.562   8.845
 1156POPC   C2B17600  33.171   1.321   8.465
 1156POPC   C3B17601  33.132   1.449   8.044
 1156POPC   C4B17602  33.036   1.678   7.695
 1157POPC   NC317603  15.681  31.000  10.001
 1157POPC   PO417604  15.936  30.548   9.493
 1157POPC   GL117605  15.918  30.483   9.088
 1157POPC   GL217606  16.194  30.268   9.035
 1157POPC   C1A17607  15.786  30.687   8.713
 1157POPC   D2A17608  15.974  30.804   8.326
 1157POPC   C3A17609  15.702  30.960   8.029
 1157POPC   C4A17610  15.595  30.609   7.868
 1157POPC   C1B17611  16.287  30.577   8.703
 1157POPC   C2B17612  16.432  30.535   8.309
 1157POPC   C3B17613  16.316  30.659   7.944
 1157POPC   C4B17614  16.074  30.362   7.737
 1158POPC   NC317615  38.662  13.364   9.442
 1158POPC   PO417616  38.143  13.726   9.500
 1158POPC   GL117617  38.400  13.683   9.148
 1158POPC   GL217618  38.237  13.359   9.122
 1158POPC   C1A17619  38.645  13.464   8.787
 1158POPC   D2A17620  38.617  13.679   8.371
 1158POPC   C3A17621  38.897  13.670   8.008
 1158POPC   C4A17622  38.734  13.686   7.586
 1158POPC   C1B17623  38.171  13.575   8.714
 1158POPC   C2B17624  38.175  13.396   8.344
 1158POPC   C3B17625  38.073  13.552   7.977
 1158POPC   C4B17626  38.258  13.501   7.582
 1159POPC   NC317627  25.828   6.966   9.542
 1159POPC   PO417628  26.480   6.788   9.476
 1159POPC   GL117629  26.140   6.747   9.143
 1159POPC   GL217630  25.744   6.718   9.099
 1159POPC   C1A17631  26.248   6.741   8.701
 1159POPC   D2A17632  26.387   6.878   8.308
 1159POPC   C3A17633  26.360   6.632   7.961
 1159POPC   C4A17634  26.154   6.820   7.661
 1159POPC   C1B17635  25.883   6.388   8.796
 1159POPC   C2B17636  26.037   6.435   8.337
 1159POPC   C3B17637  25.872   6.444   7.915
 1159POPC   C4B17638  25.754   6.103   7.678
 1160POPC   NC317639  43.140   0.406   9.594
 1160POPC   PO417640  43.552   0.042   9.262
 1160POPC   GL117641  43.227   0.313   9.090
 1160POPC   GL217642  42.879   0.246   9.176
 1160POPC   C1A17643  43.024   0.473   8.707
 1160POPC   D2A17644  43.008   0.716   8.290
 1160POPC   C3A17645  43.017   0.519   7.865
 1160POPC   C4A17646  43.364   0.479   7.557
 1160POPC   C1B17647  42.615   0.178   8.847
 1160POPC   C2B17648  42.725   0.069   8.434
 1160POPC   C3B17649  42.619   0.193   8.019
 1160POPC   C4B17650  42.772   0.129   7.606
 1161POPC   NC317651  42.639  17.046   9.474
 1161POPC   PO417652  42.095  17.486   9.418
 1161POPC   GL117653  42.357  17.526   9.049
 1161POPC   GL217654  42.459  17.207   9.018
 1161POPC   C1A17655  42.565  17.662   8.643
 1161POPC   D2A17656  42.701  17.826   8.214
 1161POPC   C3A17657  42.398  17.705   7.890
 1161POPC   C4A17658  42.040  17.549   7.637
 1161POPC   C1B17659  42.606  17.145   8.582
 1161POPC   C2B17660  42.588  17.331   8.187
 1161POPC   C3B17661  42.816  17.432   7.779
 1161POPC   C4B17662  42.759  17.249   7.312
 1162POPC   NC317663  14.246  37.145   9.402
 1162POPC   PO417664  14.649  36.635   9.425
 1162POPC   GL117665  14.378  36.732   9.105
 1162POPC   GL217666  14.070  36.589   9.205
 1162POPC   C1A17667  14.460  36.878   8.708
 1162POPC   D2A17668  14.706  36.779   8.364
 1162POPC   C3A17669  14.537  36.840   7.974
 1162POPC   C4A17670  14.602  37.056   7.591
 1162POPC   C1B17671  13.950  36.746   8.791
 1162POPC   C2B17672  14.064  36.742   8.375
 1162POPC   C3B17673  14.109  37.086   8.128
 1162POPC   C4B17674  13.908  37.231   7.772
 1163POPC   NC317675  39.073  38.721   9.645
 1163POPC   PO417676  39.298  38.108   9.588
 1163POPC   GL117677  39.134  38.364   9.241
 1163POPC   GL217678  39.322  38.655   9.167
 1163POPC   C1A17679  39.085  38.391   8.777
 1163POPC   D2A17680  39.260  38.202   8.385
 1163POPC   C3A17681  39.216  38.353   7.956
 1163POPC   C4A17682  39.130  38.388   7.504
 1163POPC   C1B17683  39.520  38.646   8.748
 1163POPC   C2B17684  39.300  38.694   8.365
 1163POPC   C3B17685  39.135  38.860   8.003
 1163POPC   C4B17686  39.362  38.796   7.659
 1164POPC   NC317687   1.721  31.236   9.590
 1164POPC   PO417688   2.223  31.660   9.636
 1164POPC   GL117689   2.088  31.623   9.216
 1164POPC   GL217690   2.163  31.285   9.130
 1164POPC   C1A17691   1.990  31.564   8.751
 1164POPC   D2A17692   1.772  31.317   8.441
 1164POPC   C3A17693   1.737  31.571   8.101
 1164POPC   C4A17694   1.697  31.496   7.682
 1164POPC   C1B17695   2.364  31.204   8.726
 1164POPC   C2B17696   2.244  31.266   8.306
 1164POPC   C3B17697   2.206  31.442   7.940
 1164POPC   C4B17698   2.140  31.304   7.575
 1165POPC   NC317699   0.908  11.861   9.269
 1165POPC   PO417700   1.421  12.329   9.461
 1165POPC   GL117701   1.288  12.199   9.094
 1165POPC   GL217702   1.417  11.865   9.121
 1165POPC   C1A17703   1.243  12.199   8.652
 1165POPC   D2A17704   1.463  12.472   8.327
 1165POPC   C3A17705   1.245  12.371   7.985
 1165POPC   C4A17706   1.071  11.998   7.810
 1165POPC   C1B17707   1.614  11.849   8.710
 1165POPC   C2B17708   1.508  11.955   8.285
 1165POPC   C3B17709   1.490  11.729   7.904
 1165POPC   C4B17710   1.520  11.864   7.466
 1166POPC   NC317711  19.590  35.611   9.452
 1166POPC   PO417712  19.974  35.037   9.610
 1166POPC   GL117713  19.891  35.256   9.240
 1166POPC   GL217714  19.567  35.155   9.210
 1166POPC   C1A17715  19.969  35.416   8.813
 1166POPC   D2A17716  19.766  35.369   8.421
 1166POPC   C3A17717  19.941  35.420   8.015
 1166POPC   C4A17718  19.962  35.768   7.792
 1166POPC   C1B17719  19.392  35.034   8.852
 1166POPC   C2B17720  19.303  35.171   8.439
 1166POPC   C3B17721  19.510  35.112   8.037
 1166POPC   C4B17722  19.570  34.858   7.651
 1167POPC   NC317723  23.622  40.204   9.534
 1167POPC   PO417724  23.953  39.666   9.619
 1167POPC   GL117725  23.799  39.822   9.194
 1167POPC   GL217726  23.831  40.197   9.085
 1167POPC   C1A17727  23.871  39.796   8.747
 1167POPC   D2A17728  24.015  40.012   8.380
 1167POPC   C3A17729  23.980  39.752   8.056
 1167POPC   C4A17730  23.893  39.739   7.671
 1167POPC   C1B17731  23.641  40.260   8.683
 1167POPC   C2B17732  23.493  40.003   8.350
 1167POPC   C3B17733  23.635  40.123   7.969
 1167POPC   C4B17734  23.444  40.464   7.801
 1168POPC   NC317735  42.559  17.683   9.506
 1168POPC   PO417736  42.158  18.223   9.674
 1168POPC   GL117737  42.085  18.273   9.224
 1168POPC   GL217738  42.064  17.942   9.185
 1168POPC   C1A17739  42.294  18.374   8.805
 1168POPC   D2A17740  42.560  18.272   8.429
 1168POPC   C3A17741  42.390  18.221   8.005
 1168POPC   C4A17742  42.495  18.347   7.591
 1168POPC   C1B17743  42.101  17.912   8.741
 1168POPC   C2B17744  42.160  17.859   8.321
 1168POPC   C3B17745  41.952  17.935   7.926
 1168POPC   C4B17746  42.114  18.030   7.508
 1169POPC   NC317747  29.842   9.414   9.464
 1169POPC   PO417748  29.658   8.690   9.382
 1169POPC   GL117749  29.929   8.929   9.088
 1169POPC   GL217750  30.030   9.257   9.039
 1169POPC   C1A17751  30.155   8.901   8.728
 1169POPC   D2A17752  29.948   9.068   8.399
 1169POPC   C3A17753  30.128   8.982   8.043
 1169POPC   C4A17754  30.398   9.145   7.770
 1169POPC   C1B17755  29.993   9.494   8.652
 1169POPC   C2B17756  29.671   9.571   8.376
 1169POPC   C3B17757  29.650   9.314   8.046
 1169POPC   C4B17758  29.910   9.285   7.694
 1170POPC   NC317759  12.501  27.900   9.443
 1170POPC   PO417760  13.051  27.505   9.568
 1170POPC   GL117761  12.881  27.454   9.180
 1170POPC   GL217762  13.199  27.358   9.109
 1170POPC   C1A17763  12.786  27.669   8.760
 1170POPC   D2A17764  12.875  27.819   8.304
 1170POPC   C3A17765  12.577  27.820   7.965
 1170POPC   C4A17766  12.586  27.608   7.580
 1170POPC   C1B17767  13.383  27.175   8.766
 1170POPC   C2B17768  13.408  27.338   8.393
 1170POPC   C3B17769  13.204  27.329   8.030
 1170POPC   C4B17770  13.063  27.654   7.818
 1171POPC   NC317771  44.520   7.605   9.374
 1171POPC   PO417772  44.650   7.004   9.547
 1171POPC   GL117773  44.856   7.189   9.206
 1171POPC   GL217774   0.071   6.945   9.053
 1171POPC   C1A17775  44.664   7.313   8.811
 1171POPC   D2A17776  44.601   7.401   8.384
 1171POPC   C3A17777  44.822   7.305   8.035
 1171POPC   C4A17778  44.912   7.557   7.671
 1171POPC   C1B17779   0.005   7.007   8.603
 1171POPC   C2B17780  44.635   6.879   8.343
 1171POPC   C3B17781  44.348   7.052   8.024
 1171POPC   C4B17782  44.510   7.200   7.609
 1172POPC   NC317783   7.257  12.932   9.448
 1172POPC   PO417784   7.240  12.228   9.414
 1172POPC   GL117785   7.330  12.536   9.069
 1172POPC   GL217786   7.630  12.782   9.098
 1172POPC   C1A17787   7.433  12.655   8.622
 1172POPC   D2A17788   7.505  12.837   8.196
 1172POPC   C3A17789   7.186  12.798   7.839
 1172POPC   C4A17790   7.235  12.472   7.485
 1172POPC   C1B17791   7.576  13.133   8.791
 1172POPC   C2B17792   7.643  13.320   8.384
 1172POPC   C3B17793   7.485  13.280   7.937
 1172POPC   C4B17794   7.676  13.218   7.521
 1173POPC   NC317795   4.483  14.601   9.701
 1173POPC   PO417796   3.876  14.535   9.567
 1173POPC   GL117797   4.161  14.358   9.273
 1173POPC   GL217798   4.456  14.177   9.359
 1173POPC   C1A17799   4.160  14.254   8.833
 1173POPC   D2A17800   4.114  14.313   8.360
 1173POPC   C3A17801   4.080  14.614   8.057
 1173POPC   C4A17802   3.972  14.465   7.623
 1173POPC   C1B17803   4.619  14.446   9.029
 1173POPC   C2B17804   4.576  14.412   8.597
 1173POPC   C3B17805   4.610  14.512   8.167
 1173POPC   C4B17806   4.472  14.616   7.735
 1174POPC   NC317807  44.245  23.739   9.583
 1174POPC   PO417808  43.637  23.452   9.385
 1174POPC   GL117809  43.696  23.828   9.154
 1174POPC   GL217810  44.068  23.863   9.136
 1174POPC   C1A17811  43.566  24.044   8.767
 1174POPC   D2A17812  43.787  23.917   8.401
 1174POPC   C3A17813  43.606  23.936   7.990
 1174POPC   C4A17814  43.573  23.595   7.663
 1174POPC   C1B17815  44.069  23.547   8.824
 1174POPC   C2B17816  43.935  23.428   8.429
 1174POPC   C3B17817  43.943  23.557   8.033
 1174POPC   C4B17818  44.017  23.336   7.658
 1175POPC   NC317819  21.691  15.401   9.549
 1175POPC   PO417820  22.294  15.110   9.387
 1175POPC   GL117821  22.009  15.144   9.065
 1175POPC   GL217822  21.946  15.478   9.107
 1175POPC   C1A17823  22.013  15.099   8.627
 1175POPC   D2A17824  22.271  14.898   8.324
 1175POPC   C3A17825  22.183  14.973   7.923
 1175POPC   C4A17826  21.972  14.961   7.538
 1175POPC   C1B17827  22.252  15.536   8.785
 1175POPC   C2B17828  22.082  15.565   8.367
 1175POPC   C3B17829  21.949  15.448   7.928
 1175POPC   C4B17830  22.279  15.368   7.600
 1176POPC   NC317831   7.816  23.037   9.458
 1176POPC   PO417832   8.489  22.986   9.573
 1176POPC   GL117833   8.270  23.175   9.239
 1176POPC   GL217834   8.167  22.852   9.122
 1176POPC   C1A17835   8.100  23.270   8.828
 1176POPC   D2A17836   8.414  23.326   8.497
 1176POPC   C3A17837   8.359  23.287   8.065
 1176POPC   C4A17838   8.064  23.151   7.742
 1176POPC   C1B17839   8.415  22.879   8.743
 1176POPC   C2B17840   8.294  22.821   8.332
 1176POPC   C3B17841   8.392  22.797   7.901
 1176POPC   C4B17842   8.331  22.822   7.457
 1177POPC   NC317843  35.144  27.802   9.574
 1177POPC   PO417844  35.714  27.456   9.509
 1177POPC   GL117845  35.442  27.561   9.146
 1177POPC   GL217846  35.292  27.906   9.104
 1177POPC   C1A17847  35.483  27.653   8.690
 1177POPC   D2A17848  35.321  27.776   8.286
 1177POPC   C3A17849  35.261  27.493   7.986
 1177POPC   C4A17850  35.499  27.354   7.672
 1177POPC   C1B17851  35.003  27.837   8.752
 1177POPC   C2B17852  34.853  27.986   8.332
 1177POPC   C3B17853  34.963  27.907   7.878
 1177POPC   C4B17854  35.015  28.023   7.412
 1178POPC   NC317855  44.817   0.778   9.501
 1178POPC   PO417856  44.764   1.420   9.567
 1178POPC   GL117857  44.663   1.184   9.226
 1178POPC   GL217858  44.361   1.027   9.247
 1178POPC   C1A17859  44.793   1.038   8.838
 1178POPC   D2A17860  44.815   1.374   8.521
 1178POPC   C3A17861  44.923   1.184   8.172
 1178POPC   C4A17862  44.757   1.121   7.777
 1178POPC   C1B17863  44.262   0.964   8.850
 1178POPC   C2B17864  44.426   1.010   8.466
 1178POPC   C3B17865  44.422   1.241   8.156
 1178POPC   C4B17866  44.279   1.364   7.809
 1179POPC   NC317867   6.719  29.289   9.852
 1179POPC   PO417868   6.449  29.341   9.298
 1179POPC   GL117869   6.550  29.146   8.959
 1179POPC   GL217870   6.859  29.182   8.864
 1179POPC   C1A17871   6.325  29.134   8.610
 1179POPC   D2A17872   6.433  29.030   8.225
 1179POPC   C3A17873   6.303  29.389   8.023
 1179POPC   C4A17874   6.319  29.400   7.610
 1179POPC   C1B17875   7.094  29.019   8.555
 1179POPC   C2B17876   6.974  28.987   8.169
 1179POPC   C3B17877   6.778  29.196   7.870
 1179POPC   C4B17878   6.792  29.276   7.471
 1180POPC   NC317879  38.481  22.379   9.377
 1180POPC   PO417880  38.269  21.695   9.439
 1180POPC   GL117881  38.511  21.961   9.107
 1180POPC   GL217882  38.333  22.274   8.910
 1180POPC   C1A17883  38.700  22.009   8.700
 1180POPC   D2A17884  38.490  22.200   8.347
 1180POPC   C3A17885  38.597  21.969   8.005
 1180POPC   C4A17886  38.296  21.907   7.716
 1180POPC   C1B17887  38.686  22.521   8.696
 1180POPC   C2B17888  38.620  22.691   8.264
 1180POPC   C3B17889  38.538  22.445   7.852
 1180POPC   C4B17890  38.527  22.263   7.420
 1181POPC   NC317891   1.584  18.536   9.377
 1181POPC   PO417892   0.920  18.440   9.323
 1181POPC   GL117893   1.210  18.293   9.108
 1181POPC   GL217894   1.133  17.981   9.181
 1181POPC   C1A17895   1.340  18.394   8.727
 1181POPC   D2A17896   1.426  18.226   8.346
 1181POPC   C3A17897   1.197  18.460   8.060
 1181POPC   C4A17898   1.264  18.617   7.656
 1181POPC   C1B17899   1.230  17.870   8.764
 1181POPC   C2B17900   0.971  17.844   8.431
 1181POPC   C3B17901   1.055  17.966   8.061
 1181POPC   C4B17902   1.139  18.123   7.677
 1182POPC   NC317903  18.228  32.405   9.495
 1182POPC   PO417904  18.612  31.792   9.589
 1182POPC   GL117905  18.631  31.976   9.180
 1182POPC   GL217906  18.350  32.146   9.092
 1182POPC   C1A17907  18.699  32.073   8.742
 1182POPC   D2A17908  18.407  31.992   8.416
 1182POPC   C3A17909  18.392  32.181   8.043
 1182POPC   C4A17910  18.317  31.990   7.700
 1182POPC   C1B17911  18.061  32.179   8.747
 1182POPC   C2B17912  17.923  32.098   8.319
 1182POPC   C3B17913  17.841  32.081   7.904
 1182POPC   C4B17914  18.008  32.376   7.585
 1183POPC   NC317915  29.332  16.164   9.681
 1183POPC   PO417916  28.837  15.708   9.553
 1183POPC   GL117917  29.037  15.975   9.249
 1183POPC   GL217918  29.417  15.958   9.197
 1183POPC   C1A17919  29.064  16.026   8.796
 1183POPC   D2A17920  28.953  16.219   8.400
 1183POPC   C3A17921  29.004  15.903   8.059
 1183POPC   C4A17922  29.227  15.530   7.876
 1183POPC   C1B17923  29.568  16.082   8.782
 1183POPC   C2B17924  29.389  15.962   8.385
 1183POPC   C3B17925  29.509  15.989   7.945
 1183POPC   C4B17926  29.514  16.322   7.625
 1184POPC   NC317927   9.405  28.320   9.428
 1184POPC   PO417928  10.151  28.299   9.522
 1184POPC   GL117929   9.917  28.570   9.231
 1184POPC   GL217930   9.809  28.302   9.114
 1184POPC   C1A17931   9.630  28.663   8.841
 1184POPC   D2A17932   9.447  28.452   8.472
 1184POPC   C3A17933   9.751  28.464   8.170
 1184POPC   C4A17934   9.597  28.523   7.789
 1184POPC   C1B17935   9.618  28.104   8.806
 1184POPC   C2B17936   9.716  28.004   8.430
 1184POPC   C3B17937   9.538  28.016   8.046
 1184POPC   C4B17938   9.746  28.032   7.677
 1185POPC   NC317939   0.016   5.029   9.511
 1185POPC   PO417940  44.462   5.454   9.506
 1185POPC   GL117941  44.561   5.120   9.195
 1185POPC   GL217942  44.426   4.784   9.240
 1185POPC   C1A17943  44.614   5.107   8.751
 1185POPC   D2A17944  44.816   5.360   8.445
 1185POPC   C3A17945  44.736   5.358   8.016
 1185POPC   C4A17946  44.494   5.292   7.653
 1185POPC   C1B17947  44.448   4.633   8.815
 1185POPC   C2B17948  44.316   4.794   8.404
 1185POPC   C3B17949  44.423   4.905   7.995
 1185POPC   C4B17950  44.792   4.872   7.796
 1186POPC   NC317951  28.571  28.924   9.424
 1186POPC   PO417952  29.266  29.074   9.485
 1186POPC   GL117953  29.022  29.149   9.147
 1186POPC   GL217954  28.874  28.878   9.003
 1186POPC   C1A17955  29.083  29.361   8.754
 1186POPC   D2A17956  29.003  29.600   8.377
 1186POPC   C3A17957  29.154  29.278   8.121
 1186POPC   C4A17958  28.953  29.127   7.787
 1186POPC   C1B17959  29.297  28.891   8.794
 1186POPC   C2B17960  29.460  28.875   8.354
 1186POPC   C3B17961  29.424  28.899   7.874
 1186POPC   C4B17962  29.522  28.937   7.388
 1187POPC   NC317963  19.344  12.781   9.492
 1187POPC   PO417964  18.725  13.061   9.325
 1187POPC   GL117965  19.095  13.031   9.106
 1187POPC   GL217966  19.153  12.675   9.027
 1187POPC   C1A17967  18.993  13.036   8.700
 1187POPC   D2A17968  19.159  12.870   8.379
 1187POPC   C3A17969  19.027  13.062   8.040
 1187POPC   C4A17970  19.115  13.001   7.643
 1187POPC   C1B17971  18.954  12.480   8.646
 1187POPC   C2B17972  18.933  12.442   8.174
 1187POPC   C3B17973  19.221  12.537   7.828
 1187POPC   C4B17974  19.369  12.488   7.373
 1188POPC   NC317975   7.820  36.599   9.923
 1188POPC   PO417976   7.535  37.139   9.557
 1188POPC   GL117977   7.412  37.090   9.123
 1188POPC   GL217978   7.437  36.736   9.113
 1188POPC   C1A17979   7.165  36.901   8.738
 1188POPC   D2A17980   7.334  36.963   8.352
 1188POPC   C3A17981   7.116  36.968   7.966
 1188POPC   C4A17982   7.398  37.179   7.722
 1188POPC   C1B17983   7.545  36.474   8.772
 1188POPC   C2B17984   7.701  36.567   8.375
 1188POPC   C3B17985   7.558  36.683   7.974
 1188POPC   C4B17986   7.653  36.526   7.584
 1189POPC   NC317987  41.113  31.115   9.510
 1189POPC   PO417988  40.491  31.436   9.687
 1189POPC   GL117989  40.730  31.363   9.237
 1189POPC   GL217990  40.864  31.641   9.058
 1189POPC   C1A17991  40.597  31.312   8.765
 1189POPC   D2A17992  40.676  31.205   8.348
 1189POPC   C3A17993  40.581  31.362   7.956
 1189POPC   C4A17994  40.864  31.218   7.647
 1189POPC   C1B17995  41.090  31.394   8.788
 1189POPC   C2B17996  41.099  31.571   8.403
 1189POPC   C3B17997  41.043  31.572   7.991
 1189POPC   C4B17998  40.813  31.740   7.670
 1190POPC   NC317999  42.973  13.030   9.479
 1190POPC   PO418000  43.449  12.561   9.463
 1190POPC   GL118001  43.278  12.803   9.079
 1190POPC   GL218002  42.944  12.798   9.026
 1190POPC   C1A18003  43.213  12.814   8.602
 1190POPC   D2A18004  43.439  13.018   8.267
 1190POPC   C3A18005  43.343  12.942   7.864
 1190POPC   C4A18006  43.009  12.710   7.748
 1190POPC   C1B18007  42.814  13.140   8.802
 1190POPC   C2B18008  42.594  13.127   8.460
 1190POPC   C3B18009  42.801  12.981   8.133
 1190POPC   C4B18010  42.757  13.156   7.771
 1191POPC   NC318011   9.693  36.902   9.461
 1191POPC   PO418012  10.157  36.520   9.410
 1191POPC   GL118013  10.022  36.826   9.087
 1191POPC   GL218014  10.012  37.178   9.094
 1191POPC   C1A18015  10.077  36.961   8.657
 1191POPC   D2A18016   9.908  37.140   8.337
 1191POPC   C3A18017   9.698  36.950   7.995
 1191POPC   C4A18018   9.858  36.813   7.613
 1191POPC   C1B18019   9.611  37.058   8.834
 1191POPC   C2B18020   9.405  37.094   8.408
 1191POPC   C3B18021   9.247  37.218   7.981
 1191POPC   C4B18022   9.488  37.217   7.605
 1192POPC   NC318023  17.930  41.057   9.411
 1192POPC   PO418024  18.589  40.774   9.495
 1192POPC   GL118025  18.345  40.884   9.151
 1192POPC   GL218026  18.090  40.629   9.151
 1192POPC   C1A18027  18.379  40.902   8.709
 1192POPC   D2A18028  18.525  40.725   8.321
 1192POPC   C3A18029  18.376  40.912   7.945
 1192POPC   C4A18030  18.518  40.777   7.556
 1192POPC   C1B18031  17.988  40.387   8.804
 1192POPC   C2B18032  18.081  40.536   8.440
 1192POPC   C3B18033  17.953  40.648   8.053
 1192POPC   C4B18034  18.079  40.542   7.628
 1193POPC   NC318035  31.237   0.538   9.274
 1193POPC   PO418036  31.380  44.897   9.300
 1193POPC   GL118037  31.614   0.225   9.091
 1193POPC   GL218038  31.847   0.043   8.919
 1193POPC   C1A18039  31.596   0.548   8.747
 1193POPC   D2A18040  31.711   0.737   8.348
 1193POPC   C3A18041  31.499   0.600   7.984
 1193POPC   C4A18042  31.604   0.647   7.551
 1193POPC   C1B18043  31.507   0.060   8.607
 1193POPC   C2B18044  31.585   0.068   8.170
 1193POPC   C3B18045  31.588   0.154   7.753
 1193POPC   C4B18046  31.206   0.263   7.637
 1194POPC   NC318047   3.246  43.546   9.564
 1194POPC   PO418048   3.764  44.034   9.716
 1194POPC   GL118049   3.606  43.994   9.262
 1194POPC   GL218050   3.409  43.745   9.112
 1194POPC   C1A18051   3.749  44.040   8.817
 1194POPC   D2A18052   3.548  43.948   8.415
 1194POPC   C3A18053   3.764  43.975   8.005
 1194POPC   C4A18054   3.867  44.357   7.801
 1194POPC   C1B18055   3.639  43.542   8.749
 1194POPC   C2B18056   3.864  43.556   8.336
 1194POPC   C3B18057   3.725  43.450   7.930
 1194POPC   C4B18058   3.655  43.673   7.539
 1195POPC   NC318059   5.475   9.297   9.576
 1195POPC   PO418060   6.019   8.822   9.473
 1195POPC   GL118061   5.913   9.067   9.134
 1195POPC   GL218062   5.554   9.094   9.119
 1195POPC   C1A18063   5.849   8.980   8.702
 1195POPC   D2A18064   5.952   9.210   8.328
 1195POPC   C3A18065   5.766   9.036   8.000
 1195POPC   C4A18066   5.858   8.814   7.682
 1195POPC   C1B18067   5.362   9.219   8.740
 1195POPC   C2B18068   5.449   9.333   8.314
 1195POPC   C3B18069   5.369   9.295   7.860
 1195POPC   C4B18070   5.362   8.930   7.571
 1196POPC   NC318071   8.223   4.998   9.552
 1196POPC   PO418072   7.815   5.451   9.338
 1196POPC   GL118073   8.169   5.216   9.097
 1196POPC   GL218074   8.307   4.841   9.089
 1196POPC   C1A18075   8.244   5.115   8.676
 1196POPC   D2A18076   8.162   4.931   8.336
 1196POPC   C3A18077   8.271   5.114   7.993
 1196POPC   C4A18078   8.130   5.272   7.624
 1196POPC   C1B18079   8.628   4.804   8.754
 1196POPC   C2B18080   8.674   4.988   8.303
 1196POPC   C3B18081   8.710   4.950   7.816
 1196POPC   C4B18082   8.677   5.158   7.391
 1197POPC   NC318083  26.273   5.690   9.537
 1197POPC   PO418084  26.888   5.896   9.511
 1197POPC   GL118085  26.740   5.933   9.137
 1197POPC   GL218086  26.560   5.636   9.129
 1197POPC   C1A18087  26.999   5.966   8.778
 1197POPC   D2A18088  27.128   6.189   8.404
 1197POPC   C3A18089  26.894   5.971   8.062
 1197POPC   C4A18090  27.105   5.979   7.684
 1197POPC   C1B18091  26.516   5.750   8.717
 1197POPC   C2B18092  26.662   5.541   8.368
 1197POPC   C3B18093  26.493   5.579   7.976
 1197POPC   C4B18094  26.573   5.761   7.626
 1198POPC   NC318095   3.233  18.324   9.419
 1198POPC   PO418096   3.593  17.807   9.496
 1198POPC   GL118097   3.536  18.014   9.146
 1198POPC   GL218098   3.745  18.306   9.208
 1198POPC   C1A18099   3.221  18.059   8.817
 1198POPC   D2A18100   3.377  17.939   8.426
 1198POPC   C3A18101   3.382  18.006   8.001
 1198POPC   C4A18102   3.775  18.145   7.835
 1198POPC   C1B18103   3.701  18.269   8.739
 1198POPC   C2B18104   3.555  18.407   8.319
 1198POPC   C3B18105   3.486  18.548   7.904
 1198POPC   C4B18106   3.789  18.606   7.591
 1199POPC   NC318107   9.715  34.924   9.315
 1199POPC   PO418108   9.963  35.545   9.513
 1199POPC   GL118109   9.712  35.671   9.148
 1199POPC   GL218110   9.562  35.362   9.127
 1199POPC   C1A18111   9.657  35.588   8.682
 1199POPC   D2A18112   9.905  35.427   8.346
 1199POPC   C3A18113   9.826  35.488   7.922
 1199POPC   C4A18114  10.159  35.664   7.692
 1199POPC   C1B18115   9.398  35.085   8.762
 1199POPC   C2B18116   9.541  35.081   8.333
 1199POPC   C3B18117   9.446  34.967   7.897
 1199POPC   C4B18118   9.381  34.985   7.449
 1200POPC   NC318119  27.413  41.954   9.521
 1200POPC   PO418120  27.293  41.323   9.486
 1200POPC   GL118121  27.501  41.598   9.149
 1200POPC   GL218122  27.358  41.918   9.024
 1200POPC   C1A18123  27.630  41.589   8.711
 1200POPC   D2A18124  27.540  41.318   8.360
 1200POPC   C3A18125  27.685  41.431   7.971
 1200POPC   C4A18126  27.644  41.453   7.533
 1200POPC   C1B18127  27.224  41.899   8.613
 1200POPC   C2B18128  27.281  41.738   8.218
 1200POPC   C3B18129  27.419  41.853   7.794
 1200POPC   C4B18130  27.373  41.815   7.316
 1201POPC   NC318131  44.379  30.489   9.657
 1201POPC   PO418132  44.776  29.864   9.586
 1201POPC   GL118133  44.632  29.856   9.157
 1201POPC   GL218134  44.392  30.104   9.184
 1201POPC   C1A18135  44.799  29.885   8.737
 1201POPC   D2A18136  44.846  29.638   8.377
 1201POPC   C3A18137  44.776  29.724   7.984
 1201POPC   C4A18138  44.704  29.785   7.586
 1201POPC   C1B18139  44.393  30.163   8.729
 1201POPC   C2B18140  44.525  30.066   8.288
 1201POPC   C3B18141  44.662  30.220   7.864
 1201POPC   C4B18142  44.786  30.317   7.422
 1202POPC   NC318143  41.201  14.951  10.158
 1202POPC   PO418144  40.894  15.194   9.563
 1202POPC   GL118145  40.891  15.160   9.123
 1202POPC   GL218146  41.135  15.420   9.126
 1202POPC   C1A18147  40.690  15.204   8.707
 1202POPC   D2A18148  40.805  15.373   8.327
 1202POPC   C3A18149  40.628  15.261   7.979
 1202POPC   C4A18150  40.476  14.926   7.792
 1202POPC   C1B18151  41.182  15.319   8.675
 1202POPC   C2B18152  41.291  15.344   8.197
 1202POPC   C3B18153  41.094  15.371   7.762
 1202POPC   C4B18154  41.006  15.390   7.293
 1203POPC   NC318155  37.894  15.031   9.999
 1203POPC   PO418156  37.497  15.264   9.535
 1203POPC   GL118157  37.667  15.351   9.138
 1203POPC   GL218158  37.910  15.596   9.103
 1203POPC   C1A18159  37.827  15.251   8.717
 1203POPC   D2A18160  37.609  15.016   8.401
 1203POPC   C3A18161  37.747  14.695   8.124
 1203POPC   C4A18162  37.742  14.887   7.723
 1203POPC   C1B18163  37.549  15.721   8.834
 1203POPC   C2B18164  37.448  15.619   8.437
 1203POPC   C3B18165  37.661  15.477   8.075
 1203POPC   C4B18166  37.630  15.406   7.644
 1204POPC   NC318167  34.719   9.937   9.499
 1204POPC   PO418168  34.281   9.547   9.398
 1204POPC   GL118169  34.370   9.925   9.129
 1204POPC   GL218170  34.676   9.749   9.021
 1204POPC   C1A18171  34.485  10.093   8.725
 1204POPC   D2A18172  34.394   9.885   8.362
 1204POPC   C3A18173  34.648   9.657   8.103
 1204POPC   C4A18174  34.479   9.754   7.742
 1204POPC   C1B18175  34.358   9.553   8.737
 1204POPC   C2B18176  34.340   9.307   8.354
 1204POPC   C3B18177  34.347   9.225   7.924
 1204POPC   C4B18178  34.685   9.287   7.668
 1205POPC   NC318179  42.657  36.716   9.729
 1205POPC   PO418180  43.340  36.880   9.600
 1205POPC   GL118181  43.112  36.944   9.243
 1205POPC   GL218182  42.945  36.661   9.130
 1205POPC   C1A18183  43.064  37.008   8.787
 1205POPC   D2A18184  43.137  36.869   8.388
 1205POPC   C3A18185  42.928  36.557   8.134
 1205POPC   C4A18186  43.083  36.730   7.764
 1205POPC   C1B18187  42.775  36.600   8.691
 1205POPC   C2B18188  42.609  36.881   8.381
 1205POPC   C3B18189  42.517  36.990   7.982
 1205POPC   C4B18190  42.580  36.644   7.706
 1206POPC   NC318191   2.371  43.847   9.495
 1206POPC   PO418192   3.005  43.958   9.572
 1206POPC   GL118193   2.854  43.665   9.237
 1206POPC   GL218194   2.539  43.462   9.159
 1206POPC   C1A18195   2.783  43.803   8.816
 1206POPC   D2A18196   3.045  43.846   8.468
 1206POPC   C3A18197   2.838  44.047   8.131
 1206POPC   C4A18198   2.892  43.982   7.713
 1206POPC   C1B18199   2.610  43.322   8.731
 1206POPC   C2B18200   2.614  43.582   8.338
 1206POPC   C3B18201   2.626  43.584   7.882
 1206POPC   C4B18202   2.674  43.596   7.412
 1207POPC   NC318203  25.198  33.413   9.541
 1207POPC   PO418204  24.956  34.028   9.432
 1207POPC   GL118205  25.177  33.794   9.143
 1207POPC   GL218206  25.487  33.958   9.061
 1207POPC   C1A18207  25.020  33.609   8.745
 1207POPC   D2A18208  25.183  33.617   8.312
 1207POPC   C3A18209  25.126  33.455   7.906
 1207POPC   C4A18210  24.994  33.644   7.543
 1207POPC   C1B18211  25.365  33.977   8.644
 1207POPC   C2B18212  25.063  34.115   8.364
 1207POPC   C3B18213  25.084  33.983   7.929
 1207POPC   C4B18214  25.464  33.793   7.692
 1208POPC   NC318215   7.321   5.383   9.355
 1208POPC   PO418216   7.113   4.751   9.459
 1208POPC   GL118217   7.423   4.863   9.136
 1208POPC   GL218218   7.794   4.868   9.235
 1208POPC   C1A18219   7.313   4.916   8.702
 1208POPC   D2A18220   7.266   5.245   8.369
 1208POPC   C3A18221   7.319   5.071   7.955
 1208POPC   C4A18222   7.409   5.252   7.556
 1208POPC   C1B18223   7.817   4.840   8.767
 1208POPC   C2B18224   7.660   4.909   8.322
 1208POPC   C3B18225   7.818   4.918   7.886
 1208POPC   C4B18226   7.774   4.902   7.428
 1209POPC   NC318227   1.515   0.940   9.463
 1209POPC   PO418228   1.553   1.646   9.564
 1209POPC   GL118229   1.278   1.419   9.245
 1209POPC   GL218230   1.367   1.113   9.013
 1209POPC   C1A18231   0.948   1.371   8.917
 1209POPC   D2A18232   1.041   1.188   8.530
 1209POPC   C3A18233   0.834   1.001   8.191
 1209POPC   C4A18234   1.114   1.043   7.817
 1209POPC   C1B18235   1.344   0.810   8.659
 1209POPC   C2B18236   1.341   0.839   8.234
 1209POPC   C3B18237   1.616   1.040   7.945
 1209POPC   C4B18238   1.553   1.000   7.519
 1210POPC   NC318239   7.305  21.004   9.544
 1210POPC   PO418240   7.527  20.388   9.445
 1210POPC   GL118241   7.364  20.678   9.153
 1210POPC   GL218242   7.675  20.856   9.083
 1210POPC   C1A18243   7.282  20.759   8.730
 1210POPC   D2A18244   7.411  20.483   8.390
 1210POPC   C3A18245   7.566  20.574   8.003
 1210POPC   C4A18246   7.273  20.763   7.774
 1210POPC   C1B18247   7.695  21.052   8.680
 1210POPC   C2B18248   7.816  20.923   8.278
 1210POPC   C3B18249   7.705  21.041   7.850
 1210POPC   C4B18250   7.530  21.010   7.423
 1211POPC   NC318251   4.567  22.393   9.552
 1211POPC   PO418252   4.468  21.814   9.382
 1211POPC   GL118253   4.424  22.091   9.053
 1211POPC   GL218254   4.155  22.274   9.194
 1211POPC   C1A18255   4.521  22.153   8.582
 1211POPC   D2A18256   4.495  22.518   8.273
 1211POPC   C3A18257   4.471  22.375   7.843
 1211POPC   C4A18258   4.470  21.905   7.730
 1211POPC   C1B18259   4.010  22.112   8.741
 1211POPC   C2B18260   4.094  22.148   8.266
 1211POPC   C3B18261   4.028  22.148   7.802
 1211POPC   C4B18262   4.165  22.115   7.385
 1212POPC   NC318263  34.058  14.888   9.321
 1212POPC   PO418264  33.528  15.325   9.405
 1212POPC   GL118265  33.700  15.184   9.049
 1212POPC   GL218266  33.571  14.853   9.068
 1212POPC   C1A18267  33.700  15.327   8.631
 1212POPC   D2A18268  33.822  15.330   8.205
 1212POPC   C3A18269  33.738  15.508   7.812
 1212POPC   C4A18270  34.039  15.534   7.474
 1212POPC   C1B18271  33.816  14.812   8.692
 1212POPC   C2B18272  33.603  14.872   8.317
 1212POPC   C3B18273  33.617  14.993   7.884
 1212POPC   C4B18274  33.455  14.930   7.500
 1213POPC   NC318275  35.957  42.615   9.312
 1213POPC   PO418276  36.358  43.053   9.709
 1213POPC   GL118277  36.332  43.021   9.238
 1213POPC   GL218278  36.443  42.726   9.142
 1213POPC   C1A18279  36.215  43.179   8.810
 1213POPC   D2A18280  36.052  43.032   8.402
 1213POPC   C3A18281  36.105  43.234   7.988
 1213POPC   C4A18282  36.004  42.898   7.654
 1213POPC   C1B18283  36.628  42.878   8.737
 1213POPC   C2B18284  36.575  43.062   8.349
 1213POPC   C3B18285  36.480  42.902   7.936
 1213POPC   C4B18286  36.452  43.158   7.605
 1214POPC   NC318287  37.613  22.607   9.444
 1214POPC   PO418288  38.106  23.033   9.708
 1214POPC   GL118289  37.992  23.097   9.243
 1214POPC   GL218290  37.611  23.045   9.151
 1214POPC   C1A18291  37.948  23.065   8.796
 1214POPC   D2A18292  37.989  23.118   8.397
 1214POPC   C3A18293  37.694  23.002   8.134
 1214POPC   C4A18294  37.732  23.125   7.740
 1214POPC   C1B18295  37.611  22.700   8.818
 1214POPC   C2B18296  37.482  22.555   8.445
 1214POPC   C3B18297  37.726  22.499   8.116
 1214POPC   C4B18298  37.523  22.631   7.781
 1215POPC   NC318299   6.466  32.402   9.512
 1215POPC   PO418300   6.778  31.824   9.534
 1215POPC   GL118301   6.742  31.987   9.132
 1215POPC   GL218302   6.722  32.361   9.078
 1215POPC   C1A18303   6.807  32.031   8.707
 1215POPC   D2A18304   6.493  32.122   8.367
 1215POPC   C3A18305   6.658  32.089   7.944
 1215POPC   C4A18306   7.087  31.958   7.829
 1215POPC   C1B18307   6.679  32.519   8.656
 1215POPC   C2B18308   6.942  32.375   8.312
 1215POPC   C3B18309   6.942  32.529   7.909
 1215POPC   C4B18310   6.557  32.760   7.745
 1216POPC   NC318311  19.124  35.776   9.643
 1216POPC   PO418312  19.564  36.049   9.227
 1216POPC   GL118313  19.092  36.036   9.166
 1216POPC   GL218314  18.793  36.234   9.051
 1216POPC   C1A18315  18.957  35.864   8.756
 1216POPC   D2A18316  18.977  36.077   8.342
 1216POPC   C3A18317  18.993  35.881   7.935
 1216POPC   C4A18318  19.062  36.014   7.523
 1216POPC   C1B18319  19.086  36.399   8.742
 1216POPC   C2B18320  19.148  36.576   8.299
 1216POPC   C3B18321  18.948  36.401   7.897
 1216POPC   C4B18322  18.808  36.431   7.456
 1217POPC   NC318323  37.361  27.222   9.427
 1217POPC   PO418324  37.444  26.556   9.422
 1217POPC   GL118325  37.646  26.815   9.167
 1217POPC   GL218326  38.021  26.865   9.223
 1217POPC   C1A18327  37.579  26.856   8.732
 1217POPC   D2A18328  37.793  26.845   8.356
 1217POPC   C3A18329  37.558  26.852   7.968
 1217POPC   C4A18330  37.476  26.827   7.547
 1217POPC   C1B18331  37.984  26.571   8.852
 1217POPC   C2B18332  38.038  26.406   8.420
 1217POPC   C3B18333  37.850  26.435   7.987
 1217POPC   C4B18334  37.953  26.718   7.634
 1218POPC   NC318335  36.142  42.660   9.782
 1218POPC   PO418336  36.000  42.107   9.357
 1218POPC   GL118337  36.198  42.261   9.036
 1218POPC   GL218338  36.354  41.969   8.977
 1218POPC   C1A18339  36.195  42.574   8.708
 1218POPC   D2A18340  36.339  42.586   8.314
 1218POPC   C3A18341  35.988  42.541   8.022
 1218POPC   C4A18342  36.016  42.387   7.581
 1218POPC   C1B18343  36.062  41.888   8.713
 1218POPC   C2B18344  36.029  42.161   8.410
 1218POPC   C3B18345  36.131  42.036   8.036
 1218POPC   C4B18346  36.105  41.853   7.692
 1219POPC   NC318347  21.648   3.823   9.453
 1219POPC   PO418348  21.205   3.372   9.572
 1219POPC   GL118349  21.471   3.349   9.215
 1219POPC   GL218350  21.299   3.637   9.117
 1219POPC   C1A18351  21.392   3.309   8.764
 1219POPC   D2A18352  21.575   3.472   8.404
 1219POPC   C3A18353  21.432   3.457   8.011
 1219POPC   C4A18354  21.646   3.268   7.708
 1219POPC   C1B18355  21.464   3.829   8.765
 1219POPC   C2B18356  21.240   3.915   8.427
 1219POPC   C3B18357  21.119   3.851   8.045
 1219POPC   C4B18358  21.412   3.957   7.740
 1220POPC   NC318359  36.613  43.358   9.495
 1220POPC   PO418360  37.349  43.411   9.493
 1220POPC   GL118361  37.227  43.131   9.144
 1220POPC   GL218362  36.852  43.098   9.135
 1220POPC   C1A18363  37.116  43.133   8.708
 1220POPC   D2A18364  37.065  42.844   8.398
 1220POPC   C3A18365  36.981  42.983   8.009
 1220POPC   C4A18366  36.896  42.848   7.619
 1220POPC   C1B18367  36.689  43.409   8.805
 1220POPC   C2B18368  36.824  43.630   8.427
 1220POPC   C3B18369  36.707  43.447   8.023
 1220POPC   C4B18370  36.907  43.367   7.656
 1221POPC   NC318371  41.613  10.669   9.631
 1221POPC   PO418372  41.034  10.342   9.599
 1221POPC   GL118373  41.394  10.489   9.229
 1221POPC   GL218374  41.730  10.301   9.183
 1221POPC   C1A18375  41.543  10.688   8.827
 1221POPC   D2A18376  41.516  10.455   8.413
 1221POPC   C3A18377  41.467  10.707   8.059
 1221POPC   C4A18378  41.635  11.021   7.775
 1221POPC   C1B18379  41.929  10.372   8.748
 1221POPC   C2B18380  41.959  10.688   8.385
 1221POPC   C3B18381  41.950  10.541   7.969
 1221POPC   C4B18382  41.609  10.334   7.735
 1222POPC   NC318383  19.982  36.267   9.783
 1222POPC   PO418384  19.641  36.869   9.644
 1222POPC   GL118385  19.750  36.733   9.225
 1222POPC   GL218386  19.811  37.055   9.081
 1222POPC   C1A18387  19.556  36.612   8.806
 1222POPC   D2A18388  19.642  36.746   8.355
 1222POPC   C3A18389  19.661  36.598   7.912
 1222POPC   C4A18390  19.879  36.816   7.577
 1222POPC   C1B18391  19.996  36.848   8.721
 1222POPC   C2B18392  20.135  37.001   8.319
 1222POPC   C3B18393  20.095  37.250   7.929
 1222POPC   C4B18394  20.242  37.165   7.524
 1223POPC   NC318395  10.684  37.975   9.512
 1223POPC   PO418396  10.756  37.351   9.504
 1223POPC   GL118397  10.516  37.494   9.165
 1223POPC   GL218398  10.372  37.856   9.138
 1223POPC   C1A18399  10.437  37.265   8.819
 1223POPC   D2A18400  10.354  37.383   8.392
 1223POPC   C3A18401  10.668  37.350   8.067
 1223POPC   C4A18402  10.452  37.297   7.699
 1223POPC   C1B18403  10.466  37.770   8.725
 1223POPC   C2B18404  10.649  37.809   8.323
 1223POPC   C3B18405  10.345  37.747   7.981
 1223POPC   C4B18406  10.299  38.013   7.591
 1224POPC   NC318407   2.926  27.142   9.529
 1224POPC   PO418408   2.395  26.747   9.613
 1224POPC   GL118409   2.610  26.618   9.257
 1224POPC   GL218410   2.917  26.790   9.170
 1224POPC   C1A18411   2.622  26.566   8.820
 1224POPC   D2A18412   2.919  26.739   8.557
 1224POPC   C3A18413   2.770  26.783   8.149
 1224POPC   C4A18414   2.971  26.910   7.769
 1224POPC   C1B18415   3.041  27.126   8.855
 1224POPC   C2B18416   2.755  27.221   8.512
 1224POPC   C3B18417   2.852  27.285   8.085
 1224POPC   C4B18418   3.184  27.397   7.800
 1225POPC   NC318419  20.952  31.534   9.491
 1225POPC   PO418420  20.234  31.401   9.452
 1225POPC   GL118421  20.589  31.420   9.135
 1225POPC   GL218422  20.737  31.124   8.980
 1225POPC   C1A18423  20.807  31.685   8.862
 1225POPC   D2A18424  20.859  31.764   8.435
 1225POPC   C3A18425  20.537  31.847   8.165
 1225POPC   C4A18426  20.577  31.604   7.794
 1225POPC   C1B18427  20.705  31.279   8.585
 1225POPC   C2B18428  20.383  31.570   8.570
 1225POPC   C3B18429  20.120  31.496   8.247
 1225POPC   C4B18430  20.187  31.270   7.860
 1226POPC   NC318431   0.594  42.855   9.464
 1226POPC   PO418432   0.161  42.299   9.615
 1226POPC   GL118433   0.267  42.418   9.209
 1226POPC   GL218434   0.602  42.474   9.145
 1226POPC   C1A18435   0.320  42.152   8.848
 1226POPC   D2A18436   0.291  41.979   8.472
 1226POPC   C3A18437   0.530  42.049   8.105
 1226POPC   C4A18438   0.425  42.204   7.705
 1226POPC   C1B18439   0.381  42.644   8.767
 1226POPC   C2B18440   0.400  42.515   8.355
 1226POPC   C3B18441   0.281  42.652   7.971
 1226POPC   C4B18442   0.340  42.688   7.559
 1227POPC   NC318443  28.586  12.431   9.521
 1227POPC   PO418444  28.370  11.763   9.518
 1227POPC   GL118445  28.486  12.044   9.211
 1227POPC   GL218446  28.203  12.106   9.059
 1227POPC   C1A18447  28.617  12.112   8.779
 1227POPC   D2A18448  28.438  11.873   8.449
 1227POPC   C3A18449  28.536  11.974   8.048
 1227POPC   C4A18450  28.714  12.208   7.686
 1227POPC   C1B18451  28.026  12.110   8.680
 1227POPC   C2B18452  28.160  12.324   8.321
 1227POPC   C3B18453  28.359  12.446   7.976
 1227POPC   C4B18454  28.212  12.161   7.668
 1228POPC   NC318455  40.065   1.763   9.596
 1228POPC   PO418456  40.369   2.257   9.400
 1228POPC   GL118457  39.985   2.021   9.132
 1228POPC   GL218458  39.945   1.664   9.122
 1228POPC   C1A18459  39.845   1.899   8.697
 1228POPC   D2A18460  40.038   2.065   8.326
 1228POPC   C3A18461  39.993   1.955   7.894
 1228POPC   C4A18462  39.940   1.732   7.517
 1228POPC   C1B18463  40.253   1.471   8.864
 1228POPC   C2B18464  40.264   1.614   8.449
 1228POPC   C3B18465  40.424   1.739   8.080
 1228POPC   C4B18466  40.429   1.562   7.648
 1229POPC   NC318467  11.422  15.483   9.492
 1229POPC   PO418468  11.172  14.842   9.506
 1229POPC   GL118469  11.274  15.123   9.154
 1229POPC   GL218470  11.639  15.257   9.085
 1229POPC   C1A18471  11.193  15.328   8.773
 1229POPC   D2A18472  11.480  15.140   8.463
 1229POPC   C3A18473  11.371  14.907   8.099
 1229POPC   C4A18474  11.346  15.075   7.672
 1229POPC   C1B18475  11.627  15.591   8.765
 1229POPC   C2B18476  11.418  15.640   8.378
 1229POPC   C3B18477  11.426  15.501   7.948
 1229POPC   C4B18478  11.632  15.684   7.584
 1230POPC   NC318479  13.158  33.289   9.490
 1230POPC   PO418480  13.508  32.823   9.872
 1230POPC   GL118481  13.562  32.849   9.359
 1230POPC   GL218482  13.350  33.047   9.088
 1230POPC   C1A18483  13.672  32.697   8.899
 1230POPC   D2A18484  13.892  32.814   8.498
 1230POPC   C3A18485  13.799  32.825   8.038
 1230POPC   C4A18486  13.586  32.850   7.636
 1230POPC   C1B18487  13.198  32.784   8.770
 1230POPC   C2B18488  13.383  32.912   8.391
 1230POPC   C3B18489  13.329  33.110   8.008
 1230POPC   C4B18490  13.074  32.897   7.737
 1231POPC   NC318491   8.254  16.068   9.581
 1231POPC   PO418492   7.693  15.700   9.516
 1231POPC   GL118493   8.021  15.790   9.204
 1231POPC   GL218494   7.852  15.928   8.948
 1231POPC   C1A18495   8.346  15.980   8.902
 1231POPC   D2A18496   8.323  16.290   8.559
 1231POPC   C3A18497   8.245  16.175   8.140
 1231POPC   C4A18498   7.966  16.116   7.792
 1231POPC   C1B18499   8.045  15.585   8.735
 1231POPC   C2B18500   8.318  15.708   8.429
 1231POPC   C3B18501   8.171  15.662   8.031
 1231POPC   C4B18502   8.233  15.346   7.736
 1232POPC   NC318503  35.285  35.906   9.444
 1232POPC   PO418504  35.130  36.558   9.202
 1232POPC   GL118505  35.369  36.227   9.047
 1232POPC   GL218506  35.675  36.316   9.142
 1232POPC   C1A18507  35.514  36.040   8.660
 1232POPC   D2A18508  35.273  36.028   8.257
 1232POPC   C3A18509  35.356  35.924   7.837
 1232POPC   C4A18510  35.726  35.920   7.572
 1232POPC   C1B18511  35.858  36.418   8.722
 1232POPC   C2B18512  35.830  36.332   8.274
 1232POPC   C3B18513  35.523  36.390   7.930
 1232POPC   C4B18514  35.470  36.345   7.455
 1233POPC   NC318515   8.415  17.054   9.557
 1233POPC   PO418516   7.948  16.503   9.524
 1233POPC   GL118517   8.123  16.776   9.257
 1233POPC   GL218518   8.487  16.657   9.237
 1233POPC   C1A18519   8.063  16.916   8.853
 1233POPC   D2A18520   8.198  16.806   8.435
 1233POPC   C3A18521   7.947  16.646   8.099
 1233POPC   C4A18522   8.013  16.876   7.733
 1233POPC   C1B18523   8.644  16.601   8.806
 1233POPC   C2B18524   8.721  16.763   8.388
 1233POPC   C3B18525   8.476  16.684   7.997
 1233POPC   C4B18526   8.443  16.342   7.696
 1234POPC   NC318527  31.485  15.414   9.352
 1234POPC   PO418528  31.288  14.745   9.435
 1234POPC   GL118529  31.460  14.895   9.051
 1234POPC   GL218530  31.774  15.077   9.111
 1234POPC   C1A18531  31.429  15.227   8.738
 1234POPC   D2A18532  31.630  15.306   8.361
 1234POPC   C3A18533  31.370  15.354   8.031
 1234POPC   C4A18534  31.514  15.394   7.634
 1234POPC   C1B18535  31.883  15.009   8.688
 1234POPC   C2B18536  31.895  14.818   8.270
 1234POPC   C3B18537  31.822  15.069   7.912
 1234POPC   C4B18538  31.477  14.873   7.749
 1235POPC   NC318539  14.050  28.370   9.512
 1235POPC   PO418540  13.417  28.712   9.569
 1235POPC   GL118541  13.656  28.536   9.209
 1235POPC   GL218542  13.833  28.238   9.067
 1235POPC   C1A18543  13.879  28.682   8.839
 1235POPC   D2A18544  13.830  28.480   8.457
 1235POPC   C3A18545  13.698  28.690   8.094
 1235POPC   C4A18546  13.721  28.521   7.674
 1235POPC   C1B18547  13.780  27.959   8.719
 1235POPC   C2B18548  13.908  28.001   8.302
 1235POPC   C3B18549  13.642  28.204   8.047
 1235POPC   C4B18550  13.395  28.110   7.669
 1236POPC   NC318551   9.082   4.768   9.579
 1236POPC   PO418552   9.059   4.089   9.421
 1236POPC   GL118553   8.891   4.436   9.166
 1236POPC   GL218554   9.173   4.681   9.093
 1236POPC   C1A18555   8.694   4.287   8.773
 1236POPC   D2A18556   8.789   3.986   8.435
 1236POPC   C3A18557   8.791   4.111   8.018
 1236POPC   C4A18558   8.593   4.466   7.811
 1236POPC   C1B18559   9.245   4.411   8.759
 1236POPC   C2B18560   9.390   4.385   8.344
 1236POPC   C3B18561   9.300   4.047   8.109
 1236POPC   C4B18562   9.288   4.122   7.698
 1237POPC   NC318563  33.042  23.318   9.630
 1237POPC   PO418564  32.813  22.698   9.413
 1237POPC   GL118565  32.982  23.072   9.186
 1237POPC   GL218566  33.347  23.200   9.247
 1237POPC   C1A18567  32.927  23.255   8.762
 1237POPC   D2A18568  32.800  23.409   8.364
 1237POPC   C3A18569  32.842  23.145   8.056
 1237POPC   C4A18570  33.074  23.323   7.766
 1237POPC   C1B18571  33.354  23.001   8.852
 1237POPC   C2B18572  33.326  22.818   8.461
 1237POPC   C3B18573  33.362  22.976   8.055
 1237POPC   C4B18574  33.113  22.793   7.759
 1238POPC   NC318575  33.557  32.542   9.497
 1238POPC   PO418576  33.916  31.893   9.426
 1238POPC   GL118577  33.981  32.192   9.117
 1238POPC   GL218578  33.656  32.346   9.047
 1238POPC   C1A18579  33.893  32.086   8.688
 1238POPC   D2A18580  33.587  32.132   8.395
 1238POPC   C3A18581  33.832  32.072   8.043
 1238POPC   C4A18582  33.814  31.890   7.671
 1238POPC   C1B18583  33.393  32.654   8.836
 1238POPC   C2B18584  33.336  32.617   8.413
 1238POPC   C3B18585  33.628  32.545   8.082
 1238POPC   C4B18586  33.612  32.356   7.658
 1239POPC   NC318587   0.925  28.919   9.645
 1239POPC   PO418588   1.134  28.248   9.530
 1239POPC   GL118589   1.052  28.188   9.137
 1239POPC   GL218590   1.059  28.535   9.123
 1239POPC   C1A18591   1.192  28.190   8.745
 1239POPC   D2A18592   1.021  28.278   8.379
 1239POPC   C3A18593   0.880  28.048   8.087
 1239POPC   C4A18594   0.958  28.265   7.754
 1239POPC   C1B18595   1.244  28.682   8.760
 1239POPC   C2B18596   1.325  28.681   8.353
 1239POPC   C3B18597   1.359  28.487   7.994
 1239POPC   C4B18598   1.523  28.393   7.610
 1240POPC   NC318599  15.428  30.399   9.392
 1240POPC   PO418600  14.886  30.733   9.644
 1240POPC   GL118601  15.072  30.798   9.226
 1240POPC   GL218602  15.047  30.513   8.986
 1240POPC   C1A18603  15.290  30.910   8.803
 1240POPC   D2A18604  15.391  30.730   8.375
 1240POPC   C3A18605  15.142  30.825   7.991
 1240POPC   C4A18606  15.129  30.558   7.654
 1240POPC   C1B18607  14.870  30.346   8.614
 1240POPC   C2B18608  14.950  30.347   8.155
 1240POPC   C3B18609  14.672  30.354   7.782
 1240POPC   C4B18610  14.712  30.513   7.368
 1241POPC   NC318611  21.004  29.457   9.394
 1241POPC   PO418612  21.595  29.145   9.650
 1241POPC   GL118613  21.541  29.044   9.214
 1241POPC   GL218614  21.194  29.070   9.115
 1241POPC   C1A18615  21.666  29.105   8.805
 1241POPC   D2A18616  21.576  29.262   8.386
 1241POPC   C3A18617  21.570  29.061   8.013
 1241POPC   C4A18618  21.687  29.302   7.700
 1241POPC   C1B18619  21.181  29.226   8.692
 1241POPC   C2B18620  21.055  29.153   8.242
 1241POPC   C3B18621  21.106  29.154   7.773
 1241POPC   C4B18622  20.927  29.255   7.355
 1242POPC   NC318623  11.711  41.515   9.473
 1242POPC   PO418624  12.363  41.651   9.458
 1242POPC   GL118625  12.140  41.570   9.108
 1242POPC   GL218626  11.827  41.482   9.001
 1242POPC   C1A18627  12.202  41.822   8.764
 1242POPC   D2A18628  12.235  41.692   8.348
 1242POPC   C3A18629  12.438  41.939   8.034
 1242POPC   C4A18630  12.438  41.798   7.620
 1242POPC   C1B18631  11.763  41.600   8.598
 1242POPC   C2B18632  11.824  41.382   8.277
 1242POPC   C3B18633  11.972  41.499   7.897
 1242POPC   C4B18634  12.075  41.398   7.503
 1243POPC   NC318635  29.919  15.405   9.676
 1243POPC   PO418636  29.770  16.068   9.553
 1243POPC   GL118637  29.951  16.070   9.147
 1243POPC   GL218638  30.129  15.821   9.215
 1243POPC   C1A18639  30.074  16.118   8.713
 1243POPC   D2A18640  29.870  15.853   8.416
 1243POPC   C3A18641  30.056  15.957   8.073
 1243POPC   C4A18642  29.962  16.046   7.693
 1243POPC   C1B18643  30.081  15.629   8.843
 1243POPC   C2B18644  30.302  15.637   8.502
 1243POPC   C3B18645  30.265  15.488   8.096
 1243POPC   C4B18646  30.102  15.536   7.693
 1244POPC   NC318647  34.354  33.068   9.497
 1244POPC   PO418648  34.997  33.153   9.699
 1244POPC   GL118649  34.812  33.164   9.249
 1244POPC   GL218650  34.617  32.906   9.094
 1244POPC   C1A18651  34.919  33.167   8.784
 1244POPC   D2A18652  34.822  32.988   8.367
 1244POPC   C3A18653  34.414  33.128   8.173
 1244POPC   C4A18654  34.310  33.242   7.727
 1244POPC   C1B18655  34.391  32.839   8.696
 1244POPC   C2B18656  34.461  32.611   8.300
 1244POPC   C3B18657  34.585  32.755   7.869
 1244POPC   C4B18658  34.336  32.753   7.487
 1245POPC   NC318659  15.323  28.999   9.594
 1245POPC   PO418660  15.344  28.344   9.568
 1245POPC   GL118661  15.134  28.324   9.171
 1245POPC   GL218662  14.855  28.074   9.222
 1245POPC   C1A18663  15.103  28.519   8.775
 1245POPC   D2A18664  15.345  28.389   8.435
 1245POPC   C3A18665  15.152  28.399   8.044
 1245POPC   C4A18666  15.143  28.527   7.624
 1245POPC   C1B18667  14.695  28.057   8.816
 1245POPC   C2B18668  14.873  28.166   8.445
 1245POPC   C3B18669  14.776  28.014   8.071
 1245POPC   C4B18670  14.998  28.012   7.725
 1246POPC   NC318671  19.544  34.869   9.639
 1246POPC   PO418672  18.917  34.623   9.576
 1246POPC   GL118673  19.195  34.750   9.277
 1246POPC   GL218674  19.353  34.481   9.186
 1246POPC   C1A18675  19.005  34.717   8.883
 1246POPC   D2A18676  19.128  34.705   8.490
 1246POPC   C3A18677  18.977  34.891   8.139
 1246POPC   C4A18678  18.912  34.653   7.779
 1246POPC   C1B18679  19.527  34.543   8.815
 1246POPC   C2B18680  19.482  34.379   8.422
 1246POPC   C3B18681  19.421  34.575   8.055
 1246POPC   C4B18682  19.362  34.387   7.673
 1247POPC   NC318683  26.850  40.181   9.670
 1247POPC   PO418684  27.273  39.744   9.534
 1247POPC   GL118685  26.865  39.867   9.253
 1247POPC   GL218686  26.725  40.248   9.198
 1247POPC   C1A18687  26.848  39.913   8.787
 1247POPC   D2A18688  27.053  40.171   8.454
 1247POPC   C3A18689  26.972  40.038   8.036
 1247POPC   C4A18690  27.128  40.096   7.596
 1247POPC   C1B18691  26.514  40.285   8.830
 1247POPC   C2B18692  26.576  40.326   8.411
 1247POPC   C3B18693  26.465  40.152   8.045
 1247POPC   C4B18694  26.622  39.960   7.678
 1248POPC   NC318695  38.686  44.317   9.558
 1248POPC   PO418696  38.210  44.800   9.712
 1248POPC   GL118697  38.377  44.657   9.276
 1248POPC   GL218698  38.323  44.264   9.211
 1248POPC   C1A18699  38.201  44.793   8.847
 1248POPC   D2A18700  38.358  44.897   8.431
 1248POPC   C3A18701  38.188  44.759   8.055
 1248POPC   C4A18702  38.276   0.005   7.706
 1248POPC   C1B18703  38.535  44.396   8.840
 1248POPC   C2B18704  38.729  44.535   8.469
 1248POPC   C3B18705  38.577  44.417   8.069
 1248POPC   C4B18706  38.667  44.667   7.741
 1249POPC   NC318707  28.342  31.048   9.414
 1249POPC   PO418708  28.171  31.556   9.789
 1249POPC   GL118709  28.300  31.623   9.304
 1249POPC   GL218710  28.633  31.612   9.051
 1249POPC   C1A18711  28.187  31.688   8.846
 1249POPC   D2A18712  28.296  31.846   8.426
 1249POPC   C3A18713  28.255  31.700   7.961
 1249POPC   C4A18714  28.097  31.446   7.629
 1249POPC   C1B18715  28.891  31.238   8.805
 1249POPC   C2B18716  28.799  31.111   8.337
 1249POPC   C3B18717  28.721  31.353   7.916
 1249POPC   C4B18718  28.611  31.157   7.495
 1250POPC   NC318719  39.226  23.354   9.559
 1250POPC   PO418720  39.497  23.885   9.731
 1250POPC   GL118721  39.432  23.807   9.297
 1250POPC   GL218722  39.603  23.530   9.143
 1250POPC   C1A18723  39.197  23.728   8.908
 1250POPC   D2A18724  39.258  23.423   8.550
 1250POPC   C3A18725  39.259  23.596   8.119
 1250POPC   C4A18726  39.200  23.477   7.685
 1250POPC   C1B18727  39.650  23.908   8.829
 1250POPC   C2B18728  39.410  23.955   8.464
 1250POPC   C3B18729  39.525  24.024   8.040
 1250POPC   C4B18730  39.278  23.973   7.706
 1251POPC   NC318731  31.050  37.753   9.725
 1251POPC   PO418732  30.505  37.546   9.345
 1251POPC   GL118733  30.692  37.775   9.053
 1251POPC   GL218734  31.019  37.898   9.217
 1251POPC   C1A18735  30.725  37.544   8.669
 1251POPC   D2A18736  30.551  37.602   8.277
 1251POPC   C3A18737  30.756  37.453   7.953
 1251POPC   C4A18738  30.483  37.394   7.613
 1251POPC   C1B18739  31.104  37.935   8.780
 1251POPC   C2B18740  31.047  37.774   8.349
 1251POPC   C3B18741  30.852  37.962   7.971
 1251POPC   C4B18742  31.042  37.984   7.565
 1252POPC   NC318743  30.638  24.562   9.585
 1252POPC   PO418744  30.986  24.043   9.424
 1252POPC   GL118745  30.910  24.443   9.174
 1252POPC   GL218746  30.858  24.838   9.199
 1252POPC   C1A18747  30.570  24.595   8.860
 1252POPC   D2A18748  30.404  24.466   8.440
 1252POPC   C3A18749  30.573  24.502   8.003
 1252POPC   C4A18750  30.574  24.691   7.590
 1252POPC   C1B18751  31.049  24.674   8.764
 1252POPC   C2B18752  30.929  24.588   8.359
 1252POPC   C3B18753  31.070  24.529   7.898
 1252POPC   C4B18754  30.820  24.247   7.584
 1253POPC   NC318755  28.120  21.024   9.422
 1253POPC   PO418756  27.987  20.413   9.715
 1253POPC   GL118757  27.684  20.526   9.323
 1253POPC   GL218758  27.708  20.842   9.144
 1253POPC   C1A18759  27.621  20.435   8.855
 1253POPC   D2A18760  27.772  20.353   8.407
 1253POPC   C3A18761  27.525  20.455   8.016
 1253POPC   C4A18762  27.450  20.581   7.571
 1253POPC   C1B18763  27.429  20.899   8.753
 1253POPC   C2B18764  27.338  20.857   8.295
 1253POPC   C3B18765  27.466  20.994   7.880
 1253POPC   C4B18766  27.848  20.906   7.630
 1254POPC   NC318767  31.654   3.376   9.520
 1254POPC   PO418768  31.134   3.774   9.478
 1254POPC   GL118769  31.308   3.532   9.158
 1254POPC   GL218770  31.105   3.297   9.036
 1254POPC   C1A18771  31.643   3.573   8.869
 1254POPC   D2A18772  31.798   3.511   8.458
 1254POPC   C3A18773  31.670   3.700   8.091
 1254POPC   C4A18774  31.589   3.359   7.787
 1254POPC   C1B18775  31.194   3.428   8.647
 1254POPC   C2B18776  31.271   3.391   8.217
 1254POPC   C3B18777  31.095   3.330   7.807
 1254POPC   C4B18778  31.238   3.543   7.430
 1255POPC   NC318779  11.697   9.443   9.574
 1255POPC   PO418780  11.135   9.799   9.402
 1255POPC   GL118781  11.498   9.640   9.150
 1255POPC   GL218782  11.279   9.657   8.908
 1255POPC   C1A18783  11.727   9.865   8.795
 1255POPC   D2A18784  11.501   9.838   8.423
 1255POPC   C3A18785  11.484   9.730   7.986
 1255POPC   C4A18786  11.538  10.039   7.674
 1255POPC   C1B18787  11.200   9.448   8.571
 1255POPC   C2B18788  11.048   9.705   8.289
 1255POPC   C3B18789  10.945   9.753   7.912
 1255POPC   C4B18790  10.953   9.433   7.650
 1256POPC   NC318791  43.645   5.147   9.762
 1256POPC   PO418792  42.954   5.055   9.616
 1256POPC   GL118793  42.862   5.077   9.166
 1256POPC   GL218794  43.046   5.377   9.046
 1256POPC   C1A18795  42.804   5.066   8.723
 1256POPC   D2A18796  42.710   5.142   8.306
 1256POPC   C3A18797  43.010   4.970   8.024
 1256POPC   C4A18798  43.074   5.200   7.677
 1256POPC   C1B18799  43.328   5.360   8.722
 1256POPC   C2B18800  43.447   5.469   8.330
 1256POPC   C3B18801  43.464   5.232   8.001
 1256POPC   C4B18802  43.615   5.320   7.607
 1257POPC   NC318803  23.423  20.260   9.760
 1257POPC   PO418804  22.832  20.315   9.380
 1257POPC   GL118805  22.956  20.685   9.165
 1257POPC   GL218806  23.305  20.683   9.097
 1257POPC   C1A18807  22.808  20.833   8.754
 1257POPC   D2A18808  22.946  20.773   8.321
 1257POPC   C3A18809  22.647  20.710   7.995
 1257POPC   C4A18810  22.684  20.572   7.572
 1257POPC   C1B18811  23.182  20.457   8.718
 1257POPC   C2B18812  23.259  20.346   8.298
 1257POPC   C3B18813  23.138  20.472   7.891
 1257POPC   C4B18814  23.208  20.871   7.688
 1258POPC   NC318815   3.242  32.015   9.423
 1258POPC   PO418816   2.678  32.346   9.542
 1258POPC   GL118817   2.742  32.420   9.119
 1258POPC   GL218818   3.052  32.362   9.116
 1258POPC   C1A18819   2.657  32.183   8.776
 1258POPC   D2A18820   2.532  32.233   8.378
 1258POPC   C3A18821   2.834  32.229   8.055
 1258POPC   C4A18822   2.595  32.119   7.712
 1258POPC   C1B18823   3.152  32.106   8.785
 1258POPC   C2B18824   2.926  31.869   8.482
 1258POPC   C3B18825   3.034  31.762   8.096
 1258POPC   C4B18826   3.149  31.861   7.707
 1259POPC   NC318827  11.661  27.711   9.453
 1259POPC   PO418828  10.991  27.907   9.547
 1259POPC   GL118829  11.269  27.890   9.147
 1259POPC   GL218830  11.318  27.527   9.078
 1259POPC   C1A18831  11.172  27.806   8.690
 1259POPC   D2A18832  11.416  27.641   8.350
 1259POPC   C3A18833  11.278  27.729   7.975
 1259POPC   C4A18834  11.463  27.575   7.626
 1259POPC   C1B18835  11.392  27.204   8.750
 1259POPC   C2B18836  11.551  27.045   8.350
 1259POPC   C3B18837  11.353  27.218   7.997
 1259POPC   C4B18838  11.158  27.167   7.598
 1260POPC   NC318839  23.081  25.979   9.587
 1260POPC   PO418840  22.526  25.754   9.384
 1260POPC   GL118841  22.804  26.011   9.150
 1260POPC   GL218842  23.190  26.072   9.101
 1260POPC   C1A18843  22.806  26.129   8.734
 1260POPC   D2A18844  22.994  26.151   8.336
 1260POPC   C3A18845  22.798  25.972   7.962
 1260POPC   C4A18846  22.774  25.971   7.516
 1260POPC   C1B18847  23.242  26.398   8.769
 1260POPC   C2B18848  23.292  26.563   8.324
 1260POPC   C3B18849  23.228  26.300   7.907
 1260POPC   C4B18850  23.170  26.358   7.423
 1261POPC   NC318851  33.420  39.045   9.511
 1261POPC   PO418852  34.039  39.354   9.483
 1261POPC   GL118853  34.003  39.213   9.115
 1261POPC   GL218854  33.663  39.314   9.116
 1261POPC   C1A18855  34.031  39.330   8.712
 1261POPC   D2A18856  33.725  39.326   8.481
 1261POPC   C3A18857  33.842  39.205   8.083
 1261POPC   C4A18858  33.881  39.023   7.677
 1261POPC   C1B18859  33.422  39.605   8.870
 1261POPC   C2B18860  33.202  39.548   8.489
 1261POPC   C3B18861  33.427  39.501   8.091
 1261POPC   C4B18862  33.705  39.542   7.727
 1262POPC   NC318863  44.324  29.724   9.564
 1262POPC   PO418864  44.587  29.047   9.594
 1262POPC   GL118865  44.673  29.152   9.193
 1262POPC   GL218866  44.408  29.391   9.163
 1262POPC   C1A18867  44.804  28.980   8.807
 1262POPC   D2A18868  44.914  29.122   8.418
 1262POPC   C3A18869  44.678  29.037   8.042
 1262POPC   C4A18870  44.858  29.086   7.650
 1262POPC   C1B18871  44.532  29.432   8.713
 1262POPC   C2B18872  44.405  29.434   8.240
 1262POPC   C3B18873  44.411  29.395   7.756
 1262POPC   C4B18874  44.381  29.534   7.278
 1263POPC   NC318875  35.358  29.412   9.360
 1263POPC   PO418876  35.060  28.863   9.610
 1263POPC   GL118877  35.185  28.942   9.177
 1263POPC   GL218878  34.877  28.770   9.115
 1263POPC   C1A18879  35.401  29.134   8.771
 1263POPC   D2A18880  35.544  29.201   8.343
 1263POPC   C3A18881  35.349  29.353   7.982
 1263POPC   C4A18882  35.603  29.287   7.639
 1263POPC   C1B18883  34.798  28.930   8.755
 1263POPC   C2B18884  34.996  29.122   8.424
 1263POPC   C3B18885  35.031  28.924   8.053
 1263POPC   C4B18886  35.238  28.951   7.697
 1264POPC   NC318887  32.721  38.416   9.391
 1264POPC   PO418888  33.290  38.201   9.169
 1264POPC   GL118889  33.067  38.537   9.050
 1264POPC   GL218890  33.343  38.738   9.101
 1264POPC   C1A18891  32.864  38.405   8.660
 1264POPC   D2A18892  33.068  38.206   8.285
 1264POPC   C3A18893  32.784  38.321   7.966
 1264POPC   C4A18894  32.745  38.222   7.553
 1264POPC   C1B18895  33.319  38.620   8.622
 1264POPC   C2B18896  33.016  38.699   8.239
 1264POPC   C3B18897  33.020  38.759   7.768
 1264POPC   C4B18898  33.070  38.970   7.335
 1265POPC   NC318899  19.747  29.402   9.493
 1265POPC   PO418900  19.886  28.816   9.569
 1265POPC   GL118901  19.958  29.041   9.176
 1265POPC   GL218902  20.193  29.320   9.204
 1265POPC   C1A18903  19.699  29.082   8.805
 1265POPC   D2A18904  19.665  28.814   8.422
 1265POPC   C3A18905  19.559  29.094   8.125
 1265POPC   C4A18906  19.672  29.135   7.733
 1265POPC   C1B18907  20.179  29.217   8.741
 1265POPC   C2B18908  19.983  29.219   8.382
 1265POPC   C3B18909  20.077  29.343   7.997
 1265POPC   C4B18910  19.986  29.514   7.591
 1266POPC   NC318911  35.223  37.444   9.485
 1266POPC   PO418912  35.498  38.137   9.554
 1266POPC   GL118913  35.468  37.791   9.203
 1266POPC   GL218914  35.113  37.749   9.092
 1266POPC   C1A18915  35.508  37.787   8.750
 1266POPC   D2A18916  35.236  37.725   8.374
 1266POPC   C3A18917  35.534  37.676   8.026
 1266POPC   C4A18918  35.656  37.902   7.666
 1266POPC   C1B18919  34.847  37.611   8.735
 1266POPC   C2B18920  34.747  37.524   8.291
 1266POPC   C3B18921  35.045  37.554   7.891
 1266POPC   C4B18922  35.016  37.586   7.427
 1267POPC   NC318923   0.076  17.276   9.534
 1267POPC   PO418924  44.601  17.704   9.631
 1267POPC   GL118925  44.641  17.453   9.257
 1267POPC   GL218926  44.915  17.497   9.119
 1267POPC   C1A18927  44.573  17.696   8.816
 1267POPC   D2A18928  44.464  17.799   8.421
 1267POPC   C3A18929  44.437  17.540   8.080
 1267POPC   C4A18930  44.172  17.733   7.781
 1267POPC   C1B18931  44.821  17.253   8.757
 1267POPC   C2B18932  44.865  17.406   8.369
 1267POPC   C3B18933   0.030  17.253   8.006
 1267POPC   C4B18934  44.744  17.334   7.716
 1268POPC   NC318935   9.037  31.728   9.530
 1268POPC   PO418936   9.326  31.097   9.635
 1268POPC   GL118937   9.158  31.165   9.207
 1268POPC   GL218938   9.029  31.501   9.049
 1268POPC   C1A18939   9.080  31.088   8.797
 1268POPC   D2A18940   9.150  31.427   8.491
 1268POPC   C3A18941   9.077  31.386   8.039
 1268POPC   C4A18942   9.166  31.317   7.591
 1268POPC   C1B18943   8.686  31.452   8.732
 1268POPC   C2B18944   8.486  31.727   8.433
 1268POPC   C3B18945   8.581  31.575   8.022
 1268POPC   C4B18946   8.728  31.604   7.646
 1269POPC   NC318947  27.918  37.510   9.580
 1269POPC   PO418948  27.354  37.985   9.497
 1269POPC   GL118949  27.583  37.741   9.194
 1269POPC   GL218950  27.474  37.383   9.124
 1269POPC   C1A18951  27.399  37.791   8.781
 1269POPC   D2A18952  27.183  38.045   8.468
 1269POPC   C3A18953  27.328  37.859   8.061
 1269POPC   C4A18954  27.648  38.009   7.764
 1269POPC   C1B18955  27.565  37.296   8.703
 1269POPC   C2B18956  27.609  37.511   8.333
 1269POPC   C3B18957  27.711  37.522   7.904
 1269POPC   C4B18958  27.479  37.522   7.549
 1270POPC   NC318959  10.395  35.397   9.631
 1270POPC   PO418960  11.015  35.193   9.681
 1270POPC   GL118961  10.640  35.163   9.271
 1270POPC   GL218962  10.228  35.166   9.219
 1270POPC   C1A18963  10.569  35.354   8.846
 1270POPC   D2A18964  10.793  35.393   8.449
 1270POPC   C3A18965  10.784  35.101   8.105
 1270POPC   C4A18966  10.726  35.299   7.704
 1270POPC   C1B18967  10.065  35.229   8.804
 1270POPC   C2B18968  10.324  35.157   8.428
 1270POPC   C3B18969  10.332  35.331   8.051
 1270POPC   C4B18970  10.246  35.160   7.696
 1271POPC   NC318971  12.321  11.164   9.481
 1271POPC   PO418972  12.328  11.827   9.411
 1271POPC   GL118973  12.248  11.483   9.087
 1271POPC   GL218974  12.241  11.080   8.993
 1271POPC   C1A18975  12.083  11.452   8.689
 1271POPC   D2A18976  12.225  11.174   8.365
 1271POPC   C3A18977  12.196  11.244   7.941
 1271POPC   C4A18978  12.273  11.572   7.661
 1271POPC   C1B18979  12.157  10.766   8.651
 1271POPC   C2B18980  11.826  10.761   8.343
 1271POPC   C3B18981  11.779  10.934   7.948
 1271POPC   C4B18982  11.730  11.381   7.783
 1272POPC   NC318983  30.157   7.469   9.417
 1272POPC   PO418984  30.859   7.540   9.507
 1272POPC   GL118985  30.758   7.410   9.116
 1272POPC   GL218986  30.466   7.570   9.050
 1272POPC   C1A18987  30.801   7.340   8.683
 1272POPC   D2A18988  30.652   7.060   8.343
 1272POPC   C3A18989  30.710   7.310   7.956
 1272POPC   C4A18990  30.793   7.764   7.879
 1272POPC   C1B18991  30.301   7.391   8.681
 1272POPC   C2B18992  30.438   7.552   8.328
 1272POPC   C3B18993  30.274   7.648   7.965
 1272POPC   C4B18994  30.435   7.591   7.548
 1273POPC   NC318995  17.453  35.702   9.487
 1273POPC   PO418996  17.788  35.222   9.409
 1273POPC   GL118997  17.592  35.450   9.042
 1273POPC   GL218998  17.219  35.550   9.081
 1273POPC   C1A18999  17.676  35.677   8.621
 1273POPC   D2A19000  17.458  35.834   8.206
 1273POPC   C3A19001  17.421  35.509   7.864
 1273POPC   C4A19002  17.648  35.113   7.944
 1273POPC   C1B19003  17.175  35.605   8.646
 1273POPC   C2B19004  17.329  35.328   8.325
 1273POPC   C3B19005  17.123  35.107   7.970
 1273POPC   C4B19006  16.907  35.304   7.602
 1274POPC   NC319007  31.067  36.664   9.647
 1274POPC   PO419008  31.711  36.719   9.591
 1274POPC   GL119009  31.486  36.930   9.229
 1274POPC   GL219010  31.112  36.906   9.180
 1274POPC   C1A19011  31.456  36.788   8.792
 1274POPC   D2A19012  31.583  36.532   8.434
 1274POPC   C3A19013  31.509  36.798   8.135
 1274POPC   C4A19014  31.655  36.899   7.748
 1274POPC   C1B19015  30.952  36.977   8.751
 1274POPC   C2B19016  31.104  37.235   8.399
 1274POPC   C3B19017  31.197  37.182   7.962
 1274POPC   C4B19018  31.159  37.473   7.616
 1275POPC   NC319019  27.432  27.869   9.478
 1275POPC   PO419020  27.738  27.238   9.570
 1275POPC   GL119021  27.492  27.430   9.223
 1275POPC   GL219022  27.790  27.628   9.165
 1275POPC   C1A19023  27.308  27.647   8.831
 1275POPC   D2A19024  27.374  27.704   8.369
 1275POPC   C3A19025  27.173  27.519   7.979
 1275POPC   C4A19026  27.274  27.403   7.499
 1275POPC   C1B19027  27.783  27.899   8.804
 1275POPC   C2B19028  27.880  27.805   8.376
 1275POPC   C3B19029  27.731  27.649   7.970
 1275POPC   C4B19030  27.774  27.577   7.532
 1276POPC   NC319031   0.686  25.982   9.529
 1276POPC   PO419032  44.988  26.160   9.526
 1276POPC   GL119033   0.239  26.306   9.153
 1276POPC   GL219034   0.626  26.341   9.180
 1276POPC   C1A19035   0.275  26.278   8.679
 1276POPC   D2A19036   0.129  25.979   8.356
 1276POPC   C3A19037   0.407  25.988   8.037
 1276POPC   C4A19038   0.405  26.225   7.692
 1276POPC   C1B19039   0.635  25.980   8.885
 1276POPC   C2B19040   0.700  26.045   8.461
 1276POPC   C3B19041   0.902  26.015   8.068
 1276POPC   C4B19042   0.768  25.873   7.669
 1277POPC   NC319043   3.017   7.880   9.444
 1277POPC   PO419044   2.562   8.218   9.761
 1277POPC   GL119045   2.619   8.194   9.236
 1277POPC   GL219046   2.817   7.946   9.004
 1277POPC   C1A19047   2.718   8.401   8.829
 1277POPC   D2A19048   2.986   8.320   8.477
 1277POPC   C3A19049   2.842   8.356   8.063
 1277POPC   C4A19050   2.708   8.273   7.665
 1277POPC   C1B19051   2.875   7.834   8.604
 1277POPC   C2B19052   3.037   7.859   8.188
 1277POPC   C3B19053   2.847   7.793   7.779
 1277POPC   C4B19054   2.496   7.827   7.471
 1278POPC   NC319055   2.823  35.314   9.448
 1278POPC   PO419056   2.268  35.696   9.555
 1278POPC   GL119057   2.445  35.445   9.139
 1278POPC   GL219058   2.553  35.044   9.111
 1278POPC   C1A19059   2.479  35.450   8.674
 1278POPC   D2A19060   2.530  35.707   8.264
 1278POPC   C3A19061   2.793  35.621   7.889
 1278POPC   C4A19062   3.228  35.618   7.819
 1278POPC   C1B19063   2.740  34.990   8.681
 1278POPC   C2B19064   2.785  35.240   8.318
 1278POPC   C3B19065   2.562  35.201   7.952
 1278POPC   C4B19066   2.520  35.310   7.484
 1279POPC   NC319067  40.133  31.733   9.672
 1279POPC   PO419068  40.251  31.209   9.269
 1279POPC   GL119069  40.039  31.414   9.025
 1279POPC   GL219070  39.864  31.659   9.225
 1279POPC   C1A19071  40.116  31.423   8.611
 1279POPC   D2A19072  40.145  31.289   8.244
 1279POPC   C3A19073  40.170  31.668   8.034
 1279POPC   C4A19074  39.930  31.835   7.703
 1279POPC   C1B19075  39.717  31.704   8.775
 1279POPC   C2B19076  39.697  31.605   8.308
 1279POPC   C3B19077  39.764  31.391   7.897
 1279POPC   C4B19078  40.143  31.216   7.721
 1280POPC   NC319079  19.308  37.674   9.437
 1280POPC   PO419080  18.933  37.144   9.460
 1280POPC   GL119081  18.800  37.323   9.071
 1280POPC   GL219082  18.855  37.692   9.145
 1280POPC   C1A19083  18.980  37.372   8.649
 1280POPC   D2A19084  19.260  37.598   8.382
 1280POPC   C3A19085  19.131  37.568   7.985
 1280POPC   C4A19086  19.256  37.442   7.564
 1280POPC   C1B19087  19.134  37.820   8.832
 1280POPC   C2B19088  19.351  38.055   8.563
 1280POPC   C3B19089  19.363  38.052   8.141
 1280POPC   C4B19090  19.291  38.001   7.737
 1281POPC   NC319091   0.788  40.092   9.476
 1281POPC   PO419092   0.040  40.263   9.477
 1281POPC   GL119093   0.284  39.947   9.173
 1281POPC   GL219094   0.639  39.968   9.030
 1281POPC   C1A19095   0.344  39.772   8.706
 1281POPC   D2A19096   0.500  39.962   8.319
 1281POPC   C3A19097   0.441  39.713   7.951
 1281POPC   C4A19098   0.250  39.734   7.530
 1281POPC   C1B19099   0.394  40.290   8.800
 1281POPC   C2B19100   0.333  40.516   8.418
 1281POPC   C3B19101   0.258  40.433   8.006
 1281POPC   C4B19102   0.557  40.187   7.796
 1282POPC   NC319103  34.354  20.387   9.339
 1282POPC   PO419104  34.804  20.738   9.742
 1282POPC   GL119105  34.735  20.750   9.254
 1282POPC   GL219106  34.395  20.785   9.024
 1282POPC   C1A19107  34.826  20.544   8.836
 1282POPC   D2A19108  34.557  20.452   8.473
 1282POPC   C3A19109  34.666  20.593   8.092
 1282POPC   C4A19110  34.959  20.759   7.805
 1282POPC   C1B19111  34.133  20.431   8.763
 1282POPC   C2B19112  34.098  20.225   8.385
 1282POPC   C3B19113  34.186  20.393   7.981
 1282POPC   C4B19114  34.289  20.814   7.836
 1283POPC   NC319115  41.045  32.981   9.374
 1283POPC   PO419116  40.583  33.473   9.442
 1283POPC   GL119117  40.707  33.274   9.079
 1283POPC   GL219118  40.584  32.926   9.131
 1283POPC   C1A19119  40.951  33.088   8.738
 1283POPC   D2A19120  40.825  32.971   8.337
 1283POPC   C3A19121  40.833  33.277   8.066
 1283POPC   C4A19122  40.870  33.204   7.655
 1283POPC   C1B19123  40.445  33.006   8.710
 1283POPC   C2B19124  40.351  32.826   8.335
 1283POPC   C3B19125  40.515  32.891   7.905
 1283POPC   C4B19126  40.436  33.011   7.434
 1284POPC   NC319127   2.339  30.461   9.459
 1284POPC   PO419128   1.770  30.770   9.581
 1284POPC   GL119129   2.003  30.815   9.224
 1284POPC   GL219130   2.007  30.520   9.070
 1284POPC   C1A19131   1.908  30.970   8.803
 1284POPC   D2A19132   1.941  30.832   8.374
 1284POPC   C3A19133   1.834  31.050   7.943
 1284POPC   C4A19134   1.828  30.946   7.444
 1284POPC   C1B19135   2.021  30.269   8.694
 1284POPC   C2B19136   2.132  30.335   8.287
 1284POPC   C3B19137   2.138  30.627   7.957
 1284POPC   C4B19138   1.773  30.556   7.742
 1285POPC   NC319139   2.588  17.125   9.383
 1285POPC   PO419140   2.825  17.770   9.438
 1285POPC   GL119141   2.764  17.549   9.053
 1285POPC   GL219142   2.960  17.284   9.070
 1285POPC   C1A19143   2.666  17.438   8.598
 1285POPC   D2A19144   2.580  17.486   8.112
 1285POPC   C3A19145   2.823  17.514   7.754
 1285POPC   C4A19146   3.076  17.827   7.597
 1285POPC   C1B19147   3.026  17.053   8.693
 1285POPC   C2B19148   2.841  17.080   8.279
 1285POPC   C3B19149   2.955  16.965   7.888
 1285POPC   C4B19150   3.094  16.897   7.473
 1286POPC   NC319151  36.500  12.405   9.497
 1286POPC   PO419152  36.049  11.942   9.369
 1286POPC   GL119153  36.186  12.238   9.090
 1286POPC   GL219154  35.875  12.355   9.010
 1286POPC   C1A19155  36.351  12.152   8.669
 1286POPC   D2A19156  36.561  12.171   8.247
 1286POPC   C3A19157  36.471  11.867   7.945
 1286POPC   C4A19158  36.081  11.995   7.795
 1286POPC   C1B19159  35.826  12.023   8.684
 1286POPC   C2B19160  35.804  12.010   8.230
 1286POPC   C3B19161  35.628  11.776   7.890
 1286POPC   C4B19162  35.778  11.643   7.470
 1287POPC   NC319163  37.189  10.227   9.317
 1287POPC   PO419164  37.649  10.600   9.713
 1287POPC   GL119165  37.613  10.607   9.262
 1287POPC   GL219166  37.267  10.744   9.304
 1287POPC   C1A19167  37.786  10.592   8.798
 1287POPC   D2A19168  37.994  10.557   8.351
 1287POPC   C3A19169  37.785  10.450   7.924
 1287POPC   C4A19170  38.014  10.212   7.582
 1287POPC   C1B19171  37.320  10.810   8.862
 1287POPC   C2B19172  37.289  10.633   8.445
 1287POPC   C3B19173  37.354  10.763   8.020
 1287POPC   C4B19174  37.358  10.584   7.599
 1288POPC   NC319175  16.586  17.285   9.525
 1288POPC   PO419176  16.749  16.623   9.499
 1288POPC   GL119177  16.803  16.488   9.075
 1288POPC   GL219178  16.495  16.656   9.020
 1288POPC   C1A19179  16.999  16.447   8.661
 1288POPC   D2A19180  17.233  16.629   8.307
 1288POPC   C3A19181  16.990  16.843   7.964
 1288POPC   C4A19182  17.010  17.101   7.603
 1288POPC   C1B19183  16.618  16.791   8.616
 1288POPC   C2B19184  16.650  16.586   8.238
 1288POPC   C3B19185  16.386  16.619   7.861
 1288POPC   C4B19186  16.161  16.592   7.468
 1289POPC   NC319187   3.155  15.643   9.410
 1289POPC   PO419188   3.422  16.285   9.552
 1289POPC   GL119189   3.555  16.235   9.141
 1289POPC   GL219190   3.537  15.877   9.135
 1289POPC   C1A19191   3.431  16.141   8.708
 1289POPC   D2A19192   3.376  16.281   8.291
 1289POPC   C3A19193   3.528  16.104   7.901
 1289POPC   C4A19194   3.470  16.056   7.440
 1289POPC   C1B19195   3.516  15.638   8.759
 1289POPC   C2B19196   3.523  15.784   8.340
 1289POPC   C3B19197   3.792  15.679   8.007
 1289POPC   C4B19198   3.604  15.583   7.637
 1290POPC   NC319199  35.694  18.892   9.521
 1290POPC   PO419200  35.065  19.251   9.486
 1290POPC   GL119201  34.987  18.997   9.148
 1290POPC   GL219202  35.165  18.678   9.229
 1290POPC   C1A19203  34.964  19.046   8.756
 1290POPC   D2A19204  35.166  19.206   8.435
 1290POPC   C3A19205  35.065  19.209   8.013
 1290POPC   C4A19206  35.347  19.468   7.822
 1290POPC   C1B19207  35.421  18.879   8.916
 1290POPC   C2B19208  35.529  18.836   8.507
 1290POPC   C3B19209  35.520  18.995   8.121
 1290POPC   C4B19210  35.473  18.928   7.725
 1291POPC   NC319211  10.482  12.364   9.734
 1291POPC   PO419212  10.863  12.639   9.239
 1291POPC   GL119213  10.531  12.926   9.061
 1291POPC   GL219214  10.226  12.963   9.214
 1291POPC   C1A19215  10.521  13.106   8.655
 1291POPC   D2A19216  10.693  12.870   8.343
 1291POPC   C3A19217  10.833  13.097   8.012
 1291POPC   C4A19218  10.776  12.908   7.622
 1291POPC   C1B19219  10.065  12.940   8.797
 1291POPC   C2B19220  10.188  12.771   8.388
 1291POPC   C3B19221  10.332  12.861   7.977
 1291POPC   C4B19222  10.146  12.926   7.533
 1292POPC   NC319223  18.821  29.780   9.525
 1292POPC   PO419224  19.161  30.389   9.603
 1292POPC   GL119225  19.014  30.191   9.213
 1292POPC   GL219226  19.086  29.820   9.092
 1292POPC   C1A19227  19.126  30.212   8.770
 1292POPC   D2A19228  19.010  29.885   8.474
 1292POPC   C3A19229  19.217  29.888   8.074
 1292POPC   C4A19230  19.127  30.214   7.772
 1292POPC   C1B19231  19.215  29.506   8.761
 1292POPC   C2B19232  19.079  29.384   8.339
 1292POPC   C3B19233  18.846  29.525   7.988
 1292POPC   C4B19234  18.950  29.744   7.631
 1293POPC   NC319235  23.095  24.350   9.594
 1293POPC   PO419236  22.612  24.793   9.423
 1293POPC   GL119237  22.853  24.583   9.171
 1293POPC   GL219238  23.177  24.722   9.237
 1293POPC   C1A19239  22.745  24.463   8.761
 1293POPC   D2A19240  22.712  24.726   8.403
 1293POPC   C3A19241  22.758  24.421   8.103
 1293POPC   C4A19242  22.902  24.248   7.725
 1293POPC   C1B19243  23.194  24.712   8.791
 1293POPC   C2B19244  23.182  24.465   8.414
 1293POPC   C3B19245  23.224  24.577   7.976
 1293POPC   C4B19246  23.291  24.487   7.557
 1294POPC   NC319247  32.025  29.262   9.523
 1294POPC   PO419248  32.605  28.901   9.487
 1294POPC   GL119249  32.437  29.233   9.169
 1294POPC   GL219250  32.124  29.411   9.036
 1294POPC   C1A19251  32.534  29.264   8.750
 1294POPC   D2A19252  32.414  29.048   8.395
 1294POPC   C3A19253  32.258  29.253   8.066
 1294POPC   C4A19254  32.260  29.210   7.657
 1294POPC   C1B19255  32.058  29.042   8.797
 1294POPC   C2B19256  31.913  28.965   8.368
 1294POPC   C3B19257  31.936  28.887   7.924
 1294POPC   C4B19258  31.921  28.903   7.463
 1295POPC   NC319259  20.796  22.698   9.390
 1295POPC   PO419260  20.688  21.960   9.521
 1295POPC   GL119261  20.579  22.083   9.096
 1295POPC   GL219262  20.270  21.901   9.028
 1295POPC   C1A19263  20.632  22.426   8.772
 1295POPC   D2A19264  20.770  22.527   8.343
 1295POPC   C3A19265  20.571  22.342   7.977
 1295POPC   C4A19266  20.339  22.453   7.629
 1295POPC   C1B19267  20.133  22.263   8.797
 1295POPC   C2B19268  20.246  22.325   8.386
 1295POPC   C3B19269  20.048  22.187   8.025
 1295POPC   C4B19270  20.159  21.932   7.701
 1296POPC   NC319271   8.628  29.369   9.350
 1296POPC   PO419272   8.435  29.902   9.654
 1296POPC   GL119273   8.215  29.905   9.201
 1296POPC   GL219274   8.192  29.573   9.156
 1296POPC   C1A19275   8.047  29.807   8.736
 1296POPC   D2A19276   7.937  29.985   8.324
 1296POPC   C3A19277   8.111  29.940   7.945
 1296POPC   C4A19278   8.029  29.769   7.549
 1296POPC   C1B19279   8.496  29.579   8.774
 1296POPC   C2B19280   8.319  29.516   8.384
 1296POPC   C3B19281   8.275  29.456   7.931
 1296POPC   C4B19282   8.511  29.668   7.647
 1297POPC   NC319283  36.888  23.535   9.580
 1297POPC   PO419284  37.294  22.948   9.536
 1297POPC   GL119285  37.167  23.365   9.183
 1297POPC   GL219286  36.798  23.588   9.098
 1297POPC   C1A19287  37.190  23.758   8.848
 1297POPC   D2A19288  37.033  24.022   8.461
 1297POPC   C3A19289  37.015  23.850   8.042
 1297POPC   C4A19290  36.820  23.989   7.653
 1297POPC   C1B19291  36.885  23.358   8.729
 1297POPC   C2B19292  36.804  23.205   8.322
 1297POPC   C3B19293  36.836  23.340   7.896
 1297POPC   C4B19294  36.438  23.287   7.669
 1298POPC   NC319295  22.364  41.164   9.533
 1298POPC   PO419296  21.970  40.527   9.660
 1298POPC   GL119297  22.136  40.714   9.295
 1298POPC   GL219298  21.988  40.476   9.126
 1298POPC   C1A19299  22.097  40.889   8.852
 1298POPC   D2A19300  22.327  40.905   8.475
 1298POPC   C3A19301  22.117  40.677   8.167
 1298POPC   C4A19302  22.036  40.904   7.805
 1298POPC   C1B19303  22.380  40.473   8.916
 1298POPC   C2B19304  22.430  40.394   8.489
 1298POPC   C3B19305  22.637  40.557   8.158
 1298POPC   C4B19306  22.435  40.577   7.777
 1299POPC   NC319307  13.283  26.185   9.491
 1299POPC   PO419308  13.660  25.688   9.752
 1299POPC   GL119309  13.759  25.976   9.381
 1299POPC   GL219310  13.508  25.807   9.219
 1299POPC   C1A19311  13.680  26.243   8.992
 1299POPC   D2A19312  13.610  26.080   8.584
 1299POPC   C3A19313  13.854  26.169   8.233
 1299POPC   C4A19314  13.595  26.106   7.810
 1299POPC   C1B19315  13.382  25.690   8.816
 1299POPC   C2B19316  13.133  25.788   8.457
 1299POPC   C3B19317  13.208  25.896   8.062
 1299POPC   C4B19318  13.350  25.643   7.729
 1300POPC   NC319319  35.116  24.254   9.513
 1300POPC   PO419320  35.143  24.880   9.393
 1300POPC   GL119321  34.971  24.562   9.109
 1300POPC   GL219322  35.278  24.331   9.036
 1300POPC   C1A19323  35.017  24.535   8.661
 1300POPC   D2A19324  35.219  24.280   8.370
 1300POPC   C3A19325  35.195  24.483   8.017
 1300POPC   C4A19326  35.142  24.861   7.839
 1300POPC   C1B19327  35.584  24.437   8.711
 1300POPC   C2B19328  35.759  24.288   8.324
 1300POPC   C3B19329  35.625  24.269   7.902
 1300POPC   C4B19330  35.278  24.115   7.668
 1301POPC   NC319331  25.464  17.541   9.458
 1301POPC   PO419332  24.808  17.853   9.362
 1301POPC   GL119333  25.008  17.549   9.033
 1301POPC   GL219334  24.820  17.217   8.969
 1301POPC   C1A19335  25.353  17.397   8.740
 1301POPC   D2A19336  25.635  17.128   8.464
 1301POPC   C3A19337  25.633  17.344   8.067
 1301POPC   C4A19338  25.345  17.584   7.862
 1301POPC   C1B19339  24.857  17.334   8.572
 1301POPC   C2B19340  25.145  17.285   8.238
 1301POPC   C3B19341  25.154  17.132   7.811
 1301POPC   C4B19342  24.947  17.228   7.412
 1302POPC   NC319343  39.926   2.385   9.460
 1302POPC   PO419344  40.127   2.994   9.540
 1302POPC   GL119345  40.022   2.929   9.145
 1302POPC   GL219346  40.145   2.613   9.086
 1302POPC   C1A19347  40.200   3.003   8.751
 1302POPC   D2A19348  40.158   3.173   8.372
 1302POPC   C3A19349  39.912   2.963   8.104
 1302POPC   C4A19350  40.101   3.066   7.731
 1302POPC   C1B19351  39.986   2.393   8.759
 1302POPC   C2B19352  39.778   2.500   8.387
 1302POPC   C3B19353  39.948   2.456   7.992
 1302POPC   C4B19354  39.841   2.661   7.666
 1303POPC   NC319355  41.565  38.255   9.548
 1303POPC   PO419356  41.308  38.911   9.471
 1303POPC   GL119357  41.481  38.582   9.142
 1303POPC   GL219358  41.393  38.215   9.091
 1303POPC   C1A19359  41.525  38.530   8.692
 1303POPC   D2A19360  41.439  38.739   8.313
 1303POPC   C3A19361  41.313  38.591   7.944
 1303POPC   C4A19362  41.514  38.355   7.621
 1303POPC   C1B19363  41.246  38.061   8.752
 1303POPC   C2B19364  41.210  38.248   8.364
 1303POPC   C3B19365  41.296  38.055   8.000
 1303POPC   C4B19366  41.400  37.849   7.637
 1304POPC   NC319367   2.864  40.229   9.632
 1304POPC   PO419368   2.290  40.141   9.414
 1304POPC   GL119369   2.614  40.057   9.085
 1304POPC   GL219370   2.990  40.052   9.160
 1304POPC   C1A19371   2.746  40.032   8.641
 1304POPC   D2A19372   3.088  40.044   8.349
 1304POPC   C3A19373   2.969  40.144   7.940
 1304POPC   C4A19374   2.561  40.045   7.763
 1304POPC   C1B19375   3.189  39.802   8.799
 1304POPC   C2B19376   3.221  39.547   8.371
 1304POPC   C3B19377   3.114  39.643   7.959
 1304POPC   C4B19378   3.368  39.754   7.605
 1305POPC   NC319379  28.003  36.009   9.550
 1305POPC   PO419380  27.386  36.253   9.470
 1305POPC   GL119381  27.693  36.226   9.189
 1305POPC   GL219382  27.903  36.519   9.253
 1305POPC   C1A19383  27.617  36.003   8.812
 1305POPC   D2A19384  27.357  35.995   8.463
 1305POPC   C3A19385  27.553  35.959   8.078
 1305POPC   C4A19386  27.959  35.932   7.884
 1305POPC   C1B19387  27.922  36.413   8.789
 1305POPC   C2B19388  27.931  36.208   8.360
 1305POPC   C3B19389  27.963  36.437   7.924
 1305POPC   C4B19390  27.821  36.653   7.508
 1306POPC   NC319391  14.988   5.144   9.591
 1306POPC   PO419392  15.407   4.623   9.821
 1306POPC   GL119393  15.440   4.879   9.380
 1306POPC   GL219394  15.153   4.943   9.174
 1306POPC   C1A19395  15.515   5.194   8.964
 1306POPC   D2A19396  15.374   5.484   8.601
 1306POPC   C3A19397  15.382   5.296   8.166
 1306POPC   C4A19398  15.351   4.862   7.995
 1306POPC   C1B19399  14.985   5.149   8.858
 1306POPC   C2B19400  14.981   5.168   8.466
 1306POPC   C3B19401  14.728   5.130   8.168
 1306POPC   C4B19402  14.899   5.096   7.788
 1307POPC   NC319403  23.694  34.280   9.599
 1307POPC   PO419404  23.745  34.941   9.766
 1307POPC   GL119405  23.658  34.664   9.302
 1307POPC   GL219406  23.901  34.660   9.047
 1307POPC   C1A19407  23.454  34.540   8.877
 1307POPC   D2A19408  23.611  34.442   8.443
 1307POPC   C3A19409  23.419  34.583   8.065
 1307POPC   C4A19410  23.618  34.745   7.722
 1307POPC   C1B19411  23.945  34.262   8.779
 1307POPC   C2B19412  24.103  34.254   8.350
 1307POPC   C3B19413  23.968  34.483   7.976
 1307POPC   C4B19414  23.955  34.402   7.515
 1308POPC   NC319415   6.372  40.056   9.412
 1308POPC   PO419416   5.767  40.205   9.736
 1308POPC   GL119417   5.718  40.308   9.260
 1308POPC   GL219418   5.731  39.965   9.149
 1308POPC   C1A19419   5.731  40.292   8.773
 1308POPC   D2A19420   5.880  39.998   8.452
 1308POPC   C3A19421   5.792  40.104   8.029
 1308POPC   C4A19422   5.886  40.455   7.791
 1308POPC   C1B19423   5.749  39.656   8.819
 1308POPC   C2B19424   5.567  39.569   8.420
 1308POPC   C3B19425   5.829  39.595   8.081
 1308POPC   C4B19426   5.877  39.571   7.671
 1309POPC   NC319427  11.466  17.022   9.403
 1309POPC   PO419428  12.166  16.805   9.473
 1309POPC   GL119429  11.993  16.624   9.141
 1309POPC   GL219430  11.672  16.563   9.276
 1309POPC   C1A19431  12.134  16.765   8.750
 1309POPC   D2A19432  12.442  16.830   8.422
 1309POPC   C3A19433  12.239  16.770   8.039
 1309POPC   C4A19434  12.220  16.995   7.662
 1309POPC   C1B19435  11.585  16.642   8.821
 1309POPC   C2B19436  11.754  16.656   8.386
 1309POPC   C3B19437  11.623  16.630   7.938
 1309POPC   C4B19438  11.752  16.872   7.563
 1310POPC   NC319439  16.795  36.437   9.538
 1310POPC   PO419440  16.160  36.224   9.700
 1310POPC   GL119441  16.359  36.262   9.253
 1310POPC   GL219442  16.707  36.107   9.155
 1310POPC   C1A19443  16.511  36.518   8.880
 1310POPC   D2A19444  16.439  36.554   8.443
 1310POPC   C3A19445  16.781  36.414   8.164
 1310POPC   C4A19446  16.811  36.340   7.724
 1310POPC   C1B19447  16.835  36.145   8.700
 1310POPC   C2B19448  16.966  35.946   8.304
 1310POPC   C3B19449  17.012  35.811   7.882
 1310POPC   C4B19450  16.779  35.816   7.537
 1311POPC   NC319451  32.468  44.091   9.499
 1311POPC   PO419452  31.962  43.771   9.811
 1311POPC   GL119453  32.016  43.711   9.340
 1311POPC   GL219454  32.108  44.009   9.161
 1311POPC   C1A19455  31.941  43.632   8.867
 1311POPC   D2A19456  32.153  43.680   8.465
 1311POPC   C3A19457  31.943  43.626   8.068
 1311POPC   C4A19458  32.146  43.616   7.675
 1311POPC   C1B19459  32.244  44.119   8.758
 1311POPC   C2B19460  32.045  44.183   8.350
 1311POPC   C3B19461  32.197  44.039   7.956
 1311POPC   C4B19462  32.368  44.051   7.513
 1312POPC   NC319463  44.850  15.278   9.438
 1312POPC   PO419464  44.277  14.991   9.357
 1312POPC   GL119465  44.596  15.089   9.042
 1312POPC   GL219466  44.957  15.010   9.016
 1312POPC   C1A19467  44.533  15.053   8.602
 1312POPC   D2A19468  44.759  15.043   8.229
 1312POPC   C3A19469  44.484  15.060   7.922
 1312POPC   C4A19470  44.457  15.444   7.724
 1312POPC   C1B19471  44.989  15.279   8.647
 1312POPC   C2B19472   0.187  15.383   8.280
 1312POPC   C3B19473   0.010  15.388   7.876
 1312POPC   C4B19474  44.856  15.143   7.546
 1313POPC   NC319475  42.214  10.037   9.533
 1313POPC   PO419476  42.544   9.389   9.540
 1313POPC   GL119477  42.424   9.574   9.170
 1313POPC   GL219478  42.548   9.894   9.148
 1313POPC   C1A19479  42.222   9.445   8.779
 1313POPC   D2A19480  42.207   9.299   8.363
 1313POPC   C3A19481  42.226   9.682   8.159
 1313POPC   C4A19482  42.264   9.782   7.746
 1313POPC   C1B19483  42.090   9.913   8.916
 1313POPC   C2B19484  41.848   9.875   8.516
 1313POPC   C3B19485  41.847  10.012   8.063
 1313POPC   C4B19486  41.746   9.821   7.641
 1314POPC   NC319487  33.876   9.341   9.460
 1314POPC   PO419488  33.555   9.913   9.771
 1314POPC   GL119489  33.603   9.985   9.322
 1314POPC   GL219490  33.377   9.770   9.163
 1314POPC   C1A19491  33.634  10.136   8.900
 1314POPC   D2A19492  33.924   9.999   8.568
 1314POPC   C3A19493  33.822  10.112   8.141
 1314POPC   C4A19494  33.856   9.965   7.721
 1314POPC   C1B19495  33.547   9.626   8.760
 1314POPC   C2B19496  33.887   9.513   8.452
 1314POPC   C3B19497  34.064   9.637   8.051
 1314POPC   C4B19498  34.053   9.526   7.594
 1315POPC   NC319499  33.124  11.746   9.562
 1315POPC   PO419500  32.794  12.333   9.428
 1315POPC   GL119501  32.926  12.043   9.167
 1315POPC   GL219502  32.725  11.747   9.245
 1315POPC   C1A19503  32.986  12.077   8.732
 1315POPC   D2A19504  33.186  12.075   8.318
 1315POPC   C3A19505  32.977  12.182   7.955
 1315POPC   C4A19506  33.141  12.534   7.711
 1315POPC   C1B19507  33.068  11.608   8.940
 1315POPC   C2B19508  33.124  11.620   8.527
 1315POPC   C3B19509  33.016  11.607   8.128
 1315POPC   C4B19510  33.248  11.694   7.787
 1316POPC   NC319511  24.340  14.880   9.483
 1316POPC   PO419512  24.844  15.283   9.520
 1316POPC   GL119513  24.639  15.174   9.147
 1316POPC   GL219514  24.747  14.829   9.127
 1316POPC   C1A19515  24.551  15.337   8.726
 1316POPC   D2A19516  24.327  15.220   8.344
 1316POPC   C3A19517  24.566  15.393   8.001
 1316POPC   C4A19518  24.549  15.378   7.549
 1316POPC   C1B19519  24.441  14.825   8.786
 1316POPC   C2B19520  24.365  14.696   8.356
 1316POPC   C3B19521  24.565  14.818   7.996
 1316POPC   C4B19522  24.324  14.997   7.754
 1317POPC   NC319523  35.849   2.629   9.463
 1317POPC   PO419524  36.306   3.064   9.407
 1317POPC   GL119525  36.207   2.674   9.097
 1317POPC   GL219526  35.832   2.616   8.966
 1317POPC   C1A19527  36.238   2.494   8.660
 1317POPC   D2A19528  36.024   2.364   8.262
 1317POPC   C3A19529  36.129   2.678   7.960
 1317POPC   C4A19530  36.373   3.109   7.984
 1317POPC   C1B19531  35.987   2.982   8.735
 1317POPC   C2B19532  35.954   3.218   8.353
 1317POPC   C3B19533  35.874   3.116   7.946
 1317POPC   C4B19534  35.698   2.795   7.684
 1318POPC   NC319535  28.221   1.454   9.544
 1318POPC   PO419536  28.431   2.179   9.540
 1318POPC   GL119537  28.218   1.915   9.224
 1318POPC   GL219538  28.498   1.904   9.075
 1318POPC   C1A19539  28.122   1.997   8.764
 1318POPC   D2A19540  28.263   1.944   8.333
 1318POPC   C3A19541  28.083   2.039   7.908
 1318POPC   C4A19542  28.011   2.135   7.477
 1318POPC   C1B19543  28.633   1.695   8.702
 1318POPC   C2B19544  28.777   1.826   8.299
 1318POPC   C3B19545  28.570   1.921   7.915
 1318POPC   C4B19546  28.514   2.222   7.609
 1319POPC   NC319547  11.380  38.627   9.812
 1319POPC   PO419548  10.802  38.372   9.698
 1319POPC   GL119549  11.115  38.385   9.263
 1319POPC   GL219550  11.082  38.727   9.000
 1319POPC   C1A19551  11.204  38.276   8.814
 1319POPC   D2A19552  11.049  38.567   8.491
 1319POPC   C3A19553  11.073  38.370   8.099
 1319POPC   C4A19554  11.139  38.065   7.750
 1319POPC   C1B19555  11.485  38.696   8.766
 1319POPC   C2B19556  11.549  38.443   8.357
 1319POPC   C3B19557  11.512  38.517   7.893
 1319POPC   C4B19558  11.546  38.579   7.446
 1320POPC   NC319559   3.469  40.428   9.589
 1320POPC   PO419560   3.665  41.039   9.459
 1320POPC   GL119561   3.609  40.701   9.146
 1320POPC   GL219562   3.289  40.522   9.134
 1320POPC   C1A19563   3.484  40.689   8.696
 1320POPC   D2A19564   3.472  40.398   8.377
 1320POPC   C3A19565   3.588  40.544   8.017
 1320POPC   C4A19566   3.493  40.938   7.856
 1320POPC   C1B19567   3.101  40.363   8.785
 1320POPC   C2B19568   2.990  40.543   8.428
 1320POPC   C3B19569   3.019  40.737   8.058
 1320POPC   C4B19570   3.183  40.552   7.705
 1321POPC   NC319571  25.863  16.330   9.529
 1321POPC   PO419572  26.067  16.901   9.729
 1321POPC   GL119573  25.878  16.803   9.297
 1321POPC   GL219574  26.163  16.869   9.172
 1321POPC   C1A19575  25.751  16.660   8.822
 1321POPC   D2A19576  25.903  16.309   8.514
 1321POPC   C3A19577  26.147  16.406   8.111
 1321POPC   C4A19578  26.044  16.651   7.728
 1321POPC   C1B19579  26.123  17.026   8.785
 1321POPC   C2B19580  26.134  16.859   8.386
 1321POPC   C3B19581  26.068  17.079   8.024
 1321POPC   C4B19582  25.886  17.188   7.643
 1322POPC   NC319583   2.273  32.120   9.645
 1322POPC   PO419584   1.900  32.600   9.526
 1322POPC   GL119585   2.250  32.484   9.249
 1322POPC   GL219586   2.299  32.142   9.145
 1322POPC   C1A19587   2.342  32.579   8.811
 1322POPC   D2A19588   2.225  32.643   8.374
 1322POPC   C3A19589   2.198  32.416   7.985
 1322POPC   C4A19590   1.777  32.438   7.758
 1322POPC   C1B19591   2.151  32.089   8.728
 1322POPC   C2B19592   2.065  31.992   8.297
 1322POPC   C3B19593   2.035  31.933   7.866
 1322POPC   C4B19594   1.754  31.976   7.518
 1323POPC   NC319595   7.339  18.714   9.514
 1323POPC   PO419596   7.851  18.370   9.295
 1323POPC   GL119597   7.421  18.308   9.194
 1323POPC   GL219598   7.329  18.590   8.993
 1323POPC   C1A19599   7.153  18.131   8.854
 1323POPC   D2A19600   7.154  18.206   8.381
 1323POPC   C3A19601   7.477  18.049   8.079
 1323POPC   C4A19602   7.467  18.146   7.636
 1323POPC   C1B19603   7.614  18.321   8.679
 1323POPC   C2B19604   7.793  18.471   8.263
 1323POPC   C3B19605   7.594  18.591   7.875
 1323POPC   C4B19606   7.658  18.536   7.388
 1324POPC   NC319607  28.324   6.143   9.700
 1324POPC   PO419608  28.479   6.818   9.797
 1324POPC   GL119609  28.291   6.606   9.371
 1324POPC   GL219610  28.539   6.645   9.094
 1324POPC   C1A19611  28.062   6.625   8.908
 1324POPC   D2A19612  27.937   6.781   8.465
 1324POPC   C3A19613  28.147   6.673   8.049
 1324POPC   C4A19614  28.022   6.749   7.605
 1324POPC   C1B19615  28.787   6.505   8.759
 1324POPC   C2B19616  28.620   6.568   8.377
 1324POPC   C3B19617  28.509   6.277   8.058
 1324POPC   C4B19618  28.604   6.327   7.655
 1325POPC   NC319619  26.901   5.400   9.479
 1325POPC   PO419620  26.771   4.705   9.469
 1325POPC   GL119621  26.909   4.869   9.101
 1325POPC   GL219622  26.728   5.152   9.087
 1325POPC   C1A19623  26.904   5.054   8.640
 1325POPC   D2A19624  27.125   5.206   8.290
 1325POPC   C3A19625  27.070   5.105   7.855
 1325POPC   C4A19626  26.843   4.729   7.743
 1325POPC   C1B19627  26.442   5.255   8.777
 1325POPC   C2B19628  26.393   5.059   8.410
 1325POPC   C3B19629  26.635   5.102   8.080
 1325POPC   C4B19630  26.583   5.178   7.636
 1326POPC   NC319631   4.007  30.749   9.834
 1326POPC   PO419632   3.982  30.126   9.512
 1326POPC   GL119633   4.034  30.507   9.256
 1326POPC   GL219634   4.364  30.594   9.141
 1326POPC   C1A19635   3.957  30.747   8.855
 1326POPC   D2A19636   4.031  30.922   8.409
 1326POPC   C3A19637   3.986  30.733   7.996
 1326POPC   C4A19638   4.103  30.703   7.500
 1326POPC   C1B19639   4.438  30.772   8.696
 1326POPC   C2B19640   4.369  30.537   8.303
 1326POPC   C3B19641   4.591  30.349   7.975
 1326POPC   C4B19642   4.641  30.710   7.716
 1327POPC   NC319643  37.177  31.070   9.570
 1327POPC   PO419644  36.660  30.644   9.495
 1327POPC   GL119645  36.883  30.522   9.145
 1327POPC   GL219646  37.175  30.696   9.205
 1327POPC   C1A19647  36.933  30.632   8.727
 1327POPC   D2A19648  37.067  30.513   8.337
 1327POPC   C3A19649  36.848  30.617   7.993
 1327POPC   C4A19650  37.034  30.664   7.601
 1327POPC   C1B19651  37.293  30.975   8.855
 1327POPC   C2B19652  37.426  30.876   8.425
 1327POPC   C3B19653  37.287  30.882   7.984
 1327POPC   C4B19654  36.897  31.106   7.794
 1328POPC   NC319655  35.236  12.933   9.512
 1328POPC   PO419656  35.831  12.634   9.493
 1328POPC   GL119657  35.820  12.855   9.121
 1328POPC   GL219658  35.550  13.075   9.113
 1328POPC   C1A19659  35.663  12.743   8.724
 1328POPC   D2A19660  35.383  12.893   8.420
 1328POPC   C3A19661  35.571  13.038   8.051
 1328POPC   C4A19662  35.817  12.752   7.850
 1328POPC   C1B19663  35.169  13.132   8.841
 1328POPC   C2B19664  35.030  13.252   8.401
 1328POPC   C3B19665  35.067  13.006   7.977
 1328POPC   C4B19666  35.349  13.152   7.598
 1329POPC   NC319667  21.042   8.526   9.362
 1329POPC   PO419668  21.518   8.023   9.478
 1329POPC   GL119669  21.439   8.170   9.102
 1329POPC   GL219670  21.505   8.469   9.175
 1329POPC   C1A19671  21.342   8.084   8.678
 1329POPC   D2A19672  21.577   7.934   8.343
 1329POPC   C3A19673  21.383   8.020   7.991
 1329POPC   C4A19674  21.312   8.323   7.750
 1329POPC   C1B19675  21.583   8.527   8.737
 1329POPC   C2B19676  21.447   8.487   8.312
 1329POPC   C3B19677  21.540   8.742   7.956
 1329POPC   C4B19678  21.698   8.611   7.576
 1330POPC   NC319679  31.010  18.651   9.514
 1330POPC   PO419680  30.592  18.095   9.478
 1330POPC   GL119681  30.508  18.335   9.145
 1330POPC   GL219682  30.819  18.464   9.055
 1330POPC   C1A19683  30.421  18.320   8.729
 1330POPC   D2A19684  30.312  18.491   8.347
 1330POPC   C3A19685  30.564  18.350   8.032
 1330POPC   C4A19686  30.597  18.544   7.647
 1330POPC   C1B19687  30.913  18.136   8.749
 1330POPC   C2B19688  31.042  18.183   8.289
 1330POPC   C3B19689  31.071  18.412   7.878
 1330POPC   C4B19690  31.041  18.312   7.438
 1331POPC   NC319691  14.979   9.165   9.531
 1331POPC   PO419692  15.524   8.676   9.560
 1331POPC   GL119693  15.300   8.748   9.096
 1331POPC   GL219694  15.150   9.037   9.092
 1331POPC   C1A19695  15.102   8.857   8.641
 1331POPC   D2A19696  15.400   9.057   8.397
 1331POPC   C3A19697  15.522   8.950   7.957
 1331POPC   C4A19698  15.306   8.853   7.584
 1331POPC   C1B19699  14.889   9.286   8.834
 1331POPC   C2B19700  15.010   9.385   8.394
 1331POPC   C3B19701  15.057   9.170   8.001
 1331POPC   C4B19702  14.964   9.226   7.590
 1332POPC   NC319703  12.308  36.355   9.454
 1332POPC   PO419704  12.255  36.944   9.755
 1332POPC   GL119705  12.143  36.847   9.304
 1332POPC   GL219706  12.450  36.748   9.134
 1332POPC   C1A19707  11.975  36.927   8.847
 1332POPC   D2A19708  12.070  36.933   8.367
 1332POPC   C3A19709  11.824  36.629   8.032
 1332POPC   C4A19710  11.640  36.797   7.612
 1332POPC   C1B19711  12.482  36.962   8.731
 1332POPC   C2B19712  12.561  36.787   8.330
 1332POPC   C3B19713  12.330  36.781   7.957
 1332POPC   C4B19714  12.059  37.028   7.835
 1333POPC   NC319715  42.092  42.398   9.332
 1333POPC   PO419716  42.726  42.467   9.439
 1333POPC   GL119717  42.491  42.353   9.033
 1333POPC   GL219718  42.214  42.082   8.953
 1333POPC   C1A19719  42.264  42.549   8.703
 1333POPC   D2A19720  42.034  42.379   8.373
 1333POPC   C3A19721  42.407  42.289   8.194
 1333POPC   C4A19722  42.382  42.347   7.783
 1333POPC   C1B19723  41.977  41.770   8.719
 1333POPC   C2B19724  41.822  41.862   8.329
 1333POPC   C3B19725  42.068  41.990   7.983
 1333POPC   C4B19726  42.237  41.923   7.579
 1334POPC   NC319727  42.255  37.568   9.770
 1334POPC   PO419728  42.791  37.883   9.448
 1334POPC   GL119729  42.347  37.814   9.231
 1334POPC   GL219730  42.314  37.494   9.126
 1334POPC   C1A19731  42.186  37.815   8.762
 1334POPC   D2A19732  42.168  38.024   8.360
 1334POPC   C3A19733  42.339  37.917   8.003
 1334POPC   C4A19734  42.287  37.758   7.601
 1334POPC   C1B19735  42.671  37.693   8.843
 1334POPC   C2B19736  42.687  37.940   8.474
 1334POPC   C3B19737  42.822  37.783   8.098
 1334POPC   C4B19738  42.682  37.499   7.805
 1335POPC   NC319739  38.707  41.081   9.404
 1335POPC   PO419740  38.274  40.554   9.658
 1335POPC   GL119741  38.428  40.663   9.270
 1335POPC   GL219742  38.242  40.996   9.192
 1335POPC   C1A19743  38.631  40.605   8.874
 1335POPC   D2A19744  38.463  40.579   8.473
 1335POPC   C3A19745  38.656  40.711   8.064
 1335POPC   C4A19746  38.535  40.642   7.659
 1335POPC   C1B19747  38.304  41.029   8.744
 1335POPC   C2B19748  38.351  41.056   8.311
 1335POPC   C3B19749  38.328  41.071   7.896
 1335POPC   C4B19750  38.324  41.041   7.417
 1336POPC   NC319751  22.362  20.732   9.770
 1336POPC   PO419752  22.188  21.364   9.621
 1336POPC   GL119753  22.161  21.530   9.218
 1336POPC   GL219754  22.434  21.363   9.124
 1336POPC   C1A19755  22.057  21.459   8.792
 1336POPC   D2A19756  21.879  21.412   8.397
 1336POPC   C3A19757  22.059  21.469   8.015
 1336POPC   C4A19758  22.288  21.544   7.672
 1336POPC   C1B19759  22.585  21.318   8.745
 1336POPC   C2B19760  22.395  21.348   8.381
 1336POPC   C3B19761  22.549  21.265   7.995
 1336POPC   C4B19762  22.563  21.074   7.624
 1337POPC   NC319763  18.480  17.672   9.496
 1337POPC   PO419764  18.015  17.217   9.541
 1337POPC   GL119765  18.150  17.427   9.194
 1337POPC   GL219766  18.478  17.296   9.127
 1337POPC   C1A19767  18.255  17.610   8.793
 1337POPC   D2A19768  18.490  17.664   8.461
 1337POPC   C3A19769  18.329  17.658   8.080
 1337POPC   C4A19770  18.540  17.534   7.749
 1337POPC   C1B19771  18.156  17.107   8.826
 1337POPC   C2B19772  18.159  17.241   8.391
 1337POPC   C3B19773  18.185  17.154   7.962
 1337POPC   C4B19774  17.882  17.051   7.715
 1338POPC   NC319775   0.543  15.608   9.400
 1338POPC   PO419776   0.137  16.121   9.678
 1338POPC   GL119777   0.328  16.061   9.210
 1338POPC   GL219778   0.646  15.993   9.069
 1338POPC   C1A19779   0.290  15.904   8.719
 1338POPC   D2A19780   0.394  15.851   8.274
 1338POPC   C3A19781   0.500  16.213   8.033
 1338POPC   C4A19782   0.251  16.291   7.668
 1338POPC   C1B19783   0.730  16.118   8.638
 1338POPC   C2B19784   0.899  15.947   8.309
 1338POPC   C3B19785   0.800  15.816   7.917
 1338POPC   C4B19786   0.740  16.106   7.581
 1339POPC   NC319787  29.459   6.526   9.389
 1339POPC   PO419788  30.077   6.919   9.561
 1339POPC   GL119789  29.937   6.666   9.205
 1339POPC   GL219790  29.668   6.871   9.077
 1339POPC   C1A19791  29.879   6.416   8.831
 1339POPC   D2A19792  29.791   6.419   8.377
 1339POPC   C3A19793  30.079   6.365   8.046
 1339POPC   C4A19794  30.263   6.670   7.802
 1339POPC   C1B19795  29.560   6.818   8.650
 1339POPC   C2B19796  29.669   6.917   8.270
 1339POPC   C3B19797  29.814   6.889   7.868
 1339POPC   C4B19798  29.840   6.503   7.577
 1340POPC   NC319799  12.326  26.332   9.547
 1340POPC   PO419800  11.936  25.815   9.383
 1340POPC   GL119801  12.084  26.140   9.121
 1340POPC   GL219802  11.821  26.341   8.935
 1340POPC   C1A19803  12.112  26.006   8.696
 1340POPC   D2A19804  12.000  26.177   8.335
 1340POPC   C3A19805  12.133  25.929   7.991
 1340POPC   C4A19806  12.065  25.753   7.601
 1340POPC   C1B19807  12.241  26.491   8.784
 1340POPC   C2B19808  12.455  26.433   8.368
 1340POPC   C3B19809  12.231  26.420   7.948
 1340POPC   C4B19810  12.128  26.256   7.550
 1341POPC   NC319811  26.509   9.535   9.609
 1341POPC   PO419812  25.829   9.743   9.593
 1341POPC   GL119813  26.014   9.699   9.210
 1341POPC   GL219814  25.683   9.560   9.133
 1341POPC   C1A19815  26.277   9.614   8.811
 1341POPC   D2A19816  26.501   9.657   8.387
 1341POPC   C3A19817  26.289   9.625   7.991
 1341POPC   C4A19818  26.427   9.649   7.563
 1341POPC   C1B19819  25.778   9.763   8.758
 1341POPC   C2B19820  25.950   9.734   8.362
 1341POPC   C3B19821  25.796   9.862   7.959
 1341POPC   C4B19822  25.889   9.976   7.536
 1342POPC   NC319823  31.563  43.800   9.566
 1342POPC   PO419824  31.031  44.169   9.702
 1342POPC   GL119825  31.123  44.089   9.239
 1342POPC   GL219826  31.159  43.763   9.178
 1342POPC   C1A19827  31.387  44.052   8.793
 1342POPC   D2A19828  31.664  43.851   8.456
 1342POPC   C3A19829  31.627  44.022   8.007
 1342POPC   C4A19830  31.260  44.262   7.933
 1342POPC   C1B19831  31.439  43.549   8.921
 1342POPC   C2B19832  31.430  43.406   8.512
 1342POPC   C3B19833  31.403  43.548   8.109
 1342POPC   C4B19834  31.163  43.663   7.806
 1343POPC   NC319835  20.710   7.089   9.496
 1343POPC   PO419836  20.625   7.741   9.212
 1343POPC   GL119837  20.799   7.373   9.094
 1343POPC   GL219838  20.442   7.201   9.091
 1343POPC   C1A19839  20.924   7.316   8.703
 1343POPC   D2A19840  20.689   7.657   8.536
 1343POPC   C3A19841  20.676   7.664   8.079
 1343POPC   C4A19842  20.763   7.307   7.816
 1343POPC   C1B19843  20.409   7.249   8.676
 1343POPC   C2B19844  20.569   7.179   8.301
 1343POPC   C3B19845  20.292   7.315   8.024
 1343POPC   C4B19846  20.324   7.599   7.673
 1344POPC   NC319847  26.348  40.642   9.548
 1344POPC   PO419848  25.649  40.575   9.373
 1344POPC   GL119849  25.991  40.812   9.180
 1344POPC   GL219850  26.181  40.559   9.079
 1344POPC   C1A19851  26.117  41.065   8.818
 1344POPC   D2A19852  25.959  41.067   8.419
 1344POPC   C3A19853  26.159  41.043   8.021
 1344POPC   C4A19854  25.844  41.129   7.718
 1344POPC   C1B19855  25.994  40.586   8.685
 1344POPC   C2B19856  26.173  40.619   8.300
 1344POPC   C3B19857  26.152  40.522   7.896
 1344POPC   C4B19858  25.866  40.445   7.610
 1345POPC   NC319859  19.119  40.389   9.426
 1345POPC   PO419860  19.174  41.081   9.468
 1345POPC   GL119861  19.036  40.837   9.134
 1345POPC   GL219862  19.339  40.681   9.022
 1345POPC   C1A19863  18.917  40.731   8.700
 1345POPC   D2A19864  18.979  40.921   8.283
 1345POPC   C3A19865  19.044  40.607   7.940
 1345POPC   C4A19866  19.019  40.608   7.473
 1345POPC   C1B19867  19.544  40.978   8.762
 1345POPC   C2B19868  19.435  41.133   8.391
 1345POPC   C3B19869  19.391  40.978   7.999
 1345POPC   C4B19870  19.460  41.157   7.631
 1346POPC   NC319871  13.131   5.191   9.685
 1346POPC   PO419872  12.689   4.857   9.697
 1346POPC   GL119873  12.768   5.079   9.264
 1346POPC   GL219874  12.622   5.409   9.236
 1346POPC   C1A19875  12.762   5.146   8.771
 1346POPC   D2A19876  13.035   5.025   8.384
 1346POPC   C3A19877  12.930   4.941   7.939
 1346POPC   C4A19878  13.072   5.151   7.592
 1346POPC   C1B19879  12.319   5.400   8.917
 1346POPC   C2B19880  12.399   5.439   8.462
 1346POPC   C3B19881  12.600   5.292   8.105
 1346POPC   C4B19882  12.524   5.117   7.671
 1347POPC   NC319883  43.958  38.072   9.601
 1347POPC   PO419884  44.262  37.427   9.647
 1347POPC   GL119885  44.214  37.637   9.241
 1347POPC   GL219886  43.854  37.663   9.195
 1347POPC   C1A19887  44.120  37.459   8.792
 1347POPC   D2A19888  43.957  37.258   8.378
 1347POPC   C3A19889  44.217  37.446   8.034
 1347POPC   C4A19890  44.149  37.885   7.852
 1347POPC   C1B19891  43.650  37.693   8.765
 1347POPC   C2B19892  43.867  37.742   8.379
 1347POPC   C3B19893  43.742  37.600   7.975
 1347POPC   C4B19894  43.584  37.860   7.653
 1348POPC   NC319895  17.777   2.318   9.747
 1348POPC   PO419896  18.378   2.029   9.550
 1348POPC   GL119897  18.154   1.986   9.182
 1348POPC   GL219898  17.911   2.260   9.218
 1348POPC   C1A19899  18.309   1.812   8.775
 1348POPC   D2A19900  18.559   1.840   8.401
 1348POPC   C3A19901  18.371   1.843   7.994
 1348POPC   C4A19902  18.597   2.126   7.790
 1348POPC   C1B19903  18.169   2.327   8.821
 1348POPC   C2B19904  18.118   2.146   8.431
 1348POPC   C3B19905  17.912   2.012   8.082
 1348POPC   C4B19906  17.895   2.090   7.666
 1349POPC   NC319907   8.558  12.617   9.846
 1349POPC   PO419908   8.016  12.846   9.468
 1349POPC   GL119909   8.123  13.006   9.103
 1349POPC   GL219910   8.471  13.113   9.100
 1349POPC   C1A19911   8.086  12.809   8.738
 1349POPC   D2A19912   7.989  12.945   8.365
 1349POPC   C3A19913   7.984  12.722   7.981
 1349POPC   C4A19914   7.661  12.682   7.696
 1349POPC   C1B19915   8.503  13.138   8.699
 1349POPC   C2B19916   8.508  12.866   8.390
 1349POPC   C3B19917   8.429  13.008   8.019
 1349POPC   C4B19918   8.411  12.756   7.663
 1350POPC   NC319919   5.655  25.218   9.488
 1350POPC   PO419920   6.289  25.295   9.468
 1350POPC   GL119921   6.123  25.385   9.106
 1350POPC   GL219922   5.953  25.097   9.066
 1350POPC   C1A19923   6.022  25.381   8.655
 1350POPC   D2A19924   6.005  24.993   8.392
 1350POPC   C3A19925   6.031  25.116   7.960
 1350POPC   C4A19926   5.826  25.429   7.689
 1350POPC   C1B19927   5.604  25.095   8.806
 1350POPC   C2B19928   5.468  25.019   8.399
 1350POPC   C3B19929   5.503  25.096   7.965
 1350POPC   C4B19930   5.689  24.939   7.596
 1351POPC   NC319931  16.287   0.761   9.683
 1351POPC   PO419932  15.897   1.250   9.518
 1351POPC   GL119933  15.935   0.938   9.232
 1351POPC   GL219934  16.274   0.935   9.209
 1351POPC   C1A19935  15.862   1.063   8.825
 1351POPC   D2A19936  15.978   1.310   8.485
 1351POPC   C3A19937  15.848   1.106   8.094
 1351POPC   C4A19938  15.798   1.331   7.733
 1351POPC   C1B19939  16.348   1.179   8.845
 1351POPC   C2B19940  16.457   1.132   8.421
 1351POPC   C3B19941  16.288   1.341   8.069
 1351POPC   C4B19942  16.235   1.105   7.712
 1352POPC   NC319943   1.428   7.804   9.522
 1352POPC   PO419944   0.992   8.344   9.446
 1352POPC   GL119945   1.222   8.382   9.090
 1352POPC   GL219946   1.278   8.017   9.024
 1352POPC   C1A19947   1.432   8.356   8.704
 1352POPC   D2A19948   1.389   8.091   8.367
 1352POPC   C3A19949   1.405   8.302   8.021
 1352POPC   C4A19950   1.102   8.416   7.755
 1352POPC   C1B19951   1.632   7.891   8.759
 1352POPC   C2B19952   1.653   7.645   8.400
 1352POPC   C3B19953   1.612   7.809   7.968
 1352POPC   C4B19954   1.578   8.070   7.591
 1353POPC   NC319955  40.211   4.086   9.500
 1353POPC   PO419956  39.674   4.571   9.489
 1353POPC   GL119957  39.935   4.406   9.210
 1353POPC   GL219958  39.754   4.111   9.167
 1353POPC   C1A19959  40.119   4.266   8.819
 1353POPC   D2A19960  40.119   4.505   8.503
 1353POPC   C3A19961  40.183   4.336   8.149
 1353POPC   C4A19962  40.138   4.449   7.759
 1353POPC   C1B19963  39.764   3.921   8.757
 1353POPC   C2B19964  39.695   4.156   8.377
 1353POPC   C3B19965  39.775   4.064   7.939
 1353POPC   C4B19966  39.763   4.189   7.514
 1354POPC   NC319967   6.132  14.926   9.548
 1354POPC   PO419968   5.986  15.451   9.182
 1354POPC   GL119969   5.680  15.148   9.065
 1354POPC   GL219970   5.772  14.814   9.202
 1354POPC   C1A19971   5.651  15.188   8.611
 1354POPC   D2A19972   5.421  15.258   8.225
 1354POPC   C3A19973   5.722  15.318   7.881
 1354POPC   C4A19974   5.748  15.611   7.542
 1354POPC   C1B19975   6.026  14.885   8.793
 1354POPC   C2B19976   6.085  14.954   8.324
 1354POPC   C3B19977   6.036  14.898   7.859
 1354POPC   C4B19978   5.950  14.759   7.426
 1355POPC   NC319979  13.832  19.487   9.486
 1355POPC   PO419980  13.451  19.926   9.748
 1355POPC   GL119981  13.494  19.838   9.282
 1355POPC   GL219982  13.339  19.519   9.108
 1355POPC   C1A19983  13.394  19.933   8.841
 1355POPC   D2A19984  13.409  19.710   8.432
 1355POPC   C3A19985  13.653  19.920   8.100
 1355POPC   C4A19986  13.470  20.200   7.825
 1355POPC   C1B19987  13.727  19.507   8.815
 1355POPC   C2B19988  13.808  19.328   8.371
 1355POPC   C3B19989  13.812  19.473   7.940
 1355POPC   C4B19990  13.399  19.648   7.752
 1356POPC   NC319991   7.893  43.455   9.613
 1356POPC   PO419992   8.472  43.159   9.682
 1356POPC   GL119993   8.258  43.352   9.258
 1356POPC   GL219994   8.062  43.112   9.001
 1356POPC   C1A19995   8.289  43.524   8.827
 1356POPC   D2A19996   8.504  43.469   8.426
 1356POPC   C3A19997   8.208  43.287   8.150
 1356POPC   C4A19998   8.079  43.373   7.741
 1356POPC   C1B19999   8.387  43.021   8.684
 1356POPC   C2B20000   8.523  42.865   8.286
 1356POPC   C3B20001   8.426  42.912   7.874
 1356POPC   C4B20002   8.026  42.760   7.750
 1357POPC   NC320003  43.350   1.194   9.422
 1357POPC   PO420004  42.935   1.526   8.975
 1357POPC   GL120005  43.229   1.173   8.934
 1357POPC   GL220006  43.120   0.839   9.073
 1357POPC   C1A20007  43.307   1.114   8.519
 1357POPC   D2A20008  43.055   1.333   8.214
 1357POPC   C3A20009  43.251   1.276   7.833
 1357POPC   C4A20010  43.364   1.235   7.408
 1357POPC   C1B20011  42.820   0.965   8.708
 1357POPC   C2B20012  42.607   1.025   8.305
 1357POPC   C3B20013  42.744   1.056   7.873
 1357POPC   C4B20014  42.995   0.914   7.531
 1358POPC   NC320015  16.070  20.075   9.775
 1358POPC   PO420016  15.652  19.624   9.406
 1358POPC   GL120017  15.978  19.803   9.224
 1358POPC   GL220018  15.886  20.131   9.310
 1358POPC   C1A20019  16.098  19.736   8.793
 1358POPC   D2A20020  15.923  19.627   8.353
 1358POPC   C3A20021  16.137  19.730   7.983
 1358POPC   C4A20022  16.033  19.692   7.583
 1358POPC   C1B20023  15.867  20.187   8.888
 1358POPC   C2B20024  15.835  20.186   8.461
 1358POPC   C3B20025  15.817  20.342   8.057
 1358POPC   C4B20026  15.978  20.193   7.666
 1359POPC   NC320027  13.504  37.098   9.593
 1359POPC   PO420028  13.732  36.425   9.553
 1359POPC   GL120029  13.531  36.657   9.202
 1359POPC   GL220030  13.717  36.969   9.164
 1359POPC   C1A20031  13.365  36.705   8.762
 1359POPC   D2A20032  13.409  36.944   8.340
 1359POPC   C3A20033  13.655  36.818   7.969
 1359POPC   C4A20034  14.064  36.746   7.759
 1359POPC   C1B20035  13.521  37.184   8.814
 1359POPC   C2B20036  13.341  37.418   8.477
 1359POPC   C3B20037  13.571  37.431   8.121
 1359POPC   C4B20038  13.392  37.276   7.779
 1360POPC   NC320039  14.475  10.027   9.567
 1360POPC   PO420040  14.330  10.590   9.599
 1360POPC   GL120041  14.301  10.556   9.173
 1360POPC   GL220042  14.210  10.236   9.173
 1360POPC   C1A20043  14.523  10.569   8.753
 1360POPC   D2A20044  14.459  10.774   8.333
 1360POPC   C3A20045  14.529  10.736   7.914
 1360POPC   C4A20046  14.231  10.619   7.653
 1360POPC   C1B20047  14.565  10.088   8.924
 1360POPC   C2B20048  14.519  10.007   8.496
 1360POPC   C3B20049  14.481  10.255   8.138
 1360POPC   C4B20050  14.426  10.166   7.702
 1361POPC   NC320051  31.683  12.274   9.508
 1361POPC   PO420052  31.161  11.829   9.531
 1361POPC   GL120053  31.340  12.004   9.181
 1361POPC   GL220054  31.608  11.858   9.197
 1361POPC   C1A20055  31.416  12.173   8.783
 1361POPC   D2A20056  31.638  12.218   8.388
 1361POPC   C3A20057  31.446  12.024   8.061
 1361POPC   C4A20058  31.385  12.182   7.675
 1361POPC   C1B20059  31.794  11.816   8.818
 1361POPC   C2B20060  31.685  11.735   8.442
 1361POPC   C3B20061  31.859  11.668   8.065
 1361POPC   C4B20062  31.640  11.681   7.711
 1362POPC   NC320063  11.416  31.179   9.515
 1362POPC   PO420064  11.319  31.824   9.766
 1362POPC   GL120065  11.453  31.708   9.288
 1362POPC   GL220066  11.244  31.447   9.115
 1362POPC   C1A20067  11.461  31.736   8.766
 1362POPC   D2A20068  11.155  31.702   8.363
 1362POPC   C3A20069  11.286  31.519   7.937
 1362POPC   C4A20070  11.544  31.730   7.604
 1362POPC   C1B20071  11.247  31.085   8.793
 1362POPC   C2B20072  11.414  31.003   8.379
 1362POPC   C3B20073  11.264  30.999   7.973
 1362POPC   C4B20074  11.482  31.059   7.606
 1363POPC   NC320075  16.278  25.640   9.329
 1363POPC   PO420076  15.789  26.016   9.382
 1363POPC   GL120077  15.913  25.887   9.037
 1363POPC   GL220078  16.212  26.081   9.025
 1363POPC   C1A20079  15.800  25.982   8.652
 1363POPC   D2A20080  16.030  26.164   8.359
 1363POPC   C3A20081  15.916  26.045   7.939
 1363POPC   C4A20082  15.508  26.186   7.793
 1363POPC   C1B20083  16.318  25.823   8.670
 1363POPC   C2B20084  16.283  25.724   8.242
 1363POPC   C3B20085  16.391  25.830   7.844
 1363POPC   C4B20086  16.153  25.929   7.480
 1364POPC   NC320087  28.127  16.991   9.499
 1364POPC   PO420088  28.307  16.406   9.716
 1364POPC   GL120089  28.354  16.514   9.264
 1364POPC   GL220090  28.104  16.677   9.103
 1364POPC   C1A20091  28.529  16.608   8.813
 1364POPC   D2A20092  28.440  16.817   8.429
 1364POPC   C3A20093  28.644  16.828   8.063
 1364POPC   C4A20094  28.466  16.657   7.739
 1364POPC   C1B20095  27.842  16.760   8.797
 1364POPC   C2B20096  27.926  16.845   8.408
 1364POPC   C3B20097  28.068  16.741   8.044
 1364POPC   C4B20098  28.019  16.891   7.581
 1365POPC   NC320099  18.722  41.248   9.458
 1365POPC   PO420100  18.024  41.510   9.542
 1365POPC   GL120101  18.261  41.431   9.181
 1365POPC   GL220102  18.541  41.685   9.229
 1365POPC   C1A20103  18.141  41.413   8.737
 1365POPC   D2A20104  17.920  41.529   8.339
 1365POPC   C3A20105  18.199  41.428   7.976
 1365POPC   C4A20106  18.432  41.306   7.589
 1365POPC   C1B20107  18.523  41.794   8.785
 1365POPC   C2B20108  18.350  41.802   8.360
 1365POPC   C3B20109  18.528  41.801   7.960
 1365POPC   C4B20110  18.742  41.758   7.597
 1366POPC   NC320111  11.613  39.812   9.645
 1366POPC   PO420112  10.869  39.799   9.661
 1366POPC   GL120113  11.220  39.916   9.328
 1366POPC   GL220114  11.369  40.264   9.283
 1366POPC   C1A20115  11.468  39.840   8.937
 1366POPC   D2A20116  11.341  39.988   8.526
 1366POPC   C3A20117  11.469  39.868   8.115
 1366POPC   C4A20118  11.208  39.908   7.756
 1366POPC   C1B20119  11.527  40.357   8.849
 1366POPC   C2B20120  11.612  40.399   8.363
 1366POPC   C3B20121  11.526  40.364   7.876
 1366POPC   C4B20122  11.413  40.652   7.503
 1367POPC   NC320123  19.133  11.933   9.534
 1367POPC   PO420124  18.968  12.514   9.485
 1367POPC   GL120125  18.968  12.191   9.101
 1367POPC   GL220126  18.979  11.807   9.085
 1367POPC   C1A20127  19.232  12.035   8.719
 1367POPC   D2A20128  19.414  11.808   8.362
 1367POPC   C3A20129  19.302  12.059   8.002
 1367POPC   C4A20130  19.218  12.025   7.542
 1367POPC   C1B20131  18.849  11.703   8.711
 1367POPC   C2B20132  18.891  11.935   8.351
 1367POPC   C3B20133  18.860  11.810   7.960
 1367POPC   C4B20134  18.715  11.978   7.607
 1368POPC   NC320135   7.465   7.185   9.477
 1368POPC   PO420136   7.785   7.686   9.221
 1368POPC   GL120137   7.484   7.458   9.011
 1368POPC   GL220138   7.134   7.529   9.072
 1368POPC   C1A20139   7.373   7.584   8.594
 1368POPC   D2A20140   7.646   7.349   8.375
 1368POPC   C3A20141   7.540   7.197   7.990
 1368POPC   C4A20142   7.597   7.399   7.637
 1368POPC   C1B20143   7.160   7.146   8.756
 1368POPC   C2B20144   7.150   7.010   8.293
 1368POPC   C3B20145   7.070   7.247   7.874
 1368POPC   C4B20146   6.755   7.433   7.657
 1369POPC   NC320147  43.795  35.576   9.788
 1369POPC   PO420148  44.124  35.166   9.569
 1369POPC   GL120149  43.896  35.328   9.239
 1369POPC   GL220150  43.951  35.650   9.072
 1369POPC   C1A20151  43.788  35.167   8.852
 1369POPC   D2A20152  43.871  35.102   8.436
 1369POPC   C3A20153  43.800  35.370   8.107
 1369POPC   C4A20154  43.836  35.328   7.664
 1369POPC   C1B20155  43.790  35.628   8.617
 1369POPC   C2B20156  43.421  35.711   8.328
 1369POPC   C3B20157  43.412  35.634   7.896
 1369POPC   C4B20158  43.802  35.807   7.830
 1370POPC   NC320159  16.129  37.435   9.492
 1370POPC   PO420160  15.747  38.020   9.607
 1370POPC   GL120161  15.770  37.735   9.218
 1370POPC   GL220162  16.132  37.747   9.097
 1370POPC   C1A20163  15.759  37.587   8.759
 1370POPC   D2A20164  15.913  37.465   8.321
 1370POPC   C3A20165  15.776  37.738   8.014
 1370POPC   C4A20166  15.753  38.129   7.798
 1370POPC   C1B20167  16.333  37.579   8.727
 1370POPC   C2B20168  16.432  37.428   8.314
 1370POPC   C3B20169  16.305  37.561   7.875
 1370POPC   C4B20170  16.356  37.483   7.392
 1371POPC   NC320171  38.197   5.192   9.469
 1371POPC   PO420172  38.845   4.898   9.656
 1371POPC   GL120173  38.814   4.973   9.160
 1371POPC   GL220174  38.408   5.025   9.030
 1371POPC   C1A20175  38.746   4.865   8.725
 1371POPC   D2A20176  38.432   5.007   8.435
 1371POPC   C3A20177  38.540   5.144   8.041
 1371POPC   C4A20178  38.372   4.822   7.775
 1371POPC   C1B20179  38.348   5.400   8.737
 1371POPC   C2B20180  38.371   5.551   8.330
 1371POPC   C3B20181  38.112   5.466   7.995
 1371POPC   C4B20182  38.214   5.300   7.670
 1372POPC   NC320183   7.004  22.465   9.572
 1372POPC   PO420184   7.380  21.884   9.540
 1372POPC   GL120185   7.334  22.172   9.160
 1372POPC   GL220186   7.563  21.929   9.054
 1372POPC   C1A20187   7.582  22.409   8.835
 1372POPC   D2A20188   7.611  22.534   8.417
 1372POPC   C3A20189   7.654  22.213   8.164
 1372POPC   C4A20190   7.601  22.282   7.766
 1372POPC   C1B20191   7.271  21.798   8.756
 1372POPC   C2B20192   7.358  21.882   8.382
 1372POPC   C3B20193   7.188  22.082   8.017
 1372POPC   C4B20194   7.246  21.844   7.604
 1373POPC   NC320195  18.486   9.546   9.363
 1373POPC   PO420196  18.239  10.241   9.501
 1373POPC   GL120197  18.243   9.941   9.079
 1373POPC   GL220198  18.472   9.667   8.868
 1373POPC   C1A20199  18.134   9.916   8.604
 1373POPC   D2A20200  18.440   9.721   8.316
 1373POPC   C3A20201  18.471   9.983   7.953
 1373POPC   C4A20202  18.384   9.894   7.515
 1373POPC   C1B20203  18.114   9.437   8.778
 1373POPC   C2B20204  17.969   9.445   8.372
 1373POPC   C3B20205  18.054   9.612   7.979
 1373POPC   C4B20206  17.793   9.443   7.702
 1374POPC   NC320207   7.962  32.205   9.539
 1374POPC   PO420208   8.555  31.984   9.471
 1374POPC   GL120209   8.284  32.120   9.122
 1374POPC   GL220210   8.144  32.449   9.133
 1374POPC   C1A20211   8.318  32.224   8.661
 1374POPC   D2A20212   8.659  32.237   8.354
 1374POPC   C3A20213   8.572  32.078   7.938
 1374POPC   C4A20214   8.377  32.261   7.586
 1374POPC   C1B20215   7.839  32.305   8.847
 1374POPC   C2B20216   7.886  32.448   8.422
 1374POPC   C3B20217   8.124  32.282   8.112
 1374POPC   C4B20218   7.934  32.138   7.769
 1375POPC   NC320219   6.756  26.387   9.543
 1375POPC   PO420220   6.954  25.799   9.754
 1375POPC   GL120221   6.813  25.936   9.219
 1375POPC   GL220222   6.647  26.173   9.065
 1375POPC   C1A20223   6.862  25.709   8.744
 1375POPC   D2A20224   6.957  25.866   8.319
 1375POPC   C3A20225   6.683  25.858   7.955
 1375POPC   C4A20226   6.844  25.684   7.553
 1375POPC   C1B20227   6.816  26.210   8.707
 1375POPC   C2B20228   6.641  26.273   8.343
 1375POPC   C3B20229   6.808  26.362   7.983
 1375POPC   C4B20230   6.628  26.455   7.642
 1376POPC   NC320231   4.217  38.300   9.621
 1376POPC   PO420232   4.674  38.806   9.315
 1376POPC   GL120233   4.348  38.530   9.143
 1376POPC   GL220234   4.078  38.255   9.140
 1376POPC   C1A20235   4.387  38.319   8.732
 1376POPC   D2A20236   4.235  38.237   8.306
 1376POPC   C3A20237   4.500  38.274   7.937
 1376POPC   C4A20238   4.786  38.271   7.613
 1376POPC   C1B20239   3.932  38.550   8.833
 1376POPC   C2B20240   4.131  38.725   8.448
 1376POPC   C3B20241   4.095  38.618   8.003
 1376POPC   C4B20242   4.004  38.201   7.794
 1377POPC   NC320243  15.704  12.664   9.474
 1377POPC   PO420244  16.162  13.263   9.441
 1377POPC   GL120245  15.931  13.006   9.157
 1377POPC   GL220246  16.187  12.758   9.243
 1377POPC   C1A20247  15.733  12.825   8.756
 1377POPC   D2A20248  15.510  12.536   8.441
 1377POPC   C3A20249  15.654  12.623   8.026
 1377POPC   C4A20250  15.894  12.815   7.723
 1377POPC   C1B20251  16.182  12.560   8.868
 1377POPC   C2B20252  16.032  12.464   8.465
 1377POPC   C3B20253  16.174  12.506   8.010
 1377POPC   C4B20254  16.214  12.431   7.550
 1378POPC   NC320255  14.275  11.593   9.533
 1378POPC   PO420256  14.421  12.282   9.609
 1378POPC   GL120257  14.457  12.273   9.104
 1378POPC   GL220258  14.423  12.528   8.815
 1378POPC   C1A20259  14.573  12.046   8.699
 1378POPC   D2A20260  14.466  11.778   8.339
 1378POPC   C3A20261  14.263  11.929   7.981
 1378POPC   C4A20262  14.581  12.124   7.772
 1378POPC   C1B20263  14.035  12.355   8.799
 1378POPC   C2B20264  14.144  12.170   8.444
 1378POPC   C3B20265  14.341  12.405   8.124
 1378POPC   C4B20266  14.071  12.382   7.751
 1379POPC   NC320267  13.486  25.284   9.873
 1379POPC   PO420268  13.577  24.834   9.486
 1379POPC   GL120269  13.617  25.282   9.264
 1379POPC   GL220270  13.937  25.488   9.286
 1379POPC   C1A20271  13.743  25.323   8.808
 1379POPC   D2A20272  13.542  25.371   8.400
 1379POPC   C3A20273  13.656  25.234   7.941
 1379POPC   C4A20274  13.307  25.134   7.640
 1379POPC   C1B20275  13.911  25.778   8.911
 1379POPC   C2B20276  13.947  25.722   8.478
 1379POPC   C3B20277  13.722  25.716   8.087
 1379POPC   C4B20278  13.850  25.644   7.651
 1380POPC   NC320279   8.845  27.712   9.579
 1380POPC   PO420280   8.835  27.032   9.429
 1380POPC   GL120281   8.728  27.389   9.170
 1380POPC   GL220282   9.024  27.621   9.126
 1380POPC   C1A20283   8.776  27.412   8.738
 1380POPC   D2A20284   9.041  27.375   8.431
 1380POPC   C3A20285   8.824  27.437   8.076
 1380POPC   C4A20286   8.955  27.573   7.694
 1380POPC   C1B20287   9.216  27.749   8.768
 1380POPC   C2B20288   9.091  27.921   8.396
 1380POPC   C3B20289   9.015  28.011   8.001
 1380POPC   C4B20290   9.263  27.958   7.611
 1381POPC   NC320291  38.816  11.855   9.559
 1381POPC   PO420292  39.181  12.425   9.641
 1381POPC   GL120293  39.191  12.144   9.253
 1381POPC   GL220294  39.157  12.422   9.067
 1381POPC   C1A20295  39.273  12.040   8.772
 1381POPC   D2A20296  39.087  11.940   8.357
 1381POPC   C3A20297  39.383  11.913   8.006
 1381POPC   C4A20298  39.430  11.721   7.575
 1381POPC   C1B20299  39.217  12.546   8.655
 1381POPC   C2B20300  39.341  12.371   8.327
 1381POPC   C3B20301  39.157  12.392   7.972
 1381POPC   C4B20302  39.099  12.398   7.561
 1382POPC   NC320303  23.200  26.631   9.634
 1382POPC   PO420304  23.856  26.867   9.501
 1382POPC   GL120305  23.684  26.857   9.118
 1382POPC   GL220306  23.376  26.691   9.171
 1382POPC   C1A20307  23.689  26.645   8.758
 1382POPC   D2A20308  23.928  26.595   8.422
 1382POPC   C3A20309  23.692  26.809   8.125
 1382POPC   C4A20310  23.714  26.696   7.713
 1382POPC   C1B20311  23.241  26.937   8.830
 1382POPC   C2B20312  23.321  27.226   8.481
 1382POPC   C3B20313  23.336  27.160   8.034
 1382POPC   C4B20314  23.216  26.791   7.806
 1383POPC   NC320315   6.289  34.778   9.471
 1383POPC   PO420316   6.744  34.327   9.478
 1383POPC   GL120317   6.528  34.499   9.112
 1383POPC   GL220318   6.401  34.833   8.994
 1383POPC   C1A20319   6.552  34.442   8.685
 1383POPC   D2A20320   6.840  34.440   8.389
 1383POPC   C3A20321   6.703  34.286   8.030
 1383POPC   C4A20322   6.612  34.339   7.620
 1383POPC   C1B20323   6.205  34.974   8.622
 1383POPC   C2B20324   6.376  34.714   8.275
 1383POPC   C3B20325   6.780  34.805   8.056
 1383POPC   C4B20326   6.850  34.809   7.661
 1384POPC   NC320327  13.731  33.210   9.941
 1384POPC   PO420328  13.505  33.718   9.640
 1384POPC   GL120329  13.216  33.777   9.285
 1384POPC   GL220330  13.293  34.093   9.117
 1384POPC   C1A20331  13.246  33.672   8.838
 1384POPC   D2A20332  13.350  33.902   8.451
 1384POPC   C3A20333  13.358  33.664   8.075
 1384POPC   C4A20334  13.609  33.755   7.725
 1384POPC   C1B20335  13.672  34.141   8.779
 1384POPC   C2B20336  13.864  34.090   8.312
 1384POPC   C3B20337  14.028  34.009   7.872
 1384POPC   C4B20338  13.951  34.098   7.426
 1385POPC   NC320339   9.825  23.656   9.388
 1385POPC   PO420340   9.414  24.058   9.758
 1385POPC   GL120341   9.322  23.629   9.337
 1385POPC   GL220342   9.473  23.385   9.137
 1385POPC   C1A20343   9.309  23.692   8.779
 1385POPC   D2A20344   9.624  23.536   8.429
 1385POPC   C3A20345   9.823  23.750   8.050
 1385POPC   C4A20346   9.644  24.069   7.823
 1385POPC   C1B20347   9.389  23.178   8.734
 1385POPC   C2B20348   9.484  23.064   8.283
 1385POPC   C3B20349   9.551  23.314   7.874
 1385POPC   C4B20350   9.468  23.324   7.396
 1386POPC   NC320351  40.877  23.996   9.840
 1386POPC   PO420352  41.225  23.519   9.513
 1386POPC   GL120353  41.044  23.528   9.112
 1386POPC   GL220354  40.692  23.569   9.113
 1386POPC   C1A20355  41.014  23.761   8.728
 1386POPC   D2A20356  40.791  23.806   8.350
 1386POPC   C3A20357  40.907  24.140   8.132
 1386POPC   C4A20358  41.091  23.927   7.806
 1386POPC   C1B20359  40.495  23.697   8.753
 1386POPC   C2B20360  40.269  23.655   8.381
 1386POPC   C3B20361  40.476  23.672   7.953
 1386POPC   C4B20362  40.561  23.502   7.535
 1387POPC   NC320363  25.392  34.142   9.519
 1387POPC   PO420364  25.456  34.876   9.608
 1387POPC   GL120365  25.212  34.592   9.308
 1387POPC   GL220366  25.519  34.472   9.175
 1387POPC   C1A20367  25.148  34.386   8.857
 1387POPC   D2A20368  25.423  34.475   8.499
 1387POPC   C3A20369  25.294  34.469   8.096
 1387POPC   C4A20370  25.445  34.297   7.749
 1387POPC   C1B20371  25.393  34.872   8.933
 1387POPC   C2B20372  25.428  34.991   8.531
 1387POPC   C3B20373  25.553  34.922   8.138
 1387POPC   C4B20374  25.385  34.817   7.742
 1388POPC   NC320375  21.490  44.316   9.546
 1388POPC   PO420376  20.997  44.800   9.515
 1388POPC   GL120377  21.288  44.679   9.184
 1388POPC   GL220378  21.190  44.329   9.135
 1388POPC   C1A20379  21.566  44.499   8.812
 1388POPC   D2A20380  21.741  44.590   8.375
 1388POPC   C3A20381  21.543  44.575   7.968
 1388POPC   C4A20382  21.585  44.602   7.510
 1388POPC   C1B20383  21.048  44.515   8.772
 1388POPC   C2B20384  21.213  44.616   8.395
 1388POPC   C3B20385  20.993  44.681   8.051
 1388POPC   C4B20386  21.128  44.685   7.672
 1389POPC   NC320387   8.576   4.068   9.454
 1389POPC   PO420388   8.080   4.541   9.608
 1389POPC   GL120389   8.033   4.389   9.179
 1389POPC   GL220390   8.168   4.046   9.102
 1389POPC   C1A20391   8.194   4.476   8.763
 1389POPC   D2A20392   7.966   4.478   8.404
 1389POPC   C3A20393   8.128   4.530   8.011
 1389POPC   C4A20394   7.907   4.457   7.663
 1389POPC   C1B20395   8.252   3.982   8.645
 1389POPC   C2B20396   8.319   4.106   8.237
 1389POPC   C3B20397   8.293   4.064   7.799
 1389POPC   C4B20398   8.323   4.283   7.413
 1390POPC   NC320399  10.901  41.331   9.480
 1390POPC   PO420400  11.359  41.810   9.438
 1390POPC   GL120401  11.275  41.478   9.172
 1390POPC   GL220402  10.910  41.535   9.021
 1390POPC   C1A20403  11.368  41.358   8.799
 1390POPC   D2A20404  11.258  41.525   8.405
 1390POPC   C3A20405  11.414  41.374   8.007
 1390POPC   C4A20406  11.518  41.719   7.810
 1390POPC   C1B20407  11.012  41.859   8.733
 1390POPC   C2B20408  10.869  41.904   8.305
 1390POPC   C3B20409  10.973  41.612   7.982
 1390POPC   C4B20410  11.073  41.631   7.551
 1391POPC   NC320411   4.508  19.560   9.670
 1391POPC   PO420412   4.050  20.039   9.434
 1391POPC   GL120413   4.100  19.908   9.023
 1391POPC   GL220414   4.435  19.802   8.943
 1391POPC   C1A20415   4.076  19.978   8.588
 1391POPC   D2A20416   4.366  20.144   8.329
 1391POPC   C3A20417   4.325  20.015   7.918
 1391POPC   C4A20418   4.041  19.789   7.679
 1391POPC   C1B20419   4.648  19.439   8.756
 1391POPC   C2B20420   4.890  19.387   8.366
 1391POPC   C3B20421   4.730  19.366   7.951
 1391POPC   C4B20422   4.507  19.624   7.633
 1392POPC   NC320423  39.418  16.492   9.572
 1392POPC   PO420424  38.763  16.665   9.680
 1392POPC   GL120425  38.985  16.484   9.311
 1392POPC   GL220426  39.210  16.756   9.178
 1392POPC   C1A20427  38.960  16.524   8.823
 1392POPC   D2A20428  38.977  16.728   8.389
 1392POPC   C3A20429  39.187  16.606   7.983
 1392POPC   C4A20430  39.125  16.513   7.518
 1392POPC   C1B20431  39.474  16.629   8.825
 1392POPC   C2B20432  39.501  16.768   8.400
 1392POPC   C3B20433  39.716  16.780   8.046
 1392POPC   C4B20434  39.653  16.399   7.829
 1393POPC   NC320435  44.697  10.770   9.453
 1393POPC   PO420436  44.519  10.080   9.504
 1393POPC   GL120437  44.808  10.348   9.180
 1393POPC   GL220438  44.708  10.218   8.891
 1393POPC   C1A20439  44.848  10.692   8.810
 1393POPC   D2A20440  44.641  10.802   8.389
 1393POPC   C3A20441  44.935  10.763   8.033
 1393POPC   C4A20442  44.885  10.895   7.599
 1393POPC   C1B20443  44.403  10.406   8.629
 1393POPC   C2B20444  44.296  10.425   8.200
 1393POPC   C3B20445  44.506  10.553   7.876
 1393POPC   C4B20446  44.801  10.279   7.837
 1394POPC   NC320447  42.429  38.282   9.437
 1394POPC   PO420448  42.954  38.658   9.507
 1394POPC   GL120449  42.622  38.591   9.089
 1394POPC   GL220450  42.199  38.574   9.048
 1394POPC   C1A20451  42.421  38.316   8.714
 1394POPC   D2A20452  42.067  38.514   8.452
 1394POPC   C3A20453  42.203  38.542   8.007
 1394POPC   C4A20454  42.352  38.286   7.664
 1394POPC   C1B20455  41.898  38.225   8.885
 1394POPC   C2B20456  41.688  38.101   8.476
 1394POPC   C3B20457  41.760  38.269   8.072
 1394POPC   C4B20458  41.906  38.064   7.690
 1395POPC   NC320459  26.437  25.913   9.327
 1395POPC   PO420460  26.944  26.296   9.465
 1395POPC   GL120461  26.872  26.140   9.103
 1395POPC   GL220462  26.560  26.306   9.039
 1395POPC   C1A20463  27.062  25.954   8.754
 1395POPC   D2A20464  26.842  26.115   8.390
 1395POPC   C3A20465  26.865  25.975   7.974
 1395POPC   C4A20466  26.574  25.757   7.684
 1395POPC   C1B20467  26.524  26.511   8.683
 1395POPC   C2B20468  26.752  26.608   8.324
 1395POPC   C3B20469  26.551  26.374   8.019
 1395POPC   C4B20470  26.409  26.348   7.610
 1396POPC   NC320471  27.752   4.983   9.798
 1396POPC   PO420472  27.369   5.456   9.476
 1396POPC   GL120473  27.651   5.122   9.322
 1396POPC   GL220474  27.409   4.877   9.381
 1396POPC   C1A20475  27.864   5.082   8.897
 1396POPC   D2A20476  27.621   5.082   8.479
 1396POPC   C3A20477  27.791   4.967   8.047
 1396POPC   C4A20478  27.818   4.942   7.593
 1396POPC   C1B20479  27.383   4.903   8.934
 1396POPC   C2B20480  27.261   4.699   8.572
 1396POPC   C3B20481  27.338   4.775   8.153
 1396POPC   C4B20482  27.345   4.699   7.734
 1397POPC   NC320483  36.085  20.307   9.509
 1397POPC   PO420484  36.107  20.939   9.345
 1397POPC   GL120485  36.104  20.706   9.021
 1397POPC   GL220486  36.311  20.420   9.077
 1397POPC   C1A20487  35.861  20.729   8.657
 1397POPC   D2A20488  35.874  20.586   8.213
 1397POPC   C3A20489  36.023  20.850   7.866
 1397POPC   C4A20490  36.366  20.791   7.560
 1397POPC   C1B20491  36.252  20.406   8.643
 1397POPC   C2B20492  36.494  20.434   8.293
 1397POPC   C3B20493  36.467  20.417   7.884
 1397POPC   C4B20494  36.096  20.377   7.686
 1398POPC   NC320495  43.787  37.402   9.636
 1398POPC   PO420496  43.912  36.685   9.590
 1398POPC   GL120497  43.876  36.892   9.192
 1398POPC   GL220498  43.567  36.899   9.021
 1398POPC   C1A20499  44.097  36.939   8.782
 1398POPC   D2A20500  44.394  37.048   8.436
 1398POPC   C3A20501  44.222  36.932   8.061
 1398POPC   C4A20502  44.108  37.045   7.687
 1398POPC   C1B20503  43.536  37.132   8.630
 1398POPC   C2B20504  43.499  37.164   8.157
 1398POPC   C3B20505  43.627  36.889   7.800
 1398POPC   C4B20506  43.447  36.678   7.421
 1399POPC   NC320507  12.556   9.463   9.900
 1399POPC   PO420508  12.840   9.977   9.570
 1399POPC   GL120509  12.936   9.843   9.174
 1399POPC   GL220510  12.689  10.083   9.076
 1399POPC   C1A20511  12.886   9.478   8.869
 1399POPC   D2A20512  12.641   9.447   8.477
 1399POPC   C3A20513  12.853   9.623   8.107
 1399POPC   C4A20514  13.249   9.576   7.872
 1399POPC   C1B20515  12.743   9.934   8.664
 1399POPC   C2B20516  12.483   9.931   8.316
 1399POPC   C3B20517  12.590  10.049   7.942
 1399POPC   C4B20518  13.007  10.064   7.872
 1400POPC   NC320519  27.352  43.614   9.595
 1400POPC   PO420520  27.805  43.994   9.490
 1400POPC   GL120521  27.623  43.720   9.156
 1400POPC   GL220522  27.258  43.745   9.104
 1400POPC   C1A20523  27.601  43.495   8.739
 1400POPC   D2A20524  27.674  43.715   8.354
 1400POPC   C3A20525  27.741  43.559   7.959
 1400POPC   C4A20526  27.752  43.824   7.610
 1400POPC   C1B20527  27.436  43.973   8.739
 1400POPC   C2B20528  27.285  44.128   8.340
 1400POPC   C3B20529  27.417  43.982   7.947
 1400POPC   C4B20530  27.277  43.614   7.689
 1401POPC   NC320531  25.959   7.797   9.564
 1401POPC   PO420532  26.534   7.509   9.457
 1401POPC   GL120533  26.131   7.333   9.273
 1401POPC   GL220534  25.861   7.584   9.133
 1401POPC   C1A20535  26.009   7.162   8.874
 1401POPC   D2A20536  25.857   7.005   8.460
 1401POPC   C3A20537  25.977   7.263   8.091
 1401POPC   C4A20538  25.923   7.269   7.639
 1401POPC   C1B20539  26.168   7.685   8.889
 1401POPC   C2B20540  26.078   7.587   8.497
 1401POPC   C3B20541  26.124   7.841   8.161
 1401POPC   C4B20542  25.985   7.753   7.770
 1402POPC   NC320543  28.972  25.399   9.514
 1402POPC   PO420544  29.545  24.999   9.728
 1402POPC   GL120545  29.396  25.165   9.295
 1402POPC   GL220546  29.566  25.480   9.223
 1402POPC   C1A20547  29.071  25.168   8.911
 1402POPC   D2A20548  28.868  25.277   8.498
 1402POPC   C3A20549  29.085  25.183   8.084
 1402POPC   C4A20550  29.250  25.016   7.687
 1402POPC   C1B20551  29.368  25.584   8.831
 1402POPC   C2B20552  29.384  25.404   8.454
 1402POPC   C3B20553  29.462  25.525   8.060
 1402POPC   C4B20554  29.257  25.541   7.666
 1403POPC   NC320555  39.452  28.641   9.445
 1403POPC   PO420556  38.937  28.165   9.275
 1403POPC   GL120557  39.310  28.293   9.104
 1403POPC   GL220558  39.465  28.005   9.136
 1403POPC   C1A20559  39.426  28.566   8.753
 1403POPC   D2A20560  39.200  28.540   8.358
 1403POPC   C3A20561  39.480  28.483   7.980
 1403POPC   C4A20562  39.307  28.515   7.551
 1403POPC   C1B20563  39.660  28.126   8.772
 1403POPC   C2B20564  39.458  28.108   8.390
 1403POPC   C3B20565  39.179  28.104   8.039
 1403POPC   C4B20566  39.425  28.039   7.644
 1404POPC   NC320567   4.046  17.741   9.413
 1404POPC   PO420568   4.097  17.075   9.287
 1404POPC   GL120569   4.341  17.376   9.115
 1404POPC   GL220570   4.508  17.702   9.167
 1404POPC   C1A20571   4.357  17.475   8.716
 1404POPC   D2A20572   4.148  17.576   8.370
 1404POPC   C3A20573   4.410  17.493   8.029
 1404POPC   C4A20574   4.475  17.238   7.712
 1404POPC   C1B20575   4.716  17.824   8.779
 1404POPC   C2B20576   4.567  17.858   8.383
 1404POPC   C3B20577   4.729  17.943   7.982
 1404POPC   C4B20578   4.577  17.826   7.605
 1405POPC   NC320579   1.100  29.603   9.517
 1405POPC   PO420580   1.386  29.010   9.691
 1405POPC   GL120581   1.155  29.079   9.229
 1405POPC   GL220582   0.895  29.336   9.125
 1405POPC   C1A20583   1.225  29.175   8.770
 1405POPC   D2A20584   1.080  29.122   8.361
 1405POPC   C3A20585   1.289  29.047   7.963
 1405POPC   C4A20586   1.199  29.265   7.568
 1405POPC   C1B20587   0.810  28.895   8.905
 1405POPC   C2B20588   0.785  28.710   8.471
 1405POPC   C3B20589   0.872  28.750   7.999
 1405POPC   C4B20590   1.126  28.703   7.589
 1406POPC   NC320591  20.956  27.799   9.756
 1406POPC   PO420592  21.453  27.385   9.582
 1406POPC   GL120593  21.285  27.476   9.205
 1406POPC   GL220594  20.963  27.698   9.242
 1406POPC   C1A20595  21.560  27.418   8.838
 1406POPC   D2A20596  21.586  27.257   8.419
 1406POPC   C3A20597  21.607  27.517   8.079
 1406POPC   C4A20598  21.389  27.455   7.736
 1406POPC   C1B20599  21.234  27.863   8.880
 1406POPC   C2B20600  21.419  27.785   8.483
 1406POPC   C3B20601  21.144  27.697   8.138
 1406POPC   C4B20602  21.058  27.832   7.747
 1407POPC   NC320603  19.775  42.563   9.430
 1407POPC   PO420604  19.754  43.179   9.514
 1407POPC   GL120605  19.968  43.155   9.115
 1407POPC   GL220606  20.220  43.385   9.056
 1407POPC   C1A20607  19.857  43.012   8.704
 1407POPC   D2A20608  19.995  42.743   8.359
 1407POPC   C3A20609  19.817  42.779   7.919
 1407POPC   C4A20610  19.683  42.831   7.455
 1407POPC   C1B20611  20.184  43.409   8.645
 1407POPC   C2B20612  19.935  43.282   8.273
 1407POPC   C3B20613  19.949  43.263   7.839
 1407POPC   C4B20614  20.134  43.584   7.638
 1408POPC   NC320615  35.556  13.908   9.547
 1408POPC   PO420616  35.181  13.393   9.500
 1408POPC   GL120617  35.384  13.566   9.130
 1408POPC   GL220618  35.480  13.917   9.060
 1408POPC   C1A20619  35.189  13.637   8.735
 1408POPC   D2A20620  35.274  13.755   8.345
 1408POPC   C3A20621  35.266  13.481   8.014
 1408POPC   C4A20622  35.273  13.705   7.685
 1408POPC   C1B20623  35.755  14.118   8.771
 1408POPC   C2B20624  35.872  13.994   8.351
 1408POPC   C3B20625  35.623  13.951   7.998
 1408POPC   C4B20626  35.682  13.983   7.557
 1409POPC   NC320627   1.784  12.630   9.448
 1409POPC   PO420628   2.196  13.182   9.453
 1409POPC   GL120629   1.992  12.964   9.125
 1409POPC   GL220630   2.128  12.638   9.078
 1409POPC   C1A20631   1.831  12.918   8.709
 1409POPC   D2A20632   1.917  13.257   8.407
 1409POPC   C3A20633   2.207  13.166   8.079
 1409POPC   C4A20634   1.969  13.073   7.729
 1409POPC   C1B20635   2.367  12.748   8.772
 1409POPC   C2B20636   2.224  12.739   8.378
 1409POPC   C3B20637   2.062  12.646   8.004
 1409POPC   C4B20638   2.262  12.666   7.621
 1410POPC   NC320639  10.359  24.932   9.608
 1410POPC   PO420640  10.741  25.414   9.516
 1410POPC   GL120641  10.406  25.340   9.228
 1410POPC   GL220642  10.343  24.989   9.090
 1410POPC   C1A20643  10.353  25.490   8.809
 1410POPC   D2A20644  10.681  25.410   8.493
 1410POPC   C3A20645  10.532  25.349   8.076
 1410POPC   C4A20646  10.427  25.569   7.725
 1410POPC   C1B20647  10.383  25.008   8.635
 1410POPC   C2B20648  10.541  24.876   8.245
 1410POPC   C3B20649  10.529  24.799   7.825
 1410POPC   C4B20650  10.288  25.112   7.606
 1411POPC   NC320651  43.427  17.622   9.693
 1411POPC   PO420652  43.000  17.236   9.679
 1411POPC   GL120653  43.233  17.360   9.291
 1411POPC   GL220654  42.900  17.428   9.145
 1411POPC   C1A20655  43.409  17.610   8.970
 1411POPC   D2A20656  43.487  17.648   8.546
 1411POPC   C3A20657  43.229  17.798   8.221
 1411POPC   C4A20658  43.273  17.709   7.796
 1411POPC   C1B20659  43.068  17.284   8.766
 1411POPC   C2B20660  43.102  17.323   8.339
 1411POPC   C3B20661  43.327  17.212   7.977
 1411POPC   C4B20662  43.255  17.259   7.545
 1412POPC   NC320663  13.181  12.702   9.449
 1412POPC   PO420664  12.548  12.934   9.577
 1412POPC   GL120665  12.726  12.938   9.184
 1412POPC   GL220666  12.517  13.206   9.063
 1412POPC   C1A20667  12.818  12.630   8.858
 1412POPC   D2A20668  12.596  12.536   8.465
 1412POPC   C3A20669  12.796  12.523   8.036
 1412POPC   C4A20670  13.006  12.673   7.618
 1412POPC   C1B20671  12.664  13.061   8.630
 1412POPC   C2B20672  13.045  12.826   8.445
 1412POPC   C3B20673  13.164  12.864   8.060
 1412POPC   C4B20674  12.864  13.118   7.904
 1413POPC   NC320675  37.203  19.162   9.396
 1413POPC   PO420676  37.746  18.793   9.561
 1413POPC   GL120677  37.515  18.787   9.216
 1413POPC   GL220678  37.330  18.481   9.201
 1413POPC   C1A20679  37.616  19.021   8.836
 1413POPC   D2A20680  37.861  19.088   8.456
 1413POPC   C3A20681  37.668  19.124   8.062
 1413POPC   C4A20682  37.933  19.152   7.724
 1413POPC   C1B20683  37.245  18.669   8.808
 1413POPC   C2B20684  37.381  18.843   8.421
 1413POPC   C3B20685  37.316  18.739   8.008
 1413POPC   C4B20686  37.582  18.783   7.653
 1414POPC   NC320687   8.569   8.980   9.628
 1414POPC   PO420688   7.941   9.177   9.561
 1414POPC   GL120689   8.188   9.223   9.192
 1414POPC   GL220690   8.546   9.354   9.190
 1414POPC   C1A20691   8.147   8.975   8.809
 1414POPC   D2A20692   8.294   8.918   8.384
 1414POPC   C3A20693   7.980   8.766   8.105
 1414POPC   C4A20694   7.995   8.777   7.650
 1414POPC   C1B20695   8.346   9.450   8.759
 1414POPC   C2B20696   8.320   9.427   8.299
 1414POPC   C3B20697   8.234   9.232   7.892
 1414POPC   C4B20698   8.455   9.401   7.513
 1415POPC   NC320699  22.465  42.113   9.690
 1415POPC   PO420700  23.033  42.388   9.543
 1415POPC   GL120701  23.007  42.273   9.157
 1415POPC   GL220702  23.328  42.310   9.066
 1415POPC   C1A20703  22.688  42.280   8.861
 1415POPC   D2A20704  22.578  42.381   8.435
 1415POPC   C3A20705  22.828  42.252   8.078
 1415POPC   C4A20706  22.736  42.432   7.682
 1415POPC   C1B20707  23.138  42.308   8.635
 1415POPC   C2B20708  22.997  42.656   8.350
 1415POPC   C3B20709  23.133  42.654   7.904
 1415POPC   C4B20710  23.169  42.585   7.453
 1416POPC   NC320711  20.953  36.282   9.541
 1416POPC   PO420712  20.308  35.976   9.535
 1416POPC   GL120713  20.608  36.093   9.174
 1416POPC   GL220714  20.772  36.453   9.106
 1416POPC   C1A20715  20.766  35.922   8.787
 1416POPC   D2A20716  20.593  35.780   8.405
 1416POPC   C3A20717  20.417  36.128   8.116
 1416POPC   C4A20718  20.610  36.370   7.773
 1416POPC   C1B20719  20.999  36.373   8.733
 1416POPC   C2B20720  20.899  36.183   8.337
 1416POPC   C3B20721  20.851  35.918   7.978
 1416POPC   C4B20722  21.038  36.132   7.709
 1417POPC   NC320723  16.805  19.464   9.385
 1417POPC   PO420724  16.492  19.980   9.619
 1417POPC   GL120725  16.666  19.982   9.193
 1417POPC   GL220726  17.025  20.055   9.170
 1417POPC   C1A20727  16.644  19.773   8.786
 1417POPC   D2A20728  16.789  19.564   8.434
 1417POPC   C3A20729  16.673  19.714   8.056
 1417POPC   C4A20730  16.910  19.625   7.669
 1417POPC   C1B20731  16.943  20.195   8.753
 1417POPC   C2B20732  16.717  20.255   8.378
 1417POPC   C3B20733  16.910  20.167   7.931
 1417POPC   C4B20734  16.994  20.116   7.485
 1418POPC   NC320735  35.722   5.060   9.411
 1418POPC   PO420736  36.367   5.077   9.542
 1418POPC   GL120737  36.124   5.032   9.097
 1418POPC   GL220738  35.784   4.877   8.959
 1418POPC   C1A20739  36.060   5.152   8.624
 1418POPC   D2A20740  36.216   5.124   8.192
 1418POPC   C3A20741  36.002   5.270   7.828
 1418POPC   C4A20742  36.152   5.580   7.496
 1418POPC   C1B20743  35.848   4.688   8.576
 1418POPC   C2B20744  36.176   4.626   8.212
 1418POPC   C3B20745  36.231   4.772   7.808
 1418POPC   C4B20746  36.230   4.842   7.370
 1419POPC   NC320747  17.026   9.746   9.526
 1419POPC   PO420748  16.315   9.733   9.418
 1419POPC   GL120749  16.675   9.897   9.168
 1419POPC   GL220750  16.779   9.594   9.110
 1419POPC   C1A20751  16.853  10.038   8.762
 1419POPC   D2A20752  17.039   9.900   8.361
 1419POPC   C3A20753  16.775  10.079   8.020
 1419POPC   C4A20754  16.545  10.014   7.612
 1419POPC   C1B20755  16.967   9.539   8.749
 1419POPC   C2B20756  16.855   9.402   8.360
 1419POPC   C3B20757  16.726   9.557   7.976
 1419POPC   C4B20758  16.752   9.314   7.599
 1420POPC   NC320759   2.734  29.556   9.603
 1420POPC   PO420760   2.368  29.014   9.686
 1420POPC   GL120761   2.527  29.030   9.250
 1420POPC   GL220762   2.845  29.197   9.238
 1420POPC   C1A20763   2.649  28.934   8.819
 1420POPC   D2A20764   2.868  29.137   8.461
 1420POPC   C3A20765   2.757  29.101   8.043
 1420POPC   C4A20766   3.011  28.991   7.680
 1420POPC   C1B20767   3.107  29.288   8.879
 1420POPC   C2B20768   3.043  29.619   8.540
 1420POPC   C3B20769   2.870  29.666   8.108
 1420POPC   C4B20770   2.851  29.471   7.698
 1421POPC   NC320771  19.798  44.819   9.500
 1421POPC   PO420772  19.377  44.227   9.626
 1421POPC   GL120773  19.629  44.345   9.172
 1421POPC   GL220774  19.981  44.467   9.180
 1421POPC   C1A20775  19.545  44.315   8.739
 1421POPC   D2A20776  19.352  44.609   8.425
 1421POPC   C3A20777  19.493  44.701   8.008
 1421POPC   C4A20778  19.823  44.523   7.744
 1421POPC   C1B20779  19.807  44.718   8.821
 1421POPC   C2B20780  19.719  44.963   8.450
 1421POPC   C3B20781  19.923  44.953   8.023
 1421POPC   C4B20782  19.754  44.989   7.571
 1422POPC   NC320783  31.430  24.151   9.491
 1422POPC   PO420784  31.074  24.677   9.651
 1422POPC   GL120785  31.362  24.752   9.226
 1422POPC   GL220786  31.651  24.530   9.179
 1422POPC   C1A20787  31.514  24.855   8.775
 1422POPC   D2A20788  31.441  24.622   8.393
 1422POPC   C3A20789  31.757  24.567   8.080
 1422POPC   C4A20790  31.600  24.554   7.681
 1422POPC   C1B20791  31.373  24.309   8.867
 1422POPC   C2B20792  31.200  24.172   8.471
 1422POPC   C3B20793  31.408  24.180   8.062
 1422POPC   C4B20794  31.317  24.116   7.636
 1423POPC   NC320795  10.199  21.638   9.627
 1423POPC   PO420796  10.843  21.455   9.561
 1423POPC   GL120797  10.477  21.300   9.316
 1423POPC   GL220798  10.695  21.317   9.001
 1423POPC   C1A20799  10.194  21.246   8.912
 1423POPC   D2A20800  10.417  21.314   8.512
 1423POPC   C3A20801  10.303  21.446   8.096
 1423POPC   C4A20802  10.214  21.296   7.701
 1423POPC   C1B20803  10.922  21.314   8.587
 1423POPC   C2B20804  10.976  21.342   8.145
 1423POPC   C3B20805  10.793  21.570   7.798
 1423POPC   C4B20806  10.805  21.916   7.444
 1424POPC   NC320807  37.222  12.602   9.588
 1424POPC   PO420808  36.772  12.025   9.394
 1424POPC   GL120809  36.705  12.289   9.042
 1424POPC   GL220810  37.061  12.300   9.043
 1424POPC   C1A20811  36.817  12.389   8.619
 1424POPC   D2A20812  37.094  12.211   8.355
 1424POPC   C3A20813  36.980  12.190   7.935
 1424POPC   C4A20814  37.307  12.396   7.765
 1424POPC   C1B20815  36.893  11.903   8.752
 1424POPC   C2B20816  36.788  11.728   8.336
 1424POPC   C3B20817  36.995  11.684   7.924
 1424POPC   C4B20818  37.229  11.894   7.544
 1425POPC   NC320819  27.857  17.574   9.652
 1425POPC   PO420820  28.455  17.327   9.553
 1425POPC   GL120821  28.466  17.371   9.135
 1425POPC   GL220822  28.530  17.007   9.128
 1425POPC   C1A20823  28.557  17.673   8.763
 1425POPC   D2A20824  28.753  17.791   8.331
 1425POPC   C3A20825  28.528  17.611   7.984
 1425POPC   C4A20826  28.061  17.622   7.921
 1425POPC   C1B20827  28.232  17.091   8.797
 1425POPC   C2B20828  28.201  17.284   8.360
 1425POPC   C3B20829  28.283  17.172   7.928
 1425POPC   C4B20830  28.533  17.191   7.581
 1426POPC   NC320831   1.641  17.630   9.542
 1426POPC   PO420832   2.144  17.210   9.534
 1426POPC   GL120833   2.253  17.462   9.175
 1426POPC   GL220834   2.031  17.757   9.161
 1426POPC   C1A20835   2.164  17.302   8.780
 1426POPC   D2A20836   1.798  17.236   8.475
 1426POPC   C3A20837   1.807  17.344   8.037
 1426POPC   C4A20838   1.940  17.185   7.649
 1426POPC   C1B20839   1.854  17.702   8.739
 1426POPC   C2B20840   2.117  17.617   8.361
 1426POPC   C3B20841   2.171  17.709   7.929
 1426POPC   C4B20842   2.295  17.544   7.549
 1427POPC   NC320843  43.735   9.081   9.602
 1427POPC   PO420844  44.330   8.711   9.470
 1427POPC   GL120845  44.127   8.743   9.049
 1427POPC   GL220846  43.770   8.830   9.068
 1427POPC   C1A20847  44.056   8.693   8.611
 1427POPC   D2A20848  44.103   8.992   8.264
 1427POPC   C3A20849  43.869   8.802   7.950
 1427POPC   C4A20850  43.611   8.444   8.082
 1427POPC   C1B20851  43.771   9.130   8.681
 1427POPC   C2B20852  43.640   9.218   8.209
 1427POPC   C3B20853  43.555   9.159   7.727
 1427POPC   C4B20854  43.414   9.066   7.292
 1428POPC   NC320855  23.311  14.259   9.473
 1428POPC   PO420856  23.929  14.652   9.446
 1428POPC   GL120857  23.711  14.407   9.195
 1428POPC   GL220858  23.543  14.651   9.024
 1428POPC   C1A20859  23.873  14.223   8.853
 1428POPC   D2A20860  23.813  14.097   8.488
 1428POPC   C3A20861  23.866  14.450   8.240
 1428POPC   C4A20862  24.159  14.487   7.916
 1428POPC   C1B20863  23.372  14.243   8.814
 1428POPC   C2B20864  23.315  14.130   8.392
 1428POPC   C3B20865  23.517  14.097   8.033
 1428POPC   C4B20866  23.640  14.422   7.782
 1429POPC   NC320867  14.688  18.679   9.587
 1429POPC   PO420868  14.199  19.181   9.418
 1429POPC   GL120869  14.269  19.095   9.048
 1429POPC   GL220870  14.509  18.851   9.127
 1429POPC   C1A20871  14.247  19.274   8.628
 1429POPC   D2A20872  14.539  19.219   8.275
 1429POPC   C3A20873  14.464  19.265   7.834
 1429POPC   C4A20874  14.147  19.314   7.571
 1429POPC   C1B20875  14.603  18.913   8.707
 1429POPC   C2B20876  14.501  18.714   8.342
 1429POPC   C3B20877  14.677  18.825   7.968
 1429POPC   C4B20878  14.470  18.795   7.591
 1430POPC   NC320879  13.650  35.679   9.478
 1430POPC   PO420880  13.092  35.366   9.414
 1430POPC   GL120881  13.497  35.321   9.161
 1430POPC   GL220882  13.561  35.620   8.996
 1430POPC   C1A20883  13.808  35.240   8.801
 1430POPC   D2A20884  13.963  35.118   8.387
 1430POPC   C3A20885  13.670  34.907   8.124
 1430POPC   C4A20886  13.599  35.068   7.664
 1430POPC   C1B20887  13.355  35.631   8.640
 1430POPC   C2B20888  13.215  35.342   8.393
 1430POPC   C3B20889  13.501  35.367   8.066
 1430POPC   C4B20890  13.815  35.535   7.792
 1431POPC   NC320891   6.328  41.055   9.427
 1431POPC   PO420892   6.641  40.591   9.799
 1431POPC   GL120893   6.763  40.853   9.285
 1431POPC   GL220894   6.533  40.812   8.973
 1431POPC   C1A20895   6.951  41.015   8.828
 1431POPC   D2A20896   6.754  40.785   8.458
 1431POPC   C3A20897   6.662  41.036   8.086
 1431POPC   C4A20898   6.560  41.085   7.644
 1431POPC   C1B20899   6.249  40.563   8.700
 1431POPC   C2B20900   6.313  40.272   8.387
 1431POPC   C3B20901   6.369  40.539   8.048
 1431POPC   C4B20902   6.679  40.609   7.742
 1432POPC   NC320903  19.989  36.251   9.276
 1432POPC   PO420904  19.607  35.957   9.749
 1432POPC   GL120905  19.958  35.771   9.197
 1432POPC   GL220906  20.277  35.620   9.172
 1432POPC   C1A20907  19.756  35.857   8.689
 1432POPC   D2A20908  19.492  36.200   8.478
 1432POPC   C3A20909  19.388  36.185   8.044
 1432POPC   C4A20910  19.595  36.089   7.672
 1432POPC   C1B20911  20.254  35.863   8.775
 1432POPC   C2B20912  20.085  35.801   8.332
 1432POPC   C3B20913  19.895  36.149   8.108
 1432POPC   C4B20914  20.070  36.319   7.714
 1433POPC   NC320915  29.629  44.304   9.586
 1433POPC   PO420916  30.153  43.706   9.580
 1433POPC   GL120917  29.968  43.876   9.240
 1433POPC   GL220918  30.148  43.646   9.060
 1433POPC   C1A20919  29.868  44.149   8.899
 1433POPC   D2A20920  29.967  44.158   8.443
 1433POPC   C3A20921  29.653  44.130   8.127
 1433POPC   C4A20922  29.637  44.162   7.704
 1433POPC   C1B20923  29.941  43.703   8.686
 1433POPC   C2B20924  29.760  43.657   8.297
 1433POPC   C3B20925  29.940  43.734   7.915
 1433POPC   C4B20926  30.319  43.916   7.732
 1434POPC   NC320927  32.723  21.638   9.294
 1434POPC   PO420928  32.421  21.222   9.744
 1434POPC   GL120929  32.432  21.194   9.247
 1434POPC   GL220930  32.122  21.288   9.096
 1434POPC   C1A20931  32.406  21.037   8.777
 1434POPC   D2A20932  32.174  20.916   8.382
 1434POPC   C3A20933  32.170  21.232   8.041
 1434POPC   C4A20934  32.534  21.198   7.779
 1434POPC   C1B20935  32.287  21.542   8.727
 1434POPC   C2B20936  32.250  21.676   8.280
 1434POPC   C3B20937  31.911  21.742   7.920
 1434POPC   C4B20938  31.840  21.645   7.425
 1435POPC   NC320939  23.452  38.324   9.676
 1435POPC   PO420940  23.746  37.849   9.334
 1435POPC   GL120941  23.688  38.234   9.173
 1435POPC   GL220942  23.400  38.434   9.189
 1435POPC   C1A20943  23.635  38.168   8.738
 1435POPC   D2A20944  23.744  38.402   8.414
 1435POPC   C3A20945  23.703  38.322   7.993
 1435POPC   C4A20946  23.872  38.709   7.775
 1435POPC   C1B20947  23.440  38.625   8.798
 1435POPC   C2B20948  23.480  38.825   8.385
 1435POPC   C3B20949  23.385  38.701   7.931
 1435POPC   C4B20950  23.338  38.737   7.454
 1436POPC   NC320951  35.082  19.702   9.362
 1436POPC   PO420952  35.722  20.005   9.499
 1436POPC   GL120953  35.483  19.960   9.123
 1436POPC   GL220954  35.250  20.204   9.096
 1436POPC   C1A20955  35.525  19.800   8.694
 1436POPC   D2A20956  35.242  19.705   8.360
 1436POPC   C3A20957  35.286  19.926   8.016
 1436POPC   C4A20958  35.326  20.015   7.603
 1436POPC   C1B20959  35.114  20.112   8.690
 1436POPC   C2B20960  35.008  20.247   8.285
 1436POPC   C3B20961  34.903  20.199   7.857
 1436POPC   C4B20962  34.845  20.016   7.440
 1437POPC   NC320963   7.951  33.273   9.491
 1437POPC   PO420964   8.035  32.653   9.601
 1437POPC   GL120965   8.264  32.930   9.258
 1437POPC   GL220966   7.981  32.982   9.051
 1437POPC   C1A20967   8.405  33.226   8.891
 1437POPC   D2A20968   8.728  33.240   8.564
 1437POPC   C3A20969   8.451  33.172   8.246
 1437POPC   C4A20970   8.357  33.208   7.844
 1437POPC   C1B20971   8.148  32.768   8.720
 1437POPC   C2B20972   8.367  32.673   8.347
 1437POPC   C3B20973   8.380  32.687   7.911
 1437POPC   C4B20974   7.983  32.630   7.692
 1438POPC   NC320975  34.641  23.240   9.528
 1438POPC   PO420976  34.511  22.584   9.424
 1438POPC   GL120977  34.672  22.902   9.124
 1438POPC   GL220978  34.415  23.112   9.004
 1438POPC   C1A20979  34.787  23.078   8.688
 1438POPC   D2A20980  34.766  23.358   8.318
 1438POPC   C3A20981  34.734  23.164   7.910
 1438POPC   C4A20982  34.805  22.707   7.902
 1438POPC   C1B20983  34.352  22.805   8.694
 1438POPC   C2B20984  34.498  22.874   8.298
 1438POPC   C3B20985  34.310  22.889   7.906
 1438POPC   C4B20986  34.496  22.936   7.480
 1439POPC   NC320987  19.467  33.280   9.529
 1439POPC   PO420988  20.090  33.490   9.514
 1439POPC   GL120989  19.758  33.737   9.282
 1439POPC   GL220990  19.971  33.680   9.042
 1439POPC   C1A20991  19.666  34.051   8.901
 1439POPC   D2A20992  19.849  34.065   8.466
 1439POPC   C3A20993  19.626  34.044   8.056
 1439POPC   C4A20994  19.564  33.915   7.653
 1439POPC   C1B20995  19.822  33.616   8.661
 1439POPC   C2B20996  19.741  33.544   8.246
 1439POPC   C3B20997  19.713  33.428   7.825
 1439POPC   C4B20998  19.983  33.622   7.553
 1440POPC   NC320999   7.188  43.369   9.424
 1440POPC   PO421000   7.888  43.012   9.454
 1440POPC   GL121001   7.543  43.010   9.191
 1440POPC   GL221002   7.596  43.354   9.137
 1440POPC   C1A21003   7.328  43.096   8.785
 1440POPC   D2A21004   7.365  43.336   8.393
 1440POPC   C3A21005   7.091  43.178   8.096
 1440POPC   C4A21006   7.244  42.944   7.776
 1440POPC   C1B21007   7.758  43.406   8.735
 1440POPC   C2B21008   7.854  43.062   8.466
 1440POPC   C3B21009   7.697  43.025   8.044
 1440POPC   C4B21010   7.568  43.373   7.824
 1441POPC   NC321011  15.517  40.083   9.752
 1441POPC   PO421012  14.832  39.908   9.547
 1441POPC   GL121013  15.146  40.034   9.235
 1441POPC   GL221014  15.381  39.746   9.225
 1441POPC   C1A21015  15.118  40.189   8.803
 1441POPC   D2A21016  15.034  40.387   8.410
 1441POPC   C3A21017  15.196  40.246   8.044
 1441POPC   C4A21018  15.477  40.474   7.771
 1441POPC   C1B21019  15.186  39.648   8.819
 1441POPC   C2B21020  15.150  39.847   8.391
 1441POPC   C3B21021  15.229  39.699   7.947
 1441POPC   C4B21022  15.537  39.718   7.594
 1442POPC   NC321023   1.820  14.490   9.467
 1442POPC   PO421024   2.457  14.713   9.393
 1442POPC   GL121025   2.162  14.534   9.079
 1442POPC   GL221026   2.282  14.200   9.083
 1442POPC   C1A21027   1.872  14.281   8.777
 1442POPC   D2A21028   1.940  14.112   8.344
 1442POPC   C3A21029   1.885  14.440   8.022
 1442POPC   C4A21030   1.948  14.789   7.724
 1442POPC   C1B21031   2.342  14.011   8.670
 1442POPC   C2B21032   2.417  14.040   8.184
 1442POPC   C3B21033   2.147  14.087   7.786
 1442POPC   C4B21034   1.967  14.352   7.449
 1443POPC   NC321035  40.495  14.990   9.451
 1443POPC   PO421036  39.919  15.368   9.419
 1443POPC   GL121037  40.025  15.032   9.153
 1443POPC   GL221038  40.286  15.192   9.014
 1443POPC   C1A21039  39.973  14.908   8.718
 1443POPC   D2A21040  40.240  14.922   8.374
 1443POPC   C3A21041  40.079  15.117   8.044
 1443POPC   C4A21042  39.953  15.043   7.641
 1443POPC   C1B21043  39.916  15.409   8.758
 1443POPC   C2B21044  39.765  15.455   8.329
 1443POPC   C3B21045  39.839  15.532   7.905
 1443POPC   C4B21046  39.707  15.444   7.478
 1444POPC   NC321047  11.442  19.491   9.515
 1444POPC   PO421048  10.907  19.774   9.743
 1444POPC   GL121049  11.143  19.819   9.242
 1444POPC   GL221050  11.023  19.587   8.953
 1444POPC   C1A21051  11.296  19.928   8.750
 1444POPC   D2A21052  11.130  20.060   8.342
 1444POPC   C3A21053  11.410  19.954   7.985
 1444POPC   C4A21054  11.331  19.735   7.605
 1444POPC   C1B21055  11.194  19.375   8.596
 1444POPC   C2B21056  11.194  19.460   8.154
 1444POPC   C3B21057  10.917  19.715   7.913
 1444POPC   C4B21058  10.777  19.520   7.561
 1445POPC   NC321059   5.210  23.304   9.487
 1445POPC   PO421060   4.929  22.686   9.543
 1445POPC   GL121061   5.075  22.897   9.194
 1445POPC   GL221062   4.813  23.115   9.196
 1445POPC   C1A21063   5.323  23.001   8.822
 1445POPC   D2A21064   5.098  23.041   8.420
 1445POPC   C3A21065   5.183  22.903   7.980
 1445POPC   C4A21066   4.867  22.694   7.652
 1445POPC   C1B21067   4.875  23.332   8.843
 1445POPC   C2B21068   4.832  23.500   8.461
 1445POPC   C3B21069   4.770  23.314   8.127
 1445POPC   C4B21070   4.786  23.171   7.780
 1446POPC   NC321071  23.190  32.864   9.487
 1446POPC   PO421072  23.808  33.092   9.532
 1446POPC   GL121073  23.753  33.172   9.118
 1446POPC   GL221074  23.441  33.089   9.098
 1446POPC   C1A21075  23.618  33.370   8.726
 1446POPC   D2A21076  23.780  33.272   8.358
 1446POPC   C3A21077  23.598  33.234   7.979
 1446POPC   C4A21078  23.838  33.059   7.644
 1446POPC   C1B21079  23.584  32.828   8.775
 1446POPC   C2B21080  23.482  32.836   8.344
 1446POPC   C3B21081  23.728  32.687   8.005
 1446POPC   C4B21082  23.606  32.596   7.595
 1447POPC   NC321083  19.103  22.927   9.624
 1447POPC   PO421084  18.532  22.575   9.756
 1447POPC   GL121085  18.737  22.778   9.295
 1447POPC   GL221086  19.107  22.924   9.124
 1447POPC   C1A21087  18.729  22.800   8.820
 1447POPC   D2A21088  18.870  22.699   8.375
 1447POPC   C3A21089  18.870  22.939   7.995
 1447POPC   C4A21090  18.952  22.947   7.540
 1447POPC   C1B21091  19.327  22.734   8.770
 1447POPC   C2B21092  19.367  22.885   8.330
 1447POPC   C3B21093  19.361  22.917   7.878
 1447POPC   C4B21094  19.347  22.621   7.518
 1448POPC   NC321095  36.096  32.424   9.399
 1448POPC   PO421096  35.945  31.733   9.531
 1448POPC   GL121097  35.917  31.995   9.146
 1448POPC   GL221098  36.273  32.106   9.027
 1448POPC   C1A21099  35.871  32.217   8.758
 1448POPC   D2A21100  36.155  32.124   8.450
 1448POPC   C3A21101  35.905  32.200   8.119
 1448POPC   C4A21102  35.905  32.054   7.721
 1448POPC   C1B21103  36.284  32.519   8.767
 1448POPC   C2B21104  36.195  32.623   8.319
 1448POPC   C3B21105  36.171  32.539   7.865
 1448POPC   C4B21106  36.352  32.224   7.586
 1449POPC   NC321107  43.719  42.668   9.860
 1449POPC   PO421108  43.893  43.244   9.550
 1449POPC   GL121109  43.970  43.073   9.152
 1449POPC   GL221110  44.120  42.745   9.182
 1449POPC   C1A21111  43.686  43.134   8.782
 1449POPC   D2A21112  43.537  43.220   8.372
 1449POPC   C3A21113  43.882  43.217   8.109
 1449POPC   C4A21114  43.691  43.233   7.736
 1449POPC   C1B21115  43.897  42.661   8.797
 1449POPC   C2B21116  43.885  42.795   8.384
 1449POPC   C3B21117  43.674  42.761   7.996
 1449POPC   C4B21118  43.874  42.775   7.623
 1450POPC   NC321119   9.381   7.948   9.274
 1450POPC   PO421120   9.956   8.387   9.412
 1450POPC   GL121121   9.797   8.193   9.119
 1450POPC   GL221122   9.929   7.874   9.195
 1450POPC   C1A21123   9.639   8.268   8.745
 1450POPC   D2A21124   9.890   8.173   8.433
 1450POPC   C3A21125   9.662   8.196   8.094
 1450POPC   C4A21126   9.548   8.139   7.693
 1450POPC   C1B21127   9.788   7.772   8.779
 1450POPC   C2B21128   9.417   7.784   8.553
 1450POPC   C3B21129   9.372   7.771   8.122
 1450POPC   C4B21130   9.660   7.674   7.827
 1451POPC   NC321131  17.469  38.941   9.673
 1451POPC   PO421132  17.836  38.435   9.462
 1451POPC   GL121133  17.742  38.796   9.218
 1451POPC   GL221134  17.389  38.779   9.187
 1451POPC   C1A21135  17.807  38.723   8.782
 1451POPC   D2A21136  17.888  38.379   8.462
 1451POPC   C3A21137  17.650  38.326   8.079
 1451POPC   C4A21138  17.832  38.521   7.743
 1451POPC   C1B21139  17.221  38.776   8.781
 1451POPC   C2B21140  17.413  38.688   8.393
 1451POPC   C3B21141  17.541  38.829   8.005
 1451POPC   C4B21142  17.431  38.772   7.565
 1452POPC   NC321143  43.501   9.501   9.913
 1452POPC   PO421144  44.134   9.420   9.761
 1452POPC   GL121145  43.908   9.519   9.392
 1452POPC   GL221146  44.045   9.233   9.232
 1452POPC   C1A21147  43.793   9.647   8.962
 1452POPC   D2A21148  43.893   9.645   8.523
 1452POPC   C3A21149  43.567   9.727   8.218
 1452POPC   C4A21150  43.667   9.641   7.803
 1452POPC   C1B21151  44.205   9.351   8.871
 1452POPC   C2B21152  44.346   9.400   8.480
 1452POPC   C3B21153  44.178   9.494   8.107
 1452POPC   C4B21154  44.073   9.249   7.770
 1453POPC   NC321155  37.523   5.576   9.611
 1453POPC   PO421156  38.188   5.649   9.602
 1453POPC   GL121157  37.844   5.432   9.232
 1453POPC   GL221158  37.462   5.348   9.150
 1453POPC   C1A21159  37.920   5.140   8.864
 1453POPC   D2A21160  37.952   5.253   8.433
 1453POPC   C3A21161  37.975   4.983   8.076
 1453POPC   C4A21162  37.690   5.149   7.780
 1453POPC   C1B21163  37.425   5.098   8.747
 1453POPC   C2B21164  37.509   4.942   8.302
 1453POPC   C3B21165  37.361   4.753   7.894
 1453POPC   C4B21166  37.496   4.807   7.453
 1454POPC   NC321167  30.903  13.696   9.508
 1454POPC   PO421168  30.304  13.477   9.679
 1454POPC   GL121169  30.500  13.395   9.254
 1454POPC   GL221170  30.849  13.302   9.192
 1454POPC   C1A21171  30.544  13.498   8.807
 1454POPC   D2A21172  30.790  13.826   8.633
 1454POPC   C3A21173  30.764  13.854   8.160
 1454POPC   C4A21174  30.541  13.759   7.751
 1454POPC   C1B21175  31.061  13.416   8.829
 1454POPC   C2B21176  30.871  13.369   8.416
 1454POPC   C3B21177  30.808  13.359   8.014
 1454POPC   C4B21178  30.745  13.332   7.591
 1455POPC   NC321179   7.841  15.184   9.512
 1455POPC   PO421180   8.422  15.621   9.464
 1455POPC   GL121181   8.236  15.328   9.125
 1455POPC   GL221182   8.056  15.003   9.099
 1455POPC   C1A21183   8.332  15.147   8.706
 1455POPC   D2A21184   8.251  15.209   8.272
 1455POPC   C3A21185   8.405  14.919   7.955
 1455POPC   C4A21186   8.475  14.936   7.517
 1455POPC   C1B21187   7.895  14.724   8.763
 1455POPC   C2B21188   7.695  14.715   8.354
 1455POPC   C3B21189   7.931  14.615   7.979
 1455POPC   C4B21190   7.991  14.797   7.603
 1456POPC   NC321191   4.876  18.863   9.560
 1456POPC   PO421192   5.326  19.405   9.512
 1456POPC   GL121193   5.117  19.111   9.205
 1456POPC   GL221194   4.728  19.192   9.198
 1456POPC   C1A21195   5.097  19.126   8.762
 1456POPC   D2A21196   5.446  19.191   8.481
 1456POPC   C3A21197   5.399  19.010   8.095
 1456POPC   C4A21198   5.163  19.142   7.758
 1456POPC   C1B21199   4.699  18.823   8.919
 1456POPC   C2B21200   4.829  18.682   8.519
 1456POPC   C3B21201   4.907  18.891   8.156
 1456POPC   C4B21202   4.724  18.897   7.756
 1457POPC   NC321203  14.709  30.333   9.781
 1457POPC   PO421204  14.375  30.881   9.430
 1457POPC   GL121205  14.153  30.603   9.137
 1457POPC   GL221206  14.388  30.791   8.921
 1457POPC   C1A21207  14.266  30.325   8.748
 1457POPC   D2A21208  14.440  30.264   8.324
 1457POPC   C3A21209  14.201  30.425   7.969
 1457POPC   C4A21210  14.241  30.611   7.569
 1457POPC   C1B21211  14.774  30.966   8.834
 1457POPC   C2B21212  14.882  30.821   8.456
 1457POPC   C3B21213  14.635  30.743   8.108
 1457POPC   C4B21214  14.602  30.939   7.726
 1458POPC   NC321215  43.417  39.480   9.534
 1458POPC   PO421216  43.590  40.155   9.647
 1458POPC   GL121217  43.264  40.000   9.283
 1458POPC   GL221218  43.160  40.310   9.149
 1458POPC   C1A21219  43.190  39.819   8.802
 1458POPC   D2A21220  43.289  39.759   8.297
 1458POPC   C3A21221  43.035  39.893   7.870
 1458POPC   C4A21222  42.694  39.799   7.563
 1458POPC   C1B21223  43.102  40.309   8.713
 1458POPC   C2B21224  42.995  40.215   8.289
 1458POPC   C3B21225  42.994  40.432   7.890
 1458POPC   C4B21226  42.850  40.298   7.476
 1459POPC   NC321227  13.311   9.976   9.548
 1459POPC   PO421228  14.012   9.913   9.541
 1459POPC   GL121229  13.740   9.771   9.192
 1459POPC   GL221230  13.404   9.587   9.219
 1459POPC   C1A21231  13.758   9.547   8.790
 1459POPC   D2A21232  13.546   9.516   8.380
 1459POPC   C3A21233  13.811   9.548   8.016
 1459POPC   C4A21234  13.774   9.627   7.577
 1459POPC   C1B21235  13.304   9.794   8.817
 1459POPC   C2B21236  13.211   9.915   8.382
 1459POPC   C3B21237  13.487  10.003   8.022
 1459POPC   C4B21238  13.442  10.060   7.560
 1460POPC   NC321239   3.595  29.393   9.353
 1460POPC   PO421240   3.815  28.756   9.439
 1460POPC   GL121241   3.550  28.875   9.077
 1460POPC   GL221242   3.621  29.211   8.899
 1460POPC   C1A21243   3.428  28.851   8.625
 1460POPC   D2A21244   3.381  29.242   8.444
 1460POPC   C3A21245   3.269  29.163   8.080
 1460POPC   C4A21246   3.507  29.002   7.749
 1460POPC   C1B21247   3.987  29.437   8.775
 1460POPC   C2B21248   4.171  29.487   8.391
 1460POPC   C3B21249   3.948  29.479   7.985
 1460POPC   C4B21250   3.946  29.809   7.688
 1461POPC   NC321251  14.225  39.509   9.599
 1461POPC   PO421252  14.688  39.043   9.577
 1461POPC   GL121253  14.474  39.177   9.173
 1461POPC   GL221254  14.426  39.543   9.128
 1461POPC   C1A21255  14.340  39.268   8.710
 1461POPC   D2A21256  14.369  39.355   8.247
 1461POPC   C3A21257  14.087  39.187   7.958
 1461POPC   C4A21258  14.048  38.881   7.640
 1461POPC   C1B21259  14.253  39.782   8.746
 1461POPC   C2B21260  14.031  39.752   8.343
 1461POPC   C3B21261  14.085  39.693   7.888
 1461POPC   C4B21262  14.456  39.670   7.592
 1462POPC   NC321263  23.165   4.592   9.935
 1462POPC   PO421264  22.850   5.104   9.554
 1462POPC   GL121265  22.956   5.170   9.126
 1462POPC   GL221266  22.705   5.395   8.986
 1462POPC   C1A21267  22.899   4.950   8.722
 1462POPC   D2A21268  22.961   5.096   8.275
 1462POPC   C3A21269  22.933   4.866   7.922
 1462POPC   C4A21270  22.953   5.067   7.563
 1462POPC   C1B21271  23.056   5.424   8.631
 1462POPC   C2B21272  23.340   5.445   8.255
 1462POPC   C3B21273  23.173   5.459   7.801
 1462POPC   C4B21274  23.022   5.491   7.302
 1463POPC   NC321275  25.963   2.437   9.629
 1463POPC   PO421276  26.176   3.009   9.624
 1463POPC   GL121277  25.827   2.841   9.341
 1463POPC   GL221278  26.113   2.707   9.202
 1463POPC   C1A21279  25.767   2.898   8.865
 1463POPC   D2A21280  26.021   2.944   8.468
 1463POPC   C3A21281  25.871   2.854   8.048
 1463POPC   C4A21282  26.056   2.499   7.828
 1463POPC   C1B21283  26.252   2.614   8.801
 1463POPC   C2B21284  26.517   2.723   8.492
 1463POPC   C3B21285  26.382   2.823   8.096
 1463POPC   C4B21286  26.494   3.033   7.747
 1464POPC   NC321287  22.696  30.077   9.509
 1464POPC   PO421288  22.962  29.476   9.458
 1464POPC   GL121289  22.738  29.705   9.116
 1464POPC   GL221290  22.707  30.064   9.011
 1464POPC   C1A21291  22.964  29.757   8.725
 1464POPC   D2A21292  23.228  29.813   8.386
 1464POPC   C3A21293  22.962  29.985   8.067
 1464POPC   C4A21294  22.783  29.897   7.654
 1464POPC   C1B21295  23.026  30.259   8.730
 1464POPC   C2B21296  23.352  30.313   8.396
 1464POPC   C3B21297  23.549  30.117   8.038
 1464POPC   C4B21298  23.310  30.075   7.716
 1465POPC   NC321299   4.234  23.750   9.566
 1465POPC   PO421300   4.038  23.137   9.500
 1465POPC   GL121301   4.330  23.436   9.185
 1465POPC   GL221302   4.303  23.837   9.084
 1465POPC   C1A21303   4.371  23.494   8.742
 1465POPC   D2A21304   4.152  23.292   8.474
 1465POPC   C3A21305   4.278  23.510   8.126
 1465POPC   C4A21306   4.536  23.610   7.792
 1465POPC   C1B21307   4.022  23.937   8.734
 1465POPC   C2B21308   4.060  23.976   8.269
 1465POPC   C3B21309   4.156  23.922   7.820
 1465POPC   C4B21310   4.044  23.990   7.347
 1466POPC   NC321311  41.021  36.013   9.516
 1466POPC   PO421312  40.570  36.468   9.550
 1466POPC   GL121313  40.607  36.440   9.141
 1466POPC   GL221314  40.709  36.105   9.120
 1466POPC   C1A21315  40.909  36.440   8.797
 1466POPC   D2A21316  40.946  36.153   8.462
 1466POPC   C3A21317  40.978  36.385   8.094
 1466POPC   C4A21318  41.220  36.352   7.735
 1466POPC   C1B21319  40.499  36.067   8.741
 1466POPC   C2B21320  40.499  35.884   8.347
 1466POPC   C3B21321  40.825  35.837   8.042
 1466POPC   C4B21322  40.778  36.104   7.705
 1467POPC   NC321323  24.260   8.626   9.300
 1467POPC   PO421324  24.745   8.717   9.800
 1467POPC   GL121325  24.789   8.825   9.333
 1467POPC   GL221326  24.616   9.141   9.320
 1467POPC   C1A21327  24.734   8.683   8.872
 1467POPC   D2A21328  24.428   8.782   8.518
 1467POPC   C3A21329  24.653   8.748   8.135
 1467POPC   C4A21330  24.539   8.691   7.729
 1467POPC   C1B21331  24.467   9.162   8.903
 1467POPC   C2B21332  24.463   9.303   8.485
 1467POPC   C3B21333  24.301   9.134   8.114
 1467POPC   C4B21334  24.453   9.181   7.704
 1468POPC   NC321335  33.307  38.426   9.563
 1468POPC   PO421336  33.922  38.760   9.672
 1468POPC   GL121337  33.767  38.493   9.278
 1468POPC   GL221338  33.953  38.714   9.130
 1468POPC   C1A21339  33.779  38.400   8.763
 1468POPC   D2A21340  33.594  38.329   8.301
 1468POPC   C3A21341  33.863  38.191   7.944
 1468POPC   C4A21342  34.099  38.035   7.614
 1468POPC   C1B21343  33.721  38.911   8.813
 1468POPC   C2B21344  33.779  38.809   8.421
 1468POPC   C3B21345  33.882  38.678   8.039
 1468POPC   C4B21346  33.513  38.541   7.790
 1469POPC   NC321347  34.089  17.889   9.335
 1469POPC   PO421348  33.739  18.403   9.646
 1469POPC   GL121349  33.739  18.553   9.236
 1469POPC   GL221350  33.946  18.323   9.129
 1469POPC   C1A21351  33.606  18.516   8.805
 1469POPC   D2A21352  33.853  18.441   8.443
 1469POPC   C3A21353  33.742  18.272   8.061
 1469POPC   C4A21354  33.453  18.534   7.870
 1469POPC   C1B21355  33.890  18.048   8.750
 1469POPC   C2B21356  34.131  18.035   8.361
 1469POPC   C3B21357  34.191  17.933   7.931
 1469POPC   C4B21358  34.179  18.256   7.617
 1470POPC   NC321359  24.922  22.460   9.423
 1470POPC   PO421360  25.592  22.315   9.479
 1470POPC   GL121361  25.401  22.235   9.130
 1470POPC   GL221362  25.112  22.074   9.133
 1470POPC   C1A21363  25.378  22.374   8.733
 1470POPC   D2A21364  25.558  22.360   8.331
 1470POPC   C3A21365  25.297  22.350   7.986
 1470POPC   C4A21366  25.158  22.203   7.588
 1470POPC   C1B21367  24.962  21.929   8.790
 1470POPC   C2B21368  25.138  22.057   8.406
 1470POPC   C3B21369  25.141  21.872   8.032
 1470POPC   C4B21370  25.033  21.685   7.665
 1471POPC   NC321371  21.548  35.562   9.619
 1471POPC   PO421372  20.927  35.210   9.705
 1471POPC   GL121373  21.164  35.073   9.303
 1471POPC   GL221374  21.272  35.403   9.194
 1471POPC   C1A21375  21.371  34.968   8.873
 1471POPC   D2A21376  21.297  35.218   8.478
 1471POPC   C3A21377  21.266  35.082   8.055
 1471POPC   C4A21378  21.332  35.212   7.618
 1471POPC   C1B21379  21.152  35.586   8.798
 1471POPC   C2B21380  21.095  35.689   8.379
 1471POPC   C3B21381  21.244  35.599   7.956
 1471POPC   C4B21382  21.105  35.677   7.524
 1472POPC   NC321383  17.254  39.489   9.712
 1472POPC   PO421384  17.884  39.169   9.635
 1472POPC   GL121385  17.599  39.301   9.270
 1472POPC   GL221386  17.396  39.618   9.243
 1472POPC   C1A21387  17.506  39.219   8.830
 1472POPC   D2A21388  17.744  39.109   8.472
 1472POPC   C3A21389  17.689  39.300   8.124
 1472POPC   C4A21390  17.512  39.257   7.717
 1472POPC   C1B21391  17.255  39.682   8.810
 1472POPC   C2B21392  17.294  39.478   8.412
 1472POPC   C3B21393  17.169  39.148   8.147
 1472POPC   C4B21394  16.994  39.184   7.725
 1473POPC   NC321395  31.061   6.144   9.332
 1473POPC   PO421396  31.326   5.571   9.605
 1473POPC   GL121397  31.393   5.747   9.221
 1473POPC   GL221398  31.159   5.509   9.067
 1473POPC   C1A21399  31.635   5.703   8.844
 1473POPC   D2A21400  31.729   5.853   8.434
 1473POPC   C3A21401  31.674   5.546   8.093
 1473POPC   C4A21402  31.825   5.677   7.679
 1473POPC   C1B21403  31.112   5.815   8.716
 1473POPC   C2B21404  31.263   5.812   8.289
 1473POPC   C3B21405  31.465   5.957   7.898
 1473POPC   C4B21406  31.312   5.769   7.512
 1474POPC   NC321407  15.072  29.701   9.666
 1474POPC   PO421408  14.984  30.256   9.405
 1474POPC   GL121409  15.091  29.950   9.160
 1474POPC   GL221410  14.918  29.623   9.175
 1474POPC   C1A21411  15.252  30.015   8.779
 1474POPC   D2A21412  15.068  29.906   8.409
 1474POPC   C3A21413  15.257  29.902   8.009
 1474POPC   C4A21414  15.054  30.021   7.643
 1474POPC   C1B21415  14.994  29.501   8.730
 1474POPC   C2B21416  15.135  29.405   8.290
 1474POPC   C3B21417  14.927  29.466   7.899
 1474POPC   C4B21418  14.988  29.543   7.482
 1475POPC   NC321419   4.944   1.051   9.568
 1475POPC   PO421420   5.473   1.472   9.435
 1475POPC   GL121421   5.237   1.179   9.122
 1475POPC   GL221422   4.901   1.280   9.123
 1475POPC   C1A21423   5.086   1.221   8.650
 1475POPC   D2A21424   4.961   0.878   8.345
 1475POPC   C3A21425   5.066   0.901   7.907
 1475POPC   C4A21426   5.194   1.298   7.819
 1475POPC   C1B21427   4.678   1.537   8.832
 1475POPC   C2B21428   4.886   1.674   8.456
 1475POPC   C3B21429   4.784   1.547   8.037
 1475POPC   C4B21430   4.740   1.425   7.610
 1476POPC   NC321431  11.350  16.217   9.611
 1476POPC   PO421432  10.994  15.673   9.479
 1476POPC   GL121433  11.285  15.838   9.166
 1476POPC   GL221434  11.464  16.125   9.141
 1476POPC   C1A21435  11.206  15.916   8.760
 1476POPC   D2A21436  10.864  15.872   8.520
 1476POPC   C3A21437  10.992  15.771   8.114
 1476POPC   C4A21438  11.155  15.944   7.751
 1476POPC   C1B21439  11.686  16.140   8.783
 1476POPC   C2B21440  11.508  16.178   8.387
 1476POPC   C3B21441  11.602  15.968   8.031
 1476POPC   C4B21442  11.588  16.177   7.694
 1477POPC   NC321443  34.510   4.639   9.528
 1477POPC   PO421444  34.390   3.945   9.531
 1477POPC   GL121445  34.359   4.244   9.199
 1477POPC   GL221446  34.697   4.334   9.139
 1477POPC   C1A21447  34.188   4.353   8.800
 1477POPC   D2A21448  34.437   4.339   8.427
 1477POPC   C3A21449  34.447   4.641   8.143
 1477POPC   C4A21450  34.412   4.483   7.736
 1477POPC   C1B21451  34.639   4.627   8.795
 1477POPC   C2B21452  34.898   4.602   8.427
 1477POPC   C3B21453  34.874   4.305   8.110
 1477POPC   C4B21454  34.907   4.407   7.693
 1478POPC   NC321455  26.485  36.837   9.633
 1478POPC   PO421456  27.094  37.111   9.441
 1478POPC   GL121457  26.792  36.843   9.200
 1478POPC   GL221458  26.417  36.963   9.137
 1478POPC   C1A21459  26.850  36.628   8.799
 1478POPC   D2A21460  27.125  36.749   8.447
 1478POPC   C3A21461  27.025  36.813   8.013
 1478POPC   C4A21462  26.852  36.654   7.637
 1478POPC   C1B21463  26.652  37.091   8.773
 1478POPC   C2B21464  26.697  36.995   8.362
 1478POPC   C3B21465  26.744  37.253   8.004
 1478POPC   C4B21466  26.914  37.166   7.621
 1479POPC   NC321467   7.249   1.684   9.415
 1479POPC   PO421468   7.621   2.254   9.487
 1479POPC   GL121469   7.583   2.004   9.152
 1479POPC   GL221470   7.259   2.119   9.089
 1479POPC   C1A21471   7.560   1.803   8.760
 1479POPC   D2A21472   7.718   1.672   8.361
 1479POPC   C3A21473   7.378   1.827   8.162
 1479POPC   C4A21474   7.256   1.996   7.798
 1479POPC   C1B21475   7.220   2.219   8.641
 1479POPC   C2B21476   7.115   2.328   8.205
 1479POPC   C3B21477   7.255   2.520   7.839
 1479POPC   C4B21478   7.630   2.327   7.701
 1480POPC   NC321479   8.791   2.419   9.371
 1480POPC   PO421480   9.238   1.960   9.594
 1480POPC   GL121481   9.111   2.025   9.184
 1480POPC   GL221482   8.741   1.957   9.147
 1480POPC   C1A21483   9.073   1.904   8.750
 1480POPC   D2A21484   8.818   1.958   8.381
 1480POPC   C3A21485   9.039   2.047   8.059
 1480POPC   C4A21486   8.964   2.213   7.689
 1480POPC   C1B21487   8.571   2.174   8.783
 1480POPC   C2B21488   8.384   2.236   8.389
 1480POPC   C3B21489   8.514   2.138   7.944
 1480POPC   C4B21490   8.559   1.947   7.487
 1481POPC   NC321491  27.891  16.203   9.662
 1481POPC   PO421492  27.367  15.767   9.734
 1481POPC   GL121493  27.397  15.830   9.287
 1481POPC   GL221494  27.553  16.122   9.297
 1481POPC   C1A21495  27.679  15.772   8.935
 1481POPC   D2A21496  27.607  15.975   8.533
 1481POPC   C3A21497  27.758  15.765   8.158
 1481POPC   C4A21498  27.709  15.889   7.739
 1481POPC   C1B21499  27.821  16.268   8.949
 1481POPC   C2B21500  27.967  16.344   8.521
 1481POPC   C3B21501  27.780  16.274   8.130
 1481POPC   C4B21502  27.794  16.469   7.747
 1482POPC   NC321503  10.069  17.759   9.553
 1482POPC   PO421504   9.412  17.718   9.695
 1482POPC   GL121505   9.734  17.480   9.297
 1482POPC   GL221506   9.574  17.205   9.133
 1482POPC   C1A21507   9.862  17.638   8.857
 1482POPC   D2A21508   9.834  17.902   8.486
 1482POPC   C3A21509  10.044  17.680   8.164
 1482POPC   C4A21510   9.908  17.640   7.740
 1482POPC   C1B21511   9.449  17.362   8.758
 1482POPC   C2B21512   9.651  17.436   8.414
 1482POPC   C3B21513   9.559  17.411   8.011
 1482POPC   C4B21514   9.604  17.218   7.595
 1483POPC   NC321515   2.325  40.609   9.413
 1483POPC   PO421516   3.013  40.655   9.545
 1483POPC   GL121517   2.779  40.544   9.189
 1483POPC   GL221518   2.611  40.869   9.106
 1483POPC   C1A21519   2.602  40.498   8.779
 1483POPC   D2A21520   2.537  40.739   8.412
 1483POPC   C3A21521   2.569  40.436   8.115
 1483POPC   C4A21522   2.663  40.562   7.729
 1483POPC   C1B21523   2.970  40.885   8.833
 1483POPC   C2B21524   3.139  41.055   8.461
 1483POPC   C3B21525   3.122  41.242   8.029
 1483POPC   C4B21526   3.053  41.071   7.641
 1484POPC   NC321527  41.980  43.264   9.500
 1484POPC   PO421528  41.400  42.883   9.503
 1484POPC   GL121529  41.669  42.979   9.199
 1484POPC   GL221530  41.697  42.650   9.148
 1484POPC   C1A21531  41.671  43.219   8.808
 1484POPC   D2A21532  41.454  43.185   8.413
 1484POPC   C3A21533  41.666  43.228   8.043
 1484POPC   C4A21534  41.537  43.497   7.736
 1484POPC   C1B21535  41.803  42.728   8.763
 1484POPC   C2B21536  41.874  42.871   8.370
 1484POPC   C3B21537  41.677  42.718   7.999
 1484POPC   C4B21538  41.609  42.794   7.567
 1485POPC   NC321539  18.079  16.760   9.578
 1485POPC   PO421540  18.751  17.007   9.461
 1485POPC   GL121541  18.428  16.780   9.207
 1485POPC   GL221542  18.622  16.835   8.923
 1485POPC   C1A21543  18.170  16.584   8.863
 1485POPC   D2A21544  18.321  16.765   8.493
 1485POPC   C3A21545  18.314  16.673   8.098
 1485POPC   C4A21546  18.260  16.683   7.695
 1485POPC   C1B21547  18.616  17.183   8.618
 1485POPC   C2B21548  18.637  17.172   8.172
 1485POPC   C3B21549  18.628  17.043   7.706
 1485POPC   C4B21550  18.569  16.954   7.215
 1486POPC   NC321551  40.985  33.674   9.560
 1486POPC   PO421552  40.393  34.119   9.531
 1486POPC   GL121553  40.435  33.905   9.154
 1486POPC   GL221554  40.789  33.801   9.091
 1486POPC   C1A21555  40.396  33.606   8.820
 1486POPC   D2A21556  40.621  33.442   8.503
 1486POPC   C3A21557  40.477  33.652   8.138
 1486POPC   C4A21558  40.668  33.645   7.744
 1486POPC   C1B21559  41.052  33.608   8.793
 1486POPC   C2B21560  41.158  33.647   8.347
 1486POPC   C3B21561  41.170  33.624   7.892
 1486POPC   C4B21562  41.054  33.691   7.444
 1487POPC   NC321563  35.079   4.866   9.690
 1487POPC   PO421564  35.377   5.358   9.488
 1487POPC   GL121565  35.298   5.111   9.141
 1487POPC   GL221566  35.325   4.750   9.232
 1487POPC   C1A21567  35.483   5.202   8.734
 1487POPC   D2A21568  35.615   5.301   8.319
 1487POPC   C3A21569  35.329   5.146   7.998
 1487POPC   C4A21570  35.438   5.288   7.599
 1487POPC   C1B21571  35.356   4.646   8.802
 1487POPC   C2B21572  35.382   4.831   8.407
 1487POPC   C3B21573  35.737   4.866   8.112
 1487POPC   C4B21574  35.709   4.868   7.696
 1488POPC   NC321575  23.910  13.281   9.447
 1488POPC   PO421576  23.613  13.907   9.523
 1488POPC   GL121577  23.591  13.835   9.104
 1488POPC   GL221578  23.657  13.471   9.054
 1488POPC   C1A21579  23.501  13.746   8.676
 1488POPC   D2A21580  23.675  13.644   8.282
 1488POPC   C3A21581  23.467  13.603   7.901
 1488POPC   C4A21582  23.695  13.864   7.617
 1488POPC   C1B21583  23.981  13.526   8.695
 1488POPC   C2B21584  24.051  13.302   8.278
 1488POPC   C3B21585  23.960  13.473   7.854
 1488POPC   C4B21586  23.990  13.240   7.445
 1489POPC   NC321587   5.168  28.229   9.613
 1489POPC   PO421588   5.557  28.764   9.802
 1489POPC   GL121589   5.345  28.768   9.257
 1489POPC   GL221590   5.076  28.537   9.224
 1489POPC   C1A21591   5.245  28.605   8.774
 1489POPC   D2A21592   5.171  28.418   8.346
 1489POPC   C3A21593   5.024  28.553   7.944
 1489POPC   C4A21594   5.161  28.537   7.492
 1489POPC   C1B21595   5.032  28.139   8.936
 1489POPC   C2B21596   4.878  28.027   8.512
 1489POPC   C3B21597   4.921  28.048   8.059
 1489POPC   C4B21598   4.831  28.162   7.607
 1490POPC   NC321599  13.769  40.136   9.382
 1490POPC   PO421600  13.176  39.889   9.534
 1490POPC   GL121601  13.395  39.748   9.163
 1490POPC   GL221602  13.381  40.074   9.045
 1490POPC   C1A21603  13.296  39.725   8.702
 1490POPC   D2A21604  13.418  40.049   8.411
 1490POPC   C3A21605  13.610  39.907   8.092
 1490POPC   C4A21606  13.355  39.946   7.753
 1490POPC   C1B21607  13.770  39.950   8.767
 1490POPC   C2B21608  14.025  40.246   8.487
 1490POPC   C3B21609  13.972  40.386   8.040
 1490POPC   C4B21610  13.798  40.158   7.704
 1491POPC   NC321611  27.750  38.276   9.451
 1491POPC   PO421612  27.388  38.846   9.410
 1491POPC   GL121613  27.458  38.508   9.091
 1491POPC   GL221614  27.213  38.238   9.063
 1491POPC   C1A21615  27.580  38.306   8.677
 1491POPC   D2A21616  27.567  38.271   8.212
 1491POPC   C3A21617  27.821  38.472   7.902
 1491POPC   C4A21618  27.915  38.795   7.569
 1491POPC   C1B21619  27.119  38.536   8.703
 1491POPC   C2B21620  27.125  38.549   8.247
 1491POPC   C3B21621  27.330  38.597   7.838
 1491POPC   C4B21622  27.558  38.428   7.460
 1492POPC   NC321623  37.015  32.812   9.469
 1492POPC   PO421624  36.554  33.223   9.677
 1492POPC   GL121625  36.620  33.102   9.254
 1492POPC   GL221626  36.680  32.761   9.074
 1492POPC   C1A21627  36.822  33.239   8.897
 1492POPC   D2A21628  36.804  33.095   8.479
 1492POPC   C3A21629  36.695  33.389   8.149
 1492POPC   C4A21630  36.966  33.225   7.820
 1492POPC   C1B21631  37.072  32.788   8.811
 1492POPC   C2B21632  37.195  32.741   8.370
 1492POPC   C3B21633  36.993  32.711   7.962
 1492POPC   C4B21634  37.047  32.837   7.491
 1493POPC   NC321635  22.900  42.821   9.456
 1493POPC   PO421636  22.638  43.278   9.826
 1493POPC   GL121637  22.676  43.253   9.326
 1493POPC   GL221638  23.027  43.314   9.162
 1493POPC   C1A21639  22.698  43.090   8.867
 1493POPC   D2A21640  22.907  43.282   8.500
 1493POPC   C3A21641  22.954  43.111   8.094
 1493POPC   C4A21642  22.737  42.966   7.709
 1493POPC   C1B21643  23.201  43.010   8.822
 1493POPC   C2B21644  23.375  42.989   8.416
 1493POPC   C3B21645  23.498  42.978   8.021
 1493POPC   C4B21646  23.243  43.107   7.672
 1494POPC   NC321647  14.211  42.759   9.473
 1494POPC   PO421648  14.433  43.425   9.565
 1494POPC   GL121649  14.377  43.158   9.189
 1494POPC   GL221650  14.650  42.898   9.208
 1494POPC   C1A21651  14.382  42.980   8.771
 1494POPC   D2A21652  14.149  42.793   8.469
 1494POPC   C3A21653  14.246  43.012   8.111
 1494POPC   C4A21654  13.994  43.091   7.754
 1494POPC   C1B21655  14.889  42.941   8.825
 1494POPC   C2B21656  14.871  43.208   8.483
 1494POPC   C3B21657  14.772  43.092   8.064
 1494POPC   C4B21658  14.518  43.045   7.691
 1495POPC   NC321659  37.227   4.949   9.500
 1495POPC   PO421660  36.914   4.356   9.475
 1495POPC   GL121661  36.820   4.188   9.105
 1495POPC   GL221662  36.632   4.432   8.979
 1495POPC   C1A21663  36.981   4.175   8.692
 1495POPC   D2A21664  36.685   4.291   8.388
 1495POPC   C3A21665  36.812   4.071   8.037
 1495POPC   C4A21666  37.092   4.158   7.717
 1495POPC   C1B21667  36.963   4.688   8.763
 1495POPC   C2B21668  37.088   4.608   8.322
 1495POPC   C3B21669  36.829   4.576   7.957
 1495POPC   C4B21670  36.709   4.741   7.584
 1496POPC   NC321671  43.682  28.104   9.448
 1496POPC   PO421672  43.804  28.827   9.566
 1496POPC   GL121673  43.914  28.525   9.216
 1496POPC   GL221674  44.092  28.189   9.187
 1496POPC   C1A21675  44.105  28.546   8.810
 1496POPC   D2A21676  44.022  28.333   8.454
 1496POPC   C3A21677  44.033  28.555   8.118
 1496POPC   C4A21678  43.965  28.440   7.708
 1496POPC   C1B21679  43.828  27.992   8.829
 1496POPC   C2B21680  43.589  28.076   8.463
 1496POPC   C3B21681  43.770  28.087   8.062
 1496POPC   C4B21682  43.828  27.915   7.664
 1497POPC   NC321683  17.310  22.529   9.344
 1497POPC   PO421684  17.343  21.968   9.744
 1497POPC   GL121685  17.572  22.071   9.311
 1497POPC   GL221686  17.957  22.106   9.241
 1497POPC   C1A21687  17.590  22.036   8.843
 1497POPC   D2A21688  17.262  22.104   8.551
 1497POPC   C3A21689  17.231  22.020   8.103
 1497POPC   C4A21690  17.154  22.364   7.827
 1497POPC   C1B21691  17.962  22.379   8.842
 1497POPC   C2B21692  17.708  22.396   8.447
 1497POPC   C3B21693  17.825  22.282   8.019
 1497POPC   C4B21694  18.022  22.547   7.728
 1498POPC   NC321695  30.453  29.212   9.435
 1498POPC   PO421696  31.146  29.309   9.352
 1498POPC   GL121697  30.851  29.091   9.147
 1498POPC   GL221698  31.073  28.914   8.996
 1498POPC   C1A21699  30.617  28.986   8.752
 1498POPC   D2A21700  30.634  29.198   8.333
 1498POPC   C3A21701  30.313  29.306   8.038
 1498POPC   C4A21702  30.294  28.960   7.772
 1498POPC   C1B21703  31.143  28.759   8.600
 1498POPC   C2B21704  31.066  28.766   8.192
 1498POPC   C3B21705  30.783  28.820   7.871
 1498POPC   C4B21706  31.059  28.798   7.533
 1499POPC   NC321707   9.960  13.188   9.569
 1499POPC   PO421708   9.961  12.525   9.672
 1499POPC   GL121709   9.805  12.647   9.255
 1499POPC   GL221710   9.689  12.971   9.144
 1499POPC   C1A21711   9.754  12.541   8.815
 1499POPC   D2A21712   9.652  12.707   8.398
 1499POPC   C3A21713   9.853  12.660   7.996
 1499POPC   C4A21714   9.681  12.735   7.597
 1499POPC   C1B21715   9.672  13.257   8.752
 1499POPC   C2B21716   9.885  13.179   8.360
 1499POPC   C3B21717   9.944  13.187   7.943
 1499POPC   C4B21718   9.739  13.257   7.590
 1500POPC   NC321719   0.187  43.676   9.340
 1500POPC   PO421720   0.688  44.135   9.575
 1500POPC   GL121721   0.582  43.945   9.178
 1500POPC   GL221722   0.652  43.584   9.118
 1500POPC   C1A21723   0.380  43.858   8.759
 1500POPC   D2A21724   0.251  43.709   8.381
 1500POPC   C3A21725   0.224  44.002   8.069
 1500POPC   C4A21726   0.106  43.979   7.661
 1500POPC   C1B21727   0.870  43.427   8.751
 1500POPC   C2B21728   0.783  43.436   8.306
 1500POPC   C3B21729   0.529  43.586   7.982
 1500POPC   C4B21730   0.621  43.984   7.778
 1501POPC   NC321731  33.492   5.810   9.448
 1501POPC   PO421732  34.017   6.143   9.800
 1501POPC   GL121733  33.993   6.004   9.338
 1501POPC   GL221734  33.970   5.658   9.262
 1501POPC   C1A21735  33.875   5.999   8.854
 1501POPC   D2A21736  33.622   5.847   8.447
 1501POPC   C3A21737  33.591   6.085   8.004
 1501POPC   C4A21738  33.565   6.492   7.758
 1501POPC   C1B21739  33.711   5.517   8.875
 1501POPC   C2B21740  33.884   5.294   8.515
 1501POPC   C3B21741  33.766   5.418   8.107
 1501POPC   C4B21742  33.948   5.434   7.701
 1502POPC   NC321743  22.036  17.779   9.570
 1502POPC   PO421744  22.107  18.416   9.604
 1502POPC   GL121745  22.189  18.476   9.181
 1502POPC   GL221746  22.142  18.101   9.165
 1502POPC   C1A21747  22.411  18.463   8.812
 1502POPC   D2A21748  22.409  18.658   8.412
 1502POPC   C3A21749  22.416  18.402   8.031
 1502POPC   C4A21750  22.153  18.397   7.633
 1502POPC   C1B21751  21.962  18.191   8.796
 1502POPC   C2B21752  21.973  18.386   8.428
 1502POPC   C3B21753  21.941  18.203   8.042
 1502POPC   C4B21754  22.269  17.917   7.802
 1503POPC   NC321755  23.272  21.024   9.477
 1503POPC   PO421756  22.616  20.998   9.473
 1503POPC   GL121757  22.930  21.199   9.130
 1503POPC   GL221758  22.906  21.576   9.065
 1503POPC   C1A21759  23.096  21.241   8.708
 1503POPC   D2A21760  22.918  21.299   8.337
 1503POPC   C3A21761  22.943  21.616   8.029
 1503POPC   C4A21762  23.001  21.315   7.749
 1503POPC   C1B21763  23.277  21.670   8.859
 1503POPC   C2B21764  23.212  21.727   8.458
 1503POPC   C3B21765  23.402  21.497   8.158
 1503POPC   C4B21766  23.513  21.531   7.730
 1504POPC   NC321767   3.783  22.796   9.792
 1504POPC   PO421768   3.251  22.751   9.297
 1504POPC   GL121769   3.572  22.636   9.095
 1504POPC   GL221770   3.855  22.698   9.265
 1504POPC   C1A21771   3.567  22.637   8.676
 1504POPC   D2A21772   3.266  22.720   8.363
 1504POPC   C3A21773   3.431  22.832   7.972
 1504POPC   C4A21774   3.459  23.231   7.737
 1504POPC   C1B21775   3.907  22.972   8.878
 1504POPC   C2B21776   3.657  23.107   8.516
 1504POPC   C3B21777   3.828  23.099   8.133
 1504POPC   C4B21778   3.920  23.058   7.727
 1505POPC   NC321779   1.592   5.343   9.660
 1505POPC   PO421780   2.235   5.057   9.644
 1505POPC   GL121781   2.269   4.929   9.226
 1505POPC   GL221782   1.959   5.021   9.053
 1505POPC   C1A21783   2.406   5.027   8.809
 1505POPC   D2A21784   2.148   5.069   8.435
 1505POPC   C3A21785   1.876   4.796   8.252
 1505POPC   C4A21786   2.012   4.863   7.840
 1505POPC   C1B21787   2.070   5.406   8.805
 1505POPC   C2B21788   2.101   5.607   8.422
 1505POPC   C3B21789   2.094   5.382   8.026
 1505POPC   C4B21790   1.822   5.381   7.687
 1506POPC   NC321791   7.958   1.882   9.506
 1506POPC   PO421792   8.341   2.368   9.426
 1506POPC   GL121793   8.193   2.035   9.087
 1506POPC   GL221794   7.986   1.685   9.060
 1506POPC   C1A21795   7.997   2.059   8.687
 1506POPC   D2A21796   7.701   2.183   8.363
 1506POPC   C3A21797   7.988   2.210   8.045
 1506POPC   C4A21798   8.092   2.145   7.631
 1506POPC   C1B21799   8.105   1.554   8.676
 1506POPC   C2B21800   8.254   1.757   8.315
 1506POPC   C3B21801   8.211   1.717   7.887
 1506POPC   C4B21802   7.761   1.778   7.789
 1507POPC   NC321803  39.964  34.097   9.363
 1507POPC   PO421804  39.697  33.477   9.222
 1507POPC   GL121805  39.931  33.765   8.981
 1507POPC   GL221806  39.803  34.126   8.895
 1507POPC   C1A21807  39.987  33.770   8.545
 1507POPC   D2A21808  39.732  33.580   8.246
 1507POPC   C3A21809  39.959  33.695   7.911
 1507POPC   C4A21810  40.278  33.931   7.739
 1507POPC   C1B21811  40.242  34.166   8.750
 1507POPC   C2B21812  40.342  34.363   8.357
 1507POPC   C3B21813  40.004  34.221   8.071
 1507POPC   C4B21814  39.830  34.142   7.667
 1508POPC   NC321815  13.574  11.124   9.770
 1508POPC   PO421816  13.169  11.588   9.422
 1508POPC   GL121817  13.493  11.682   9.092
 1508POPC   GL221818  13.851  11.435   9.082
 1508POPC   C1A21819  13.527  11.500   8.685
 1508POPC   D2A21820  13.574  11.195   8.382
 1508POPC   C3A21821  13.730  11.418   8.034
 1508POPC   C4A21822  13.694  11.191   7.687
 1508POPC   C1B21823  14.033  11.084   8.819
 1508POPC   C2B21824  13.989  10.892   8.452
 1508POPC   C3B21825  14.027  10.970   8.025
 1508POPC   C4B21826  14.216  11.109   7.653
 1509POPC   NC321827  44.842  39.772   9.432
 1509POPC   PO421828  44.286  40.137   9.521
 1509POPC   GL121829  44.366  40.298   9.094
 1509POPC   GL221830  44.729  40.330   9.073
 1509POPC   C1A21831  44.503  40.216   8.631
 1509POPC   D2A21832  44.586  39.833   8.364
 1509POPC   C3A21833  44.379  40.000   8.001
 1509POPC   C4A21834  44.513  40.325   7.818
 1509POPC   C1B21835  44.931  40.043   8.806
 1509POPC   C2B21836   0.026  40.099   8.378
 1509POPC   C3B21837  44.937  39.989   7.952
 1509POPC   C4B21838  44.684  39.631   7.867
 1510POPC   NC321839  10.356  34.171   9.482
 1510POPC   PO421840  10.062  34.836   9.593
 1510POPC   GL121841  10.415  34.698   9.279
 1510POPC   GL221842  10.470  34.421   9.072
 1510POPC   C1A21843  10.426  34.836   8.808
 1510POPC   D2A21844  10.550  34.674   8.358
 1510POPC   C3A21845  10.360  34.673   7.954
 1510POPC   C4A21846  10.599  34.813   7.629
 1510POPC   C1B21847  10.721  34.361   8.719
 1510POPC   C2B21848  10.703  34.022   8.433
 1510POPC   C3B21849  10.569  34.186   8.094
 1510POPC   C4B21850  10.754  34.349   7.742
 1511POPC   NC321851  30.134  18.153   9.490
 1511POPC   PO421852  29.500  18.485   9.439
 1511POPC   GL121853  29.760  18.294   9.156
 1511POPC   GL221854  30.036  18.585   9.146
 1511POPC   C1A21855  29.713  18.044   8.758
 1511POPC   D2A21856  30.072  18.055   8.461
 1511POPC   C3A21857  30.094  18.054   8.009
 1511POPC   C4A21858  29.744  17.996   7.719
 1511POPC   C1B21859  29.923  18.510   8.716
 1511POPC   C2B21860  29.589  18.431   8.398
 1511POPC   C3B21861  29.710  18.436   7.968
 1511POPC   C4B21862  30.114  18.540   7.839
 1512POPC   NC321863  34.331  38.922   9.425
 1512POPC   PO421864  34.762  39.437   9.280
 1512POPC   GL121865  34.510  39.163   8.998
 1512POPC   GL221866  34.492  38.781   8.983
 1512POPC   C1A21867  34.550  39.322   8.601
 1512POPC   D2A21868  34.758  39.582   8.306
 1512POPC   C3A21869  34.658  39.390   7.926
 1512POPC   C4A21870  34.216  39.400   7.804
 1512POPC   C1B21871  34.212  38.831   8.705
 1512POPC   C2B21872  34.233  39.030   8.338
 1512POPC   C3B21873  34.327  38.931   7.960
 1512POPC   C4B21874  34.384  38.583   7.736
 1513POPC   NC321875  38.424  41.726   9.725
 1513POPC   PO421876  38.645  41.495   9.175
 1513POPC   GL121877  38.542  41.857   9.019
 1513POPC   GL221878  38.235  41.857   9.226
 1513POPC   C1A21879  38.570  41.925   8.597
 1513POPC   D2A21880  38.481  41.534   8.454
 1513POPC   C3A21881  38.305  41.564   8.085
 1513POPC   C4A21882  38.452  41.490   7.690
 1513POPC   C1B21883  38.139  42.055   8.831
 1513POPC   C2B21884  38.049  41.894   8.438
 1513POPC   C3B21885  37.890  41.893   8.043
 1513POPC   C4B21886  38.138  41.878   7.685
 1514POPC   NC321887  14.672  17.469  10.132
 1514POPC   PO421888  14.390  17.447   9.466
 1514POPC   GL121889  14.325  17.594   9.113
 1514POPC   GL221890  14.208  17.908   9.175
 1514POPC   C1A21891  14.482  17.443   8.734
 1514POPC   D2A21892  14.498  17.329   8.305
 1514POPC   C3A21893  14.296  17.353   7.923
 1514POPC   C4A21894  14.657  17.453   7.713
 1514POPC   C1B21895  14.402  17.945   8.766
 1514POPC   C2B21896  14.291  17.798   8.379
 1514POPC   C3B21897  14.481  17.827   8.012
 1514POPC   C4B21898  14.401  17.979   7.611
 1515POPC   NC321899  24.111   7.130   9.360
 1515POPC   PO421900  23.686   6.679   9.546
 1515POPC   GL121901  23.864   6.632   9.151
 1515POPC   GL221902  23.549   6.582   9.012
 1515POPC   C1A21903  24.133   6.736   8.790
 1515POPC   D2A21904  24.050   6.902   8.379
 1515POPC   C3A21905  23.996   6.623   8.036
 1515POPC   C4A21906  23.792   6.660   7.643
 1515POPC   C1B21907  23.647   6.638   8.623
 1515POPC   C2B21908  23.599   6.350   8.328
 1515POPC   C3B21909  23.478   6.411   7.936
 1515POPC   C4B21910  23.402   6.361   7.467
 1516POPC   NC321911  23.220  21.980   9.459
 1516POPC   PO421912  23.819  21.978   9.654
 1516POPC   GL121913  23.790  22.174   9.240
 1516POPC   GL221914  23.633  21.877   9.160
 1516POPC   C1A21915  23.899  22.438   8.848
 1516POPC   D2A21916  23.645  22.524   8.460
 1516POPC   C3A21917  23.771  22.369   8.053
 1516POPC   C4A21918  24.004  22.406   7.669
 1516POPC   C1B21919  23.538  22.087   8.763
 1516POPC   C2B21920  23.629  21.976   8.347
 1516POPC   C3B21921  23.390  21.990   7.970
 1516POPC   C4B21922  23.522  22.185   7.566
 1517POPC   NC321923  28.756  18.792   9.432
 1517POPC   PO421924  29.262  19.316   9.571
 1517POPC   GL121925  29.284  19.143   9.090
 1517POPC   GL221926  29.180  18.798   9.129
 1517POPC   C1A21927  29.052  19.106   8.677
 1517POPC   D2A21928  28.793  19.330   8.378
 1517POPC   C3A21929  29.013  19.130   8.072
 1517POPC   C4A21930  29.007  19.179   7.639
 1517POPC   C1B21931  29.463  18.786   8.770
 1517POPC   C2B21932  29.444  18.977   8.358
 1517POPC   C3B21933  29.398  18.827   7.951
 1517POPC   C4B21934  29.297  18.768   7.543
 1518POPC   NC321935  38.631   4.490   9.780
 1518POPC   PO421936  38.172   4.306   9.412
 1518POPC   GL121937  38.486   4.531   9.172
 1518POPC   GL221938  38.830   4.499   9.310
 1518POPC   C1A21939  38.343   4.552   8.725
 1518POPC   D2A21940  38.197   4.244   8.380
 1518POPC   C3A21941  38.281   4.330   7.941
 1518POPC   C4A21942  38.445   4.029   7.658
 1518POPC   C1B21943  38.888   4.401   8.855
 1518POPC   C2B21944  38.742   4.455   8.416
 1518POPC   C3B21945  38.771   4.204   8.061
 1518POPC   C4B21946  38.778   4.421   7.686
 1519POPC   NC321947  35.136  42.086   9.525
 1519POPC   PO421948  35.584  42.556   9.593
 1519POPC   GL121949  35.455  42.378   9.210
 1519POPC   GL221950  35.525  42.004   9.190
 1519POPC   C1A21951  35.176  42.389   8.837
 1519POPC   D2A21952  35.015  42.510   8.420
 1519POPC   C3A21953  35.181  42.305   8.068
 1519POPC   C4A21954  35.483  42.588   7.868
 1519POPC   C1B21955  35.627  42.144   8.782
 1519POPC   C2B21956  35.554  42.369   8.414
 1519POPC   C3B21957  35.642  42.130   8.058
 1519POPC   C4B21958  35.631  42.055   7.663
 1520POPC   NC321959  32.532  31.022   9.459
 1520POPC   PO421960  32.125  30.541   9.818
 1520POPC   GL121961  32.176  30.677   9.360
 1520POPC   GL221962  31.882  30.852   9.236
 1520POPC   C1A21963  32.333  30.739   8.902
 1520POPC   D2A21964  32.223  30.623   8.476
 1520POPC   C3A21965  32.297  30.805   8.086
 1520POPC   C4A21966  32.520  30.550   7.803
 1520POPC   C1B21967  31.832  30.777   8.785
 1520POPC   C2B21968  31.923  31.013   8.396
 1520POPC   C3B21969  31.807  30.907   7.981
 1520POPC   C4B21970  32.032  30.696   7.662
 1521POPC   NC321971  28.237   0.715  10.218
 1521POPC   PO421972  28.427   1.002   9.551
 1521POPC   GL121973  28.362   1.109   9.146
 1521POPC   GL221974  28.543   1.408   9.146
 1521POPC   C1A21975  28.560   1.117   8.724
 1521POPC   D2A21976  28.763   0.859   8.388
 1521POPC   C3A21977  28.562   0.907   7.971
 1521POPC   C4A21978  28.505   0.888   7.505
 1521POPC   C1B21979  28.181   1.506   8.878
 1521POPC   C2B21980  28.238   1.446   8.457
 1521POPC   C3B21981  28.256   1.533   8.044
 1521POPC   C4B21982  28.463   1.340   7.711
 1522POPC   NC321983  22.058  43.350   9.582
 1522POPC   PO421984  22.221  42.705   9.784
 1522POPC   GL121985  22.263  42.926   9.367
 1522POPC   GL221986  21.939  42.928   9.262
 1522POPC   C1A21987  22.226  43.245   8.975
 1522POPC   D2A21988  22.349  43.236   8.527
 1522POPC   C3A21989  22.114  43.405   8.180
 1522POPC   C4A21990  22.163  43.155   7.810
 1522POPC   C1B21991  21.766  43.035   8.853
 1522POPC   C2B21992  21.899  43.013   8.450
 1522POPC   C3B21993  21.734  43.071   8.066
 1522POPC   C4B21994  21.762  42.803   7.739
 1523POPC   NC321995   2.227   3.089   9.592
 1523POPC   PO421996   2.842   2.781   9.658
 1523POPC   GL121997   2.917   2.658   9.195
 1523POPC   GL221998   3.174   2.857   9.050
 1523POPC   C1A21999   2.819   2.494   8.750
 1523POPC   D2A22000   2.609   2.474   8.323
 1523POPC   C3A22001   2.689   2.689   7.932
 1523POPC   C4A22002   2.514   2.967   7.609
 1523POPC   C1B22003   3.170   2.860   8.637
 1523POPC   C2B22004   2.912   2.931   8.328
 1523POPC   C3B22005   3.090   3.007   7.941
 1523POPC   C4B22006   2.998   2.818   7.541
 1524POPC   NC322007  39.067  20.541   9.627
 1524POPC   PO422008  39.695  20.639   9.438
 1524POPC   GL122009  39.288  20.563   9.157
 1524POPC   GL222010  38.926  20.429   9.156
 1524POPC   C1A22011  39.127  20.618   8.726
 1524POPC   D2A22012  38.968  20.791   8.345
 1524POPC   C3A22013  39.271  20.785   7.997
 1524POPC   C4A22014  39.354  20.474   7.715
 1524POPC   C1B22015  38.752  20.260   8.736
 1524POPC   C2B22016  38.720  20.313   8.269
 1524POPC   C3B22017  38.923  20.282   7.884
 1524POPC   C4B22018  38.978  20.302   7.437
 1525POPC   NC322019  40.668  27.329   9.523
 1525POPC   PO422020  41.103  27.782   9.575
 1525POPC   GL122021  40.854  27.716   9.221
 1525POPC   GL222022  41.054  27.434   9.156
 1525POPC   C1A22023  40.632  27.797   8.829
 1525POPC   D2A22024  40.446  27.906   8.406
 1525POPC   C3A22025  40.621  27.897   8.033
 1525POPC   C4A22026  40.544  27.742   7.609
 1525POPC   C1B22027  41.095  27.579   8.743
 1525POPC   C2B22028  40.784  27.516   8.406
 1525POPC   C3B22029  40.832  27.440   7.965
 1525POPC   C4B22030  41.214  27.366   7.741
 1526POPC   NC322031  10.012   5.569   9.490
 1526POPC   PO422032   9.500   6.024   9.501
 1526POPC   GL122033   9.708   5.824   9.178
 1526POPC   GL222034   9.455   5.922   8.996
 1526POPC   C1A22035   9.829   5.673   8.761
 1526POPC   D2A22036   9.840   5.891   8.369
 1526POPC   C3A22037   9.817   5.632   8.020
 1526POPC   C4A22038  10.225   5.581   7.839
 1526POPC   C1B22039   9.725   6.200   8.781
 1526POPC   C2B22040   9.587   6.374   8.414
 1526POPC   C3B22041   9.551   6.180   8.027
 1526POPC   C4B22042   9.849   6.054   7.722
 1527POPC   NC322043   3.695  29.812   9.706
 1527POPC   PO422044   3.237  30.180   9.420
 1527POPC   GL122045   3.600  30.192   9.169
 1527POPC   GL222046   3.683  29.858   9.178
 1527POPC   C1A22047   3.723  30.169   8.761
 1527POPC   D2A22048   3.481  30.103   8.399
 1527POPC   C3A22049   3.639  30.099   8.006
 1527POPC   C4A22050   3.472  30.010   7.640
 1527POPC   C1B22051   3.525  29.703   8.780
 1527POPC   C2B22052   3.684  29.648   8.398
 1527POPC   C3B22053   3.385  29.675   8.108
 1527POPC   C4B22054   3.347  29.524   7.741
 1528POPC   NC322055  22.382  38.478   9.929
 1528POPC   PO422056  22.982  38.396   9.677
 1528POPC   GL122057  22.854  38.310   9.260
 1528POPC   GL222058  22.935  38.603   9.094
 1528POPC   C1A22059  22.636  38.170   8.872
 1528POPC   D2A22060  22.746  38.048   8.438
 1528POPC   C3A22061  22.526  38.135   8.040
 1528POPC   C4A22062  22.553  38.343   7.631
 1528POPC   C1B22063  22.992  38.455   8.674
 1528POPC   C2B22064  23.217  38.370   8.328
 1528POPC   C3B22065  22.927  38.447   8.023
 1528POPC   C4B22066  22.914  38.776   7.748
 1529POPC   NC322067  44.975  25.705   9.382
 1529POPC   PO422068  44.712  25.058   9.543
 1529POPC   GL122069  44.807  25.258   9.173
 1529POPC   GL222070  44.609  25.056   8.941
 1529POPC   C1A22071  44.855  25.465   8.789
 1529POPC   D2A22072  44.714  25.291   8.446
 1529POPC   C3A22073  44.788  25.568   8.165
 1529POPC   C4A22074  44.915  25.335   7.816
 1529POPC   C1B22075  44.334  25.415   8.759
 1529POPC   C2B22076  44.218  25.441   8.337
 1529POPC   C3B22077  44.383  25.324   7.955
 1529POPC   C4B22078  44.528  25.652   7.732
 1530POPC   NC322079   5.672   5.481   9.518
 1530POPC   PO422080   5.347   6.217   9.486
 1530POPC   GL122081   5.610   6.150   9.111
 1530POPC   GL222082   5.713   5.810   9.132
 1530POPC   C1A22083   6.019   6.083   8.826
 1530POPC   D2A22084   6.099   5.880   8.401
 1530POPC   C3A22085   5.913   6.089   8.064
 1530POPC   C4A22086   6.059   6.312   7.719
 1530POPC   C1B22087   5.792   5.642   8.735
 1530POPC   C2B22088   5.615   5.681   8.302
 1530POPC   C3B22089   5.840   5.586   7.911
 1530POPC   C4B22090   6.229   5.812   7.754
 1531POPC   NC322091  21.228   6.242   9.616
 1531POPC   PO422092  21.774   5.799   9.414
 1531POPC   GL122093  21.616   5.706   9.072
 1531POPC   GL222094  21.263   5.866   9.128
 1531POPC   C1A22095  21.754   5.713   8.658
 1531POPC   D2A22096  21.435   5.909   8.458
 1531POPC   C3A22097  21.289   5.664   8.143
 1531POPC   C4A22098  21.336   5.667   7.734
 1531POPC   C1B22099  21.106   6.127   8.792
 1531POPC   C2B22100  21.012   6.253   8.342
 1531POPC   C3B22101  20.969   6.016   7.954
 1531POPC   C4B22102  21.166   6.121   7.568
 1532POPC   NC322103  28.582  36.748   9.498
 1532POPC   PO422104  28.271  37.266   9.772
 1532POPC   GL122105  28.327  37.116   9.257
 1532POPC   GL222106  28.577  37.023   9.032
 1532POPC   C1A22107  28.143  36.882   8.827
 1532POPC   D2A22108  28.182  36.648   8.403
 1532POPC   C3A22109  28.250  36.859   7.998
 1532POPC   C4A22110  28.524  37.093   7.722
 1532POPC   C1B22111  28.590  36.675   8.728
 1532POPC   C2B22112  28.699  36.726   8.278
 1532POPC   C3B22113  28.669  36.601   7.837
 1532POPC   C4B22114  28.845  36.771   7.451
 1533POPC   NC322115  31.234   7.844   9.490
 1533POPC   PO422116  31.582   7.245   9.492
 1533POPC   GL122117  31.677   7.351   9.051
 1533POPC   GL222118  31.578   7.658   9.153
 1533POPC   C1A22119  31.539   7.401   8.582
 1533POPC   D2A22120  31.160   7.217   8.350
 1533POPC   C3A22121  31.202   7.291   7.950
 1533POPC   C4A22122  31.592   7.405   7.882
 1533POPC   C1B22123  31.192   7.635   8.878
 1533POPC   C2B22124  31.111   7.717   8.443
 1533POPC   C3B22125  31.286   7.800   8.046
 1533POPC   C4B22126  31.253   7.646   7.586
 1534POPC   NC322127  21.803  27.121   9.703
 1534POPC   PO422128  22.158  26.606   9.609
 1534POPC   GL122129  22.332  26.718   9.222
 1534POPC   GL222130  22.133  27.033   9.244
 1534POPC   C1A22131  22.275  26.763   8.779
 1534POPC   D2A22132  22.119  26.541   8.420
 1534POPC   C3A22133  22.277  26.668   8.031
 1534POPC   C4A22134  21.980  26.767   7.761
 1534POPC   C1B22135  22.086  27.258   8.856
 1534POPC   C2B22136  22.055  27.082   8.435
 1534POPC   C3B22137  22.008  27.217   8.031
 1534POPC   C4B22138  22.259  27.213   7.685
 1535POPC   NC322139   9.840   9.513   9.371
 1535POPC   PO422140   9.683  10.103   9.638
 1535POPC   GL122141   9.538  10.012   9.266
 1535POPC   GL222142   9.910   9.977   9.173
 1535POPC   C1A22143   9.531  10.059   8.841
 1535POPC   D2A22144   9.697   9.748   8.616
 1535POPC   C3A22145   9.633   9.815   8.209
 1535POPC   C4A22146   9.643   9.641   7.824
 1535POPC   C1B22147  10.231   9.835   8.896
 1535POPC   C2B22148  10.256   9.989   8.516
 1535POPC   C3B22149  10.115   9.915   8.138
 1535POPC   C4B22150  10.066   9.880   7.729
 1536POPC   NC322151  32.944   7.838   9.438
 1536POPC   PO422152  32.861   8.508   9.563
 1536POPC   GL122153  33.160   8.305   9.273
 1536POPC   GL222154  32.853   8.223   9.104
 1536POPC   C1A22155  33.267   8.139   8.842
 1536POPC   D2A22156  33.431   8.235   8.455
 1536POPC   C3A22157  33.212   8.230   8.077
 1536POPC   C4A22158  33.524   8.139   7.788
 1536POPC   C1B22159  32.928   8.576   8.886
 1536POPC   C2B22160  33.024   8.588   8.451
 1536POPC   C3B22161  33.164   8.753   8.068
 1536POPC   C4B22162  33.104   8.580   7.689
 1537POPC   NC322163  20.354   2.454   9.719
 1537POPC   PO422164  20.577   3.129   9.733
 1537POPC   GL122165  20.624   3.146   9.271
 1537POPC   GL222166  20.854   2.920   9.068
 1537POPC   C1A22167  20.463   3.141   8.835
 1537POPC   D2A22168  20.765   2.996   8.512
 1537POPC   C3A22169  20.592   2.763   8.164
 1537POPC   C4A22170  20.652   2.926   7.754
 1537POPC   C1B22171  20.813   2.558   8.762
 1537POPC   C2B22172  21.035   2.528   8.379
 1537POPC   C3B22173  21.037   2.628   7.977
 1537POPC   C4B22174  20.743   2.437   7.729
 1538POPC   NC322175  21.649  24.956   9.341
 1538POPC   PO422176  22.088  25.395   9.560
 1538POPC   GL122177  22.130  25.350   9.147
 1538POPC   GL222178  21.796  25.374   9.088
 1538POPC   C1A22179  22.328  25.300   8.759
 1538POPC   D2A22180  22.289  25.146   8.331
 1538POPC   C3A22181  22.532  25.297   7.984
 1538POPC   C4A22182  22.452  25.583   7.637
 1538POPC   C1B22183  21.860  25.039   8.757
 1538POPC   C2B22184  21.699  24.860   8.396
 1538POPC   C3B22185  21.893  24.946   8.035
 1538POPC   C4B22186  21.752  24.948   7.659
 1539POPC   NC322187  38.031  12.626   9.550
 1539POPC   PO422188  37.455  13.022   9.519
 1539POPC   GL122189  37.618  12.704   9.219
 1539POPC   GL222190  37.897  12.942   9.174
 1539POPC   C1A22191  37.452  12.514   8.802
 1539POPC   D2A22192  37.387  12.696   8.346
 1539POPC   C3A22193  37.619  12.753   7.930
 1539POPC   C4A22194  37.630  12.742   7.469
 1539POPC   C1B22195  37.893  12.750   8.767
 1539POPC   C2B22196  37.941  12.721   8.322
 1539POPC   C3B22197  38.045  13.033   7.979
 1539POPC   C4B22198  37.985  13.097   7.491
 1540POPC   NC322199  15.529  17.357   9.585
 1540POPC   PO422200  14.864  17.487   9.705
 1540POPC   GL122201  14.855  17.418   9.224
 1540POPC   GL222202  15.172  17.262   9.159
 1540POPC   C1A22203  14.943  17.653   8.858
 1540POPC   D2A22204  14.795  17.754   8.464
 1540POPC   C3A22205  14.933  17.557   8.127
 1540POPC   C4A22206  15.170  17.543   7.767
 1540POPC   C1B22207  15.375  17.069   8.771
 1540POPC   C2B22208  15.531  17.192   8.332
 1540POPC   C3B22209  15.502  17.144   7.870
 1540POPC   C4B22210  15.364  17.240   7.403
 1541POPC   NC322211  10.384   2.295   9.529
 1541POPC   PO422212  10.349   1.645   9.401
 1541POPC   GL122213  10.239   1.988   9.094
 1541POPC   GL222214  10.489   2.281   9.028
 1541POPC   C1A22215  10.376   1.950   8.663
 1541POPC   D2A22216  10.768   1.748   8.530
 1541POPC   C3A22217  10.764   1.660   8.087
 1541POPC   C4A22218  10.428   1.840   7.875
 1541POPC   C1B22219  10.745   2.335   8.644
 1541POPC   C2B22220  10.749   2.163   8.203
 1541POPC   C3B22221  10.874   2.054   7.745
 1541POPC   C4B22222  10.740   2.294   7.311
 1542POPC   NC322223   3.276  25.837   9.525
 1542POPC   PO422224   3.908  26.166   9.608
 1542POPC   GL122225   3.628  26.070   9.219
 1542POPC   GL222226   3.309  25.911   9.033
 1542POPC   C1A22227   3.588  26.253   8.809
 1542POPC   D2A22228   3.399  26.024   8.467
 1542POPC   C3A22229   3.439  26.228   8.101
 1542POPC   C4A22230   3.329  26.075   7.739
 1542POPC   C1B22231   3.687  25.755   8.803
 1542POPC   C2B22232   3.770  25.594   8.409
 1542POPC   C3B22233   3.696  25.750   8.019
 1542POPC   C4B22234   3.457  25.578   7.722
 1543POPC   NC322235  32.195  24.785   9.383
 1543POPC   PO422236  31.906  24.139   9.515
 1543POPC   GL122237  32.108  24.272   9.128
 1543POPC   GL222238  32.462  24.261   9.027
 1543POPC   C1A22239  32.086  24.358   8.674
 1543POPC   D2A22240  32.472  24.288   8.418
 1543POPC   C3A22241  32.400  24.301   7.967
 1543POPC   C4A22242  32.180  24.672   7.791
 1543POPC   C1B22243  32.453  24.688   8.787
 1543POPC   C2B22244  32.287  24.760   8.351
 1543POPC   C3B22245  32.628  24.755   8.047
 1543POPC   C4B22246  32.740  24.592   7.665
 1544POPC   NC322247  26.697  24.239   9.463
 1544POPC   PO422248  27.187  24.653   9.519
 1544POPC   GL122249  26.904  24.621   9.163
 1544POPC   GL222250  26.914  24.283   8.994
 1544POPC   C1A22251  26.799  24.733   8.745
 1544POPC   D2A22252  26.817  24.420   8.414
 1544POPC   C3A22253  27.103  24.478   8.092
 1544POPC   C4A22254  27.119  24.667   7.716
 1544POPC   C1B22255  26.488  24.331   8.810
 1544POPC   C2B22256  26.331  24.264   8.380
 1544POPC   C3B22257  26.593  24.229   7.971
 1544POPC   C4B22258  26.977  24.160   7.717
 1545POPC   NC322259  39.936  32.528   9.761
 1545POPC   PO422260  40.397  32.109   9.681
 1545POPC   GL122261  40.057  32.206   9.366
 1545POPC   GL222262  40.184  32.545   9.238
 1545POPC   C1A22263  40.034  32.171   8.886
 1545POPC   D2A22264  40.060  31.928   8.478
 1545POPC   C3A22265  39.806  32.091   8.126
 1545POPC   C4A22266  39.899  32.371   7.770
 1545POPC   C1B22267  40.445  32.503   8.849
 1545POPC   C2B22268  40.371  32.319   8.443
 1545POPC   C3B22269  40.338  32.429   8.020
 1545POPC   C4B22270  40.357  32.507   7.556
 1546POPC   NC322271  40.949   8.109   9.507
 1546POPC   PO422272  40.303   8.017   9.317
 1546POPC   GL122273  40.685   8.088   9.081
 1546POPC   GL222274  40.875   8.425   9.084
 1546POPC   C1A22275  40.876   8.095   8.700
 1546POPC   D2A22276  40.680   8.201   8.359
 1546POPC   C3A22277  40.943   8.310   8.052
 1546POPC   C4A22278  40.794   8.198   7.656
 1546POPC   C1B22279  40.504   8.458   8.786
 1546POPC   C2B22280  40.410   8.656   8.381
 1546POPC   C3B22281  40.480   8.500   7.951
 1546POPC   C4B22282  40.474   8.575   7.475
 1547POPC   NC322283  25.474  39.107   9.493
 1547POPC   PO422284  24.802  39.277   9.661
 1547POPC   GL122285  24.991  39.257   9.200
 1547POPC   GL222286  25.349  39.371   9.084
 1547POPC   C1A22287  25.042  39.289   8.720
 1547POPC   D2A22288  25.371  39.358   8.429
 1547POPC   C3A22289  25.280  39.086   8.127
 1547POPC   C4A22290  25.188  39.185   7.723
 1547POPC   C1B22291  25.526  39.047   8.788
 1547POPC   C2B22292  25.761  39.012   8.345
 1547POPC   C3B22293  25.713  39.089   7.877
 1547POPC   C4B22294  25.709  38.883   7.475
 1548POPC   NC322295  40.834   6.997   9.569
 1548POPC   PO422296  41.175   7.689   9.518
 1548POPC   GL122297  40.899   7.618   9.182
 1548POPC   GL222298  40.853   7.254   9.133
 1548POPC   C1A22299  40.624   7.647   8.803
 1548POPC   D2A22300  40.815   7.674   8.391
 1548POPC   C3A22301  40.619   7.543   8.011
 1548POPC   C4A22302  40.570   7.744   7.576
 1548POPC   C1B22303  41.042   7.366   8.756
 1548POPC   C2B22304  40.946   7.171   8.373
 1548POPC   C3B22305  41.096   7.330   8.007
 1548POPC   C4B22306  40.932   7.411   7.635
 1549POPC   NC322307  18.498  36.055   9.437
 1549POPC   PO422308  17.842  35.946   9.566
 1549POPC   GL122309  18.083  36.138   9.155
 1549POPC   GL222310  18.245  36.457   9.201
 1549POPC   C1A22311  18.052  36.043   8.668
 1549POPC   D2A22312  18.232  36.253   8.279
 1549POPC   C3A22313  18.196  35.974   7.952
 1549POPC   C4A22314  17.883  35.705   7.917
 1549POPC   C1B22315  18.400  36.391   8.780
 1549POPC   C2B22316  18.665  36.494   8.435
 1549POPC   C3B22317  18.520  36.632   8.034
 1549POPC   C4B22318  18.371  36.386   7.731
 1550POPC   NC322319  20.044   1.663   9.656
 1550POPC   PO422320  19.538   1.258   9.560
 1550POPC   GL122321  19.686   1.340   9.169
 1550POPC   GL222322  19.921   1.060   9.153
 1550POPC   C1A22323  19.600   1.475   8.757
 1550POPC   D2A22324  19.933   1.568   8.449
 1550POPC   C3A22325  19.875   1.380   8.053
 1550POPC   C4A22326  19.515   1.323   7.833
 1550POPC   C1B22327  19.937   1.075   8.689
 1550POPC   C2B22328  19.919   0.805   8.310
 1550POPC   C3B22329  19.907   0.902   7.856
 1550POPC   C4B22330  20.223   1.208   7.665
 1551POPC   NC322331  25.197  40.315   9.353
 1551POPC   PO422332  25.598  39.751   9.286
 1551POPC   GL122333  25.318  39.931   9.009
 1551POPC   GL222334  25.004  39.807   9.145
 1551POPC   C1A22335  25.209  40.230   8.655
 1551POPC   D2A22336  25.105  40.134   8.211
 1551POPC   C3A22337  25.130  40.358   7.798
 1551POPC   C4A22338  25.159  40.004   7.473
 1551POPC   C1B22339  24.944  39.786   8.678
 1551POPC   C2B22340  24.971  39.607   8.242
 1551POPC   C3B22341  24.943  39.636   7.777
 1551POPC   C4B22342  24.911  39.520   7.309
 1552POPC   NC322343  35.505  15.606   9.434
 1552POPC   PO422344  34.903  15.960   9.607
 1552POPC   GL122345  35.016  16.032   9.190
 1552POPC   GL222346  35.394  16.077   9.185
 1552POPC   C1A22347  35.051  15.884   8.785
 1552POPC   D2A22348  35.322  15.941   8.466
 1552POPC   C3A22349  35.192  15.819   8.059
 1552POPC   C4A22350  35.364  15.802   7.640
 1552POPC   C1B22351  35.629  16.229   8.812
 1552POPC   C2B22352  35.621  16.366   8.372
 1552POPC   C3B22353  35.593  16.143   7.969
 1552POPC   C4B22354  35.866  16.084   7.586
 1553POPC   NC322355   0.155   2.256   9.439
 1553POPC   PO422356   0.630   1.785   9.609
 1553POPC   GL122357   0.565   2.001   9.182
 1553POPC   GL222358   0.557   1.655   9.082
 1553POPC   C1A22359   0.356   2.102   8.728
 1553POPC   D2A22360   0.203   2.343   8.374
 1553POPC   C3A22361   0.384   2.230   7.989
 1553POPC   C4A22362   0.120   1.951   7.831
 1553POPC   C1B22363   0.782   1.830   8.729
 1553POPC   C2B22364   0.632   1.892   8.310
 1553POPC   C3B22365   0.604   1.783   7.859
 1553POPC   C4B22366   0.736   1.940   7.483
 1554POPC   NC322367   0.437   6.201   9.550
 1554POPC   PO422368   0.276   5.492   9.553
 1554POPC   GL122369   0.302   5.799   9.187
 1554POPC   GL222370   0.320   6.142   9.076
 1554POPC   C1A22371   0.425   5.688   8.755
 1554POPC   D2A22372   0.533   5.416   8.445
 1554POPC   C3A22373   0.306   5.534   8.105
 1554POPC   C4A22374   0.458   5.631   7.705
 1554POPC   C1B22375   0.555   6.168   8.738
 1554POPC   C2B22376   0.378   6.153   8.347
 1554POPC   C3B22377   0.530   6.081   7.958
 1554POPC   C4B22378   0.471   6.265   7.562
 1555POPC   NC322379  11.562  40.675   9.627
 1555POPC   PO422380  10.980  40.896   9.602
 1555POPC   GL122381  11.285  40.947   9.274
 1555POPC   GL222382  11.026  41.027   9.068
 1555POPC   C1A22383  11.447  40.857   8.837
 1555POPC   D2A22384  11.449  41.037   8.412
 1555POPC   C3A22385  11.388  40.857   8.000
 1555POPC   C4A22386  11.159  41.095   7.671
 1555POPC   C1B22387  10.922  41.169   8.652
 1555POPC   C2B22388  10.974  41.140   8.211
 1555POPC   C3B22389  10.874  40.775   8.018
 1555POPC   C4B22390  10.929  40.637   7.632
 1556POPC   NC322391  27.190  29.300   9.415
 1556POPC   PO422392  26.573  29.417   9.548
 1556POPC   GL122393  26.561  29.190   9.108
 1556POPC   GL222394  26.888  29.054   9.062
 1556POPC   C1A22395  26.569  28.960   8.674
 1556POPC   D2A22396  26.775  28.923   8.239
 1556POPC   C3A22397  26.594  29.112   7.851
 1556POPC   C4A22398  26.528  29.142   7.377
 1556POPC   C1B22399  27.090  28.959   8.653
 1556POPC   C2B22400  27.248  29.183   8.282
 1556POPC   C3B22401  27.107  29.200   7.843
 1556POPC   C4B22402  26.817  29.498   7.621
 1557POPC   NC322403  21.484  31.029   9.383
 1557POPC   PO422404  21.407  31.675   9.482
 1557POPC   GL122405  21.475  31.516   9.122
 1557POPC   GL222406  21.181  31.381   9.071
 1557POPC   C1A22407  21.643  31.387   8.741
 1557POPC   D2A22408  21.674  31.579   8.355
 1557POPC   C3A22409  21.519  31.375   7.969
 1557POPC   C4A22410  21.568  31.372   7.534
 1557POPC   C1B22411  21.185  31.152   8.736
 1557POPC   C2B22412  21.196  31.381   8.375
 1557POPC   C3B22413  21.038  31.545   7.993
 1557POPC   C4B22414  21.024  31.260   7.631
 1558POPC   NC322415  40.417  12.730   9.577
 1558POPC   PO422416  41.017  13.076   9.504
 1558POPC   GL122417  40.869  12.935   9.142
 1558POPC   GL222418  40.843  12.576   9.215
 1558POPC   C1A22419  40.887  13.138   8.730
 1558POPC   D2A22420  40.646  13.091   8.371
 1558POPC   C3A22421  40.666  13.129   7.936
 1558POPC   C4A22422  41.026  13.167   7.702
 1558POPC   C1B22423  40.728  12.660   8.740
 1558POPC   C2B22424  40.671  12.591   8.300
 1558POPC   C3B22425  40.685  12.619   7.875
 1558POPC   C4B22426  40.367  12.837   7.609
 1559POPC   NC322427  39.742  12.183   9.373
 1559POPC   PO422428  40.445  12.257   9.527
 1559POPC   GL122429  40.204  12.025   9.184
 1559POPC   GL222430  40.043  12.316   9.015
 1559POPC   C1A22431  40.025  11.889   8.747
 1559POPC   D2A22432  39.737  11.966   8.379
 1559POPC   C3A22433  39.981  12.055   8.032
 1559POPC   C4A22434  39.925  11.841   7.680
 1559POPC   C1B22435  39.732  12.327   8.710
 1559POPC   C2B22436  39.836  12.491   8.354
 1559POPC   C3B22437  39.693  12.476   7.979
 1559POPC   C4B22438  39.567  12.228   7.670
 1560POPC   NC322439  14.670  22.457   9.604
 1560POPC   PO422440  15.213  22.795   9.869
 1560POPC   GL122441  15.456  22.782   9.435
 1560POPC   GL222442  15.186  22.964   9.296
 1560POPC   C1A22443  15.403  22.678   8.911
 1560POPC   D2A22444  15.307  22.798   8.443
 1560POPC   C3A22445  15.441  22.791   7.976
 1560POPC   C4A22446  15.499  23.188   7.700
 1560POPC   C1B22447  15.044  23.037   8.855
 1560POPC   C2B22448  14.857  23.024   8.428
 1560POPC   C3B22449  15.020  23.094   7.998
 1560POPC   C4B22450  15.008  23.073   7.548
 1561POPC   NC322451  19.366   3.333   9.446
 1561POPC   PO422452  18.836   3.749   9.542
 1561POPC   GL122453  19.132   3.746   9.214
 1561POPC   GL222454  19.036   3.428   9.073
 1561POPC   C1A22455  19.163   3.919   8.806
 1561POPC   D2A22456  19.008   3.816   8.381
 1561POPC   C3A22457  19.276   3.706   8.061
 1561POPC   C4A22458  19.173   3.362   7.808
 1561POPC   C1B22459  18.827   3.374   8.695
 1561POPC   C2B22460  18.900   3.293   8.259
 1561POPC   C3B22461  18.796   3.056   7.887
 1561POPC   C4B22462  18.868   3.053   7.457
 1562POPC   NC322463  29.603   1.395   9.532
 1562POPC   PO422464  30.265   1.321   9.366
 1562POPC   GL122465  30.072   1.090   9.078
 1562POPC   GL222466  29.763   0.986   9.254
 1562POPC   C1A22467  30.030   1.169   8.627
 1562POPC   D2A22468  30.242   1.113   8.263
 1562POPC   C3A22469  30.114   1.420   7.989
 1562POPC   C4A22470  29.687   1.618   7.945
 1562POPC   C1B22471  29.701   0.855   8.826
 1562POPC   C2B22472  29.786   0.775   8.405
 1562POPC   C3B22473  29.736   1.091   8.107
 1562POPC   C4B22474  29.737   1.159   7.691
 1563POPC   NC322475  21.566  37.245   9.480
 1563POPC   PO422476  21.102  36.721   9.452
 1563POPC   GL122477  21.182  36.785   9.054
 1563POPC   GL222478  21.270  37.089   9.104
 1563POPC   C1A22479  21.033  36.943   8.666
 1563POPC   D2A22480  21.072  37.148   8.264
 1563POPC   C3A22481  21.350  36.993   7.953
 1563POPC   C4A22482  21.290  36.949   7.499
 1563POPC   C1B22483  21.541  37.043   8.773
 1563POPC   C2B22484  21.554  37.278   8.420
 1563POPC   C3B22485  21.759  37.309   8.033
 1563POPC   C4B22486  21.974  37.123   7.729
 1564POPC   NC322487  11.958  35.737   9.554
 1564POPC   PO422488  12.384  36.023   9.155
 1564POPC   GL122489  11.954  36.124   9.092
 1564POPC   GL222490  12.011  36.447   9.035
 1564POPC   C1A22491  11.920  36.140   8.641
 1564POPC   D2A22492  12.293  35.946   8.438
 1564POPC   C3A22493  12.264  35.790   7.992
 1564POPC   C4A22494  11.983  35.949   7.648
 1564POPC   C1B22495  12.305  36.487   8.697
 1564POPC   C2B22496  12.198  36.420   8.298
 1564POPC   C3B22497  12.287  36.290   7.897
 1564POPC   C4B22498  12.020  36.462   7.577
 1565POPC   NC322499   1.354  34.442   9.640
 1565POPC   PO422500   0.788  34.757   9.584
 1565POPC   GL122501   1.073  34.655   9.227
 1565POPC   GL222502   1.450  34.741   9.228
 1565POPC   C1A22503   1.165  34.783   8.778
 1565POPC   D2A22504   0.982  34.846   8.344
 1565POPC   C3A22505   1.249  34.826   7.976
 1565POPC   C4A22506   1.363  34.472   7.640
 1565POPC   C1B22507   1.614  34.565   8.821
 1565POPC   C2B22508   1.487  34.611   8.381
 1565POPC   C3B22509   1.716  34.612   7.986
 1565POPC   C4B22510   1.642  34.904   7.656
 1566POPC   NC322511  11.533  32.166   9.533
 1566POPC   PO422512  10.929  31.905   9.348
 1566POPC   GL122513  11.166  32.060   9.055
 1566POPC   GL222514  11.272  32.348   9.128
 1566POPC   C1A22515  11.143  32.148   8.641
 1566POPC   D2A22516  11.340  32.257   8.282
 1566POPC   C3A22517  11.283  32.039   7.929
 1566POPC   C4A22518  10.901  31.873   7.919
 1566POPC   C1B22519  10.973  32.573   8.877
 1566POPC   C2B22520  11.036  32.645   8.480
 1566POPC   C3B22521  11.350  32.753   8.197
 1566POPC   C4B22522  11.195  32.526   7.826
 1567POPC   NC322523  26.497  34.726   9.376
 1567POPC   PO422524  27.082  34.919   9.639
 1567POPC   GL122525  26.992  34.619   9.265
 1567POPC   GL222526  27.140  34.753   9.016
 1567POPC   C1A22527  26.743  34.507   8.813
 1567POPC   D2A22528  26.602  34.667   8.358
 1567POPC   C3A22529  26.725  34.409   7.973
 1567POPC   C4A22530  26.527  34.008   7.839
 1567POPC   C1B22531  26.937  34.951   8.665
 1567POPC   C2B22532  26.964  35.026   8.248
 1567POPC   C3B22533  26.818  34.908   7.861
 1567POPC   C4B22534  27.172  34.889   7.570
 1568POPC   NC322535  39.036  31.102   9.522
 1568POPC   PO422536  39.561  30.692   9.357
 1568POPC   GL122537  39.288  30.900   9.128
 1568POPC   GL222538  38.983  30.718   9.173
 1568POPC   C1A22539  39.231  30.933   8.720
 1568POPC   D2A22540  39.404  30.669   8.418
 1568POPC   C3A22541  39.278  30.804   8.014
 1568POPC   C4A22542  39.412  30.579   7.699
 1568POPC   C1B22543  38.864  30.579   8.755
 1568POPC   C2B22544  38.889  30.750   8.344
 1568POPC   C3B22545  38.792  30.646   7.899
 1568POPC   C4B22546  38.942  30.461   7.507
 1569POPC   NC322547   5.739  32.194   9.677
 1569POPC   PO422548   5.661  32.853   9.399
 1569POPC   GL122549   5.697  32.407   9.198
 1569POPC   GL222550   6.026  32.183   9.231
 1569POPC   C1A22551   5.756  32.263   8.765
 1569POPC   D2A22552   5.966  32.408   8.377
 1569POPC   C3A22553   5.706  32.475   8.004
 1569POPC   C4A22554   5.546  32.406   7.592
 1569POPC   C1B22555   6.218  31.985   8.835
 1569POPC   C2B22556   6.066  31.849   8.396
 1569POPC   C3B22557   6.096  32.101   7.985
 1569POPC   C4B22558   6.085  32.464   7.651
 1570POPC   NC322559  39.264  44.996   9.380
 1570POPC   PO422560  38.915   0.480   9.657
 1570POPC   GL122561  39.036   0.548   9.212
 1570POPC   GL222562  39.379   0.443   9.091
 1570POPC   C1A22563  38.818   0.596   8.803
 1570POPC   D2A22564  38.571   0.679   8.399
 1570POPC   C3A22565  38.786   0.657   7.982
 1570POPC   C4A22566  39.233   0.803   7.881
 1570POPC   C1B22567  39.209   0.296   8.672
 1570POPC   C2B22568  39.180   0.409   8.215
 1570POPC   C3B22569  39.445   0.345   7.825
 1570POPC   C4B22570  39.623  44.981   7.640
 1571POPC   NC322571  29.719  33.551   9.725
 1571POPC   PO422572  30.193  34.038   9.496
 1571POPC   GL122573  29.830  33.819   9.271
 1571POPC   GL222574  29.735  33.444   9.226
 1571POPC   C1A22575  29.837  33.762   8.840
 1571POPC   D2A22576  30.103  33.735   8.493
 1571POPC   C3A22577  29.960  33.766   8.064
 1571POPC   C4A22578  30.210  33.711   7.698
 1571POPC   C1B22579  29.574  33.318   8.813
 1571POPC   C2B22580  29.751  33.351   8.432
 1571POPC   C3B22581  29.616  33.286   8.062
 1571POPC   C4B22582  29.744  33.458   7.730
 1572POPC   NC322583  15.546  16.128   9.535
 1572POPC   PO422584  15.006  16.006   9.658
 1572POPC   GL122585  15.179  15.912   9.229
 1572POPC   GL222586  15.241  16.249   9.148
 1572POPC   C1A22587  15.075  15.682   8.826
 1572POPC   D2A22588  15.200  15.755   8.387
 1572POPC   C3A22589  14.974  15.611   8.027
 1572POPC   C4A22590  15.096  15.798   7.670
 1572POPC   C1B22591  15.328  16.120   8.760
 1572POPC   C2B22592  15.354  16.245   8.379
 1572POPC   C3B22593  15.371  16.130   8.000
 1572POPC   C4B22594  15.175  16.300   7.665
 1573POPC   NC322595  33.984  30.955   9.785
 1573POPC   PO422596  33.531  30.582   9.460
 1573POPC   GL122597  33.676  30.881   9.190
 1573POPC   GL222598  33.998  30.985   9.270
 1573POPC   C1A22599  33.702  30.703   8.769
 1573POPC   D2A22600  33.641  30.497   8.351
 1573POPC   C3A22601  33.781  30.728   7.973
 1573POPC   C4A22602  33.816  30.593   7.518
 1573POPC   C1B22603  33.967  31.161   8.851
 1573POPC   C2B22604  34.173  31.314   8.461
 1573POPC   C3B22605  34.216  31.102   8.049
 1573POPC   C4B22606  34.119  30.964   7.655
 1574POPC   NC322607   1.543  20.304   9.798
 1574POPC   PO422608   2.027  19.925   9.403
 1574POPC   GL122609   1.910  19.902   9.003
 1574POPC   GL222610   1.552  19.788   9.058
 1574POPC   C1A22611   2.148  19.916   8.610
 1574POPC   D2A22612   2.377  19.952   8.229
 1574POPC   C3A22613   2.126  19.773   7.900
 1574POPC   C4A22614   1.988  19.688   7.477
 1574POPC   C1B22615   1.670  19.605   8.655
 1574POPC   C2B22616   1.773  19.803   8.256
 1574POPC   C3B22617   1.682  20.103   7.887
 1574POPC   C4B22618   1.632  20.033   7.436
 1575POPC   NC322619   7.199  34.299   9.456
 1575POPC   PO422620   7.650  34.794   9.593
 1575POPC   GL122621   7.400  34.689   9.213
 1575POPC   GL222622   7.021  34.748   9.191
 1575POPC   C1A22623   7.449  34.788   8.799
 1575POPC   D2A22624   7.217  34.784   8.421
 1575POPC   C3A22625   7.444  34.630   8.079
 1575POPC   C4A22626   7.391  34.838   7.706
 1575POPC   C1B22627   7.040  34.446   8.858
 1575POPC   C2B22628   7.317  34.296   8.564
 1575POPC   C3B22629   7.224  34.179   8.150
 1575POPC   C4B22630   7.119  34.393   7.750
 1576POPC   NC322631  12.532  44.805   9.415
 1576POPC   PO422632  12.991  44.345   9.654
 1576POPC   GL122633  12.982  44.535   9.258
 1576POPC   GL222634  12.737  44.345   9.135
 1576POPC   C1A22635  13.062  44.602   8.807
 1576POPC   D2A22636  12.838  44.895   8.531
 1576POPC   C3A22637  12.967  44.865   8.111
 1576POPC   C4A22638  12.891  44.907   7.682
 1576POPC   C1B22639  12.582  44.422   8.705
 1576POPC   C2B22640  12.703  44.469   8.296
 1576POPC   C3B22641  12.881  44.412   7.896
 1576POPC   C4B22642  12.798  44.144   7.603
 1577POPC   NC322643  21.579  14.598  10.068
 1577POPC   PO422644  21.227  14.282   9.562
 1577POPC   GL122645  21.307  14.424   9.187
 1577POPC   GL222646  21.651  14.471   9.260
 1577POPC   C1A22647  21.173  14.422   8.780
 1577POPC   D2A22648  21.415  14.351   8.412
 1577POPC   C3A22649  21.214  14.396   8.032
 1577POPC   C4A22650  21.052  14.306   7.639
 1577POPC   C1B22651  21.718  14.296   8.852
 1577POPC   C2B22652  21.813  14.040   8.469
 1577POPC   C3B22653  21.688  14.117   8.034
 1577POPC   C4B22654  21.555  14.258   7.645
 1578POPC   NC322655   4.492  31.599   9.627
 1578POPC   PO422656   3.987  31.124   9.574
 1578POPC   GL122657   4.182  31.123   9.176
 1578POPC   GL222658   4.400  31.448   9.157
 1578POPC   C1A22659   4.199  31.243   8.750
 1578POPC   D2A22660   4.503  31.264   8.450
 1578POPC   C3A22661   4.453  31.015   8.116
 1578POPC   C4A22662   4.253  31.106   7.766
 1578POPC   C1B22663   4.477  31.692   8.787
 1578POPC   C2B22664   4.293  31.766   8.371
 1578POPC   C3B22665   4.430  31.594   7.956
 1578POPC   C4B22666   4.339  31.643   7.490
 1579POPC   NC322667  33.469  42.216   9.550
 1579POPC   PO422668  34.115  42.508   9.534
 1579POPC   GL122669  33.957  42.286   9.197
 1579POPC   GL222670  33.668  42.400   9.140
 1579POPC   C1A22671  33.938  42.004   8.842
 1579POPC   D2A22672  33.797  42.060   8.415
 1579POPC   C3A22673  33.980  42.325   8.132
 1579POPC   C4A22674  33.855  42.421   7.703
 1579POPC   C1B22675  33.473  42.239   8.776
 1579POPC   C2B22676  33.296  42.155   8.390
 1579POPC   C3B22677  33.482  42.237   8.026
 1579POPC   C4B22678  33.404  42.125   7.622
 1580POPC   NC322679  12.491  39.575   9.443
 1580POPC   PO422680  12.908  39.099   9.594
 1580POPC   GL122681  12.810  39.215   9.193
 1580POPC   GL222682  12.927  39.554   9.184
 1580POPC   C1A22683  12.723  39.071   8.759
 1580POPC   D2A22684  12.872  38.888   8.385
 1580POPC   C3A22685  12.742  39.125   8.017
 1580POPC   C4A22686  12.679  39.542   7.858
 1580POPC   C1B22687  12.804  39.569   8.777
 1580POPC   C2B22688  12.915  39.427   8.381
 1580POPC   C3B22689  13.168  39.563   8.023
 1580POPC   C4B22690  13.106  39.573   7.549
 1581POPC   NC322691   7.932   2.607   9.474
 1581POPC   PO422692   8.352   3.025   9.549
 1581POPC   GL122693   8.337   2.809   9.176
 1581POPC   GL222694   8.034   2.970   9.125
 1581POPC   C1A22695   8.191   2.557   8.822
 1581POPC   D2A22696   8.018   2.584   8.434
 1581POPC   C3A22697   8.287   2.642   8.087
 1581POPC   C4A22698   8.112   2.649   7.696
 1581POPC   C1B22699   7.812   2.939   8.735
 1581POPC   C2B22700   7.629   3.125   8.366
 1581POPC   C3B22701   7.804   3.209   7.950
 1581POPC   C4B22702   8.016   3.128   7.543
 1582POPC   NC322703  41.912  41.479   9.519
 1582POPC   PO422704  41.276  41.241   9.410
 1582POPC   GL122705  41.359  41.577   9.079
 1582POPC   GL222706  41.685  41.644   9.105
 1582POPC   C1A22707  41.425  41.677   8.626
 1582POPC   D2A22708  41.233  41.425   8.248
 1582POPC   C3A22709  41.471  41.334   7.853
 1582POPC   C4A22710  41.317  41.170   7.464
 1582POPC   C1B22711  41.724  41.298   8.816
 1582POPC   C2B22712  41.736  41.324   8.367
 1582POPC   C3B22713  41.930  41.495   8.004
 1582POPC   C4B22714  41.740  41.762   7.683
 1583POPC   NC322715  36.996  32.052   9.624
 1583POPC   PO422716  36.543  32.534   9.521
 1583POPC   GL122717  36.728  32.266   9.220
 1583POPC   GL222718  37.059  32.367   9.143
 1583POPC   C1A22719  36.719  32.259   8.768
 1583POPC   D2A22720  36.697  32.569   8.434
 1583POPC   C3A22721  36.549  32.307   8.096
 1583POPC   C4A22722  36.683  31.953   7.879
 1583POPC   C1B22723  37.209  32.321   8.669
 1583POPC   C2B22724  37.039  32.237   8.221
 1583POPC   C3B22725  37.084  32.233   7.743
 1583POPC   C4B22726  37.267  32.341   7.306
 1584POPC   NC322727  42.484   5.120   9.551
 1584POPC   PO422728  41.916   5.454   9.443
 1584POPC   GL122729  42.214   5.281   9.102
 1584POPC   GL222730  42.338   4.922   9.105
 1584POPC   C1A22731  42.294   5.214   8.674
 1584POPC   D2A22732  42.095   5.377   8.328
 1584POPC   C3A22733  42.277   5.151   7.994
 1584POPC   C4A22734  42.085   4.938   7.673
 1584POPC   C1B22735  42.476   4.670   8.786
 1584POPC   C2B22736  42.402   4.739   8.398
 1584POPC   C3B22737  42.437   4.628   7.989
 1584POPC   C4B22738  42.633   4.890   7.693
 1585POPC   NC322739  31.258  35.891   9.617
 1585POPC   PO422740  31.875  35.963   9.729
 1585POPC   GL122741  31.623  36.030   9.263
 1585POPC   GL222742  31.337  35.822   9.120
 1585POPC   C1A22743  31.475  36.200   8.814
 1585POPC   D2A22744  31.338  36.097   8.360
 1585POPC   C3A22745  31.482  36.293   7.950
 1585POPC   C4A22746  31.416  36.109   7.512
 1585POPC   C1B22747  31.400  35.683   8.706
 1585POPC   C2B22748  31.146  35.635   8.347
 1585POPC   C3B22749  31.265  35.751   7.917
 1585POPC   C4B22750  31.175  35.638   7.489
 1586POPC   NC322751   2.243  19.489   9.435
 1586POPC   PO422752   1.756  18.965   9.478
 1586POPC   GL122753   2.019  19.112   9.171
 1586POPC   GL222754   1.874  19.394   9.098
 1586POPC   C1A22755   2.103  18.942   8.755
 1586POPC   D2A22756   1.886  19.045   8.379
 1586POPC   C3A22757   2.067  18.884   7.978
 1586POPC   C4A22758   2.397  18.899   7.684
 1586POPC   C1B22759   2.177  19.439   8.765
 1586POPC   C2B22760   2.202  19.450   8.317
 1586POPC   C3B22761   1.871  19.357   7.980
 1586POPC   C4B22762   1.559  19.618   7.796
 1587POPC   NC322763  31.281  27.240   9.523
 1587POPC   PO422764  31.700  26.690   9.555
 1587POPC   GL122765  31.648  26.940   9.153
 1587POPC   GL222766  31.342  27.115   9.048
 1587POPC   C1A22767  31.592  26.801   8.715
 1587POPC   D2A22768  31.254  26.806   8.393
 1587POPC   C3A22769  31.246  26.574   8.013
 1587POPC   C4A22770  31.562  26.812   7.842
 1587POPC   C1B22771  31.587  27.300   8.739
 1587POPC   C2B22772  31.648  27.142   8.302
 1587POPC   C3B22773  31.539  27.326   7.897
 1587POPC   C4B22774  31.388  27.202   7.476
 1588POPC   NC322775  15.448   6.356   9.465
 1588POPC   PO422776  15.089   6.896   9.727
 1588POPC   GL122777  15.002   6.612   9.235
 1588POPC   GL222778  15.173   6.374   9.045
 1588POPC   C1A22779  14.953   6.796   8.806
 1588POPC   D2A22780  15.105   6.655   8.407
 1588POPC   C3A22781  15.138   6.935   8.068
 1588POPC   C4A22782  15.253   6.800   7.668
 1588POPC   C1B22783  15.461   6.413   8.708
 1588POPC   C2B22784  15.406   6.232   8.296
 1588POPC   C3B22785  15.237   6.327   7.871
 1588POPC   C4B22786  15.508   6.408   7.483
 1589POPC   NC322787  28.031   9.500   9.912
 1589POPC   PO422788  28.108  10.138   9.521
 1589POPC   GL122789  28.402   9.902   9.265
 1589POPC   GL222790  28.757   9.986   9.264
 1589POPC   C1A22791  28.393   9.769   8.844
 1589POPC   D2A22792  28.141   9.704   8.468
 1589POPC   C3A22793  28.287   9.453   8.111
 1589POPC   C4A22794  28.246   9.561   7.669
 1589POPC   C1B22795  28.839  10.013   8.819
 1589POPC   C2B22796  28.525  10.127   8.480
 1589POPC   C3B22797  28.384   9.979   8.083
 1589POPC   C4B22798  28.541   9.975   7.685
 1590POPC   NC322799  16.142  11.177   9.353
 1590POPC   PO422800  15.504  11.349   9.461
 1590POPC   GL122801  15.567  11.599   9.054
 1590POPC   GL222802  15.902  11.530   9.071
 1590POPC   C1A22803  15.645  11.507   8.610
 1590POPC   D2A22804  15.782  11.195   8.325
 1590POPC   C3A22805  15.765  11.225   7.856
 1590POPC   C4A22806  15.622  11.072   7.464
 1590POPC   C1B22807  16.140  11.629   8.730
 1590POPC   C2B22808  16.048  11.685   8.310
 1590POPC   C3B22809  16.186  11.408   8.079
 1590POPC   C4B22810  16.325  11.327   7.716
 1591POPC   NC322811  36.761  41.294   9.526
 1591POPC   PO422812  36.714  40.729   9.650
 1591POPC   GL122813  36.623  40.902   9.226
 1591POPC   GL222814  36.969  40.822   9.157
 1591POPC   C1A22815  36.713  41.081   8.796
 1591POPC   D2A22816  36.897  41.126   8.354
 1591POPC   C3A22817  36.732  40.937   7.971
 1591POPC   C4A22818  37.001  40.980   7.612
 1591POPC   C1B22819  37.119  40.749   8.745
 1591POPC   C2B22820  36.984  40.629   8.321
 1591POPC   C3B22821  37.164  40.522   7.917
 1591POPC   C4B22822  37.193  40.485   7.467
 1592POPC   NC322823   8.642  40.874   9.557
 1592POPC   PO422824   9.367  41.027   9.691
 1592POPC   GL122825   9.164  40.962   9.252
 1592POPC   GL222826   8.829  41.016   9.095
 1592POPC   C1A22827   9.193  40.808   8.811
 1592POPC   D2A22828   9.080  40.860   8.384
 1592POPC   C3A22829   9.064  40.515   8.113
 1592POPC   C4A22830   9.183  40.694   7.704
 1592POPC   C1B22831   8.797  41.200   8.671
 1592POPC   C2B22832   8.799  41.259   8.205
 1592POPC   C3B22833   8.785  40.897   7.908
 1592POPC   C4B22834   8.756  40.867   7.422
 1593POPC   NC322835  34.680  39.694   9.661
 1593POPC   PO422836  35.354  39.844   9.535
 1593POPC   GL122837  35.237  40.045   9.128
 1593POPC   GL222838  35.048  40.346   9.117
 1593POPC   C1A22839  35.520  40.178   8.774
 1593POPC   D2A22840  35.465  39.919   8.402
 1593POPC   C3A22841  35.660  39.965   8.020
 1593POPC   C4A22842  35.540  39.757   7.642
 1593POPC   C1B22843  35.017  40.236   8.681
 1593POPC   C2B22844  34.876  40.092   8.278
 1593POPC   C3B22845  35.163  40.053   7.979
 1593POPC   C4B22846  35.162  40.089   7.554
 1594POPC   NC322847  27.894  44.458   9.512
 1594POPC   PO422848  27.266  44.831   9.578
 1594POPC   GL122849  27.262  44.558   9.179
 1594POPC   GL222850  27.471  44.246   9.186
 1594POPC   C1A22851  27.393  44.500   8.712
 1594POPC   D2A22852  27.565  44.681   8.278
 1594POPC   C3A22853  27.523  44.498   7.835
 1594POPC   C4A22854  27.286  44.523   7.382
 1594POPC   C1B22855  27.829  44.274   8.866
 1594POPC   C2B22856  27.780  44.216   8.415
 1594POPC   C3B22857  27.905  44.180   7.976
 1594POPC   C4B22858  28.114  44.531   7.735
 1595POPC   NC322859  25.024  37.267   9.251
 1595POPC   PO422860  25.466  36.723   9.454
 1595POPC   GL122861  25.313  36.884   9.095
 1595POPC   GL222862  24.965  36.770   9.061
 1595POPC   C1A22863  25.288  36.781   8.662
 1595POPC   D2A22864  25.121  36.889   8.300
 1595POPC   C3A22865  25.307  37.211   8.128
 1595POPC   C4A22866  25.303  37.061   7.752
 1595POPC   C1B22867  24.800  37.014   8.699
 1595POPC   C2B22868  24.792  37.269   8.327
 1595POPC   C3B22869  24.854  37.191   7.902
 1595POPC   C4B22870  24.923  37.291   7.435
 1596POPC   NC322871  39.538  15.103   9.305
 1596POPC   PO422872  38.951  15.120   9.438
 1596POPC   GL122873  39.091  15.108   9.022
 1596POPC   GL222874  39.184  15.468   9.036
 1596POPC   C1A22875  39.418  15.171   8.651
 1596POPC   D2A22876  39.644  14.952   8.310
 1596POPC   C3A22877  39.523  15.135   7.926
 1596POPC   C4A22878  39.393  14.988   7.532
 1596POPC   C1B22879  38.955  15.409   8.635
 1596POPC   C2B22880  39.110  15.324   8.208
 1596POPC   C3B22881  39.068  15.395   7.747
 1596POPC   C4B22882  38.809  15.601   7.390
 1597POPC   NC322883   8.599  43.835   9.347
 1597POPC   PO422884   8.021  44.161   9.474
 1597POPC   GL122885   8.156  43.973   9.106
 1597POPC   GL222886   7.916  43.734   9.132
 1597POPC   C1A22887   8.364  44.014   8.696
 1597POPC   D2A22888   8.174  43.961   8.302
 1597POPC   C3A22889   8.385  43.751   7.980
 1597POPC   C4A22890   8.495  43.893   7.591
 1597POPC   C1B22891   7.785  43.920   8.716
 1597POPC   C2B22892   7.678  43.793   8.267
 1597POPC   C3B22893   7.860  43.822   7.830
 1597POPC   C4B22894   7.783  43.641   7.373
 1598POPC   NC322895  24.073  28.676   9.433
 1598POPC   PO422896  24.370  29.050   9.923
 1598POPC   GL122897  24.359  29.085   9.382
 1598POPC   GL222898  24.514  28.788   9.175
 1598POPC   C1A22899  24.302  29.139   8.874
 1598POPC   D2A22900  24.530  29.187   8.451
 1598POPC   C3A22901  24.406  29.109   8.033
 1598POPC   C4A22902  24.087  29.333   7.829
 1598POPC   C1B22903  24.696  28.801   8.732
 1598POPC   C2B22904  24.613  28.684   8.266
 1598POPC   C3B22905  24.876  28.749   7.873
 1598POPC   C4B22906  24.986  29.142   7.650
 1599POPC   NC322907  21.019  30.190   9.101
 1599POPC   PO422908  21.386  29.647   9.188
 1599POPC   GL122909  21.302  29.847   8.885
 1599POPC   GL222910  20.965  29.661   8.886
 1599POPC   C1A22911  21.427  29.986   8.519
 1599POPC   D2A22912  21.202  29.649   8.379
 1599POPC   C3A22913  21.334  29.546   8.006
 1599POPC   C4A22914  21.616  29.796   7.835
 1599POPC   C1B22915  20.743  29.896   8.598
 1599POPC   C2B22916  20.862  30.270   8.456
 1599POPC   C3B22917  21.163  30.259   8.173
 1599POPC   C4B22918  21.177  30.067   7.787
 1600POPC   NC322919   6.650  37.467   9.433
 1600POPC   PO422920   6.296  38.070   9.613
 1600POPC   GL122921   6.608  37.927   9.226
 1600POPC   GL222922   6.505  37.660   8.977
 1600POPC   C1A22923   6.939  37.858   8.850
 1600POPC   D2A22924   7.082  37.765   8.406
 1600POPC   C3A22925   6.781  37.888   8.119
 1600POPC   C4A22926   6.869  37.978   7.741
 1600POPC   C1B22927   6.587  37.676   8.551
 1600POPC   C2B22928   6.390  37.574   8.211
 1600POPC   C3B22929   6.358  37.705   7.833
 1600POPC   C4B22930   6.607  37.541   7.573
 1601POPC   NC322931  24.863   6.704   9.548
 1601POPC   PO422932  25.503   6.618   9.574
 1601POPC   GL122933  25.236   6.550   9.220
 1601POPC   GL222934  25.123   6.896   9.152
 1601POPC   C1A22935  25.261   6.543   8.779
 1601POPC   D2A22936  25.526   6.471   8.432
 1601POPC   C3A22937  25.489   6.752   8.109
 1601POPC   C4A22938  25.378   6.552   7.742
 1601POPC   C1B22939  25.174   7.040   8.725
 1601POPC   C2B22940  25.022   6.797   8.371
 1601POPC   C3B22941  24.991   6.939   7.965
 1601POPC   C4B22942  25.059   6.952   7.545
 1602POPC   NC322943  16.873  41.801   9.534
 1602POPC   PO422944  16.254  41.492   9.479
 1602POPC   GL122945  16.426  41.560   9.071
 1602POPC   GL222946  16.798  41.630   9.040
 1602POPC   C1A22947  16.568  41.342   8.673
 1602POPC   D2A22948  16.856  41.546   8.357
 1602POPC   C3A22949  16.724  41.516   7.933
 1602POPC   C4A22950  16.945  41.434   7.529
 1602POPC   C1B22951  16.578  41.849   8.668
 1602POPC   C2B22952  16.456  42.018   8.244
 1602POPC   C3B22953  16.683  42.008   7.856
 1602POPC   C4B22954  16.578  41.752   7.477
 1603POPC   NC322955  22.054   2.562   9.429
 1603POPC   PO422956  22.530   3.054   9.469
 1603POPC   GL122957  22.267   2.903   9.125
 1603POPC   GL222958  21.969   3.028   9.099
 1603POPC   C1A22959  22.181   2.670   8.734
 1603POPC   D2A22960  22.333   2.799   8.329
 1603POPC   C3A22961  22.298   2.616   7.942
 1603POPC   C4A22962  22.450   2.678   7.541
 1603POPC   C1B22963  21.751   2.976   8.798
 1603POPC   C2B22964  21.814   2.985   8.409
 1603POPC   C3B22965  21.984   3.048   8.042
 1603POPC   C4B22966  22.038   2.960   7.657
 1604POPC   NC322967  20.899   5.392  10.001
 1604POPC   PO422968  20.547   5.016   9.614
 1604POPC   GL122969  20.491   5.008   9.189
 1604POPC   GL222970  20.861   4.986   9.175
 1604POPC   C1A22971  20.439   5.171   8.760
 1604POPC   D2A22972  20.629   4.917   8.411
 1604POPC   C3A22973  20.671   5.086   7.996
 1604POPC   C4A22974  20.365   5.349   7.784
 1604POPC   C1B22975  20.941   5.136   8.776
 1604POPC   C2B22976  21.028   5.266   8.363
 1604POPC   C3B22977  21.188   5.177   7.960
 1604POPC   C4B22978  21.258   4.800   7.697
 1605POPC   NC322979  41.089  13.540   9.558
 1605POPC   PO422980  41.732  13.754   9.674
 1605POPC   GL122981  41.496  13.679   9.265
 1605POPC   GL222982  41.438  13.296   9.235
 1605POPC   C1A22983  41.592  13.596   8.823
 1605POPC   D2A22984  41.949  13.699   8.562
 1605POPC   C3A22985  41.917  13.819   8.102
 1605POPC   C4A22986  41.657  13.734   7.725
 1605POPC   C1B22987  41.393  13.134   8.807
 1605POPC   C2B22988  41.532  13.076   8.377
 1605POPC   C3B22989  41.452  13.243   7.945
 1605POPC   C4B22990  41.433  13.321   7.464
 1606POPC   NC322991   5.980  23.563   9.425
 1606POPC   PO422992   5.540  24.065   9.502
 1606POPC   GL122993   5.662  23.871   9.143
 1606POPC   GL222994   5.947  24.043   9.149
 1606POPC   C1A22995   5.828  23.597   8.795
 1606POPC   D2A22996   6.088  23.442   8.458
 1606POPC   C3A22997   5.771  23.400   8.135
 1606POPC   C4A22998   5.698  23.646   7.772
 1606POPC   C1B22999   5.815  24.110   8.714
 1606POPC   C2B23000   5.804  23.880   8.306
 1606POPC   C3B23001   6.143  23.743   8.017
 1606POPC   C4B23002   6.139  23.804   7.569
 1607POPC   NC323003  28.847   0.780   9.429
 1607POPC   PO423004  29.416   0.958   9.696
 1607POPC   GL123005  29.246   1.090   9.274
 1607POPC   GL223006  29.064   1.408   9.218
 1607POPC   C1A23007  29.228   1.052   8.818
 1607POPC   D2A23008  29.500   1.285   8.514
 1607POPC   C3A23009  29.282   1.370   8.098
 1607POPC   C4A23010  29.312   1.401   7.621
 1607POPC   C1B23011  29.146   1.554   8.790
 1607POPC   C2B23012  28.959   1.340   8.483
 1607POPC   C3B23013  28.740   1.344   8.142
 1607POPC   C4B23014  28.893   1.575   7.805
 1608POPC   NC323015  24.626  13.308   9.483
 1608POPC   PO423016  24.081  13.690   9.321
 1608POPC   GL123017  24.443  13.595   9.103
 1608POPC   GL223018  24.668  13.861   9.136
 1608POPC   C1A23019  24.533  13.587   8.695
 1608POPC   D2A23020  24.344  13.687   8.344
 1608POPC   C3A23021  24.466  13.471   7.969
 1608POPC   C4A23022  24.377  13.524   7.571
 1608POPC   C1B23023  24.952  13.845   8.801
 1608POPC   C2B23024  24.759  13.980   8.447
 1608POPC   C3B23025  24.627  13.941   8.017
 1608POPC   C4B23026  24.730  13.880   7.609
 1609POPC   NC323027  39.421  21.039   9.365
 1609POPC   PO423028  39.647  21.641   9.457
 1609POPC   GL123029  39.250  21.539   9.231
 1609POPC   GL223030  39.022  21.823   9.114
 1609POPC   C1A23031  39.036  21.341   8.852
 1609POPC   D2A23032  38.779  21.298   8.446
 1609POPC   C3A23033  38.973  21.456   8.058
 1609POPC   C4A23034  39.087  21.230   7.676
 1609POPC   C1B23035  39.365  21.789   8.799
 1609POPC   C2B23036  39.432  21.932   8.387
 1609POPC   C3B23037  39.602  21.828   7.984
 1609POPC   C4B23038  39.385  21.679   7.613
 1610POPC   NC323039   1.763  44.081   9.481
 1610POPC   PO423040   2.152  43.442   9.487
 1610POPC   GL123041   2.003  43.747   9.164
 1610POPC   GL223042   1.824  43.537   9.024
 1610POPC   C1A23043   2.123  44.085   8.845
 1610POPC   D2A23044   2.457  44.144   8.509
 1610POPC   C3A23045   2.315  44.024   8.086
 1610POPC   C4A23046   2.085  44.259   7.773
 1610POPC   C1B23047   1.954  43.667   8.610
 1610POPC   C2B23048   1.795  43.931   8.281
 1610POPC   C3B23049   1.807  43.855   7.859
 1610POPC   C4B23050   2.227  43.779   7.625
 1611POPC   NC323051   0.503  38.155   9.876
 1611POPC   PO423052   0.342  38.685   9.498
 1611POPC   GL123053   0.382  38.358   9.170
 1611POPC   GL223054   0.707  38.387   9.127
 1611POPC   C1A23055   0.481  38.168   8.745
 1611POPC   D2A23056   0.614  38.383   8.410
 1611POPC   C3A23057   0.336  38.404   8.084
 1611POPC   C4A23058   0.353  38.080   7.830
 1611POPC   C1B23059   0.669  38.755   8.863
 1611POPC   C2B23060   0.557  38.872   8.444
 1611POPC   C3B23061   0.728  38.733   8.036
 1611POPC   C4B23062   0.591  38.801   7.638
 1612POPC   NC323063  25.036   8.442   9.574
 1612POPC   PO423064  25.539   8.029   9.520
 1612POPC   GL123065  25.266   8.129   9.179
 1612POPC   GL223066  25.386   8.438   9.191
 1612POPC   C1A23067  25.189   8.258   8.750
 1612POPC   D2A23068  25.182   8.095   8.353
 1612POPC   C3A23069  24.991   8.344   8.040
 1612POPC   C4A23070  25.076   8.128   7.656
 1612POPC   C1B23071  25.658   8.455   8.859
 1612POPC   C2B23072  25.559   8.458   8.455
 1612POPC   C3B23073  25.536   8.335   8.047
 1612POPC   C4B23074  25.339   8.544   7.732
 1613POPC   NC323075  10.342  11.403   9.572
 1613POPC   PO423076  10.920  11.098   9.685
 1613POPC   GL123077  10.794  11.334   9.308
 1613POPC   GL223078  10.578  11.053   9.267
 1613POPC   C1A23079  10.528  11.468   8.900
 1613POPC   D2A23080  10.455  11.370   8.431
 1613POPC   C3A23081  10.355  11.526   7.985
 1613POPC   C4A23082  10.192  11.336   7.608
 1613POPC   C1B23083  10.848  11.063   8.879
 1613POPC   C2B23084  10.694  10.932   8.477
 1613POPC   C3B23085  10.538  10.977   8.048
 1613POPC   C4B23086  10.923  10.868   7.799
 1614POPC   NC323087   7.785  11.200   9.534
 1614POPC   PO423088   7.053  11.323   9.573
 1614POPC   GL123089   7.292  11.225   9.186
 1614POPC   GL223090   7.651  11.282   9.042
 1614POPC   C1A23091   7.254  11.123   8.771
 1614POPC   D2A23092   7.500  11.197   8.418
 1614POPC   C3A23093   7.168  11.146   8.082
 1614POPC   C4A23094   7.135  11.229   7.634
 1614POPC   C1B23095   7.867  11.478   8.683
 1614POPC   C2B23096   7.720  11.648   8.280
 1614POPC   C3B23097   7.564  11.414   7.915
 1614POPC   C4B23098   7.591  11.411   7.453
 1615POPC   NC323099  17.452   0.044   9.620
 1615POPC   PO423100  17.798  44.423   9.593
 1615POPC   GL123101  17.633  44.609   9.230
 1615POPC   GL223102  17.489  44.296   9.101
 1615POPC   C1A23103  17.754  44.631   8.801
 1615POPC   D2A23104  17.888  44.375   8.447
 1615POPC   C3A23105  17.665  44.507   8.079
 1615POPC   C4A23106  17.712  44.650   7.652
 1615POPC   C1B23107  17.324  44.384   8.655
 1615POPC   C2B23108  17.151  44.659   8.329
 1615POPC   C3B23109  17.217  44.667   7.874
 1615POPC   C4B23110  17.302  44.223   7.777
 1616POPC   NC323111   5.163  42.152   9.473
 1616POPC   PO423112   5.057  42.807   9.606
 1616POPC   GL123113   4.918  42.579   9.174
 1616POPC   GL223114   5.013  42.236   9.008
 1616POPC   C1A23115   5.157  42.627   8.751
 1616POPC   D2A23116   5.219  42.275   8.464
 1616POPC   C3A23117   5.315  42.497   8.113
 1616POPC   C4A23118   5.018  42.579   7.755
 1616POPC   C1B23119   4.713  42.380   8.705
 1616POPC   C2B23120   4.706  42.222   8.293
 1616POPC   C3B23121   5.014  42.112   7.975
 1616POPC   C4B23122   4.977  42.016   7.551
 1617POPC   NC323123  29.466  11.833   9.376
 1617POPC   PO423124  28.962  12.191   9.642
 1617POPC   GL123125  28.985  12.043   9.177
 1617POPC   GL223126  28.902  12.383   9.107
 1617POPC   C1A23127  29.200  11.853   8.777
 1617POPC   D2A23128  28.958  11.884   8.401
 1617POPC   C3A23129  29.165  11.865   8.014
 1617POPC   C4A23130  29.214  12.071   7.664
 1617POPC   C1B23131  29.090  12.336   8.686
 1617POPC   C2B23132  29.391  12.186   8.390
 1617POPC   C3B23133  29.473  12.373   7.997
 1617POPC   C4B23134  29.618  12.359   7.556
 1618POPC   NC323135  18.199   7.065   9.290
 1618POPC   PO423136  18.525   6.466   9.422
 1618POPC   GL123137  18.602   6.466   9.020
 1618POPC   GL223138  18.745   6.808   9.037
 1618POPC   C1A23139  18.254   6.327   8.739
 1618POPC   D2A23140  18.019   6.566   8.438
 1618POPC   C3A23141  18.079   6.488   8.005
 1618POPC   C4A23142  17.962   6.453   7.564
 1618POPC   C1B23143  18.487   6.788   8.631
 1618POPC   C2B23144  18.538   6.673   8.168
 1618POPC   C3B23145  18.457   6.715   7.713
 1618POPC   C4B23146  18.604   6.834   7.263
 1619POPC   NC323147   4.492  23.145   9.581
 1619POPC   PO423148   4.176  22.597   9.652
 1619POPC   GL123149   4.377  22.766   9.255
 1619POPC   GL223150   4.655  22.575   9.079
 1619POPC   C1A23151   4.422  23.021   8.892
 1619POPC   D2A23152   4.586  23.009   8.490
 1619POPC   C3A23153   4.349  22.998   8.095
 1619POPC   C4A23154   4.385  22.871   7.676
 1619POPC   C1B23155   4.273  22.557   8.787
 1619POPC   C2B23156   4.030  22.705   8.435
 1619POPC   C3B23157   4.003  22.619   7.996
 1619POPC   C4B23158   3.983  22.578   7.538
 1620POPC   NC323159  13.896  10.381   9.555
 1620POPC   PO423160  13.842  11.016   9.407
 1620POPC   GL123161  13.545  10.702   9.199
 1620POPC   GL223162  13.601  10.305   9.134
 1620POPC   C1A23163  13.406  10.691   8.779
 1620POPC   D2A23164  13.615  10.562   8.400
 1620POPC   C3A23165  13.534  10.797   8.030
 1620POPC   C4A23166  13.274  10.483   7.849
 1620POPC   C1B23167  13.901  10.511   8.857
 1620POPC   C2B23168  14.126  10.390   8.501
 1620POPC   C3B23169  14.024  10.474   8.094
 1620POPC   C4B23170  13.765  10.452   7.722
 1621POPC   NC323171  18.743  11.382   9.471
 1621POPC   PO423172  18.152  11.185   9.655
 1621POPC   GL123173  18.295  11.246   9.203
 1621POPC   GL223174  18.497  11.550   9.076
 1621POPC   C1A23175  18.116  11.102   8.804
 1621POPC   D2A23176  18.301  11.068   8.376
 1621POPC   C3A23177  18.040  11.167   8.030
 1621POPC   C4A23178  18.122  11.217   7.598
 1621POPC   C1B23179  18.387  11.514   8.676
 1621POPC   C2B23180  18.626  11.461   8.294
 1621POPC   C3B23181  18.466  11.488   7.875
 1621POPC   C4B23182  18.425  11.599   7.433
 1622POPC   NC323183  39.667  27.001   9.514
 1622POPC   PO423184  40.126  26.595   9.709
 1622POPC   GL123185  39.966  26.663   9.273
 1622POPC   GL223186  39.758  26.423   9.130
 1622POPC   C1A23187  40.120  26.739   8.835
 1622POPC   D2A23188  39.946  26.964   8.482
 1622POPC   C3A23189  40.105  26.909   8.084
 1622POPC   C4A23190  40.195  27.164   7.751
 1622POPC   C1B23191  39.620  26.768   8.853
 1622POPC   C2B23192  39.477  26.728   8.465
 1622POPC   C3B23193  39.698  26.571   8.128
 1622POPC   C4B23194  39.698  26.798   7.783
 1623POPC   NC323195  21.990  34.730   9.566
 1623POPC   PO423196  22.403  34.220   9.444
 1623POPC   GL123197  22.216  34.464   9.085
 1623POPC   GL223198  21.892  34.482   9.112
 1623POPC   C1A23199  22.404  34.709   8.752
 1623POPC   D2A23200  22.581  34.601   8.378
 1623POPC   C3A23201  22.435  34.842   8.032
 1623POPC   C4A23202  22.258  34.848   7.626
 1623POPC   C1B23203  21.911  34.834   8.820
 1623POPC   C2B23204  22.077  34.978   8.401
 1623POPC   C3B23205  21.890  34.889   7.988
 1623POPC   C4B23206  21.909  34.480   7.749
 1624POPC   NC323207   9.911   1.530   9.535
 1624POPC   PO423208   9.936   2.240   9.654
 1624POPC   GL123209   9.757   2.006   9.293
 1624POPC   GL223210   9.558   1.687   9.191
 1624POPC   C1A23211   9.643   2.087   8.879
 1624POPC   D2A23212   9.561   1.846   8.498
 1624POPC   C3A23213   9.553   2.119   8.133
 1624POPC   C4A23214   9.434   2.034   7.724
 1624POPC   C1B23215   9.909   1.615   8.844
 1624POPC   C2B23216  10.067   1.654   8.374
 1624POPC   C3B23217   9.923   1.792   7.914
 1624POPC   C4B23218  10.099   1.703   7.468
 1625POPC   NC323219  34.610  10.928   9.445
 1625POPC   PO423220  34.433  10.309   9.501
 1625POPC   GL123221  34.655  10.436   9.117
 1625POPC   GL223222  34.873  10.752   9.051
 1625POPC   C1A23223  34.522  10.602   8.731
 1625POPC   D2A23224  34.629  10.832   8.398
 1625POPC   C3A23225  34.456  10.664   8.029
 1625POPC   C4A23226  34.533  10.465   7.639
 1625POPC   C1B23227  35.010  10.548   8.666
 1625POPC   C2B23228  34.761  10.321   8.325
 1625POPC   C3B23229  34.825  10.145   7.904
 1625POPC   C4B23230  35.011  10.387   7.537
 1626POPC   NC323231  40.614   9.015   9.686
 1626POPC   PO423232  39.947   9.206   9.700
 1626POPC   GL123233  40.083   8.952   9.336
 1626POPC   GL223234  39.893   9.213   9.163
 1626POPC   C1A23235  40.209   8.892   8.870
 1626POPC   D2A23236  39.960   9.027   8.498
 1626POPC   C3A23237  39.944   8.839   8.082
 1626POPC   C4A23238  40.020   8.534   7.766
 1626POPC   C1B23239  40.108   9.401   8.840
 1626POPC   C2B23240  40.269   9.431   8.421
 1626POPC   C3B23241  40.190   9.289   8.030
 1626POPC   C4B23242  39.923   9.198   7.675
 1627POPC   NC323243   1.579   8.614   9.408
 1627POPC   PO423244   1.100   8.997   9.674
 1627POPC   GL123245   1.098   8.874   9.232
 1627POPC   GL223246   1.424   8.988   9.083
 1627POPC   C1A23247   1.020   8.811   8.789
 1627POPC   D2A23248   1.334   8.762   8.454
 1627POPC   C3A23249   1.315   8.807   8.034
 1627POPC   C4A23250   0.914   8.881   7.884
 1627POPC   C1B23251   1.273   9.245   8.734
 1627POPC   C2B23252   1.067   9.179   8.319
 1627POPC   C3B23253   1.222   9.307   7.915
 1627POPC   C4B23254   1.510   9.468   7.582
 1628POPC   NC323255  18.859  42.264   9.548
 1628POPC   PO423256  19.498  42.248   9.251
 1628POPC   GL123257  19.080  42.159   9.104
 1628POPC   GL223258  18.835  42.474   9.091
 1628POPC   C1A23259  19.092  42.277   8.694
 1628POPC   D2A23260  19.355  42.127   8.351
 1628POPC   C3A23261  19.235  42.273   7.976
 1628POPC   C4A23262  18.809  42.227   7.853
 1628POPC   C1B23263  18.638  42.550   8.702
 1628POPC   C2B23264  18.893  42.530   8.302
 1628POPC   C3B23265  18.955  42.725   7.919
 1628POPC   C4B23266  18.713  42.621   7.549
 1629POPC   NC323267  37.478  38.615   9.558
 1629POPC   PO423268  37.934  38.047   9.364
 1629POPC   GL123269  37.590  38.291   9.137
 1629POPC   GL223270  37.548  38.671   9.075
 1629POPC   C1A23271  37.592  38.375   8.680
 1629POPC   D2A23272  37.648  38.643   8.334
 1629POPC   C3A23273  37.857  38.422   8.007
 1629POPC   C4A23274  37.767  38.275   7.593
 1629POPC   C1B23275  37.385  39.010   8.830
 1629POPC   C2B23276  37.323  39.045   8.396
 1629POPC   C3B23277  37.234  38.764   8.059
 1629POPC   C4B23278  37.367  38.599   7.673
 1630POPC   NC323279  38.149  14.178   9.544
 1630POPC   PO423280  38.827  14.128   9.421
 1630POPC   GL123281  38.542  14.331   9.133
 1630POPC   GL223282  38.192  14.523   9.167
 1630POPC   C1A23283  38.551  14.244   8.700
 1630POPC   D2A23284  38.491  14.506   8.354
 1630POPC   C3A23285  38.794  14.492   8.026
 1630POPC   C4A23286  38.796  14.157   7.777
 1630POPC   C1B23287  38.080  14.410   8.733
 1630POPC   C2B23288  38.145  14.024   8.453
 1630POPC   C3B23289  38.363  14.032   8.071
 1630POPC   C4B23290  38.316  14.440   7.868
 1631POPC   NC323291  32.050  32.591   9.518
 1631POPC   PO423292  32.394  33.222   9.506
 1631POPC   GL123293  32.197  33.098   9.141
 1631POPC   GL223294  32.306  33.405   8.999
 1631POPC   C1A23295  32.242  32.775   8.829
 1631POPC   D2A23296  32.053  32.551   8.474
 1631POPC   C3A23297  32.177  32.725   8.052
 1631POPC   C4A23298  32.340  32.667   7.616
 1631POPC   C1B23299  32.126  33.214   8.630
 1631POPC   C2B23300  32.001  33.323   8.254
 1631POPC   C3B23301  32.067  33.204   7.875
 1631POPC   C4B23302  32.364  33.500   7.802
 1632POPC   NC323303  11.950  37.253   9.525
 1632POPC   PO423304  12.507  37.649   9.552
 1632POPC   GL123305  12.234  37.556   9.215
 1632POPC   GL223306  12.409  37.265   9.169
 1632POPC   C1A23307  12.014  37.455   8.822
 1632POPC   D2A23308  11.730  37.307   8.502
 1632POPC   C3A23309  11.905  37.425   8.104
 1632POPC   C4A23310  12.043  37.755   7.859
 1632POPC   C1B23311  12.529  37.456   8.777
 1632POPC   C2B23312  12.360  37.402   8.398
 1632POPC   C3B23313  12.508  37.269   8.030
 1632POPC   C4B23314  12.377  37.440   7.660
 1633POPC   NC323315  15.017  42.610   9.445
 1633POPC   PO423316  15.517  42.164   9.546
 1633POPC   GL123317  15.304  42.179   9.147
 1633POPC   GL223318  14.929  42.247   9.080
 1633POPC   C1A23319  15.220  42.050   8.694
 1633POPC   D2A23320  14.987  42.301   8.383
 1633POPC   C3A23321  14.969  42.181   7.946
 1633POPC   C4A23322  15.076  41.993   7.554
 1633POPC   C1B23323  15.202  42.549   8.810
 1633POPC   C2B23324  15.197  42.789   8.410
 1633POPC   C3B23325  15.318  42.597   8.020
 1633POPC   C4B23326  15.583  42.708   7.660
 1634POPC   NC323327  39.727  10.345   9.380
 1634POPC   PO423328  40.340  10.121   9.606
 1634POPC   GL123329  40.208  10.255   9.155
 1634POPC   GL223330  40.074  10.610   9.116
 1634POPC   C1A23331  40.100  10.312   8.691
 1634POPC   D2A23332  40.151  10.576   8.284
 1634POPC   C3A23333  40.073  10.374   7.852
 1634POPC   C4A23334  39.986  10.280   7.392
 1634POPC   C1B23335  39.768  10.697   8.751
 1634POPC   C2B23336  39.801  10.954   8.368
 1634POPC   C3B23337  39.739  10.793   7.924
 1634POPC   C4B23338  39.703  10.859   7.461
 1635POPC   NC323339  11.018  27.383   9.537
 1635POPC   PO423340  10.330  27.533   9.477
 1635POPC   GL123341  10.464  27.648   9.074
 1635POPC   GL223342  10.802  27.679   9.121
 1635POPC   C1A23343  10.543  27.744   8.649
 1635POPC   D2A23344  10.808  27.776   8.300
 1635POPC   C3A23345  10.601  27.874   7.897
 1635POPC   C4A23346  10.420  27.601   7.591
 1635POPC   C1B23347  10.896  27.370   8.802
 1635POPC   C2B23348  11.027  27.322   8.378
 1635POPC   C3B23349  10.869  27.410   7.941
 1635POPC   C4B23350  10.960  27.625   7.565
 1636POPC   NC323351  34.308  42.043   9.485
 1636POPC   PO423352  34.858  42.503   9.497
 1636POPC   GL123353  34.659  42.306   9.186
 1636POPC   GL223354  34.422  42.532   9.128
 1636POPC   C1A23355  34.675  42.296   8.748
 1636POPC   D2A23356  34.814  42.033   8.435
 1636POPC   C3A23357  34.690  42.189   8.029
 1636POPC   C4A23358  34.849  42.559   7.800
 1636POPC   C1B23359  34.181  42.458   8.767
 1636POPC   C2B23360  34.054  42.743   8.483
 1636POPC   C3B23361  34.085  42.817   8.046
 1636POPC   C4B23362  34.339  42.521   7.810
 1637POPC   NC323363  16.465  40.302   9.524
 1637POPC   PO423364  17.037  39.896   9.585
 1637POPC   GL123365  17.012  40.003   9.182
 1637POPC   GL223366  16.676  39.988   9.192
 1637POPC   C1A23367  17.030  40.141   8.767
 1637POPC   D2A23368  17.239  40.023   8.411
 1637POPC   C3A23369  16.972  40.107   8.114
 1637POPC   C4A23370  16.878  39.978   7.737
 1637POPC   C1B23371  16.552  40.259   8.871
 1637POPC   C2B23372  16.540  40.174   8.438
 1637POPC   C3B23373  16.481  39.920   8.082
 1637POPC   C4B23374  16.413  40.155   7.726
 1638POPC   NC323375  17.191  27.594   9.541
 1638POPC   PO423376  16.638  27.272   9.740
 1638POPC   GL123377  16.759  27.392   9.304
 1638POPC   GL223378  16.452  27.359   9.140
 1638POPC   C1A23379  16.807  27.634   8.878
 1638POPC   D2A23380  17.063  27.558   8.528
 1638POPC   C3A23381  17.010  27.615   8.056
 1638POPC   C4A23382  16.710  27.695   7.735
 1638POPC   C1B23383  16.620  27.201   8.737
 1638POPC   C2B23384  16.635  27.356   8.333
 1638POPC   C3B23385  16.557  27.192   7.959
 1638POPC   C4B23386  16.632  27.252   7.526
 1639POPC   NC323387   3.929  32.385   9.373
 1639POPC   PO423388   4.359  32.035   9.749
 1639POPC   GL123389   4.249  31.966   9.268
 1639POPC   GL223390   4.479  32.214   9.197
 1639POPC   C1A23391   4.204  32.140   8.777
 1639POPC   D2A23392   4.077  32.248   8.325
 1639POPC   C3A23393   4.165  32.043   7.908
 1639POPC   C4A23394   4.050  32.074   7.449
 1639POPC   C1B23395   4.675  32.394   8.817
 1639POPC   C2B23396   4.458  32.564   8.465
 1639POPC   C3B23397   4.432  32.507   8.038
 1639POPC   C4B23398   4.240  32.496   7.649
 1640POPC   NC323399  18.328   1.561   9.396
 1640POPC   PO423400  18.304   0.908   9.517
 1640POPC   GL123401  18.029   1.039   9.147
 1640POPC   GL223402  17.959   1.400   9.057
 1640POPC   C1A23403  17.976   0.894   8.700
 1640POPC   D2A23404  18.013   0.879   8.229
 1640POPC   C3A23405  18.308   1.066   7.948
 1640POPC   C4A23406  18.345   1.385   7.679
 1640POPC   C1B23407  18.295   1.290   8.776
 1640POPC   C2B23408  18.322   1.368   8.359
 1640POPC   C3B23409  18.642   1.430   8.088
 1640POPC   C4B23410  18.784   1.627   7.707
 1641POPC   NC323411  42.751  28.468   9.469
 1641POPC   PO423412  43.225  28.044   9.358
 1641POPC   GL123413  43.142  28.425   9.146
 1641POPC   GL223414  43.392  28.662   9.255
 1641POPC   C1A23415  42.994  28.453   8.739
 1641POPC   D2A23416  43.109  28.213   8.422
 1641POPC   C3A23417  43.039  28.400   8.057
 1641POPC   C4A23418  42.991  28.188   7.692
 1641POPC   C1B23419  43.554  28.463   8.845
 1641POPC   C2B23420  43.464  28.574   8.414
 1641POPC   C3B23421  43.537  28.544   8.003
 1641POPC   C4B23422  43.477  28.291   7.675
 1642POPC   NC323423   7.713  12.205   9.506
 1642POPC   PO423424   7.557  11.593   9.442
 1642POPC   GL123425   7.681  11.890   9.107
 1642POPC   GL223426   7.400  12.003   8.994
 1642POPC   C1A23427   7.771  12.324   8.865
 1642POPC   D2A23428   7.878  12.440   8.427
 1642POPC   C3A23429   7.590  12.335   8.103
 1642POPC   C4A23430   7.563  12.163   7.710
 1642POPC   C1B23431   7.365  11.628   8.761
 1642POPC   C2B23432   7.202  11.600   8.362
 1642POPC   C3B23433   7.313  11.850   8.028
 1642POPC   C4B23434   7.258  11.746   7.612
 1643POPC   NC323435  30.514  16.976   9.368
 1643POPC   PO423436  30.743  16.318   9.463
 1643POPC   GL123437  30.735  16.492   9.102
 1643POPC   GL223438  30.403  16.543   9.075
 1643POPC   C1A23439  30.854  16.599   8.692
 1643POPC   D2A23440  30.728  16.507   8.262
 1643POPC   C3A23441  30.584  16.815   7.975
 1643POPC   C4A23442  30.819  17.050   7.666
 1643POPC   C1B23443  30.339  16.669   8.653
 1643POPC   C2B23444  30.209  16.451   8.290
 1643POPC   C3B23445  30.363  16.348   7.881
 1643POPC   C4B23446  30.281  16.634   7.536
 1644POPC   NC323447  40.458  44.175   9.519
 1644POPC   PO423448  40.967  43.730   9.586
 1644POPC   GL123449  40.781  43.881   9.197
 1644POPC   GL223450  40.482  43.694   9.122
 1644POPC   C1A23451  40.912  43.723   8.791
 1644POPC   D2A23452  41.077  43.600   8.402
 1644POPC   C3A23453  40.826  43.848   8.083
 1644POPC   C4A23454  41.002  44.204   7.858
 1644POPC   C1B23455  40.413  43.852   8.700
 1644POPC   C2B23456  40.230  43.848   8.304
 1644POPC   C3B23457  40.339  43.593   7.962
 1644POPC   C4B23458  40.639  43.632   7.645
 1645POPC   NC323459  25.883   1.049   9.482
 1645POPC   PO423460  25.774   1.752   9.246
 1645POPC   GL123461  25.902   1.340   9.036
 1645POPC   GL223462  25.772   0.959   9.002
 1645POPC   C1A23463  25.914   1.309   8.573
 1645POPC   D2A23464  26.234   1.487   8.278
 1645POPC   C3A23465  26.140   1.596   7.869
 1645POPC   C4A23466  25.741   1.496   7.724
 1645POPC   C1B23467  26.153   0.923   8.800
 1645POPC   C2B23468  26.260   0.969   8.359
 1645POPC   C3B23469  26.031   1.095   7.966
 1645POPC   C4B23470  25.579   1.031   7.827
 1646POPC   NC323471   7.534  14.618   9.633
 1646POPC   PO423472   7.138  14.152   9.473
 1646POPC   GL123473   7.356  14.447   9.178
 1646POPC   GL223474   7.554  14.785   9.140
 1646POPC   C1A23475   7.480  14.426   8.753
 1646POPC   D2A23476   7.402  14.152   8.441
 1646POPC   C3A23477   7.550  14.282   8.067
 1646POPC   C4A23478   7.604  14.083   7.704
 1646POPC   C1B23479   7.145  14.777   8.856
 1646POPC   C2B23480   7.061  14.580   8.450
 1646POPC   C3B23481   7.184  14.700   8.057
 1646POPC   C4B23482   7.490  14.811   7.774
 1647POPC   NC323483  31.794  15.749   9.734
 1647POPC   PO423484  32.336  16.209   9.725
 1647POPC   GL123485  32.268  16.165   9.245
 1647POPC   GL223486  32.345  15.801   9.117
 1647POPC   C1A23487  32.079  16.155   8.836
 1647POPC   D2A23488  32.255  16.199   8.443
 1647POPC   C3A23489  32.049  16.108   8.079
 1647POPC   C4A23490  31.900  16.359   7.786
 1647POPC   C1B23491  32.496  15.814   8.700
 1647POPC   C2B23492  32.469  15.701   8.245
 1647POPC   C3B23493  32.390  15.844   7.810
 1647POPC   C4B23494  32.507  15.819   7.380
 1648POPC   NC323495  40.991  24.937   9.524
 1648POPC   PO423496  40.353  24.994   9.512
 1648POPC   GL123497  40.642  25.060   9.160
 1648POPC   GL223498  40.948  25.306   9.159
 1648POPC   C1A23499  40.625  25.234   8.762
 1648POPC   D2A23500  40.379  25.117   8.420
 1648POPC   C3A23501  40.590  25.273   8.063
 1648POPC   C4A23502  40.956  25.189   7.821
 1648POPC   C1B23503  41.125  25.050   8.823
 1648POPC   C2B23504  40.955  25.091   8.401
 1648POPC   C3B23505  41.007  25.517   8.251
 1648POPC   C4B23506  41.268  25.581   7.910
 1649POPC   NC323507  36.850  39.567   9.291
 1649POPC   PO423508  37.130  38.937   9.467
 1649POPC   GL123509  36.816  38.947   9.121
 1649POPC   GL223510  36.575  39.231   9.022
 1649POPC   C1A23511  36.615  38.801   8.753
 1649POPC   D2A23512  36.840  38.842   8.373
 1649POPC   C3A23513  36.908  39.191   8.127
 1649POPC   C4A23514  37.146  39.158   7.756
 1649POPC   C1B23515  36.951  39.267   8.701
 1649POPC   C2B23516  37.218  39.554   8.401
 1649POPC   C3B23517  37.181  39.636   7.957
 1649POPC   C4B23518  36.791  39.514   7.738
 1650POPC   NC323519  20.750  28.201   9.489
 1650POPC   PO423520  20.537  27.583   9.629
 1650POPC   GL123521  20.436  27.334   9.257
 1650POPC   GL223522  20.443  27.653   9.086
 1650POPC   C1A23523  20.384  27.234   8.796
 1650POPC   D2A23524  20.424  27.512   8.422
 1650POPC   C3A23525  20.390  27.312   8.022
 1650POPC   C4A23526  20.331  27.570   7.625
 1650POPC   C1B23527  20.754  27.676   8.781
 1650POPC   C2B23528  20.796  27.933   8.428
 1650POPC   C3B23529  20.633  27.778   8.008
 1650POPC   C4B23530  20.812  27.395   7.759
 1651POPC   NC323531  22.505  35.195   9.551
 1651POPC   PO423532  21.890  35.190   9.670
 1651POPC   GL123533  22.063  35.122   9.248
 1651POPC   GL223534  21.719  35.128   9.185
 1651POPC   C1A23535  22.138  35.284   8.824
 1651POPC   D2A23536  22.227  35.617   8.514
 1651POPC   C3A23537  22.203  35.457   8.097
 1651POPC   C4A23538  22.409  35.540   7.700
 1651POPC   C1B23539  21.644  35.418   8.828
 1651POPC   C2B23540  21.771  35.383   8.399
 1651POPC   C3B23541  21.702  35.381   7.963
 1651POPC   C4B23542  21.976  35.283   7.642
 1652POPC   NC323543  29.193   8.602   9.384
 1652POPC   PO423544  28.664   9.025   9.352
 1652POPC   GL123545  29.103   9.011   9.082
 1652POPC   GL223546  29.463   9.146   9.215
 1652POPC   C1A23547  29.204   8.766   8.680
 1652POPC   D2A23548  28.931   8.587   8.326
 1652POPC   C3A23549  28.874   8.832   7.946
 1652POPC   C4A23550  28.750   8.859   7.525
 1652POPC   C1B23551  29.560   9.189   8.775
 1652POPC   C2B23552  29.249   9.253   8.461
 1652POPC   C3B23553  29.132   9.269   8.039
 1652POPC   C4B23554  29.361   8.966   7.832
 1653POPC   NC323555  32.759  10.829   9.482
 1653POPC   PO423556  33.375  10.482   9.517
 1653POPC   GL123557  33.209  10.598   9.160
 1653POPC   GL223558  32.886  10.431   9.151
 1653POPC   C1A23559  33.223  10.424   8.738
 1653POPC   D2A23560  32.959  10.224   8.379
 1653POPC   C3A23561  33.203  10.388   8.068
 1653POPC   C4A23562  33.497  10.325   7.773
 1653POPC   C1B23563  32.729  10.503   8.736
 1653POPC   C2B23564  32.805  10.693   8.290
 1653POPC   C3B23565  32.719  10.451   7.891
 1653POPC   C4B23566  32.762  10.482   7.403
 1654POPC   NC323567  37.270  14.173   9.871
 1654POPC   PO423568  36.860  13.822   9.442
 1654POPC   GL123569  37.044  13.668   9.114
 1654POPC   GL223570  37.297  13.357   9.140
 1654POPC   C1A23571  36.875  13.771   8.704
 1654POPC   D2A23572  36.591  13.826   8.357
 1654POPC   C3A23573  36.792  13.534   8.111
 1654POPC   C4A23574  37.144  13.516   7.833
 1654POPC   C1B23575  36.948  13.267   8.850
 1654POPC   C2B23576  36.613  13.277   8.585
 1654POPC   C3B23577  36.536  13.085   8.170
 1654POPC   C4B23578  36.748  13.157   7.780
 1655POPC   NC323579  13.407  44.308   9.426
 1655POPC   PO423580  13.685  43.711   9.403
 1655POPC   GL123581  13.622  43.991   9.084
 1655POPC   GL223582  13.957  43.988   9.042
 1655POPC   C1A23583  13.568  44.049   8.649
 1655POPC   D2A23584  13.686  43.769   8.303
 1655POPC   C3A23585  13.426  43.766   7.955
 1655POPC   C4A23586  13.308  44.113   7.674
 1655POPC   C1B23587  14.034  43.809   8.675
 1655POPC   C2B23588  14.136  44.021   8.276
 1655POPC   C3B23589  13.935  43.965   7.873
 1655POPC   C4B23590  13.805  43.576   7.691
 1656POPC   NC323591  32.468  41.018   9.643
 1656POPC   PO423592  31.862  40.715   9.696
 1656POPC   GL123593  32.218  40.640   9.333
 1656POPC   GL223594  32.302  40.945   9.143
 1656POPC   C1A23595  32.373  40.511   8.877
 1656POPC   D2A23596  32.341  40.313   8.418
 1656POPC   C3A23597  32.219  40.622   8.076
 1656POPC   C4A23598  32.470  40.880   7.806
 1656POPC   C1B23599  32.086  40.934   8.721
 1656POPC   C2B23600  31.884  40.997   8.303
 1656POPC   C3B23601  32.023  41.135   7.898
 1656POPC   C4B23602  32.071  40.884   7.491
 1657POPC   NC323603  20.998  42.938   9.584
 1657POPC   PO423604  21.666  43.109   9.659
 1657POPC   GL123605  21.445  43.109   9.277
 1657POPC   GL223606  21.698  43.383   9.189
 1657POPC   C1A23607  21.218  42.982   8.899
 1657POPC   D2A23608  21.391  43.037   8.488
 1657POPC   C3A23609  21.254  43.185   8.094
 1657POPC   C4A23610  21.110  42.940   7.749
 1657POPC   C1B23611  21.447  43.445   8.851
 1657POPC   C2B23612  21.640  43.481   8.455
 1657POPC   C3B23613  21.619  43.604   8.057
 1657POPC   C4B23614  21.880  43.581   7.739
 1658POPC   NC323615  44.780  21.145   9.664
 1658POPC   PO423616  44.390  21.742   9.648
 1658POPC   GL123617  44.694  21.523   9.317
 1658POPC   GL223618  44.612  21.179   9.189
 1658POPC   C1A23619  44.945  21.491   8.920
 1658POPC   D2A23620   0.073  21.497   8.501
 1658POPC   C3A23621  44.700  21.361   8.279
 1658POPC   C4A23622  44.479  21.448   7.889
 1658POPC   C1B23623  44.743  21.003   8.787
 1658POPC   C2B23624  44.615  20.853   8.388
 1658POPC   C3B23625  44.716  20.946   7.964
 1658POPC   C4B23626  44.789  21.133   7.568
 1659POPC   NC323627  26.027  25.714   9.769
 1659POPC   PO423628  26.191  26.297   9.458
 1659POPC   GL123629  25.930  26.154   9.163
 1659POPC   GL223630  25.940  25.803   9.225
 1659POPC   C1A23631  26.088  26.155   8.762
 1659POPC   D2A23632  26.322  26.108   8.398
 1659POPC   C3A23633  26.086  26.158   8.014
 1659POPC   C4A23634  26.092  25.945   7.644
 1659POPC   C1B23635  25.845  25.693   8.782
 1659POPC   C2B23636  25.866  25.842   8.361
 1659POPC   C3B23637  25.768  25.685   7.923
 1659POPC   C4B23638  25.751  25.530   7.450
 1660POPC   NC323639  20.332  26.204   9.529
 1660POPC   PO423640  20.848  25.727   9.648
 1660POPC   GL123641  20.698  25.714   9.243
 1660POPC   GL223642  20.817  26.062   9.126
 1660POPC   C1A23643  20.539  25.689   8.822
 1660POPC   D2A23644  20.628  25.964   8.487
 1660POPC   C3A23645  20.637  25.762   8.107
 1660POPC   C4A23646  20.608  25.939   7.731
 1660POPC   C1B23647  20.837  26.352   8.728
 1660POPC   C2B23648  20.607  26.465   8.321
 1660POPC   C3B23649  20.710  26.439   7.871
 1660POPC   C4B23650  21.023  26.527   7.534
 1661POPC   NC323651  13.178  44.732   9.855
 1661POPC   PO423652  13.748  44.585   9.569
 1661POPC   GL123653  13.801  44.487   9.141
 1661POPC   GL223654  14.148  44.444   9.126
 1661POPC   C1A23655  13.606  44.626   8.755
 1661POPC   D2A23656  13.713  44.973   8.479
 1661POPC   C3A23657  13.634  44.917   8.036
 1661POPC   C4A23658  13.333  44.664   7.793
 1661POPC   C1B23659  14.026  44.336   8.691
 1661POPC   C2B23660  13.780  44.403   8.305
 1661POPC   C3B23661  13.814  44.470   7.855
 1661POPC   C4B23662  14.035  44.408   7.481
 1662POPC   NC323663  38.745   0.913   9.575
 1662POPC   PO423664  38.377   1.515   9.716
 1662POPC   GL123665  38.460   1.410   9.263
 1662POPC   GL223666  38.444   1.033   9.176
 1662POPC   C1A23667  38.316   1.369   8.814
 1662POPC   D2A23668  38.426   1.219   8.394
 1662POPC   C3A23669  38.283   1.431   8.035
 1662POPC   C4A23670  38.600   1.441   7.829
 1662POPC   C1B23671  38.253   0.846   8.787
 1662POPC   C2B23672  38.075   0.859   8.348
 1662POPC   C3B23673  38.300   0.917   7.978
 1662POPC   C4B23674  38.121   1.034   7.615
 1663POPC   NC323675  39.042  18.868   9.491
 1663POPC   PO423676  39.260  19.426   9.493
 1663POPC   GL123677  39.276  19.180   9.125
 1663POPC   GL223678  39.413  18.826   9.163
 1663POPC   C1A23679  39.122  19.252   8.692
 1663POPC   D2A23680  39.029  19.386   8.294
 1663POPC   C3A23681  38.779  19.064   8.130
 1663POPC   C4A23682  38.935  18.823   7.787
 1663POPC   C1B23683  39.458  18.879   8.748
 1663POPC   C2B23684  39.220  18.837   8.385
 1663POPC   C3B23685  39.309  19.061   8.035
 1663POPC   C4B23686  39.471  18.987   7.695
 1664POPC   NC323687   4.827  34.303   9.765
 1664POPC   PO423688   5.186  34.795   9.844
 1664POPC   GL123689   4.968  34.657   9.395
 1664POPC   GL223690   4.840  34.329   9.244
 1664POPC   C1A23691   4.981  34.764   8.925
 1664POPC   D2A23692   5.208  34.821   8.516
 1664POPC   C3A23693   5.053  34.742   8.115
 1664POPC   C4A23694   5.096  34.561   7.701
 1664POPC   C1B23695   5.107  34.276   8.866
 1664POPC   C2B23696   4.918  34.378   8.471
 1664POPC   C3B23697   4.828  34.285   8.046
 1664POPC   C4B23698   4.716  34.275   7.585
 1665POPC   NC323699  16.816  18.727   9.686
 1665POPC   PO423700  17.460  18.623   9.456
 1665POPC   GL123701  17.032  18.756   9.215
 1665POPC   GL223702  16.986  19.105   9.079
 1665POPC   C1A23703  16.787  18.745   8.797
 1665POPC   D2A23704  16.971  19.075   8.473
 1665POPC   C3A23705  16.788  19.180   8.073
 1665POPC   C4A23706  16.822  19.052   7.663
 1665POPC   C1B23707  16.634  19.250   8.816
 1665POPC   C2B23708  16.330  19.361   8.528
 1665POPC   C3B23709  16.263  19.268   8.121
 1665POPC   C4B23710  16.444  19.394   7.707
 1666POPC   NC323711  37.601  34.751   9.631
 1666POPC   PO423712  38.075  34.360   9.777
 1666POPC   GL123713  37.912  34.417   9.314
 1666POPC   GL223714  37.675  34.673   9.144
 1666POPC   C1A23715  38.038  34.478   8.867
 1666POPC   D2A23716  37.812  34.744   8.612
 1666POPC   C3A23717  37.786  34.636   8.187
 1666POPC   C4A23718  37.978  34.690   7.787
 1666POPC   C1B23719  37.566  34.284   8.931
 1666POPC   C2B23720  37.521  34.180   8.496
 1666POPC   C3B23721  37.337  34.320   8.131
 1666POPC   C4B23722  37.508  34.481   7.770
 1667POPC   NC323723  42.993   3.738   9.391
 1667POPC   PO423724  43.480   3.339   9.554
 1667POPC   GL123725  43.376   3.500   9.138
 1667POPC   GL223726  43.054   3.319   9.084
 1667POPC   C1A23727  43.305   3.885   8.825
 1667POPC   D2A23728  43.013   3.942   8.448
 1667POPC   C3A23729  43.031   3.668   8.033
 1667POPC   C4A23730  42.911   3.521   7.575
 1667POPC   C1B23731  43.201   3.417   8.654
 1667POPC   C2B23732  43.456   3.302   8.303
 1667POPC   C3B23733  43.250   3.207   7.925
 1667POPC   C4B23734  43.139   3.061   7.542
 1668POPC   NC323735  26.997  12.608   9.338
 1668POPC   PO423736  26.527  13.079   9.419
 1668POPC   GL123737  26.661  12.868   9.056
 1668POPC   GL223738  26.480  12.576   9.003
 1668POPC   C1A23739  26.808  13.035   8.674
 1668POPC   D2A23740  27.045  13.326   8.383
 1668POPC   C3A23741  27.157  13.183   7.948
 1668POPC   C4A23742  26.879  13.240   7.570
 1668POPC   C1B23743  26.724  12.484   8.661
 1668POPC   C2B23744  26.652  12.711   8.307
 1668POPC   C3B23745  26.677  12.976   8.008
 1668POPC   C4B23746  26.904  12.753   7.760
 1669POPC   NC323747  34.517  12.495   9.533
 1669POPC   PO423748  34.351  11.833   9.606
 1669POPC   GL123749  34.522  12.042   9.271
 1669POPC   GL223750  34.561  11.758   9.083
 1669POPC   C1A23751  34.676  12.251   8.916
 1669POPC   D2A23752  34.506  12.471   8.572
 1669POPC   C3A23753  34.542  12.279   8.171
 1669POPC   C4A23754  34.300  12.273   7.809
 1669POPC   C1B23755  34.382  11.839   8.711
 1669POPC   C2B23756  34.532  11.762   8.319
 1669POPC   C3B23757  34.884  11.675   8.092
 1669POPC   C4B23758  34.732  11.966   7.786
 1670POPC   NC323759  42.470  41.989   9.386
 1670POPC   PO423760  42.880  41.631   9.689
 1670POPC   GL123761  42.559  41.500   9.230
 1670POPC   GL223762  42.228  41.591   9.151
 1670POPC   C1A23763  42.502  41.694   8.730
 1670POPC   D2A23764  42.336  41.735   8.325
 1670POPC   C3A23765  42.608  41.847   7.976
 1670POPC   C4A23766  42.656  41.645   7.590
 1670POPC   C1B23767  42.235  41.288   8.836
 1670POPC   C2B23768  42.243  41.229   8.394
 1670POPC   C3B23769  42.417  41.354   7.969
 1670POPC   C4B23770  42.193  41.429   7.567
 1671POPC   NC323771   9.604  22.615   9.525
 1671POPC   PO423772   9.881  23.208   9.449
 1671POPC   GL123773   9.677  22.924   9.104
 1671POPC   GL223774   9.503  22.609   9.046
 1671POPC   C1A23775   9.774  22.855   8.665
 1671POPC   D2A23776  10.001  22.737   8.284
 1671POPC   C3A23777   9.775  22.831   7.932
 1671POPC   C4A23778   9.834  22.975   7.532
 1671POPC   C1B23779   9.272  22.668   8.741
 1671POPC   C2B23780   9.154  22.680   8.371
 1671POPC   C3B23781   9.318  22.587   7.966
 1671POPC   C4B23782   9.344  22.897   7.663
 1672POPC   NC323783  27.137   4.431   9.404
 1672POPC   PO423784  27.738   4.545   9.664
 1672POPC   GL123785  27.844   4.655   9.218
 1672POPC   GL223786  27.590   4.430   9.155
 1672POPC   C1A23787  27.774   4.608   8.737
 1672POPC   D2A23788  27.634   4.420   8.367
 1672POPC   C3A23789  27.752   4.470   7.957
 1672POPC   C4A23790  27.569   4.167   7.740
 1672POPC   C1B23791  27.373   4.248   8.796
 1672POPC   C2B23792  27.057   4.122   8.490
 1672POPC   C3B23793  27.092   3.871   8.098
 1672POPC   C4B23794  27.255   3.757   7.689
 1673POPC   NC323795  12.523   6.163   9.569
 1673POPC   PO423796  12.982   5.604   9.547
 1673POPC   GL123797  12.802   5.897   9.238
 1673POPC   GL223798  12.451   5.891   9.101
 1673POPC   C1A23799  12.858   6.119   8.884
 1673POPC   D2A23800  12.948   6.045   8.462
 1673POPC   C3A23801  12.687   5.811   8.204
 1673POPC   C4A23802  12.828   6.018   7.871
 1673POPC   C1B23803  12.726   5.662   8.776
 1673POPC   C2B23804  13.027   5.526   8.473
 1673POPC   C3B23805  13.090   5.433   8.035
 1673POPC   C4B23806  12.795   5.550   7.715
 1674POPC   NC323807  39.391  22.751   9.559
 1674POPC   PO423808  38.813  23.164   9.620
 1674POPC   GL123809  38.980  22.927   9.270
 1674POPC   GL223810  39.292  23.072   9.143
 1674POPC   C1A23811  38.895  22.973   8.824
 1674POPC   D2A23812  38.820  23.176   8.411
 1674POPC   C3A23813  39.079  23.130   8.054
 1674POPC   C4A23814  39.170  22.985   7.640
 1674POPC   C1B23815  39.595  23.135   8.805
 1674POPC   C2B23816  39.603  22.966   8.387
 1674POPC   C3B23817  39.498  22.802   7.986
 1674POPC   C4B23818  39.706  22.925   7.597
 1675POPC   NC323819  16.083   3.584   9.452
 1675POPC   PO423820  15.450   3.790   9.384
 1675POPC   GL123821  15.746   3.520   9.098
 1675POPC   GL223822  16.021   3.768   8.971
 1675POPC   C1A23823  16.008   3.339   8.720
 1675POPC   D2A23824  16.209   3.407   8.300
 1675POPC   C3A23825  16.018   3.359   7.923
 1675POPC   C4A23826  16.096   3.142   7.556
 1675POPC   C1B23827  15.655   3.749   8.674
 1675POPC   C2B23828  15.643   3.595   8.232
 1675POPC   C3B23829  15.690   3.762   7.817
 1675POPC   C4B23830  15.991   3.648   7.486
 1676POPC   NC323831  44.718  42.123   9.688
 1676POPC   PO423832  44.187  42.511   9.757
 1676POPC   GL123833  44.558  42.583   9.383
 1676POPC   GL223834  44.771  42.316   9.241
 1676POPC   C1A23835  44.827  42.738   8.968
 1676POPC   D2A23836  44.977  42.860   8.515
 1676POPC   C3A23837  44.768  42.671   8.136
 1676POPC   C4A23838  44.549  42.365   7.850
 1676POPC   C1B23839  44.803  42.130   8.875
 1676POPC   C2B23840  44.914  42.337   8.513
 1676POPC   C3B23841   0.020  42.216   8.100
 1676POPC   C4B23842  44.954  42.019   7.729
 1677POPC   NC323843  17.043  17.987   9.801
 1677POPC   PO423844  16.582  17.731   9.332
 1677POPC   GL123845  16.770  17.442   9.060
 1677POPC   GL223846  16.808  17.069   9.108
 1677POPC   C1A23847  16.768  17.424   8.628
 1677POPC   D2A23848  16.932  17.743   8.361
 1677POPC   C3A23849  16.796  17.738   7.943
 1677POPC   C4A23850  17.019  17.629   7.579
 1677POPC   C1B23851  16.379  17.134   8.914
 1677POPC   C2B23852  16.331  17.209   8.470
 1677POPC   C3B23853  16.532  17.094   8.085
 1677POPC   C4B23854  16.588  17.347   7.715
 1678POPC   NC323855  17.168   3.800   9.387
 1678POPC   PO423856  16.529   3.678   9.511
 1678POPC   GL123857  16.494   3.592   9.105
 1678POPC   GL223858  16.835   3.549   9.079
 1678POPC   C1A23859  16.521   3.487   8.682
 1678POPC   D2A23860  16.665   3.662   8.279
 1678POPC   C3A23861  16.541   3.464   7.857
 1678POPC   C4A23862  16.482   3.575   7.385
 1678POPC   C1B23863  16.935   3.796   8.740
 1678POPC   C2B23864  17.179   3.708   8.381
 1678POPC   C3B23865  17.081   3.500   7.985
 1678POPC   C4B23866  16.934   3.683   7.601
 1679POPC   NC323867   2.637   7.120   9.615
 1679POPC   PO423868   2.580   7.722   9.400
 1679POPC   GL123869   2.738   7.428   9.146
 1679POPC   GL223870   3.074   7.348   9.288
 1679POPC   C1A23871   2.554   7.439   8.725
 1679POPC   D2A23872   2.516   7.605   8.302
 1679POPC   C3A23873   2.487   7.308   7.992
 1679POPC   C4A23874   2.650   7.335   7.569
 1679POPC   C1B23875   3.158   7.467   8.844
 1679POPC   C2B23876   2.983   7.366   8.426
 1679POPC   C3B23877   3.004   7.344   7.984
 1679POPC   C4B23878   3.051   7.016   7.699
 1680POPC   NC323879  14.767   5.852   9.429
 1680POPC   PO423880  15.423   5.890   9.560
 1680POPC   GL123881  15.236   5.852   9.154
 1680POPC   GL223882  15.052   5.526   9.165
 1680POPC   C1A23883  15.214   5.963   8.710
 1680POPC   D2A23884  14.965   5.946   8.314
 1680POPC   C3A23885  15.171   5.817   7.934
 1680POPC   C4A23886  15.407   5.912   7.571
 1680POPC   C1B23887  14.802   5.654   8.766
 1680POPC   C2B23888  14.581   5.612   8.351
 1680POPC   C3B23889  14.731   5.582   7.920
 1680POPC   C4B23890  14.960   5.544   7.516
 1681POPC   NC323891   8.429  12.651   9.323
 1681POPC   PO423892   8.181  12.112   9.600
 1681POPC   GL123893   8.223  12.053   9.195
 1681POPC   GL223894   8.567  11.941   9.240
 1681POPC   C1A23895   8.082  11.933   8.788
 1681POPC   D2A23896   8.206  11.786   8.390
 1681POPC   C3A23897   8.035  12.008   8.038
 1681POPC   C4A23898   7.883  11.766   7.715
 1681POPC   C1B23899   8.578  12.071   8.807
 1681POPC   C2B23900   8.708  11.835   8.440
 1681POPC   C3B23901   8.584  11.915   8.028
 1681POPC   C4B23902   8.389  11.903   7.617
 1682POPC   NC323903   7.583   6.207   9.647
 1682POPC   PO423904   7.114   5.748   9.595
 1682POPC   GL123905   7.160   5.874   9.130
 1682POPC   GL223906   7.279   5.601   8.894
 1682POPC   C1A23907   7.253   6.086   8.735
 1682POPC   D2A23908   7.668   5.951   8.570
 1682POPC   C3A23909   7.716   5.903   8.147
 1682POPC   C4A23910   7.355   5.839   7.875
 1682POPC   C1B23911   7.628   5.338   8.734
 1682POPC   C2B23912   7.895   5.389   8.408
 1682POPC   C3B23913   7.714   5.390   8.025
 1682POPC   C4B23914   7.765   5.630   7.684
 1683POPC   NC323915   7.236  15.683   9.596
 1683POPC   PO423916   7.362  15.041   9.540
 1683POPC   GL123917   7.381  15.310   9.207
 1683POPC   GL223918   7.701  15.409   9.096
 1683POPC   C1A23919   7.189  15.278   8.809
 1683POPC   D2A23920   7.295  15.058   8.419
 1683POPC   C3A23921   7.323  15.282   8.019
 1683POPC   C4A23922   7.268  15.266   7.561
 1683POPC   C1B23923   7.687  15.176   8.767
 1683POPC   C2B23924   7.750  15.301   8.376
 1683POPC   C3B23925   7.829  15.118   8.018
 1683POPC   C4B23926   7.740  15.257   7.667
 1684POPC   NC323927  25.197  27.351   9.584
 1684POPC   PO423928  25.308  28.038   9.565
 1684POPC   GL123929  25.113  27.696   9.224
 1684POPC   GL223930  25.371  27.429   9.123
 1684POPC   C1A23931  24.959  27.509   8.811
 1684POPC   D2A23932  25.110  27.466   8.373
 1684POPC   C3A23933  24.882  27.606   7.978
 1684POPC   C4A23934  24.702  27.684   7.562
 1684POPC   C1B23935  25.473  27.575   8.722
 1684POPC   C2B23936  25.622  27.580   8.314
 1684POPC   C3B23937  25.409  27.590   7.927
 1684POPC   C4B23938  25.199  27.596   7.563
 1685POPC   NC323939  19.391  32.533   9.433
 1685POPC   PO423940  18.638  32.670   9.514
 1685POPC   GL123941  18.778  32.477   9.117
 1685POPC   GL223942  19.059  32.293   9.126
 1685POPC   C1A23943  18.986  32.484   8.681
 1685POPC   D2A23944  18.753  32.413   8.339
 1685POPC   C3A23945  18.945  32.330   7.997
 1685POPC   C4A23946  18.770  32.269   7.631
 1685POPC   C1B23947  19.207  32.006   8.764
 1685POPC   C2B23948  19.126  31.954   8.291
 1685POPC   C3B23949  19.167  31.930   7.785
 1685POPC   C4B23950  19.391  31.865   7.364
 1686POPC   NC323951  41.429  42.430   9.536
 1686POPC   PO423952  41.972  41.958   9.422
 1686POPC   GL123953  41.705  42.145   9.131
 1686POPC   GL223954  41.362  42.103   9.133
 1686POPC   C1A23955  41.689  42.216   8.720
 1686POPC   D2A23956  41.416  42.155   8.394
 1686POPC   C3A23957  41.603  42.207   7.981
 1686POPC   C4A23958  41.890  42.345   7.663
 1686POPC   C1B23959  41.281  42.491   8.883
 1686POPC   C2B23960  41.394  42.657   8.475
 1686POPC   C3B23961  41.221  42.530   8.102
 1686POPC   C4B23962  41.209  42.490   7.695
 1687POPC   NC323963  40.134  36.599   9.403
 1687POPC   PO423964  39.771  37.162   9.534
 1687POPC   GL123965  39.917  37.041   9.154
 1687POPC   GL223966  39.730  36.757   9.139
 1687POPC   C1A23967  40.073  37.020   8.729
 1687POPC   D2A23968  39.980  36.953   8.326
 1687POPC   C3A23969  40.108  37.213   7.973
 1687POPC   C4A23970  40.000  37.095   7.569
 1687POPC   C1B23971  39.806  36.571   8.730
 1687POPC   C2B23972  39.994  36.448   8.318
 1687POPC   C3B23973  40.006  36.604   7.873
 1687POPC   C4B23974  39.753  36.653   7.486
 1688POPC   NC323975  19.207  39.575   9.779
 1688POPC   PO423976  19.230  38.955   9.418
 1688POPC   GL123977  19.127  39.065   9.008
 1688POPC   GL223978  18.823  39.140   8.949
 1688POPC   C1A23979  19.161  39.054   8.553
 1688POPC   D2A23980  19.526  38.987   8.293
 1688POPC   C3A23981  19.442  39.044   7.855
 1688POPC   C4A23982  19.028  39.109   7.714
 1688POPC   C1B23983  19.009  39.521   8.749
 1688POPC   C2B23984  19.139  39.760   8.440
 1688POPC   C3B23985  19.231  39.551   8.073
 1688POPC   C4B23986  19.103  39.627   7.673
 1689POPC   NC323987   4.997  40.620   9.592
 1689POPC   PO423988   4.897  41.197   9.221
 1689POPC   GL123989   5.023  40.749   9.087
 1689POPC   GL223990   5.316  40.539   8.997
 1689POPC   C1A23991   4.944  40.532   8.671
 1689POPC   D2A23992   4.904  40.849   8.356
 1689POPC   C3A23993   5.027  40.790   7.942
 1689POPC   C4A23994   4.779  40.711   7.556
 1689POPC   C1B23995   5.308  40.908   8.707
 1689POPC   C2B23996   5.368  40.642   8.362
 1689POPC   C3B23997   5.419  40.447   7.982
 1689POPC   C4B23998   5.356  40.633   7.586
 1690POPC   NC323999  35.676  38.513   9.755
 1690POPC   PO424000  36.291  38.561   9.558
 1690POPC   GL124001  36.169  38.438   9.178
 1690POPC   GL224002  35.840  38.365   9.246
 1690POPC   C1A24003  36.257  38.379   8.759
 1690POPC   D2A24004  36.202  38.115   8.377
 1690POPC   C3A24005  36.036  38.325   7.996
 1690POPC   C4A24006  36.132  38.662   7.676
 1690POPC   C1B24007  35.787  38.556   8.815
 1690POPC   C2B24008  36.007  38.648   8.398
 1690POPC   C3B24009  35.786  38.769   8.009
 1690POPC   C4B24010  35.677  38.891   7.554
 1691POPC   NC324011  17.726  11.246   9.781
 1691POPC   PO424012  17.069  11.190   9.582
 1691POPC   GL124013  17.399  11.169   9.232
 1691POPC   GL224014  17.772  11.298   9.221
 1691POPC   C1A24015  17.515  11.180   8.781
 1691POPC   D2A24016  17.544  11.376   8.385
 1691POPC   C3A24017  17.522  11.140   8.003
 1691POPC   C4A24018  17.431  11.080   7.582
 1691POPC   C1B24019  17.858  11.565   8.806
 1691POPC   C2B24020  18.010  11.567   8.341
 1691POPC   C3B24021  17.837  11.631   7.894
 1691POPC   C4B24022  17.710  11.468   7.456
 1692POPC   NC324023  35.894  18.064   9.532
 1692POPC   PO424024  36.128  18.734   9.452
 1692POPC   GL124025  36.040  18.432   9.127
 1692POPC   GL224026  36.182  18.133   9.150
 1692POPC   C1A24027  36.026  18.184   8.697
 1692POPC   D2A24028  35.817  18.123   8.348
 1692POPC   C3A24029  35.998  18.239   7.971
 1692POPC   C4A24030  36.322  18.390   7.737
 1692POPC   C1B24031  36.484  17.928   8.875
 1692POPC   C2B24032  36.365  17.834   8.450
 1692POPC   C3B24033  36.450  17.978   8.045
 1692POPC   C4B24034  36.727  18.083   7.710
 1693POPC   NC324035   2.295  20.928   9.586
 1693POPC   PO424036   2.009  21.637   9.579
 1693POPC   GL124037   1.849  21.546   9.192
 1693POPC   GL224038   1.885  21.189   9.155
 1693POPC   C1A24039   2.051  21.578   8.815
 1693POPC   D2A24040   2.134  21.752   8.419
 1693POPC   C3A24041   1.915  21.587   8.061
 1693POPC   C4A24042   2.159  21.562   7.730
 1693POPC   C1B24043   1.809  21.124   8.774
 1693POPC   C2B24044   2.059  21.215   8.408
 1693POPC   C3B24045   2.224  21.125   8.025
 1693POPC   C4B24046   1.956  21.111   7.684
 1694POPC   NC324047  32.580   3.212   9.180
 1694POPC   PO424048  32.106   3.564   9.601
 1694POPC   GL124049  32.087   3.369   9.221
 1694POPC   GL224050  32.304   3.647   9.129
 1694POPC   C1A24051  32.031   3.217   8.812
 1694POPC   D2A24052  32.259   3.219   8.423
 1694POPC   C3A24053  32.186   3.567   8.135
 1694POPC   C4A24054  32.029   3.565   7.729
 1694POPC   C1B24055  32.142   3.758   8.756
 1694POPC   C2B24056  32.441   3.890   8.481
 1694POPC   C3B24057  32.654   3.769   8.128
 1694POPC   C4B24058  32.455   3.810   7.722
 1695POPC   NC324059  28.718  43.153   9.572
 1695POPC   PO424060  27.990  43.012   9.535
 1695POPC   GL124061  28.239  43.194   9.213
 1695POPC   GL224062  28.580  43.049   9.110
 1695POPC   C1A24063  28.262  43.344   8.798
 1695POPC   D2A24064  28.595  43.223   8.517
 1695POPC   C3A24065  28.522  43.105   8.102
 1695POPC   C4A24066  28.118  43.126   7.931
 1695POPC   C1B24067  28.751  43.450   8.966
 1695POPC   C2B24068  28.929  43.610   8.582
 1695POPC   C3B24069  28.751  43.600   8.173
 1695POPC   C4B24070  28.767  43.399   7.761
 1696POPC   NC324071  17.909  23.516   9.450
 1696POPC   PO424072  18.365  24.014   9.585
 1696POPC   GL124073  18.153  23.935   9.223
 1696POPC   GL224074  18.235  23.595   9.067
 1696POPC   C1A24075  18.141  23.992   8.782
 1696POPC   D2A24076  18.166  23.676   8.462
 1696POPC   C3A24077  18.219  23.846   8.064
 1696POPC   C4A24078  18.165  23.563   7.774
 1696POPC   C1B24079  18.429  23.316   8.765
 1696POPC   C2B24080  18.562  23.106   8.422
 1696POPC   C3B24081  18.509  23.338   8.081
 1696POPC   C4B24082  18.529  23.223   7.694
 1697POPC   NC324083   5.636  34.030   9.588
 1697POPC   PO424084   6.057  33.601   9.513
 1697POPC   GL124085   5.907  33.890   9.165
 1697POPC   GL224086   5.596  34.157   9.118
 1697POPC   C1A24087   5.799  33.597   8.824
 1697POPC   D2A24088   5.950  33.347   8.476
 1697POPC   C3A24089   6.067  33.632   8.144
 1697POPC   C4A24090   6.133  33.544   7.724
 1697POPC   C1B24091   5.742  34.095   8.729
 1697POPC   C2B24092   5.647  33.860   8.397
 1697POPC   C3B24093   5.693  34.035   8.037
 1697POPC   C4B24094   5.844  33.967   7.679
 1698POPC   NC324095  22.998   3.024   9.471
 1698POPC   PO424096  22.532   2.437   9.425
 1698POPC   GL124097  22.742   2.747   9.115
 1698POPC   GL224098  23.098   2.754   9.045
 1698POPC   C1A24099  22.713   2.775   8.685
 1698POPC   D2A24100  22.876   2.399   8.493
 1698POPC   C3A24101  23.083   2.462   8.140
 1698POPC   C4A24102  22.801   2.731   7.931
 1698POPC   C1B24103  23.149   3.069   8.759
 1698POPC   C2B24104  23.110   2.930   8.330
 1698POPC   C3B24105  23.257   2.975   7.899
 1698POPC   C4B24106  23.379   2.971   7.433
 1699POPC   NC324107  39.765  15.803   9.446
 1699POPC   PO424108  40.215  16.318   9.520
 1699POPC   GL124109  40.144  16.078   9.167
 1699POPC   GL224110  40.202  15.719   9.178
 1699POPC   C1A24111  39.929  15.950   8.812
 1699POPC   D2A24112  40.054  15.868   8.437
 1699POPC   C3A24113  39.832  15.995   8.125
 1699POPC   C4A24114  40.074  16.103   7.765
 1699POPC   C1B24115  40.372  15.618   8.779
 1699POPC   C2B24116  40.307  15.441   8.376
 1699POPC   C3B24117  40.328  15.680   7.981
 1699POPC   C4B24118  40.181  15.650   7.555
 1700POPC   NC324119   0.744   8.713   9.578
 1700POPC   PO424120   0.789   9.311   9.292
 1700POPC   GL124121   0.545   8.967   9.133
 1700POPC   GL224122   0.212   9.122   9.019
 1700POPC   C1A24123   0.490   8.810   8.720
 1700POPC   D2A24124   0.562   8.998   8.327
 1700POPC   C3A24125   0.465   8.695   8.028
 1700POPC   C4A24126   0.507   8.745   7.581
 1700POPC   C1B24127   0.296   9.406   8.657
 1700POPC   C2B24128   0.272   9.421   8.196
 1700POPC   C3B24129   0.451   9.207   7.831
 1700POPC   C4B24130   0.298   9.155   7.376
 1701POPC   NC324131  13.114  19.631   9.592
 1701POPC   PO424132  13.126  20.291   9.420
 1701POPC   GL124133  12.989  19.952   9.195
 1701POPC   GL224134  12.649  20.047   9.165
 1701POPC   C1A24135  12.918  19.738   8.820
 1701POPC   D2A24136  12.772  19.893   8.444
 1701POPC   C3A24137  12.985  19.766   8.087
 1701POPC   C4A24138  13.007  20.004   7.731
 1701POPC   C1B24139  12.505  20.240   8.775
 1701POPC   C2B24140  12.329  20.123   8.365
 1701POPC   C3B24141  12.537  20.075   7.962
 1701POPC   C4B24142  12.279  20.171   7.600
 1702POPC   NC324143  30.326  34.491   9.429
 1702POPC   PO424144  29.561  34.709   9.441
 1702POPC   GL124145  29.904  34.657   9.179
 1702POPC   GL224146  29.891  34.316   9.139
 1702POPC   C1A24147  29.896  34.676   8.723
 1702POPC   D2A24148  29.872  34.886   8.329
 1702POPC   C3A24149  29.683  34.693   7.989
 1702POPC   C4A24150  29.884  34.726   7.585
 1702POPC   C1B24151  30.085  34.206   8.750
 1702POPC   C2B24152  29.969  34.223   8.322
 1702POPC   C3B24153  30.200  34.194   7.917
 1702POPC   C4B24154  30.012  34.131   7.504
 1703POPC   NC324155  41.052  41.644   9.480
 1703POPC   PO424156  40.505  41.215   9.557
 1703POPC   GL124157  40.576  41.526   9.212
 1703POPC   GL224158  40.672  41.891   9.223
 1703POPC   C1A24159  40.542  41.637   8.771
 1703POPC   D2A24160  40.689  41.457   8.394
 1703POPC   C3A24161  40.737  41.684   8.014
 1703POPC   C4A24162  41.002  41.488   7.748
 1703POPC   C1B24163  40.979  41.929   8.859
 1703POPC   C2B24164  40.995  41.858   8.416
 1703POPC   C3B24165  41.215  41.881   8.007
 1703POPC   C4B24166  41.011  41.992   7.634
 1704POPC   NC324167  17.829  29.810   9.640
 1704POPC   PO424168  17.224  29.906   9.500
 1704POPC   GL124169  17.522  30.137   9.233
 1704POPC   GL224170  17.668  29.818   9.165
 1704POPC   C1A24171  17.677  30.190   8.783
 1704POPC   D2A24172  17.485  30.184   8.362
 1704POPC   C3A24173  17.749  30.280   7.989
 1704POPC   C4A24174  17.738  30.102   7.568
 1704POPC   C1B24175  17.706  29.675   8.779
 1704POPC   C2B24176  17.841  29.821   8.378
 1704POPC   C3B24177  17.575  29.796   8.032
 1704POPC   C4B24178  17.508  29.497   7.768
 1705POPC   NC324179  21.637  20.304   9.399
 1705POPC   PO424180  21.321  19.753   9.608
 1705POPC   GL124181  21.446  19.733   9.166
 1705POPC   GL224182  21.299  20.043   9.093
 1705POPC   C1A24183  21.307  19.720   8.699
 1705POPC   D2A24184  21.133  20.067   8.416
 1705POPC   C3A24185  21.304  20.097   8.002
 1705POPC   C4A24186  21.509  19.769   7.798
 1705POPC   C1B24187  21.621  20.119   8.774
 1705POPC   C2B24188  21.662  19.930   8.362
 1705POPC   C3B24189  21.821  20.115   8.017
 1705POPC   C4B24190  21.922  20.081   7.641
 1706POPC   NC324191  36.273  35.758   9.404
 1706POPC   PO424192  36.043  35.072   9.547
 1706POPC   GL124193  36.039  35.363   9.179
 1706POPC   GL224194  36.372  35.390   9.025
 1706POPC   C1A24195  35.918  35.452   8.771
 1706POPC   D2A24196  36.081  35.243   8.398
 1706POPC   C3A24197  35.819  35.274   8.040
 1706POPC   C4A24198  35.980  35.504   7.677
 1706POPC   C1B24199  36.653  35.150   8.735
 1706POPC   C2B24200  36.655  35.101   8.272
 1706POPC   C3B24201  36.367  35.245   7.925
 1706POPC   C4B24202  36.448  35.456   7.504
 1707POPC   NC324203  29.497   0.279   9.406
 1707POPC   PO424204  30.192   0.405   9.652
 1707POPC   GL124205  30.010   0.546   9.207
 1707POPC   GL224206  29.766   0.351   8.958
 1707POPC   C1A24207  30.149   0.625   8.772
 1707POPC   D2A24208  30.286   0.603   8.337
 1707POPC   C3A24209  30.073   0.732   7.971
 1707POPC   C4A24210  29.692   0.645   7.741
 1707POPC   C1B24211  29.885   0.027   8.636
 1707POPC   C2B24212  29.918  44.984   8.174
 1707POPC   C3B24213  30.010   0.250   7.839
 1707POPC   C4B24214  29.866   0.298   7.401
 1708POPC   NC324215   9.038  11.857   9.438
 1708POPC   PO424216   8.952  12.521   9.603
 1708POPC   GL124217   9.022  12.322   9.167
 1708POPC   GL224218   9.327  12.510   9.108
 1708POPC   C1A24219   9.066  11.965   8.814
 1708POPC   D2A24220   9.281  11.901   8.427
 1708POPC   C3A24221   9.116  11.966   8.002
 1708POPC   C4A24222   8.900  11.750   7.665
 1708POPC   C1B24223   9.254  12.411   8.663
 1708POPC   C2B24224   8.896  12.300   8.416
 1708POPC   C3B24225   8.818  12.426   7.989
 1708POPC   C4B24226   9.161  12.542   7.687
 1709POPC   NC324227  35.212  39.395   9.459
 1709POPC   PO424228  34.632  39.160   9.740
 1709POPC   GL124229  34.841  38.923   9.311
 1709POPC   GL224230  35.131  38.992   9.199
 1709POPC   C1A24231  34.930  38.998   8.759
 1709POPC   D2A24232  35.190  39.318   8.454
 1709POPC   C3A24233  35.168  39.548   8.011
 1709POPC   C4A24234  35.052  39.579   7.563
 1709POPC   C1B24235  35.448  39.034   8.859
 1709POPC   C2B24236  35.567  38.964   8.437
 1709POPC   C3B24237  35.548  39.209   8.055
 1709POPC   C4B24238  35.263  39.119   7.733
 1710POPC   NC324239  36.488  21.160   9.515
 1710POPC   PO424240  37.107  21.459   9.487
 1710POPC   GL124241  36.918  21.432   9.126
 1710POPC   GL224242  36.872  21.117   9.156
 1710POPC   C1A24243  37.027  21.607   8.754
 1710POPC   D2A24244  36.930  21.675   8.352
 1710POPC   C3A24245  36.912  21.374   8.031
 1710POPC   C4A24246  36.961  21.553   7.629
 1710POPC   C1B24247  36.854  21.113   8.694
 1710POPC   C2B24248  36.559  21.049   8.376
 1710POPC   C3B24249  36.484  21.102   7.935
 1710POPC   C4B24250  36.706  21.142   7.523
 1711POPC   NC324251   7.966   6.679   9.759
 1711POPC   PO424252   8.613   6.486   9.507
 1711POPC   GL124253   8.355   6.553   9.143
 1711POPC   GL224254   8.038   6.672   9.251
 1711POPC   C1A24255   8.159   6.567   8.744
 1711POPC   D2A24256   7.961   6.395   8.371
 1711POPC   C3A24257   8.098   6.578   7.985
 1711POPC   C4A24258   8.254   6.462   7.606
 1711POPC   C1B24259   7.808   6.899   8.926
 1711POPC   C2B24260   7.822   6.877   8.496
 1711POPC   C3B24261   7.968   7.018   8.134
 1711POPC   C4B24262   7.955   7.028   7.732
 1712POPC   NC324263  44.973  38.234   9.435
 1712POPC   PO424264  44.330  38.405   9.599
 1712POPC   GL124265  44.558  38.606   9.235
 1712POPC   GL224266  44.923  38.668   9.154
 1712POPC   C1A24267  44.571  38.598   8.763
 1712POPC   D2A24268  44.713  38.752   8.337
 1712POPC   C3A24269  44.565  38.582   7.926
 1712POPC   C4A24270  44.635  38.440   7.479
 1712POPC   C1B24271   0.027  38.388   8.774
 1712POPC   C2B24272  44.911  38.211   8.354
 1712POPC   C3B24273  44.869  38.184   7.898
 1712POPC   C4B24274  44.976  38.022   7.486
 1713POPC   NC324275  41.806  17.080   9.770
 1713POPC   PO424276  41.484  17.656   9.536
 1713POPC   GL124277  41.499  17.663   9.054
 1713POPC   GL224278  41.838  17.548   8.943
 1713POPC   C1A24279  41.564  17.866   8.655
 1713POPC   D2A24280  41.647  17.700   8.261
 1713POPC   C3A24281  41.294  17.571   8.012
 1713POPC   C4A24282  41.390  17.598   7.585
 1713POPC   C1B24283  42.108  17.382   8.604
 1713POPC   C2B24284  42.054  17.362   8.144
 1713POPC   C3B24285  41.699  17.248   7.852
 1713POPC   C4B24286  41.709  17.249   7.390
 1714POPC   NC324287  41.282  44.747   9.412
 1714POPC   PO424288  40.612  44.648   9.540
 1714POPC   GL124289  40.825  44.402   9.235
 1714POPC   GL224290  40.905  44.654   9.069
 1714POPC   C1A24291  40.838  44.225   8.796
 1714POPC   D2A24292  40.644  44.242   8.367
 1714POPC   C3A24293  40.805  44.607   8.080
 1714POPC   C4A24294  40.786  44.596   7.607
 1714POPC   C1B24295  41.014  44.873   8.727
 1714POPC   C2B24296  41.213  44.824   8.330
 1714POPC   C3B24297  41.060   0.102   8.024
 1714POPC   C4B24298  40.949   0.050   7.615
 1715POPC   NC324299   3.552  20.040   9.393
 1715POPC   PO424300   3.384  19.388   9.436
 1715POPC   GL124301   3.438  19.672   9.064
 1715POPC   GL224302   3.740  19.551   9.005
 1715POPC   C1A24303   3.421  20.043   8.750
 1715POPC   D2A24304   3.627  20.065   8.355
 1715POPC   C3A24305   3.454  19.866   8.032
 1715POPC   C4A24306   3.573  19.959   7.659
 1715POPC   C1B24307   3.652  19.620   8.582
 1715POPC   C2B24308   3.852  19.604   8.186
 1715POPC   C3B24309   3.685  19.457   7.786
 1715POPC   C4B24310   3.712  19.576   7.332
 1716POPC   NC324311  16.610  25.171   9.568
 1716POPC   PO424312  16.971  24.628   9.511
 1716POPC   GL124313  16.901  24.913   9.184
 1716POPC   GL224314  16.576  24.848   9.139
 1716POPC   C1A24315  16.821  25.218   8.850
 1716POPC   D2A24316  16.843  25.121   8.431
 1716POPC   C3A24317  16.833  25.357   8.056
 1716POPC   C4A24318  16.824  24.973   7.920
 1716POPC   C1B24319  16.340  25.112   8.857
 1716POPC   C2B24320  16.379  25.308   8.513
 1716POPC   C3B24321  16.349  25.204   8.125
 1716POPC   C4B24322  16.403  25.244   7.710
 1717POPC   NC324323  36.734  27.780   9.599
 1717POPC   PO424324  36.909  27.128   9.554
 1717POPC   GL124325  36.917  27.415   9.212
 1717POPC   GL224326  37.155  27.693   9.273
 1717POPC   C1A24327  36.772  27.467   8.793
 1717POPC   D2A24328  36.747  27.188   8.427
 1717POPC   C3A24329  36.760  27.404   8.026
 1717POPC   C4A24330  36.741  27.830   7.786
 1717POPC   C1B24331  37.261  27.655   8.839
 1717POPC   C2B24332  37.142  27.532   8.427
 1717POPC   C3B24333  37.162  27.706   8.044
 1717POPC   C4B24334  37.245  27.677   7.608
 1718POPC   NC324335  38.548  22.798   9.741
 1718POPC   PO424336  38.067  22.572   9.320
 1718POPC   GL124337  38.420  22.794   9.086
 1718POPC   GL224338  38.514  23.111   9.146
 1718POPC   C1A24339  38.406  22.938   8.657
 1718POPC   D2A24340  38.133  22.634   8.408
 1718POPC   C3A24341  38.180  22.790   7.982
 1718POPC   C4A24342  38.634  22.943   7.810
 1718POPC   C1B24343  38.291  23.411   8.890
 1718POPC   C2B24344  38.413  23.487   8.470
 1718POPC   C3B24345  38.401  23.234   8.145
 1718POPC   C4B24346  38.220  23.255   7.765
 1719POPC   NC324347  26.580  26.610   9.454
 1719POPC   PO424348  26.997  27.180   9.367
 1719POPC   GL124349  26.885  26.837   9.092
 1719POPC   GL224350  27.169  26.595   9.117
 1719POPC   C1A24351  26.657  26.999   8.726
 1719POPC   D2A24352  26.711  27.160   8.301
 1719POPC   C3A24353  26.997  26.926   8.006
 1719POPC   C4A24354  26.623  26.811   7.778
 1719POPC   C1B24355  27.077  26.469   8.720
 1719POPC   C2B24356  27.331  26.267   8.411
 1719POPC   C3B24357  27.276  26.339   8.001
 1719POPC   C4B24358  26.970  26.444   7.748
 1720POPC   NC324359  26.930  10.369   9.253
 1720POPC   PO424360  26.870  10.901   9.784
 1720POPC   GL124361  26.739  10.863   9.308
 1720POPC   GL224362  26.443  10.864   9.100
 1720POPC   C1A24363  26.915  10.882   8.856
 1720POPC   D2A24364  27.008  10.514   8.625
 1720POPC   C3A24365  27.040  10.520   8.177
 1720POPC   C4A24366  26.953  10.784   7.821
 1720POPC   C1B24367  26.522  10.545   8.773
 1720POPC   C2B24368  26.578  10.375   8.367
 1720POPC   C3B24369  26.562  10.500   7.958
 1720POPC   C4B24370  26.681  10.453   7.517
 1721POPC   NC324371  29.793   8.162   9.383
 1721POPC   PO424372  29.131   8.153   9.499
 1721POPC   GL124373  29.314   8.084   9.146
 1721POPC   GL224374  29.394   7.751   8.995
 1721POPC   C1A24375  29.067   8.110   8.773
 1721POPC   D2A24376  28.813   8.095   8.446
 1721POPC   C3A24377  28.963   8.113   8.063
 1721POPC   C4A24378  28.825   8.366   7.751
 1721POPC   C1B24379  29.574   8.110   8.729
 1721POPC   C2B24380  29.369   8.296   8.362
 1721POPC   C3B24381  29.302   8.467   7.938
 1721POPC   C4B24382  29.294   8.270   7.538
 1722POPC   NC324383  38.272   3.853   9.414
 1722POPC   PO424384  38.587   3.235   9.502
 1722POPC   GL124385  38.309   3.366   9.151
 1722POPC   GL224386  37.956   3.405   9.181
 1722POPC   C1A24387  38.301   3.224   8.720
 1722POPC   D2A24388  38.565   3.508   8.528
 1722POPC   C3A24389  38.465   3.798   8.184
 1722POPC   C4A24390  38.418   3.572   7.830
 1722POPC   C1B24391  38.024   3.649   8.778
 1722POPC   C2B24392  38.095   3.489   8.332
 1722POPC   C3B24393  37.976   3.392   7.920
 1722POPC   C4B24394  37.996   3.620   7.498
 1723POPC   NC324395  44.082  20.597   9.659
 1723POPC   PO424396  43.566  20.487   9.490
 1723POPC   GL124397  43.916  20.503   9.164
 1723POPC   GL224398  44.234  20.313   9.197
 1723POPC   C1A24399  43.922  20.604   8.705
 1723POPC   D2A24400  43.742  20.454   8.289
 1723POPC   C3A24401  43.697  20.700   7.914
 1723POPC   C4A24402  43.918  20.733   7.546
 1723POPC   C1B24403  44.103  20.122   8.760
 1723POPC   C2B24404  43.980  20.010   8.279
 1723POPC   C3B24405  44.007  20.229   7.847
 1723POPC   C4B24406  43.958  20.278   7.363
 1724POPC   NC324407  42.974  37.444   9.409
 1724POPC   PO424408  43.540  37.802   9.632
 1724POPC   GL124409  43.345  37.751   9.204
 1724POPC   GL224410  43.402  37.387   9.109
 1724POPC   C1A24411  43.137  37.997   8.854
 1724POPC   D2A24412  43.182  38.061   8.421
 1724POPC   C3A24413  43.319  37.684   8.268
 1724POPC   C4A24414  43.248  37.558   7.878
 1724POPC   C1B24415  43.153  37.504   8.731
 1724POPC   C2B24416  42.904  37.350   8.381
 1724POPC   C3B24417  42.999  37.153   7.990
 1724POPC   C4B24418  43.266  37.153   7.563
 1725POPC   NC324419  38.362  42.679   9.626
 1725POPC   PO424420  38.830  43.136   9.650
 1725POPC   GL124421  38.527  43.125   9.332
 1725POPC   GL224422  38.616  42.803   9.177
 1725POPC   C1A24423  38.533  43.249   8.899
 1725POPC   D2A24424  38.398  43.176   8.486
 1725POPC   C3A24425  38.281  43.247   8.061
 1725POPC   C4A24426  38.507  43.515   7.763
 1725POPC   C1B24427  38.748  42.812   8.720
 1725POPC   C2B24428  38.688  42.827   8.252
 1725POPC   C3B24429  38.647  42.979   7.806
 1725POPC   C4B24430  38.692  42.827   7.350
 1726POPC   NC324431   1.625  20.252   9.293
 1726POPC   PO424432   1.833  20.856   9.545
 1726POPC   GL124433   2.107  20.711   9.165
 1726POPC   GL224434   2.156  20.369   9.166
 1726POPC   C1A24435   2.189  20.797   8.715
 1726POPC   D2A24436   1.801  20.766   8.418
 1726POPC   C3A24437   1.886  20.713   7.982
 1726POPC   C4A24438   2.263  20.695   7.661
 1726POPC   C1B24439   1.935  20.364   8.753
 1726POPC   C2B24440   1.951  20.286   8.316
 1726POPC   C3B24441   2.149  20.288   7.936
 1726POPC   C4B24442   2.150  20.145   7.556
 1727POPC   NC324443   0.000  28.829   9.521
 1727POPC   PO424444   0.566  29.251   9.585
 1727POPC   GL124445   0.390  29.290   9.190
 1727POPC   GL224446   0.192  29.064   9.120
 1727POPC   C1A24447   0.513  29.240   8.752
 1727POPC   D2A24448   0.424  29.040   8.372
 1727POPC   C3A24449   0.667  29.243   8.096
 1727POPC   C4A24450   0.687  29.358   7.707
 1727POPC   C1B24451   0.320  28.733   8.851
 1727POPC   C2B24452   0.165  28.612   8.475
 1727POPC   C3B24453   0.097  28.740   8.079
 1727POPC   C4B24454   0.353  28.973   7.804
 1728POPC   NC324455  17.968   4.088   9.552
 1728POPC   PO424456  18.532   4.460   9.440
 1728POPC   GL124457  18.266   4.199   9.146
 1728POPC   GL224458  18.129   4.454   8.909
 1728POPC   C1A24459  18.164   3.963   8.754
 1728POPC   D2A24460  18.396   4.176   8.405
 1728POPC   C3A24461  18.450   4.055   7.954
 1728POPC   C4A24462  18.507   4.160   7.509
 1728POPC   C1B24463  17.859   4.314   8.552
 1728POPC   C2B24464  17.954   4.146   8.133
 1728POPC   C3B24465  18.117   4.452   7.847
 1728POPC   C4B24466  17.869   4.764   7.639
 1729POPC   NC324467   4.170   3.047   9.311
 1729POPC   PO424468   4.597   2.617   9.454
 1729POPC   GL124469   4.469   2.723   9.035
 1729POPC   GL224470   4.095   2.698   8.968
 1729POPC   C1A24471   4.412   2.853   8.595
 1729POPC   D2A24472   4.685   2.853   8.247
 1729POPC   C3A24473   4.600   3.056   7.878
 1729POPC   C4A24474   4.408   2.822   7.497
 1729POPC   C1B24475   3.988   3.108   8.719
 1729POPC   C2B24476   3.993   3.138   8.289
 1729POPC   C3B24477   4.108   2.929   7.928
 1729POPC   C4B24478   4.179   3.291   7.720
 1730POPC   NC324479  17.285  28.972   9.682
 1730POPC   PO424480  17.772  29.356   9.575
 1730POPC   GL124481  17.535  29.287   9.208
 1730POPC   GL224482  17.427  28.939   9.197
 1730POPC   C1A24483  17.454  29.222   8.769
 1730POPC   D2A24484  17.477  29.433   8.397
 1730POPC   C3A24485  17.369  29.150   8.152
 1730POPC   C4A24486  17.294  28.950   7.774
 1730POPC   C1B24487  17.709  28.798   8.865
 1730POPC   C2B24488  17.776  28.923   8.477
 1730POPC   C3B24489  17.697  28.794   8.087
 1730POPC   C4B24490  17.805  28.915   7.724
 1731POPC   NC324491  23.595  19.355   9.374
 1731POPC   PO424492  23.767  20.005   9.552
 1731POPC   GL124493  23.743  19.838   9.164
 1731POPC   GL224494  23.434  19.705   9.010
 1731POPC   C1A24495  23.895  19.638   8.812
 1731POPC   D2A24496  24.072  19.789   8.444
 1731POPC   C3A24497  23.837  19.848   8.079
 1731POPC   C4A24498  23.564  20.138   7.897
 1731POPC   C1B24499  23.538  20.012   8.711
 1731POPC   C2B24500  23.421  19.880   8.363
 1731POPC   C3B24501  23.136  19.884   8.062
 1731POPC   C4B24502  23.400  19.665   7.830
 1732POPC   NC324503  19.501  19.121   9.533
 1732POPC   PO424504  18.814  19.312   9.520
 1732POPC   GL124505  19.083  19.235   9.172
 1732POPC   GL224506  19.012  18.919   9.055
 1732POPC   C1A24507  18.955  19.317   8.742
 1732POPC   D2A24508  18.986  19.558   8.376
 1732POPC   C3A24509  18.951  19.231   8.055
 1732POPC   C4A24510  19.019  19.143   7.611
 1732POPC   C1B24511  19.255  18.765   8.756
 1732POPC   C2B24512  19.313  18.658   8.369
 1732POPC   C3B24513  19.176  18.765   7.980
 1732POPC   C4B24514  18.782  18.676   7.818
 1733POPC   NC324515  30.981  12.972   9.548
 1733POPC   PO424516  30.370  12.917   9.497
 1733POPC   GL124517  30.540  12.872   9.115
 1733POPC   GL224518  30.343  12.569   9.116
 1733POPC   C1A24519  30.782  12.967   8.728
 1733POPC   D2A24520  30.944  12.781   8.323
 1733POPC   C3A24521  30.802  12.873   7.874
 1733POPC   C4A24522  30.833  12.875   7.410
 1733POPC   C1B24523  30.411  12.592   8.686
 1733POPC   C2B24524  30.441  12.830   8.317
 1733POPC   C3B24525  30.303  12.765   7.933
 1733POPC   C4B24526  30.481  12.544   7.611
 1734POPC   NC324527  42.970  26.926   9.848
 1734POPC   PO424528  43.342  26.682   9.277
 1734POPC   GL124529  43.062  26.866   9.042
 1734POPC   GL224530  42.754  26.950   9.188
 1734POPC   C1A24531  43.177  27.084   8.696
 1734POPC   D2A24532  43.115  27.198   8.291
 1734POPC   C3A24533  43.248  26.872   8.034
 1734POPC   C4A24534  43.180  26.738   7.628
 1734POPC   C1B24535  42.612  27.034   8.792
 1734POPC   C2B24536  42.600  27.142   8.369
 1734POPC   C3B24537  42.709  26.980   7.971
 1734POPC   C4B24538  42.829  27.085   7.563
 1735POPC   NC324539  28.806  44.750   9.900
 1735POPC   PO424540  28.242  44.808   9.506
 1735POPC   GL124541  28.341  44.564   9.151
 1735POPC   GL224542  28.675  44.355   9.217
 1735POPC   C1A24543  28.179  44.632   8.703
 1735POPC   D2A24544  28.122  44.576   8.256
 1735POPC   C3A24545  28.006  44.938   8.032
 1735POPC   C4A24546  28.344   0.123   7.827
 1735POPC   C1B24547  28.609  44.386   8.772
 1735POPC   C2B24548  28.666  44.625   8.402
 1735POPC   C3B24549  28.589  44.666   7.978
 1735POPC   C4B24550  28.608  44.386   7.622
 1736POPC   NC324551  34.891  34.996   9.467
 1736POPC   PO424552  34.690  34.280   9.502
 1736POPC   GL124553  34.545  34.450   9.106
 1736POPC   GL224554  34.596  34.787   9.047
 1736POPC   C1A24555  34.547  34.466   8.647
 1736POPC   D2A24556  34.772  34.740   8.393
 1736POPC   C3A24557  34.632  34.723   7.989
 1736POPC   C4A24558  34.346  34.597   7.704
 1736POPC   C1B24559  34.889  35.002   8.817
 1736POPC   C2B24560  35.091  35.169   8.476
 1736POPC   C3B24561  35.025  35.059   8.067
 1736POPC   C4B24562  34.702  35.188   7.831
 1737POPC   NC324563  37.181  15.690   9.574
 1737POPC   PO424564  36.872  16.277   9.702
 1737POPC   GL124565  36.930  16.031   9.284
 1737POPC   GL224566  37.182  16.217   9.103
 1737POPC   C1A24567  37.031  15.726   8.919
 1737POPC   D2A24568  36.917  15.704   8.477
 1737POPC   C3A24569  37.098  15.630   8.066
 1737POPC   C4A24570  37.069  15.917   7.736
 1737POPC   C1B24571  36.963  16.215   8.753
 1737POPC   C2B24572  36.701  16.250   8.434
 1737POPC   C3B24573  36.848  16.395   8.105
 1737POPC   C4B24574  37.215  16.378   7.891
 1738POPC   NC324575  29.293  33.217   9.397
 1738POPC   PO424576  29.901  32.886   9.560
 1738POPC   GL124577  29.941  32.983   9.159
 1738POPC   GL224578  29.584  32.913   9.119
 1738POPC   C1A24579  30.093  33.249   8.811
 1738POPC   D2A24580  30.323  33.280   8.412
 1738POPC   C3A24581  30.136  33.283   8.009
 1738POPC   C4A24582  30.144  33.221   7.556
 1738POPC   C1B24583  29.767  32.713   8.778
 1738POPC   C2B24584  29.969  32.895   8.441
 1738POPC   C3B24585  29.866  32.819   8.049
 1738POPC   C4B24586  29.733  32.950   7.682
 1739POPC   NC324587   6.470  43.272   9.509
 1739POPC   PO424588   7.012  42.900   9.410
 1739POPC   GL124589   6.765  43.191   9.107
 1739POPC   GL224590   6.361  43.089   9.008
 1739POPC   C1A24591   6.814  43.292   8.681
 1739POPC   D2A24592   6.602  43.059   8.339
 1739POPC   C3A24593   6.584  43.313   7.965
 1739POPC   C4A24594   6.889  43.447   7.668
 1739POPC   C1B24595   6.406  42.705   8.701
 1739POPC   C2B24596   6.351  42.611   8.250
 1739POPC   C3B24597   6.355  42.861   7.875
 1739POPC   C4B24598   6.293  42.720   7.424
 1740POPC   NC324599  31.659  34.734   9.620
 1740POPC   PO424600  31.804  34.169   9.505
 1740POPC   GL124601  31.641  34.441   9.145
 1740POPC   GL224602  31.606  34.842   9.114
 1740POPC   C1A24603  31.403  34.446   8.756
 1740POPC   D2A24604  31.518  34.413   8.319
 1740POPC   C3A24605  31.207  34.380   7.973
 1740POPC   C4A24606  31.212  34.423   7.528
 1740POPC   C1B24607  31.822  34.747   8.749
 1740POPC   C2B24608  31.781  34.864   8.325
 1740POPC   C3B24609  31.520  34.779   7.949
 1740POPC   C4B24610  31.693  34.670   7.533
 1741POPC   NC324611   0.558  22.595   9.485
 1741POPC   PO424612   0.329  23.238   9.300
 1741POPC   GL124613   0.492  22.920   9.084
 1741POPC   GL224614   0.324  22.597   9.045
 1741POPC   C1A24615   0.444  22.947   8.658
 1741POPC   D2A24616   0.271  23.165   8.301
 1741POPC   C3A24617   0.562  22.993   8.012
 1741POPC   C4A24618   0.630  23.166   7.644
 1741POPC   C1B24619   0.257  22.473   8.662
 1741POPC   C2B24620   0.215  22.666   8.267
 1741POPC   C3B24621   0.128  22.788   7.854
 1741POPC   C4B24622   0.199  22.886   7.449
 1742POPC   NC324623   2.551   3.977   9.418
 1742POPC   PO424624   3.033   4.435   9.633
 1742POPC   GL124625   2.844   4.364   9.229
 1742POPC   GL224626   2.481   4.459   9.194
 1742POPC   C1A24627   2.836   4.152   8.830
 1742POPC   D2A24628   2.643   4.269   8.451
 1742POPC   C3A24629   2.754   4.283   8.036
 1742POPC   C4A24630   2.902   4.266   7.627
 1742POPC   C1B24631   2.304   4.184   8.864
 1742POPC   C2B24632   2.295   3.910   8.523
 1742POPC   C3B24633   2.304   4.018   8.076
 1742POPC   C4B24634   2.494   3.948   7.632
 1743POPC   NC324635  27.039   1.951   9.472
 1743POPC   PO424636  26.396   2.272   9.536
 1743POPC   GL124637  26.650   2.089   9.182
 1743POPC   GL224638  26.638   1.728   9.168
 1743POPC   C1A24639  26.951   1.953   8.825
 1743POPC   D2A24640  26.950   1.814   8.413
 1743POPC   C3A24641  27.127   1.943   8.029
 1743POPC   C4A24642  26.868   2.099   7.699
 1743POPC   C1B24643  26.562   1.585   8.737
 1743POPC   C2B24644  26.715   1.371   8.365
 1743POPC   C3B24645  26.704   1.634   7.988
 1743POPC   C4B24646  26.841   1.606   7.563
 1744POPC   NC324647  23.440  16.909   9.479
 1744POPC   PO424648  23.309  16.327   9.380
 1744POPC   GL124649  23.494  16.586   9.096
 1744POPC   GL224650  23.822  16.709   9.160
 1744POPC   C1A24651  23.436  16.738   8.729
 1744POPC   D2A24652  23.525  16.930   8.352
 1744POPC   C3A24653  23.315  16.819   7.974
 1744POPC   C4A24654  23.380  16.629   7.576
 1744POPC   C1B24655  23.958  16.950   8.779
 1744POPC   C2B24656  23.992  17.120   8.333
 1744POPC   C3B24657  23.789  17.070   7.921
 1744POPC   C4B24658  23.955  17.102   7.514
 1745POPC   NC324659   4.760  21.588   9.668
 1745POPC   PO424660   5.215  21.019   9.624
 1745POPC   GL124661   5.044  21.297   9.308
 1745POPC   GL224662   5.019  21.645   9.195
 1745POPC   C1A24663   5.125  21.228   8.874
 1745POPC   D2A24664   5.223  21.088   8.476
 1745POPC   C3A24665   5.042  21.233   8.110
 1745POPC   C4A24666   5.040  21.214   7.677
 1745POPC   C1B24667   4.784  21.607   8.767
 1745POPC   C2B24668   4.777  21.669   8.291
 1745POPC   C3B24669   4.916  21.679   7.845
 1745POPC   C4B24670   4.793  21.559   7.400
 1746POPC   NC324671   5.826  13.839   9.507
 1746POPC   PO424672   6.182  13.279   9.406
 1746POPC   GL124673   5.882  13.512   9.122
 1746POPC   GL224674   5.985  13.889   9.043
 1746POPC   C1A24675   5.696  13.602   8.724
 1746POPC   D2A24676   5.721  13.786   8.309
 1746POPC   C3A24677   5.621  13.581   7.951
 1746POPC   C4A24678   5.694  13.194   7.770
 1746POPC   C1B24679   6.057  13.959   8.625
 1746POPC   C2B24680   6.249  13.823   8.205
 1746POPC   C3B24681   6.093  13.711   7.770
 1746POPC   C4B24682   6.009  13.982   7.408
 1747POPC   NC324683  23.507  15.743   9.861
 1747POPC   PO424684  23.904  16.278   9.652
 1747POPC   GL124685  24.016  15.987   9.271
 1747POPC   GL224686  23.829  16.198   9.090
 1747POPC   C1A24687  23.871  15.793   8.806
 1747POPC   D2A24688  23.907  16.049   8.416
 1747POPC   C3A24689  23.803  15.918   7.966
 1747POPC   C4A24690  23.741  15.687   7.515
 1747POPC   C1B24691  23.537  16.205   8.751
 1747POPC   C2B24692  23.420  16.361   8.373
 1747POPC   C3B24693  23.536  16.350   7.964
 1747POPC   C4B24694  23.463  16.106   7.593
 1748POPC   NC324695  12.950   0.699   9.747
 1748POPC   PO424696  12.566   0.232   9.592
 1748POPC   GL124697  12.631   0.244   9.160
 1748POPC   GL224698  12.874   0.006   9.050
 1748POPC   C1A24699  12.523   0.254   8.737
 1748POPC   D2A24700  12.452   0.447   8.344
 1748POPC   C3A24701  12.720   0.291   8.013
 1748POPC   C4A24702  12.830   0.430   7.594
 1748POPC   C1B24703  13.236   0.127   8.742
 1748POPC   C2B24704  13.292   0.217   8.286
 1748POPC   C3B24705  13.252   0.217   7.818
 1748POPC   C4B24706  13.283   0.404   7.394
 1749POPC   NC324707  14.700  43.987   9.908
 1749POPC   PO424708  15.314  43.799   9.601
 1749POPC   GL124709  15.221  43.842   9.150
 1749POPC   GL224710  15.011  44.143   9.063
 1749POPC   C1A24711  15.357  43.891   8.675
 1749POPC   D2A24712  15.438  43.818   8.195
 1749POPC   C3A24713  15.061  43.825   7.941
 1749POPC   C4A24714  14.838  43.931   7.529
 1749POPC   C1B24715  14.965  44.229   8.649
 1749POPC   C2B24716  15.140  44.214   8.285
 1749POPC   C3B24717  14.969  44.315   7.890
 1749POPC   C4B24718  15.061  44.500   7.540
 1750POPC   NC324719   5.491  34.731   9.509
 1750POPC   PO424720   6.016  34.316   9.500
 1750POPC   GL124721   6.008  34.480   9.108
 1750POPC   GL224722   5.877  34.826   9.075
 1750POPC   C1A24723   6.050  34.505   8.689
 1750POPC   D2A24724   5.837  34.630   8.337
 1750POPC   C3A24725   5.996  34.532   7.938
 1750POPC   C4A24726   6.332  34.740   7.744
 1750POPC   C1B24727   5.554  34.569   8.816
 1750POPC   C2B24728   5.419  34.343   8.425
 1750POPC   C3B24729   5.478  34.483   8.011
 1750POPC   C4B24730   5.616  34.397   7.585
 1751POPC   NC324731  15.784  28.234   9.413
 1751POPC   PO424732  16.363  28.595   9.459
 1751POPC   GL124733  16.016  28.685   9.186
 1751POPC   GL224734  15.627  28.693   9.264
 1751POPC   C1A24735  16.049  28.432   8.826
 1751POPC   D2A24736  15.854  28.313   8.485
 1751POPC   C3A24737  16.176  28.401   8.192
 1751POPC   C4A24738  16.135  28.531   7.790
 1751POPC   C1B24739  15.602  28.686   8.811
 1751POPC   C2B24740  15.693  28.775   8.370
 1751POPC   C3B24741  15.676  28.473   8.043
 1751POPC   C4B24742  15.635  28.443   7.648
 1752POPC   NC324743  23.813  21.510   9.624
 1752POPC   PO424744  23.168  21.504   9.484
 1752POPC   GL124745  23.520  21.373   9.203
 1752POPC   GL224746  23.709  21.038   9.208
 1752POPC   C1A24747  23.786  21.485   8.856
 1752POPC   D2A24748  23.827  21.320   8.433
 1752POPC   C3A24749  23.888  21.601   8.088
 1752POPC   C4A24750  23.874  21.919   7.813
 1752POPC   C1B24751  23.541  21.023   8.785
 1752POPC   C2B24752  23.406  21.014   8.342
 1752POPC   C3B24753  23.679  21.110   7.977
 1752POPC   C4B24754  23.690  21.092   7.543
 1753POPC   NC324755  25.847  14.917   9.521
 1753POPC   PO424756  26.351  15.342   9.548
 1753POPC   GL124757  26.054  15.333   9.175
 1753POPC   GL224758  25.896  15.041   9.041
 1753POPC   C1A24759  26.121  15.318   8.717
 1753POPC   D2A24760  25.885  15.063   8.439
 1753POPC   C3A24761  25.930  15.313   8.093
 1753POPC   C4A24762  26.306  15.333   7.875
 1753POPC   C1B24763  26.155  14.749   8.794
 1753POPC   C2B24764  26.287  14.626   8.390
 1753POPC   C3B24765  26.145  14.849   8.018
 1753POPC   C4B24766  26.292  14.879   7.587
 1754POPC   NC324767  28.571  14.331   9.509
 1754POPC   PO424768  27.920  14.195   9.547
 1754POPC   GL124769  28.172  14.136   9.174
 1754POPC   GL224770  28.328  14.475   9.094
 1754POPC   C1A24771  28.370  14.105   8.750
 1754POPC   D2A24772  28.399  14.431   8.429
 1754POPC   C3A24773  28.479  14.322   7.999
 1754POPC   C4A24774  28.306  14.181   7.593
 1754POPC   C1B24775  28.542  14.767   8.830
 1754POPC   C2B24776  28.695  14.860   8.443
 1754POPC   C3B24777  28.477  14.868   8.050
 1754POPC   C4B24778  28.451  14.691   7.640
 1755POPC   NC324779  35.494  36.722   9.423
 1755POPC   PO424780  35.730  37.411   9.447
 1755POPC   GL124781  35.612  37.149   9.105
 1755POPC   GL224782  35.263  37.075   9.124
 1755POPC   C1A24783  35.485  36.848   8.738
 1755POPC   D2A24784  35.351  36.515   8.450
 1755POPC   C3A24785  35.171  36.716   8.071
 1755POPC   C4A24786  35.107  36.657   7.624
 1755POPC   C1B24787  35.285  37.339   8.778
 1755POPC   C2B24788  35.547  37.305   8.414
 1755POPC   C3B24789  35.410  37.177   7.976
 1755POPC   C4B24790  35.190  37.139   7.581
 1756POPC   NC324791  12.856  13.298   9.592
 1756POPC   PO424792  12.907  13.944   9.614
 1756POPC   GL124793  12.752  13.676   9.233
 1756POPC   GL224794  12.994  13.395   9.123
 1756POPC   C1A24795  12.669  13.600   8.780
 1756POPC   D2A24796  12.401  13.738   8.453
 1756POPC   C3A24797  12.588  13.691   8.079
 1756POPC   C4A24798  12.913  13.619   7.822
 1756POPC   C1B24799  13.117  13.236   8.744
 1756POPC   C2B24800  12.995  13.383   8.339
 1756POPC   C3B24801  13.311  13.350   8.016
 1756POPC   C4B24802  13.265  13.326   7.573
 1757POPC   NC324803  39.347   9.554   9.553
 1757POPC   PO424804  39.059  10.048   9.336
 1757POPC   GL124805  39.353   9.871   9.098
 1757POPC   GL224806  39.456   9.520   9.045
 1757POPC   C1A24807  39.357   9.880   8.665
 1757POPC   D2A24808  39.565  10.009   8.318
 1757POPC   C3A24809  39.333   9.785   8.045
 1757POPC   C4A24810  39.281   9.771   7.621
 1757POPC   C1B24811  39.101   9.432   8.749
 1757POPC   C2B24812  38.953   9.263   8.330
 1757POPC   C3B24813  39.006   9.418   7.916
 1757POPC   C4B24814  39.433   9.324   7.794
 1758POPC   NC324815  11.429  35.417   9.707
 1758POPC   PO424816  11.121  35.172   9.156
 1758POPC   GL124817  11.321  35.535   8.993
 1758POPC   GL224818  11.590  35.538   9.226
 1758POPC   C1A24819  11.289  35.555   8.558
 1758POPC   D2A24820  11.299  35.725   8.158
 1758POPC   C3A24821  11.189  35.449   7.826
 1758POPC   C4A24822  11.180  35.356   7.375
 1758POPC   C1B24823  11.700  35.200   8.906
 1758POPC   C2B24824  11.690  35.241   8.452
 1758POPC   C3B24825  11.520  35.103   8.045
 1758POPC   C4B24826  11.583  35.105   7.596
 1759POPC   NC324827  35.519   1.779   9.537
 1759POPC   PO424828  34.915   2.175   9.613
 1759POPC   GL124829  35.183   1.987   9.225
 1759POPC   GL224830  35.533   1.980   9.090
 1759POPC   C1A24831  35.174   1.860   8.752
 1759POPC   D2A24832  35.038   1.969   8.347
 1759POPC   C3A24833  35.328   1.969   8.036
 1759POPC   C4A24834  35.235   2.061   7.628
 1759POPC   C1B24835  35.647   1.654   8.782
 1759POPC   C2B24836  35.638   1.488   8.327
 1759POPC   C3B24837  35.568   1.537   7.836
 1759POPC   C4B24838  35.475   1.688   7.369
 1760POPC   NC324839  40.250  13.395   9.751
 1760POPC   PO424840  39.759  13.772   9.358
 1760POPC   GL124841  39.946  13.539   9.050
 1760POPC   GL224842  40.121  13.333   9.268
 1760POPC   C1A24843  39.862  13.612   8.627
 1760POPC   D2A24844  39.785  13.900   8.315
 1760POPC   C3A24845  39.983  13.723   7.954
 1760POPC   C4A24846  40.073  13.797   7.531
 1760POPC   C1B24847  40.398  13.207   8.942
 1760POPC   C2B24848  40.346  13.439   8.564
 1760POPC   C3B24849  40.220  13.307   8.142
 1760POPC   C4B24850  40.196  13.310   7.690
 1761POPC   NC324851  10.926  13.098   9.327
 1761POPC   PO424852  10.330  13.453   9.473
 1761POPC   GL124853  10.378  13.799   9.137
 1761POPC   GL224854  10.720  13.921   9.027
 1761POPC   C1A24855  10.268  13.972   8.715
 1761POPC   D2A24856  10.403  13.832   8.308
 1761POPC   C3A24857  10.367  13.374   8.196
 1761POPC   C4A24858  10.430  13.292   7.738
 1761POPC   C1B24859  10.645  13.605   8.731
 1761POPC   C2B24860  10.836  13.538   8.346
 1761POPC   C3B24861  10.733  13.661   7.937
 1761POPC   C4B24862  10.897  13.443   7.599
 1762POPC   NC324863  28.226   8.852   9.438
 1762POPC   PO424864  28.348   9.525   9.592
 1762POPC   GL124865  28.320   9.371   9.160
 1762POPC   GL224866  28.025   9.191   9.077
 1762POPC   C1A24867  28.397   9.268   8.693
 1762POPC   D2A24868  28.647   9.132   8.309
 1762POPC   C3A24869  28.359   8.967   7.964
 1762POPC   C4A24870  28.284   9.070   7.526
 1762POPC   C1B24871  28.152   8.815   8.813
 1762POPC   C2B24872  28.278   8.710   8.402
 1762POPC   C3B24873  28.000   8.562   8.084
 1762POPC   C4B24874  27.912   8.743   7.711
 1763POPC   NC324875   2.755  26.469   9.753
 1763POPC   PO424876   2.808  25.866   9.534
 1763POPC   GL124877   2.786  26.119   9.172
 1763POPC   GL224878   3.083  26.316   9.241
 1763POPC   C1A24879   2.611  26.049   8.738
 1763POPC   D2A24880   2.825  25.796   8.430
 1763POPC   C3A24881   2.890  25.900   8.011
 1763POPC   C4A24882   2.961  25.721   7.641
 1763POPC   C1B24883   3.065  26.280   8.767
 1763POPC   C2B24884   2.923  26.295   8.325
 1763POPC   C3B24885   2.941  26.390   7.870
 1763POPC   C4B24886   2.646  26.552   7.571
 1764POPC   NC324887   5.180  35.240   9.778
 1764POPC   PO424888   4.877  35.802   9.587
 1764POPC   GL124889   5.117  35.499   9.279
 1764POPC   GL224890   5.144  35.119   9.285
 1764POPC   C1A24891   5.000  35.319   8.860
 1764POPC   D2A24892   5.162  35.333   8.451
 1764POPC   C3A24893   4.920  35.398   8.123
 1764POPC   C4A24894   5.070  35.151   7.822
 1764POPC   C1B24895   5.421  35.045   8.923
 1764POPC   C2B24896   5.673  35.054   8.562
 1764POPC   C3B24897   5.515  35.045   8.117
 1764POPC   C4B24898   5.476  34.875   7.679
 1765POPC   NC324899   4.444  30.109   9.433
 1765POPC   PO424900   4.014  29.550   9.462
 1765POPC   GL124901   4.215  29.742   9.119
 1765POPC   GL224902   4.139  30.052   9.037
 1765POPC   C1A24903   4.470  29.756   8.744
 1765POPC   D2A24904   4.545  30.029   8.409
 1765POPC   C3A24905   4.313  29.868   8.072
 1765POPC   C4A24906   4.472  29.861   7.699
 1765POPC   C1B24907   4.217  30.294   8.719
 1765POPC   C2B24908   4.015  30.195   8.318
 1765POPC   C3B24909   4.084  30.269   7.842
 1765POPC   C4B24910   3.914  30.242   7.384
 1766POPC   NC324911  40.389  30.853   9.524
 1766POPC   PO424912  41.029  30.629   9.450
 1766POPC   GL124913  40.943  30.884   9.098
 1766POPC   GL224914  40.599  30.884   9.075
 1766POPC   C1A24915  40.903  30.902   8.680
 1766POPC   D2A24916  41.073  30.713   8.377
 1766POPC   C3A24917  40.902  30.846   8.035
 1766POPC   C4A24918  41.052  30.684   7.704
 1766POPC   C1B24919  40.588  30.515   8.823
 1766POPC   C2B24920  40.542  30.585   8.377
 1766POPC   C3B24921  40.388  30.876   8.072
 1766POPC   C4B24922  40.509  30.849   7.663
 1767POPC   NC324923  30.225  26.183   9.753
 1767POPC   PO424924  30.870  26.180   9.550
 1767POPC   GL124925  30.833  25.970   9.114
 1767POPC   GL224926  30.496  25.893   9.057
 1767POPC   C1A24927  30.805  25.876   8.654
 1767POPC   D2A24928  30.860  25.861   8.223
 1767POPC   C3A24929  30.577  25.898   7.891
 1767POPC   C4A24930  30.835  25.648   7.668
 1767POPC   C1B24931  30.618  26.322   8.802
 1767POPC   C2B24932  30.408  26.623   8.542
 1767POPC   C3B24933  30.333  26.547   8.098
 1767POPC   C4B24934  30.444  26.357   7.696
 1768POPC   NC324935  28.153  20.004   9.887
 1768POPC   PO424936  28.757  20.080   9.634
 1768POPC   GL124937  28.471  20.126   9.247
 1768POPC   GL224938  28.109  20.049   9.342
 1768POPC   C1A24939  28.586  20.050   8.769
 1768POPC   D2A24940  28.669  19.834   8.349
 1768POPC   C3A24941  28.546  19.999   7.923
 1768POPC   C4A24942  28.683  20.363   7.626
 1768POPC   C1B24943  28.214  19.759   8.987
 1768POPC   C2B24944  28.188  19.756   8.552
 1768POPC   C3B24945  27.978  19.919   8.166
 1768POPC   C4B24946  28.047  19.781   7.788
 1769POPC   NC324947   6.348  29.721   9.565
 1769POPC   PO424948   5.741  30.154   9.523
 1769POPC   GL124949   5.810  29.918   9.169
 1769POPC   GL224950   5.567  29.646   9.110
 1769POPC   C1A24951   6.169  29.852   8.904
 1769POPC   D2A24952   6.325  29.985   8.512
 1769POPC   C3A24953   6.109  29.861   8.133
 1769POPC   C4A24954   6.228  29.882   7.692
 1769POPC   C1B24955   5.541  29.823   8.742
 1769POPC   C2B24956   5.600  29.978   8.376
 1769POPC   C3B24957   5.418  29.876   8.009
 1769POPC   C4B24958   5.753  29.727   7.770
 1770POPC   NC324959  24.062   6.412   9.629
 1770POPC   PO424960  24.738   6.227   9.550
 1770POPC   GL124961  24.693   6.438   9.171
 1770POPC   GL224962  24.341   6.446   9.186
 1770POPC   C1A24963  24.755   6.722   8.827
 1770POPC   D2A24964  24.527   6.986   8.539
 1770POPC   C3A24965  24.477   6.901   8.084
 1770POPC   C4A24966  24.614   6.712   7.693
 1770POPC   C1B24967  24.430   6.321   8.770
 1770POPC   C2B24968  24.573   6.490   8.392
 1770POPC   C3B24969  24.438   6.350   8.012
 1770POPC   C4B24970  24.218   6.402   7.632
 1771POPC   NC324971   7.796   0.251   9.575
 1771POPC   PO424972   8.246   0.689   9.374
 1771POPC   GL124973   8.376   0.456   9.057
 1771POPC   GL224974   8.107   0.252   9.128
 1771POPC   C1A24975   8.240   0.412   8.655
 1771POPC   D2A24976   8.084   0.685   8.358
 1771POPC   C3A24977   8.193   0.551   7.981
 1771POPC   C4A24978   8.471   0.417   7.703
 1771POPC   C1B24979   7.901   0.023   8.745
 1771POPC   C2B24980   7.973   0.116   8.321
 1771POPC   C3B24981   7.793   0.216   7.936
 1771POPC   C4B24982   8.039   0.198   7.583
 1772POPC   NC324983  42.004   1.676   9.722
 1772POPC   PO424984  41.519   1.171   9.597
 1772POPC   GL124985  41.429   1.052   9.200
 1772POPC   GL224986  41.194   1.343   9.180
 1772POPC   C1A24987  41.713   0.998   8.825
 1772POPC   D2A24988  41.611   1.204   8.428
 1772POPC   C3A24989  41.735   1.089   8.034
 1772POPC   C4A24990  41.696   1.409   7.708
 1772POPC   C1B24991  41.245   1.282   8.772
 1772POPC   C2B24992  41.051   1.241   8.390
 1772POPC   C3B24993  41.274   1.325   8.024
 1772POPC   C4B24994  41.337   1.064   7.707
 1773POPC   NC324995  20.946  21.480   9.557
 1773POPC   PO424996  20.431  20.996   9.452
 1773POPC   GL124997  20.742  21.174   9.180
 1773POPC   GL224998  20.643  21.544   9.139
 1773POPC   C1A24999  20.877  21.278   8.764
 1773POPC   D2A25000  20.933  21.471   8.380
 1773POPC   C3A25001  20.659  21.290   8.090
 1773POPC   C4A25002  20.682  21.209   7.654
 1773POPC   C1B25003  20.427  21.515   8.711
 1773POPC   C2B25004  20.184  21.389   8.363
 1773POPC   C3B25005  20.318  21.686   8.101
 1773POPC   C4B25006  20.627  21.721   7.773
 1774POPC   NC325007   5.621  26.811   9.679
 1774POPC   PO425008   5.047  26.824   9.684
 1774POPC   GL125009   4.982  26.763   9.228
 1774POPC   GL225010   5.300  26.841   9.058
 1774POPC   C1A25011   4.876  26.841   8.770
 1774POPC   D2A25012   5.062  26.921   8.359
 1774POPC   C3A25013   4.806  26.821   7.993
 1774POPC   C4A25014   4.922  26.868   7.587
 1774POPC   C1B25015   5.246  27.216   8.763
 1774POPC   C2B25016   5.418  27.318   8.357
 1774POPC   C3B25017   5.404  27.080   7.964
 1774POPC   C4B25018   5.311  27.165   7.524
 1775POPC   NC325019  13.024   7.733   9.519
 1775POPC   PO425020  12.613   7.206   9.381
 1775POPC   GL125021  12.917   7.372   9.107
 1775POPC   GL225022  12.967   7.711   9.031
 1775POPC   C1A25023  13.083   7.359   8.675
 1775POPC   D2A25024  13.118   7.142   8.304
 1775POPC   C3A25025  13.194   7.346   7.905
 1775POPC   C4A25026  12.919   7.361   7.515
 1775POPC   C1B25027  12.940   7.854   8.653
 1775POPC   C2B25028  13.109   7.699   8.270
 1775POPC   C3B25029  12.804   7.680   7.947
 1775POPC   C4B25030  12.724   7.818   7.557
 1776POPC   NC325031   0.873  25.301   9.517
 1776POPC   PO425032   1.444  25.062   9.495
 1776POPC   GL125033   1.246  25.322   9.140
 1776POPC   GL225034   0.932  25.512   9.069
 1776POPC   C1A25035   1.290  25.205   8.704
 1776POPC   D2A25036   1.284  25.385   8.282
 1776POPC   C3A25037   1.311  25.144   7.869
 1776POPC   C4A25038   1.355  25.257   7.441
 1776POPC   C1B25039   1.014  25.663   8.673
 1776POPC   C2B25040   0.779  25.553   8.302
 1776POPC   C3B25041   0.752  25.344   7.925
 1776POPC   C4B25042   0.868  25.369   7.519
 1777POPC   NC325043   8.441  28.589   9.444
 1777POPC   PO425044   7.946  28.118   9.549
 1777POPC   GL125045   8.119  28.295   9.182
 1777POPC   GL225046   7.950  28.594   9.208
 1777POPC   C1A25047   8.259  28.122   8.794
 1777POPC   D2A25048   8.246  28.244   8.386
 1777POPC   C3A25049   8.562  28.261   8.122
 1777POPC   C4A25050   8.590  28.462   7.783
 1777POPC   C1B25051   8.155  28.668   8.798
 1777POPC   C2B25052   7.952  28.660   8.403
 1777POPC   C3B25053   8.157  28.611   8.001
 1777POPC   C4B25054   7.985  28.588   7.598
 1778POPC   NC325055  17.196  26.090   9.490
 1778POPC   PO425056  16.723  25.588   9.427
 1778POPC   GL125057  16.722  25.975   9.112
 1778POPC   GL225058  17.076  26.084   8.969
 1778POPC   C1A25059  16.682  26.183   8.669
 1778POPC   D2A25060  16.515  26.203   8.237
 1778POPC   C3A25061  16.733  26.332   7.862
 1778POPC   C4A25062  16.999  26.419   7.466
 1778POPC   C1B25063  16.994  25.695   8.800
 1778POPC   C2B25064  16.768  25.662   8.453
 1778POPC   C3B25065  16.867  25.863   8.069
 1778POPC   C4B25066  17.135  26.035   7.763
 1779POPC   NC325067  10.769  39.379   9.443
 1779POPC   PO425068  11.260  38.907   9.451
 1779POPC   GL125069  11.342  39.179   9.106
 1779POPC   GL225070  11.118  39.453   9.094
 1779POPC   C1A25071  11.343  39.193   8.661
 1779POPC   D2A25072  11.594  38.965   8.336
 1779POPC   C3A25073  11.438  39.053   7.939
 1779POPC   C4A25074  11.558  39.452   7.691
 1779POPC   C1B25075  11.008  39.637   8.728
 1779POPC   C2B25076  11.131  39.547   8.319
 1779POPC   C3B25077  11.109  39.432   7.903
 1779POPC   C4B25078  11.100  39.472   7.439
 1780POPC   NC325079  43.435  38.917   9.492
 1780POPC   PO425080  42.923  39.364   9.526
 1780POPC   GL125081  43.068  39.294   9.119
 1780POPC   GL225082  43.423  39.230   9.078
 1780POPC   C1A25083  42.972  39.338   8.682
 1780POPC   D2A25084  42.797  39.222   8.274
 1780POPC   C3A25085  43.070  39.391   7.941
 1780POPC   C4A25086  43.541  39.352   7.938
 1780POPC   C1B25087  43.369  38.991   8.692
 1780POPC   C2B25088  43.277  39.050   8.292
 1780POPC   C3B25089  43.060  38.887   7.955
 1780POPC   C4B25090  43.234  39.025   7.600
 1781POPC   NC325091  43.489  29.807   9.518
 1781POPC   PO425092  44.086  30.136   9.608
 1781POPC   GL125093  43.911  29.932   9.256
 1781POPC   GL225094  43.591  30.130   9.158
 1781POPC   C1A25095  44.122  29.752   8.899
 1781POPC   D2A25096  44.110  29.813   8.450
 1781POPC   C3A25097  43.976  29.626   8.029
 1781POPC   C4A25098  44.278  29.876   7.866
 1781POPC   C1B25099  43.606  29.760   8.875
 1781POPC   C2B25100  43.593  29.786   8.441
 1781POPC   C3B25101  43.688  30.040   8.094
 1781POPC   C4B25102  43.558  29.900   7.712
 1782POPC   NC325103  13.296  17.325   9.538
 1782POPC   PO425104  12.686  17.175   9.507
 1782POPC   GL125105  12.931  17.312   9.151
 1782POPC   GL225106  13.214  17.094   9.102
 1782POPC   C1A25107  12.768  17.419   8.741
 1782POPC   D2A25108  12.780  17.229   8.305
 1782POPC   C3A25109  12.798  17.579   8.013
 1782POPC   C4A25110  12.611  17.820   7.654
 1782POPC   C1B25111  13.126  17.084   8.674
 1782POPC   C2B25112  13.281  17.091   8.265
 1782POPC   C3B25113  13.089  17.157   7.896
 1782POPC   C4B25114  12.675  17.214   7.702
 1783POPC   NC325115   5.660  18.871   9.502
 1783POPC   PO425116   6.213  19.048   9.806
 1783POPC   GL125117   6.142  19.057   9.316
 1783POPC   GL225118   6.292  19.378   9.249
 1783POPC   C1A25119   5.844  18.992   8.892
 1783POPC   D2A25120   5.770  18.797   8.463
 1783POPC   C3A25121   5.913  18.959   8.057
 1783POPC   C4A25122   5.708  19.283   7.803
 1783POPC   C1B25123   6.274  19.238   8.835
 1783POPC   C2B25124   6.038  19.240   8.473
 1783POPC   C3B25125   6.102  19.427   8.086
 1783POPC   C4B25126   6.207  19.293   7.685
 1784POPC   NC325127  38.653  10.020   9.517
 1784POPC   PO425128  38.134   9.769   9.595
 1784POPC   GL125129  38.392   9.726   9.183
 1784POPC   GL225130  38.787   9.640   9.184
 1784POPC   C1A25131  38.331   9.918   8.749
 1784POPC   D2A25132  38.540  10.128   8.366
 1784POPC   C3A25133  38.333  10.056   7.950
 1784POPC   C4A25134  38.192   9.629   7.842
 1784POPC   C1B25135  38.842   9.889   8.771
 1784POPC   C2B25136  38.928   9.768   8.367
 1784POPC   C3B25137  38.812   9.892   7.975
 1784POPC   C4B25138  38.788   9.808   7.554
 1785POPC   NC325139  27.970  43.541   9.524
 1785POPC   PO425140  27.390  43.154   9.562
 1785POPC   GL125141  27.627  43.209   9.208
 1785POPC   GL225142  27.312  43.234   9.062
 1785POPC   C1A25143  27.788  43.027   8.825
 1785POPC   D2A25144  28.015  43.013   8.420
 1785POPC   C3A25145  27.790  42.756   8.129
 1785POPC   C4A25146  27.624  43.061   7.885
 1785POPC   C1B25147  27.232  42.932   8.762
 1785POPC   C2B25148  27.446  43.067   8.404
 1785POPC   C3B25149  27.280  43.378   8.143
 1785POPC   C4B25150  27.144  43.131   7.795
 1786POPC   NC325151  23.008   2.434   9.420
 1786POPC   PO425152  22.934   1.793   9.671
 1786POPC   GL125153  22.847   1.946   9.268
 1786POPC   GL225154  23.169   1.962   9.197
 1786POPC   C1A25155  22.798   1.981   8.795
 1786POPC   D2A25156  22.870   1.918   8.310
 1786POPC   C3A25157  22.688   2.200   7.976
 1786POPC   C4A25158  22.807   2.278   7.530
 1786POPC   C1B25159  23.335   1.938   8.795
 1786POPC   C2B25160  23.389   2.241   8.527
 1786POPC   C3B25161  23.413   2.074   8.152
 1786POPC   C4B25162  23.142   1.998   7.846
 1787POPC   NC325163   8.043  40.417   9.512
 1787POPC   PO425164   7.822  39.734   9.501
 1787POPC   GL125165   8.003  39.717   9.146
 1787POPC   GL225166   8.290  39.948   9.208
 1787POPC   C1A25167   7.892  39.553   8.779
 1787POPC   D2A25168   8.038  39.818   8.496
 1787POPC   C3A25169   7.994  39.799   8.088
 1787POPC   C4A25170   8.216  40.081   7.817
 1787POPC   C1B25171   8.358  40.109   8.768
 1787POPC   C2B25172   8.256  40.256   8.330
 1787POPC   C3B25173   8.526  40.446   8.025
 1787POPC   C4B25174   8.758  40.412   7.648
 1788POPC   NC325175   3.433  25.110   9.579
 1788POPC   PO425176   3.725  25.662   9.560
 1788POPC   GL125177   3.528  25.483   9.193
 1788POPC   GL225178   3.289  25.256   9.112
 1788POPC   C1A25179   3.659  25.242   8.791
 1788POPC   D2A25180   3.388  25.094   8.467
 1788POPC   C3A25181   3.620  24.940   8.118
 1788POPC   C4A25182   3.632  25.105   7.698
 1788POPC   C1B25183   3.213  25.528   8.717
 1788POPC   C2B25184   3.249  25.562   8.254
 1788POPC   C3B25185   3.203  25.215   7.986
 1788POPC   C4B25186   3.050  24.862   7.782
 1789POPC   NC325187   1.073   6.192   9.767
 1789POPC   PO425188   1.610   6.520   9.463
 1789POPC   GL125189   1.448   6.728   9.134
 1789POPC   GL225190   1.081   6.699   9.139
 1789POPC   C1A25191   1.354   6.684   8.712
 1789POPC   D2A25192   1.113   6.813   8.375
 1789POPC   C3A25193   1.413   6.806   8.092
 1789POPC   C4A25194   1.249   6.769   7.748
 1789POPC   C1B25195   0.833   6.609   8.757
 1789POPC   C2B25196   0.821   6.398   8.332
 1789POPC   C3B25197   1.008   6.315   7.920
 1789POPC   C4B25198   0.917   6.498   7.496
 1790POPC   NC325199  37.253  10.396   9.862
 1790POPC   PO425200  36.779  10.431   9.394
 1790POPC   GL125201  36.804  10.775   9.050
 1790POPC   GL225202  36.482  10.836   8.903
 1790POPC   C1A25203  36.869  10.889   8.590
 1790POPC   D2A25204  36.687  10.837   8.150
 1790POPC   C3A25205  36.827  10.537   7.799
 1790POPC   C4A25206  36.557  10.310   7.463
 1790POPC   C1B25207  36.575  10.462   8.663
 1790POPC   C2B25208  36.648  10.288   8.228
 1790POPC   C3B25209  36.812  10.026   7.843
 1790POPC   C4B25210  36.746   9.833   7.404
 1791POPC   NC325211  24.896  41.488   9.510
 1791POPC   PO425212  24.628  42.105   9.637
 1791POPC   GL125213  24.744  41.880   9.211
 1791POPC   GL225214  24.527  41.616   9.145
 1791POPC   C1A25215  24.711  41.794   8.728
 1791POPC   D2A25216  24.436  41.505   8.455
 1791POPC   C3A25217  24.501  41.692   8.066
 1791POPC   C4A25218  24.848  41.991   8.015
 1791POPC   C1B25219  24.731  41.305   8.862
 1791POPC   C2B25220  24.921  41.295   8.434
 1791POPC   C3B25221  24.713  41.236   8.044
 1791POPC   C4B25222  24.547  41.399   7.633
 1792POPC   NC325223   3.582   8.530   9.449
 1792POPC   PO425224   3.740   9.088   9.546
 1792POPC   GL125225   3.497   8.997   9.199
 1792POPC   GL225226   3.160   9.177   9.177
 1792POPC   C1A25227   3.482   8.720   8.857
 1792POPC   D2A25228   3.432   8.539   8.517
 1792POPC   C3A25229   3.567   8.789   8.213
 1792POPC   C4A25230   3.587   8.681   7.801
 1792POPC   C1B25231   3.377   9.232   8.761
 1792POPC   C2B25232   3.337   9.337   8.326
 1792POPC   C3B25233   3.370   9.171   7.902
 1792POPC   C4B25234   3.183   9.390   7.564
 1793POPC   NC325235  19.422   8.223   9.593
 1793POPC   PO425236  18.824   8.457   9.409
 1793POPC   GL125237  18.939   8.353   9.065
 1793POPC   GL225238  19.130   8.051   9.111
 1793POPC   C1A25239  19.116   8.385   8.695
 1793POPC   D2A25240  19.247   8.023   8.469
 1793POPC   C3A25241  19.307   8.067   8.037
 1793POPC   C4A25242  19.373   7.743   7.745
 1793POPC   C1B25243  18.797   7.959   8.795
 1793POPC   C2B25244  18.754   8.151   8.401
 1793POPC   C3B25245  18.993   8.445   8.196
 1793POPC   C4B25246  19.008   8.492   7.780
 1794POPC   NC325247  41.229  23.984   9.336
 1794POPC   PO425248  40.841  24.434   9.641
 1794POPC   GL125249  40.823  24.565   9.202
 1794POPC   GL225250  40.583  24.324   9.071
 1794POPC   C1A25251  40.762  24.710   8.780
 1794POPC   D2A25252  40.983  24.552   8.433
 1794POPC   C3A25253  40.905  24.722   8.031
 1794POPC   C4A25254  41.206  24.746   7.679
 1794POPC   C1B25255  40.649  24.197   8.644
 1794POPC   C2B25256  40.390  24.130   8.271
 1794POPC   C3B25257  40.483  24.186   7.850
 1794POPC   C4B25258  40.863  24.372   7.667
 1795POPC   NC325259   8.245  39.553   9.559
 1795POPC   PO425260   7.956  38.921   9.664
 1795POPC   GL125261   8.233  38.939   9.285
 1795POPC   GL225262   8.293  39.271   9.153
 1795POPC   C1A25263   8.186  38.902   8.833
 1795POPC   D2A25264   8.006  39.141   8.477
 1795POPC   C3A25265   8.171  39.172   8.048
 1795POPC   C4A25266   8.133  39.463   7.718
 1795POPC   C1B25267   8.390  39.550   8.837
 1795POPC   C2B25268   8.418  39.480   8.412
 1795POPC   C3B25269   8.487  39.655   8.015
 1795POPC   C4B25270   8.586  39.771   7.590
 1796POPC   NC325271  22.631  27.669   9.583
 1796POPC   PO425272  23.027  27.105   9.609
 1796POPC   GL125273  22.982  27.359   9.264
 1796POPC   GL225274  23.128  27.693   9.247
 1796POPC   C1A25275  22.986  27.385   8.845
 1796POPC   D2A25276  22.908  27.576   8.514
 1796POPC   C3A25277  22.910  27.389   8.160
 1796POPC   C4A25278  22.785  27.483   7.767
 1796POPC   C1B25279  22.911  27.930   8.907
 1796POPC   C2B25280  22.936  28.071   8.479
 1796POPC   C3B25281  22.815  27.891   8.102
 1796POPC   C4B25282  22.831  28.003   7.703
 1797POPC   NC325283  28.714  13.342   9.552
 1797POPC   PO425284  28.044  13.388   9.490
 1797POPC   GL125285  28.298  13.425   9.133
 1797POPC   GL225286  28.637  13.393   9.043
 1797POPC   C1A25287  28.251  13.587   8.706
 1797POPC   D2A25288  28.164  13.867   8.322
 1797POPC   C3A25289  28.385  13.790   7.912
 1797POPC   C4A25290  28.487  13.689   7.446
 1797POPC   C1B25291  28.830  13.269   8.644
 1797POPC   C2B25292  28.882  13.351   8.208
 1797POPC   C3B25293  28.565  13.312   7.832
 1797POPC   C4B25294  28.670  13.222   7.392
 1798POPC   NC325295  26.637  22.636   9.876
 1798POPC   PO425296  26.762  22.056   9.573
 1798POPC   GL125297  26.556  22.028   9.148
 1798POPC   GL225298  26.671  22.292   8.886
 1798POPC   C1A25299  26.667  21.796   8.766
 1798POPC   D2A25300  26.948  21.891   8.425
 1798POPC   C3A25301  26.761  22.123   8.111
 1798POPC   C4A25302  26.717  22.034   7.684
 1798POPC   C1B25303  26.899  22.591   8.630
 1798POPC   C2B25304  27.214  22.460   8.332
 1798POPC   C3B25305  27.195  22.450   7.921
 1798POPC   C4B25306  26.812  22.527   7.801
 1799POPC   NC325307  43.463  35.609   9.281
 1799POPC   PO425308  43.124  35.130   9.561
 1799POPC   GL125309  42.905  35.449   9.313
 1799POPC   GL225310  43.086  35.307   9.040
 1799POPC   C1A25311  42.667  35.564   8.936
 1799POPC   D2A25312  42.850  35.359   8.571
 1799POPC   C3A25313  42.933  35.581   8.210
 1799POPC   C4A25314  42.948  35.473   7.784
 1799POPC   C1B25315  43.345  35.346   8.679
 1799POPC   C2B25316  43.374  35.163   8.297
 1799POPC   C3B25317  43.261  35.078   7.906
 1799POPC   C4B25318  43.331  35.255   7.528
 1800POPC   NC325319  42.577  38.958   9.514
 1800POPC   PO425320  42.128  39.485   9.459
 1800POPC   GL125321  42.389  39.423   9.064
 1800POPC   GL225322  42.551  39.105   9.029
 1800POPC   C1A25323  42.429  39.402   8.592
 1800POPC   D2A25324  42.103  39.431   8.248
 1800POPC   C3A25325  42.108  39.204   7.825
 1800POPC   C4A25326  42.008  39.125   7.363
 1800POPC   C1B25327  42.345  38.895   8.688
 1800POPC   C2B25328  42.343  38.981   8.262
 1800POPC   C3B25329  42.561  38.943   7.892
 1800POPC   C4B25330  42.352  38.809   7.561
 1801POPC   NC325331   2.644   1.448   9.429
 1801POPC   PO425332   2.860   0.749   9.553
 1801POPC   GL125333   2.804   0.979   9.183
 1801POPC   GL225334   3.020   1.244   9.120
 1801POPC   C1A25335   2.674   1.114   8.775
 1801POPC   D2A25336   2.855   1.152   8.390
 1801POPC   C3A25337   2.558   1.150   8.092
 1801POPC   C4A25338   2.565   0.940   7.728
 1801POPC   C1B25339   3.152   1.435   8.749
 1801POPC   C2B25340   3.093   1.626   8.356
 1801POPC   C3B25341   3.079   1.598   7.919
 1801POPC   C4B25342   2.778   1.408   7.693
 1802POPC   NC325343  19.308   9.781   9.475
 1802POPC   PO425344  18.750   9.907   9.201
 1802POPC   GL125345  18.940   9.583   9.070
 1802POPC   GL225346  19.209   9.762   8.989
 1802POPC   C1A25347  18.894   9.350   8.688
 1802POPC   D2A25348  19.115   9.376   8.296
 1802POPC   C3A25349  18.972   9.758   8.101
 1802POPC   C4A25350  18.733   9.600   7.778
 1802POPC   C1B25351  19.170   9.781   8.595
 1802POPC   C2B25352  19.488   9.731   8.326
 1802POPC   C3B25353  19.462   9.862   7.959
 1802POPC   C4B25354  19.221   9.658   7.652
 1803POPC   NC325355  14.212  21.070   9.587
 1803POPC   PO425356  14.841  21.308   9.566
 1803POPC   GL125357  14.596  21.323   9.160
 1803POPC   GL225358  14.327  21.068   9.100
 1803POPC   C1A25359  14.682  21.493   8.740
 1803POPC   D2A25360  14.844  21.690   8.345
 1803POPC   C3A25361  14.668  21.531   7.962
 1803POPC   C4A25362  14.307  21.237   7.878
 1803POPC   C1B25363  14.211  21.264   8.756
 1803POPC   C2B25364  14.180  21.095   8.366
 1803POPC   C3B25365  13.935  20.919   8.055
 1803POPC   C4B25366  13.820  21.139   7.687
 1804POPC   NC325367  38.329  39.043   9.673
 1804POPC   PO425368  38.943  39.155   9.591
 1804POPC   GL125369  38.610  39.245   9.271
 1804POPC   GL225370  38.551  39.592   9.147
 1804POPC   C1A25371  38.381  39.067   8.906
 1804POPC   D2A25372  38.327  38.986   8.459
 1804POPC   C3A25373  38.282  39.346   8.171
 1804POPC   C4A25374  38.094  39.264   7.785
 1804POPC   C1B25375  38.780  39.378   8.788
 1804POPC   C2B25376  38.970  39.531   8.414
 1804POPC   C3B25377  38.808  39.777   8.098
 1804POPC   C4B25378  38.533  39.683   7.799
 1805POPC   NC325379  10.537  16.677   9.537
 1805POPC   PO425380  10.321  17.319   9.557
 1805POPC   GL125381  10.349  17.017   9.161
 1805POPC   GL225382  10.367  16.622   9.065
 1805POPC   C1A25383  10.452  16.981   8.716
 1805POPC   D2A25384  10.663  16.789   8.398
 1805POPC   C3A25385  10.501  16.917   8.014
 1805POPC   C4A25386  10.796  16.773   7.717
 1805POPC   C1B25387  10.082  16.654   8.718
 1805POPC   C2B25388  10.104  16.675   8.313
 1805POPC   C3B25389  10.335  16.440   8.069
 1805POPC   C4B25390  10.317  16.573   7.672
 1806POPC   NC325391  32.422  28.412   9.464
 1806POPC   PO425392  31.793  28.547   9.329
 1806POPC   GL125393  32.123  28.463   9.019
 1806POPC   GL225394  32.302  28.136   9.056
 1806POPC   C1A25395  32.198  28.577   8.579
 1806POPC   D2A25396  31.992  28.368   8.240
 1806POPC   C3A25397  32.195  28.446   7.886
 1806POPC   C4A25398  32.461  28.795   7.855
 1806POPC   C1B25399  32.239  28.063   8.629
 1806POPC   C2B25400  32.468  28.158   8.255
 1806POPC   C3B25401  32.480  28.018   7.825
 1806POPC   C4B25402  32.127  27.953   7.535
 1807POPC   NC325403  41.049  11.130   9.333
 1807POPC   PO425404  40.535  11.384   9.690
 1807POPC   GL125405  40.572  11.532   9.198
 1807POPC   GL225406  40.935  11.586   9.127
 1807POPC   C1A25407  40.537  11.390   8.731
 1807POPC   D2A25408  40.810  11.226   8.369
 1807POPC   C3A25409  40.699  11.273   7.895
 1807POPC   C4A25410  40.583  11.125   7.408
 1807POPC   C1B25411  40.917  11.734   8.705
 1807POPC   C2B25412  40.786  11.724   8.253
 1807POPC   C3B25413  40.889  11.757   7.803
 1807POPC   C4B25414  40.906  11.525   7.390
 1808POPC   NC325415  25.155  15.632   9.423
 1808POPC   PO425416  25.411  16.218   9.540
 1808POPC   GL125417  25.326  16.065   9.143
 1808POPC   GL225418  25.040  15.880   8.978
 1808POPC   C1A25419  25.473  16.005   8.729
 1808POPC   D2A25420  25.130  16.016   8.456
 1808POPC   C3A25421  25.259  16.022   8.060
 1808POPC   C4A25422  25.460  15.886   7.702
 1808POPC   C1B25423  25.079  15.540   8.671
 1808POPC   C2B25424  25.042  15.541   8.212
 1808POPC   C3B25425  24.980  15.692   7.796
 1808POPC   C4B25426  24.952  16.132   7.645
 1809POPC   NC325427  43.348  16.962   9.584
 1809POPC   PO425428  42.811  16.613   9.442
 1809POPC   GL125429  43.163  16.598   9.249
 1809POPC   GL225430  43.069  16.923   9.125
 1809POPC   C1A25431  43.311  16.579   8.842
 1809POPC   D2A25432  43.207  16.841   8.506
 1809POPC   C3A25433  43.254  16.609   8.147
 1809POPC   C4A25434  43.254  16.745   7.735
 1809POPC   C1B25435  42.786  16.725   8.823
 1809POPC   C2B25436  42.718  16.653   8.401
 1809POPC   C3B25437  42.883  16.932   8.093
 1809POPC   C4B25438  42.802  16.934   7.694
 1810POPC   NC325439  32.921  35.871   9.523
 1810POPC   PO425440  33.350  36.458   9.519
 1810POPC   GL125441  33.112  36.189   9.179
 1810POPC   GL225442  32.826  36.015   9.052
 1810POPC   C1A25443  33.222  36.071   8.750
 1810POPC   D2A25444  33.417  35.917   8.368
 1810POPC   C3A25445  33.191  36.060   8.020
 1810POPC   C4A25446  32.832  36.298   7.907
 1810POPC   C1B25447  32.706  35.784   8.724
 1810POPC   C2B25448  32.713  35.907   8.294
 1810POPC   C3B25449  32.691  35.801   7.879
 1810POPC   C4B25450  32.642  35.932   7.488
 1811POPC   NC325451  27.904  10.518   9.335
 1811POPC   PO425452  27.238  10.691   9.403
 1811POPC   GL125453  27.395  10.492   9.028
 1811POPC   GL225454  27.716  10.594   8.876
 1811POPC   C1A25455  27.427  10.246   8.627
 1811POPC   D2A25456  27.535  10.392   8.193
 1811POPC   C3A25457  27.667  10.154   7.846
 1811POPC   C4A25458  28.039  10.031   7.566
 1811POPC   C1B25459  27.943  10.998   8.825
 1811POPC   C2B25460  27.882  11.148   8.437
 1811POPC   C3B25461  27.859  10.819   8.163
 1811POPC   C4B25462  27.706  10.660   7.772
 1812POPC   NC325463  23.312  18.444   9.512
 1812POPC   PO425464  23.917  18.236   9.460
 1812POPC   GL125465  23.822  18.055   9.123
 1812POPC   GL225466  23.474  18.070   9.155
 1812POPC   C1A25467  23.845  17.935   8.756
 1812POPC   D2A25468  23.654  17.958   8.403
 1812POPC   C3A25469  23.902  18.083   8.116
 1812POPC   C4A25470  23.826  18.003   7.690
 1812POPC   C1B25471  23.415  18.264   8.752
 1812POPC   C2B25472  23.594  18.470   8.360
 1812POPC   C3B25473  23.604  18.404   7.890
 1812POPC   C4B25474  23.499  18.328   7.430
 1813POPC   NC325475  17.756  37.218   9.432
 1813POPC   PO425476  17.216  36.725   9.527
 1813POPC   GL125477  17.453  36.817   9.172
 1813POPC   GL225478  17.365  37.152   9.089
 1813POPC   C1A25479  17.485  36.776   8.731
 1813POPC   D2A25480  17.671  36.916   8.364
 1813POPC   C3A25481  17.502  36.695   8.064
 1813POPC   C4A25482  17.615  36.828   7.756
 1813POPC   C1B25483  17.699  37.256   8.769
 1813POPC   C2B25484  17.708  37.422   8.343
 1813POPC   C3B25485  17.651  37.298   7.924
 1813POPC   C4B25486  17.866  37.226   7.540
 1814POPC   NC325487  19.902   4.078   9.475
 1814POPC   PO425488  20.057   4.727   9.531
 1814POPC   GL125489  19.858   4.473   9.138
 1814POPC   GL225490  19.562   4.147   9.106
 1814POPC   C1A25491  19.757   4.423   8.725
 1814POPC   D2A25492  19.629   4.610   8.371
 1814POPC   C3A25493  19.957   4.506   8.111
 1814POPC   C4A25494  19.752   4.464   7.773
 1814POPC   C1B25495  19.683   3.872   8.768
 1814POPC   C2B25496  19.711   3.715   8.349
 1814POPC   C3B25497  19.745   3.979   7.984
 1814POPC   C4B25498  19.909   4.023   7.569
 1815POPC   NC325499  15.303  37.968   9.497
 1815POPC   PO425500  14.865  37.552   9.554
 1815POPC   GL125501  15.144  37.579   9.181
 1815POPC   GL225502  15.373  37.317   9.081
 1815POPC   C1A25503  15.164  37.606   8.720
 1815POPC   D2A25504  15.324  37.781   8.321
 1815POPC   C3A25505  15.032  37.844   7.960
 1815POPC   C4A25506  15.121  37.779   7.520
 1815POPC   C1B25507  15.511  37.108   8.700
 1815POPC   C2B25508  15.497  37.170   8.255
 1815POPC   C3B25509  15.370  37.438   7.906
 1815POPC   C4B25510  15.511  37.480   7.459
 1816POPC   NC325511  33.851  40.543   9.568
 1816POPC   PO425512  33.550  41.157   9.560
 1816POPC   GL125513  33.625  40.870   9.233
 1816POPC   GL225514  33.497  40.549   9.202
 1816POPC   C1A25515  33.828  40.812   8.848
 1816POPC   D2A25516  33.936  41.107   8.530
 1816POPC   C3A25517  34.144  40.969   8.184
 1816POPC   C4A25518  33.855  41.013   7.804
 1816POPC   C1B25519  33.549  40.328   8.849
 1816POPC   C2B25520  33.673  40.487   8.480
 1816POPC   C3B25521  33.840  40.578   8.107
 1816POPC   C4B25522  33.660  40.484   7.772
 1817POPC   NC325523  33.254  41.527   9.547
 1817POPC   PO425524  33.841  41.878   9.497
 1817POPC   GL125525  33.606  41.696   9.185
 1817POPC   GL225526  33.348  41.920   9.145
 1817POPC   C1A25527  33.746  41.516   8.796
 1817POPC   D2A25528  34.045  41.622   8.475
 1817POPC   C3A25529  34.014  41.439   8.090
 1817POPC   C4A25530  34.066  41.484   7.660
 1817POPC   C1B25531  33.287  41.750   8.718
 1817POPC   C2B25532  33.491  41.676   8.287
 1817POPC   C3B25533  33.734  41.821   7.903
 1817POPC   C4B25534  33.663  41.720   7.439
 1818POPC   NC325535  30.702  25.714   9.522
 1818POPC   PO425536  30.437  24.981   9.546
 1818POPC   GL125537  30.516  25.324   9.230
 1818POPC   GL225538  30.849  25.394   9.154
 1818POPC   C1A25539  30.515  25.461   8.782
 1818POPC   D2A25540  30.778  25.410   8.421
 1818POPC   C3A25541  30.582  25.406   8.036
 1818POPC   C4A25542  30.534  25.204   7.639
 1818POPC   C1B25543  30.957  25.154   8.816
 1818POPC   C2B25544  31.159  25.066   8.423
 1818POPC   C3B25545  30.886  24.990   8.062
 1818POPC   C4B25546  30.990  24.998   7.654
 1819POPC   NC325547   7.992  20.978   9.494
 1819POPC   PO425548   8.525  20.456   9.460
 1819POPC   GL125549   8.319  20.497   9.101
 1819POPC   GL225550   8.324  20.844   9.116
 1819POPC   C1A25551   8.219  20.325   8.711
 1819POPC   D2A25552   7.891  20.327   8.445
 1819POPC   C3A25553   8.061  20.438   8.072
 1819POPC   C4A25554   8.247  20.173   7.771
 1819POPC   C1B25555   8.140  20.824   8.704
 1819POPC   C2B25556   8.349  20.922   8.316
 1819POPC   C3B25557   8.191  20.941   7.931
 1819POPC   C4B25558   8.081  20.661   7.609
 1820POPC   NC325559  17.865  18.383   9.440
 1820POPC   PO425560  17.433  17.817   9.570
 1820POPC   GL125561  17.474  18.123   9.235
 1820POPC   GL225562  17.458  17.871   9.032
 1820POPC   C1A25563  17.477  18.318   8.786
 1820POPC   D2A25564  17.403  18.227   8.313
 1820POPC   C3A25565  17.638  18.449   7.971
 1820POPC   C4A25566  17.626  18.787   7.647
 1820POPC   C1B25567  17.345  17.840   8.649
 1820POPC   C2B25568  17.433  17.665   8.278
 1820POPC   C3B25569  17.439  17.856   7.890
 1820POPC   C4B25570  17.198  18.221   7.831
 1821POPC   NC325571   2.398   0.624   9.507
 1821POPC   PO425572   1.751   0.611   9.682
 1821POPC   GL125573   1.963   0.459   9.268
 1821POPC   GL225574   1.974   0.814   9.193
 1821POPC   C1A25575   2.186   0.274   8.846
 1821POPC   D2A25576   2.370   0.342   8.392
 1821POPC   C3A25577   2.157   0.201   7.939
 1821POPC   C4A25578   2.088   0.490   7.550
 1821POPC   C1B25579   1.819   0.974   8.809
 1821POPC   C2B25580   1.836   0.846   8.380
 1821POPC   C3B25581   2.160   0.760   8.062
 1821POPC   C4B25582   2.055   0.968   7.685
 1822POPC   NC325583   6.454   2.667   9.373
 1822POPC   PO425584   6.966   3.006   9.416
 1822POPC   GL125585   6.814   2.794   9.026
 1822POPC   GL225586   6.819   2.404   8.983
 1822POPC   C1A25587   6.918   2.693   8.573
 1822POPC   D2A25588   6.649   2.516   8.234
 1822POPC   C3A25589   6.722   2.707   7.915
 1822POPC   C4A25590   6.720   3.114   7.859
 1822POPC   C1B25591   6.470   2.449   8.700
 1822POPC   C2B25592   6.179   2.355   8.354
 1822POPC   C3B25593   6.100   2.688   8.005
 1822POPC   C4B25594   6.332   2.729   7.590
 1823POPC   NC325595  10.309  42.068   9.664
 1823POPC   PO425596  10.485  41.389   9.685
 1823POPC   GL125597  10.430  41.354   9.225
 1823POPC   GL225598  10.383  41.715   9.187
 1823POPC   C1A25599  10.341  41.330   8.752
 1823POPC   D2A25600  10.609  41.476   8.394
 1823POPC   C3A25601  10.460  41.609   7.995
 1823POPC   C4A25602  10.393  41.680   7.519
 1823POPC   C1B25603  10.487  41.813   8.753
 1823POPC   C2B25604  10.252  41.945   8.366
 1823POPC   C3B25605  10.364  42.115   7.946
 1823POPC   C4B25606  10.733  41.981   7.751
 1824POPC   NC325607  25.354  44.348   9.469
 1824POPC   PO425608  24.860  44.797   9.616
 1824POPC   GL125609  25.027  44.865   9.117
 1824POPC   GL225610  25.288  44.629   9.030
 1824POPC   C1A25611  25.082  44.892   8.641
 1824POPC   D2A25612  25.436  44.817   8.354
 1824POPC   C3A25613  25.266  44.734   7.965
 1824POPC   C4A25614  24.837  44.644   7.858
 1824POPC   C1B25615  25.049  44.385   8.742
 1824POPC   C2B25616  25.081  44.400   8.289
 1824POPC   C3B25617  25.159  44.258   7.832
 1824POPC   C4B25618  24.853  44.180   7.469
 1825POPC   NC325619  26.665  35.023   9.838
 1825POPC   PO425620  26.812  35.574   9.511
 1825POPC   GL125621  26.685  35.455   9.119
 1825POPC   GL225622  26.806  35.114   9.188
 1825POPC   C1A25623  26.692  35.686   8.701
 1825POPC   D2A25624  26.760  35.491   8.287
 1825POPC   C3A25625  26.626  35.651   7.891
 1825POPC   C4A25626  26.809  35.685   7.473
 1825POPC   C1B25627  27.173  35.294   8.935
 1825POPC   C2B25628  27.186  35.548   8.591
 1825POPC   C3B25629  27.269  35.540   8.160
 1825POPC   C4B25630  27.046  35.358   7.830
 1826POPC   NC325631   4.302   4.401   9.575
 1826POPC   PO425632   3.799   3.948   9.796
 1826POPC   GL125633   4.140   3.996   9.344
 1826POPC   GL225634   4.502   4.025   9.268
 1826POPC   C1A25635   4.127   4.022   8.874
 1826POPC   D2A25636   4.090   4.017   8.404
 1826POPC   C3A25637   4.482   4.069   8.184
 1826POPC   C4A25638   4.520   4.080   7.747
 1826POPC   C1B25639   4.517   4.357   8.924
 1826POPC   C2B25640   4.335   4.465   8.519
 1826POPC   C3B25641   4.441   4.610   8.092
 1826POPC   C4B25642   4.333   4.613   7.640
 1827POPC   NC325643  18.185  27.480   9.450
 1827POPC   PO425644  18.824  27.727   9.380
 1827POPC   GL125645  18.576  27.566   9.090
 1827POPC   GL225646  18.301  27.801   9.046
 1827POPC   C1A25647  18.620  27.635   8.671
 1827POPC   D2A25648  18.364  27.704   8.356
 1827POPC   C3A25649  18.577  27.714   7.999
 1827POPC   C4A25650  18.460  27.728   7.618
 1827POPC   C1B25651  18.108  27.483   8.771
 1827POPC   C2B25652  17.961  27.387   8.334
 1827POPC   C3B25653  18.072  27.512   7.895
 1827POPC   C4B25654  17.939  27.303   7.497
 1828POPC   NC325655  37.057  42.230   9.578
 1828POPC   PO425656  36.422  42.313   9.627
 1828POPC   GL125657  36.661  42.284   9.257
 1828POPC   GL225658  36.840  41.996   9.170
 1828POPC   C1A25659  36.665  42.373   8.819
 1828POPC   D2A25660  36.943  42.360   8.476
 1828POPC   C3A25661  36.803  42.511   8.073
 1828POPC   C4A25662  36.452  42.378   7.851
 1828POPC   C1B25663  37.209  41.928   8.886
 1828POPC   C2B25664  37.269  41.979   8.439
 1828POPC   C3B25665  37.036  42.064   8.033
 1828POPC   C4B25666  37.147  41.908   7.635
 1829POPC   NC325667  34.068  11.422   9.607
 1829POPC   PO425668  33.446  11.439   9.444
 1829POPC   GL125669  33.650  11.184   9.114
 1829POPC   GL225670  34.000  11.155   9.157
 1829POPC   C1A25671  33.658  11.134   8.673
 1829POPC   D2A25672  33.456  11.293   8.321
 1829POPC   C3A25673  33.651  11.264   7.934
 1829POPC   C4A25674  33.546  11.333   7.509
 1829POPC   C1B25675  34.080  11.423   8.823
 1829POPC   C2B25676  33.990  11.552   8.445
 1829POPC   C3B25677  34.136  11.580   8.052
 1829POPC   C4B25678  34.101  11.392   7.683
 1830POPC   NC325679  26.811   7.135   9.474
 1830POPC   PO425680  27.235   7.761   9.459
 1830POPC   GL125681  26.946   7.507   9.131
 1830POPC   GL225682  26.636   7.244   9.027
 1830POPC   C1A25683  26.943   7.491   8.684
 1830POPC   D2A25684  27.044   7.291   8.299
 1830POPC   C3A25685  26.999   7.517   7.900
 1830POPC   C4A25686  27.148   7.686   7.483
 1830POPC   C1B25687  26.467   7.261   8.632
 1830POPC   C2B25688  26.506   7.390   8.193
 1830POPC   C3B25689  26.412   7.250   7.776
 1830POPC   C4B25690  26.322   7.144   7.295
 1831POPC   NC325691  34.470  42.832   9.548
 1831POPC   PO425692  34.968  43.267   9.471
 1831POPC   GL125693  34.783  42.947   9.155
 1831POPC   GL225694  34.455  43.063   9.115
 1831POPC   C1A25695  34.590  42.808   8.712
 1831POPC   D2A25696  34.533  42.640   8.291
 1831POPC   C3A25697  34.573  42.971   7.968
 1831POPC   C4A25698  34.290  43.147   7.678
 1831POPC   C1B25699  34.311  43.257   8.777
 1831POPC   C2B25700  34.307  43.183   8.356
 1831POPC   C3B25701  34.342  43.493   8.049
 1831POPC   C4B25702  34.143  43.639   7.700
 1832POPC   NC325703  33.334  37.789   9.377
 1832POPC   PO425704  34.026  37.594   9.469
 1832POPC   GL125705  33.760  37.626   9.122
 1832POPC   GL225706  33.746  37.979   9.066
 1832POPC   C1A25707  33.909  37.598   8.711
 1832POPC   D2A25708  34.017  37.395   8.326
 1832POPC   C3A25709  34.028  37.633   7.929
 1832POPC   C4A25710  34.115  37.550   7.483
 1832POPC   C1B25711  33.532  37.935   8.645
 1832POPC   C2B25712  33.682  37.807   8.261
 1832POPC   C3B25713  33.528  37.837   7.858
 1832POPC   C4B25714  33.216  38.123   7.749
 1833POPC   NC325715   2.489  21.623   9.602
 1833POPC   PO425716   2.812  21.049   9.599
 1833POPC   GL125717   2.741  21.202   9.191
 1833POPC   GL225718   2.392  21.149   9.129
 1833POPC   C1A25719   2.893  21.476   8.841
 1833POPC   D2A25720   2.761  21.728   8.471
 1833POPC   C3A25721   2.938  21.631   8.076
 1833POPC   C4A25722   2.702  21.335   7.779
 1833POPC   C1B25723   2.452  21.267   8.712
 1833POPC   C2B25724   2.671  21.219   8.333
 1833POPC   C3B25725   3.044  21.146   8.129
 1833POPC   C4B25726   3.168  21.067   7.737
 1834POPC   NC325727   7.656  29.204   9.512
 1834POPC   PO425728   7.050  29.476   9.570
 1834POPC   GL125729   7.299  29.263   9.130
 1834POPC   GL225730   7.660  29.370   9.036
 1834POPC   C1A25731   7.524  28.942   8.801
 1834POPC   D2A25732   7.599  29.037   8.337
 1834POPC   C3A25733   7.420  28.858   7.948
 1834POPC   C4A25734   7.122  28.905   7.590
 1834POPC   C1B25735   7.630  29.508   8.627
 1834POPC   C2B25736   7.831  29.496   8.250
 1834POPC   C3B25737   7.678  29.598   7.890
 1834POPC   C4B25738   7.393  29.310   7.711
 1835POPC   NC325739  33.761  25.160   9.565
 1835POPC   PO425740  34.278  25.340   9.193
 1835POPC   GL125741  33.895  25.361   9.107
 1835POPC   GL225742  33.901  24.985   9.068
 1835POPC   C1A25743  33.650  25.301   8.760
 1835POPC   D2A25744  33.409  25.043   8.525
 1835POPC   C3A25745  33.554  25.145   8.141
 1835POPC   C4A25746  33.771  25.363   7.799
 1835POPC   C1B25747  34.135  25.048   8.635
 1835POPC   C2B25748  34.085  25.128   8.171
 1835POPC   C3B25749  33.868  24.879   7.839
 1835POPC   C4B25750  34.048  24.744   7.419
 1836POPC   NC325751  36.090  39.881   9.466
 1836POPC   PO425752  36.620  39.902   9.096
 1836POPC   GL125753  36.256  39.937   8.928
 1836POPC   GL225754  35.993  40.167   9.060
 1836POPC   C1A25755  36.293  39.895   8.485
 1836POPC   D2A25756  35.991  39.660   8.265
 1836POPC   C3A25757  36.069  39.696   7.852
 1836POPC   C4A25758  36.422  39.926   7.671
 1836POPC   C1B25759  36.137  40.372   8.715
 1836POPC   C2B25760  35.922  40.227   8.396
 1836POPC   C3B25761  36.160  40.156   8.064
 1836POPC   C4B25762  35.975  40.185   7.688
 1837POPC   NC325763  16.743  38.876   9.398
 1837POPC   PO425764  17.088  38.340   9.345
 1837POPC   GL125765  16.684  38.342   9.071
 1837POPC   GL225766  16.402  38.627   9.102
 1837POPC   C1A25767  16.392  38.315   8.690
 1837POPC   D2A25768  16.364  38.577   8.305
 1837POPC   C3A25769  16.631  38.385   8.051
 1837POPC   C4A25770  16.766  38.314   7.666
 1837POPC   C1B25771  16.684  38.753   8.733
 1837POPC   C2B25772  16.896  38.744   8.330
 1837POPC   C3B25773  17.036  38.695   7.885
 1837POPC   C4B25774  16.907  38.788   7.421
 1838POPC   NC325775  32.637  15.942   9.506
 1838POPC   PO425776  33.229  15.762   9.770
 1838POPC   GL125777  33.216  15.882   9.249
 1838POPC   GL225778  32.889  15.848   9.084
 1838POPC   C1A25779  33.249  16.157   8.817
 1838POPC   D2A25780  33.313  16.218   8.345
 1838POPC   C3A25781  33.166  16.367   7.928
 1838POPC   C4A25782  33.268  16.228   7.472
 1838POPC   C1B25783  33.132  15.651   8.792
 1838POPC   C2B25784  32.946  15.868   8.460
 1838POPC   C3B25785  32.883  15.955   8.038
 1838POPC   C4B25786  33.254  15.854   7.818
 1839POPC   NC325787  24.136  19.699   9.532
 1839POPC   PO425788  24.790  19.535   9.506
 1839POPC   GL125789  24.701  19.696   9.108
 1839POPC   GL225790  24.328  19.781   9.080
 1839POPC   C1A25791  24.903  19.650   8.717
 1839POPC   D2A25792  24.728  19.496   8.366
 1839POPC   C3A25793  24.894  19.721   8.080
 1839POPC   C4A25794  24.742  19.761   7.709
 1839POPC   C1B25795  24.376  19.493   8.740
 1839POPC   C2B25796  24.226  19.307   8.378
 1839POPC   C3B25797  24.279  19.561   8.038
 1839POPC   C4B25798  24.264  19.901   7.804
 1840POPC   NC325799  17.800  30.889   9.854
 1840POPC   PO425800  18.409  30.815   9.607
 1840POPC   GL125801  18.120  30.849   9.199
 1840POPC   GL225802  17.967  30.494   9.064
 1840POPC   C1A25803  18.078  30.902   8.750
 1840POPC   D2A25804  17.920  31.114   8.386
 1840POPC   C3A25805  18.054  31.024   7.955
 1840POPC   C4A25806  18.114  31.201   7.531
 1840POPC   C1B25807  18.247  30.401   8.761
 1840POPC   C2B25808  18.313  30.582   8.355
 1840POPC   C3B25809  18.459  30.537   7.938
 1840POPC   C4B25810  18.508  30.935   7.742
 1841POPC   NC325811   6.790  30.574   9.842
 1841POPC   PO425812   6.279  30.938   9.565
 1841POPC   GL125813   6.404  30.620   9.246
 1841POPC   GL225814   6.195  30.307   9.179
 1841POPC   C1A25815   6.796  30.586   8.988
 1841POPC   D2A25816   7.057  30.497   8.604
 1841POPC   C3A25817   6.823  30.590   8.213
 1841POPC   C4A25818   6.817  30.643   7.770
 1841POPC   C1B25819   6.349  30.448   8.752
 1841POPC   C2B25820   6.349  30.715   8.387
 1841POPC   C3B25821   6.344  30.692   7.953
 1841POPC   C4B25822   6.442  30.930   7.574
 1842POPC   NC325823   5.263  17.169   9.495
 1842POPC   PO425824   4.572  17.393   9.582
 1842POPC   GL125825   4.859  17.323   9.202
 1842POPC   GL225826   5.029  17.646   9.135
 1842POPC   C1A25827   5.043  17.286   8.760
 1842POPC   D2A25828   5.418  17.314   8.448
 1842POPC   C3A25829   5.270  17.284   7.990
 1842POPC   C4A25830   4.907  17.502   7.818
 1842POPC   C1B25831   5.241  17.761   8.764
 1842POPC   C2B25832   5.085  17.696   8.328
 1842POPC   C3B25833   5.298  17.795   7.942
 1842POPC   C4B25834   5.120  17.911   7.562
 1843POPC   NC325835  19.813  44.101   9.550
 1843POPC   PO425836  20.206  43.657   9.476
 1843POPC   GL125837  19.814  43.649   9.235
 1843POPC   GL225838  19.913  43.935   9.066
 1843POPC   C1A25839  19.728  43.591   8.761
 1843POPC   D2A25840  19.974  43.798   8.404
 1843POPC   C3A25841  19.748  43.708   8.003
 1843POPC   C4A25842  19.662  43.642   7.549
 1843POPC   C1B25843  20.061  44.218   8.757
 1843POPC   C2B25844  19.925  44.371   8.373
 1843POPC   C3B25845  20.059  44.146   8.033
 1843POPC   C4B25846  19.924  44.044   7.667
 1844POPC   NC325847  43.824  18.901   9.736
 1844POPC   PO425848  44.263  19.252   9.520
 1844POPC   GL125849  44.063  18.895   9.253
 1844POPC   GL225850  44.307  18.709   9.037
 1844POPC   C1A25851  43.841  18.927   8.829
 1844POPC   D2A25852  43.874  18.980   8.374
 1844POPC   C3A25853  43.627  19.240   8.045
 1844POPC   C4A25854  43.509  19.088   7.625
 1844POPC   C1B25855  44.172  18.558   8.622
 1844POPC   C2B25856  44.018  18.525   8.171
 1844POPC   C3B25857  43.924  18.859   7.883
 1844POPC   C4B25858  44.191  19.209   7.989
 1845POPC   NC325859   3.193  36.192   9.751
 1845POPC   PO425860   3.252  35.636   9.441
 1845POPC   GL125861   3.346  35.968   9.108
 1845POPC   GL225862   3.488  36.328   9.200
 1845POPC   C1A25863   3.356  36.031   8.641
 1845POPC   D2A25864   3.457  35.851   8.217
 1845POPC   C3A25865   3.423  36.152   7.869
 1845POPC   C4A25866   3.130  36.460   7.726
 1845POPC   C1B25867   3.771  36.282   8.804
 1845POPC   C2B25868   3.716  36.266   8.338
 1845POPC   C3B25869   3.894  36.371   7.930
 1845POPC   C4B25870   3.775  36.213   7.478
 1846POPC   NC325871  17.910  42.039   9.330
 1846POPC   PO425872  18.447  42.406   9.408
 1846POPC   GL125873  18.200  42.401   9.078
 1846POPC   GL225874  18.106  42.727   9.090
 1846POPC   C1A25875  18.211  42.225   8.669
 1846POPC   D2A25876  18.438  42.317   8.295
 1846POPC   C3A25877  18.282  42.226   7.929
 1846POPC   C4A25878  17.995  41.901   7.858
 1846POPC   C1B25879  17.889  42.629   8.721
 1846POPC   C2B25880  17.927  42.502   8.295
 1846POPC   C3B25881  17.983  42.611   7.893
 1846POPC   C4B25882  18.236  42.801   7.525
 1847POPC   NC325883   4.411  35.783   9.443
 1847POPC   PO425884   4.068  35.230   9.320
 1847POPC   GL125885   4.277  35.506   8.993
 1847POPC   GL225886   4.629  35.708   9.001
 1847POPC   C1A25887   4.119  35.363   8.596
 1847POPC   D2A25888   4.007  35.102   8.252
 1847POPC   C3A25889   4.259  35.158   7.888
 1847POPC   C4A25890   4.265  35.084   7.453
 1847POPC   C1B25891   4.628  35.508   8.593
 1847POPC   C2B25892   4.437  35.543   8.235
 1847POPC   C3B25893   4.502  35.608   7.838
 1847POPC   C4B25894   4.182  35.612   7.574
 1848POPC   NC325895  13.499  16.412   9.874
 1848POPC   PO425896  13.711  15.963   9.477
 1848POPC   GL125897  13.570  15.896   9.116
 1848POPC   GL225898  13.428  15.614   9.150
 1848POPC   C1A25899  13.676  16.092   8.749
 1848POPC   D2A25900  13.569  16.220   8.346
 1848POPC   C3A25901  13.741  15.967   8.027
 1848POPC   C4A25902  13.646  15.677   7.721
 1848POPC   C1B25903  13.284  15.596   8.765
 1848POPC   C2B25904  13.471  15.711   8.390
 1848POPC   C3B25905  13.238  15.535   8.074
 1848POPC   C4B25906  13.005  15.650   7.735
 1849POPC   NC325907  37.954  36.658   9.467
 1849POPC   PO425908  37.474  37.159   9.378
 1849POPC   GL125909  37.686  36.908   9.134
 1849POPC   GL225910  37.511  36.576   9.108
 1849POPC   C1A25911  37.940  36.958   8.805
 1849POPC   D2A25912  38.006  37.120   8.431
 1849POPC   C3A25913  38.015  36.839   8.121
 1849POPC   C4A25914  37.726  36.984   7.812
 1849POPC   C1B25915  37.415  36.850   8.733
 1849POPC   C2B25916  37.500  36.997   8.333
 1849POPC   C3B25917  37.256  36.990   7.999
 1849POPC   C4B25918  37.314  36.719   7.673
 1850POPC   NC325919  25.313  42.118   9.357
 1850POPC   PO425920  25.384  41.477   9.453
 1850POPC   GL125921  25.207  41.604   9.095
 1850POPC   GL225922  25.515  41.774   9.028
 1850POPC   C1A25923  25.355  41.404   8.692
 1850POPC   D2A25924  25.614  41.431   8.298
 1850POPC   C3A25925  25.378  41.305   7.932
 1850POPC   C4A25926  25.022  41.562   7.782
 1850POPC   C1B25927  25.223  41.916   8.707
 1850POPC   C2B25928  25.183  41.729   8.312
 1850POPC   C3B25929  25.413  41.838   7.971
 1850POPC   C4B25930  25.209  41.998   7.597
 1851POPC   NC325931   3.117   0.316   9.520
 1851POPC   PO425932   2.413   0.084   9.444
 1851POPC   GL125933   2.686   0.359   9.191
 1851POPC   GL225934   3.016   0.522   9.077
 1851POPC   C1A25935   2.570   0.616   8.850
 1851POPC   D2A25936   2.841   0.647   8.528
 1851POPC   C3A25937   2.708   0.650   8.124
 1851POPC   C4A25938   2.558   0.437   7.763
 1851POPC   C1B25939   3.239   0.364   8.734
 1851POPC   C2B25940   3.273   0.495   8.305
 1851POPC   C3B25941   3.058   0.352   7.906
 1851POPC   C4B25942   2.992   0.634   7.565
 1852POPC   NC325943   5.335  31.556   9.301
 1852POPC   PO425944   5.871  31.749   9.685
 1852POPC   GL125945   5.875  31.686   9.243
 1852POPC   GL225946   5.845  31.337   9.147
 1852POPC   C1A25947   5.754  31.732   8.801
 1852POPC   D2A25948   5.613  31.426   8.471
 1852POPC   C3A25949   5.692  31.493   8.014
 1852POPC   C4A25950   5.939  31.699   7.697
 1852POPC   C1B25951   6.146  31.392   8.773
 1852POPC   C2B25952   6.330  31.370   8.333
 1852POPC   C3B25953   6.150  31.199   7.932
 1852POPC   C4B25954   6.080  31.283   7.446
 1853POPC   NC325955  36.877  21.883   9.390
 1853POPC   PO425956  36.489  22.372   9.678
 1853POPC   GL125957  36.646  22.358   9.234
 1853POPC   GL225958  37.007  22.321   9.138
 1853POPC   C1A25959  36.670  22.361   8.783
 1853POPC   D2A25960  36.609  22.018   8.539
 1853POPC   C3A25961  36.633  22.163   8.139
 1853POPC   C4A25962  36.780  21.999   7.778
 1853POPC   C1B25963  37.140  22.108   8.759
 1853POPC   C2B25964  37.130  22.173   8.313
 1853POPC   C3B25965  37.393  22.158   7.944
 1853POPC   C4B25966  37.200  22.167   7.564
 1854POPC   NC325967  39.824   5.665   9.515
 1854POPC   PO425968  39.958   6.265   9.605
 1854POPC   GL125969  39.849   6.085   9.225
 1854POPC   GL225970  40.123   5.864   9.112
 1854POPC   C1A25971  39.897   6.159   8.790
 1854POPC   D2A25972  39.855   5.816   8.508
 1854POPC   C3A25973  39.896   5.953   8.098
 1854POPC   C4A25974  40.086   5.883   7.708
 1854POPC   C1B25975  40.311   5.648   8.751
 1854POPC   C2B25976  40.260   5.626   8.304
 1854POPC   C3B25977  40.369   5.530   7.913
 1854POPC   C4B25978  40.382   5.548   7.427
 1855POPC   NC325979  10.710  14.782   9.541
 1855POPC   PO425980  10.257  15.306   9.567
 1855POPC   GL125981  10.444  15.131   9.240
 1855POPC   GL225982  10.783  15.246   9.260
 1855POPC   C1A25983  10.296  14.879   8.920
 1855POPC   D2A25984  10.378  15.077   8.561
 1855POPC   C3A25985  10.503  15.002   8.144
 1855POPC   C4A25986  10.405  14.891   7.742
 1855POPC   C1B25987  10.805  14.978   8.878
 1855POPC   C2B25988  10.915  15.053   8.449
 1855POPC   C3B25989  10.989  15.252   8.069
 1855POPC   C4B25990  10.842  15.183   7.679
 1856POPC   NC325991  43.140  22.613   9.747
 1856POPC   PO425992  43.135  23.247   9.610
 1856POPC   GL125993  43.294  23.098   9.168
 1856POPC   GL225994  43.479  22.766   9.131
 1856POPC   C1A25995  43.137  23.215   8.726
 1856POPC   D2A25996  43.048  22.983   8.309
 1856POPC   C3A25997  43.125  22.932   7.839
 1856POPC   C4A25998  42.864  22.935   7.430
 1856POPC   C1B25999  43.394  22.775   8.685
 1856POPC   C2B26000  43.365  22.543   8.281
 1856POPC   C3B26001  43.326  22.449   7.813
 1856POPC   C4B26002  43.309  22.696   7.423
 1857POPC   NC326003  43.367  34.683   9.646
 1857POPC   PO426004  42.823  34.249   9.631
 1857POPC   GL126005  43.027  34.526   9.294
 1857POPC   GL226006  42.906  34.828   9.201
 1857POPC   C1A26007  43.205  34.607   8.854
 1857POPC   D2A26008  43.161  34.436   8.456
 1857POPC   C3A26009  43.217  34.575   8.033
 1857POPC   C4A26010  43.029  34.302   7.711
 1857POPC   C1B26011  42.777  34.892   8.795
 1857POPC   C2B26012  42.945  34.899   8.385
 1857POPC   C3B26013  42.752  35.098   8.060
 1857POPC   C4B26014  42.811  34.988   7.633
 1858POPC   NC326015  11.092   9.346   9.262
 1858POPC   PO426016  11.582   8.916   9.490
 1858POPC   GL126017  11.396   8.942   9.129
 1858POPC   GL226018  11.079   8.800   9.133
 1858POPC   C1A26019  11.441   9.035   8.725
 1858POPC   D2A26020  11.228   8.964   8.351
 1858POPC   C3A26021  11.140   9.246   8.084
 1858POPC   C4A26022  11.454   9.223   7.812
 1858POPC   C1B26023  10.925   8.967   8.758
 1858POPC   C2B26024  10.723   8.827   8.415
 1858POPC   C3B26025  10.850   8.734   8.020
 1858POPC   C4B26026  11.048   8.933   7.669
 1859POPC   NC326027  19.500  23.816   9.497
 1859POPC   PO426028  19.823  23.234   9.641
 1859POPC   GL126029  19.866  23.533   9.240
 1859POPC   GL226030  19.953  23.892   9.194
 1859POPC   C1A26031  19.630  23.683   8.864
 1859POPC   D2A26032  19.653  23.858   8.449
 1859POPC   C3A26033  19.900  23.579   8.208
 1859POPC   C4A26034  20.038  23.599   7.803
 1859POPC   C1B26035  20.122  23.778   8.749
 1859POPC   C2B26036  20.325  23.840   8.344
 1859POPC   C3B26037  20.079  24.046   8.050
 1859POPC   C4B26038  19.953  24.133   7.639
 1860POPC   NC326039  34.167  17.182   9.694
 1860POPC   PO426040  33.738  17.701   9.556
 1860POPC   GL126041  33.855  17.432   9.260
 1860POPC   GL226042  33.725  17.121   9.369
 1860POPC   C1A26043  33.777  17.511   8.837
 1860POPC   D2A26044  33.966  17.540   8.462
 1860POPC   C3A26045  33.736  17.725   8.143
 1860POPC   C4A26046  33.910  17.525   7.822
 1860POPC   C1B26047  33.668  17.032   8.919
 1860POPC   C2B26048  33.815  17.030   8.504
 1860POPC   C3B26049  33.746  17.145   8.124
 1860POPC   C4B26050  33.665  17.088   7.725
 1861POPC   NC326051   8.722  32.423   9.490
 1861POPC   PO426052   9.301  32.095   9.692
 1861POPC   GL126053   9.149  32.279   9.264
 1861POPC   GL226054   9.144  31.994   9.075
 1861POPC   C1A26055   9.061  32.402   8.786
 1861POPC   D2A26056   9.191  32.305   8.332
 1861POPC   C3A26057   8.959  32.432   7.934
 1861POPC   C4A26058   9.190  32.545   7.540
 1861POPC   C1B26059   8.948  31.902   8.672
 1861POPC   C2B26060   8.973  31.847   8.227
 1861POPC   C3B26061   9.068  31.933   7.804
 1861POPC   C4B26062   8.850  32.153   7.465
 1862POPC   NC326063  28.733  29.728   9.594
 1862POPC   PO426064  28.106  29.856   9.709
 1862POPC   GL126065  28.361  29.862   9.267
 1862POPC   GL226066  28.656  30.093   9.241
 1862POPC   C1A26067  28.248  29.859   8.806
 1862POPC   D2A26068  28.042  29.858   8.372
 1862POPC   C3A26069  28.202  29.716   7.968
 1862POPC   C4A26070  28.578  29.843   7.720
 1862POPC   C1B26071  28.770  30.017   8.798
 1862POPC   C2B26072  28.566  29.946   8.396
 1862POPC   C3B26073  28.440  30.170   8.055
 1862POPC   C4B26074  28.707  30.345   7.744
 1863POPC   NC326075  20.704  34.863   9.896
 1863POPC   PO426076  20.604  34.264   9.686
 1863POPC   GL126077  20.525  34.433   9.153
 1863POPC   GL226078  20.682  34.710   8.984
 1863POPC   C1A26079  20.653  34.299   8.701
 1863POPC   D2A26080  20.592  34.185   8.266
 1863POPC   C3A26081  20.432  34.450   7.950
 1863POPC   C4A26082  20.599  34.516   7.545
 1863POPC   C1B26083  20.414  34.884   8.706
 1863POPC   C2B26084  20.426  34.820   8.293
 1863POPC   C3B26085  20.511  34.976   7.908
 1863POPC   C4B26086  20.415  34.980   7.454
 1864POPC   NC326087  27.167   3.687   9.481
 1864POPC   PO426088  26.787   3.149   9.529
 1864POPC   GL126089  26.972   3.325   9.183
 1864POPC   GL226090  26.733   3.621   9.204
 1864POPC   C1A26091  26.979   3.545   8.770
 1864POPC   D2A26092  26.738   3.699   8.423
 1864POPC   C3A26093  26.751   3.421   8.072
 1864POPC   C4A26094  26.970   3.278   7.744
 1864POPC   C1B26095  26.417   3.613   8.848
 1864POPC   C2B26096  26.229   3.743   8.430
 1864POPC   C3B26097  26.417   3.794   8.010
 1864POPC   C4B26098  26.750   3.805   7.714
 1865POPC   NC326099  12.641  15.181   9.539
 1865POPC   PO426100  13.386  15.325   9.551
 1865POPC   GL126101  13.093  15.217   9.236
 1865POPC   GL226102  12.947  15.511   9.302
 1865POPC   C1A26103  13.043  15.130   8.786
 1865POPC   D2A26104  12.721  15.011   8.494
 1865POPC   C3A26105  12.853  15.171   8.083
 1865POPC   C4A26106  12.765  15.015   7.697
 1865POPC   C1B26107  12.788  15.548   8.918
 1865POPC   C2B26108  12.824  15.521   8.484
 1865POPC   C3B26109  12.462  15.447   8.227
 1865POPC   C4B26110  12.479  15.450   7.770
 1866POPC   NC326111   8.690   8.422   9.189
 1866POPC   PO426112   8.209   8.089   9.460
 1866POPC   GL126113   8.156   8.105   9.029
 1866POPC   GL226114   8.162   7.791   8.908
 1866POPC   C1A26115   8.048   8.378   8.673
 1866POPC   D2A26116   8.156   8.270   8.252
 1866POPC   C3A26117   7.896   8.286   7.901
 1866POPC   C4A26118   7.686   8.393   7.516
 1866POPC   C1B26119   8.137   7.818   8.488
 1866POPC   C2B26120   8.431   7.748   8.145
 1866POPC   C3B26121   8.428   8.061   7.840
 1866POPC   C4B26122   8.374   8.527   7.867
 1867POPC   NC326123  33.813  36.343   9.548
 1867POPC   PO426124  33.940  35.750   9.821
 1867POPC   GL126125  33.627  35.909   9.317
 1867POPC   GL226126  33.593  36.277   9.127
 1867POPC   C1A26127  33.745  36.000   8.777
 1867POPC   D2A26128  33.927  35.829   8.404
 1867POPC   C3A26129  33.835  36.061   8.057
 1867POPC   C4A26130  34.021  36.072   7.668
 1867POPC   C1B26131  33.512  36.512   8.783
 1867POPC   C2B26132  33.729  36.440   8.417
 1867POPC   C3B26133  33.661  36.558   8.004
 1867POPC   C4B26134  33.547  36.300   7.698
 1868POPC   NC326135  32.939  40.136   9.612
 1868POPC   PO426136  33.240  39.485   9.572
 1868POPC   GL126137  33.071  39.762   9.274
 1868POPC   GL226138  33.276  40.055   9.217
 1868POPC   C1A26139  32.980  39.874   8.860
 1868POPC   D2A26140  33.230  40.074   8.528
 1868POPC   C3A26141  33.120  39.901   8.138
 1868POPC   C4A26142  32.969  40.003   7.796
 1868POPC   C1B26143  33.045  40.384   8.989
 1868POPC   C2B26144  32.798  40.328   8.649
 1868POPC   C3B26145  32.842  40.312   8.228
 1868POPC   C4B26146  32.678  40.428   7.861
 1869POPC   NC326147   8.144  31.299   9.493
 1869POPC   PO426148   8.758  31.357   9.445
 1869POPC   GL126149   8.453  31.560   9.163
 1869POPC   GL226150   8.333  31.240   9.048
 1869POPC   C1A26151   8.117  31.730   8.849
 1869POPC   D2A26152   7.919  31.913   8.464
 1869POPC   C3A26153   8.093  31.757   8.085
 1869POPC   C4A26154   8.247  31.746   7.669
 1869POPC   C1B26155   8.185  31.269   8.664
 1869POPC   C2B26156   8.388  31.228   8.324
 1869POPC   C3B26157   8.174  31.252   7.966
 1869POPC   C4B26158   8.324  31.237   7.588
 1870POPC   NC326159  36.899  20.019   9.812
 1870POPC   PO426160  36.827  19.447   9.389
 1870POPC   GL126161  36.901  19.752   9.060
 1870POPC   GL226162  36.660  20.042   9.081
 1870POPC   C1A26163  37.024  19.693   8.624
 1870POPC   D2A26164  37.327  19.710   8.270
 1870POPC   C3A26165  37.070  19.725   7.910
 1870POPC   C4A26166  36.846  19.485   7.579
 1870POPC   C1B26167  36.672  20.099   8.649
 1870POPC   C2B26168  36.632  19.892   8.232
 1870POPC   C3B26169  36.653  19.954   7.765
 1870POPC   C4B26170  36.738  20.267   7.442
 1871POPC   NC326171   2.691   6.459   9.566
 1871POPC   PO426172   3.224   6.172   9.266
 1871POPC   GL126173   2.967   6.525   9.119
 1871POPC   GL226174   2.879   6.850   9.241
 1871POPC   C1A26175   2.592   6.563   8.846
 1871POPC   D2A26176   2.609   6.411   8.409
 1871POPC   C3A26177   2.998   6.444   8.150
 1871POPC   C4A26178   2.897   6.505   7.714
 1871POPC   C1B26179   2.839   7.027   8.843
 1871POPC   C2B26180   2.607   6.985   8.465
 1871POPC   C3B26181   2.745   6.875   8.092
 1871POPC   C4B26182   2.566   6.874   7.719
 1872POPC   NC326183   3.268  16.705   9.744
 1872POPC   PO426184   2.574  16.495   9.630
 1872POPC   GL126185   2.777  16.517   9.211
 1872POPC   GL226186   2.764  16.803   9.045
 1872POPC   C1A26187   2.994  16.441   8.788
 1872POPC   D2A26188   3.034  16.633   8.381
 1872POPC   C3A26189   2.851  16.448   8.010
 1872POPC   C4A26190   2.695  16.591   7.596
 1872POPC   C1B26191   2.531  16.938   8.692
 1872POPC   C2B26192   2.314  17.138   8.335
 1872POPC   C3B26193   2.344  17.077   7.921
 1872POPC   C4B26194   2.572  17.111   7.580
 1873POPC   NC326195  31.304  34.185   9.469
 1873POPC   PO426196  31.516  33.534   9.439
 1873POPC   GL126197  31.408  33.811   9.152
 1873POPC   GL226198  31.046  33.759   9.229
 1873POPC   C1A26199  31.545  33.870   8.748
 1873POPC   D2A26200  31.599  33.646   8.365
 1873POPC   C3A26201  31.490  33.962   8.078
 1873POPC   C4A26202  31.675  34.234   7.781
 1873POPC   C1B26203  31.161  33.496   8.846
 1873POPC   C2B26204  31.195  33.296   8.443
 1873POPC   C3B26205  31.166  33.543   8.070
 1873POPC   C4B26206  31.466  33.607   7.734
 1874POPC   NC326207  11.801  10.351   9.448
 1874POPC   PO426208  12.380  10.723   9.408
 1874POPC   GL126209  12.193  10.494   9.096
 1874POPC   GL226210  11.882  10.696   9.070
 1874POPC   C1A26211  12.332  10.275   8.716
 1874POPC   D2A26212  12.161  10.330   8.316
 1874POPC   C3A26213  12.279  10.706   8.112
 1874POPC   C4A26214  12.232  10.702   7.701
 1874POPC   C1B26215  11.808  10.367   8.743
 1874POPC   C2B26216  11.644  10.299   8.307
 1874POPC   C3B26217  11.830  10.411   7.896
 1874POPC   C4B26218  11.766  10.493   7.438
 1875POPC   NC326219   0.343   9.290   9.474
 1875POPC   PO426220   0.509   9.955   9.520
 1875POPC   GL126221   0.527   9.741   9.158
 1875POPC   GL226222   0.208   9.634   9.130
 1875POPC   C1A26223   0.511   9.883   8.745
 1875POPC   D2A26224   0.626  10.089   8.347
 1875POPC   C3A26225   0.476   9.833   7.981
 1875POPC   C4A26226   0.274   9.996   7.617
 1875POPC   C1B26227   0.014   9.832   8.814
 1875POPC   C2B26228   0.151   9.909   8.385
 1875POPC   C3B26229  44.960   9.820   7.994
 1875POPC   C4B26230   0.069   9.518   7.690
 1876POPC   NC326231   9.677  19.184   9.540
 1876POPC   PO426232  10.258  18.835   9.568
 1876POPC   GL126233   9.938  18.886   9.193
 1876POPC   GL226234   9.816  19.227   9.070
 1876POPC   C1A26235   9.610  18.822   8.822
 1876POPC   D2A26236   9.359  18.948   8.454
 1876POPC   C3A26237   9.596  18.847   8.100
 1876POPC   C4A26238   9.819  18.848   7.727
 1876POPC   C1B26239   9.575  19.323   8.741
 1876POPC   C2B26240   9.392  19.563   8.472
 1876POPC   C3B26241   9.484  19.642   8.096
 1876POPC   C4B26242   9.664  19.319   7.894
 1877POPC   NC326243  18.991   6.425   9.440
 1877POPC   PO426244  19.313   7.074   9.519
 1877POPC   GL126245  19.324   6.737   9.178
 1877POPC   GL226246  19.501   6.434   9.233
 1877POPC   C1A26247  19.096   6.535   8.816
 1877POPC   D2A26248  18.963   6.744   8.470
 1877POPC   C3A26249  19.161   6.862   8.128
 1877POPC   C4A26250  18.916   6.902   7.785
 1877POPC   C1B26251  19.568   6.386   8.764
 1877POPC   C2B26252  19.293   6.355   8.375
 1877POPC   C3B26253  18.987   6.382   8.053
 1877POPC   C4B26254  19.263   6.536   7.761
 1878POPC   NC326255  33.836  10.324   9.635
 1878POPC   PO426256  33.894  10.983   9.685
 1878POPC   GL126257  33.822  10.709   9.308
 1878POPC   GL226258  34.173  10.666   9.197
 1878POPC   C1A26259  33.653  10.680   8.894
 1878POPC   D2A26260  33.697  10.472   8.492
 1878POPC   C3A26261  33.687  10.674   8.093
 1878POPC   C4A26262  33.606  10.806   7.635
 1878POPC   C1B26263  34.082  10.399   8.847
 1878POPC   C2B26264  34.217  10.379   8.388
 1878POPC   C3B26265  34.288  10.182   7.977
 1878POPC   C4B26266  34.020  10.441   7.767
 1879POPC   NC326267  14.480  19.543   9.218
 1879POPC   PO426268  14.075  19.977   9.406
 1879POPC   GL126269  14.243  20.129   9.052
 1879POPC   GL226270  14.587  20.016   9.035
 1879POPC   C1A26271  14.249  19.906   8.660
 1879POPC   D2A26272  14.603  19.687   8.499
 1879POPC   C3A26273  14.576  19.696   8.064
 1879POPC   C4A26274  14.247  19.803   7.728
 1879POPC   C1B26275  14.669  20.212   8.659
 1879POPC   C2B26276  14.481  20.179   8.232
 1879POPC   C3B26277  14.679  20.116   7.805
 1879POPC   C4B26278  14.619  20.079   7.307
 1880POPC   NC326279  40.600  38.187   9.527
 1880POPC   PO426280  40.695  37.533   9.618
 1880POPC   GL126281  40.822  37.612   9.211
 1880POPC   GL226282  40.921  37.966   9.149
 1880POPC   C1A26283  40.710  37.389   8.829
 1880POPC   D2A26284  40.918  37.336   8.412
 1880POPC   C3A26285  40.647  37.398   8.035
 1880POPC   C4A26286  40.907  37.376   7.714
 1880POPC   C1B26287  40.610  37.914   8.850
 1880POPC   C2B26288  40.561  37.715   8.466
 1880POPC   C3B26289  40.859  37.836   8.191
 1880POPC   C4B26290  40.795  37.874   7.775
 1881POPC   NC326291  44.260  42.959   9.632
 1881POPC   PO426292  44.852  43.225   9.831
 1881POPC   GL126293  44.845  43.210   9.336
 1881POPC   GL226294  44.530  43.099   9.235
 1881POPC   C1A26295  44.852  43.257   8.865
 1881POPC   D2A26296  44.877  43.357   8.418
 1881POPC   C3A26297  44.560  43.337   8.102
 1881POPC   C4A26298  44.673  43.230   7.693
 1881POPC   C1B26299  44.379  43.011   8.826
 1881POPC   C2B26300  44.415  42.936   8.398
 1881POPC   C3B26301  44.288  42.865   7.960
 1881POPC   C4B26302  44.335  42.929   7.513
 1882POPC   NC326303  38.804  17.992   9.831
 1882POPC   PO426304  38.204  18.253   9.472
 1882POPC   GL126305  38.513  18.474   9.177
 1882POPC   GL226306  38.248  18.511   8.978
 1882POPC   C1A26307  38.743  18.379   8.805
 1882POPC   D2A26308  38.566  18.243   8.435
 1882POPC   C3A26309  38.629  18.492   8.071
 1882POPC   C4A26310  38.496  18.488   7.655
 1882POPC   C1B26311  38.145  18.156   8.720
 1882POPC   C2B26312  38.238  17.847   8.371
 1882POPC   C3B26313  38.455  17.994   7.996
 1882POPC   C4B26314  38.659  17.970   7.626
 1883POPC   NC326315   7.476  31.044   9.466
 1883POPC   PO426316   7.162  30.469   9.559
 1883POPC   GL126317   7.284  30.660   9.159
 1883POPC   GL226318   7.122  31.007   9.095
 1883POPC   C1A26319   7.573  30.523   8.828
 1883POPC   D2A26320   7.654  30.430   8.382
 1883POPC   C3A26321   7.322  30.546   8.113
 1883POPC   C4A26322   7.191  30.939   7.932
 1883POPC   C1B26323   7.390  30.990   8.730
 1883POPC   C2B26324   7.549  30.949   8.316
 1883POPC   C3B26325   7.712  30.992   7.867
 1883POPC   C4B26326   7.754  31.004   7.373
 1884POPC   NC326327  27.557  28.633   9.509
 1884POPC   PO426328  27.878  28.015   9.517
 1884POPC   GL126329  27.610  28.237   9.184
 1884POPC   GL226330  27.259  28.173   9.106
 1884POPC   C1A26331  27.708  28.478   8.847
 1884POPC   D2A26332  27.994  28.345   8.537
 1884POPC   C3A26333  27.869  28.517   8.167
 1884POPC   C4A26334  27.852  28.552   7.748
 1884POPC   C1B26335  27.250  28.356   8.709
 1884POPC   C2B26336  27.524  28.195   8.454
 1884POPC   C3B26337  27.552  28.107   8.085
 1884POPC   C4B26338  27.408  28.351   7.825
 1885POPC   NC326339  44.896   2.980   9.706
 1885POPC   PO426340  44.696   2.414   9.478
 1885POPC   GL126341  44.718   2.773   9.196
 1885POPC   GL226342   0.033   2.981   9.215
 1885POPC   C1A26343  44.545   2.841   8.780
 1885POPC   D2A26344  44.256   2.747   8.448
 1885POPC   C3A26345  44.448   2.726   8.080
 1885POPC   C4A26346  44.569   2.782   7.667
 1885POPC   C1B26347   0.034   3.045   8.775
 1885POPC   C2B26348  44.883   2.887   8.390
 1885POPC   C3B26349  44.874   3.009   7.994
 1885POPC   C4B26350   0.056   2.935   7.586
 1886POPC   NC326351  32.078  10.196   9.380
 1886POPC   PO426352  32.015   9.509   9.428
 1886POPC   GL126353  32.348   9.727   9.215
 1886POPC   GL226354  32.483   9.470   9.004
 1886POPC   C1A26355  32.404   9.995   8.842
 1886POPC   D2A26356  32.102  10.040   8.475
 1886POPC   C3A26357  32.382   9.947   8.164
 1886POPC   C4A26358  32.522   9.969   7.766
 1886POPC   C1B26359  32.078   9.604   8.766
 1886POPC   C2B26360  32.076   9.536   8.321
 1886POPC   C3B26361  32.181   9.577   7.866
 1886POPC   C4B26362  32.220   9.552   7.378
 1887POPC   NC326363   3.286   2.817   9.534
 1887POPC   PO426364   3.793   3.210   9.498
 1887POPC   GL126365   3.672   2.938   9.146
 1887POPC   GL226366   3.597   2.582   9.187
 1887POPC   C1A26367   3.661   2.742   8.717
 1887POPC   D2A26368   3.938   2.638   8.394
 1887POPC   C3A26369   3.650   2.758   8.058
 1887POPC   C4A26370   3.507   2.871   7.642
 1887POPC   C1B26371   3.330   2.389   8.824
 1887POPC   C2B26372   3.177   2.417   8.365
 1887POPC   C3B26373   3.234   2.504   7.896
 1887POPC   C4B26374   3.278   2.427   7.409
 1888POPC   NC326375  12.205  32.240   9.703
 1888POPC   PO426376  12.190  32.443   9.023
 1888POPC   GL126377  12.004  32.077   8.825
 1888POPC   GL226378  11.709  32.087   9.044
 1888POPC   C1A26379  12.304  31.958   8.482
 1888POPC   D2A26380  12.520  32.331   8.284
 1888POPC   C3A26381  12.187  32.513   8.005
 1888POPC   C4A26382  12.058  32.249   7.632
 1888POPC   C1B26383  11.593  32.394   8.731
 1888POPC   C2B26384  11.823  32.396   8.350
 1888POPC   C3B26385  11.674  32.413   7.923
 1888POPC   C4B26386  11.571  32.231   7.500
 1889POPC   NC326387  36.436  11.655   9.362
 1889POPC   PO426388  36.073  11.105   9.532
 1889POPC   GL126389  35.992  11.402   9.202
 1889POPC   GL226390  36.280  11.259   9.082
 1889POPC   C1A26391  36.084  11.588   8.762
 1889POPC   D2A26392  36.228  11.734   8.367
 1889POPC   C3A26393  36.062  11.518   7.984
 1889POPC   C4A26394  35.700  11.275   7.818
 1889POPC   C1B26395  36.031  11.068   8.818
 1889POPC   C2B26396  35.983  11.112   8.426
 1889POPC   C3B26397  36.048  10.994   8.036
 1889POPC   C4B26398  36.182  11.124   7.660
 1890POPC   NC326399   6.097   9.908   9.365
 1890POPC   PO426400   5.472   9.816   9.463
 1890POPC   GL126401   5.728   9.588   9.186
 1890POPC   GL226402   5.703   9.922   8.994
 1890POPC   C1A26403   5.796   9.495   8.749
 1890POPC   D2A26404   5.721   9.781   8.388
 1890POPC   C3A26405   5.774   9.589   7.982
 1890POPC   C4A26406   6.127   9.376   7.811
 1890POPC   C1B26407   5.660  10.253   8.659
 1890POPC   C2B26408   5.738  10.283   8.181
 1890POPC   C3B26409   5.874  10.063   7.790
 1890POPC   C4B26410   5.752  10.167   7.370
 1891POPC   NC326411  30.776  31.898   9.465
 1891POPC   PO426412  30.759  32.529   9.568
 1891POPC   GL126413  30.756  32.332   9.148
 1891POPC   GL226414  31.002  32.118   9.044
 1891POPC   C1A26415  30.814  32.418   8.683
 1891POPC   D2A26416  30.656  32.323   8.251
 1891POPC   C3A26417  30.755  32.618   7.894
 1891POPC   C4A26418  30.814  32.648   7.432
 1891POPC   C1B26419  31.172  31.927   8.665
 1891POPC   C2B26420  31.162  32.201   8.348
 1891POPC   C3B26421  31.043  32.202   7.929
 1891POPC   C4B26422  31.040  32.120   7.480
 1892POPC   NC326423  43.008   7.646   9.424
 1892POPC   PO426424  43.550   7.703   9.830
 1892POPC   GL126425  43.487   7.527   9.311
 1892POPC   GL226426  43.256   7.279   9.111
 1892POPC   C1A26427  43.380   7.683   8.850
 1892POPC   D2A26428  43.215   7.734   8.441
 1892POPC   C3A26429  43.304   7.523   8.039
 1892POPC   C4A26430  43.010   7.676   7.725
 1892POPC   C1B26431  42.934   7.424   8.757
 1892POPC   C2B26432  42.856   7.402   8.278
 1892POPC   C3B26433  42.893   7.203   7.853
 1892POPC   C4B26434  42.956   7.264   7.394
 1893POPC   NC326435   9.615  29.521   9.414
 1893POPC   PO426436   9.550  28.804   9.566
 1893POPC   GL126437   9.665  29.039   9.208
 1893POPC   GL226438   9.979  29.124   9.293
 1893POPC   C1A26439   9.689  29.178   8.774
 1893POPC   D2A26440   9.493  28.957   8.433
 1893POPC   C3A26441   9.689  28.991   8.050
 1893POPC   C4A26442   9.594  29.323   7.807
 1893POPC   C1B26443  10.157  29.370   8.947
 1893POPC   C2B26444  10.112  29.379   8.508
 1893POPC   C3B26445   9.995  29.452   8.085
 1893POPC   C4B26446  10.179  29.222   7.815
 1894POPC   NC326447  25.010  35.067   9.527
 1894POPC   PO426448  24.321  35.328   9.546
 1894POPC   GL126449  24.312  35.488   9.167
 1894POPC   GL226450  24.570  35.278   9.076
 1894POPC   C1A26451  24.115  35.323   8.796
 1894POPC   D2A26452  24.301  35.415   8.417
 1894POPC   C3A26453  24.210  35.483   8.034
 1894POPC   C4A26454  24.090  35.435   7.652
 1894POPC   C1B26455  24.547  35.078   8.672
 1894POPC   C2B26456  24.652  35.120   8.225
 1894POPC   C3B26457  24.454  35.071   7.819
 1894POPC   C4B26458  24.640  34.876   7.448
 1895POPC   NC326459   7.847  27.655   9.587
 1895POPC   PO426460   8.479  27.433   9.634
 1895POPC   GL126461   8.210  27.470   9.247
 1895POPC   GL226462   8.061  27.798   9.161
 1895POPC   C1A26463   8.299  27.550   8.805
 1895POPC   D2A26464   8.261  27.267   8.476
 1895POPC   C3A26465   8.286  27.439   8.093
 1895POPC   C4A26466   8.219  27.335   7.687
 1895POPC   C1B26467   7.840  27.808   8.781
 1895POPC   C2B26468   8.040  27.766   8.400
 1895POPC   C3B26469   8.027  27.959   7.990
 1895POPC   C4B26470   7.613  27.949   7.790
 1896POPC   NC326471  29.422  10.131   9.513
 1896POPC   PO426472  30.037   9.883   9.429
 1896POPC   GL126473  30.022   9.780   9.073
 1896POPC   GL226474  29.689   9.645   9.021
 1896POPC   C1A26475  30.288   9.893   8.743
 1896POPC   D2A26476  30.192   9.883   8.331
 1896POPC   C3A26477  30.127   9.512   8.120
 1896POPC   C4A26478  29.854   9.758   7.837
 1896POPC   C1B26479  29.770   9.980   8.699
 1896POPC   C2B26480  29.579  10.098   8.332
 1896POPC   C3B26481  29.482  10.251   7.956
 1896POPC   C4B26482  29.459  10.055   7.565
 1897POPC   NC326483   5.026  13.240   9.495
 1897POPC   PO426484   5.377  12.756   9.476
 1897POPC   GL126485   5.231  12.943   9.120
 1897POPC   GL226486   4.882  12.851   9.168
 1897POPC   C1A26487   5.122  13.071   8.712
 1897POPC   D2A26488   5.134  13.295   8.350
 1897POPC   C3A26489   4.998  13.006   8.047
 1897POPC   C4A26490   5.256  12.944   7.637
 1897POPC   C1B26491   4.835  12.633   8.788
 1897POPC   C2B26492   4.594  12.669   8.411
 1897POPC   C3B26493   4.654  12.616   7.985
 1897POPC   C4B26494   4.747  12.863   7.647
 1898POPC   NC326495  16.346  15.663   9.565
 1898POPC   PO426496  15.602  15.659   9.540
 1898POPC   GL126497  15.891  15.724   9.205
 1898POPC   GL226498  15.687  15.986   9.077
 1898POPC   C1A26499  16.108  15.932   8.834
 1898POPC   D2A26500  15.828  16.147   8.559
 1898POPC   C3A26501  15.858  15.960   8.143
 1898POPC   C4A26502  16.053  16.210   7.791
 1898POPC   C1B26503  15.618  15.699   8.748
 1898POPC   C2B26504  15.640  15.514   8.364
 1898POPC   C3B26505  15.487  15.588   7.955
 1898POPC   C4B26506  15.665  15.898   7.677
 1899POPC   NC326507  42.717  10.665   9.569
 1899POPC   PO426508  42.043  10.564   9.503
 1899POPC   GL126509  42.367  10.474   9.231
 1899POPC   GL226510  42.505  10.807   9.146
 1899POPC   C1A26511  42.447  10.271   8.844
 1899POPC   D2A26512  42.325  10.069   8.467
 1899POPC   C3A26513  42.380  10.211   8.031
 1899POPC   C4A26514  42.620  10.167   7.639
 1899POPC   C1B26515  42.284  10.745   8.783
 1899POPC   C2B26516  42.456  10.573   8.422
 1899POPC   C3B26517  42.426  10.734   8.050
 1899POPC   C4B26518  42.384  10.623   7.633
 1900POPC   NC326519  23.694  17.774   9.520
 1900POPC   PO426520  23.724  17.130   9.750
 1900POPC   GL126521  23.791  17.217   9.250
 1900POPC   GL226522  23.536  17.131   9.049
 1900POPC   C1A26523  23.819  17.435   8.789
 1900POPC   D2A26524  23.602  17.454   8.395
 1900POPC   C3A26525  23.772  17.582   8.014
 1900POPC   C4A26526  23.620  17.552   7.601
 1900POPC   C1B26527  23.288  17.234   8.733
 1900POPC   C2B26528  23.135  17.252   8.327
 1900POPC   C3B26529  23.312  17.338   7.943
 1900POPC   C4B26530  23.392  17.122   7.530
 1901POPC   NC326531  31.914   5.652   9.505
 1901POPC   PO426532  32.344   6.121   9.521
 1901POPC   GL126533  32.186   6.120   9.131
 1901POPC   GL226534  31.830   6.072   9.180
 1901POPC   C1A26535  32.312   5.898   8.766
 1901POPC   D2A26536  32.216   5.957   8.353
 1901POPC   C3A26537  32.524   5.925   8.030
 1901POPC   C4A26538  32.606   5.824   7.598
 1901POPC   C1B26539  31.790   6.245   8.765
 1901POPC   C2B26540  31.839   6.339   8.316
 1901POPC   C3B26541  31.963   6.083   7.946
 1901POPC   C4B26542  31.943   6.125   7.487
 1902POPC   NC326543   9.447   3.926   9.204
 1902POPC   PO426544  10.033   4.249   9.261
 1902POPC   GL126545   9.704   4.402   9.039
 1902POPC   GL226546   9.689   4.779   9.104
 1902POPC   C1A26547   9.752   4.203   8.634
 1902POPC   D2A26548   9.902   4.298   8.227
 1902POPC   C3A26549   9.768   4.075   7.882
 1902POPC   C4A26550   9.740   4.233   7.483
 1902POPC   C1B26551   9.632   4.752   8.659
 1902POPC   C2B26552   9.719   4.781   8.227
 1902POPC   C3B26553   9.574   4.556   7.858
 1902POPC   C4B26554   9.591   4.734   7.423
 1903POPC   NC326555   6.056  35.609   9.460
 1903POPC   PO426556   5.568  35.189   9.542
 1903POPC   GL126557   5.747  35.334   9.172
 1903POPC   GL226558   5.647  35.688   9.157
 1903POPC   C1A26559   5.983  35.431   8.796
 1903POPC   D2A26560   6.133  35.445   8.384
 1903POPC   C3A26561   6.034  35.083   8.148
 1903POPC   C4A26562   5.922  35.066   7.743
 1903POPC   C1B26563   5.474  35.533   8.792
 1903POPC   C2B26564   5.642  35.521   8.382
 1903POPC   C3B26565   5.790  35.513   7.985
 1903POPC   C4B26566   5.504  35.373   7.691
 1904POPC   NC326567  31.823  44.738   9.337
 1904POPC   PO426568  32.510  44.547   9.498
 1904POPC   GL126569  32.276  44.508   9.153
 1904POPC   GL226570  32.296  44.867   9.118
 1904POPC   C1A26571  32.061  44.596   8.759
 1904POPC   D2A26572  32.159  44.916   8.503
 1904POPC   C3A26573  32.231  44.633   8.197
 1904POPC   C4A26574  32.208  44.502   7.793
 1904POPC   C1B26575  32.494   0.156   8.856
 1904POPC   C2B26576  32.521   0.328   8.451
 1904POPC   C3B26577  32.411   0.103   8.090
 1904POPC   C4B26578  32.030  44.971   7.883
 1905POPC   NC326579  38.578  26.314   9.514
 1905POPC   PO426580  38.793  25.593   9.419
 1905POPC   GL126581  38.471  25.891   9.137
 1905POPC   GL226582  38.280  26.241   9.117
 1905POPC   C1A26583  38.525  26.016   8.699
 1905POPC   D2A26584  38.811  25.957   8.344
 1905POPC   C3A26585  38.695  26.175   7.998
 1905POPC   C4A26586  38.527  26.151   7.653
 1905POPC   C1B26587  38.040  26.064   8.803
 1905POPC   C2B26588  38.091  25.900   8.420
 1905POPC   C3B26589  38.195  26.059   8.055
 1905POPC   C4B26590  38.130  25.850   7.704
 1906POPC   NC326591  32.723  35.041   9.524
 1906POPC   PO426592  33.222  35.466   9.535
 1906POPC   GL126593  33.071  35.522   9.156
 1906POPC   GL226594  32.753  35.521   9.171
 1906POPC   C1A26595  33.153  35.560   8.752
 1906POPC   D2A26596  32.955  35.465   8.389
 1906POPC   C3A26597  33.123  35.537   7.994
 1906POPC   C4A26598  33.269  35.222   7.731
 1906POPC   C1B26599  32.695  35.218   8.842
 1906POPC   C2B26600  32.708  35.023   8.428
 1906POPC   C3B26601  32.688  35.227   8.017
 1906POPC   C4B26602  32.700  35.365   7.613
 1907POPC   NC326603  40.215  34.480   9.757
 1907POPC   PO426604  39.749  34.839   9.467
 1907POPC   GL126605  39.979  34.585   9.159
 1907POPC   GL226606  40.334  34.464   9.156
 1907POPC   C1A26607  39.988  34.609   8.710
 1907POPC   D2A26608  40.019  34.860   8.372
 1907POPC   C3A26609  39.831  34.696   8.032
 1907POPC   C4A26610  39.867  34.732   7.619
 1907POPC   C1B26611  40.473  34.703   8.766
 1907POPC   C2B26612  40.517  34.880   8.328
 1907POPC   C3B26613  40.316  34.781   7.934
 1907POPC   C4B26614  40.271  34.424   7.624
 1908POPC   NC326615  28.680  32.851   9.805
 1908POPC   PO426616  28.134  32.518   9.516
 1908POPC   GL126617  28.063  32.888   9.159
 1908POPC   GL226618  28.362  33.027   9.036
 1908POPC   C1A26619  27.997  33.187   8.755
 1908POPC   D2A26620  28.185  33.317   8.339
 1908POPC   C3A26621  28.454  32.921   8.146
 1908POPC   C4A26622  28.508  32.829   7.674
 1908POPC   C1B26623  28.517  33.287   8.725
 1908POPC   C2B26624  28.699  33.361   8.302
 1908POPC   C3B26625  28.565  33.314   7.850
 1908POPC   C4B26626  28.830  33.163   7.462
 1909POPC   NC326627  41.731  18.062   9.594
 1909POPC   PO426628  41.315  18.641   9.549
 1909POPC   GL126629  41.323  18.360   9.167
 1909POPC   GL226630  41.591  18.149   9.111
 1909POPC   C1A26631  41.237  18.269   8.719
 1909POPC   D2A26632  41.257  18.151   8.280
 1909POPC   C3A26633  41.294  18.532   7.966
 1909POPC   C4A26634  41.555  18.743   7.624
 1909POPC   C1B26635  41.775  18.325   8.751
 1909POPC   C2B26636  41.771  18.217   8.319
 1909POPC   C3B26637  41.797  18.398   7.905
 1909POPC   C4B26638  41.634  18.242   7.514
 1910POPC   NC326639  32.451   8.298   9.476
 1910POPC   PO426640  31.854   7.909   9.491
 1910POPC   GL126641  32.034   8.020   9.069
 1910POPC   GL226642  32.330   8.271   8.982
 1910POPC   C1A26643  32.054   8.097   8.617
 1910POPC   D2A26644  32.403   8.138   8.357
 1910POPC   C3A26645  32.361   7.958   7.986
 1910POPC   C4A26646  32.107   7.932   7.613
 1910POPC   C1B26647  32.480   8.565   8.635
 1910POPC   C2B26648  32.555   8.599   8.208
 1910POPC   C3B26649  32.723   8.299   7.891
 1910POPC   C4B26650  32.598   8.010   7.549
 1911POPC   NC326651  13.075  18.835   9.534
 1911POPC   PO426652  12.679  19.407   9.558
 1911POPC   GL126653  12.915  19.196   9.213
 1911POPC   GL226654  12.676  18.897   9.218
 1911POPC   C1A26655  12.944  19.219   8.753
 1911POPC   D2A26656  12.659  19.403   8.426
 1911POPC   C3A26657  12.742  19.324   7.976
 1911POPC   C4A26658  13.105  19.216   7.768
 1911POPC   C1B26659  12.620  18.743   8.807
 1911POPC   C2B26660  12.712  18.902   8.388
 1911POPC   C3B26661  12.852  18.803   7.978
 1911POPC   C4B26662  12.754  18.400   7.788
 1912POPC   NC326663  39.911  25.184   9.607
 1912POPC   PO426664  39.828  25.820   9.700
 1912POPC   GL126665  40.011  25.502   9.258
 1912POPC   GL226666  39.886  25.114   9.126
 1912POPC   C1A26667  40.140  25.399   8.816
 1912POPC   D2A26668  39.945  25.418   8.397
 1912POPC   C3A26669  40.086  25.220   7.998
 1912POPC   C4A26670  39.977  25.106   7.549
 1912POPC   C1B26671  39.935  24.939   8.699
 1912POPC   C2B26672  39.679  24.966   8.332
 1912POPC   C3B26673  39.642  24.983   7.904
 1912POPC   C4B26674  39.504  24.878   7.492
 1913POPC   NC326675  14.514  27.545   9.443
 1913POPC   PO426676  13.874  27.195   9.442
 1913POPC   GL126677  14.185  27.421   9.087
 1913POPC   GL226678  14.113  27.797   9.103
 1913POPC   C1A26679  14.594  27.432   8.778
 1913POPC   D2A26680  14.781  27.265   8.370
 1913POPC   C3A26681  14.637  27.411   7.953
 1913POPC   C4A26682  14.207  27.456   7.835
 1913POPC   C1B26683  14.238  27.761   8.668
 1913POPC   C2B26684  14.379  27.725   8.258
 1913POPC   C3B26685  14.301  27.960   7.858
 1913POPC   C4B26686  14.071  27.965   7.431
 1914POPC   NC326687  33.408   3.380   9.525
 1914POPC   PO426688  32.717   3.582   9.439
 1914POPC   GL126689  33.036   3.487   9.178
 1914POPC   GL226690  33.225   3.791   9.162
 1914POPC   C1A26691  33.140   3.342   8.780
 1914POPC   D2A26692  33.127   3.576   8.393
 1914POPC   C3A26693  33.149   3.342   8.047
 1914POPC   C4A26694  32.870   3.515   7.754
 1914POPC   C1B26695  33.423   3.770   8.757
 1914POPC   C2B26696  33.428   4.012   8.359
 1914POPC   C3B26697  33.199   3.882   7.966
 1914POPC   C4B26698  33.238   3.740   7.514
 1915POPC   NC326699  41.150  16.631   9.464
 1915POPC   PO426700  40.650  17.042   9.687
 1915POPC   GL126701  40.683  16.946   9.236
 1915POPC   GL226702  40.485  16.627   9.134
 1915POPC   C1A26703  40.722  16.948   8.782
 1915POPC   D2A26704  40.543  16.620   8.483
 1915POPC   C3A26705  40.748  16.633   8.091
 1915POPC   C4A26706  40.990  16.787   7.746
 1915POPC   C1B26707  40.862  16.474   8.885
 1915POPC   C2B26708  40.921  16.247   8.499
 1915POPC   C3B26709  41.136  16.236   8.101
 1915POPC   C4B26710  41.255  16.354   7.677
 1916POPC   NC326711  27.576  42.745   9.444
 1916POPC   PO426712  27.817  42.164   9.629
 1916POPC   GL126713  27.741  42.255   9.163
 1916POPC   GL226714  27.563  42.534   8.986
 1916POPC   C1A26715  27.688  42.130   8.699
 1916POPC   D2A26716  27.492  42.221   8.272
 1916POPC   C3A26717  27.727  42.296   7.865
 1916POPC   C4A26718  27.469  42.268   7.495
 1916POPC   C1B26719  27.240  42.403   8.712
 1916POPC   C2B26720  27.154  42.613   8.313
 1916POPC   C3B26721  27.305  42.622   7.898
 1916POPC   C4B26722  27.493  42.754   7.512
 1917POPC   NC326723  31.084  30.629   9.782
 1917POPC   PO426724  30.497  30.487   9.529
 1917POPC   GL126725  30.677  30.586   9.140
 1917POPC   GL226726  31.007  30.476   9.101
 1917POPC   C1A26727  30.700  30.775   8.717
 1917POPC   D2A26728  30.400  30.758   8.368
 1917POPC   C3A26729  30.550  30.899   7.945
 1917POPC   C4A26730  30.670  31.034   7.505
 1917POPC   C1B26731  31.166  30.484   8.693
 1917POPC   C2B26732  31.265  30.477   8.273
 1917POPC   C3B26733  31.108  30.318   7.911
 1917POPC   C4B26734  30.881  30.601   7.666
 1918POPC   NC326735  13.635  34.152   9.617
 1918POPC   PO426736  13.103  34.457   9.474
 1918POPC   GL126737  13.214  34.597   9.100
 1918POPC   GL226738  13.442  34.846   8.966
 1918POPC   C1A26739  13.244  34.422   8.721
 1918POPC   D2A26740  13.534  34.467   8.399
 1918POPC   C3A26741  13.411  34.475   7.998
 1918POPC   C4A26742  13.497  34.235   7.595
 1918POPC   C1B26743  13.843  34.713   8.745
 1918POPC   C2B26744  14.028  34.598   8.358
 1918POPC   C3B26745  13.924  34.504   7.950
 1918POPC   C4B26746  14.048  34.895   7.797
 1919POPC   NC326747  34.701   2.495   9.886
 1919POPC   PO426748  34.628   2.941   9.358
 1919POPC   GL126749  34.546   2.882   9.013
 1919POPC   GL226750  34.483   2.536   8.973
 1919POPC   C1A26751  34.579   3.076   8.679
 1919POPC   D2A26752  34.439   2.964   8.322
 1919POPC   C3A26753  34.656   3.091   7.976
 1919POPC   C4A26754  34.555   3.029   7.560
 1919POPC   C1B26755  34.858   2.646   8.677
 1919POPC   C2B26756  34.830   2.656   8.219
 1919POPC   C3B26757  34.514   2.596   7.914
 1919POPC   C4B26758  34.851   2.631   7.653
 1920POPC   NC326759  15.728  26.466   9.454
 1920POPC   PO426760  16.179  26.896   9.626
 1920POPC   GL126761  16.161  26.656   9.224
 1920POPC   GL226762  15.845  26.836   9.127
 1920POPC   C1A26763  16.036  26.492   8.788
 1920POPC   D2A26764  15.848  26.717   8.449
 1920POPC   C3A26765  15.890  26.550   8.070
 1920POPC   C4A26766  15.756  26.629   7.711
 1920POPC   C1B26767  16.159  26.992   8.842
 1920POPC   C2B26768  16.271  26.993   8.404
 1920POPC   C3B26769  16.050  27.054   8.006
 1920POPC   C4B26770  16.241  26.954   7.627
 1921POPC   NC326771  14.472  41.803   9.301
 1921POPC   PO426772  14.562  42.441   9.442
 1921POPC   GL126773  14.343  42.261   9.131
 1921POPC   GL226774  14.311  42.545   9.008
 1921POPC   C1A26775  14.317  42.078   8.716
 1921POPC   D2A26776  14.339  42.323   8.352
 1921POPC   C3A26777  14.391  42.169   7.957
 1921POPC   C4A26778  14.191  42.084   7.596
 1921POPC   C1B26779  14.636  42.504   8.742
 1921POPC   C2B26780  14.670  42.715   8.372
 1921POPC   C3B26781  14.686  42.606   7.923
 1921POPC   C4B26782  14.661  42.314   7.547
 1922POPC   NC326783  41.696   0.002   9.854
 1922POPC   PO426784  41.586  44.426   9.569
 1922POPC   GL126785  41.671  44.608   9.144
 1922POPC   GL226786  41.755  44.923   9.264
 1922POPC   C1A26787  41.506  44.537   8.708
 1922POPC   D2A26788  41.672  44.232   8.382
 1922POPC   C3A26789  41.513  44.395   8.021
 1922POPC   C4A26790  41.251  44.675   7.797
 1922POPC   C1B26791  41.876  44.950   8.813
 1922POPC   C2B26792  41.686   0.058   8.419
 1922POPC   C3B26793  41.634  44.922   8.009
 1922POPC   C4B26794  41.800  44.930   7.582
 1923POPC   NC326795   6.041  33.124   9.467
 1923POPC   PO426796   6.076  32.512   9.719
 1923POPC   GL126797   6.128  32.675   9.239
 1923POPC   GL226798   6.225  32.987   9.016
 1923POPC   C1A26799   6.195  32.537   8.815
 1923POPC   D2A26800   6.249  32.862   8.463
 1923POPC   C3A26801   6.124  32.788   8.035
 1923POPC   C4A26802   6.113  33.013   7.600
 1923POPC   C1B26803   5.818  32.909   8.761
 1923POPC   C2B26804   5.690  32.901   8.320
 1923POPC   C3B26805   5.810  33.187   7.980
 1923POPC   C4B26806   5.630  33.563   7.859
 1924POPC   NC326807   2.821  30.083   9.299
 1924POPC   PO426808   3.202  29.548   9.545
 1924POPC   GL126809   3.159  29.749   9.117
 1924POPC   GL226810   2.818  29.671   9.026
 1924POPC   C1A26811   3.102  30.092   8.738
 1924POPC   D2A26812   3.078  30.395   8.362
 1924POPC   C3A26813   3.130  30.183   7.995
 1924POPC   C4A26814   2.937  29.981   7.664
 1924POPC   C1B26815   2.558  29.903   8.727
 1924POPC   C2B26816   2.597  30.261   8.477
 1924POPC   C3B26817   2.602  30.161   8.041
 1924POPC   C4B26818   2.474  29.795   7.772
 1925POPC   NC326819  31.879  37.922   9.444
 1925POPC   PO426820  32.304  37.389   9.364
 1925POPC   GL126821  32.186  37.714   9.092
 1925POPC   GL226822  32.368  38.033   9.171
 1925POPC   C1A26823  31.951  37.694   8.730
 1925POPC   D2A26824  32.129  37.534   8.370
 1925POPC   C3A26825  32.062  37.662   7.950
 1925POPC   C4A26826  32.440  37.715   7.689
 1925POPC   C1B26827  32.113  38.188   8.814
 1925POPC   C2B26828  32.034  38.056   8.385
 1925POPC   C3B26829  32.355  38.048   8.093
 1925POPC   C4B26830  32.273  38.225   7.719
 1926POPC   NC326831  34.541  35.701   9.474
 1926POPC   PO426832  34.433  34.942   9.498
 1926POPC   GL126833  34.305  35.203   9.176
 1926POPC   GL226834  34.632  35.320   9.131
 1926POPC   C1A26835  34.320  35.220   8.722
 1926POPC   D2A26836  34.549  35.194   8.335
 1926POPC   C3A26837  34.238  35.315   8.012
 1926POPC   C4A26838  34.398  35.557   7.663
 1926POPC   C1B26839  34.769  35.484   8.759
 1926POPC   C2B26840  34.957  35.671   8.438
 1926POPC   C3B26841  34.857  35.733   8.029
 1926POPC   C4B26842  34.981  35.582   7.660
 1927POPC   NC326843  11.426  18.801   9.399
 1927POPC   PO426844  11.039  19.327   9.371
 1927POPC   GL126845  11.318  19.192   9.084
 1927POPC   GL226846  11.533  19.506   8.995
 1927POPC   C1A26847  11.210  18.863   8.749
 1927POPC   D2A26848  10.947  18.952   8.375
 1927POPC   C3A26849  11.143  18.929   7.973
 1927POPC   C4A26850  11.275  18.736   7.587
 1927POPC   C1B26851  11.638  19.140   8.708
 1927POPC   C2B26852  11.567  18.952   8.290
 1927POPC   C3B26853  11.646  19.029   7.814
 1927POPC   C4B26854  11.688  18.948   7.337
 1928POPC   NC326855   5.985   4.566   9.810
 1928POPC   PO426856   5.591   4.160   9.507
 1928POPC   GL126857   5.782   4.049   9.099
 1928POPC   GL226858   6.117   3.998   9.050
 1928POPC   C1A26859   5.658   4.233   8.708
 1928POPC   D2A26860   5.786   4.174   8.288
 1928POPC   C3A26861   5.569   4.489   8.070
 1928POPC   C4A26862   5.595   4.690   7.683
 1928POPC   C1B26863   6.150   4.322   8.726
 1928POPC   C2B26864   6.242   4.447   8.293
 1928POPC   C3B26865   6.104   4.545   7.853
 1928POPC   C4B26866   6.077   4.411   7.380
 1929POPC   NC326867  34.305  38.024   9.423
 1929POPC   PO426868  34.753  37.540   9.409
 1929POPC   GL126869  34.397  37.583   9.091
 1929POPC   GL226870  34.141  37.285   9.054
 1929POPC   C1A26871  34.371  37.785   8.671
 1929POPC   D2A26872  34.643  38.061   8.467
 1929POPC   C3A26873  34.818  37.964   8.070
 1929POPC   C4A26874  34.544  37.712   7.824
 1929POPC   C1B26875  34.424  37.265   8.695
 1929POPC   C2B26876  34.442  37.092   8.282
 1929POPC   C3B26877  34.339  37.226   7.862
 1929POPC   C4B26878  34.586  37.323   7.510
 1930POPC   NC326879   5.937  30.611   9.531
 1930POPC   PO426880   5.451  31.132   9.478
 1930POPC   GL126881   5.687  30.843   9.176
 1930POPC   GL226882   5.682  30.452   9.107
 1930POPC   C1A26883   5.963  30.796   8.811
 1930POPC   D2A26884   5.945  31.024   8.420
 1930POPC   C3A26885   5.850  30.790   8.049
 1930POPC   C4A26886   5.924  30.848   7.633
 1930POPC   C1B26887   5.860  30.259   8.741
 1930POPC   C2B26888   6.012  30.341   8.313
 1930POPC   C3B26889   6.011  30.306   7.867
 1930POPC   C4B26890   6.209  30.469   7.510
 1931POPC   NC326891  38.124  11.755   9.341
 1931POPC   PO426892  37.713  12.268   9.633
 1931POPC   GL126893  37.920  12.225   9.235
 1931POPC   GL226894  37.679  11.985   9.155
 1931POPC   C1A26895  37.908  12.222   8.770
 1931POPC   D2A26896  37.630  12.236   8.415
 1931POPC   C3A26897  37.827  12.298   8.056
 1931POPC   C4A26898  37.780  12.234   7.673
 1931POPC   C1B26899  37.396  11.988   8.805
 1931POPC   C2B26900  37.312  11.758   8.419
 1931POPC   C3B26901  37.436  11.923   8.033
 1931POPC   C4B26902  37.774  11.757   7.862
 1932POPC   NC326903  18.073  24.379   9.614
 1932POPC   PO426904  18.521  24.891   9.561
 1932POPC   GL126905  18.413  24.688   9.198
 1932POPC   GL226906  18.054  24.622   9.170
 1932POPC   C1A26907  18.475  24.582   8.762
 1932POPC   D2A26908  18.229  24.660   8.389
 1932POPC   C3A26909  18.387  24.674   7.948
 1932POPC   C4A26910  18.539  24.356   7.690
 1932POPC   C1B26911  17.923  24.456   8.764
 1932POPC   C2B26912  17.955  24.227   8.339
 1932POPC   C3B26913  17.990  24.327   7.880
 1932POPC   C4B26914  17.806  24.244   7.434
 1933POPC   NC326915  33.457  27.792   9.454
 1933POPC   PO426916  34.073  27.483   9.639
 1933POPC   GL126917  33.902  27.662   9.248
 1933POPC   GL226918  33.633  27.484   9.078
 1933POPC   C1A26919  34.034  27.731   8.827
 1933POPC   D2A26920  33.871  27.504   8.473
 1933POPC   C3A26921  34.127  27.453   8.099
 1933POPC   C4A26922  34.099  27.654   7.715
 1933POPC   C1B26923  33.532  27.821   8.770
 1933POPC   C2B26924  33.393  27.849   8.342
 1933POPC   C3B26925  33.669  27.710   8.014
 1933POPC   C4B26926  33.657  27.327   7.783
 1934POPC   NC326927  32.748   7.085   9.553
 1934POPC   PO426928  33.066   6.437   9.708
 1934POPC   GL126929  32.973   6.464   9.261
 1934POPC   GL226930  32.789   6.744   9.172
 1934POPC   C1A26931  32.718   6.279   8.912
 1934POPC   D2A26932  32.650   6.183   8.467
 1934POPC   C3A26933  32.648   6.462   8.106
 1934POPC   C4A26934  33.043   6.428   7.857
 1934POPC   C1B26935  32.921   6.727   8.753
 1934POPC   C2B26936  33.069   6.547   8.379
 1934POPC   C3B26937  33.290   6.796   8.088
 1934POPC   C4B26938  33.345   6.993   7.713
 1935POPC   NC326939   8.914   1.604   9.533
 1935POPC   PO426940   8.914   0.899   9.504
 1935POPC   GL126941   9.067   1.158   9.106
 1935POPC   GL226942   8.847   1.456   9.070
 1935POPC   C1A26943   9.083   1.385   8.654
 1935POPC   D2A26944   9.174   1.555   8.234
 1935POPC   C3A26945   9.013   1.226   7.946
 1935POPC   C4A26946   8.904   1.213   7.491
 1935POPC   C1B26947   8.616   1.631   8.715
 1935POPC   C2B26948   8.670   1.484   8.262
 1935POPC   C3B26949   8.775   1.655   7.833
 1935POPC   C4B26950   9.076   1.746   7.460
 1936POPC   NC326951  31.864  42.723   9.456
 1936POPC   PO426952  32.223  42.087   9.624
 1936POPC   GL126953  32.343  42.154   9.202
 1936POPC   GL226954  32.385  42.507   9.220
 1936POPC   C1A26955  32.215  42.280   8.773
 1936POPC   D2A26956  32.209  42.042   8.372
 1936POPC   C3A26957  32.111  42.157   7.958
 1936POPC   C4A26958  32.130  42.531   7.743
 1936POPC   C1B26959  32.629  42.566   8.828
 1936POPC   C2B26960  32.489  42.474   8.389
 1936POPC   C3B26961  32.595  42.395   7.958
 1936POPC   C4B26962  32.649  42.784   7.754
 1937POPC   NC326963  27.812  25.286   9.844
 1937POPC   PO426964  27.270  25.470   9.477
 1937POPC   GL126965  27.670  25.259   9.281
 1937POPC   GL226966  27.811  24.927   9.185
 1937POPC   C1A26967  27.590  25.192   8.829
 1937POPC   D2A26968  27.467  25.434   8.473
 1937POPC   C3A26969  27.575  25.358   8.053
 1937POPC   C4A26970  27.383  25.269   7.664
 1937POPC   C1B26971  28.002  24.865   8.760
 1937POPC   C2B26972  27.725  24.956   8.396
 1937POPC   C3B26973  27.465  24.871   8.039
 1937POPC   C4B26974  27.789  24.975   7.765
 1938POPC   NC326975  24.618   5.734   9.546
 1938POPC   PO426976  23.939   5.963   9.549
 1938POPC   GL126977  24.173   5.951   9.143
 1938POPC   GL226978  24.573   5.943   9.080
 1938POPC   C1A26979  24.210   5.849   8.695
 1938POPC   D2A26980  24.516   5.969   8.369
 1938POPC   C3A26981  24.426   5.818   7.935
 1938POPC   C4A26982  24.417   5.643   7.507
 1938POPC   C1B26983  24.902   6.171   8.797
 1938POPC   C2B26984  25.037   6.275   8.379
 1938POPC   C3B26985  24.938   6.365   7.935
 1938POPC   C4B26986  24.668   6.136   7.599
 1939POPC   NC326987  26.154  25.058   9.413
 1939POPC   PO426988  25.673  25.477   9.575
 1939POPC   GL126989  25.778  25.302   9.143
 1939POPC   GL226990  26.141  25.377   9.026
 1939POPC   C1A26991  25.873  25.135   8.704
 1939POPC   D2A26992  25.968  25.328   8.296
 1939POPC   C3A26993  25.853  25.103   7.907
 1939POPC   C4A26994  25.975  25.075   7.431
 1939POPC   C1B26995  26.362  25.644   8.731
 1939POPC   C2B26996  26.498  25.534   8.328
 1939POPC   C3B26997  26.411  25.260   7.989
 1939POPC   C4B26998  26.172  25.444   7.712
 1940POPC   NC326999   7.674  23.934   9.459
 1940POPC   PO427000   7.164  23.541   9.305
 1940POPC   GL127001   7.376  23.583   8.921
 1940POPC   GL227002   7.722  23.656   9.008
 1940POPC   C1A27003   7.633  23.400   8.578
 1940POPC   D2A27004   7.988  23.548   8.331
 1940POPC   C3A27005   7.826  23.570   7.946
 1940POPC   C4A27006   7.423  23.441   7.990
 1940POPC   C1B27007   7.575  24.023   8.763
 1940POPC   C2B27008   7.499  24.216   8.372
 1940POPC   C3B27009   7.437  23.982   8.005
 1940POPC   C4B27010   7.441  24.170   7.636
 1941POPC   NC327011  31.689  13.078   9.498
 1941POPC   PO427012  31.275  12.576   9.483
 1941POPC   GL127013  31.591  12.609   9.130
 1941POPC   GL227014  31.789  12.929   9.045
 1941POPC   C1A27015  31.735  12.577   8.715
 1941POPC   D2A27016  31.441  12.701   8.434
 1941POPC   C3A27017  31.448  12.596   8.021
 1941POPC   C4A27018  31.730  12.846   7.790
 1941POPC   C1B27019  31.402  13.017   8.850
 1941POPC   C2B27020  31.341  13.195   8.443
 1941POPC   C3B27021  31.258  13.066   8.041
 1941POPC   C4B27022  31.224  13.204   7.647
 1942POPC   NC327023  42.556  25.736   9.431
 1942POPC   PO427024  42.491  26.381   9.470
 1942POPC   GL127025  42.365  26.115   9.115
 1942POPC   GL227026  42.115  25.829   9.134
 1942POPC   C1A27027  42.313  26.118   8.675
 1942POPC   D2A27028  42.629  26.221   8.359
 1942POPC   C3A27029  42.520  26.017   8.008
 1942POPC   C4A27030  42.140  26.193   7.825
 1942POPC   C1B27031  42.069  25.655   8.724
 1942POPC   C2B27032  42.029  25.834   8.318
 1942POPC   C3B27033  42.125  25.688   7.943
 1942POPC   C4B27034  42.027  25.784   7.533
 1943POPC   NC327035  44.777   3.826   9.461
 1943POPC   PO427036  44.469   3.235   9.684
 1943POPC   GL127037  44.548   3.332   9.247
 1943POPC   GL227038  44.382   3.653   9.213
 1943POPC   C1A27039  44.592   3.365   8.786
 1943POPC   D2A27040  44.488   3.208   8.361
 1943POPC   C3A27041  44.622   3.443   8.013
 1943POPC   C4A27042  44.652   3.266   7.612
 1943POPC   C1B27043  44.219   3.717   8.828
 1943POPC   C2B27044  44.361   3.717   8.417
 1943POPC   C3B27045  44.150   3.644   8.053
 1943POPC   C4B27046  44.261   3.592   7.649
 1944POPC   NC327047   1.005  14.137   9.467
 1944POPC   PO427048   1.396  14.723   9.426
 1944POPC   GL127049   1.109  14.511   9.128
 1944POPC   GL227050   1.409  14.272   9.111
 1944POPC   C1A27051   1.110  14.314   8.693
 1944POPC   D2A27052   1.471  14.286   8.375
 1944POPC   C3A27053   1.378  14.425   7.926
 1944POPC   C4A27054   0.946  14.417   7.811
 1944POPC   C1B27055   1.447  13.952   8.787
 1944POPC   C2B27056   1.181  13.844   8.483
 1944POPC   C3B27057   1.143  14.013   8.110
 1944POPC   C4B27058   1.206  13.992   7.661
 1945POPC   NC327059  43.117  11.364   9.481
 1945POPC   PO427060  43.160  10.754   9.500
 1945POPC   GL127061  42.983  11.000   9.125
 1945POPC   GL227062  42.812  11.371   9.080
 1945POPC   C1A27063  43.213  11.258   8.800
 1945POPC   D2A27064  43.301  11.531   8.464
 1945POPC   C3A27065  43.215  11.344   8.079
 1945POPC   C4A27066  43.299  11.493   7.697
 1945POPC   C1B27067  42.707  11.565   8.681
 1945POPC   C2B27068  42.834  11.649   8.259
 1945POPC   C3B27069  42.828  11.632   7.822
 1945POPC   C4B27070  42.887  11.375   7.440
 1946POPC   NC327071  25.332   2.186   9.223
 1946POPC   PO427072  25.277   2.847   9.437
 1946POPC   GL127073  24.956   2.816   9.116
 1946POPC   GL227074  24.715   2.504   9.149
 1946POPC   C1A27075  25.191   2.857   8.734
 1946POPC   D2A27076  25.492   2.757   8.419
 1946POPC   C3A27077  25.277   2.871   8.048
 1946POPC   C4A27078  25.488   3.046   7.742
 1946POPC   C1B27079  24.918   2.407   8.772
 1946POPC   C2B27080  25.025   2.522   8.375
 1946POPC   C3B27081  25.225   2.351   8.057
 1946POPC   C4B27082  25.052   2.520   7.708
 1947POPC   NC327083   4.712  36.121   9.879
 1947POPC   PO427084   4.107  36.145   9.539
 1947POPC   GL127085   4.314  36.229   9.187
 1947POPC   GL227086   4.639  36.219   9.324
 1947POPC   C1A27087   4.243  36.043   8.798
 1947POPC   D2A27088   4.205  36.272   8.419
 1947POPC   C3A27089   4.299  36.033   8.067
 1947POPC   C4A27090   4.248  36.137   7.649
 1947POPC   C1B27091   4.724  36.233   8.870
 1947POPC   C2B27092   4.645  36.005   8.479
 1947POPC   C3B27093   4.831  35.904   8.111
 1947POPC   C4B27094   4.726  36.049   7.714
 1948POPC   NC327095  14.848  39.463   9.432
 1948POPC   PO427096  15.500  39.164   9.549
 1948POPC   GL127097  15.253  39.220   9.193
 1948POPC   GL227098  14.990  39.042   9.160
 1948POPC   C1A27099  15.344  39.123   8.772
 1948POPC   D2A27100  15.180  39.309   8.397
 1948POPC   C3A27101  15.310  39.103   8.030
 1948POPC   C4A27102  15.330  39.239   7.624
 1948POPC   C1B27103  14.830  39.125   8.790
 1948POPC   C2B27104  14.741  39.016   8.386
 1948POPC   C3B27105  14.806  39.171   7.966
 1948POPC   C4B27106  14.502  39.169   7.664
 1949POPC   NC327107   8.072   1.115   9.414
 1949POPC   PO427108   8.432   1.669   9.439
 1949POPC   GL127109   8.362   1.332   9.075
 1949POPC   GL227110   8.558   1.005   9.120
 1949POPC   C1A27111   8.113   1.051   8.750
 1949POPC   D2A27112   7.907   1.176   8.343
 1949POPC   C3A27113   8.004   1.035   7.951
 1949POPC   C4A27114   8.022   1.316   7.639
 1949POPC   C1B27115   8.617   1.121   8.682
 1949POPC   C2B27116   8.512   0.994   8.264
 1949POPC   C3B27117   8.482   1.192   7.857
 1949POPC   C4B27118   8.333   0.914   7.508
 1950POPC   NC327119  36.699   3.949   9.543
 1950POPC   PO427120  36.963   3.375   9.671
 1950POPC   GL127121  36.969   3.348   9.205
 1950POPC   GL227122  37.032   3.025   9.033
 1950POPC   C1A27123  36.819   3.424   8.770
 1950POPC   D2A27124  36.795   3.750   8.449
 1950POPC   C3A27125  36.714   3.573   8.013
 1950POPC   C4A27126  36.904   3.691   7.583
 1950POPC   C1B27127  37.214   3.088   8.625
 1950POPC   C2B27128  37.115   3.379   8.300
 1950POPC   C3B27129  37.156   3.370   7.875
 1950POPC   C4B27130  36.818   3.123   7.718
 1951POPC   NC327131  23.255  40.714   9.473
 1951POPC   PO427132  22.853  40.201   9.641
 1951POPC   GL127133  22.822  40.510   9.221
 1951POPC   GL227134  23.067  40.765   9.024
 1951POPC   C1A27135  22.853  40.414   8.753
 1951POPC   D2A27136  23.181  40.462   8.477
 1951POPC   C3A27137  23.137  40.744   8.088
 1951POPC   C4A27138  22.813  40.909   7.776
 1951POPC   C1B27139  22.769  40.940   8.726
 1951POPC   C2B27140  22.792  41.052   8.277
 1951POPC   C3B27141  23.088  41.273   7.958
 1951POPC   C4B27142  22.788  41.446   7.666
 1952POPC   NC327143  10.985  35.550   9.376
 1952POPC   PO427144  11.551  35.946   9.620
 1952POPC   GL127145  11.448  36.027   9.188
 1952POPC   GL227146  11.113  35.997   9.176
 1952POPC   C1A27147  11.396  36.020   8.724
 1952POPC   D2A27148  11.521  36.285   8.363
 1952POPC   C3A27149  11.588  36.122   7.945
 1952POPC   C4A27150  11.535  36.294   7.527
 1952POPC   C1B27151  10.885  35.824   8.814
 1952POPC   C2B27152  10.867  35.892   8.415
 1952POPC   C3B27153  11.058  36.164   8.174
 1952POPC   C4B27154  11.105  36.130   7.756
 1953POPC   NC327155  37.507  42.966   9.542
 1953POPC   PO427156  38.150  43.172   9.683
 1953POPC   GL127157  38.001  42.963   9.294
 1953POPC   GL227158  38.058  43.262   9.134
 1953POPC   C1A27159  37.726  42.941   8.879
 1953POPC   D2A27160  37.558  43.023   8.450
 1953POPC   C3A27161  37.614  42.797   8.054
 1953POPC   C4A27162  37.408  42.984   7.719
 1953POPC   C1B27163  38.053  43.446   8.750
 1953POPC   C2B27164  37.865  43.443   8.373
 1953POPC   C3B27165  37.762  43.302   7.984
 1953POPC   C4B27166  37.952  43.008   7.741
 1954POPC   NC327167  11.865  11.899   9.496
 1954POPC   PO427168  11.219  11.705   9.328
 1954POPC   GL127169  11.525  11.931   9.084
 1954POPC   GL227170  11.781  11.690   9.045
 1954POPC   C1A27171  11.402  12.091   8.681
 1954POPC   D2A27172  10.978  12.063   8.496
 1954POPC   C3A27173  11.093  12.119   8.061
 1954POPC   C4A27174  11.546  12.223   7.978
 1954POPC   C1B27175  11.583  11.614   8.657
 1954POPC   C2B27176  11.569  11.792   8.257
 1954POPC   C3B27177  11.379  11.742   7.870
 1954POPC   C4B27178  10.954  11.735   7.739
 1955POPC   NC327179   3.040  42.572   9.474
 1955POPC   PO427180   3.745  42.391   9.485
 1955POPC   GL127181   3.596  42.365   9.135
 1955POPC   GL227182   3.437  42.698   9.135
 1955POPC   C1A27183   3.553  42.151   8.747
 1955POPC   D2A27184   3.202  42.083   8.459
 1955POPC   C3A27185   3.259  42.251   8.047
 1955POPC   C4A27186   3.486  42.075   7.660
 1955POPC   C1B27187   3.776  42.668   8.796
 1955POPC   C2B27188   3.714  42.526   8.395
 1955POPC   C3B27189   3.767  42.382   7.993
 1955POPC   C4B27190   3.878  42.614   7.644
 1956POPC   NC327191  43.189  38.168   9.482
 1956POPC   PO427192  43.725  38.151   9.214
 1956POPC   GL127193  43.426  38.508   9.114
 1956POPC   GL227194  43.136  38.783   9.073
 1956POPC   C1A27195  43.272  38.483   8.706
 1956POPC   D2A27196  43.430  38.566   8.332
 1956POPC   C3A27197  43.187  38.419   8.044
 1956POPC   C4A27198  43.164  38.064   7.857
 1956POPC   C1B27199  42.870  38.831   8.686
 1956POPC   C2B27200  42.661  38.594   8.360
 1956POPC   C3B27201  42.690  38.293   8.052
 1956POPC   C4B27202  42.828  38.458   7.663
 1957POPC   NC327203  33.083  26.961   9.627
 1957POPC   PO427204  33.460  26.523   9.286
 1957POPC   GL127205  33.199  26.777   9.127
 1957POPC   GL227206  32.870  26.820   9.179
 1957POPC   C1A27207  33.121  26.709   8.717
 1957POPC   D2A27208  33.170  26.940   8.367
 1957POPC   C3A27209  33.104  26.738   8.007
 1957POPC   C4A27210  33.169  26.412   7.765
 1957POPC   C1B27211  32.808  27.104   8.760
 1957POPC   C2B27212  32.617  27.069   8.328
 1957POPC   C3B27213  32.822  27.153   7.914
 1957POPC   C4B27214  33.115  27.196   7.588
 1958POPC   NC327215  35.553  14.794  10.014
 1958POPC   PO427216  35.128  14.382   9.639
 1958POPC   GL127217  35.085  14.282   9.206
 1958POPC   GL227218  35.394  14.460   9.145
 1958POPC   C1A27219  35.169  14.163   8.765
 1958POPC   D2A27220  35.402  14.245   8.390
 1958POPC   C3A27221  35.187  14.201   8.005
 1958POPC   C4A27222  35.375  14.364   7.682
 1958POPC   C1B27223  35.381  14.629   8.736
 1958POPC   C2B27224  35.237  14.949   8.464
 1958POPC   C3B27225  35.386  14.818   8.072
 1958POPC   C4B27226  35.244  14.872   7.672
 1959POPC   NC327227  32.164   4.024   9.513
 1959POPC   PO427228  32.685   4.438   9.650
 1959POPC   GL127229  32.426   4.446   9.280
 1959POPC   GL227230  32.601   4.624   9.056
 1959POPC   C1A27231  32.273   4.266   8.857
 1959POPC   D2A27232  31.996   4.247   8.474
 1959POPC   C3A27233  32.176   4.089   8.071
 1959POPC   C4A27234  32.046   4.090   7.642
 1959POPC   C1B27235  32.738   4.424   8.708
 1959POPC   C2B27236  32.492   4.380   8.392
 1959POPC   C3B27237  32.378   4.564   8.060
 1959POPC   C4B27238  32.445   4.413   7.663
 1960POPC   NC327239  28.283   0.553   9.614
 1960POPC   PO427240  28.779   0.189   9.764
 1960POPC   GL127241  28.537   0.329   9.259
 1960POPC   GL227242  28.531   0.624   9.091
 1960POPC   C1A27243  28.304   0.151   8.882
 1960POPC   D2A27244  28.354   0.077   8.419
 1960POPC   C3A27245  28.526   0.437   8.190
 1960POPC   C4A27246  28.721   0.486   7.760
 1960POPC   C1B27247  28.379   0.628   8.708
 1960POPC   C2B27248  27.981   0.548   8.567
 1960POPC   C3B27249  27.891   0.628   8.158
 1960POPC   C4B27250  28.181   0.604   7.799
 1961POPC   NC327251  21.156  24.593   9.557
 1961POPC   PO427252  21.200  23.984   9.221
 1961POPC   GL127253  21.282  24.436   9.072
 1961POPC   GL227254  21.104  24.780   9.096
 1961POPC   C1A27255  21.590  24.496   8.754
 1961POPC   D2A27256  21.488  24.242   8.458
 1961POPC   C3A27257  21.512  24.386   8.074
 1961POPC   C4A27258  21.321  24.194   7.748
 1961POPC   C1B27259  21.289  24.897   8.745
 1961POPC   C2B27260  21.176  24.741   8.345
 1961POPC   C3B27261  21.328  24.844   7.965
 1961POPC   C4B27262  21.326  24.707   7.538
 1962POPC   NC327263   5.790  39.001   9.545
 1962POPC   PO427264   6.051  39.701   9.468
 1962POPC   GL127265   6.025  39.350   9.233
 1962POPC   GL227266   5.686  39.273   9.134
 1962POPC   C1A27267   6.133  39.281   8.827
 1962POPC   D2A27268   5.968  39.230   8.437
 1962POPC   C3A27269   6.229  39.121   8.089
 1962POPC   C4A27270   6.364  39.415   7.797
 1962POPC   C1B27271   5.720  38.955   8.820
 1962POPC   C2B27272   5.627  38.832   8.385
 1962POPC   C3B27273   5.720  39.102   8.011
 1962POPC   C4B27274   5.976  39.052   7.631
 1963POPC   NC327275   5.067  10.960   9.629
 1963POPC   PO427276   5.057  10.312   9.743
 1963POPC   GL127277   5.045  10.574   9.289
 1963POPC   GL227278   5.120  10.881   9.114
 1963POPC   C1A27279   5.016  10.494   8.805
 1963POPC   D2A27280   5.171  10.636   8.391
 1963POPC   C3A27281   5.123  10.398   8.015
 1963POPC   C4A27282   4.792  10.354   7.727
 1963POPC   C1B27283   4.927  11.008   8.722
 1963POPC   C2B27284   4.679  10.838   8.388
 1963POPC   C3B27285   4.855  10.817   7.971
 1963POPC   C4B27286   5.070  10.726   7.556
 1964POPC   NC327287  32.100  35.410   9.861
 1964POPC   PO427288  31.521  35.484   9.477
 1964POPC   GL127289  31.567  35.365   9.095
 1964POPC   GL227290  31.278  35.254   8.974
 1964POPC   C1A27291  31.747  35.283   8.713
 1964POPC   D2A27292  31.926  35.386   8.372
 1964POPC   C3A27293  31.728  35.431   7.978
 1964POPC   C4A27294  31.471  35.218   7.681
 1964POPC   C1B27295  31.353  34.978   8.664
 1964POPC   C2B27296  31.392  35.191   8.284
 1964POPC   C3B27297  31.079  35.248   7.986
 1964POPC   C4B27298  31.040  34.883   7.747
 1965POPC   NC327299  14.927  25.011   9.608
 1965POPC   PO427300  15.476  25.419   9.645
 1965POPC   GL127301  15.208  25.360   9.314
 1965POPC   GL227302  15.334  25.056   9.235
 1965POPC   C1A27303  15.262  25.464   8.874
 1965POPC   D2A27304  15.099  25.304   8.476
 1965POPC   C3A27305  15.040  25.496   8.080
 1965POPC   C4A27306  15.016  25.332   7.614
 1965POPC   C1B27307  15.129  24.967   8.882
 1965POPC   C2B27308  15.042  24.799   8.475
 1965POPC   C3B27309  14.978  24.976   8.079
 1965POPC   C4B27310  15.169  24.876   7.712
 1966POPC   NC327311  33.573  29.437   9.399
 1966POPC   PO427312  34.173  29.192   9.506
 1966POPC   GL127313  33.973  29.280   9.105
 1966POPC   GL227314  33.728  29.045   9.105
 1966POPC   C1A27315  33.816  29.285   8.672
 1966POPC   D2A27316  34.022  29.141   8.296
 1966POPC   C3A27317  33.936  29.278   7.898
 1966POPC   C4A27318  34.214  29.303   7.592
 1966POPC   C1B27319  33.552  28.800   8.838
 1966POPC   C2B27320  33.609  28.812   8.424
 1966POPC   C3B27321  33.722  28.802   8.010
 1966POPC   C4B27322  33.550  28.988   7.720
 1967POPC   NC327323  15.058  36.384   9.565
 1967POPC   PO427324  15.508  35.799   9.431
 1967POPC   GL127325  15.208  35.990   9.121
 1967POPC   GL227326  15.053  36.316   9.072
 1967POPC   C1A27327  15.015  35.885   8.757
 1967POPC   D2A27328  15.066  36.099   8.405
 1967POPC   C3A27329  14.986  35.904   8.019
 1967POPC   C4A27330  15.149  36.094   7.650
 1967POPC   C1B27331  14.767  36.438   8.772
 1967POPC   C2B27332  14.595  36.277   8.416
 1967POPC   C3B27333  14.815  36.379   8.039
 1967POPC   C4B27334  14.916  36.633   7.686
 1968POPC   NC327335  33.359  20.867   9.336
 1968POPC   PO427336  32.895  20.373   9.507
 1968POPC   GL127337  33.055  20.373   9.107
 1968POPC   GL227338  32.832  20.635   9.011
 1968POPC   C1A27339  33.140  20.461   8.663
 1968POPC   D2A27340  32.940  20.566   8.293
 1968POPC   C3A27341  33.251  20.627   8.033
 1968POPC   C4A27342  33.034  20.340   7.782
 1968POPC   C1B27343  32.875  20.913   8.647
 1968POPC   C2B27344  33.143  21.085   8.350
 1968POPC   C3B27345  33.031  21.109   7.935
 1968POPC   C4B27346  32.771  20.765   7.815
 1969POPC   NC327347  13.081  40.380   9.495
 1969POPC   PO427348  12.627  39.974   9.267
 1969POPC   GL127349  12.875  40.253   9.063
 1969POPC   GL227350  12.702  40.558   9.017
 1969POPC   C1A27351  13.039  40.239   8.685
 1969POPC   D2A27352  12.899  39.929   8.414
 1969POPC   C3A27353  12.902  40.002   7.994
 1969POPC   C4A27354  13.014  40.368   7.761
 1969POPC   C1B27355  12.523  40.286   8.679
 1969POPC   C2B27356  12.645  40.362   8.251
 1969POPC   C3B27357  12.518  40.314   7.817
 1969POPC   C4B27358  12.643  40.422   7.392
 1970POPC   NC327359  24.120  26.390   9.573
 1970POPC   PO427360  23.475  26.215   9.544
 1970POPC   GL127361  23.721  26.310   9.189
 1970POPC   GL227362  24.007  26.120   9.154
 1970POPC   C1A27363  23.700  26.134   8.771
 1970POPC   D2A27364  23.513  26.117   8.408
 1970POPC   C3A27365  23.706  26.300   8.067
 1970POPC   C4A27366  23.658  26.190   7.656
 1970POPC   C1B27367  24.065  25.771   8.885
 1970POPC   C2B27368  23.804  25.689   8.528
 1970POPC   C3B27369  23.814  25.810   8.107
 1970POPC   C4B27370  24.111  26.022   7.830
 1971POPC   NC327371  19.186  14.816   9.483
 1971POPC   PO427372  18.788  15.301   9.328
 1971POPC   GL127373  18.965  15.043   9.054
 1971POPC   GL227374  19.281  15.200   9.141
 1971POPC   C1A27375  19.220  14.862   8.735
 1971POPC   D2A27376  19.118  14.666   8.347
 1971POPC   C3A27377  19.200  14.926   8.009
 1971POPC   C4A27378  19.021  15.011   7.659
 1971POPC   C1B27379  19.179  15.441   8.774
 1971POPC   C2B27380  19.225  15.296   8.369
 1971POPC   C3B27381  19.155  15.439   7.967
 1971POPC   C4B27382  19.323  15.415   7.562
 1972POPC   NC327383  23.933  10.337   9.633
 1972POPC   PO427384  23.461  10.727   9.632
 1972POPC   GL127385  23.508  10.635   9.160
 1972POPC   GL227386  23.386  10.902   8.930
 1972POPC   C1A27387  23.598  10.504   8.693
 1972POPC   D2A27388  23.793  10.694   8.319
 1972POPC   C3A27389  24.079  10.544   7.981
 1972POPC   C4A27390  24.270  10.817   7.645
 1972POPC   C1B27391  23.330  10.931   8.479
 1972POPC   C2B27392  23.208  10.647   8.169
 1972POPC   C3B27393  23.552  10.476   7.931
 1972POPC   C4B27394  23.770  10.710   7.609
 1973POPC   NC327395  20.399  18.685   9.469
 1973POPC   PO427396  20.718  19.340   9.494
 1973POPC   GL127397  20.714  19.068   9.164
 1973POPC   GL227398  20.370  19.123   9.140
 1973POPC   C1A27399  20.612  19.019   8.708
 1973POPC   D2A27400  20.790  18.933   8.313
 1973POPC   C3A27401  20.641  19.077   7.925
 1973POPC   C4A27402  20.775  18.742   7.644
 1973POPC   C1B27403  20.398  19.459   8.788
 1973POPC   C2B27404  20.421  19.329   8.353
 1973POPC   C3B27405  20.374  19.548   7.986
 1973POPC   C4B27406  20.392  19.363   7.563
 1974POPC   NC327407  33.288  18.477   9.447
 1974POPC   PO427408  32.878  17.909   9.522
 1974POPC   GL127409  33.152  18.013   9.195
 1974POPC   GL227410  33.521  18.025   9.201
 1974POPC   C1A27411  33.138  18.260   8.819
 1974POPC   D2A27412  33.325  18.323   8.409
 1974POPC   C3A27413  33.035  18.515   8.141
 1974POPC   C4A27414  32.940  18.410   7.722
 1974POPC   C1B27415  33.407  17.837   8.770
 1974POPC   C2B27416  33.246  17.810   8.332
 1974POPC   C3B27417  33.263  18.032   7.920
 1974POPC   C4B27418  33.171  18.020   7.453
 1975POPC   NC327419   9.698  25.585   9.452
 1975POPC   PO427420   9.901  24.922   9.581
 1975POPC   GL127421   9.648  25.104   9.185
 1975POPC   GL227422   9.919  25.282   9.064
 1975POPC   C1A27423   9.559  25.244   8.680
 1975POPC   D2A27424   9.993  25.269   8.415
 1975POPC   C3A27425   9.993  25.397   7.988
 1975POPC   C4A27426   9.715  25.436   7.645
 1975POPC   C1B27427   9.905  24.920   8.775
 1975POPC   C2B27428   9.679  24.866   8.355
 1975POPC   C3B27429   9.498  25.047   8.003
 1975POPC   C4B27430   9.596  24.941   7.601
 1976POPC   NC327431  30.063  12.227   9.517
 1976POPC   PO427432  29.392  12.289   9.286
 1976POPC   GL127433  29.723  12.110   9.046
 1976POPC   GL227434  30.081  12.138   9.028
 1976POPC   C1A27435  29.738  11.876   8.686
 1976POPC   D2A27436  29.512  11.682   8.339
 1976POPC   C3A27437  29.704  11.925   7.972
 1976POPC   C4A27438  29.900  11.901   7.540
 1976POPC   C1B27439  30.215  12.114   8.619
 1976POPC   C2B27440  30.146  12.358   8.241
 1976POPC   C3B27441  30.067  12.304   7.799
 1976POPC   C4B27442  30.111  12.326   7.314
 1977POPC   NC327443   9.291  28.758   9.944
 1977POPC   PO427444   8.926  28.533   9.445
 1977POPC   GL127445   8.942  28.144   9.214
 1977POPC   GL227446   8.590  27.966   9.200
 1977POPC   C1A27447   9.120  28.246   8.819
 1977POPC   D2A27448   8.882  28.388   8.489
 1977POPC   C3A27449   9.033  28.565   8.105
 1977POPC   C4A27450   9.110  28.421   7.694
 1977POPC   C1B27451   8.722  27.920   8.769
 1977POPC   C2B27452   8.564  27.788   8.362
 1977POPC   C3B27453   8.531  27.824   7.885
 1977POPC   C4B27454   8.767  28.047   7.564
 1978POPC   NC327455  41.626  16.202   9.549
 1978POPC   PO427456  41.742  15.520   9.726
 1978POPC   GL127457  41.565  15.731   9.292
 1978POPC   GL227458  41.716  16.044   9.082
 1978POPC   C1A27459  41.405  15.757   8.826
 1978POPC   D2A27460  41.607  15.874   8.434
 1978POPC   C3A27461  41.447  15.800   8.018
 1978POPC   C4A27462  41.744  15.855   7.679
 1978POPC   C1B27463  41.916  16.201   8.712
 1978POPC   C2B27464  41.726  16.416   8.388
 1978POPC   C3B27465  41.657  16.254   8.027
 1978POPC   C4B27466  41.773  16.376   7.673
 1979POPC   NC327467  35.472  30.410   9.392
 1979POPC   PO427468  35.220  29.844   9.608
 1979POPC   GL127469  35.176  29.891   9.184
 1979POPC   GL227470  35.523  29.966   9.174
 1979POPC   C1A27471  35.338  29.738   8.770
 1979POPC   D2A27472  35.433  29.694   8.348
 1979POPC   C3A27473  35.334  29.876   7.935
 1979POPC   C4A27474  35.476  29.782   7.496
 1979POPC   C1B27475  35.673  30.136   8.787
 1979POPC   C2B27476  35.807  30.044   8.358
 1979POPC   C3B27477  35.686  30.234   7.988
 1979POPC   C4B27478  35.449  30.287   7.607
 1980POPC   NC327479  33.392   9.471   9.842
 1980POPC   PO427480  33.751   8.934   9.722
 1980POPC   GL127481  33.655   8.899   9.283
 1980POPC   GL227482  33.978   8.825   9.236
 1980POPC   C1A27483  33.657   9.106   8.838
 1980POPC   D2A27484  33.484   9.225   8.419
 1980POPC   C3A27485  33.607   9.044   8.061
 1980POPC   C4A27486  33.816   9.092   7.686
 1980POPC   C1B27487  33.962   8.706   8.808
 1980POPC   C2B27488  33.975   8.946   8.421
 1980POPC   C3B27489  34.065   8.803   8.017
 1980POPC   C4B27490  34.119   8.636   7.609
 1981POPC   NC327491   0.264   4.425   9.520
 1981POPC   PO427492   0.861   4.190   9.492
 1981POPC   GL127493   0.676   4.432   9.162
 1981POPC   GL227494   0.683   4.126   8.978
 1981POPC   C1A27495   0.460   4.549   8.752
 1981POPC   D2A27496   0.304   4.380   8.339
 1981POPC   C3A27497   0.477   4.606   7.977
 1981POPC   C4A27498   0.697   4.503   7.585
 1981POPC   C1B27499   0.301   4.041   8.751
 1981POPC   C2B27500   0.285   3.822   8.354
 1981POPC   C3B27501   0.126   3.890   7.955
 1981POPC   C4B27502   0.300   4.205   7.699
 1982POPC   NC327503   7.226   3.411   9.460
 1982POPC   PO427504   7.870   3.810   9.467
 1982POPC   GL127505   7.629   3.535   9.205
 1982POPC   GL227506   7.750   3.367   8.982
 1982POPC   C1A27507   7.306   3.536   8.831
 1982POPC   D2A27508   7.454   3.612   8.425
 1982POPC   C3A27509   7.307   3.419   8.056
 1982POPC   C4A27510   7.162   3.630   7.709
 1982POPC   C1B27511   7.731   3.848   8.830
 1982POPC   C2B27512   7.698   4.065   8.454
 1982POPC   C3B27513   7.825   4.023   8.025
 1982POPC   C4B27514   7.664   3.672   7.795
 1983POPC   NC327515  39.435   7.277   9.602
 1983POPC   PO427516  38.839   7.536   9.576
 1983POPC   GL127517  38.971   7.308   9.225
 1983POPC   GL227518  39.282   7.376   9.140
 1983POPC   C1A27519  38.946   7.170   8.788
 1983POPC   D2A27520  39.118   7.314   8.391
 1983POPC   C3A27521  39.105   7.121   8.002
 1983POPC   C4A27522  38.816   7.211   7.650
 1983POPC   C1B27523  39.470   7.378   8.754
 1983POPC   C2B27524  39.449   7.702   8.424
 1983POPC   C3B27525  39.379   7.578   8.000
 1983POPC   C4B27526  39.697   7.311   7.834
 1984POPC   NC327527  13.519  21.220   9.418
 1984POPC   PO427528  14.040  21.620   9.570
 1984POPC   GL127529  13.884  21.504   9.084
 1984POPC   GL227530  13.648  21.243   8.919
 1984POPC   C1A27531  13.839  21.559   8.572
 1984POPC   D2A27532  13.857  21.439   8.115
 1984POPC   C3A27533  13.730  21.644   7.701
 1984POPC   C4A27534  13.438  21.774   7.338
 1984POPC   C1B27535  13.639  21.111   8.452
 1984POPC   C2B27536  13.455  21.141   8.025
 1984POPC   C3B27537  13.339  21.321   7.608
 1984POPC   C4B27538  13.137  21.320   7.197
 1985POPC   NC327539  30.138  19.643   9.393
 1985POPC   PO427540  29.747  20.146   9.513
 1985POPC   GL127541  29.945  20.048   9.124
 1985POPC   GL227542  29.735  19.730   9.048
 1985POPC   C1A27543  29.931  20.015   8.686
 1985POPC   D2A27544  29.585  19.832   8.511
 1985POPC   C3A27545  29.619  19.827   8.063
 1985POPC   C4A27546  30.027  19.938   7.891
 1985POPC   C1B27547  30.028  19.529   8.723
 1985POPC   C2B27548  30.241  19.578   8.327
 1985POPC   C3B27549  30.175  19.431   7.940
 1985POPC   C4B27550  29.871  19.499   7.656
 1986POPC   NC327551  10.939   4.495   9.509
 1986POPC   PO427552  10.314   4.364   9.730
 1986POPC   GL127553  10.538   4.198   9.343
 1986POPC   GL227554  10.500   4.539   9.253
 1986POPC   C1A27555  10.532   4.210   8.874
 1986POPC   D2A27556  10.623   4.446   8.503
 1986POPC   C3A27557  10.611   4.173   8.155
 1986POPC   C4A27558  10.751   4.211   7.748
 1986POPC   C1B27559  10.421   4.744   8.878
 1986POPC   C2B27560  10.134   4.632   8.554
 1986POPC   C3B27561  10.277   4.634   8.125
 1986POPC   C4B27562  10.199   4.327   7.795
 1987POPC   NC327563  27.837   9.773   9.455
 1987POPC   PO427564  27.179  10.043   9.462
 1987POPC   GL127565  27.506  10.002   9.150
 1987POPC   GL227566  27.484   9.631   9.130
 1987POPC   C1A27567  27.806   9.951   8.786
 1987POPC   D2A27568  27.646   9.879   8.341
 1987POPC   C3A27569  27.901   9.755   8.007
 1987POPC   C4A27570  27.677   9.682   7.617
 1987POPC   C1B27571  27.378   9.649   8.722
 1987POPC   C2B27572  27.523   9.354   8.433
 1987POPC   C3B27573  27.472   9.479   8.050
 1987POPC   C4B27574  27.246   9.829   7.893
 1988POPC   NC327575   5.364  19.770   9.822
 1988POPC   PO427576   4.728  19.972   9.644
 1988POPC   GL127577   4.894  19.871   9.200
 1988POPC   GL227578   5.028  19.579   9.069
 1988POPC   C1A27579   4.875  19.901   8.724
 1988POPC   D2A27580   4.874  20.132   8.384
 1988POPC   C3A27581   4.806  19.871   8.029
 1988POPC   C4A27582   4.792  20.037   7.622
 1988POPC   C1B27583   5.308  19.633   8.708
 1988POPC   C2B27584   5.221  19.762   8.328
 1988POPC   C3B27585   5.309  19.599   7.953
 1988POPC   C4B27586   5.421  19.830   7.604
 1989POPC   NC327587   7.520  13.896   9.417
 1989POPC   PO427588   7.121  13.370   9.405
 1989POPC   GL127589   7.355  13.510   9.094
 1989POPC   GL227590   7.736  13.444   9.188
 1989POPC   C1A27591   7.208  13.732   8.721
 1989POPC   D2A27592   7.269  13.656   8.288
 1989POPC   C3A27593   7.264  13.744   7.878
 1989POPC   C4A27594   7.426  13.666   7.459
 1989POPC   C1B27595   7.719  13.722   8.822
 1989POPC   C2B27596   7.785  13.815   8.424
 1989POPC   C3B27597   7.738  13.719   8.054
 1989POPC   C4B27598   7.899  13.670   7.684
 1990POPC   NC327599  29.910  20.596   9.541
 1990POPC   PO427600  29.482  21.029   9.359
 1990POPC   GL127601  29.715  20.655   9.086
 1990POPC   GL227602  30.035  20.832   9.077
 1990POPC   C1A27603  30.026  20.501   8.697
 1990POPC   D2A27604  29.989  20.291   8.252
 1990POPC   C3A27605  30.013  20.460   7.820
 1990POPC   C4A27606  29.872  20.386   7.374
 1990POPC   C1B27607  29.747  20.931   8.686
 1990POPC   C2B27608  29.844  20.772   8.301
 1990POPC   C3B27609  29.687  20.805   7.949
 1990POPC   C4B27610  29.861  20.889   7.536
 1991POPC   NC327611  43.534  36.539   9.857
 1991POPC   PO427612  43.684  35.944   9.524
 1991POPC   GL127613  43.675  36.097   9.114
 1991POPC   GL227614  43.926  36.368   9.145
 1991POPC   C1A27615  43.544  36.072   8.692
 1991POPC   D2A27616  43.828  36.179   8.362
 1991POPC   C3A27617  44.153  35.965   8.174
 1991POPC   C4A27618  44.200  36.097   7.754
 1991POPC   C1B27619  43.783  36.540   8.736
 1991POPC   C2B27620  43.795  36.756   8.335
 1991POPC   C3B27621  43.935  36.514   7.972
 1991POPC   C4B27622  43.846  36.414   7.565
 1992POPC   NC327623  27.983  29.532   9.405
 1992POPC   PO427624  27.503  29.067   9.679
 1992POPC   GL127625  27.693  29.114   9.250
 1992POPC   GL227626  28.064  29.110   9.136
 1992POPC   C1A27627  27.582  29.061   8.789
 1992POPC   D2A27628  27.505  28.735   8.450
 1992POPC   C3A27629  27.503  28.849   7.996
 1992POPC   C4A27630  27.614  29.260   7.824
 1992POPC   C1B27631  28.036  28.850   8.769
 1992POPC   C2B27632  27.948  28.988   8.373
 1992POPC   C3B27633  28.094  29.194   8.017
 1992POPC   C4B27634  28.151  28.931   7.696
 1993POPC   NC327635  24.007  16.743   9.663
 1993POPC   PO427636  24.659  16.875   9.504
 1993POPC   GL127637  24.555  16.668   9.140
 1993POPC   GL227638  24.266  16.463   9.259
 1993POPC   C1A27639  24.549  16.840   8.727
 1993POPC   D2A27640  24.329  16.718   8.375
 1993POPC   C3A27641  24.292  16.874   7.979
 1993POPC   C4A27642  24.660  17.036   7.803
 1993POPC   C1B27643  24.146  16.471   8.813
 1993POPC   C2B27644  23.870  16.553   8.468
 1993POPC   C3B27645  24.034  16.409   8.073
 1993POPC   C4B27646  24.452  16.390   7.885
 1994POPC   NC327647  41.791  32.880   9.580
 1994POPC   PO427648  41.331  33.358   9.483
 1994POPC   GL127649  41.564  33.070   9.134
 1994POPC   GL227650  41.741  32.709   9.106
 1994POPC   C1A27651  41.591  32.979   8.666
 1994POPC   D2A27652  41.291  33.134   8.349
 1994POPC   C3A27653  41.215  32.945   7.945
 1994POPC   C4A27654  41.373  33.245   7.635
 1994POPC   C1B27655  41.438  32.500   8.801
 1994POPC   C2B27656  41.337  32.623   8.369
 1994POPC   C3B27657  41.621  32.623   8.016
 1994POPC   C4B27658  41.584  32.790   7.584
 1995POPC   NC327659   3.910  36.562   9.475
 1995POPC   PO427660   3.229  36.642   9.608
 1995POPC   GL127661   3.355  36.896   9.240
 1995POPC   GL227662   3.674  37.021   9.259
 1995POPC   C1A27663   3.305  36.967   8.815
 1995POPC   D2A27664   3.404  36.611   8.540
 1995POPC   C3A27665   3.480  36.646   8.086
 1995POPC   C4A27666   3.349  36.922   7.753
 1995POPC   C1B27667   3.795  36.801   8.861
 1995POPC   C2B27668   3.924  36.740   8.428
 1995POPC   C3B27669   3.872  36.961   8.026
 1995POPC   C4B27670   3.821  36.786   7.623
 1996POPC   NC327671  20.443  42.209   9.796
 1996POPC   PO427672  20.540  42.820   9.630
 1996POPC   GL127673  20.760  42.558   9.312
 1996POPC   GL227674  20.552  42.267   9.291
 1996POPC   C1A27675  20.784  42.640   8.849
 1996POPC   D2A27676  20.522  42.566   8.460
 1996POPC   C3A27677  20.792  42.504   8.089
 1996POPC   C4A27678  20.745  42.292   7.677
 1996POPC   C1B27679  20.534  42.178   8.849
 1996POPC   C2B27680  20.689  42.079   8.418
 1996POPC   C3B27681  20.408  42.147   8.069
 1996POPC   C4B27682  20.250  42.428   7.752
 1997POPC   NC327683  23.230   4.699   9.380
 1997POPC   PO427684  22.705   4.395   9.596
 1997POPC   GL127685  22.926   4.220   9.200
 1997POPC   GL227686  23.269   4.083   9.135
 1997POPC   C1A27687  22.798   4.068   8.772
 1997POPC   D2A27688  22.983   4.139   8.357
 1997POPC   C3A27689  22.835   4.074   7.920
 1997POPC   C4A27690  22.731   4.439   7.713
 1997POPC   C1B27691  23.184   4.416   8.792
 1997POPC   C2B27692  23.123   4.628   8.384
 1997POPC   C3B27693  23.187   4.443   7.982
 1997POPC   C4B27694  23.239   4.331   7.556
 1998POPC   NC327695   6.034   8.362   9.521
 1998POPC   PO427696   5.504   7.964   9.457
 1998POPC   GL127697   5.885   7.896   9.235
 1998POPC   GL227698   6.250   7.940   9.228
 1998POPC   C1A27699   5.925   7.812   8.817
 1998POPC   D2A27700   5.678   7.940   8.511
 1998POPC   C3A27701   5.845   8.016   8.153
 1998POPC   C4A27702   5.627   8.133   7.824
 1998POPC   C1B27703   6.153   8.262   8.884
 1998POPC   C2B27704   5.846   8.438   8.576
 1998POPC   C3B27705   5.850   8.529   8.137
 1998POPC   C4B27706   6.095   8.375   7.818
 1999POPC   NC327707  26.382   3.408   9.525
 1999POPC   PO427708  25.753   3.725   9.477
 1999POPC   GL127709  25.890   3.550   9.102
 1999POPC   GL227710  26.057   3.249   9.163
 1999POPC   C1A27711  25.931   3.396   8.687
 1999POPC   D2A27712  25.736   3.358   8.281
 1999POPC   C3A27713  25.904   3.691   8.030
 1999POPC   C4A27714  26.093   3.789   7.622
 1999POPC   C1B27715  26.365   3.100   8.879
 1999POPC   C2B27716  26.459   3.240   8.460
 1999POPC   C3B27717  26.223   3.309   8.079
 1999POPC   C4B27718  26.012   3.245   7.658
 2000POPC   NC327719  24.637  44.991   9.974
 2000POPC   PO427720  24.823   0.490   9.572
 2000POPC   GL127721  24.757   0.314   9.154
 2000POPC   GL227722  24.676   0.674   9.123
 2000POPC   C1A27723  24.431   0.364   8.815
 2000POPC   D2A27724  24.333   0.536   8.428
 2000POPC   C3A27725  24.359   0.241   8.142
 2000POPC   C4A27726  24.474   0.304   7.737
 2000POPC   C1B27727  24.577   0.876   8.743
 2000POPC   C2B27728  24.501   1.025   8.327
 2000POPC   C3B27729  24.514   0.778   7.947
 2000POPC   C4B27730  24.612   0.760   7.473
 2001POPC   NC327731  19.863   2.391   9.279
 2001POPC   PO427732  19.677   3.000   9.524
 2001POPC   GL127733  19.821   3.019   9.126
 2001POPC   GL227734  19.581   2.773   9.068
 2001POPC   C1A27735  19.684   3.062   8.676
 2001POPC   D2A27736  19.678   2.822   8.310
 2001POPC   C3A27737  20.081   2.798   8.143
 2001POPC   C4A27738  20.157   3.080   7.832
 2001POPC   C1B27739  19.441   2.564   8.698
 2001POPC   C2B27740  19.457   2.345   8.309
 2001POPC   C3B27741  19.798   2.377   8.084
 2001POPC   C4B27742  19.727   2.689   7.795
 2002POPC   NC327743  19.490  26.101   9.599
 2002POPC   PO427744  20.062  25.791   9.448
 2002POPC   GL127745  19.832  26.081   9.203
 2002POPC   GL227746  20.054  26.322   9.132
 2002POPC   C1A27747  19.698  26.121   8.782
 2002POPC   D2A27748  19.695  25.858   8.448
 2002POPC   C3A27749  19.774  26.040   8.098
 2002POPC   C4A27750  19.777  26.232   7.729
 2002POPC   C1B27751  20.215  26.114   8.794
 2002POPC   C2B27752  20.113  26.288   8.402
 2002POPC   C3B27753  20.248  26.210   7.977
 2002POPC   C4B27754  20.189  26.069   7.513
 2003POPC   NC327755   5.713  43.734   9.490
 2003POPC   PO427756   6.089  44.307   9.488
 2003POPC   GL127757   5.887  44.103   9.158
 2003POPC   GL227758   5.590  43.919   9.033
 2003POPC   C1A27759   6.003  43.941   8.750
 2003POPC   D2A27760   5.738  44.013   8.406
 2003POPC   C3A27761   6.008  44.127   8.089
 2003POPC   C4A27762   5.976  43.952   7.701
 2003POPC   C1B27763   5.367  43.635   8.773
 2003POPC   C2B27764   5.386  43.578   8.332
 2003POPC   C3B27765   5.663  43.690   7.992
 2003POPC   C4B27766   5.645  43.570   7.532
 2004POPC   NC327767  34.034   1.844   9.521
 2004POPC   PO427768  33.458   2.207   9.379
 2004POPC   GL127769  33.649   2.087   9.019
 2004POPC   GL227770  33.977   1.992   9.039
 2004POPC   C1A27771  33.655   1.879   8.643
 2004POPC   D2A27772  33.626   1.605   8.292
 2004POPC   C3A27773  33.448   1.870   7.995
 2004POPC   C4A27774  33.667   2.165   7.795
 2004POPC   C1B27775  34.171   2.162   8.693
 2004POPC   C2B27776  34.081   1.924   8.333
 2004POPC   C3B27777  34.044   1.830   7.918
 2004POPC   C4B27778  34.254   2.143   7.633
 2005POPC   NC327779  26.823  22.453   9.339
 2005POPC   PO427780  26.793  23.047   9.701
 2005POPC   GL127781  26.875  22.990   9.206
 2005POPC   GL227782  26.600  22.798   9.023
 2005POPC   C1A27783  26.721  23.230   8.797
 2005POPC   D2A27784  26.591  23.077   8.384
 2005POPC   C3A27785  26.912  22.937   8.104
 2005POPC   C4A27786  27.008  23.235   7.787
 2005POPC   C1B27787  26.388  22.704   8.672
 2005POPC   C2B27788  26.529  22.567   8.272
 2005POPC   C3B27789  26.422  22.809   7.939
 2005POPC   C4B27790  26.609  22.905   7.535
 2006POPC   NC327791   9.272  10.293   9.630
 2006POPC   PO427792   8.689  10.436   9.574
 2006POPC   GL127793   8.931  10.569   9.212
 2006POPC   GL227794   9.266  10.460   9.144
 2006POPC   C1A27795   8.939  10.662   8.786
 2006POPC   D2A27796   8.823  10.455   8.419
 2006POPC   C3A27797   8.893  10.720   8.116
 2006POPC   C4A27798   8.847  10.725   7.711
 2006POPC   C1B27799   9.436  10.553   8.734
 2006POPC   C2B27800   9.327  10.486   8.317
 2006POPC   C3B27801   9.283  10.469   7.874
 2006POPC   C4B27802   9.459  10.202   7.547
 2007POPC   NC327803   8.805  33.414   9.386
 2007POPC   PO427804   9.005  32.798   9.406
 2007POPC   GL127805   8.808  32.989   9.091
 2007POPC   GL227806   9.048  33.259   8.976
 2007POPC   C1A27807   8.670  32.763   8.752
 2007POPC   D2A27808   8.880  32.708   8.368
 2007POPC   C3A27809   8.934  33.044   8.113
 2007POPC   C4A27810   8.837  33.241   7.736
 2007POPC   C1B27811   9.190  32.900   8.750
 2007POPC   C2B27812   9.400  32.807   8.372
 2007POPC   C3B27813   9.342  32.780   7.964
 2007POPC   C4B27814   9.262  33.043   7.579
 2008POPC   NC327815  23.561   7.923   9.397
 2008POPC   PO427816  24.136   8.226   9.502
 2008POPC   GL127817  23.972   8.210   9.107
 2008POPC   GL227818  23.629   8.352   9.126
 2008POPC   C1A27819  23.862   7.947   8.761
 2008POPC   D2A27820  23.623   8.005   8.384
 2008POPC   C3A27821  23.868   7.960   8.029
 2008POPC   C4A27822  24.058   8.237   7.759
 2008POPC   C1B27823  23.361   8.251   8.772
 2008POPC   C2B27824  23.370   8.473   8.365
 2008POPC   C3B27825  23.533   8.358   7.988
 2008POPC   C4B27826  23.441   7.976   7.756
 2009POPC   NC327827  24.956  26.816   9.527
 2009POPC   PO427828  25.571  27.077   9.529
 2009POPC   GL127829  25.423  26.888   9.139
 2009POPC   GL227830  25.073  26.737   9.064
 2009POPC   C1A27831  25.268  27.080   8.752
 2009POPC   D2A27832  25.037  26.949   8.430
 2009POPC   C3A27833  25.151  27.103   8.026
 2009POPC   C4A27834  24.885  27.189   7.677
 2009POPC   C1B27835  25.265  26.550   8.763
 2009POPC   C2B27836  25.404  26.574   8.412
 2009POPC   C3B27837  25.276  26.599   8.038
 2009POPC   C4B27838  25.450  26.622   7.637
 2010POPC   NC327839  43.913  40.357   9.384
 2010POPC   PO427840  43.667  39.702   9.232
 2010POPC   GL127841  43.910  39.966   9.076
 2010POPC   GL227842  43.653  40.179   9.007
 2010POPC   C1A27843  44.188  39.893   8.817
 2010POPC   D2A27844  44.098  39.929   8.405
 2010POPC   C3A27845  43.792  39.796   8.115
 2010POPC   C4A27846  43.839  40.031   7.724
 2010POPC   C1B27847  43.637  40.053   8.619
 2010POPC   C2B27848  43.705  40.270   8.283
 2010POPC   C3B27849  43.438  40.168   8.002
 2010POPC   C4B27850  43.356  40.236   7.596
 2011POPC   NC327851  31.034  21.128   9.623
 2011POPC   PO427852  30.402  20.697   9.570
 2011POPC   GL127853  30.689  20.742   9.180
 2011POPC   GL227854  30.799  20.410   9.052
 2011POPC   C1A27855  30.967  20.834   8.827
 2011POPC   D2A27856  31.028  20.745   8.368
 2011POPC   C3A27857  30.809  20.826   7.951
 2011POPC   C4A27858  30.451  20.746   7.653
 2011POPC   C1B27859  30.440  20.151   8.888
 2011POPC   C2B27860  30.394  20.050   8.439
 2011POPC   C3B27861  30.459  20.244   7.989
 2011POPC   C4B27862  30.367  20.267   7.519
 2012POPC   NC327863  37.906  43.564   9.536
 2012POPC   PO427864  37.583  44.161   9.611
 2012POPC   GL127865  37.649  44.046   9.176
 2012POPC   GL227866  37.586  43.702   9.168
 2012POPC   C1A27867  37.742  43.893   8.744
 2012POPC   D2A27868  37.872  43.961   8.376
 2012POPC   C3A27869  37.612  43.802   8.089
 2012POPC   C4A27870  37.696  43.916   7.712
 2012POPC   C1B27871  37.535  43.427   8.830
 2012POPC   C2B27872  37.351  43.504   8.443
 2012POPC   C3B27873  37.266  43.386   8.054
 2012POPC   C4B27874  37.403  43.507   7.652
 2013POPC   NC327875   7.215  27.268   9.467
 2013POPC   PO427876   7.198  27.920   9.581
 2013POPC   GL127877   7.391  27.714   9.194
 2013POPC   GL227878   7.646  27.485   9.154
 2013POPC   C1A27879   7.375  27.583   8.737
 2013POPC   D2A27880   7.496  27.747   8.348
 2013POPC   C3A27881   7.275  27.607   7.984
 2013POPC   C4A27882   7.274  27.649   7.546
 2013POPC   C1B27883   7.841  27.292   8.835
 2013POPC   C2B27884   7.751  27.292   8.416
 2013POPC   C3B27885   7.793  27.495   8.030
 2013POPC   C4B27886   7.669  27.382   7.679
 2014POPC   NC327887  19.526   7.562   9.432
 2014POPC   PO427888  20.020   7.199   9.796
 2014POPC   GL127889  19.960   7.306   9.300
 2014POPC   GL227890  19.652   7.156   9.153
 2014POPC   C1A27891  20.071   7.569   8.879
 2014POPC   D2A27892  20.189   7.671   8.399
 2014POPC   C3A27893  19.917   7.653   7.999
 2014POPC   C4A27894  19.837   7.698   7.540
 2014POPC   C1B27895  19.631   7.365   8.755
 2014POPC   C2B27896  19.752   7.286   8.336
 2014POPC   C3B27897  19.573   7.290   7.926
 2014POPC   C4B27898  19.912   7.209   7.695
 2015POPC   NC327899  42.605  11.659   9.586
 2015POPC   PO427900  42.034  11.880   9.557
 2015POPC   GL127901  42.127  12.128   9.190
 2015POPC   GL227902  42.487  12.102   9.275
 2015POPC   C1A27903  42.026  12.244   8.745
 2015POPC   D2A27904  42.266  12.348   8.379
 2015POPC   C3A27905  42.113  12.324   7.985
 2015POPC   C4A27906  42.045  11.916   7.825
 2015POPC   C1B27907  42.519  12.007   8.848
 2015POPC   C2B27908  42.659  12.072   8.448
 2015POPC   C3B27909  42.530  12.019   8.018
 2015POPC   C4B27910  42.565  11.987   7.578
 2016POPC   NC327911   3.071  20.775   9.872
 2016POPC   PO427912   2.511  20.511   9.625
 2016POPC   GL127913   2.623  20.691   9.256
 2016POPC   GL227914   2.672  20.408   9.118
 2016POPC   C1A27915   2.711  20.829   8.834
 2016POPC   D2A27916   3.049  20.901   8.572
 2016POPC   C3A27917   2.956  20.670   8.204
 2016POPC   C4A27918   2.661  20.844   7.938
 2016POPC   C1B27919   2.464  20.351   8.724
 2016POPC   C2B27920   2.468  20.482   8.297
 2016POPC   C3B27921   2.652  20.328   7.900
 2016POPC   C4B27922   2.630  20.294   7.464
 2017POPC   NC327923   2.101  26.457   9.413
 2017POPC   PO427924   1.809  25.959   9.386
 2017POPC   GL127925   1.839  26.067   8.975
 2017POPC   GL227926   1.829  26.427   8.997
 2017POPC   C1A27927   2.126  25.841   8.693
 2017POPC   D2A27928   2.315  25.630   8.339
 2017POPC   C3A27929   2.064  25.756   8.019
 2017POPC   C4A27930   1.916  26.148   7.875
 2017POPC   C1B27931   2.137  26.374   8.666
 2017POPC   C2B27932   2.322  26.155   8.295
 2017POPC   C3B27933   2.433  26.163   7.848
 2017POPC   C4B27934   2.214  26.312   7.452
 2018POPC   NC327935  36.061  34.636   9.667
 2018POPC   PO427936  36.363  34.106   9.737
 2018POPC   GL127937  36.247  34.412   9.268
 2018POPC   GL227938  35.944  34.680   9.177
 2018POPC   C1A27939  36.270  34.523   8.801
 2018POPC   D2A27940  36.459  34.529   8.363
 2018POPC   C3A27941  36.289  34.364   7.953
 2018POPC   C4A27942  36.368  34.431   7.484
 2018POPC   C1B27943  35.782  34.670   8.746
 2018POPC   C2B27944  35.969  34.736   8.355
 2018POPC   C3B27945  36.048  34.821   7.936
 2018POPC   C4B27946  35.892  34.554   7.625
 2019POPC   NC327947  17.042  17.830   9.307
 2019POPC   PO427948  16.637  18.307   9.627
 2019POPC   GL127949  16.702  18.207   9.191
 2019POPC   GL227950  17.019  18.273   9.062
 2019POPC   C1A27951  16.526  18.106   8.793
 2019POPC   D2A27952  16.434  18.324   8.441
 2019POPC   C3A27953  16.732  18.180   8.166
 2019POPC   C4A27954  16.700  18.185   7.725
 2019POPC   C1B27955  16.987  18.262   8.630
 2019POPC   C2B27956  16.970  18.583   8.342
 2019POPC   C3B27957  16.804  18.639   7.960
 2019POPC   C4B27958  16.971  18.577   7.557
 2020POPC   NC327959   7.885  35.181   9.667
 2020POPC   PO427960   8.383  35.540   9.372
 2020POPC   GL127961   8.399  35.275   9.073
 2020POPC   GL227962   8.131  35.142   9.128
 2020POPC   C1A27963   8.184  35.442   8.698
 2020POPC   D2A27964   7.981  35.314   8.363
 2020POPC   C3A27965   8.252  35.190   8.070
 2020POPC   C4A27966   8.169  35.387   7.706
 2020POPC   C1B27967   7.995  34.965   8.762
 2020POPC   C2B27968   7.777  34.850   8.395
 2020POPC   C3B27969   7.791  35.014   7.962
 2020POPC   C4B27970   8.028  34.938   7.584
 2021POPC   NC327971  37.938  40.879   9.764
 2021POPC   PO427972  37.351  40.830   9.489
 2021POPC   GL127973  37.724  40.926   9.275
 2021POPC   GL227974  37.898  40.626   9.287
 2021POPC   C1A27975  37.792  41.019   8.853
 2021POPC   D2A27976  37.506  40.995   8.503
 2021POPC   C3A27977  37.666  40.952   8.085
 2021POPC   C4A27978  37.500  40.873   7.679
 2021POPC   C1B27979  38.077  40.574   8.886
 2021POPC   C2B27980  37.963  40.711   8.470
 2021POPC   C3B27981  38.138  40.627   8.091
 2021POPC   C4B27982  38.002  40.758   7.724
 2022POPC   NC327983  29.365  28.607   9.435
 2022POPC   PO427984  28.717  28.484   9.347
 2022POPC   GL127985  29.060  28.407   9.043
 2022POPC   GL227986  29.365  28.181   9.113
 2022POPC   C1A27987  28.990  28.539   8.605
 2022POPC   D2A27988  29.013  28.689   8.180
 2022POPC   C3A27989  29.003  28.318   7.968
 2022POPC   C4A27990  28.799  28.306   7.615
 2022POPC   C1B27991  29.489  28.409   8.742
 2022POPC   C2B27992  29.407  28.205   8.365
 2022POPC   C3B27993  29.484  28.071   7.963
 2022POPC   C4B27994  29.433  28.402   7.704
 2023POPC   NC327995  23.177  36.942   9.629
 2023POPC   PO427996  22.690  36.472   9.513
 2023POPC   GL127997  22.868  36.767   9.254
 2023POPC   GL227998  23.146  36.565   9.215
 2023POPC   C1A27999  22.889  37.044   8.891
 2023POPC   D2A28000  23.041  36.920   8.472
 2023POPC   C3A28001  22.820  37.010   8.100
 2023POPC   C4A28002  23.046  36.974   7.724
 2023POPC   C1B28003  22.869  36.535   8.802
 2023POPC   C2B28004  22.754  36.481   8.339
 2023POPC   C3B28005  22.807  36.530   7.889
 2023POPC   C4B28006  22.787  36.661   7.404
 2024POPC   NC328007  37.258   2.084   9.674
 2024POPC   PO428008  36.806   1.602   9.657
 2024POPC   GL128009  36.973   1.802   9.270
 2024POPC   GL228010  37.031   1.557   9.074
 2024POPC   C1A28011  36.998   2.094   8.886
 2024POPC   D2A28012  37.201   2.150   8.472
 2024POPC   C3A28013  36.910   2.202   8.129
 2024POPC   C4A28014  37.100   2.112   7.738
 2024POPC   C1B28015  36.678   1.703   8.844
 2024POPC   C2B28016  36.766   1.771   8.428
 2024POPC   C3B28017  36.965   1.713   8.048
 2024POPC   C4B28018  36.724   1.783   7.726
 2025POPC   NC328019  20.250  23.305   9.506
 2025POPC   PO428020  20.918  23.188   9.453
 2025POPC   GL128021  20.782  23.096   9.062
 2025POPC   GL228022  20.440  23.187   9.044
 2025POPC   C1A28023  20.824  22.949   8.670
 2025POPC   D2A28024  20.795  23.128   8.298
 2025POPC   C3A28025  20.663  22.879   7.943
 2025POPC   C4A28026  20.904  22.644   7.693
 2025POPC   C1B28027  20.325  22.870   8.762
 2025POPC   C2B28028  20.351  22.816   8.358
 2025POPC   C3B28029  20.137  22.720   8.012
 2025POPC   C4B28030  20.230  22.960   7.649
 2026POPC   NC328031  22.098   3.185   9.566
 2026POPC   PO428032  22.083   3.842   9.664
 2026POPC   GL128033  21.982   3.534   9.247
 2026POPC   GL228034  22.294   3.421   9.122
 2026POPC   C1A28035  21.865   3.499   8.830
 2026POPC   D2A28036  22.092   3.683   8.479
 2026POPC   C3A28037  21.964   3.546   8.078
 2026POPC   C4A28038  22.111   3.470   7.690
 2026POPC   C1B28039  22.246   3.190   8.690
 2026POPC   C2B28040  22.394   3.301   8.262
 2026POPC   C3B28041  22.487   3.140   7.845
 2026POPC   C4B28042  22.418   3.176   7.401
 2027POPC   NC328043  12.523  12.204   9.267
 2027POPC   PO428044  11.942  12.364   9.536
 2027POPC   GL128045  12.043  12.143   9.090
 2027POPC   GL228046  12.285  12.300   8.840
 2027POPC   C1A28047  11.937  11.973   8.635
 2027POPC   D2A28048  12.077  11.697   8.252
 2027POPC   C3A28049  12.000  11.949   7.892
 2027POPC   C4A28050  11.757  11.864   7.525
 2027POPC   C1B28051  11.890  12.474   8.762
 2027POPC   C2B28052  11.703  12.501   8.386
 2027POPC   C3B28053  11.985  12.483   8.038
 2027POPC   C4B28054  12.350  12.377   7.798
 2028POPC   NC328055  10.842   6.127   9.459
 2028POPC   PO428056  10.177   6.001   9.442
 2028POPC   GL128057  10.470   5.971   9.111
 2028POPC   GL228058  10.621   5.655   9.214
 2028POPC   C1A28059  10.368   5.996   8.666
 2028POPC   D2A28060  10.563   6.154   8.292
 2028POPC   C3A28061  10.349   6.087   7.901
 2028POPC   C4A28062  10.563   5.913   7.564
 2028POPC   C1B28063  10.302   5.538   8.877
 2028POPC   C2B28064  10.364   5.564   8.395
 2028POPC   C3B28065  10.664   5.679   8.054
 2028POPC   C4B28066  10.753   5.472   7.665
 2029POPC   NC328067  11.989  27.117   9.540
 2029POPC   PO428068  11.868  26.473   9.562
 2029POPC   GL128069  11.932  26.770   9.171
 2029POPC   GL228070  12.218  27.010   9.076
 2029POPC   C1A28071  11.890  26.884   8.719
 2029POPC   D2A28072  12.046  26.721   8.335
 2029POPC   C3A28073  11.810  26.724   7.954
 2029POPC   C4A28074  11.762  27.125   7.724
 2029POPC   C1B28075  12.418  26.946   8.682
 2029POPC   C2B28076  12.543  26.933   8.285
 2029POPC   C3B28077  12.324  26.923   7.900
 2029POPC   C4B28078  12.439  26.684   7.541
 2030POPC   NC328079  43.674  11.942   9.825
 2030POPC   PO428080  43.032  11.819   9.558
 2030POPC   GL128081  42.954  11.899   9.134
 2030POPC   GL228082  42.999  12.287   9.080
 2030POPC   C1A28083  43.074  11.955   8.708
 2030POPC   D2A28084  43.106  12.307   8.432
 2030POPC   C3A28085  43.053  12.078   8.084
 2030POPC   C4A28086  43.079  12.218   7.704
 2030POPC   C1B28087  43.418  12.361   8.821
 2030POPC   C2B28088  43.621  12.516   8.445
 2030POPC   C3B28089  43.426  12.449   8.023
 2030POPC   C4B28090  43.581  12.358   7.588
 2031POPC   NC328091  22.521  26.962   9.628
 2031POPC   PO428092  22.813  26.365   9.647
 2031POPC   GL128093  22.885  26.509   9.213
 2031POPC   GL228094  22.863  26.842   9.226
 2031POPC   C1A28095  22.797  26.675   8.769
 2031POPC   D2A28096  22.912  26.915   8.409
 2031POPC   C3A28097  22.806  26.601   8.134
 2031POPC   C4A28098  22.789  26.468   7.744
 2031POPC   C1B28099  22.587  27.118   8.991
 2031POPC   C2B28100  22.530  27.222   8.567
 2031POPC   C3B28101  22.493  27.115   8.146
 2031POPC   C4B28102  22.748  26.991   7.816
 2032POPC   NC328103   8.643  21.678   9.549
 2032POPC   PO428104   9.153  21.232   9.404
 2032POPC   GL128105   8.821  21.322   9.151
 2032POPC   GL228106   8.899  21.670   9.123
 2032POPC   C1A28107   8.949  21.264   8.727
 2032POPC   D2A28108   9.110  21.137   8.332
 2032POPC   C3A28109   8.908  20.991   7.973
 2032POPC   C4A28110   8.961  21.227   7.620
 2032POPC   C1B28111   8.759  21.728   8.721
 2032POPC   C2B28112   9.064  21.664   8.399
 2032POPC   C3B28113   8.969  21.606   7.981
 2032POPC   C4B28114   8.651  21.828   7.738
 2033POPC   NC328115   4.031  20.438   9.678
 2033POPC   PO428116   3.463  20.683   9.633
 2033POPC   GL128117   3.517  20.554   9.218
 2033POPC   GL228118   3.175  20.408   9.274
 2033POPC   C1A28119   3.583  20.777   8.801
 2033POPC   D2A28120   3.520  20.998   8.398
 2033POPC   C3A28121   3.777  20.891   8.075
 2033POPC   C4A28122   3.703  20.762   7.659
 2033POPC   C1B28123   3.156  20.495   8.852
 2033POPC   C2B28124   3.381  20.490   8.442
 2033POPC   C3B28125   3.535  20.434   8.012
 2033POPC   C4B28126   3.200  20.553   7.733
 2034POPC   NC328127  30.870  38.669   9.483
 2034POPC   PO428128  30.678  38.018   9.616
 2034POPC   GL128129  30.634  38.256   9.234
 2034POPC   GL228130  30.465  38.572   9.173
 2034POPC   C1A28131  30.856  38.378   8.870
 2034POPC   D2A28132  30.854  38.235   8.445
 2034POPC   C3A28133  31.024  38.457   8.099
 2034POPC   C4A28134  30.847  38.433   7.677
 2034POPC   C1B28135  30.377  38.473   8.727
 2034POPC   C2B28136  30.431  38.454   8.283
 2034POPC   C3B28137  30.384  38.523   7.865
 2034POPC   C4B28138  30.345  38.416   7.453
 2035POPC   NC328139  43.725  13.578   9.200
 2035POPC   PO428140  44.162  14.012   9.529
 2035POPC   GL128141  44.122  13.862   9.132
 2035POPC   GL228142  44.248  13.560   8.987
 2035POPC   C1A28143  43.930  13.975   8.726
 2035POPC   D2A28144  43.870  13.935   8.301
 2035POPC   C3A28145  44.101  13.670   8.015
 2035POPC   C4A28146  44.061  13.725   7.563
 2035POPC   C1B28147  44.038  13.481   8.583
 2035POPC   C2B28148  43.708  13.445   8.279
 2035POPC   C3B28149  43.774  13.243   7.871
 2035POPC   C4B28150  44.031  13.232   7.474
 2036POPC   NC328151   9.148   5.373   9.489
 2036POPC   PO428152   8.662   4.892   9.470
 2036POPC   GL128153   8.727   5.205   9.152
 2036POPC   GL228154   9.078   5.183   9.023
 2036POPC   C1A28155   8.722   5.327   8.708
 2036POPC   D2A28156   9.000   5.390   8.341
 2036POPC   C3A28157   8.940   5.393   7.888
 2036POPC   C4A28158   9.168   5.417   7.500
 2036POPC   C1B28159   9.108   4.910   8.630
 2036POPC   C2B28160   8.911   4.541   8.367
 2036POPC   C3B28161   9.072   4.536   7.945
 2036POPC   C4B28162   9.208   4.910   7.738
 2037POPC   NC328163  18.369  19.472   9.654
 2037POPC   PO428164  18.214  18.822   9.473
 2037POPC   GL128165  18.404  19.145   9.188
 2037POPC   GL228166  18.168  19.395   9.170
 2037POPC   C1A28167  18.550  18.976   8.769
 2037POPC   D2A28168  18.252  19.025   8.417
 2037POPC   C3A28169  18.360  18.896   8.004
 2037POPC   C4A28170  18.422  18.863   7.527
 2037POPC   C1B28171  18.391  19.450   8.780
 2037POPC   C2B28172  18.492  19.478   8.382
 2037POPC   C3B28173  18.242  19.409   8.054
 2037POPC   C4B28174  18.527  19.304   7.753
 2038POPC   NC328175  24.698  38.822   9.565
 2038POPC   PO428176  24.242  39.230   9.382
 2038POPC   GL128177  24.513  39.051   9.120
 2038POPC   GL228178  24.261  38.907   8.971
 2038POPC   C1A28179  24.578  39.108   8.664
 2038POPC   D2A28180  24.855  38.914   8.392
 2038POPC   C3A28181  24.780  39.143   8.033
 2038POPC   C4A28182  24.626  39.238   7.648
 2038POPC   C1B28183  24.120  39.330   8.794
 2038POPC   C2B28184  24.064  39.429   8.424
 2038POPC   C3B28185  24.280  39.289   8.085
 2038POPC   C4B28186  24.092  39.251   7.709
 2039POPC   NC328187  12.626  16.723   9.498
 2039POPC   PO428188  13.121  16.285   9.641
 2039POPC   GL128189  13.070  16.561   9.202
 2039POPC   GL228190  12.801  16.821   9.040
 2039POPC   C1A28191  13.187  16.588   8.738
 2039POPC   D2A28192  13.145  16.534   8.274
 2039POPC   C3A28193  12.811  16.748   8.027
 2039POPC   C4A28194  12.930  16.789   7.571
 2039POPC   C1B28195  12.654  16.523   8.773
 2039POPC   C2B28196  12.689  16.346   8.374
 2039POPC   C3B28197  12.478  16.326   7.995
 2039POPC   C4B28198  12.493  16.566   7.619
 2040POPC   NC328199   9.801  41.207   9.633
 2040POPC   PO428200   9.577  41.801   9.617
 2040POPC   GL128201   9.810  41.666   9.250
 2040POPC   GL228202   9.557  41.580   8.992
 2040POPC   C1A28203   9.986  41.757   8.811
 2040POPC   D2A28204   9.904  41.551   8.398
 2040POPC   C3A28205   9.960  41.730   7.967
 2040POPC   C4A28206   9.865  41.688   7.509
 2040POPC   C1B28207   9.284  41.318   8.736
 2040POPC   C2B28208   9.544  41.089   8.470
 2040POPC   C3B28209   9.565  41.270   8.073
 2040POPC   C4B28210   9.201  41.196   7.783
 2041POPC   NC328211  17.375  12.500   9.568
 2041POPC   PO428212  17.648  13.202   9.773
 2041POPC   GL128213  17.445  13.132   9.315
 2041POPC   GL228214  17.621  12.840   9.181
 2041POPC   C1A28215  17.248  12.958   8.872
 2041POPC   D2A28216  17.508  12.947   8.489
 2041POPC   C3A28217  17.306  12.970   8.085
 2041POPC   C4A28218  17.312  13.174   7.680
 2041POPC   C1B28219  17.499  12.501   8.889
 2041POPC   C2B28220  17.552  12.403   8.449
 2041POPC   C3B28221  17.714  12.653   8.110
 2041POPC   C4B28222  17.564  12.718   7.709
 2042POPC   NC328223  30.664  34.818   9.674
 2042POPC   PO428224  31.261  34.653   9.416
 2042POPC   GL128225  31.022  34.820   9.089
 2042POPC   GL228226  30.706  34.725   9.169
 2042POPC   C1A28227  30.931  34.692   8.686
 2042POPC   D2A28228  31.078  34.769   8.275
 2042POPC   C3A28229  30.737  34.624   8.049
 2042POPC   C4A28230  30.738  34.339   7.736
 2042POPC   C1B28231  30.425  34.622   8.808
 2042POPC   C2B28232  30.319  34.591   8.373
 2042POPC   C3B28233  30.236  34.701   7.942
 2042POPC   C4B28234  30.340  34.512   7.496
 2043POPC   NC328235  10.744   9.736   9.658
 2043POPC   PO428236  10.265   9.337   9.363
 2043POPC   GL128237  10.621   9.585   9.173
 2043POPC   GL228238  10.672   9.962   9.198
 2043POPC   C1A28239  10.741   9.574   8.755
 2043POPC   D2A28240  10.729   9.334   8.398
 2043POPC   C3A28241  10.526   9.603   8.167
 2043POPC   C4A28242  10.478   9.616   7.755
 2043POPC   C1B28243  10.764  10.083   8.773
 2043POPC   C2B28244  10.712  10.054   8.332
 2043POPC   C3B28245  10.541  10.093   7.955
 2043POPC   C4B28246  10.582  10.079   7.545
 2044POPC   NC328247  33.622  15.768   9.512
 2044POPC   PO428248  34.276  15.910   9.664
 2044POPC   GL128249  34.047  15.880   9.225
 2044POPC   GL228250  33.800  16.143   9.206
 2044POPC   C1A28251  33.670  15.800   8.852
 2044POPC   D2A28252  33.469  15.735   8.404
 2044POPC   C3A28253  33.682  15.991   8.075
 2044POPC   C4A28254  33.848  15.989   7.681
 2044POPC   C1B28255  34.021  16.186   8.805
 2044POPC   C2B28256  33.996  16.280   8.377
 2044POPC   C3B28257  34.199  16.265   7.999
 2044POPC   C4B28258  34.154  16.382   7.583
 2045POPC   NC328259  40.078   7.630   9.399
 2045POPC   PO428260  40.377   7.102   9.643
 2045POPC   GL128261  40.078   7.063   9.256
 2045POPC   GL228262  39.790   7.298   9.152
 2045POPC   C1A28263  40.069   7.080   8.778
 2045POPC   D2A28264  40.372   7.296   8.483
 2045POPC   C3A28265  40.361   7.116   8.073
 2045POPC   C4A28266  40.359   7.299   7.609
 2045POPC   C1B28267  39.937   7.568   8.748
 2045POPC   C2B28268  39.892   7.432   8.326
 2045POPC   C3B28269  40.109   7.558   7.972
 2045POPC   C4B28270  40.018   7.675   7.578
 2046POPC   NC328271  22.318   6.977   9.829
 2046POPC   PO428272  21.823   7.082   9.333
 2046POPC   GL128273  21.897   6.671   9.219
 2046POPC   GL228274  22.174   6.493   9.122
 2046POPC   C1A28275  21.798   6.661   8.785
 2046POPC   D2A28276  21.825   6.920   8.405
 2046POPC   C3A28277  21.753   6.671   8.027
 2046POPC   C4A28278  22.030   6.476   7.726
 2046POPC   C1B28279  22.300   6.613   8.694
 2046POPC   C2B28280  22.235   6.608   8.231
 2046POPC   C3B28281  22.517   6.569   7.855
 2046POPC   C4B28282  22.446   6.319   7.454
 2047POPC   NC328283  28.520  19.463   9.466
 2047POPC   PO428284  28.266  18.851   9.576
 2047POPC   GL128285  28.335  19.042   9.184
 2047POPC   GL228286  28.115  19.269   9.220
 2047POPC   C1A28287  28.475  19.161   8.747
 2047POPC   D2A28288  28.644  18.860   8.416
 2047POPC   C3A28289  28.528  19.030   8.023
 2047POPC   C4A28290  28.515  18.932   7.589
 2047POPC   C1B28291  27.962  19.322   8.828
 2047POPC   C2B28292  28.070  19.170   8.440
 2047POPC   C3B28293  28.221  19.431   8.145
 2047POPC   C4B28294  28.149  19.267   7.770
 2048POPC   NC328295  42.183  27.871   9.883
 2048POPC   PO428296  42.160  28.541   9.578
 2048POPC   GL128297  42.357  28.340   9.165
 2048POPC   GL228298  42.671  28.169   9.082
 2048POPC   C1A28299  42.392  28.415   8.741
 2048POPC   D2A28300  42.164  28.700   8.508
 2048POPC   C3A28301  42.078  28.497   8.125
 2048POPC   C4A28302  42.239  28.615   7.724
 2048POPC   C1B28303  42.752  27.989   8.717
 2048POPC   C2B28304  42.618  28.169   8.338
 2048POPC   C3B28305  42.532  28.265   7.948
 2048POPC   C4B28306  42.537  28.015   7.605
 2049POPC   NC328307   7.782  42.567   9.473
 2049POPC   PO428308   7.289  42.102   9.460
 2049POPC   GL128309   7.445  42.328   9.145
 2049POPC   GL228310   7.758  42.204   9.111
 2049POPC   C1A28311   7.329  42.506   8.751
 2049POPC   D2A28312   7.423  42.760   8.397
 2049POPC   C3A28313   7.329  42.523   8.058
 2049POPC   C4A28314   7.121  42.440   7.708
 2049POPC   C1B28315   7.774  42.031   8.722
 2049POPC   C2B28316   7.637  42.187   8.349
 2049POPC   C3B28317   7.791  42.317   7.962
 2049POPC   C4B28318   7.573  42.174   7.638
 2050POPC   NC328319  23.966  43.207   9.463
 2050POPC   PO428320  23.317  43.040   9.471
 2050POPC   GL128321  23.604  43.091   9.116
 2050POPC   GL228322  23.691  43.438   9.089
 2050POPC   C1A28323  23.907  43.006   8.768
 2050POPC   D2A28324  23.874  42.788   8.357
 2050POPC   C3A28325  24.060  42.884   7.936
 2050POPC   C4A28326  23.809  43.103   7.658
 2050POPC   C1B28327  23.568  43.381   8.658
 2050POPC   C2B28328  23.475  43.469   8.208
 2050POPC   C3B28329  23.563  43.510   7.764
 2050POPC   C4B28330  23.350  43.497   7.343
 2051POPC   NC328331  21.338  32.115   9.614
 2051POPC   PO428332  21.056  32.710   9.446
 2051POPC   GL128333  21.229  32.361   9.135
 2051POPC   GL228334  21.157  31.971   9.135
 2051POPC   C1A28335  21.391  32.296   8.690
 2051POPC   D2A28336  21.352  32.498   8.278
 2051POPC   C3A28337  21.645  32.410   7.984
 2051POPC   C4A28338  21.663  32.221   7.573
 2051POPC   C1B28339  21.287  31.787   8.709
 2051POPC   C2B28340  21.339  31.950   8.262
 2051POPC   C3B28341  21.397  31.859   7.809
 2051POPC   C4B28342  21.119  31.722   7.484
 2052POPC   NC328343  29.666  16.450   9.324
 2052POPC   PO428344  30.035  17.013   9.366
 2052POPC   GL128345  29.936  16.754   9.048
 2052POPC   GL228346  29.591  16.899   9.005
 2052POPC   C1A28347  29.834  16.569   8.655
 2052POPC   D2A28348  29.705  16.351   8.283
 2052POPC   C3A28349  29.876  16.528   7.897
 2052POPC   C4A28350  29.788  16.788   7.511
 2052POPC   C1B28351  29.922  17.108   8.721
 2052POPC   C2B28352  30.013  16.951   8.318
 2052POPC   C3B28353  30.087  16.983   7.905
 2052POPC   C4B28354  30.337  17.145   7.616
 2053POPC   NC328355  18.856  25.784   9.557
 2053POPC   PO428356  19.161  26.426   9.634
 2053POPC   GL128357  19.025  26.176   9.259
 2053POPC   GL228358  19.326  25.987   9.145
 2053POPC   C1A28359  18.977  26.051   8.803
 2053POPC   D2A28360  18.799  25.956   8.387
 2053POPC   C3A28361  18.948  26.142   7.980
 2053POPC   C4A28362  18.983  26.033   7.500
 2053POPC   C1B28363  19.502  25.665   8.890
 2053POPC   C2B28364  19.246  25.693   8.562
 2053POPC   C3B28365  19.220  25.749   8.164
 2053POPC   C4B28366  19.374  25.915   7.807
 2054POPC   NC328367  11.485  14.485   9.496
 2054POPC   PO428368  11.212  13.868   9.360
 2054POPC   GL128369  11.408  14.081   9.061
 2054POPC   GL228370  11.486  14.456   8.999
 2054POPC   C1A28371  11.548  14.073   8.662
 2054POPC   D2A28372  11.499  14.412   8.396
 2054POPC   C3A28373  11.314  14.358   8.002
 2054POPC   C4A28374  11.444  14.588   7.689
 2054POPC   C1B28375  11.249  14.740   8.725
 2054POPC   C2B28376  11.024  14.570   8.358
 2054POPC   C3B28377  10.898  14.732   7.961
 2054POPC   C4B28378  10.982  14.713   7.519
 2055POPC   NC328379  23.537  37.468   9.481
 2055POPC   PO428380  24.091  37.616   9.683
 2055POPC   GL128381  23.950  37.413   9.175
 2055POPC   GL228382  23.627  37.230   9.062
 2055POPC   C1A28383  23.699  37.616   8.750
 2055POPC   D2A28384  23.849  37.859   8.394
 2055POPC   C3A28385  23.572  37.824   8.076
 2055POPC   C4A28386  23.764  37.881   7.708
 2055POPC   C1B28387  23.808  37.097   8.680
 2055POPC   C2B28388  23.934  37.355   8.359
 2055POPC   C3B28389  23.914  37.467   7.962
 2055POPC   C4B28390  23.581  37.373   7.726
 2056POPC   NC328391  19.679   5.879   9.493
 2056POPC   PO428392  20.326   5.652   9.489
 2056POPC   GL128393  20.134   5.924   9.149
 2056POPC   GL228394  19.783   6.023   9.034
 2056POPC   C1A28395  20.096   5.797   8.725
 2056POPC   D2A28396  19.812   5.949   8.395
 2056POPC   C3A28397  19.993   5.935   7.945
 2056POPC   C4A28398  19.722   6.009   7.561
 2056POPC   C1B28399  19.559   5.688   8.837
 2056POPC   C2B28400  19.418   5.562   8.441
 2056POPC   C3B28401  19.629   5.579   8.067
 2056POPC   C4B28402  19.440   5.614   7.683
 2057POPC   NC328403  24.706  43.648   9.771
 2057POPC   PO428404  24.412  43.075   9.531
 2057POPC   GL128405  24.318  43.109   9.097
 2057POPC   GL228406  24.662  42.974   9.081
 2057POPC   C1A28407  24.337  43.331   8.709
 2057POPC   D2A28408  24.196  43.182   8.331
 2057POPC   C3A28409  24.093  43.406   7.953
 2057POPC   C4A28410  24.281  43.245   7.548
 2057POPC   C1B28411  24.862  43.040   8.712
 2057POPC   C2B28412  24.719  43.231   8.349
 2057POPC   C3B28413  24.574  43.104   7.944
 2057POPC   C4B28414  24.779  43.173   7.534
 2058POPC   NC328415  35.560  25.016   9.280
 2058POPC   PO428416  35.209  25.499   9.504
 2058POPC   GL128417  35.235  25.341   9.050
 2058POPC   GL228418  35.209  24.966   8.909
 2058POPC   C1A28419  35.030  25.308   8.621
 2058POPC   D2A28420  35.063  24.998   8.317
 2058POPC   C3A28421  35.434  25.183   8.091
 2058POPC   C4A28422  35.704  25.511   7.931
 2058POPC   C1B28423  35.511  24.929   8.570
 2058POPC   C2B28424  35.608  24.732   8.169
 2058POPC   C3B28425  35.619  24.758   7.721
 2058POPC   C4B28426  35.371  24.846   7.326
 2059POPC   NC328427  43.757   7.300   9.684
 2059POPC   PO428428  43.664   6.573   9.612
 2059POPC   GL128429  43.902   6.532   9.223
 2059POPC   GL228430  43.963   6.206   9.125
 2059POPC   C1A28431  43.798   6.599   8.764
 2059POPC   D2A28432  43.679   6.939   8.472
 2059POPC   C3A28433  43.734   6.868   8.033
 2059POPC   C4A28434  43.821   6.529   7.814
 2059POPC   C1B28435  44.267   6.418   8.853
 2059POPC   C2B28436  44.134   6.205   8.494
 2059POPC   C3B28437  43.916   6.172   8.143
 2059POPC   C4B28438  44.060   6.057   7.740
 2060POPC   NC328439  33.737  23.965   9.603
 2060POPC   PO428440  33.647  24.663   9.522
 2060POPC   GL128441  33.759  24.493   9.118
 2060POPC   GL228442  33.677  24.159   9.131
 2060POPC   C1A28443  33.909  24.592   8.691
 2060POPC   D2A28444  34.146  24.628   8.292
 2060POPC   C3A28445  33.916  24.389   7.963
 2060POPC   C4A28446  33.641  24.484   7.615
 2060POPC   C1B28447  33.649  24.137   8.688
 2060POPC   C2B28448  33.360  24.143   8.338
 2060POPC   C3B28449  33.497  24.085   7.914
 2060POPC   C4B28450  33.585  23.946   7.462
 2061POPC   NC328451   7.830   9.595   9.354
 2061POPC   PO428452   8.132  10.106   9.676
 2061POPC   GL128453   8.300   9.813   9.235
 2061POPC   GL228454   8.186   9.941   8.839
 2061POPC   C1A28455   8.652   9.814   8.948
 2061POPC   D2A28456   8.602  10.023   8.547
 2061POPC   C3A28457   8.252   9.933   8.261
 2061POPC   C4A28458   8.286   9.756   7.851
 2061POPC   C1B28459   7.870   9.639   8.652
 2061POPC   C2B28460   7.860   9.233   8.443
 2061POPC   C3B28461   7.721   9.199   8.023
 2061POPC   C4B28462   7.831   9.535   7.770
 2062POPC   NC328463   9.943  32.123   9.659
 2062POPC   PO428464   9.886  32.705   9.287
 2062POPC   GL128465   9.630  32.390   9.112
 2062POPC   GL228466   9.613  32.063   9.277
 2062POPC   C1A28467   9.577  32.427   8.676
 2062POPC   D2A28468   9.881  32.640   8.393
 2062POPC   C3A28469   9.816  32.483   7.982
 2062POPC   C4A28470   9.451  32.263   7.869
 2062POPC   C1B28471   9.617  31.936   8.860
 2062POPC   C2B28472   9.457  31.876   8.462
 2062POPC   C3B28473   9.762  31.948   8.148
 2062POPC   C4B28474   9.865  31.999   7.733
 2063POPC   NC328475  21.378   6.950   9.490
 2063POPC   PO428476  21.667   6.445   9.666
 2063POPC   GL128477  21.430   6.499   9.253
 2063POPC   GL228478  21.618   6.235   9.150
 2063POPC   C1A28479  21.283   6.611   8.864
 2063POPC   D2A28480  21.415   6.612   8.446
 2063POPC   C3A28481  21.200   6.709   8.085
 2063POPC   C4A28482  21.349   6.611   7.679
 2063POPC   C1B28483  21.901   6.167   8.818
 2063POPC   C2B28484  21.825   6.280   8.391
 2063POPC   C3B28485  21.472   6.244   8.079
 2063POPC   C4B28486  21.628   6.188   7.709
 2064POPC   NC328487  15.426  20.785   9.491
 2064POPC   PO428488  15.025  20.295   9.497
 2064POPC   GL128489  15.135  20.472   9.125
 2064POPC   GL228490  15.461  20.375   9.143
 2064POPC   C1A28491  15.052  20.635   8.697
 2064POPC   D2A28492  14.818  20.575   8.329
 2064POPC   C3A28493  15.047  20.689   7.981
 2064POPC   C4A28494  14.968  20.485   7.587
 2064POPC   C1B28495  15.384  20.255   8.723
 2064POPC   C2B28496  15.336  20.396   8.322
 2064POPC   C3B28497  15.290  20.243   7.932
 2064POPC   C4B28498  15.494  20.363   7.613
 2065POPC   NC328499  42.665   4.162   9.597
 2065POPC   PO428500  42.152   4.621   9.484
 2065POPC   GL128501  42.385   4.392   9.207
 2065POPC   GL228502  42.737   4.540   9.221
 2065POPC   C1A28503  42.212   4.223   8.817
 2065POPC   D2A28504  42.058   4.358   8.414
 2065POPC   C3A28505  42.149   4.072   8.094
 2065POPC   C4A28506  42.276   4.190   7.699
 2065POPC   C1B28507  42.742   4.219   8.866
 2065POPC   C2B28508  42.564   4.211   8.436
 2065POPC   C3B28509  42.676   4.123   8.013
 2065POPC   C4B28510  42.732   4.384   7.637
 2066POPC   NC328511  19.752  31.376   9.501
 2066POPC   PO428512  19.736  31.967   9.609
 2066POPC   GL128513  19.854  31.754   9.189
 2066POPC   GL228514  20.186  31.727   9.052
 2066POPC   C1A28515  19.812  31.945   8.794
 2066POPC   D2A28516  20.054  31.995   8.439
 2066POPC   C3A28517  19.830  31.880   8.110
 2066POPC   C4A28518  19.831  31.620   7.756
 2066POPC   C1B28519  19.945  31.437   8.802
 2066POPC   C2B28520  19.760  31.112   8.569
 2066POPC   C3B28521  19.738  31.181   8.133
 2066POPC   C4B28522  19.701  31.119   7.715
 2067POPC   NC328523   9.370   0.777   9.486
 2067POPC   PO428524   9.964   0.317   9.483
 2067POPC   GL128525   9.883   0.386   9.101
 2067POPC   GL228526   9.592   0.218   9.059
 2067POPC   C1A28527   9.891   0.585   8.725
 2067POPC   D2A28528   9.691   0.721   8.377
 2067POPC   C3A28529   9.922   0.783   8.008
 2067POPC   C4A28530   9.978   0.468   7.815
 2067POPC   C1B28531   9.397   0.508   8.802
 2067POPC   C2B28532   9.283   0.383   8.410
 2067POPC   C3B28533   9.477   0.402   8.018
 2067POPC   C4B28534   9.221   0.587   7.736
 2068POPC   NC328535  30.256   0.898   9.581
 2068POPC   PO428536  30.787   0.470   9.420
 2068POPC   GL128537  30.772   0.318   9.052
 2068POPC   GL228538  31.091   0.167   8.975
 2068POPC   C1A28539  30.630   0.439   8.685
 2068POPC   D2A28540  30.797   0.381   8.301
 2068POPC   C3A28541  30.528   0.388   7.924
 2068POPC   C4A28542  30.737   0.402   7.525
 2068POPC   C1B28543  30.954  44.918   8.695
 2068POPC   C2B28544  30.757  44.814   8.362
 2068POPC   C3B28545  30.870   0.000   7.980
 2068POPC   C4B28546  30.832  44.881   7.578
 2069POPC   NC328547  36.399  27.062   9.616
 2069POPC   PO428548  35.844  26.695   9.788
 2069POPC   GL128549  35.953  26.798   9.280
 2069POPC   GL228550  36.243  26.951   9.155
 2069POPC   C1A28551  35.889  26.865   8.811
 2069POPC   D2A28552  35.923  26.619   8.409
 2069POPC   C3A28553  35.902  26.852   8.027
 2069POPC   C4A28554  35.967  27.189   7.739
 2069POPC   C1B28555  36.353  27.162   8.829
 2069POPC   C2B28556  36.241  27.031   8.454
 2069POPC   C3B28557  36.355  27.095   8.071
 2069POPC   C4B28558  36.550  27.027   7.701
 2070POPC   NC328559   1.787  35.642   9.560
 2070POPC   PO428560   2.086  35.127   9.312
 2070POPC   GL128561   1.931  35.480   9.105
 2070POPC   GL228562   1.567  35.547   9.096
 2070POPC   C1A28563   1.953  35.435   8.699
 2070POPC   D2A28564   1.838  35.532   8.333
 2070POPC   C3A28565   2.135  35.415   8.119
 2070POPC   C4A28566   2.256  35.630   7.807
 2070POPC   C1B28567   1.574  35.127   8.913
 2070POPC   C2B28568   1.799  34.972   8.550
 2070POPC   C3B28569   1.736  35.083   8.130
 2070POPC   C4B28570   1.742  35.399   7.800
 2071POPC   NC328571   3.388  10.887   9.291
 2071POPC   PO428572   3.599  11.404   9.661
 2071POPC   GL128573   3.701  11.456   9.239
 2071POPC   GL228574   3.715  11.154   9.034
 2071POPC   C1A28575   3.605  11.615   8.854
 2071POPC   D2A28576   3.588  11.744   8.449
 2071POPC   C3A28577   3.536  11.440   8.144
 2071POPC   C4A28578   3.686  11.425   7.724
 2071POPC   C1B28579   3.706  10.855   8.715
 2071POPC   C2B28580   3.625  10.929   8.292
 2071POPC   C3B28581   3.788  10.909   7.915
 2071POPC   C4B28582   3.618  10.930   7.558
 2072POPC   NC328583  41.140  29.054   9.434
 2072POPC   PO428584  40.489  29.049   9.458
 2072POPC   GL128585  40.647  28.816   9.147
 2072POPC   GL228586  40.830  29.087   9.028
 2072POPC   C1A28587  40.480  28.785   8.747
 2072POPC   D2A28588  40.634  28.785   8.359
 2072POPC   C3A28589  40.899  28.907   8.060
 2072POPC   C4A28590  40.752  28.768   7.700
 2072POPC   C1B28591  40.869  29.156   8.609
 2072POPC   C2B28592  40.598  29.305   8.308
 2072POPC   C3B28593  40.746  29.418   7.931
 2072POPC   C4B28594  41.021  29.243   7.663
 2073POPC   NC328595  34.146  43.692   9.486
 2073POPC   PO428596  33.756  44.137   9.406
 2073POPC   GL128597  33.724  44.095   9.008
 2073POPC   GL228598  33.560  44.416   8.946
 2073POPC   C1A28599  33.874  43.717   8.803
 2073POPC   D2A28600  33.985  43.593   8.393
 2073POPC   C3A28601  34.115  43.960   8.120
 2073POPC   C4A28602  33.944  44.254   7.787
 2073POPC   C1B28603  33.316  44.117   8.692
 2073POPC   C2B28604  33.422  43.986   8.266
 2073POPC   C3B28605  33.432  44.199   7.837
 2073POPC   C4B28606  33.577  44.275   7.391
 2074POPC   NC328607   3.249  13.501   9.528
 2074POPC   PO428608   3.868  13.674   9.532
 2074POPC   GL128609   3.708  13.777   9.162
 2074POPC   GL228610   3.393  13.803   9.132
 2074POPC   C1A28611   3.819  13.677   8.747
 2074POPC   D2A28612   3.905  13.817   8.332
 2074POPC   C3A28613   3.704  13.544   8.071
 2074POPC   C4A28614   3.502  13.541   7.687
 2074POPC   C1B28615   3.195  13.943   8.786
 2074POPC   C2B28616   3.373  13.770   8.427
 2074POPC   C3B28617   3.327  13.909   8.033
 2074POPC   C4B28618   3.117  13.917   7.672
 2075POPC   NC328619  23.833  36.341   9.467
 2075POPC   PO428620  23.456  35.830   9.554
 2075POPC   GL128621  23.758  35.951   9.146
 2075POPC   GL228622  24.083  36.176   9.057
 2075POPC   C1A28623  23.739  36.093   8.698
 2075POPC   D2A28624  23.734  36.247   8.291
 2075POPC   C3A28625  23.507  36.058   7.980
 2075POPC   C4A28626  23.657  36.285   7.673
 2075POPC   C1B28627  24.155  35.823   8.793
 2075POPC   C2B28628  23.982  35.793   8.364
 2075POPC   C3B28629  24.023  35.963   7.943
 2075POPC   C4B28630  24.134  36.167   7.538
 2076POPC   NC328631   2.124   3.882   9.879
 2076POPC   PO428632   1.797   3.323   9.690
 2076POPC   GL128633   1.959   3.429   9.321
 2076POPC   GL228634   1.870   3.094   9.205
 2076POPC   C1A28635   2.009   3.681   8.978
 2076POPC   D2A28636   1.836   3.650   8.561
 2076POPC   C3A28637   2.148   3.516   8.246
 2076POPC   C4A28638   2.239   3.545   7.818
 2076POPC   C1B28639   2.050   3.178   8.802
 2076POPC   C2B28640   1.842   3.145   8.412
 2076POPC   C3B28641   1.807   3.210   7.974
 2076POPC   C4B28642   1.543   3.453   7.681
 2077POPC   NC328643   2.466  20.079   9.485
 2077POPC   PO428644   2.707  19.547   9.386
 2077POPC   GL128645   2.550  19.662   9.020
 2077POPC   GL228646   2.436  19.943   9.019
 2077POPC   C1A28647   2.660  19.757   8.598
 2077POPC   D2A28648   3.049  19.763   8.364
 2077POPC   C3A28649   2.810  19.797   8.002
 2077POPC   C4A28650   2.558  19.852   7.681
 2077POPC   C1B28651   2.913  20.033   8.915
 2077POPC   C2B28652   2.918  20.234   8.496
 2077POPC   C3B28653   3.097  20.202   8.100
 2077POPC   C4B28654   3.077  20.055   7.668
 2078POPC   NC328655  18.620   3.342   9.539
 2078POPC   PO428656  18.004   3.612   9.484
 2078POPC   GL128657  18.244   3.460   9.148
 2078POPC   GL228658  18.556   3.648   9.119
 2078POPC   C1A28659  18.292   3.432   8.703
 2078POPC   D2A28660  18.018   3.412   8.365
 2078POPC   C3A28661  18.106   3.647   7.993
 2078POPC   C4A28662  18.180   3.782   7.565
 2078POPC   C1B28663  18.645   3.840   8.734
 2078POPC   C2B28664  18.514   3.661   8.315
 2078POPC   C3B28665  18.620   3.557   7.885
 2078POPC   C4B28666  18.914   3.820   7.700
 2079POPC   NC328667  32.711  25.586   9.515
 2079POPC   PO428668  33.297  25.233   9.493
 2079POPC   GL128669  32.930  25.111   9.232
 2079POPC   GL228670  32.844  25.407   9.059
 2079POPC   C1A28671  32.936  24.961   8.813
 2079POPC   D2A28672  32.985  25.316   8.531
 2079POPC   C3A28673  33.037  25.097   8.124
 2079POPC   C4A28674  33.262  25.194   7.738
 2079POPC   C1B28675  32.643  25.719   8.822
 2079POPC   C2B28676  32.548  25.692   8.401
 2079POPC   C3B28677  32.837  25.552   8.108
 2079POPC   C4B28678  32.921  25.571   7.705
 2080POPC   NC328679  36.541   5.449   9.749
 2080POPC   PO428680  37.124   5.359   9.673
 2080POPC   GL128681  36.875   5.247   9.275
 2080POPC   GL228682  36.730   4.895   9.205
 2080POPC   C1A28683  36.941   5.277   8.815
 2080POPC   D2A28684  37.041   5.118   8.399
 2080POPC   C3A28685  37.202   5.271   7.995
 2080POPC   C4A28686  37.086   5.100   7.597
 2080POPC   C1B28687  36.485   4.872   8.789
 2080POPC   C2B28688  36.615   4.834   8.367
 2080POPC   C3B28689  36.702   5.086   7.991
 2080POPC   C4B28690  36.481   5.204   7.624
 2081POPC   NC328691  40.568   3.152   9.490
 2081POPC   PO428692  41.073   2.697   9.413
 2081POPC   GL128693  40.916   2.878   9.076
 2081POPC   GL228694  40.577   2.877   9.069
 2081POPC   C1A28695  40.968   2.743   8.651
 2081POPC   D2A28696  40.798   2.557   8.288
 2081POPC   C3A28697  40.947   2.746   7.925
 2081POPC   C4A28698  40.724   3.072   7.737
 2081POPC   C1B28699  40.506   2.548   8.753
 2081POPC   C2B28700  40.282   2.615   8.381
 2081POPC   C3B28701  40.397   2.761   7.990
 2081POPC   C4B28702  40.570   2.582   7.611
 2082POPC   NC328703   6.012   2.013   9.258
 2082POPC   PO428704   5.523   2.461   9.461
 2082POPC   GL128705   5.595   2.217   9.090
 2082POPC   GL228706   5.600   1.819   9.052
 2082POPC   C1A28707   5.766   2.136   8.656
 2082POPC   D2A28708   5.779   1.918   8.258
 2082POPC   C3A28709   5.901   2.208   7.946
 2082POPC   C4A28710   6.349   2.279   7.851
 2082POPC   C1B28711   5.903   1.645   8.720
 2082POPC   C2B28712   5.908   1.375   8.397
 2082POPC   C3B28713   5.725   1.441   8.010
 2082POPC   C4B28714   5.675   1.790   7.757
 2083POPC   NC328715   0.832  26.971   9.550
 2083POPC   PO428716   0.112  26.966   9.640
 2083POPC   GL128717   0.377  26.803   9.324
 2083POPC   GL228718   0.499  27.092   9.182
 2083POPC   C1A28719   0.440  26.702   8.892
 2083POPC   D2A28720   0.655  26.677   8.530
 2083POPC   C3A28721   0.594  26.461   8.146
 2083POPC   C4A28722   0.861  26.457   7.769
 2083POPC   C1B28723   0.543  27.188   8.719
 2083POPC   C2B28724   0.775  27.137   8.303
 2083POPC   C3B28725   0.748  26.947   7.881
 2083POPC   C4B28726   0.340  26.743   7.791
 2084POPC   NC328727  19.226  17.243   9.652
 2084POPC   PO428728  18.866  17.789   9.708
 2084POPC   GL128729  18.931  17.586   9.294
 2084POPC   GL228730  19.237  17.422   9.179
 2084POPC   C1A28731  18.787  17.633   8.882
 2084POPC   D2A28732  19.013  17.536   8.516
 2084POPC   C3A28733  18.874  17.633   8.126
 2084POPC   C4A28734  19.063  17.764   7.786
 2084POPC   C1B28735  19.036  17.154   8.891
 2084POPC   C2B28736  19.086  17.042   8.444
 2084POPC   C3B28737  19.108  17.162   7.995
 2084POPC   C4B28738  19.162  16.872   7.681
 2085POPC   NC328739  23.049  23.198   9.474
 2085POPC   PO428740  23.046  23.899   9.530
 2085POPC   GL128741  23.031  23.643   9.178
 2085POPC   GL228742  23.353  23.525   9.112
 2085POPC   C1A28743  22.840  23.711   8.783
 2085POPC   D2A28744  22.886  24.040   8.475
 2085POPC   C3A28745  22.715  23.908   8.099
 2085POPC   C4A28746  22.693  23.802   7.679
 2085POPC   C1B28747  23.065  23.237   8.824
 2085POPC   C2B28748  22.798  23.270   8.441
 2085POPC   C3B28749  22.937  23.446   8.047
 2085POPC   C4B28750  23.114  23.530   7.658
 2086POPC   NC328751   4.049   0.676   9.554
 2086POPC   PO428752   4.424   0.081   9.548
 2086POPC   GL128753   4.447   0.230   9.135
 2086POPC   GL228754   4.463   0.545   9.213
 2086POPC   C1A28755   4.173   0.170   8.747
 2086POPC   D2A28756   3.997  44.884   8.438
 2086POPC   C3A28757   4.185   0.098   8.139
 2086POPC   C4A28758   4.420   0.302   7.892
 2086POPC   C1B28759   4.218   0.672   8.843
 2086POPC   C2B28760   4.281   0.603   8.382
 2086POPC   C3B28761   4.198   0.743   7.969
 2086POPC   C4B28762   3.893   0.924   7.715
 2087POPC   NC328763  26.572   8.587   9.566
 2087POPC   PO428764  26.880   9.210   9.623
 2087POPC   GL128765  26.620   9.034   9.320
 2087POPC   GL228766  26.899   8.811   9.251
 2087POPC   C1A28767  26.502   8.941   8.887
 2087POPC   D2A28768  26.743   9.092   8.520
 2087POPC   C3A28769  26.548   9.156   8.110
 2087POPC   C4A28770  26.679   8.943   7.723
 2087POPC   C1B28771  26.956   8.692   8.835
 2087POPC   C2B28772  26.868   8.576   8.409
 2087POPC   C3B28773  27.054   8.520   8.024
 2087POPC   C4B28774  27.185   8.742   7.675
 2088POPC   NC328775  25.215  19.441   9.650
 2088POPC   PO428776  25.131  18.785   9.531
 2088POPC   GL128777  25.256  19.102   9.255
 2088POPC   GL228778  25.135  18.879   9.017
 2088POPC   C1A28779  25.315  19.352   8.868
 2088POPC   D2A28780  25.494  19.343   8.446
 2088POPC   C3A28781  25.224  19.310   8.058
 2088POPC   C4A28782  25.374  19.239   7.593
 2088POPC   C1B28783  25.043  18.592   8.690
 2088POPC   C2B28784  25.089  18.649   8.234
 2088POPC   C3B28785  25.208  18.849   7.873
 2088POPC   C4B28786  24.909  18.980   7.564
 2089POPC   NC328787  36.481  28.595   9.389
 2089POPC   PO428788  37.130  28.134   9.531
 2089POPC   GL128789  36.808  28.182   9.259
 2089POPC   GL228790  36.932  28.514   9.179
 2089POPC   C1A28791  36.627  28.128   8.852
 2089POPC   D2A28792  36.724  28.382   8.506
 2089POPC   C3A28793  36.691  28.208   8.119
 2089POPC   C4A28794  36.693  28.443   7.745
 2089POPC   C1B28795  37.052  28.704   8.822
 2089POPC   C2B28796  37.198  28.568   8.453
 2089POPC   C3B28797  37.037  28.610   8.090
 2089POPC   C4B28798  37.271  28.624   7.748
 2090POPC   NC328799  10.633  31.758   9.686
 2090POPC   PO428800  10.617  31.122   9.885
 2090POPC   GL128801  10.399  31.223   9.410
 2090POPC   GL228802  10.407  31.582   9.256
 2090POPC   C1A28803  10.420  31.215   8.900
 2090POPC   D2A28804  10.641  31.497   8.544
 2090POPC   C3A28805  10.699  31.451   8.086
 2090POPC   C4A28806  10.427  31.292   7.766
 2090POPC   C1B28807  10.326  31.771   8.838
 2090POPC   C2B28808  10.207  31.838   8.398
 2090POPC   C3B28809  10.288  31.767   7.956
 2090POPC   C4B28810  10.551  31.762   7.585
 2091POPC   NC328811  17.784  41.638   9.913
 2091POPC   PO428812  17.250  41.503   9.563
 2091POPC   GL128813  17.320  41.434   9.143
 2091POPC   GL228814  17.696  41.466   9.143
 2091POPC   C1A28815  17.214  41.609   8.733
 2091POPC   D2A28816  17.389  41.841   8.381
 2091POPC   C3A28817  17.553  41.688   7.995
 2091POPC   C4A28818  17.170  41.803   7.799
 2091POPC   C1B28819  17.634  41.319   8.730
 2091POPC   C2B28820  17.435  41.323   8.366
 2091POPC   C3B28821  17.200  41.329   8.023
 2091POPC   C4B28822  17.386  41.288   7.689
 2092POPC   NC328823  33.914   7.615   9.343
 2092POPC   PO428824  33.794   7.111   9.684
 2092POPC   GL128825  33.636   7.226   9.231
 2092POPC   GL228826  33.419   7.567   9.185
 2092POPC   C1A28827  33.463   7.216   8.813
 2092POPC   D2A28828  33.558   7.103   8.380
 2092POPC   C3A28829  33.595   7.342   7.984
 2092POPC   C4A28830  33.707   7.377   7.534
 2092POPC   C1B28831  33.564   7.725   8.746
 2092POPC   C2B28832  33.689   7.806   8.277
 2092POPC   C3B28833  33.871   7.765   7.827
 2092POPC   C4B28834  34.023   7.761   7.380
 2093POPC   NC328835  12.265  31.268   9.385
 2093POPC   PO428836  11.958  31.921   9.461
 2093POPC   GL128837  11.981  31.641   9.127
 2093POPC   GL228838  11.783  31.344   9.132
 2093POPC   C1A28839  12.151  31.531   8.739
 2093POPC   D2A28840  12.267  31.344   8.358
 2093POPC   C3A28841  12.230  31.590   8.023
 2093POPC   C4A28842  12.256  31.352   7.669
 2093POPC   C1B28843  11.708  31.272   8.719
 2093POPC   C2B28844  11.728  31.433   8.307
 2093POPC   C3B28845  11.784  31.360   7.871
 2093POPC   C4B28846  11.844  31.397   7.400
 2094POPC   NC328847  15.826  16.828   9.617
 2094POPC   PO428848  16.006  16.164   9.471
 2094POPC   GL128849  15.791  16.478   9.227
 2094POPC   GL228850  15.990  16.774   9.128
 2094POPC   C1A28851  15.584  16.546   8.858
 2094POPC   D2A28852  15.569  16.696   8.462
 2094POPC   C3A28853  15.763  16.466   8.149
 2094POPC   C4A28854  15.831  16.711   7.824
 2094POPC   C1B28855  16.081  16.600   8.714
 2094POPC   C2B28856  16.138  16.764   8.317
 2094POPC   C3B28857  15.996  17.120   8.089
 2094POPC   C4B28858  16.155  17.090   7.704
 2095POPC   NC328859  43.637  43.688   9.423
 2095POPC   PO428860  44.308  43.836   9.420
 2095POPC   GL128861  43.997  43.872   9.081
 2095POPC   GL228862  43.694  44.091   9.096
 2095POPC   C1A28863  43.810  43.826   8.657
 2095POPC   D2A28864  43.573  43.767   8.274
 2095POPC   C3A28865  43.880  43.687   7.928
 2095POPC   C4A28866  44.177  43.401   7.728
 2095POPC   C1B28867  44.006  44.296   8.772
 2095POPC   C2B28868  43.972  44.209   8.316
 2095POPC   C3B28869  43.691  44.166   7.958
 2095POPC   C4B28870  43.743  44.122   7.500
 2096POPC   NC328871   1.336  42.758   9.694
 2096POPC   PO428872   0.831  43.182   9.704
 2096POPC   GL128873   1.007  43.245   9.256
 2096POPC   GL228874   1.302  43.384   9.138
 2096POPC   C1A28875   1.178  43.024   8.816
 2096POPC   D2A28876   1.195  43.145   8.385
 2096POPC   C3A28877   1.314  42.900   8.057
 2096POPC   C4A28878   1.068  43.065   7.708
 2096POPC   C1B28879   1.463  43.436   8.710
 2096POPC   C2B28880   1.631  43.434   8.285
 2096POPC   C3B28881   1.416  43.390   7.919
 2096POPC   C4B28882   1.420  43.344   7.470
 2097POPC   NC328883  35.990  25.226   9.649
 2097POPC   PO428884  36.672  25.317   9.710
 2097POPC   GL128885  36.392  25.310   9.330
 2097POPC   GL228886  36.204  25.011   9.217
 2097POPC   C1A28887  36.323  25.540   8.919
 2097POPC   D2A28888  36.212  25.630   8.471
 2097POPC   C3A28889  36.369  25.423   8.098
 2097POPC   C4A28890  36.184  25.485   7.737
 2097POPC   C1B28891  36.008  25.042   8.788
 2097POPC   C2B28892  35.905  25.201   8.358
 2097POPC   C3B28893  35.979  25.051   7.954
 2097POPC   C4B28894  35.891  25.126   7.513
 2098POPC   NC328895  11.297   2.544   9.502
 2098POPC   PO428896  11.343   3.167   9.322
 2098POPC   GL128897  11.024   2.936   9.058
 2098POPC   GL228898  11.007   2.576   9.051
 2098POPC   C1A28899  10.916   2.849   8.601
 2098POPC   D2A28900  11.227   2.949   8.269
 2098POPC   C3A28901  11.269   2.897   7.815
 2098POPC   C4A28902  11.205   2.963   7.358
 2098POPC   C1B28903  11.374   2.676   8.750
 2098POPC   C2B28904  11.453   2.489   8.335
 2098POPC   C3B28905  11.139   2.443   8.025
 2098POPC   C4B28906  11.148   2.454   7.582
 2099POPC   NC328907  31.397  26.247   9.520
 2099POPC   PO428908  31.165  25.579   9.497
 2099POPC   GL128909  31.409  25.824   9.201
 2099POPC   GL228910  31.295  26.143   9.033
 2099POPC   C1A28911  31.666  25.826   8.821
 2099POPC   D2A28912  31.749  25.862   8.393
 2099POPC   C3A28913  31.399  26.068   8.221
 2099POPC   C4A28914  31.236  25.915   7.879
 2099POPC   C1B28915  31.476  26.307   8.666
 2099POPC   C2B28916  31.660  26.514   8.293
 2099POPC   C3B28917  31.669  26.299   7.864
 2099POPC   C4B28918  31.448  26.294   7.465
 2100POPC   NC328919  17.375  40.244   9.483
 2100POPC   PO428920  17.986  39.985   9.583
 2100POPC   GL128921  17.785  40.129   9.205
 2100POPC   GL228922  17.826  39.818   9.054
 2100POPC   C1A28923  17.542  40.161   8.800
 2100POPC   D2A28924  17.621  40.363   8.377
 2100POPC   C3A28925  17.707  40.229   7.936
 2100POPC   C4A28926  17.308  40.235   7.750
 2100POPC   C1B28927  17.704  39.721   8.597
 2100POPC   C2B28928  17.605  39.788   8.149
 2100POPC   C3B28929  17.834  39.659   7.788
 2100POPC   C4B28930  17.852  39.536   7.370
 2101POPC   NC328931   9.659  30.367   9.403
 2101POPC   PO428932  10.133  30.747   9.596
 2101POPC   GL128933   9.887  30.775   9.217
 2101POPC   GL228934   9.546  30.841   9.245
 2101POPC   C1A28935   9.957  30.885   8.809
 2101POPC   D2A28936   9.889  30.660   8.472
 2101POPC   C3A28937   9.940  30.894   8.130
 2101POPC   C4A28938   9.821  30.743   7.754
 2101POPC   C1B28939   9.441  30.714   8.837
 2101POPC   C2B28940   9.368  30.504   8.459
 2101POPC   C3B28941   9.488  30.627   8.111
 2101POPC   C4B28942   9.328  30.603   7.694
 2102POPC   NC328943  22.514  29.333   9.435
 2102POPC   PO428944  22.017  28.845   9.392
 2102POPC   GL128945  22.090  29.164   9.138
 2102POPC   GL228946  22.403  29.009   9.063
 2102POPC   C1A28947  22.137  29.270   8.708
 2102POPC   D2A28948  22.316  29.350   8.325
 2102POPC   C3A28949  22.080  29.169   8.043
 2102POPC   C4A28950  22.145  29.111   7.639
 2102POPC   C1B28951  22.393  28.792   8.689
 2102POPC   C2B28952  22.431  28.789   8.251
 2102POPC   C3B28953  22.574  29.012   7.902
 2102POPC   C4B28954  22.559  28.931   7.442
 2103POPC   NC328955  11.498   7.489   9.626
 2103POPC   PO428956  10.849   7.390   9.711
 2103POPC   GL128957  11.043   7.321   9.274
 2103POPC   GL228958  11.366   7.167   9.227
 2103POPC   C1A28959  11.214   7.485   8.857
 2103POPC   D2A28960  11.280   7.746   8.490
 2103POPC   C3A28961  11.174   7.607   8.099
 2103POPC   C4A28962  11.440   7.662   7.752
 2103POPC   C1B28963  11.482   7.011   8.806
 2103POPC   C2B28964  11.418   7.218   8.393
 2103POPC   C3B28965  11.402   7.137   7.935
 2103POPC   C4B28966  11.729   6.937   7.699
 2104POPC   NC328967  12.812  34.103   9.460
 2104POPC   PO428968  12.720  33.452   9.482
 2104POPC   GL128969  12.729  33.695   9.106
 2104POPC   GL228970  12.543  34.007   9.032
 2104POPC   C1A28971  12.638  33.555   8.701
 2104POPC   D2A28972  12.907  33.605   8.346
 2104POPC   C3A28973  12.721  33.894   8.112
 2104POPC   C4A28974  12.637  34.055   7.692
 2104POPC   C1B28975  12.903  34.020   8.710
 2104POPC   C2B28976  13.026  34.257   8.301
 2104POPC   C3B28977  13.113  34.096   7.872
 2104POPC   C4B28978  13.020  34.239   7.415
 2105POPC   NC328979  38.611  33.266   9.479
 2105POPC   PO428980  38.173  32.829   9.710
 2105POPC   GL128981  38.325  32.869   9.258
 2105POPC   GL228982  38.316  33.221   9.097
 2105POPC   C1A28983  38.197  32.781   8.842
 2105POPC   D2A28984  38.166  32.841   8.418
 2105POPC   C3A28985  38.522  32.891   8.151
 2105POPC   C4A28986  38.498  32.697   7.734
 2105POPC   C1B28987  38.566  33.122   8.743
 2105POPC   C2B28988  38.711  33.324   8.390
 2105POPC   C3B28989  38.611  33.379   7.975
 2105POPC   C4B28990  38.669  33.157   7.594
 2106POPC   NC328991  30.914  29.186   9.730
 2106POPC   PO428992  31.590  29.181   9.641
 2106POPC   GL128993  31.657  29.188   9.168
 2106POPC   GL228994  31.598  29.475   8.999
 2106POPC   C1A28995  31.551  29.031   8.750
 2106POPC   D2A28996  31.425  29.115   8.325
 2106POPC   C3A28997  31.434  28.975   7.871
 2106POPC   C4A28998  31.482  29.149   7.457
 2106POPC   C1B28999  31.241  29.440   8.734
 2106POPC   C2B29000  31.100  29.490   8.341
 2106POPC   C3B29001  31.021  29.247   8.018
 2106POPC   C4B29002  30.718  29.294   7.731
 2107POPC   NC329003  19.609  30.391   9.455
 2107POPC   PO429004  19.974  29.812   9.523
 2107POPC   GL129005  20.046  29.877   9.124
 2107POPC   GL229006  19.996  30.240   9.105
 2107POPC   C1A29007  19.907  29.662   8.742
 2107POPC   D2A29008  19.786  29.874   8.360
 2107POPC   C3A29009  20.021  29.872   7.987
 2107POPC   C4A29010  20.387  29.720   7.856
 2107POPC   C1B29011  19.674  30.190   8.781
 2107POPC   C2B29012  19.459  30.268   8.379
 2107POPC   C3B29013  19.625  30.194   7.962
 2107POPC   C4B29014  19.569  30.165   7.519
 2108POPC   NC329015   6.276  22.617   9.290
 2108POPC   PO429016   5.801  23.129   9.485
 2108POPC   GL129017   5.859  22.884   9.150
 2108POPC   GL229018   5.561  22.704   9.193
 2108POPC   C1A29019   5.861  23.005   8.711
 2108POPC   D2A29020   5.586  22.901   8.371
 2108POPC   C3A29021   5.771  22.922   7.997
 2108POPC   C4A29022   6.030  23.215   7.732
 2108POPC   C1B29023   5.646  22.541   8.789
 2108POPC   C2B29024   5.942  22.534   8.443
 2108POPC   C3B29025   6.046  22.497   8.022
 2108POPC   C4B29026   5.776  22.581   7.642
 2109POPC   NC329027  38.978  17.098   9.538
 2109POPC   PO429028  39.099  17.809   9.522
 2109POPC   GL129029  39.275  17.623   9.145
 2109POPC   GL229030  39.138  17.287   9.109
 2109POPC   C1A29031  39.454  17.531   8.732
 2109POPC   D2A29032  39.422  17.642   8.297
 2109POPC   C3A29033  39.063  17.559   8.039
 2109POPC   C4A29034  39.087  17.699   7.672
 2109POPC   C1B29035  39.218  17.062   8.752
 2109POPC   C2B29036  39.196  17.180   8.342
 2109POPC   C3B29037  39.410  17.193   7.946
 2109POPC   C4B29038  39.363  17.300   7.502
 2110POPC   NC329039  18.101  30.473   9.529
 2110POPC   PO429040  18.311  29.805   9.545
 2110POPC   GL129041  18.162  30.019   9.199
 2110POPC   GL229042  18.453  30.249   9.225
 2110POPC   C1A29043  18.195  29.827   8.779
 2110POPC   D2A29044  18.527  29.614   8.503
 2110POPC   C3A29045  18.350  29.572   8.081
 2110POPC   C4A29046  18.042  29.808   7.866
 2110POPC   C1B29047  18.642  30.056   8.869
 2110POPC   C2B29048  18.549  30.122   8.446
 2110POPC   C3B29049  18.723  30.061   8.069
 2110POPC   C4B29050  18.504  29.982   7.746
 2111POPC   NC329051  21.487  40.695   9.637
 2111POPC   PO429052  21.919  41.157   9.408
 2111POPC   GL129053  21.645  40.857   9.129
 2111POPC   GL229054  21.341  40.622   9.155
 2111POPC   C1A29055  21.617  40.751   8.669
 2111POPC   D2A29056  21.485  40.924   8.232
 2111POPC   C3A29057  21.531  40.638   7.855
 2111POPC   C4A29058  21.657  40.568   7.404
 2111POPC   C1B29059  21.171  40.905   8.859
 2111POPC   C2B29060  21.026  41.011   8.467
 2111POPC   C3B29061  20.987  40.764   8.117
 2111POPC   C4B29062  21.154  40.971   7.778
 2112POPC   NC329063  17.174  15.648   9.539
 2112POPC   PO429064  17.616  15.147   9.568
 2112POPC   GL129065  17.539  15.079   9.175
 2112POPC   GL229066  17.202  15.191   9.246
 2112POPC   C1A29067  17.757  15.034   8.779
 2112POPC   D2A29068  17.759  14.801   8.392
 2112POPC   C3A29069  17.752  15.032   8.019
 2112POPC   C4A29070  17.505  14.885   7.709
 2112POPC   C1B29071  17.206  15.069   8.795
 2112POPC   C2B29072  17.375  15.189   8.384
 2112POPC   C3B29073  17.166  15.257   7.991
 2112POPC   C4B29074  17.031  14.879   7.872
 2113POPC   NC329075   8.694  33.932   9.609
 2113POPC   PO429076   9.225  33.611   9.409
 2113POPC   GL129077   8.982  33.800   9.140
 2113POPC   GL229078   8.929  34.117   9.178
 2113POPC   C1A29079   8.818  33.694   8.787
 2113POPC   D2A29080   9.022  33.731   8.445
 2113POPC   C3A29081   8.822  33.557   8.132
 2113POPC   C4A29082   8.686  33.766   7.771
 2113POPC   C1B29083   9.183  34.094   8.791
 2113POPC   C2B29084   9.098  34.232   8.389
 2113POPC   C3B29085   9.093  34.007   8.020
 2113POPC   C4B29086   9.105  34.081   7.596
 2114POPC   NC329087  11.199  37.161   9.538
 2114POPC   PO429088  11.715  37.631   9.400
 2114POPC   GL129089  11.456  37.390   9.107
 2114POPC   GL229090  11.064  37.364   9.078
 2114POPC   C1A29091  11.343  37.601   8.704
 2114POPC   D2A29092  11.206  37.935   8.384
 2114POPC   C3A29093  11.539  37.979   8.061
 2114POPC   C4A29094  11.567  37.730   7.673
 2114POPC   C1B29095  10.901  37.352   8.640
 2114POPC   C2B29096  11.155  37.372   8.278
 2114POPC   C3B29097  11.133  37.542   7.868
 2114POPC   C4B29098  10.926  37.306   7.525
 2115POPC   NC329099   4.082  25.839   9.321
 2115POPC   PO429100   4.595  26.154   9.595
 2115POPC   GL129101   4.499  26.166   9.146
 2115POPC   GL229102   4.176  26.324   9.204
 2115POPC   C1A29103   4.498  25.916   8.724
 2115POPC   D2A29104   4.272  25.776   8.349
 2115POPC   C3A29105   4.412  25.951   7.970
 2115POPC   C4A29106   4.415  25.709   7.606
 2115POPC   C1B29107   4.113  26.265   8.773
 2115POPC   C2B29108   4.200  26.274   8.339
 2115POPC   C3B29109   3.946  26.200   7.988
 2115POPC   C4B29110   3.833  26.438   7.642
 2116POPC   NC329111  11.187  25.491   9.586
 2116POPC   PO429112  11.470  24.947   9.553
 2116POPC   GL129113  11.239  25.237   9.142
 2116POPC   GL229114  10.900  25.447   9.059
 2116POPC   C1A29115  11.209  25.409   8.667
 2116POPC   D2A29116  11.114  25.425   8.190
 2116POPC   C3A29117  11.389  25.250   7.823
 2116POPC   C4A29118  11.711  25.402   7.499
 2116POPC   C1B29119  10.831  25.064   8.864
 2116POPC   C2B29120  10.996  24.948   8.467
 2116POPC   C3B29121  10.992  24.957   8.018
 2116POPC   C4B29122  10.839  25.203   7.675
 2117POPC   NC329123   2.696  23.699   9.552
 2117POPC   PO429124   2.416  23.292   9.133
 2117POPC   GL129125   2.648  23.659   9.028
 2117POPC   GL229126   2.987  23.749   9.139
 2117POPC   C1A29127   2.781  23.816   8.625
 2117POPC   D2A29128   2.814  23.531   8.274
 2117POPC   C3A29129   2.692  23.629   7.872
 2117POPC   C4A29130   2.388  23.925   7.682
 2117POPC   C1B29131   3.201  23.512   8.869
 2117POPC   C2B29132   3.262  23.666   8.480
 2117POPC   C3B29133   3.307  23.527   8.108
 2117POPC   C4B29134   3.188  23.677   7.729
 2118POPC   NC329135  27.465  20.696  10.104
 2118POPC   PO429136  26.998  20.496   9.694
 2118POPC   GL129137  26.847  20.415   9.227
 2118POPC   GL229138  27.164  20.529   9.095
 2118POPC   C1A29139  26.489  20.462   8.883
 2118POPC   D2A29140  26.544  20.352   8.451
 2118POPC   C3A29141  26.605  20.399   8.020
 2118POPC   C4A29142  26.573  20.739   7.741
 2118POPC   C1B29143  26.993  20.310   8.735
 2118POPC   C2B29144  27.077  20.388   8.299
 2118POPC   C3B29145  27.054  20.611   7.899
 2118POPC   C4B29146  26.950  20.503   7.436
 2119POPC   NC329147  13.217  42.658   9.523
 2119POPC   PO429148  12.731  42.189   9.742
 2119POPC   GL129149  12.755  42.417   9.322
 2119POPC   GL229150  12.469  42.310   9.101
 2119POPC   C1A29151  12.923  42.415   8.878
 2119POPC   D2A29152  12.715  42.305   8.482
 2119POPC   C3A29153  12.953  42.067   8.206
 2119POPC   C4A29154  12.913  42.065   7.791
 2119POPC   C1B29155  12.496  42.673   8.764
 2119POPC   C2B29156  12.553  42.779   8.313
 2119POPC   C3B29157  12.720  42.515   7.983
 2119POPC   C4B29158  12.591  42.437   7.562
 2120POPC   NC329159  42.262   3.261   9.439
 2120POPC   PO429160  42.605   2.661   9.489
 2120POPC   GL129161  42.351   2.825   9.190
 2120POPC   GL229162  42.587   3.081   9.076
 2120POPC   C1A29163  42.052   2.688   8.885
 2120POPC   D2A29164  41.862   2.548   8.533
 2120POPC   C3A29165  41.936   2.817   8.172
 2120POPC   C4A29166  41.949   2.669   7.735
 2120POPC   C1B29167  42.535   2.779   8.736
 2120POPC   C2B29168  42.348   2.612   8.393
 2120POPC   C3B29169  42.433   2.768   7.990
 2120POPC   C4B29170  42.857   2.735   7.828
 2121POPC   NC329171   2.582  44.643   9.447
 2121POPC   PO429172   3.209  44.834   9.490
 2121POPC   GL129173   2.937  44.810   9.103
 2121POPC   GL229174   2.541  44.878   8.999
 2121POPC   C1A29175   2.809  44.516   8.771
 2121POPC   D2A29176   2.593  44.673   8.428
 2121POPC   C3A29177   2.816  44.575   8.066
 2121POPC   C4A29178   2.606  44.403   7.741
 2121POPC   C1B29179   2.766   0.144   8.742
 2121POPC   C2B29180   2.939   0.113   8.370
 2121POPC   C3B29181   2.664   0.065   8.085
 2121POPC   C4B29182   2.595  44.925   7.729
 2122POPC   NC329183  43.296  41.450   9.554
 2122POPC   PO429184  42.869  41.876   9.196
 2122POPC   GL129185  43.107  41.538   9.090
 2122POPC   GL229186  42.989  41.224   9.195
 2122POPC   C1A29187  43.224  41.451   8.676
 2122POPC   D2A29188  42.992  41.725   8.392
 2122POPC   C3A29189  43.230  41.854   8.048
 2122POPC   C4A29190  43.132  41.860   7.646
 2122POPC   C1B29191  42.758  41.263   8.815
 2122POPC   C2B29192  42.748  41.269   8.368
 2122POPC   C3B29193  42.947  41.410   7.969
 2122POPC   C4B29194  43.054  41.354   7.547
 2123POPC   NC329195  14.525  37.920   9.532
 2123POPC   PO429196  14.062  37.545   9.250
 2123POPC   GL129197  14.312  37.877   9.052
 2123POPC   GL229198  14.709  37.852   9.063
 2123POPC   C1A29199  14.172  37.895   8.622
 2123POPC   D2A29200  14.029  37.521   8.386
 2123POPC   C3A29201  14.257  37.558   7.983
 2123POPC   C4A29202  14.317  37.931   7.727
 2123POPC   C1B29203  14.650  37.436   8.832
 2123POPC   C2B29204  14.528  37.290   8.389
 2123POPC   C3B29205  14.742  37.368   7.989
 2123POPC   C4B29206  14.658  37.584   7.604
 2124POPC   NC329207  26.923  38.223   9.503
 2124POPC   PO429208  26.457  38.600   9.677
 2124POPC   GL129209  26.640  38.622   9.272
 2124POPC   GL229210  26.509  38.336   9.193
 2124POPC   C1A29211  26.641  38.720   8.814
 2124POPC   D2A29212  26.333  38.831   8.494
 2124POPC   C3A29213  26.423  38.637   8.096
 2124POPC   C4A29214  26.675  38.471   7.743
 2124POPC   C1B29215  26.731  38.229   8.863
 2124POPC   C2B29216  26.689  38.328   8.448
 2124POPC   C3B29217  26.839  38.145   8.094
 2124POPC   C4B29218  27.086  38.157   7.742
 2125POPC   NC329219   2.131  42.255   9.536
 2125POPC   PO429220   1.608  42.679   9.327
 2125POPC   GL129221   1.886  42.311   9.089
 2125POPC   GL229222   2.277  42.277   9.058
 2125POPC   C1A29223   1.915  42.242   8.689
 2125POPC   D2A29224   1.773  42.411   8.344
 2125POPC   C3A29225   1.720  42.014   8.133
 2125POPC   C4A29226   1.784  42.091   7.761
 2125POPC   C1B29227   2.391  42.053   8.684
 2125POPC   C2B29228   2.205  42.111   8.277
 2125POPC   C3B29229   2.257  42.269   7.910
 2125POPC   C4B29230   2.506  41.954   7.798
 2126POPC   NC329231  43.539  44.673   9.541
 2126POPC   PO429232  44.165  44.716   9.374
 2126POPC   GL129233  43.944  44.786   9.039
 2126POPC   GL229234  43.699  44.592   9.074
 2126POPC   C1A29235  43.835  44.860   8.639
 2126POPC   D2A29236  44.124  44.715   8.376
 2126POPC   C3A29237  44.074  44.834   7.963
 2126POPC   C4A29238  43.987  44.515   7.715
 2126POPC   C1B29239  43.522  44.450   8.713
 2126POPC   C2B29240  43.607  44.557   8.282
 2126POPC   C3B29241  43.536  44.665   7.865
 2126POPC   C4B29242  43.589  44.619   7.408
 2127POPC   NC329243  10.651  19.398   9.615
 2127POPC   PO429244  11.076  18.789   9.708
 2127POPC   GL129245  10.935  18.860   9.219
 2127POPC   GL229246  10.620  18.995   9.257
 2127POPC   C1A29247  10.786  19.135   8.812
 2127POPC   D2A29248  10.507  19.210   8.425
 2127POPC   C3A29249  10.721  19.222   8.000
 2127POPC   C4A29250  10.819  19.011   7.579
 2127POPC   C1B29251  10.297  19.153   8.952
 2127POPC   C2B29252  10.030  19.103   8.601
 2127POPC   C3B29253  10.078  19.073   8.143
 2127POPC   C4B29254  10.312  18.975   7.784
 2128POPC   NC329255  28.945  15.258   9.505
 2128POPC   PO429256  29.612  15.080   9.547
 2128POPC   GL129257  29.349  15.156   9.187
 2128POPC   GL229258  29.174  15.489   9.113
 2128POPC   C1A29259  29.373  15.067   8.762
 2128POPC   D2A29260  29.220  14.842   8.433
 2128POPC   C3A29261  29.377  15.017   8.081
 2128POPC   C4A29262  29.316  14.846   7.699
 2128POPC   C1B29263  28.910  15.305   8.767
 2128POPC   C2B29264  28.972  15.269   8.310
 2128POPC   C3B29265  28.898  15.128   7.881
 2128POPC   C4B29266  28.840  15.430   7.539
 2129POPC   NC329267  26.909  25.046   9.487
 2129POPC   PO429268  26.312  25.495   9.479
 2129POPC   GL129269  26.633  25.394   9.176
 2129POPC   GL229270  26.563  25.064   9.075
 2129POPC   C1A29271  26.854  25.416   8.757
 2129POPC   D2A29272  27.006  25.628   8.368
 2129POPC   C3A29273  26.900  25.472   7.981
 2129POPC   C4A29274  26.917  25.117   7.804
 2129POPC   C1B29275  26.437  25.127   8.672
 2129POPC   C2B29276  26.727  25.044   8.327
 2129POPC   C3B29277  26.652  24.742   7.999
 2129POPC   C4B29278  26.397  24.856   7.651
 2130POPC   NC329279  31.200   6.956   9.546
 2130POPC   PO429280  31.531   6.265   9.558
 2130POPC   GL129281  31.389   6.545   9.260
 2130POPC   GL229282  31.543   6.850   9.178
 2130POPC   C1A29283  31.311   6.500   8.845
 2130POPC   D2A29284  31.341   6.248   8.513
 2130POPC   C3A29285  31.363   6.416   8.121
 2130POPC   C4A29286  31.645   6.428   7.754
 2130POPC   C1B29287  31.381   6.986   8.787
 2130POPC   C2B29288  31.559   6.890   8.359
 2130POPC   C3B29289  31.494   6.883   7.919
 2130POPC   C4B29290  31.816   6.891   7.622
 2131POPC   NC329291  18.679  23.679   9.456
 2131POPC   PO429292  19.306  23.328   9.518
 2131POPC   GL129293  19.108  23.475   9.153
 2131POPC   GL229294  18.768  23.297   9.137
 2131POPC   C1A29295  19.130  23.732   8.751
 2131POPC   D2A29296  18.882  23.886   8.383
 2131POPC   C3A29297  19.147  23.888   8.023
 2131POPC   C4A29298  19.587  23.917   7.919
 2131POPC   C1B29299  18.945  23.256   8.710
 2131POPC   C2B29300  18.998  23.374   8.270
 2131POPC   C3B29301  18.975  23.411   7.813
 2131POPC   C4B29302  18.896  23.404   7.342
 2132POPC   NC329303  24.223  33.222   9.660
 2132POPC   PO429304  24.859  33.039   9.541
 2132POPC   GL129305  24.440  33.093   9.215
 2132POPC   GL229306  24.148  32.856   9.213
 2132POPC   C1A29307  24.140  33.199   8.807
 2132POPC   D2A29308  24.273  33.241   8.353
 2132POPC   C3A29309  24.709  33.260   8.245
 2132POPC   C4A29310  24.711  33.171   7.822
 2132POPC   C1B29311  24.399  32.770   8.805
 2132POPC   C2B29312  24.463  32.775   8.335
 2132POPC   C3B29313  24.266  32.786   7.913
 2132POPC   C4B29314  24.288  32.536   7.506
 2133POPC   NC329315   5.458  43.025   9.636
 2133POPC   PO429316   6.055  43.076   9.474
 2133POPC   GL129317   5.798  43.003   9.183
 2133POPC   GL229318   5.625  43.307   9.175
 2133POPC   C1A29319   5.818  42.864   8.792
 2133POPC   D2A29320   6.058  42.977   8.471
 2133POPC   C3A29321   5.888  42.809   8.089
 2133POPC   C4A29322   5.929  42.973   7.669
 2133POPC   C1B29323   5.851  43.406   8.828
 2133POPC   C2B29324   5.902  43.507   8.423
 2133POPC   C3B29325   6.056  43.286   8.084
 2133POPC   C4B29326   6.073  43.440   7.731
 2134POPC   NC329327   6.786  16.536   9.418
 2134POPC   PO429328   6.420  17.127   9.488
 2134POPC   GL129329   6.707  16.986   9.132
 2134POPC   GL229330   6.467  16.778   9.018
 2134POPC   C1A29331   6.858  16.863   8.687
 2134POPC   D2A29332   6.999  16.520   8.390
 2134POPC   C3A29333   6.865  16.639   7.966
 2134POPC   C4A29334   6.714  16.985   7.670
 2134POPC   C1B29335   6.565  16.440   8.699
 2134POPC   C2B29336   6.324  16.201   8.435
 2134POPC   C3B29337   6.200  16.308   8.032
 2134POPC   C4B29338   6.374  16.571   7.756
 2135POPC   NC329339  11.790  43.101   9.582
 2135POPC   PO429340  12.352  42.720   9.391
 2135POPC   GL129341  12.089  42.883   9.079
 2135POPC   GL229342  12.012  43.216   9.142
 2135POPC   C1A29343  12.208  43.081   8.681
 2135POPC   D2A29344  12.202  43.187   8.265
 2135POPC   C3A29345  12.042  42.917   7.971
 2135POPC   C4A29346  12.406  42.869   7.741
 2135POPC   C1B29347  11.838  43.395   8.811
 2135POPC   C2B29348  11.910  43.561   8.472
 2135POPC   C3B29349  11.901  43.551   8.088
 2135POPC   C4B29350  12.174  43.389   7.760
 2136POPC   NC329351  24.174  22.260   9.570
 2136POPC   PO429352  24.811  21.966   9.520
 2136POPC   GL129353  24.473  21.999   9.212
 2136POPC   GL229354  24.157  21.778   9.275
 2136POPC   C1A29355  24.497  22.151   8.780
 2136POPC   D2A29356  24.638  21.968   8.372
 2136POPC   C3A29357  24.803  22.240   8.049
 2136POPC   C4A29358  24.677  22.341   7.667
 2136POPC   C1B29359  24.039  21.943   8.851
 2136POPC   C2B29360  24.095  22.182   8.438
 2136POPC   C3B29361  24.288  22.177   8.027
 2136POPC   C4B29362  24.340  21.956   7.626
 2137POPC   NC329363  25.455  37.164   9.624
 2137POPC   PO429364  26.100  37.074   9.546
 2137POPC   GL129365  25.816  37.071   9.239
 2137POPC   GL229366  25.994  37.303   9.048
 2137POPC   C1A29367  25.750  36.882   8.844
 2137POPC   D2A29368  25.695  37.070   8.442
 2137POPC   C3A29369  25.693  36.854   8.062
 2137POPC   C4A29370  26.003  36.933   7.769
 2137POPC   C1B29371  26.161  37.110   8.678
 2137POPC   C2B29372  26.202  36.933   8.282
 2137POPC   C3B29373  26.465  36.857   7.913
 2137POPC   C4B29374  26.417  37.137   7.551
 2138POPC   NC329375  17.438   4.758   9.484
 2138POPC   PO429376  17.131   5.341   9.475
 2138POPC   GL129377  17.263   5.394   9.068
 2138POPC   GL229378  17.333   5.050   9.079
 2138POPC   C1A29379  17.540   5.311   8.708
 2138POPC   D2A29380  17.396   5.290   8.311
 2138POPC   C3A29381  17.639   5.166   7.975
 2138POPC   C4A29382  17.278   5.261   7.757
 2138POPC   C1B29383  17.069   5.021   8.760
 2138POPC   C2B29384  17.055   4.733   8.467
 2138POPC   C3B29385  17.211   4.875   8.096
 2138POPC   C4B29386  17.378   4.769   7.741
 2139POPC   NC329387  41.920  28.183   9.371
 2139POPC   PO429388  41.392  28.638   9.457
 2139POPC   GL129389  41.570  28.490   9.106
 2139POPC   GL229390  41.910  28.502   8.952
 2139POPC   C1A29391  41.419  28.449   8.725
 2139POPC   D2A29392  41.668  28.589   8.458
 2139POPC   C3A29393  41.518  28.606   8.078
 2139POPC   C4A29394  41.734  28.444   7.731
 2139POPC   C1B29395  41.787  28.118   8.675
 2139POPC   C2B29396  41.613  28.115   8.244
 2139POPC   C3B29397  41.536  27.982   7.821
 2139POPC   C4B29398  41.751  28.041   7.411
 2140POPC   NC329399  39.285  34.929   9.461
 2140POPC   PO429400  38.846  34.410   9.445
 2140POPC   GL129401  39.124  34.376   9.116
 2140POPC   GL229402  39.479  34.402   9.281
 2140POPC   C1A29403  39.033  34.599   8.690
 2140POPC   D2A29404  38.828  34.746   8.291
 2140POPC   C3A29405  38.964  34.543   7.912
 2140POPC   C4A29406  39.092  34.784   7.565
 2140POPC   C1B29407  39.521  34.571   8.873
 2140POPC   C2B29408  39.506  34.626   8.432
 2140POPC   C3B29409  39.418  34.410   8.069
 2140POPC   C4B29410  39.452  34.458   7.650
 2141POPC   NC329411  18.856  30.734   9.661
 2141POPC   PO429412  19.370  31.156   9.733
 2141POPC   GL129413  19.333  30.853   9.357
 2141POPC   GL229414  19.475  31.052   9.072
 2141POPC   C1A29415  19.020  30.678   9.010
 2141POPC   D2A29416  18.773  30.564   8.611
 2141POPC   C3A29417  18.766  30.838   8.211
 2141POPC   C4A29418  18.956  30.704   7.806
 2141POPC   C1B29419  19.447  30.699   8.742
 2141POPC   C2B29420  19.245  30.742   8.337
 2141POPC   C3B29421  19.266  31.052   7.989
 2141POPC   C4B29422  19.253  31.014   7.507
 2142POPC   NC329423  33.883  28.814   9.516
 2142POPC   PO429424  33.772  28.125   9.491
 2142POPC   GL129425  34.032  28.190   9.131
 2142POPC   GL229426  33.937  28.531   9.096
 2142POPC   C1A29427  34.029  28.246   8.691
 2142POPC   D2A29428  33.895  28.003   8.386
 2142POPC   C3A29429  34.032  28.103   7.999
 2142POPC   C4A29430  34.027  28.428   7.730
 2142POPC   C1B29431  33.574  28.307   8.915
 2142POPC   C2B29432  33.472  28.323   8.519
 2142POPC   C3B29433  33.578  28.309   8.110
 2142POPC   C4B29434  33.517  28.444   7.709
 2143POPC   NC329435   9.358  21.652   9.415
 2143POPC   PO429436   9.904  21.239   9.535
 2143POPC   GL129437   9.705  21.252   9.133
 2143POPC   GL229438   9.739  21.606   9.074
 2143POPC   C1A29439   9.695  21.073   8.715
 2143POPC   D2A29440   9.953  21.136   8.336
 2143POPC   C3A29441   9.716  21.038   7.961
 2143POPC   C4A29442   9.771  21.160   7.514
 2143POPC   C1B29443   9.410  21.500   8.763
 2143POPC   C2B29444   9.532  21.417   8.347
 2143POPC   C3B29445   9.772  21.537   7.996
 2143POPC   C4B29446   9.399  21.400   7.788
 2144POPC   NC329447  33.620   8.506   9.688
 2144POPC   PO429448  33.636   7.881   9.576
 2144POPC   GL129449  33.643   8.044   9.164
 2144POPC   GL229450  33.692   8.382   9.203
 2144POPC   C1A29451  33.829   8.192   8.751
 2144POPC   D2A29452  34.031   8.419   8.382
 2144POPC   C3A29453  34.011   8.253   7.945
 2144POPC   C4A29454  34.331   8.148   7.637
 2144POPC   C1B29455  33.459   8.607   8.908
 2144POPC   C2B29456  33.527   8.721   8.487
 2144POPC   C3B29457  33.625   8.543   8.107
 2144POPC   C4B29458  33.619   8.627   7.709
 2145POPC   NC329459  36.710  16.694   9.574
 2145POPC   PO429460  37.326  17.002   9.351
 2145POPC   GL129461  37.007  16.713   9.137
 2145POPC   GL229462  36.716  16.464   9.118
 2145POPC   C1A29463  36.809  16.730   8.705
 2145POPC   D2A29464  36.800  17.036   8.384
 2145POPC   C3A29465  36.704  16.865   8.034
 2145POPC   C4A29466  36.900  16.725   7.665
 2145POPC   C1B29467  36.384  16.400   8.796
 2145POPC   C2B29468  36.164  16.273   8.433
 2145POPC   C3B29469  36.328  16.324   8.026
 2145POPC   C4B29470  36.380  16.623   7.695
 2146POPC   NC329471   6.388  14.278   9.761
 2146POPC   PO429472   5.820  14.552   9.683
 2146POPC   GL129473   6.015  14.348   9.353
 2146POPC   GL229474   5.682  14.283   9.229
 2146POPC   C1A29475   6.094  14.395   8.908
 2146POPC   D2A29476   5.913  14.483   8.491
 2146POPC   C3A29477   6.039  14.390   8.062
 2146POPC   C4A29478   6.258  14.455   7.671
 2146POPC   C1B29479   5.621  14.190   8.802
 2146POPC   C2B29480   5.479  14.230   8.400
 2146POPC   C3B29481   5.594  14.144   7.962
 2146POPC   C4B29482   5.698  14.343   7.580
 2147POPC   NC329483  17.146   0.986   9.483
 2147POPC   PO429484  17.732   1.267   9.511
 2147POPC   GL129485  17.470   1.195   9.126
 2147POPC   GL229486  17.203   1.451   9.048
 2147POPC   C1A29487  17.384   1.065   8.691
 2147POPC   D2A29488  17.660   1.190   8.387
 2147POPC   C3A29489  17.602   1.070   7.958
 2147POPC   C4A29490  17.890   1.130   7.615
 2147POPC   C1B29491  17.404   1.572   8.656
 2147POPC   C2B29492  17.288   1.472   8.206
 2147POPC   C3B29493  17.151   1.445   7.768
 2147POPC   C4B29494  16.962   1.625   7.369
 2148POPC   NC329495   3.036  18.927   9.241
 2148POPC   PO429496   2.503  19.133   9.635
 2148POPC   GL129497   2.504  18.890   9.215
 2148POPC   GL229498   2.526  19.164   9.084
 2148POPC   C1A29499   2.577  18.770   8.754
 2148POPC   D2A29500   2.442  18.948   8.330
 2148POPC   C3A29501   2.797  18.926   8.006
 2148POPC   C4A29502   2.870  18.747   7.572
 2148POPC   C1B29503   2.668  19.264   8.692
 2148POPC   C2B29504   2.723  19.371   8.275
 2148POPC   C3B29505   2.506  19.370   7.899
 2148POPC   C4B29506   2.823  19.272   7.618
 2149POPC   NC329507  10.316  30.273   9.848
 2149POPC   PO429508   9.803  29.935   9.495
 2149POPC   GL129509   9.416  29.938   9.189
 2149POPC   GL229510   9.241  30.210   8.990
 2149POPC   C1A29511   9.416  29.796   8.757
 2149POPC   D2A29512   9.699  29.664   8.472
 2149POPC   C3A29513   9.591  29.800   8.077
 2149POPC   C4A29514   9.735  29.830   7.699
 2149POPC   C1B29515   9.664  30.247   8.779
 2149POPC   C2B29516   9.793  30.178   8.368
 2149POPC   C3B29517   9.805  30.271   7.942
 2149POPC   C4B29518   9.694  30.303   7.509
 2150POPC   NC329519  35.684  31.546   9.919
 2150POPC   PO429520  36.027  31.108   9.539
 2150POPC   GL129521  35.854  31.353   9.184
 2150POPC   GL229522  35.666  31.117   9.001
 2150POPC   C1A29523  35.923  31.584   8.786
 2150POPC   D2A29524  36.283  31.596   8.476
 2150POPC   C3A29525  36.228  31.771   8.064
 2150POPC   C4A29526  35.936  31.565   7.810
 2150POPC   C1B29527  36.088  31.032   8.858
 2150POPC   C2B29528  36.217  30.964   8.445
 2150POPC   C3B29529  35.997  31.191   8.145
 2150POPC   C4B29530  35.961  31.066   7.723
 2151POPC   NC329531   2.503  23.039   9.508
 2151POPC   PO429532   3.118  23.130   9.711
 2151POPC   GL129533   2.962  23.194   9.216
 2151POPC   GL229534   2.774  22.903   9.108
 2151POPC   C1A29535   2.955  23.097   8.692
 2151POPC   D2A29536   2.703  23.048   8.284
 2151POPC   C3A29537   2.971  23.172   7.894
 2151POPC   C4A29538   3.147  22.875   7.565
 2151POPC   C1B29539   2.517  22.808   8.740
 2151POPC   C2B29540   2.284  22.636   8.426
 2151POPC   C3B29541   2.393  22.674   8.012
 2151POPC   C4B29542   2.484  23.064   7.808
 2152POPC   NC329543   3.935   9.464   9.400
 2152POPC   PO429544   3.395   9.827   9.588
 2152POPC   GL129545   3.312   9.709   9.156
 2152POPC   GL229546   3.606   9.920   9.117
 2152POPC   C1A29547   3.322   9.806   8.697
 2152POPC   D2A29548   3.248  10.064   8.301
 2152POPC   C3A29549   3.301   9.738   7.962
 2152POPC   C4A29550   3.723   9.538   8.026
 2152POPC   C1B29551   3.843   9.794   8.780
 2152POPC   C2B29552   3.747   9.941   8.397
 2152POPC   C3B29553   3.676  10.066   8.019
 2152POPC   C4B29554   3.750   9.900   7.657
 2153POPC   NC329555   1.060  13.319   9.430
 2153POPC   PO429556   1.457  13.855   9.428
 2153POPC   GL129557   1.407  13.532   9.083
 2153POPC   GL229558   1.093  13.628   9.008
 2153POPC   C1A29559   1.329  13.368   8.639
 2153POPC   D2A29560   0.992  13.409   8.286
 2153POPC   C3A29561   1.213  13.541   7.915
 2153POPC   C4A29562   1.659  13.463   7.828
 2153POPC   C1B29563   0.785  13.847   8.783
 2153POPC   C2B29564   0.681  13.891   8.331
 2153POPC   C3B29565   0.727  13.939   7.861
 2153POPC   C4B29566   0.829  13.661   7.530
 2154POPC   NC329567  13.274  26.243  10.064
 2154POPC   PO429568  12.831  26.207   9.596
 2154POPC   GL129569  12.726  26.239   9.184
 2154POPC   GL229570  13.032  26.374   9.095
 2154POPC   C1A29571  12.633  26.147   8.751
 2154POPC   D2A29572  12.501  25.921   8.371
 2154POPC   C3A29573  12.638  26.064   7.989
 2154POPC   C4A29574  12.843  25.815   7.716
 2154POPC   C1B29575  13.140  26.214   8.723
 2154POPC   C2B29576  12.985  26.308   8.315
 2154POPC   C3B29577  13.174  26.386   7.917
 2154POPC   C4B29578  13.176  26.179   7.507
 2155POPC   NC329579  31.751  41.257   9.702
 2155POPC   PO429580  31.333  41.805   9.557
 2155POPC   GL129581  31.432  41.800   9.086
 2155POPC   GL229582  31.768  41.836   9.011
 2155POPC   C1A29583  31.471  41.660   8.616
 2155POPC   D2A29584  31.629  41.451   8.221
 2155POPC   C3A29585  31.364  41.379   7.884
 2155POPC   C4A29586  31.244  41.479   7.451
 2155POPC   C1B29587  31.777  42.058   8.641
 2155POPC   C2B29588  31.680  41.977   8.216
 2155POPC   C3B29589  31.346  41.890   7.901
 2155POPC   C4B29590  31.426  41.954   7.455
 2156POPC   NC329591  28.931   6.125   9.573
 2156POPC   PO429592  28.899   5.522   9.338
 2156POPC   GL129593  28.980   5.884   9.116
 2156POPC   GL229594  29.200   6.135   9.127
 2156POPC   C1A29595  28.919   5.998   8.718
 2156POPC   D2A29596  28.886   5.661   8.454
 2156POPC   C3A29597  28.904   5.925   8.131
 2156POPC   C4A29598  28.736   5.866   7.746
 2156POPC   C1B29599  29.386   5.796   8.835
 2156POPC   C2B29600  29.390   5.701   8.414
 2156POPC   C3B29601  29.382   5.698   7.983
 2156POPC   C4B29602  29.647   5.545   7.642
 2157POPC   NC329603   2.229  22.203   9.572
 2157POPC   PO429604   1.756  22.587   9.395
 2157POPC   GL129605   1.691  22.309   9.075
 2157POPC   GL229606   2.006  22.184   9.109
 2157POPC   C1A29607   1.725  21.998   8.716
 2157POPC   D2A29608   1.700  22.016   8.261
 2157POPC   C3A29609   1.920  22.052   7.834
 2157POPC   C4A29610   1.824  21.800   7.430
 2157POPC   C1B29611   2.361  22.347   8.897
 2157POPC   C2B29612   2.509  22.173   8.545
 2157POPC   C3B29613   2.279  22.182   8.160
 2157POPC   C4B29614   2.358  22.274   7.720
 2158POPC   NC329615  35.148  34.301   9.432
 2158POPC   PO429616  35.357  34.931   9.480
 2158POPC   GL129617  35.217  34.725   9.123
 2158POPC   GL229618  35.483  34.452   9.093
 2158POPC   C1A29619  35.247  34.672   8.680
 2158POPC   D2A29620  35.086  34.348   8.424
 2158POPC   C3A29621  35.098  34.520   8.022
 2158POPC   C4A29622  35.130  34.453   7.586
 2158POPC   C1B29623  35.516  34.235   8.695
 2158POPC   C2B29624  35.579  34.389   8.290
 2158POPC   C3B29625  35.531  34.303   7.863
 2158POPC   C4B29626  35.546  34.224   7.384
 2159POPC   NC329627  14.575  35.392   9.727
 2159POPC   PO429628  14.110  35.691   9.444
 2159POPC   GL129629  14.300  35.511   9.101
 2159POPC   GL229630  14.450  35.193   9.232
 2159POPC   C1A29631  14.241  35.504   8.655
 2159POPC   D2A29632  14.067  35.627   8.261
 2159POPC   C3A29633  14.286  35.398   7.987
 2159POPC   C4A29634  14.712  35.472   7.864
 2159POPC   C1B29635  14.288  35.029   8.808
 2159POPC   C2B29636  14.474  35.141   8.389
 2159POPC   C3B29637  14.492  34.894   8.034
 2159POPC   C4B29638  14.482  35.069   7.636
 2160POPC   NC329639  43.105  14.922   9.512
 2160POPC   PO429640  43.522  15.491   9.434
 2160POPC   GL129641  43.334  15.200   9.146
 2160POPC   GL229642  42.948  15.203   9.123
 2160POPC   C1A29643  43.316  15.025   8.756
 2160POPC   D2A29644  43.162  14.857   8.402
 2160POPC   C3A29645  43.332  15.089   8.094
 2160POPC   C4A29646  43.373  15.092   7.698
 2160POPC   C1B29647  42.812  15.090   8.712
 2160POPC   C2B29648  42.676  14.991   8.273
 2160POPC   C3B29649  42.895  14.928   7.844
 2160POPC   C4B29650  42.741  14.820   7.425
 2161POPC   NC329651   9.293  27.039   9.473
 2161POPC   PO429652   9.352  26.352   9.399
 2161POPC   GL129653   9.109  26.680   9.167
 2161POPC   GL229654   8.788  26.616   9.131
 2161POPC   C1A29655   9.087  26.980   8.810
 2161POPC   D2A29656   9.187  26.867   8.396
 2161POPC   C3A29657   9.021  26.965   7.991
 2161POPC   C4A29658   8.795  26.664   7.722
 2161POPC   C1B29659   8.579  26.907   8.832
 2161POPC   C2B29660   8.695  27.015   8.419
 2161POPC   C3B29661   8.509  27.000   8.028
 2161POPC   C4B29662   8.680  27.153   7.648
 2162POPC   NC329663   3.971  32.248   9.904
 2162POPC   PO429664   3.473  32.443   9.402
 2162POPC   GL129665   3.573  32.314   9.029
 2162POPC   GL229666   3.841  32.539   8.908
 2162POPC   C1A29667   3.682  32.081   8.711
 2162POPC   D2A29668   3.436  31.969   8.396
 2162POPC   C3A29669   3.632  32.107   8.101
 2162POPC   C4A29670   3.684  31.916   7.760
 2162POPC   C1B29671   3.713  32.551   8.498
 2162POPC   C2B29672   3.729  32.617   8.074
 2162POPC   C3B29673   3.731  32.420   7.690
 2162POPC   C4B29674   3.295  32.359   7.805
 2163POPC   NC329675  33.250  13.594   9.632
 2163POPC   PO429676  32.614  13.553   9.425
 2163POPC   GL129677  32.942  13.693   9.187
 2163POPC   GL229678  33.182  13.425   9.167
 2163POPC   C1A29679  33.038  13.777   8.753
 2163POPC   D2A29680  33.351  13.867   8.428
 2163POPC   C3A29681  33.353  13.688   8.007
 2163POPC   C4A29682  33.345  13.751   7.532
 2163POPC   C1B29683  33.084  13.254   8.792
 2163POPC   C2B29684  33.274  13.326   8.417
 2163POPC   C3B29685  33.073  13.265   8.061
 2163POPC   C4B29686  32.931  13.532   7.728
 2164POPC   NC329687   2.581  14.903   9.791
 2164POPC   PO429688   2.790  15.519   9.669
 2164POPC   GL129689   2.794  15.347   9.225
 2164POPC   GL229690   2.845  15.053   9.359
 2164POPC   C1A29691   2.608  15.341   8.812
 2164POPC   D2A29692   2.674  15.070   8.472
 2164POPC   C3A29693   2.463  15.162   8.103
 2164POPC   C4A29694   2.705  15.394   7.825
 2164POPC   C1B29695   2.915  14.886   8.938
 2164POPC   C2B29696   3.141  14.876   8.549
 2164POPC   C3B29697   3.115  14.917   8.115
 2164POPC   C4B29698   2.826  14.891   7.796
 2165POPC   NC329699  14.815  31.177   9.535
 2165POPC   PO429700  14.308  31.548   9.609
 2165POPC   GL129701  14.468  31.410   9.204
 2165POPC   GL229702  14.401  31.758   9.114
 2165POPC   C1A29703  14.555  31.425   8.737
 2165POPC   D2A29704  14.494  31.171   8.357
 2165POPC   C3A29705  14.447  31.387   7.951
 2165POPC   C4A29706  14.632  31.782   7.815
 2165POPC   C1B29707  14.127  31.747   8.766
 2165POPC   C2B29708  14.236  31.642   8.352
 2165POPC   C3B29709  14.095  31.770   7.945
 2165POPC   C4B29710  14.207  31.680   7.504
 2166POPC   NC329711  40.825  34.192   9.411
 2166POPC   PO429712  40.490  34.782   9.537
 2166POPC   GL129713  40.866  34.795   9.225
 2166POPC   GL229714  40.850  34.526   9.045
 2166POPC   C1A29715  41.151  34.864   8.841
 2166POPC   D2A29716  40.916  34.622   8.511
 2166POPC   C3A29717  40.814  34.515   8.076
 2166POPC   C4A29718  41.094  34.533   7.665
 2166POPC   C1B29719  40.742  34.214   8.778
 2166POPC   C2B29720  40.713  33.952   8.472
 2166POPC   C3B29721  40.870  33.997   8.060
 2166POPC   C4B29722  40.732  34.177   7.696
 2167POPC   NC329723   2.109  27.202   9.542
 2167POPC   PO429724   1.680  26.695   9.404
 2167POPC   GL129725   1.819  26.941   9.126
 2167POPC   GL229726   2.163  26.889   9.124
 2167POPC   C1A29727   1.774  26.962   8.697
 2167POPC   D2A29728   1.971  27.109   8.316
 2167POPC   C3A29729   1.721  27.004   7.972
 2167POPC   C4A29730   1.757  26.906   7.545
 2167POPC   C1B29731   2.303  26.958   8.691
 2167POPC   C2B29732   2.282  26.700   8.290
 2167POPC   C3B29733   2.129  26.644   7.849
 2167POPC   C4B29734   2.229  26.825   7.416
 2168POPC   NC329735  34.169  22.852   9.331
 2168POPC   PO429736  33.515  22.800   9.534
 2168POPC   GL129737  33.700  22.796   9.141
 2168POPC   GL229738  33.838  23.144   9.071
 2168POPC   C1A29739  33.793  22.800   8.691
 2168POPC   D2A29740  33.969  22.898   8.314
 2168POPC   C3A29741  33.895  22.620   8.032
 2168POPC   C4A29742  33.674  22.643   7.663
 2168POPC   C1B29743  34.064  23.238   8.679
 2168POPC   C2B29744  34.233  23.343   8.265
 2168POPC   C3B29745  34.161  23.352   7.803
 2168POPC   C4B29746  33.994  23.006   7.502
 2169POPC   NC329747  33.977  41.360   9.449
 2169POPC   PO429748  34.618  41.655   9.472
 2169POPC   GL129749  34.454  41.390   9.184
 2169POPC   GL229750  34.769  41.458   8.979
 2169POPC   C1A29751  34.344  41.318   8.761
 2169POPC   D2A29752  34.560  41.574   8.444
 2169POPC   C3A29753  34.558  41.457   8.061
 2169POPC   C4A29754  34.838  41.382   7.729
 2169POPC   C1B29755  34.464  41.840   8.858
 2169POPC   C2B29756  34.310  42.059   8.464
 2169POPC   C3B29757  34.263  41.890   8.050
 2169POPC   C4B29758  34.558  41.811   7.690
 2170POPC   NC329759  29.248  10.936   9.487
 2170POPC   PO429760  28.985  10.296   9.603
 2170POPC   GL129761  28.920  10.578   9.241
 2170POPC   GL229762  29.135  10.348   9.115
 2170POPC   C1A29763  29.138  10.775   8.832
 2170POPC   D2A29764  29.339  10.635   8.401
 2170POPC   C3A29765  29.111  10.601   8.035
 2170POPC   C4A29766  28.946  10.862   7.731
 2170POPC   C1B29767  29.316  10.279   8.756
 2170POPC   C2B29768  29.056  10.213   8.393
 2170POPC   C3B29769  28.969  10.094   7.981
 2170POPC   C4B29770  28.976  10.212   7.559
 2171POPC   NC329771  33.031  28.695   9.506
 2171POPC   PO429772  32.789  28.113   9.513
 2171POPC   GL129773  32.813  28.367   9.139
 2171POPC   GL229774  33.131  28.531   9.039
 2171POPC   C1A29775  32.650  28.390   8.730
 2171POPC   D2A29776  32.673  28.627   8.328
 2171POPC   C3A29777  32.780  28.423   7.953
 2171POPC   C4A29778  32.918  28.236   7.602
 2171POPC   C1B29779  33.101  28.674   8.619
 2171POPC   C2B29780  33.188  28.665   8.166
 2171POPC   C3B29781  33.112  28.738   7.721
 2171POPC   C4B29782  33.378  28.734   7.312
 2172POPC   NC329783  37.202  43.927   9.459
 2172POPC   PO429784  36.533  43.798   9.392
 2172POPC   GL129785  36.804  43.867   9.080
 2172POPC   GL229786  37.052  43.602   9.098
 2172POPC   C1A29787  36.791  44.129   8.717
 2172POPC   D2A29788  36.787  44.239   8.301
 2172POPC   C3A29789  36.633  43.948   8.035
 2172POPC   C4A29790  36.761  43.859   7.607
 2172POPC   C1B29791  37.235  43.872   8.797
 2172POPC   C2B29792  37.234  43.997   8.380
 2172POPC   C3B29793  37.127  43.861   7.952
 2172POPC   C4B29794  37.245  44.034   7.529
 2173POPC   NC329795  16.447   6.384   9.495
 2173POPC   PO429796  16.408   5.722   9.601
 2173POPC   GL129797  16.694   5.557   9.259
 2173POPC   GL229798  16.949   5.824   9.185
 2173POPC   C1A29799  16.831   5.495   8.811
 2173POPC   D2A29800  16.762   5.729   8.442
 2173POPC   C3A29801  17.001   5.663   8.060
 2173POPC   C4A29802  16.658   5.754   7.766
 2173POPC   C1B29803  16.907   6.111   8.797
 2173POPC   C2B29804  17.097   6.101   8.365
 2173POPC   C3B29805  16.884   6.146   7.980
 2173POPC   C4B29806  16.493   6.235   7.798
 2174POPC   NC329807  34.103  44.453   9.493
 2174POPC   PO429808  33.970   0.024   9.817
 2174POPC   GL129809  33.895  44.903   9.349
 2174POPC   GL229810  34.153  44.810   9.110
 2174POPC   C1A29811  33.659  44.919   8.945
 2174POPC   D2A29812  33.503  44.918   8.506
 2174POPC   C3A29813  33.671  44.664   8.167
 2174POPC   C4A29814  33.596  44.683   7.728
 2174POPC   C1B29815  34.049  44.682   8.682
 2174POPC   C2B29816  34.159  44.866   8.268
 2174POPC   C3B29817  34.089  44.748   7.840
 2174POPC   C4B29818  33.969  44.666   7.391
 2175POPC   NC329819  44.282  36.984   9.512
 2175POPC   PO429820  44.782  36.588   9.490
 2175POPC   GL129821  44.722  36.880   9.191
 2175POPC   GL229822   0.034  37.058   9.134
 2175POPC   C1A29823  44.600  36.782   8.796
 2175POPC   D2A29824  44.742  36.654   8.422
 2175POPC   C3A29825  44.735  36.864   8.076
 2175POPC   C4A29826  44.767  36.753   7.634
 2175POPC   C1B29827   0.114  36.811   8.746
 2175POPC   C2B29828   0.224  36.836   8.296
 2175POPC   C3B29829   0.214  36.841   7.850
 2175POPC   C4B29830   0.115  37.130   7.532
 2176POPC   NC329831   0.285  19.547   9.351
 2176POPC   PO429832   0.498  20.162   9.582
 2176POPC   GL129833   0.586  19.946   9.208
 2176POPC   GL229834   0.331  20.151   9.082
 2176POPC   C1A29835   0.635  19.803   8.787
 2176POPC   D2A29836   0.419  19.711   8.411
 2176POPC   C3A29837   0.598  19.944   8.118
 2176POPC   C4A29838   0.623  19.929   7.702
 2176POPC   C1B29839   0.124  20.020   8.712
 2176POPC   C2B29840  44.989  19.933   8.283
 2176POPC   C3B29841   0.134  20.026   7.891
 2176POPC   C4B29842   0.263  20.255   7.499
 2177POPC   NC329843   4.109  25.802   9.834
 2177POPC   PO429844   4.332  25.189   9.562
 2177POPC   GL129845   4.314  25.157   9.130
 2177POPC   GL229846   4.012  25.351   9.163
 2177POPC   C1A29847   4.580  25.193   8.750
 2177POPC   D2A29848   4.707  25.479   8.427
 2177POPC   C3A29849   4.536  25.430   8.025
 2177POPC   C4A29850   4.449  25.042   7.806
 2177POPC   C1B29851   4.147  25.487   8.762
 2177POPC   C2B29852   4.192  25.273   8.387
 2177POPC   C3B29853   4.012  25.318   7.983
 2177POPC   C4B29854   3.975  25.464   7.564
 2178POPC   NC329855  43.453  27.138   9.332
 2178POPC   PO429856  43.948  27.627   9.430
 2178POPC   GL129857  43.847  27.390   9.101
 2178POPC   GL229858  44.152  27.264   9.034
 2178POPC   C1A29859  43.654  27.462   8.714
 2178POPC   D2A29860  43.812  27.643   8.353
 2178POPC   C3A29861  43.657  27.551   7.983
 2178POPC   C4A29862  43.471  27.236   7.768
 2178POPC   C1B29863  44.175  27.609   8.716
 2178POPC   C2B29864  44.309  27.633   8.275
 2178POPC   C3B29865  44.226  27.626   7.826
 2178POPC   C4B29866  44.145  27.656   7.358
 2179POPC   NC329867  35.315  32.900   9.472
 2179POPC   PO429868  35.116  33.544   9.341
 2179POPC   GL129869  35.342  33.219   9.091
 2179POPC   GL229870  35.656  33.027   9.131
 2179POPC   C1A29871  35.408  33.047   8.679
 2179POPC   D2A29872  35.347  33.411   8.426
 2179POPC   C3A29873  35.192  33.453   8.008
 2179POPC   C4A29874  34.834  33.210   7.881
 2179POPC   C1B29875  35.814  32.743   8.818
 2179POPC   C2B29876  35.705  32.584   8.421
 2179POPC   C3B29877  35.777  32.789   8.046
 2179POPC   C4B29878  35.560  33.108   7.847
 2180POPC   NC329879   8.592  36.959   9.425
 2180POPC   PO429880   9.236  36.901   9.493
 2180POPC   GL129881   9.099  36.800   9.116
 2180POPC   GL229882   8.785  36.606   9.109
 2180POPC   C1A29883   9.234  36.710   8.728
 2180POPC   D2A29884   9.039  36.534   8.393
 2180POPC   C3A29885   9.243  36.714   8.062
 2180POPC   C4A29886   9.174  36.798   7.617
 2180POPC   C1B29887   8.749  36.911   8.764
 2180POPC   C2B29888   8.901  37.028   8.364
 2180POPC   C3B29889   8.803  36.955   7.925
 2180POPC   C4B29890   8.789  37.102   7.458
 2181POPC   NC329891  28.289  11.297   9.555
 2181POPC   PO429892  28.958  11.295   9.581
 2181POPC   GL129893  28.745  11.086   9.226
 2181POPC   GL229894  28.482  11.315   9.100
 2181POPC   C1A29895  28.699  11.020   8.766
 2181POPC   D2A29896  28.362  10.990   8.467
 2181POPC   C3A29897  28.308  11.319   8.130
 2181POPC   C4A29898  28.562  11.229   7.730
 2181POPC   C1B29899  28.235  11.443   8.718
 2181POPC   C2B29900  27.972  11.670   8.398
 2181POPC   C3B29901  27.968  11.816   7.976
 2181POPC   C4B29902  28.212  11.603   7.675
 2182POPC   NC329903   1.756  38.686   9.561
 2182POPC   PO429904   2.359  38.393   9.642
 2182POPC   GL129905   2.188  38.493   9.229
 2182POPC   GL229906   1.862  38.523   9.105
 2182POPC   C1A29907   2.179  38.292   8.811
 2182POPC   D2A29908   1.985  38.536   8.476
 2182POPC   C3A29909   2.139  38.488   8.065
 2182POPC   C4A29910   2.244  38.790   7.757
 2182POPC   C1B29911   1.564  38.464   8.764
 2182POPC   C2B29912   1.543  38.337   8.339
 2182POPC   C3B29913   1.604  38.204   7.937
 2182POPC   C4B29914   1.825  38.457   7.654
 2183POPC   NC329915  31.772  10.720   9.520
 2183POPC   PO429916  32.483  10.409   9.479
 2183POPC   GL129917  32.300  10.582   9.140
 2183POPC   GL229918  32.466  10.830   9.067
 2183POPC   C1A29919  32.230  10.463   8.733
 2183POPC   D2A29920  32.350  10.493   8.346
 2183POPC   C3A29921  32.114  10.356   8.019
 2183POPC   C4A29922  32.282  10.404   7.620
 2183POPC   C1B29923  32.519  10.950   8.681
 2183POPC   C2B29924  32.367  11.050   8.318
 2183POPC   C3B29925  32.376  10.818   7.948
 2183POPC   C4B29926  32.580  10.909   7.590
 2184POPC   NC329927  39.560  19.762   9.479
 2184POPC   PO429928  38.994  20.071   9.557
 2184POPC   GL129929  39.233  20.025   9.165
 2184POPC   GL229930  39.263  19.702   9.067
 2184POPC   C1A29931  39.258  20.114   8.709
 2184POPC   D2A29932  39.270  20.316   8.281
 2184POPC   C3A29933  39.379  19.976   7.976
 2184POPC   C4A29934  39.215  19.567   7.762
 2184POPC   C1B29935  39.533  19.499   8.788
 2184POPC   C2B29936  39.604  19.264   8.398
 2184POPC   C3B29937  39.662  19.443   7.954
 2184POPC   C4B29938  39.644  19.419   7.500
 2185POPC   NC329939  16.636  26.804   9.703
 2185POPC   PO429940  16.919  26.411   9.316
 2185POPC   GL129941  16.949  26.688   9.041
 2185POPC   GL229942  16.656  26.887   9.158
 2185POPC   C1A29943  17.071  26.533   8.647
 2185POPC   D2A29944  17.045  26.319   8.264
 2185POPC   C3A29945  17.147  26.616   7.937
 2185POPC   C4A29946  16.816  26.823   7.717
 2185POPC   C1B29947  16.566  26.694   8.727
 2185POPC   C2B29948  16.714  26.735   8.297
 2185POPC   C3B29949  16.395  26.669   8.008
 2185POPC   C4B29950  16.229  26.393   7.683
 2186POPC   NC329951  26.164  38.249   9.587
 2186POPC   PO429952  25.849  38.814   9.413
 2186POPC   GL129953  26.021  38.489   9.162
 2186POPC   GL229954  26.191  38.726   9.033
 2186POPC   C1A29955  26.218  38.290   8.771
 2186POPC   D2A29956  26.331  37.958   8.495
 2186POPC   C3A29957  26.290  38.147   8.105
 2186POPC   C4A29958  26.052  38.100   7.751
 2186POPC   C1B29959  25.883  38.672   8.714
 2186POPC   C2B29960  25.945  38.484   8.335
 2186POPC   C3B29961  25.896  38.594   7.917
 2186POPC   C4B29962  26.199  38.626   7.634
 2187POPC   NC329963  44.281  14.591   9.580
 2187POPC   PO429964  43.565  14.767   9.456
 2187POPC   GL129965  43.777  14.590   9.133
 2187POPC   GL229966  44.110  14.623   9.065
 2187POPC   C1A29967  43.660  14.415   8.751
 2187POPC   D2A29968  43.503  14.311   8.355
 2187POPC   C3A29969  43.802  14.368   8.041
 2187POPC   C4A29970  43.953  14.215   7.648
 2187POPC   C1B29971  44.161  14.517   8.634
 2187POPC   C2B29972  44.219  14.682   8.220
 2187POPC   C3B29973  44.199  14.639   7.772
 2187POPC   C4B29974  44.194  14.577   7.307
 2188POPC   NC329975  34.831  17.224   9.419
 2188POPC   PO429976  34.326  17.617   9.623
 2188POPC   GL129977  34.392  17.435   9.226
 2188POPC   GL229978  34.231  17.099   9.208
 2188POPC   C1A29979  34.563  17.574   8.799
 2188POPC   D2A29980  34.457  17.663   8.352
 2188POPC   C3A29981  34.591  17.572   7.925
 2188POPC   C4A29982  34.402  17.609   7.503
 2188POPC   C1B29983  34.182  17.205   8.831
 2188POPC   C2B29984  34.415  17.164   8.498
 2188POPC   C3B29985  34.245  17.237   8.126
 2188POPC   C4B29986  34.264  17.187   7.713
 2189POPC   NC329987  12.298  42.314   9.603
 2189POPC   PO429988  11.624  42.604   9.607
 2189POPC   GL129989  11.896  42.415   9.259
 2189POPC   GL229990  12.016  42.045   9.274
 2189POPC   C1A29991  12.050  42.425   8.832
 2189POPC   D2A29992  12.054  42.652   8.439
 2189POPC   C3A29993  12.187  42.419   8.072
 2189POPC   C4A29994  12.076  42.476   7.641
 2189POPC   C1B29995  11.748  42.002   8.927
 2189POPC   C2B29996  11.829  42.107   8.490
 2189POPC   C3B29997  11.882  41.959   8.099
 2189POPC   C4B29998  11.903  42.011   7.668
 2190POPC   NC329999   2.595  41.730   9.423
 2190POPC   PO430000   2.568  42.463   9.507
 2190POPC   GL130001   2.770  42.443   9.065
 2190POPC   GL230002   3.099  42.295   9.015
 2190POPC   C1A30003   2.773  42.412   8.615
 2190POPC   D2A30004   2.714  42.173   8.245
 2190POPC   C3A30005   2.776  42.406   7.889
 2190POPC   C4A30006   2.729  42.706   7.594
 2190POPC   C1B30007   3.269  42.561   8.678
 2190POPC   C2B30008   3.196  42.819   8.335
 2190POPC   C3B30009   3.132  42.800   7.910
 2190POPC   C4B30010   3.386  42.571   7.663
 2191POPC   NC330011   1.649   4.418   9.694
 2191POPC   PO430012   2.283   4.256   9.652
 2191POPC   GL130013   1.979   4.191   9.283
 2191POPC   GL230014   1.856   4.527   9.226
 2191POPC   C1A30015   1.796   4.117   8.823
 2191POPC   D2A30016   1.949   4.267   8.402
 2191POPC   C3A30017   1.837   4.335   7.978
 2191POPC   C4A30018   1.975   4.029   7.686
 2191POPC   C1B30019   1.906   4.615   8.781
 2191POPC   C2B30020   2.279   4.601   8.574
 2191POPC   C3B30021   2.327   4.553   8.155
 2191POPC   C4B30022   2.332   4.426   7.757
 2192POPC   NC330023  14.894  44.953   9.735
 2192POPC   PO430024  15.115   0.654   9.528
 2192POPC   GL130025  15.265   0.458   9.199
 2192POPC   GL230026  15.615   0.526   9.231
 2192POPC   C1A30027  15.121   0.367   8.793
 2192POPC   D2A30028  14.888   0.409   8.427
 2192POPC   C3A30029  15.108   0.257   8.079
 2192POPC   C4A30030  15.017   0.375   7.657
 2192POPC   C1B30031  15.493   0.724   8.818
 2192POPC   C2B30032  15.444   0.615   8.352
 2192POPC   C3B30033  15.410   0.628   7.881
 2192POPC   C4B30034  15.361   0.712   7.394
 2193POPC   NC330035  11.883  28.678   9.327
 2193POPC   PO430036  12.041  27.984   9.355
 2193POPC   GL130037  11.803  28.014   9.047
 2193POPC   GL230038  11.700  28.299   9.047
 2193POPC   C1A30039  12.066  28.122   8.699
 2193POPC   D2A30040  12.390  28.010   8.404
 2193POPC   C3A30041  12.159  28.128   8.040
 2193POPC   C4A30042  12.110  28.575   7.989
 2193POPC   C1B30043  11.767  28.562   8.671
 2193POPC   C2B30044  11.588  28.691   8.280
 2193POPC   C3B30045  11.711  28.847   7.875
 2193POPC   C4B30046  11.791  28.546   7.560
 2194POPC   NC330047  12.177   7.062   9.280
 2194POPC   PO430048  11.949   7.483   9.778
 2194POPC   GL130049  11.914   7.502   9.331
 2194POPC   GL230050  12.237   7.569   9.169
 2194POPC   C1A30051  11.782   7.424   8.899
 2194POPC   D2A30052  12.061   7.382   8.522
 2194POPC   C3A30053  11.825   7.394   8.110
 2194POPC   C4A30054  11.903   7.423   7.687
 2194POPC   C1B30055  12.525   7.549   8.820
 2194POPC   C2B30056  12.641   7.470   8.405
 2194POPC   C3B30057  12.343   7.492   8.084
 2194POPC   C4B30058  12.439   7.368   7.679
 2195POPC   NC330059  27.386  15.364   9.519
 2195POPC   PO430060  27.854  14.907   9.585
 2195POPC   GL130061  27.634  15.019   9.206
 2195POPC   GL230062  27.356  14.798   9.177
 2195POPC   C1A30063  27.622  15.250   8.800
 2195POPC   D2A30064  27.830  15.280   8.384
 2195POPC   C3A30065  27.592  15.307   7.979
 2195POPC   C4A30066  27.486  15.378   7.530
 2195POPC   C1B30067  27.535  14.714   8.804
 2195POPC   C2B30068  27.549  14.845   8.439
 2195POPC   C3B30069  27.595  14.677   8.071
 2195POPC   C4B30070  27.505  14.877   7.694
 2196POPC   NC330071   3.657  44.871   9.403
 2196POPC   PO430072   3.577   0.512   9.527
 2196POPC   GL130073   3.553   0.377   9.164
 2196POPC   GL230074   3.914   0.264   9.164
 2196POPC   C1A30075   3.703   0.565   8.793
 2196POPC   D2A30076   3.816   0.388   8.410
 2196POPC   C3A30077   3.721   0.713   8.158
 2196POPC   C4A30078   3.451   0.671   7.829
 2196POPC   C1B30079   3.673   0.049   8.799
 2196POPC   C2B30080   3.457   0.000   8.413
 2196POPC   C3B30081   3.528   0.185   8.007
 2196POPC   C4B30082   3.880   0.366   7.823
 2197POPC   NC330083  10.590  10.794   9.744
 2197POPC   PO430084  10.679  10.190   9.679
 2197POPC   GL130085  10.581  10.490   9.330
 2197POPC   GL230086  10.252  10.650   9.209
 2197POPC   C1A30087  10.679  10.577   8.908
 2197POPC   D2A30088  10.477  10.468   8.532
 2197POPC   C3A30089  10.735  10.525   8.153
 2197POPC   C4A30090  10.537  10.549   7.735
 2197POPC   C1B30091  10.318  10.945   8.853
 2197POPC   C2B30092  10.175  10.901   8.448
 2197POPC   C3B30093  10.186  10.597   8.125
 2197POPC   C4B30094  10.123  10.854   7.762
 2198POPC   NC330095  32.353  11.533   9.569
 2198POPC   PO430096  31.887  11.158   9.683
 2198POPC   GL130097  32.108  11.126   9.296
 2198POPC   GL230098  31.923  10.926   9.071
 2198POPC   C1A30099  32.234  11.331   8.905
 2198POPC   D2A30100  32.185  11.579   8.505
 2198POPC   C3A30101  32.441  11.515   8.114
 2198POPC   C4A30102  32.666  11.790   7.812
 2198POPC   C1B30103  31.997  10.886   8.648
 2198POPC   C2B30104  31.915  10.810   8.207
 2198POPC   C3B30105  32.041  11.187   7.921
 2198POPC   C4B30106  32.127  11.152   7.467
 2199POPC   NC330107  19.334  14.291   9.354
 2199POPC   PO430108  18.770  14.623   9.522
 2199POPC   GL130109  18.948  14.525   9.129
 2199POPC   GL230110  18.708  14.303   9.014
 2199POPC   C1A30111  19.139  14.328   8.739
 2199POPC   D2A30112  19.135  13.987   8.425
 2199POPC   C3A30113  19.173  14.178   8.008
 2199POPC   C4A30114  19.266  14.520   7.708
 2199POPC   C1B30115  18.696  14.639   8.720
 2199POPC   C2B30116  18.561  14.628   8.307
 2199POPC   C3B30117  18.778  14.634   7.949
 2199POPC   C4B30118  18.791  14.566   7.541
 2200POPC   NC330119  26.605  14.265   9.487
 2200POPC   PO430120  27.081  14.738   9.591
 2200POPC   GL130121  26.842  14.607   9.212
 2200POPC   GL230122  27.086  14.352   9.118
 2200POPC   C1A30123  26.580  14.423   8.835
 2200POPC   D2A30124  26.761  14.377   8.405
 2200POPC   C3A30125  26.589  14.248   8.020
 2200POPC   C4A30126  26.645  14.521   7.690
 2200POPC   C1B30127  27.043  14.634   8.761
 2200POPC   C2B30128  27.041  14.820   8.345
 2200POPC   C3B30129  27.092  14.604   7.936
 2200POPC   C4B30130  27.136  14.594   7.465
 2201POPC   NC330131   6.247  27.346   9.229
 2201POPC   PO430132   6.072  26.792   9.627
 2201POPC   GL130133   5.826  26.859   9.184
 2201POPC   GL230134   6.109  26.898   8.970
 2201POPC   C1A30135   5.681  26.971   8.733
 2201POPC   D2A30136   5.917  27.173   8.399
 2201POPC   C3A30137   5.900  26.978   8.028
 2201POPC   C4A30138   5.859  26.829   7.610
 2201POPC   C1B30139   5.890  26.513   8.757
 2201POPC   C2B30140   5.647  26.546   8.367
 2201POPC   C3B30141   5.863  26.452   7.986
 2201POPC   C4B30142   6.282  26.215   7.972
 2202POPC   NC330143  17.822  21.694   9.560
 2202POPC   PO430144  17.329  21.231   9.522
 2202POPC   GL130145  17.420  21.572   9.244
 2202POPC   GL230146  17.746  21.624   9.070
 2202POPC   C1A30147  17.172  21.721   8.902
 2202POPC   D2A30148  17.046  21.627   8.466
 2202POPC   C3A30149  17.276  21.483   8.101
 2202POPC   C4A30150  17.071  21.503   7.699
 2202POPC   C1B30151  17.543  21.358   8.792
 2202POPC   C2B30152  17.657  21.177   8.431
 2202POPC   C3B30153  17.660  21.113   8.009
 2202POPC   C4B30154  17.564  21.380   7.658
 2203POPC   NC330155  18.839  38.693   9.487
 2203POPC   PO430156  19.097  38.075   9.489
 2203POPC   GL130157  18.949  38.229   9.109
 2203POPC   GL230158  19.004  38.565   9.038
 2203POPC   C1A30159  18.821  38.201   8.695
 2203POPC   D2A30160  18.877  37.977   8.305
 2203POPC   C3A30161  18.932  38.294   7.998
 2203POPC   C4A30162  19.227  38.579   7.816
 2203POPC   C1B30163  18.785  38.707   8.728
 2203POPC   C2B30164  18.659  38.620   8.368
 2203POPC   C3B30165  18.799  38.814   8.058
 2203POPC   C4B30166  18.747  38.663   7.665
 2204POPC   NC330167  23.445  42.583   9.509
 2204POPC   PO430168  24.032  42.366   9.575
 2204POPC   GL130169  23.841  42.258   9.224
 2204POPC   GL230170  23.776  42.590   9.095
 2204POPC   C1A30171  23.729  42.111   8.831
 2204POPC   D2A30172  23.855  42.252   8.451
 2204POPC   C3A30173  23.636  42.021   8.116
 2204POPC   C4A30174  23.780  42.008   7.715
 2204POPC   C1B30175  23.547  42.613   8.716
 2204POPC   C2B30176  23.463  42.495   8.275
 2204POPC   C3B30177  23.749  42.483   7.949
 2204POPC   C4B30178  23.650  42.633   7.570
 2205POPC   NC330179  20.845  20.718   9.494
 2205POPC   PO430180  20.438  20.219   9.671
 2205POPC   GL130181  20.654  20.317   9.185
 2205POPC   GL230182  20.598  20.678   9.063
 2205POPC   C1A30183  20.702  20.420   8.656
 2205POPC   D2A30184  20.770  20.784   8.305
 2205POPC   C3A30185  20.708  20.702   7.848
 2205POPC   C4A30186  20.510  20.347   7.634
 2205POPC   C1B30187  20.489  20.927   8.724
 2205POPC   C2B30188  20.264  20.881   8.348
 2205POPC   C3B30189  20.303  20.978   7.918
 2205POPC   C4B30190  20.321  20.848   7.465
 2206POPC   NC330191  29.361   5.531   9.422
 2206POPC   PO430192  29.105   4.952   9.654
 2206POPC   GL130193  29.163   5.071   9.174
 2206POPC   GL230194  29.504   5.193   9.066
 2206POPC   C1A30195  29.141   5.298   8.734
 2206POPC   D2A30196  29.120   5.230   8.282
 2206POPC   C3A30197  28.924   5.448   7.969
 2206POPC   C4A30198  29.221   5.258   7.738
 2206POPC   C1B30199  29.519   4.904   8.760
 2206POPC   C2B30200  29.527   4.683   8.395
 2206POPC   C3B30201  29.458   4.896   8.029
 2206POPC   C4B30202  29.607   4.915   7.622
 2207POPC   NC330203  15.108  15.561   9.587
 2207POPC   PO430204  15.450  14.943   9.478
 2207POPC   GL130205  15.205  15.181   9.236
 2207POPC   GL230206  15.408  15.447   9.129
 2207POPC   C1A30207  15.108  15.123   8.823
 2207POPC   D2A30208  14.990  15.281   8.428
 2207POPC   C3A30209  15.168  15.125   8.039
 2207POPC   C4A30210  15.050  15.261   7.605
 2207POPC   C1B30211  15.611  15.175   8.813
 2207POPC   C2B30212  15.529  15.011   8.427
 2207POPC   C3B30213  15.730  15.125   8.045
 2207POPC   C4B30214  15.543  15.100   7.685
 2208POPC   NC330215  18.936  39.408   9.359
 2208POPC   PO430216  19.270  39.950   9.518
 2208POPC   GL130217  19.084  39.943   9.128
 2208POPC   GL230218  18.790  40.135   9.148
 2208POPC   C1A30219  19.131  40.245   8.770
 2208POPC   D2A30220  18.965  40.311   8.367
 2208POPC   C3A30221  19.168  40.099   8.032
 2208POPC   C4A30222  19.135  40.133   7.602
 2208POPC   C1B30223  18.711  39.931   8.766
 2208POPC   C2B30224  18.629  39.736   8.370
 2208POPC   C3B30225  18.724  39.859   7.931
 2208POPC   C4B30226  18.701  39.904   7.457
 2209POPC   NC330227  29.177  12.688   9.468
 2209POPC   PO430228  29.585  13.268   9.604
 2209POPC   GL130229  29.489  13.015   9.189
 2209POPC   GL230230  29.225  12.761   8.978
 2209POPC   C1A30231  29.558  13.005   8.732
 2209POPC   D2A30232  29.421  12.701   8.426
 2209POPC   C3A30233  29.099  12.835   8.176
 2209POPC   C4A30234  29.024  13.086   7.802
 2209POPC   C1B30235  28.808  12.758   8.726
 2209POPC   C2B30236  28.657  12.469   8.415
 2209POPC   C3B30237  28.947  12.335   8.110
 2209POPC   C4B30238  29.090  12.563   7.731
 2210POPC   NC330239  18.822   0.890   9.480
 2210POPC   PO430240  18.790   1.508   9.418
 2210POPC   GL130241  19.146   1.361   9.163
 2210POPC   GL230242  19.241   1.021   9.213
 2210POPC   C1A30243  19.105   1.217   8.732
 2210POPC   D2A30244  18.953   1.041   8.331
 2210POPC   C3A30245  19.039   1.193   7.910
 2210POPC   C4A30246  18.834   0.997   7.575
 2210POPC   C1B30247  19.491   0.941   8.881
 2210POPC   C2B30248  19.475   1.019   8.430
 2210POPC   C3B30249  19.390   0.829   8.029
 2210POPC   C4B30250  19.405   0.873   7.580
 2211POPC   NC330251  33.119  16.270   9.813
 2211POPC   PO430252  33.684  16.634   9.588
 2211POPC   GL130253  33.897  16.660   9.190
 2211POPC   GL230254  33.562  16.567   9.064
 2211POPC   C1A30255  34.088  16.703   8.776
 2211POPC   D2A30256  34.242  16.723   8.319
 2211POPC   C3A30257  34.053  16.774   7.916
 2211POPC   C4A30258  34.001  16.844   7.448
 2211POPC   C1B30259  33.628  16.524   8.632
 2211POPC   C2B30260  33.637  16.624   8.191
 2211POPC   C3B30261  33.686  16.443   7.787
 2211POPC   C4B30262  33.716  16.434   7.303
 2212POPC   NC330263  26.777   7.902   9.446
 2212POPC   PO430264  27.098   8.474   9.610
 2212POPC   GL130265  27.047   8.299   9.197
 2212POPC   GL230266  26.692   8.333   9.143
 2212POPC   C1A30267  26.982   8.171   8.739
 2212POPC   D2A30268  27.181   8.094   8.311
 2212POPC   C3A30269  26.899   8.033   7.938
 2212POPC   C4A30270  26.475   7.937   7.783
 2212POPC   C1B30271  26.504   8.416   8.752
 2212POPC   C2B30272  26.494   8.223   8.332
 2212POPC   C3B30273  26.536   8.444   7.954
 2212POPC   C4B30274  26.787   8.425   7.605
 2213POPC   NC330275  17.314  26.133  10.138
 2213POPC   PO430276  17.663  26.139   9.562
 2213POPC   GL130277  17.600  25.870   9.218
 2213POPC   GL230278  17.545  26.201   9.087
 2213POPC   C1A30279  17.504  25.747   8.802
 2213POPC   D2A30280  17.300  25.918   8.434
 2213POPC   C3A30281  17.399  25.727   8.061
 2213POPC   C4A30282  17.636  25.843   7.688
 2213POPC   C1B30283  17.533  26.275   8.712
 2213POPC   C2B30284  17.517  26.474   8.369
 2213POPC   C3B30285  17.527  26.276   7.982
 2213POPC   C4B30286  17.505  26.292   7.518
 2214POPC   NC330287  34.892  26.541   9.492
 2214POPC   PO430288  34.251  26.859   9.653
 2214POPC   GL130289  34.302  26.742   9.196
 2214POPC   GL230290  34.629  26.767   9.124
 2214POPC   C1A30291  34.411  26.531   8.747
 2214POPC   D2A30292  34.295  26.617   8.289
 2214POPC   C3A30293  34.574  26.501   7.914
 2214POPC   C4A30294  34.914  26.670   7.645
 2214POPC   C1B30295  34.674  26.992   8.744
 2214POPC   C2B30296  34.455  27.143   8.398
 2214POPC   C3B30297  34.474  27.002   7.993
 2214POPC   C4B30298  34.411  27.259   7.699
 2215POPC   NC330299  13.161  30.557   9.450
 2215POPC   PO430300  12.517  30.849   9.399
 2215POPC   GL130301  12.767  30.766   9.073
 2215POPC   GL230302  13.123  30.946   9.119
 2215POPC   C1A30303  12.576  30.759   8.647
 2215POPC   D2A30304  12.681  30.983   8.283
 2215POPC   C3A30305  12.741  30.724   7.979
 2215POPC   C4A30306  12.496  30.879   7.686
 2215POPC   C1B30307  13.038  30.951   8.684
 2215POPC   C2B30308  13.113  30.651   8.341
 2215POPC   C3B30309  13.288  30.639   7.916
 2215POPC   C4B30310  13.010  30.642   7.553
 2216POPC   NC330311  40.903  43.280   9.502
 2216POPC   PO430312  40.401  42.862   9.544
 2216POPC   GL130313  40.618  42.926   9.152
 2216POPC   GL230314  40.989  42.882   9.173
 2216POPC   C1A30315  40.684  43.271   8.847
 2216POPC   D2A30316  40.580  43.462   8.420
 2216POPC   C3A30317  40.824  43.347   8.041
 2216POPC   C4A30318  40.724  43.105   7.715
 2216POPC   C1B30319  41.106  42.988   8.749
 2216POPC   C2B30320  41.002  42.947   8.299
 2216POPC   C3B30321  41.208  42.993   7.874
 2216POPC   C4B30322  41.087  42.901   7.420
 2217POPC   NC330323   9.343  18.264   9.464
 2217POPC   PO430324   8.731  18.136   9.605
 2217POPC   GL130325   8.884  18.383   9.269
 2217POPC   GL230326   8.979  18.061   9.116
 2217POPC   C1A30327   9.116  18.481   8.864
 2217POPC   D2A30328   9.102  18.271   8.477
 2217POPC   C3A30329   9.100  18.588   8.142
 2217POPC   C4A30330   9.136  18.379   7.762
 2217POPC   C1B30331   8.682  17.902   8.802
 2217POPC   C2B30332   8.643  18.012   8.375
 2217POPC   C3B30333   8.813  18.042   7.969
 2217POPC   C4B30334   8.783  18.054   7.510
 2218POPC   NC330335  34.903  41.240   9.451
 2218POPC   PO430336  35.358  41.675   9.608
 2218POPC   GL130337  35.229  41.585   9.207
 2218POPC   GL230338  35.366  41.263   9.212
 2218POPC   C1A30339  35.153  41.838   8.834
 2218POPC   D2A30340  35.312  41.897   8.413
 2218POPC   C3A30341  35.036  41.743   8.088
 2218POPC   C4A30342  35.089  41.886   7.704
 2218POPC   C1B30343  35.221  41.183   8.797
 2218POPC   C2B30344  35.384  41.280   8.383
 2218POPC   C3B30345  35.297  41.315   7.955
 2218POPC   C4B30346  35.291  41.451   7.519
 2219POPC   NC330347  23.269  20.108   9.275
 2219POPC   PO430348  23.572  20.661   9.555
 2219POPC   GL130349  23.730  20.390   9.208
 2219POPC   GL230350  24.099  20.238   9.236
 2219POPC   C1A30351  23.700  20.532   8.783
 2219POPC   D2A30352  23.851  20.768   8.405
 2219POPC   C3A30353  23.621  20.620   8.044
 2219POPC   C4A30354  23.578  20.546   7.601
 2219POPC   C1B30355  24.036  20.146   8.809
 2219POPC   C2B30356  23.852  20.252   8.383
 2219POPC   C3B30357  24.039  20.316   7.986
 2219POPC   C4B30358  24.040  20.275   7.525
 2220POPC   NC330359  40.103  33.500   9.451
 2220POPC   PO430360  39.758  32.940   9.633
 2220POPC   GL130361  39.876  32.967   9.171
 2220POPC   GL230362  40.134  33.194   9.060
 2220POPC   C1A30363  39.992  32.742   8.742
 2220POPC   D2A30364  39.905  32.575   8.295
 2220POPC   C3A30365  39.999  32.855   7.942
 2220POPC   C4A30366  39.783  33.223   7.766
 2220POPC   C1B30367  40.006  33.269   8.643
 2220POPC   C2B30368  40.138  33.272   8.223
 2220POPC   C3B30369  40.284  33.317   7.808
 2220POPC   C4B30370  40.267  33.499   7.410
 2221POPC   NC330371  37.792   9.480   9.595
 2221POPC   PO430372  37.472  10.050   9.646
 2221POPC   GL130373  37.709  10.074   9.242
 2221POPC   GL230374  37.864   9.752   9.156
 2221POPC   C1A30375  37.805  10.080   8.765
 2221POPC   D2A30376  38.011  10.030   8.344
 2221POPC   C3A30377  37.774   9.928   7.950
 2221POPC   C4A30378  37.372   9.719   7.816
 2221POPC   C1B30379  37.908   9.573   8.740
 2221POPC   C2B30380  37.735   9.580   8.323
 2221POPC   C3B30381  37.741   9.371   7.924
 2221POPC   C4B30382  37.516   9.216   7.560
 2222POPC   NC330383  34.076   5.691   9.852
 2222POPC   PO430384  33.710   5.301   9.521
 2222POPC   GL130385  33.802   5.083   9.110
 2222POPC   GL230386  34.116   5.252   8.981
 2222POPC   C1A30387  33.627   4.900   8.748
 2222POPC   D2A30388  33.468   5.042   8.350
 2222POPC   C3A30389  33.591   4.818   7.995
 2222POPC   C4A30390  33.817   4.951   7.578
 2222POPC   C1B30391  34.156   4.864   8.792
 2222POPC   C2B30392  34.006   4.750   8.419
 2222POPC   C3B30393  34.056   4.993   8.066
 2222POPC   C4B30394  34.314   4.965   7.746
 2223POPC   NC330395   1.411  19.435   9.536
 2223POPC   PO430396   0.816  19.234   9.776
 2223POPC   GL130397   1.112  19.053   9.329
 2223POPC   GL230398   1.391  19.213   9.095
 2223POPC   C1A30399   1.080  18.919   8.825
 2223POPC   D2A30400   1.036  19.095   8.391
 2223POPC   C3A30401   0.924  18.887   7.999
 2223POPC   C4A30402   1.085  19.106   7.644
 2223POPC   C1B30403   1.589  18.921   8.806
 2223POPC   C2B30404   1.436  18.779   8.400
 2223POPC   C3B30405   1.445  19.003   8.011
 2223POPC   C4B30406   1.618  18.955   7.599
 2224POPC   NC330407   4.485  20.153   9.301
 2224POPC   PO430408   4.369  20.751   9.616
 2224POPC   GL130409   4.437  20.638   9.189
 2224POPC   GL230410   4.084  20.593   9.174
 2224POPC   C1A30411   4.383  20.490   8.733
 2224POPC   D2A30412   4.571  20.633   8.342
 2224POPC   C3A30413   4.674  20.390   7.995
 2224POPC   C4A30414   4.487  20.507   7.644
 2224POPC   C1B30415   3.877  20.367   8.854
 2224POPC   C2B30416   3.911  20.482   8.426
 2224POPC   C3B30417   4.131  20.514   8.043
 2224POPC   C4B30418   3.965  20.305   7.694
 2225POPC   NC330419  26.614  28.303   9.466
 2225POPC   PO430420  27.192  28.691   9.249
 2225POPC   GL130421  26.848  28.462   9.030
 2225POPC   GL230422  26.558  28.659   9.103
 2225POPC   C1A30423  26.832  28.093   8.710
 2225POPC   D2A30424  27.042  28.097   8.314
 2225POPC   C3A30425  27.116  28.501   8.222
 2225POPC   C4A30426  26.920  28.421   7.885
 2225POPC   C1B30427  26.420  28.419   8.759
 2225POPC   C2B30428  26.586  28.398   8.348
 2225POPC   C3B30429  26.473  28.590   7.973
 2225POPC   C4B30430  26.654  28.682   7.554
 2226POPC   NC330431   1.217  24.632   9.606
 2226POPC   PO430432   1.370  24.090   9.270
 2226POPC   GL130433   1.274  24.350   9.020
 2226POPC   GL230434   1.326  24.712   9.117
 2226POPC   C1A30435   1.236  24.225   8.606
 2226POPC   D2A30436   1.012  24.305   8.236
 2226POPC   C3A30437   1.230  24.498   7.914
 2226POPC   C4A30438   1.676  24.520   7.940
 2226POPC   C1B30439   1.496  24.685   8.708
 2226POPC   C2B30440   1.401  24.844   8.314
 2226POPC   C3B30441   0.987  24.939   8.199
 2226POPC   C4B30442   0.876  24.874   7.780
 2227POPC   NC330443  35.720   4.138   9.467
 2227POPC   PO430444  35.006   4.431   9.549
 2227POPC   GL130445  35.227   4.230   9.162
 2227POPC   GL230446  35.610   4.263   8.997
 2227POPC   C1A30447  35.081   4.220   8.719
 2227POPC   D2A30448  35.379   4.311   8.370
 2227POPC   C3A30449  35.316   4.556   7.985
 2227POPC   C4A30450  35.406   4.429   7.566
 2227POPC   C1B30451  35.442   3.867   8.798
 2227POPC   C2B30452  35.246   3.796   8.381
 2227POPC   C3B30453  35.262   3.973   7.954
 2227POPC   C4B30454  35.504   3.840   7.597
 2228POPC   NC330455  29.693  35.154   9.484
 2228POPC   PO430456  30.310  34.963   9.409
 2228POPC   GL130457  30.180  35.307   9.162
 2228POPC   GL230458  29.890  35.133   8.996
 2228POPC   C1A30459  29.930  35.631   8.910
 2228POPC   D2A30460  29.787  35.701   8.460
 2228POPC   C3A30461  30.083  35.616   8.128
 2228POPC   C4A30462  30.137  35.516   7.707
 2228POPC   C1B30463  29.602  35.209   8.639
 2228POPC   C2B30464  29.562  35.302   8.213
 2228POPC   C3B30465  29.794  35.172   7.858
 2228POPC   C4B30466  29.854  35.198   7.401
 2229POPC   NC330467  31.893   4.856   9.462
 2229POPC   PO430468  31.261   4.765   9.448
 2229POPC   GL130469  31.396   5.043   9.151
 2229POPC   GL230470  31.637   5.279   9.253
 2229POPC   C1A30471  31.317   5.067   8.723
 2229POPC   D2A30472  31.159   5.247   8.340
 2229POPC   C3A30473  31.241   5.011   7.940
 2229POPC   C4A30474  31.313   4.852   7.508
 2229POPC   C1B30475  31.816   5.143   8.839
 2229POPC   C2B30476  31.788   5.036   8.388
 2229POPC   C3B30477  31.775   5.061   7.932
 2229POPC   C4B30478  31.547   5.283   7.598
 2230POPC   NC330479  19.383   2.646   9.574
 2230POPC   PO430480  18.728   2.897   9.491
 2230POPC   GL130481  19.096   2.900   9.209
 2230POPC   GL230482  19.142   2.519   9.118
 2230POPC   C1A30483  19.177   2.994   8.772
 2230POPC   D2A30484  19.046   2.769   8.392
 2230POPC   C3A30485  19.255   2.843   8.013
 2230POPC   C4A30486  19.217   2.690   7.624
 2230POPC   C1B30487  18.790   2.637   8.839
 2230POPC   C2B30488  18.533   2.483   8.485
 2230POPC   C3B30489  18.625   2.637   8.107
 2230POPC   C4B30490  18.707   2.603   7.672
 2231POPC   NC330491  21.595   1.760   9.563
 2231POPC   PO430492  21.018   2.248   9.714
 2231POPC   GL130493  21.138   2.356   9.249
 2231POPC   GL230494  21.467   2.152   9.205
 2231POPC   C1A30495  21.237   2.271   8.776
 2231POPC   D2A30496  21.350   2.052   8.369
 2231POPC   C3A30497  21.171   2.126   7.933
 2231POPC   C4A30498  21.034   2.108   7.473
 2231POPC   C1B30499  21.702   1.971   8.826
 2231POPC   C2B30500  21.853   2.142   8.414
 2231POPC   C3B30501  21.699   2.051   7.975
 2231POPC   C4B30502  21.936   1.665   7.870
 2232POPC   NC330503  10.289  42.713   9.429
 2232POPC   PO430504  10.757  42.351   9.717
 2232POPC   GL130505  10.661  42.175   9.264
 2232POPC   GL230506  10.305  42.249   9.168
 2232POPC   C1A30507  10.667  42.267   8.789
 2232POPC   D2A30508  10.587  42.323   8.382
 2232POPC   C3A30509  10.880  42.392   8.085
 2232POPC   C4A30510  10.712  42.482   7.709
 2232POPC   C1B30511  10.216  42.530   8.812
 2232POPC   C2B30512  10.103  42.491   8.402
 2232POPC   C3B30513  10.339  42.627   8.047
 2232POPC   C4B30514  10.217  42.572   7.625
 2233POPC   NC330515  24.955  19.990   9.470
 2233POPC   PO430516  25.640  19.592   9.609
 2233POPC   GL130517  25.597  19.778   9.220
 2233POPC   GL230518  25.243  19.796   9.108
 2233POPC   C1A30519  25.648  19.815   8.789
 2233POPC   D2A30520  25.354  19.842   8.473
 2233POPC   C3A30521  25.513  19.721   8.088
 2233POPC   C4A30522  25.268  19.706   7.700
 2233POPC   C1B30523  25.067  20.119   8.826
 2233POPC   C2B30524  24.966  20.177   8.406
 2233POPC   C3B30525  25.211  20.121   8.045
 2233POPC   C4B30526  25.095  20.166   7.647
 2234POPC   NC330527   8.502  23.490   9.780
 2234POPC   PO430528   7.906  23.487   9.482
 2234POPC   GL130529   8.183  23.720   9.216
 2234POPC   GL230530   8.252  24.106   9.255
 2234POPC   C1A30531   8.221  23.740   8.750
 2234POPC   D2A30532   8.452  23.837   8.396
 2234POPC   C3A30533   8.272  23.885   8.016
 2234POPC   C4A30534   8.274  23.616   7.688
 2234POPC   C1B30535   8.037  24.175   8.874
 2234POPC   C2B30536   7.976  24.076   8.418
 2234POPC   C3B30537   7.879  24.232   7.992
 2234POPC   C4B30538   7.897  23.961   7.618
 2235POPC   NC330539  12.771  20.569   9.547
 2235POPC   PO430540  13.080  21.165   9.556
 2235POPC   GL130541  12.859  20.921   9.165
 2235POPC   GL230542  12.846  20.523   9.065
 2235POPC   C1A30543  12.789  20.850   8.704
 2235POPC   D2A30544  12.943  20.910   8.308
 2235POPC   C3A30545  12.715  20.892   7.919
 2235POPC   C4A30546  13.105  20.876   7.740
 2235POPC   C1B30547  13.015  20.296   8.729
 2235POPC   C2B30548  12.809  20.400   8.358
 2235POPC   C3B30549  12.965  20.442   7.982
 2235POPC   C4B30550  12.735  20.445   7.639
 2236POPC   NC330551   9.548  24.602   9.559
 2236POPC   PO430552   9.629  24.038   9.199
 2236POPC   GL130553   9.618  24.456   9.065
 2236POPC   GL230554   9.922  24.621   9.179
 2236POPC   C1A30555   9.698  24.468   8.651
 2236POPC   D2A30556   9.811  24.263   8.273
 2236POPC   C3A30557   9.682  24.548   7.932
 2236POPC   C4A30558   9.568  24.444   7.499
 2236POPC   C1B30559  10.198  24.524   8.834
 2236POPC   C2B30560  10.136  24.629   8.389
 2236POPC   C3B30561  10.054  24.875   7.995
 2236POPC   C4B30562  10.033  24.695   7.528
 2237POPC   NC330563  34.500  44.426  10.065
 2237POPC   PO430564  34.480  44.780   9.522
 2237POPC   GL130565  34.507  44.451   9.199
 2237POPC   GL230566  34.714  44.599   8.993
 2237POPC   C1A30567  34.363  44.286   8.825
 2237POPC   D2A30568  34.494  44.522   8.458
 2237POPC   C3A30569  34.461  44.435   8.020
 2237POPC   C4A30570  34.483  44.538   7.542
 2237POPC   C1B30571  34.939  44.373   8.661
 2237POPC   C2B30572  34.946  44.362   8.209
 2237POPC   C3B30573  34.954  44.581   7.822
 2237POPC   C4B30574  34.980  44.532   7.381
 2238POPC   NC330575  28.580  16.099   9.522
 2238POPC   PO430576  28.066  15.687   9.597
 2238POPC   GL130577  28.185  15.837   9.221
 2238POPC   GL230578  28.448  15.592   9.252
 2238POPC   C1A30579  28.170  15.920   8.773
 2238POPC   D2A30580  28.466  16.169   8.534
 2238POPC   C3A30581  28.496  16.065   8.096
 2238POPC   C4A30582  28.156  16.121   7.809
 2238POPC   C1B30583  28.645  15.754   8.896
 2238POPC   C2B30584  28.727  15.710   8.456
 2238POPC   C3B30585  28.650  15.551   8.032
 2238POPC   C4B30586  28.441  15.716   7.686
 2239POPC   NC330587  26.920  19.366   9.380
 2239POPC   PO430588  27.051  18.721   9.311
 2239POPC   GL130589  26.868  18.982   9.030
 2239POPC   GL230590  27.022  19.312   8.902
 2239POPC   C1A30591  26.726  18.957   8.635
 2239POPC   D2A30592  26.972  19.190   8.353
 2239POPC   C3A30593  26.918  18.989   7.960
 2239POPC   C4A30594  26.620  18.970   7.623
 2239POPC   C1B30595  26.626  19.447   8.756
 2239POPC   C2B30596  26.432  19.367   8.389
 2239POPC   C3B30597  26.632  19.406   8.007
 2239POPC   C4B30598  26.580  19.474   7.598
 2240POPC   NC330599  32.664  44.999   9.522
 2240POPC   PO430600  33.344  44.723   9.459
 2240POPC   GL130601  33.130  44.660   9.092
 2240POPC   GL230602  32.806  44.770   9.097
 2240POPC   C1A30603  33.094  44.586   8.671
 2240POPC   D2A30604  33.054  44.349   8.301
 2240POPC   C3A30605  33.160  44.609   7.993
 2240POPC   C4A30606  33.137  44.544   7.562
 2240POPC   C1B30607  32.579  44.636   8.745
 2240POPC   C2B30608  32.698  44.745   8.352
 2240POPC   C3B30609  32.673  44.707   7.937
 2240POPC   C4B30610  32.866  44.981   7.666
 2241POPC   NC330611  11.594   5.159   9.611
 2241POPC   PO430612  11.104   5.626   9.470
 2241POPC   GL130613  11.057   5.379   9.108
 2241POPC   GL230614  11.317   5.146   9.136
 2241POPC   C1A30615  11.194   5.386   8.686
 2241POPC   D2A30616  11.434   5.290   8.304
 2241POPC   C3A30617  11.273   4.943   8.082
 2241POPC   C4A30618  11.018   5.083   7.797
 2241POPC   C1B30619  11.526   4.991   8.744
 2241POPC   C2B30620  11.701   4.838   8.332
 2241POPC   C3B30621  11.707   4.757   7.865
 2241POPC   C4B30622  11.466   4.826   7.478
 2242POPC   NC330623  31.160  25.113   9.533
 2242POPC   PO430624  31.809  25.042   9.333
 2242POPC   GL130625  31.655  25.297   8.985
 2242POPC   GL230626  31.358  25.298   9.101
 2242POPC   C1A30627  31.663  25.351   8.565
 2242POPC   D2A30628  31.726  25.039   8.264
 2242POPC   C3A30629  31.407  24.964   7.934
 2242POPC   C4A30630  31.432  24.980   7.415
 2242POPC   C1B30631  31.205  25.593   8.808
 2242POPC   C2B30632  31.261  25.612   8.399
 2242POPC   C3B30633  31.135  25.431   8.038
 2242POPC   C4B30634  31.334  25.425   7.680
 2243POPC   NC330635  26.522   0.280   9.466
 2243POPC   PO430636  27.082   0.649   9.565
 2243POPC   GL130637  26.974   0.491   9.188
 2243POPC   GL230638  26.662   0.562   9.065
 2243POPC   C1A30639  27.087   0.577   8.768
 2243POPC   D2A30640  26.950   0.383   8.411
 2243POPC   C3A30641  26.918   0.524   8.009
 2243POPC   C4A30642  26.815   0.706   7.618
 2243POPC   C1B30643  26.725   0.167   8.821
 2243POPC   C2B30644  26.674  44.943   8.430
 2243POPC   C3B30645  26.654   0.081   8.020
 2243POPC   C4B30646  26.768   0.187   7.616
 2244POPC   NC330647   2.533  13.510   9.503
 2244POPC   PO430648   3.071  13.929   9.485
 2244POPC   GL130649   2.839  13.764   9.161
 2244POPC   GL230650   2.915  13.414   9.145
 2244POPC   C1A30651   2.724  13.652   8.739
 2244POPC   D2A30652   2.858  13.786   8.337
 2244POPC   C3A30653   2.648  13.590   7.989
 2244POPC   C4A30654   2.590  13.887   7.707
 2244POPC   C1B30655   3.181  13.421   8.823
 2244POPC   C2B30656   3.054  13.326   8.455
 2244POPC   C3B30657   3.149  13.437   8.060
 2244POPC   C4B30658   3.022  13.370   7.657
 2245POPC   NC330659  12.769  10.562   9.583
 2245POPC   PO430660  13.422  10.425   9.612
 2245POPC   GL130661  13.111  10.372   9.266
 2245POPC   GL230662  12.989  10.721   9.137
 2245POPC   C1A30663  13.107  10.272   8.842
 2245POPC   D2A30664  13.104  10.429   8.425
 2245POPC   C3A30665  12.706  10.430   8.264
 2245POPC   C4A30666  12.725  10.524   7.837
 2245POPC   C1B30667  12.659  10.797   8.803
 2245POPC   C2B30668  12.681  10.937   8.370
 2245POPC   C3B30669  13.023  10.856   8.096
 2245POPC   C4B30670  13.131  10.924   7.642
 2246POPC   NC330671  24.167  38.034   9.414
 2246POPC   PO430672  24.796  38.323   9.629
 2246POPC   GL130673  24.573  38.531   9.190
 2246POPC   GL230674  24.245  38.536   9.305
 2246POPC   C1A30675  24.566  38.555   8.707
 2246POPC   D2A30676  24.677  38.265   8.312
 2246POPC   C3A30677  24.612  38.399   7.876
 2246POPC   C4A30678  24.380  38.794   7.768
 2246POPC   C1B30679  24.058  38.447   8.891
 2246POPC   C2B30680  24.199  38.217   8.542
 2246POPC   C3B30681  24.184  38.428   8.140
 2246POPC   C4B30682  24.140  38.257   7.720
 2247POPC   NC330683   2.236  27.901   9.437
 2247POPC   PO430684   1.700  27.458   9.501
 2247POPC   GL130685   1.920  27.439   9.125
 2247POPC   GL230686   1.882  27.759   9.086
 2247POPC   C1A30687   1.905  27.469   8.680
 2247POPC   D2A30688   1.827  27.732   8.327
 2247POPC   C3A30689   1.890  27.511   7.996
 2247POPC   C4A30690   2.044  27.708   7.696
 2247POPC   C1B30691   1.599  27.893   8.745
 2247POPC   C2B30692   1.509  28.123   8.347
 2247POPC   C3B30693   1.443  27.972   7.955
 2247POPC   C4B30694   1.598  27.895   7.540
 2248POPC   NC330695  20.499  33.697   9.583
 2248POPC   PO430696  20.920  34.149   9.288
 2248POPC   GL130697  20.590  33.922   9.143
 2248POPC   GL230698  20.244  34.036   9.280
 2248POPC   C1A30699  20.632  33.660   8.792
 2248POPC   D2A30700  20.855  33.743   8.416
 2248POPC   C3A30701  20.619  33.718   8.042
 2248POPC   C4A30702  20.781  33.686   7.663
 2248POPC   C1B30703  20.243  34.005   8.799
 2248POPC   C2B30704  20.267  33.796   8.412
 2248POPC   C3B30705  20.120  33.905   7.994
 2248POPC   C4B30706  20.320  34.074   7.626
 2249POPC   NC330707   9.874  27.525   9.562
 2249POPC   PO430708   9.292  27.867   9.517
 2249POPC   GL130709   9.631  27.776   9.179
 2249POPC   GL230710  10.015  27.871   9.240
 2249POPC   C1A30711   9.674  27.542   8.748
 2249POPC   D2A30712   9.474  27.582   8.314
 2249POPC   C3A30713   9.559  27.475   7.884
 2249POPC   C4A30714   9.922  27.225   7.867
 2249POPC   C1B30715  10.068  27.843   8.797
 2249POPC   C2B30716  10.079  27.627   8.385
 2249POPC   C3B30717  10.040  27.726   7.938
 2249POPC   C4B30718   9.917  27.594   7.491
 2250POPC   NC330719   2.774   2.252   9.548
 2250POPC   PO430720   3.094   1.570   9.506
 2250POPC   GL130721   3.049   1.770   9.149
 2250POPC   GL230722   2.718   1.908   9.161
 2250POPC   C1A30723   3.041   1.981   8.760
 2250POPC   D2A30724   2.760   2.011   8.442
 2250POPC   C3A30725   2.935   2.092   8.037
 2250POPC   C4A30726   2.839   2.309   7.636
 2250POPC   C1B30727   2.682   1.625   8.820
 2250POPC   C2B30728   2.548   1.541   8.455
 2250POPC   C3B30729   2.567   1.678   8.087
 2250POPC   C4B30730   2.582   1.886   7.732
 2251POPC   NC330731  30.295  10.255   9.295
 2251POPC   PO430732  29.712  10.645   9.497
 2251POPC   GL130733  29.908  10.562   9.118
 2251POPC   GL230734  30.161  10.752   9.246
 2251POPC   C1A30735  29.918  10.488   8.669
 2251POPC   D2A30736  29.826  10.559   8.233
 2251POPC   C3A30737  30.011  10.217   7.983
 2251POPC   C4A30738  30.110  10.117   7.539
 2251POPC   C1B30739  30.100  10.997   8.894
 2251POPC   C2B30740  30.059  10.995   8.467
 2251POPC   C3B30741  30.048  10.975   8.026
 2251POPC   C4B30742  30.182  10.634   7.771
 2252POPC   NC330743   4.977  44.156   9.621
 2252POPC   PO430744   5.229  44.817   9.471
 2252POPC   GL130745   4.995  44.834   9.109
 2252POPC   GL230746   4.710  44.719   9.261
 2252POPC   C1A30747   5.157  44.831   8.692
 2252POPC   D2A30748   5.264  44.960   8.266
 2252POPC   C3A30749   5.151  44.663   7.967
 2252POPC   C4A30750   5.369  44.543   7.594
 2252POPC   C1B30751   4.775  44.417   8.888
 2252POPC   C2B30752   4.923  44.438   8.457
 2252POPC   C3B30753   4.737  44.372   8.051
 2252POPC   C4B30754   4.861  44.375   7.633
 2253POPC   NC330755  22.257   4.494   9.522
 2253POPC   PO430756  22.231   3.954   9.153
 2253POPC   GL130757  22.020   4.299   9.107
 2253POPC   GL230758  21.705   4.160   9.071
 2253POPC   C1A30759  22.223   4.569   8.812
 2253POPC   D2A30760  22.535   4.460   8.479
 2253POPC   C3A30761  22.443   4.643   8.077
 2253POPC   C4A30762  22.199   4.485   7.752
 2253POPC   C1B30763  21.826   4.182   8.615
 2253POPC   C2B30764  21.725   3.975   8.208
 2253POPC   C3B30765  21.941   3.980   7.803
 2253POPC   C4B30766  21.880   4.124   7.377
 2254POPC   NC330767  32.447  18.984   9.432
 2254POPC   PO430768  31.796  19.104   9.445
 2254POPC   GL130769  32.053  18.933   9.084
 2254POPC   GL230770  32.353  19.170   8.981
 2254POPC   C1A30771  32.119  18.928   8.609
 2254POPC   D2A30772  32.331  19.125   8.266
 2254POPC   C3A30773  32.072  19.258   7.949
 2254POPC   C4A30774  31.862  19.057   7.611
 2254POPC   C1B30775  32.626  18.963   8.646
 2254POPC   C2B30776  32.596  18.620   8.361
 2254POPC   C3B30777  32.507  18.664   7.920
 2254POPC   C4B30778  32.500  19.083   7.755
 2255POPC   NC330779  44.503  12.311   9.705
 2255POPC   PO430780   0.042  11.930   9.549
 2255POPC   GL130781  44.788  12.162   9.256
 2255POPC   GL230782  44.657  11.868   9.127
 2255POPC   C1A30783  44.553  12.290   8.856
 2255POPC   D2A30784  44.665  12.109   8.477
 2255POPC   C3A30785  44.621  12.264   8.101
 2255POPC   C4A30786  44.773  12.187   7.695
 2255POPC   C1B30787  44.379  11.779   8.782
 2255POPC   C2B30788  44.384  11.691   8.353
 2255POPC   C3B30789  44.281  11.890   7.987
 2255POPC   C4B30790  44.407  11.715   7.607
 2256POPC   NC330791  15.425  18.490   9.593
 2256POPC   PO430792  14.829  18.286   9.394
 2256POPC   GL130793  15.096  18.173   9.116
 2256POPC   GL230794  15.238  18.510   9.118
 2256POPC   C1A30795  15.048  18.228   8.693
 2256POPC   D2A30796  15.001  18.606   8.446
 2256POPC   C3A30797  15.016  18.449   8.039
 2256POPC   C4A30798  14.953  18.025   7.914
 2256POPC   C1B30799  15.456  18.548   8.739
 2256POPC   C2B30800  15.566  18.235   8.446
 2256POPC   C3B30801  15.479  18.166   8.017
 2256POPC   C4B30802  15.455  18.572   7.839
 2257POPC   NC330803  16.624  39.583   9.495
 2257POPC   PO430804  17.136  39.148   9.428
 2257POPC   GL130805  17.065  39.209   9.070
 2257POPC   GL230806  16.920  39.505   9.110
 2257POPC   C1A30807  16.952  39.215   8.667
 2257POPC   D2A30808  16.576  39.245   8.478
 2257POPC   C3A30809  16.628  39.125   8.074
 2257POPC   C4A30810  16.540  38.817   7.788
 2257POPC   C1B30811  16.713  39.702   8.790
 2257POPC   C2B30812  16.832  39.721   8.425
 2257POPC   C3B30813  16.919  39.582   8.047
 2257POPC   C4B30814  16.616  39.556   7.733
 2258POPC   NC330815   0.178  14.520  10.001
 2258POPC   PO430816   0.715  14.500   9.545
 2258POPC   GL130817   0.614  14.250   9.165
 2258POPC   GL230818   0.270  14.306   9.143
 2258POPC   C1A30819   0.609  14.335   8.734
 2258POPC   D2A30820   0.758  14.400   8.321
 2258POPC   C3A30821   0.452  14.479   8.044
 2258POPC   C4A30822   0.474  14.360   7.658
 2258POPC   C1B30823   0.180  14.598   8.815
 2258POPC   C2B30824   0.261  14.873   8.465
 2258POPC   C3B30825   0.212  14.936   8.016
 2258POPC   C4B30826   0.168  14.757   7.622
 2259POPC   NC330827  28.604   7.044   9.368
 2259POPC   PO430828  28.211   7.632   9.283
 2259POPC   GL130829  28.314   7.317   9.042
 2259POPC   GL230830  28.101   7.063   9.192
 2259POPC   C1A30831  28.556   7.215   8.663
 2259POPC   D2A30832  28.817   7.132   8.263
 2259POPC   C3A30833  28.589   7.304   7.954
 2259POPC   C4A30834  28.286   7.246   7.698
 2259POPC   C1B30835  27.888   7.178   8.799
 2259POPC   C2B30836  27.943   7.283   8.370
 2259POPC   C3B30837  27.862   7.124   7.944
 2259POPC   C4B30838  27.865   7.208   7.449
 2260POPC   NC330839  36.761  34.227   9.492
 2260POPC   PO430840  36.925  34.827   9.603
 2260POPC   GL130841  36.887  34.659   9.225
 2260POPC   GL230842  37.194  34.473   9.256
 2260POPC   C1A30843  36.766  34.621   8.811
 2260POPC   D2A30844  36.969  34.395   8.509
 2260POPC   C3A30845  36.914  34.621   8.155
 2260POPC   C4A30846  36.998  34.479   7.747
 2260POPC   C1B30847  37.265  34.719   8.859
 2260POPC   C2B30848  37.339  34.766   8.415
 2260POPC   C3B30849  37.311  34.878   7.982
 2260POPC   C4B30850  37.223  34.872   7.509
 2261POPC   NC330851   4.742   3.379   9.397
 2261POPC   PO430852   4.980   3.906   9.486
 2261POPC   GL130853   4.883   3.758   9.067
 2261POPC   GL230854   5.067   3.479   8.997
 2261POPC   C1A30855   4.806   3.799   8.622
 2261POPC   D2A30856   5.123   3.646   8.339
 2261POPC   C3A30857   5.107   3.535   7.911
 2261POPC   C4A30858   5.363   3.513   7.526
 2261POPC   C1B30859   5.178   3.148   8.720
 2261POPC   C2B30860   5.080   3.157   8.300
 2261POPC   C3B30861   5.172   3.010   7.919
 2261POPC   C4B30862   4.989   3.174   7.562
 2262POPC   NC330863  21.482  22.240   9.616
 2262POPC   PO430864  21.412  21.574   9.539
 2262POPC   GL130865  21.402  21.948   9.222
 2262POPC   GL230866  21.109  22.201   9.138
 2262POPC   C1A30867  21.590  22.247   8.932
 2262POPC   D2A30868  21.546  22.393   8.530
 2262POPC   C3A30869  21.276  22.220   8.246
 2262POPC   C4A30870  21.554  22.144   7.924
 2262POPC   C1B30871  21.149  22.566   8.791
 2262POPC   C2B30872  21.217  22.746   8.343
 2262POPC   C3B30873  21.396  22.622   7.949
 2262POPC   C4B30874  21.380  22.759   7.536
 2263POPC   NC330875   2.537  28.596   9.547
 2263POPC   PO430876   3.097  28.251   9.544
 2263POPC   GL130877   2.911  28.334   9.159
 2263POPC   GL230878   3.024  28.696   9.150
 2263POPC   C1A30879   2.746  28.139   8.754
 2263POPC   D2A30880   2.962  28.207   8.336
 2263POPC   C3A30881   2.756  28.287   7.921
 2263POPC   C4A30882   2.475  28.398   7.530
 2263POPC   C1B30883   2.996  28.584   8.714
 2263POPC   C2B30884   2.727  28.651   8.362
 2263POPC   C3B30885   3.057  28.681   8.088
 2263POPC   C4B30886   3.172  28.503   7.718
 2264POPC   NC330887  38.201  18.721   9.508
 2264POPC   PO430888  38.677  19.133   9.424
 2264POPC   GL130889  38.761  19.217   9.028
 2264POPC   GL230890  38.891  18.869   8.965
 2264POPC   C1A30891  38.619  19.315   8.591
 2264POPC   D2A30892  38.245  19.445   8.368
 2264POPC   C3A30893  38.338  19.368   7.958
 2264POPC   C4A30894  38.410  18.967   7.782
 2264POPC   C1B30895  38.519  18.826   8.683
 2264POPC   C2B30896  38.281  18.829   8.280
 2264POPC   C3B30897  38.000  18.710   7.933
 2264POPC   C4B30898  38.052  18.683   7.455
 2265POPC   NC330899   9.057  38.989   9.405
 2265POPC   PO430900   8.696  39.595   9.469
 2265POPC   GL130901   8.802  39.363   9.128
 2265POPC   GL230902   9.140  39.356   9.035
 2265POPC   C1A30903   8.674  39.087   8.805
 2265POPC   D2A30904   8.488  38.934   8.424
 2265POPC   C3A30905   8.672  39.151   8.104
 2265POPC   C4A30906   8.599  39.250   7.675
 2265POPC   C1B30907   9.178  39.174   8.615
 2265POPC   C2B30908   9.345  39.308   8.218
 2265POPC   C3B30909   9.385  39.261   7.779
 2265POPC   C4B30910   9.107  39.230   7.409
 2266POPC   NC330911   9.705  40.504   9.480
 2266POPC   PO430912   9.637  41.143   9.216
 2266POPC   GL130913   9.659  40.751   9.049
 2266POPC   GL230914   9.995  40.533   9.066
 2266POPC   C1A30915   9.630  40.545   8.692
 2266POPC   D2A30916   9.825  40.630   8.351
 2266POPC   C3A30917   9.542  40.737   8.071
 2266POPC   C4A30918   9.649  40.503   7.738
 2266POPC   C1B30919  10.083  40.838   8.760
 2266POPC   C2B30920  10.058  41.064   8.397
 2266POPC   C3B30921   9.992  40.965   7.973
 2266POPC   C4B30922  10.166  41.277   7.745
 2267POPC   NC330923   2.826  24.690   9.615
 2267POPC   PO430924   2.936  24.092   9.510
 2267POPC   GL130925   2.816  24.388   9.217
 2267POPC   GL230926   2.693  24.175   8.994
 2267POPC   C1A30927   2.639  24.684   8.901
 2267POPC   D2A30928   2.424  24.623   8.502
 2267POPC   C3A30929   2.640  24.380   8.179
 2267POPC   C4A30930   2.642  24.543   7.757
 2267POPC   C1B30931   3.041  24.370   8.775
 2267POPC   C2B30932   3.113  24.187   8.434
 2267POPC   C3B30933   3.022  23.975   8.116
 2267POPC   C4B30934   2.861  24.098   7.760
 2268POPC   NC330935  38.556  28.206   9.531
 2268POPC   PO430936  38.405  28.835   9.724
 2268POPC   GL130937  38.424  28.643   9.239
 2268POPC   GL230938  38.092  28.624   9.030
 2268POPC   C1A30939  38.510  28.461   8.780
 2268POPC   D2A30940  38.413  28.362   8.314
 2268POPC   C3A30941  38.716  28.366   7.955
 2268POPC   C4A30942  38.764  28.560   7.526
 2268POPC   C1B30943  38.042  28.217   8.817
 2268POPC   C2B30944  38.129  27.941   8.460
 2268POPC   C3B30945  38.015  28.116   8.093
 2268POPC   C4B30946  38.213  28.352   7.773
 2269POPC   NC330947  29.161  19.776   9.556
 2269POPC   PO430948  28.835  19.210   9.263
 2269POPC   GL130949  29.004  19.572   9.096
 2269POPC   GL230950  28.927  19.924   9.128
 2269POPC   C1A30951  29.094  19.635   8.679
 2269POPC   D2A30952  29.250  19.522   8.302
 2269POPC   C3A30953  28.967  19.617   7.977
 2269POPC   C4A30954  28.599  19.488   7.777
 2269POPC   C1B30955  29.128  20.128   8.748
 2269POPC   C2B30956  29.169  20.042   8.290
 2269POPC   C3B30957  29.065  20.087   7.859
 2269POPC   C4B30958  29.164  20.191   7.454
 2270POPC   NC330959  11.102  21.036   9.637
 2270POPC   PO430960  11.327  20.357   9.497
 2270POPC   GL130961  11.240  20.305   9.086
 2270POPC   GL230962  11.596  20.189   9.053
 2270POPC   C1A30963  11.017  20.501   8.724
 2270POPC   D2A30964  11.153  20.842   8.425
 2270POPC   C3A30965  11.071  20.689   7.992
 2270POPC   C4A30966  11.007  20.231   7.843
 2270POPC   C1B30967  11.519  20.407   8.647
 2270POPC   C2B30968  11.476  20.442   8.204
 2270POPC   C3B30969  11.458  20.447   7.757
 2270POPC   C4B30970  11.415  20.744   7.406
 2271POPC   NC330971   8.078  34.238   9.371
 2271POPC   PO430972   8.390  33.582   9.485
 2271POPC   GL130973   8.465  33.869   9.135
 2271POPC   GL230974   8.389  34.211   8.985
 2271POPC   C1A30975   8.304  33.767   8.733
 2271POPC   D2A30976   8.108  33.908   8.376
 2271POPC   C3A30977   8.299  33.654   8.083
 2271POPC   C4A30978   8.169  33.651   7.654
 2271POPC   C1B30979   8.674  34.166   8.688
 2271POPC   C2B30980   8.616  34.031   8.269
 2271POPC   C3B30981   8.302  34.139   7.947
 2271POPC   C4B30982   8.375  34.096   7.523
 2272POPC   NC330983  29.836   7.260   9.816
 2272POPC   PO430984  29.765   7.697   9.323
 2272POPC   GL130985  29.832   7.363   9.042
 2272POPC   GL230986  30.125   7.121   9.064
 2272POPC   C1A30987  29.797   7.324   8.621
 2272POPC   D2A30988  29.906   7.364   8.232
 2272POPC   C3A30989  29.575   7.529   7.988
 2272POPC   C4A30990  29.424   7.950   7.930
 2272POPC   C1B30991  30.052   6.893   8.691
 2272POPC   C2B30992  30.169   6.848   8.287
 2272POPC   C3B30993  30.249   7.135   7.979
 2272POPC   C4B30994  29.961   7.353   7.690
 2273POPC   NC330995   5.445  21.418   9.668
 2273POPC   PO430996   6.109  21.459   9.536
 2273POPC   GL130997   5.893  21.130   9.221
 2273POPC   GL230998   5.531  21.144   9.216
 2273POPC   C1A30999   5.749  21.193   8.749
 2273POPC   D2A31000   5.925  21.563   8.484
 2273POPC   C3A31001   6.062  21.389   8.097
 2273POPC   C4A31002   5.881  21.366   7.700
 2273POPC   C1B31003   5.495  21.558   9.011
 2273POPC   C2B31004   5.414  21.580   8.571
 2273POPC   C3B31005   5.557  21.339   8.194
 2273POPC   C4B31006   5.416  21.499   7.829
 2274POPC   NC331007  40.364   0.853   9.306
 2274POPC   PO431008  39.960   1.315   9.550
 2274POPC   GL131009  39.898   1.150   9.115
 2274POPC   GL231010  39.873   0.771   9.082
 2274POPC   C1A31011  39.786   1.366   8.694
 2274POPC   D2A31012  39.768   1.588   8.284
 2274POPC   C3A31013  40.034   1.446   7.958
 2274POPC   C4A31014  40.058   1.204   7.600
 2274POPC   C1B31015  40.106   0.941   8.712
 2274POPC   C2B31016  40.027   1.087   8.315
 2274POPC   C3B31017  40.188   0.872   7.976
 2274POPC   C4B31018  40.500   0.906   7.667
 2275POPC   NC331019  17.591  14.677   9.512
 2275POPC   PO431020  17.358  14.000   9.749
 2275POPC   GL131021  17.366  14.215   9.289
 2275POPC   GL231022  17.721  14.223   9.158
 2275POPC   C1A31023  17.310  14.406   8.834
 2275POPC   D2A31024  17.503  14.327   8.382
 2275POPC   C3A31025  17.486  14.087   7.987
 2275POPC   C4A31026  17.300  14.439   7.835
 2275POPC   C1B31027  17.878  14.292   8.714
 2275POPC   C2B31028  18.033  14.391   8.275
 2275POPC   C3B31029  17.815  14.508   7.898
 2275POPC   C4B31030  17.644  14.437   7.457
 2276POPC   NC331031  31.112  44.569   9.489
 2276POPC   PO431032  31.683  44.208   9.354
 2276POPC   GL131033  31.461  44.457   9.086
 2276POPC   GL231034  31.112  44.528   8.987
 2276POPC   C1A31035  31.551  44.572   8.712
 2276POPC   D2A31036  31.558  44.345   8.386
 2276POPC   C3A31037  31.729  44.567   8.076
 2276POPC   C4A31038  31.669  44.467   7.679
 2276POPC   C1B31039  31.083  44.442   8.561
 2276POPC   C2B31040  31.233  44.704   8.252
 2276POPC   C3B31041  31.282  44.758   7.835
 2276POPC   C4B31042  31.342  44.801   7.421
 2277POPC   NC331043  31.527  18.727   9.336
 2277POPC   PO431044  31.080  19.136   9.630
 2277POPC   GL131045  31.395  19.265   9.207
 2277POPC   GL231046  31.145  19.371   8.955
 2277POPC   C1A31047  31.636  19.140   8.800
 2277POPC   D2A31048  31.818  19.283   8.388
 2277POPC   C3A31049  31.579  19.193   8.028
 2277POPC   C4A31050  31.442  18.821   7.802
 2277POPC   C1B31051  31.294  19.449   8.540
 2277POPC   C2B31052  31.108  19.248   8.177
 2277POPC   C3B31053  31.135  19.217   7.730
 2277POPC   C4B31054  30.873  19.295   7.345
 2278POPC   NC331055  33.735  23.333   9.561
 2278POPC   PO431056  34.150  23.820   9.714
 2278POPC   GL131057  34.032  23.757   9.230
 2278POPC   GL231058  33.724  23.652   9.183
 2278POPC   C1A31059  33.974  23.716   8.739
 2278POPC   D2A31060  33.716  23.751   8.351
 2278POPC   C3A31061  33.975  23.828   7.994
 2278POPC   C4A31062  34.130  23.813   7.572
 2278POPC   C1B31063  33.528  23.487   8.860
 2278POPC   C2B31064  33.589  23.259   8.476
 2278POPC   C3B31065  33.739  23.310   8.076
 2278POPC   C4B31066  33.555  23.568   7.799
 2279POPC   NC331067  17.851   0.865   9.719
 2279POPC   PO431068  17.895   0.178   9.553
 2279POPC   GL131069  17.583   0.338   9.214
 2279POPC   GL231070  17.341   0.096   9.129
 2279POPC   C1A31071  17.421   0.571   8.850
 2279POPC   D2A31072  17.607   0.648   8.435
 2279POPC   C3A31073  17.457   0.555   8.030
 2279POPC   C4A31074  17.305   0.609   7.623
 2279POPC   C1B31075  17.388   0.008   8.709
 2279POPC   C2B31076  17.351   0.123   8.290
 2279POPC   C3B31077  17.580   0.049   7.939
 2279POPC   C4B31078  17.725   0.316   7.638
 2280POPC   NC331079   4.866   7.513   9.532
 2280POPC   PO431080   5.375   6.982   9.594
 2280POPC   GL131081   5.289   7.183   9.203
 2280POPC   GL231082   5.266   7.542   9.216
 2280POPC   C1A31083   5.045   7.233   8.806
 2280POPC   D2A31084   4.695   7.377   8.534
 2280POPC   C3A31085   4.756   7.301   8.089
 2280POPC   C4A31086   5.069   7.158   7.777
 2280POPC   C1B31087   5.391   7.641   8.824
 2280POPC   C2B31088   5.214   7.737   8.442
 2280POPC   C3B31089   5.445   7.672   8.076
 2280POPC   C4B31090   5.228   7.674   7.685
 2281POPC   NC331091  35.210  22.418   9.537
 2281POPC   PO431092  35.048  23.059   9.454
 2281POPC   GL131093  35.271  22.823   9.178
 2281POPC   GL231094  35.621  22.821   9.289
 2281POPC   C1A31095  35.281  22.969   8.765
 2281POPC   D2A31096  35.120  22.795   8.428
 2281POPC   C3A31097  35.190  23.037   8.115
 2281POPC   C4A31098  35.235  23.010   7.708
 2281POPC   C1B31099  35.738  22.790   8.843
 2281POPC   C2B31100  35.630  22.672   8.415
 2281POPC   C3B31101  35.642  22.798   7.981
 2281POPC   C4B31102  35.768  23.056   7.623
 2282POPC   NC331103  41.621   7.546   9.554
 2282POPC   PO431104  41.329   6.819   9.530
 2282POPC   GL131105  41.377   7.200   9.194
 2282POPC   GL231106  41.504   7.592   9.091
 2282POPC   C1A31107  41.542   7.237   8.766
 2282POPC   D2A31108  41.433   7.343   8.394
 2282POPC   C3A31109  41.572   7.045   8.106
 2282POPC   C4A31110  41.483   7.162   7.710
 2282POPC   C1B31111  41.787   7.841   8.797
 2282POPC   C2B31112  41.720   7.761   8.379
 2282POPC   C3B31113  41.514   7.657   7.972
 2282POPC   C4B31114  41.681   7.711   7.539
 2283POPC   NC331115  30.316   6.488   9.528
 2283POPC   PO431116  30.988   6.512   9.619
 2283POPC   GL131117  30.852   6.673   9.231
 2283POPC   GL231118  30.569   6.921   9.266
 2283POPC   C1A31119  30.878   6.843   8.810
 2283POPC   D2A31120  31.087   6.718   8.431
 2283POPC   C3A31121  30.975   6.788   8.028
 2283POPC   C4A31122  30.990   6.933   7.637
 2283POPC   C1B31123  30.410   6.651   8.929
 2283POPC   C2B31124  30.329   6.428   8.564
 2283POPC   C3B31125  30.559   6.526   8.206
 2283POPC   C4B31126  30.675   6.405   7.801
 2284POPC   NC331127   9.534  15.377   9.544
 2284POPC   PO431128   9.547  14.708   9.392
 2284POPC   GL131129   9.761  15.072   9.152
 2284POPC   GL231130   9.572  15.409   9.038
 2284POPC   C1A31131   9.869  15.094   8.700
 2284POPC   D2A31132   9.628  15.082   8.314
 2284POPC   C3A31133   9.795  14.895   7.940
 2284POPC   C4A31134   9.679  15.082   7.536
 2284POPC   C1B31135  10.013  15.515   8.986
 2284POPC   C2B31136  10.168  15.522   8.599
 2284POPC   C3B31137  10.090  15.328   8.218
 2284POPC   C4B31138  10.043  15.314   7.798
 2285POPC   NC331139   1.966  41.169   9.664
 2285POPC   PO431140   2.099  41.809   9.372
 2285POPC   GL131141   1.946  41.781   8.957
 2285POPC   GL231142   2.035  41.402   8.856
 2285POPC   C1A31143   1.953  41.759   8.524
 2285POPC   D2A31144   2.341  41.598   8.413
 2285POPC   C3A31145   2.342  41.523   8.008
 2285POPC   C4A31146   2.076  41.694   7.675
 2285POPC   C1B31147   1.608  41.409   8.653
 2285POPC   C2B31148   1.554  41.239   8.235
 2285POPC   C3B31149   1.612  41.536   7.852
 2285POPC   C4B31150   1.752  41.408   7.402
 2286POPC   NC331151  22.637  17.338   9.269
 2286POPC   PO431152  22.073  17.308   9.646
 2286POPC   GL131153  22.119  17.429   9.199
 2286POPC   GL231154  21.847  17.612   9.125
 2286POPC   C1A31155  22.237  17.598   8.750
 2286POPC   D2A31156  22.383  17.740   8.308
 2286POPC   C3A31157  22.311  17.416   7.991
 2286POPC   C4A31158  22.434  17.461   7.538
 2286POPC   C1B31159  21.708  17.701   8.760
 2286POPC   C2B31160  21.905  17.852   8.424
 2286POPC   C3B31161  21.873  17.693   8.052
 2286POPC   C4B31162  21.935  17.509   7.663
 2287POPC   NC331163  39.972   8.306   9.439
 2287POPC   PO431164  39.607   7.708   9.442
 2287POPC   GL131165  39.858   7.950   9.059
 2287POPC   GL231166  40.058   8.286   8.956
 2287POPC   C1A31167  39.755   8.093   8.622
 2287POPC   D2A31168  40.036   8.269   8.299
 2287POPC   C3A31169  39.900   8.033   7.946
 2287POPC   C4A31170  39.772   8.139   7.543
 2287POPC   C1B31171  40.271   8.005   8.691
 2287POPC   C2B31172  40.315   7.808   8.354
 2287POPC   C3B31173  40.410   8.001   7.977
 2287POPC   C4B31174  40.267   8.135   7.578
 2288POPC   NC331175  10.467  29.668   9.916
 2288POPC   PO431176  10.757  29.661   9.372
 2288POPC   GL131177  10.513  29.842   9.090
 2288POPC   GL231178  10.227  30.029   9.209
 2288POPC   C1A31179  10.496  29.700   8.693
 2288POPC   D2A31180  10.688  29.747   8.348
 2288POPC   C3A31181  10.530  29.572   8.021
 2288POPC   C4A31182  10.791  29.701   7.718
 2288POPC   C1B31183  10.050  29.908   8.776
 2288POPC   C2B31184  10.179  29.856   8.308
 2288POPC   C3B31185  10.219  29.976   7.860
 2288POPC   C4B31186  10.111  30.036   7.385
 2289POPC   NC331187  44.964   0.115   9.522
 2289POPC   PO431188  44.377   0.547   9.512
 2289POPC   GL131189  44.595   0.590   9.081
 2289POPC   GL231190  44.717   0.233   8.992
 2289POPC   C1A31191  44.466   0.539   8.649
 2289POPC   D2A31192  44.634   0.143   8.462
 2289POPC   C3A31193  44.622   0.318   8.085
 2289POPC   C4A31194  44.448   0.750   8.007
 2289POPC   C1B31195  44.955   0.494   8.674
 2289POPC   C2B31196  44.848   0.725   8.348
 2289POPC   C3B31197  44.950   0.667   7.928
 2289POPC   C4B31198  44.997   0.262   7.730
 2290POPC   NC331199   8.215   7.632   9.388
 2290POPC   PO431200   7.933   7.089   9.560
 2290POPC   GL131201   8.152   7.192   9.154
 2290POPC   GL231202   8.481   7.384   9.014
 2290POPC   C1A31203   8.025   7.321   8.746
 2290POPC   D2A31204   8.208   7.343   8.398
 2290POPC   C3A31205   7.986   7.517   8.033
 2290POPC   C4A31206   8.275   7.417   7.756
 2290POPC   C1B31207   8.443   7.002   8.782
 2290POPC   C2B31208   8.370   6.846   8.392
 2290POPC   C3B31209   8.466   7.051   8.053
 2290POPC   C4B31210   8.456   6.922   7.662
 2291POPC   NC331211  35.618  12.143   9.415
 2291POPC   PO431212  34.989  12.548   9.466
 2291POPC   GL131213  35.133  12.226   9.205
 2291POPC   GL231214  35.405  12.532   9.159
 2291POPC   C1A31215  35.067  11.913   8.819
 2291POPC   D2A31216  35.316  11.869   8.397
 2291POPC   C3A31217  35.207  12.057   7.957
 2291POPC   C4A31218  35.081  12.164   7.485
 2291POPC   C1B31219  35.407  12.296   8.792
 2291POPC   C2B31220  35.467  12.368   8.398
 2291POPC   C3B31221  35.394  12.536   8.037
 2291POPC   C4B31222  35.643  12.286   7.801
 2292POPC   NC331223  29.745  25.988   9.494
 2292POPC   PO431224  30.254  26.277   9.307
 2292POPC   GL131225  30.013  26.074   9.012
 2292POPC   GL231226  29.663  25.969   9.004
 2292POPC   C1A31227  30.203  26.040   8.623
 2292POPC   D2A31228  30.375  25.735   8.367
 2292POPC   C3A31229  30.105  25.705   8.021
 2292POPC   C4A31230  30.024  26.171   7.906
 2292POPC   C1B31231  29.470  26.084   8.613
 2292POPC   C2B31232  29.491  26.409   8.264
 2292POPC   C3B31233  29.529  26.285   7.827
 2292POPC   C4B31234  29.675  25.850   7.756
 2293POPC   NC331235  18.956  28.793   9.434
 2293POPC   PO431236  19.084  29.402   9.455
 2293POPC   GL131237  19.134  29.125   9.092
 2293POPC   GL231238  19.425  28.869   9.185
 2293POPC   C1A31239  18.841  29.067   8.698
 2293POPC   D2A31240  18.604  29.148   8.296
 2293POPC   C3A31241  18.772  29.014   7.913
 2293POPC   C4A31242  18.923  29.211   7.538
 2293POPC   C1B31243  19.277  28.804   8.735
 2293POPC   C2B31244  19.119  28.878   8.283
 2293POPC   C3B31245  19.234  28.875   7.799
 2293POPC   C4B31246  19.304  28.947   7.322
 2294POPC   NC331247   5.356  29.838   9.510
 2294POPC   PO431248   4.740  29.758   9.355
 2294POPC   GL131249   4.919  29.989   9.025
 2294POPC   GL231250   5.272  30.101   9.082
 2294POPC   C1A31251   5.011  29.818   8.637
 2294POPC   D2A31252   4.831  29.468   8.422
 2294POPC   C3A31253   4.799  29.722   8.077
 2294POPC   C4A31254   4.986  29.806   7.694
 2294POPC   C1B31255   5.278  30.266   8.666
 2294POPC   C2B31256   5.051  30.219   8.263
 2294POPC   C3B31257   5.104  30.272   7.820
 2294POPC   C4B31258   5.385  30.048   7.523
 2295POPC   NC331259  37.869  41.956   9.567
 2295POPC   PO431260  37.425  42.501   9.568
 2295POPC   GL131261  37.621  42.534   9.184
 2295POPC   GL231262  37.751  42.208   9.107
 2295POPC   C1A31263  37.367  42.427   8.815
 2295POPC   D2A31264  37.446  42.477   8.396
 2295POPC   C3A31265  37.495  42.242   8.019
 2295POPC   C4A31266  37.254  42.494   7.765
 2295POPC   C1B31267  37.870  42.458   8.698
 2295POPC   C2B31268  37.933  42.375   8.236
 2295POPC   C3B31269  37.928  42.350   7.763
 2295POPC   C4B31270  38.059  42.213   7.313
 2296POPC   NC331271  26.286  38.994   9.490
 2296POPC   PO431272  25.795  39.347   9.745
 2296POPC   GL131273  25.891  39.289   9.238
 2296POPC   GL231274  26.090  39.536   9.085
 2296POPC   C1A31275  26.017  39.154   8.783
 2296POPC   D2A31276  26.183  39.349   8.404
 2296POPC   C3A31277  26.206  39.105   8.020
 2296POPC   C4A31278  26.134  39.110   7.562
 2296POPC   C1B31279  25.786  39.603   8.694
 2296POPC   C2B31280  25.534  39.838   8.379
 2296POPC   C3B31281  25.524  39.633   7.962
 2296POPC   C4B31282  25.916  39.545   7.722
 2297POPC   NC331283  18.261  40.367   9.564
 2297POPC   PO431284  18.667  39.777   9.505
 2297POPC   GL131285  18.353  39.830   9.152
 2297POPC   GL231286  18.286  40.147   9.130
 2297POPC   C1A31287  18.190  39.900   8.716
 2297POPC   D2A31288  18.013  40.033   8.340
 2297POPC   C3A31289  18.230  39.806   8.058
 2297POPC   C4A31290  18.351  39.576   7.689
 2297POPC   C1B31291  18.496  40.399   8.816
 2297POPC   C2B31292  18.473  40.223   8.419
 2297POPC   C3B31293  18.352  40.314   8.026
 2297POPC   C4B31294  18.664  40.330   7.744
 2298POPC   NC331295  30.023  13.082   9.812
 2298POPC   PO431296  29.813  13.630   9.315
 2298POPC   GL131297  29.699  13.442   8.985
 2298POPC   GL231298  29.615  13.759   8.854
 2298POPC   C1A31299  29.859  13.375   8.575
 2298POPC   D2A31300  29.877  13.554   8.193
 2298POPC   C3A31301  29.845  13.223   7.901
 2298POPC   C4A31302  29.808  13.235   7.471
 2298POPC   C1B31303  30.086  13.783   8.768
 2298POPC   C2B31304  30.322  13.862   8.423
 2298POPC   C3B31305  30.184  13.989   8.026
 2298POPC   C4B31306  30.016  13.672   7.712
 2299POPC   NC331307  12.884  38.655   9.499
 2299POPC   PO431308  12.540  38.196   9.374
 2299POPC   GL131309  12.759  38.441   9.045
 2299POPC   GL231310  12.991  38.731   9.010
 2299POPC   C1A31311  12.583  38.560   8.640
 2299POPC   D2A31312  12.524  38.573   8.167
 2299POPC   C3A31313  12.782  38.289   7.953
 2299POPC   C4A31314  13.201  38.291   7.752
 2299POPC   C1B31315  13.195  38.557   8.646
 2299POPC   C2B31316  13.268  38.571   8.190
 2299POPC   C3B31317  13.009  38.729   7.889
 2299POPC   C4B31318  12.617  38.705   7.680
 2300POPC   NC331319   8.965  19.216   9.507
 2300POPC   PO431320   9.530  18.730   9.514
 2300POPC   GL131321   9.297  19.013   9.160
 2300POPC   GL231322   8.946  18.884   9.120
 2300POPC   C1A31323   9.055  19.301   8.794
 2300POPC   D2A31324   8.912  19.505   8.346
 2300POPC   C3A31325   9.158  19.232   8.029
 2300POPC   C4A31326   9.294  18.915   7.715
 2300POPC   C1B31327   8.653  18.956   8.791
 2300POPC   C2B31328   8.821  19.014   8.392
 2300POPC   C3B31329   8.689  19.030   7.997
 2300POPC   C4B31330   8.810  18.773   7.695
 2301POPC   NC331331  43.199   6.506   9.550
 2301POPC   PO431332  42.869   7.147   9.416
 2301POPC   GL131333  43.030   6.784   9.168
 2301POPC   GL231334  42.794   6.460   9.163
 2301POPC   C1A31335  43.214   6.464   8.852
 2301POPC   D2A31336  43.106   6.340   8.420
 2301POPC   C3A31337  43.386   6.443   8.062
 2301POPC   C4A31338  43.366   6.504   7.568
 2301POPC   C1B31339  42.767   6.714   8.760
 2301POPC   C2B31340  43.130   6.965   8.595
 2301POPC   C3B31341  43.240   6.978   8.168
 2301POPC   C4B31342  42.995   6.710   7.878
 2302POPC   NC331343  23.859   2.527   9.367
 2302POPC   PO431344  23.308   2.720   9.636
 2302POPC   GL131345  23.539   2.948   9.200
 2302POPC   GL231346  23.665   2.711   8.937
 2302POPC   C1A31347  23.684   3.147   8.720
 2302POPC   D2A31348  23.655   3.124   8.236
 2302POPC   C3A31349  23.746   2.819   7.881
 2302POPC   C4A31350  23.666   2.371   7.834
 2302POPC   C1B31351  24.021   2.652   8.705
 2302POPC   C2B31352  24.045   2.769   8.316
 2302POPC   C3B31353  24.158   2.515   7.972
 2302POPC   C4B31354  24.045   2.552   7.533
 2303POPC   NC331355  24.592  43.467   9.301
 2303POPC   PO431356  24.374  43.979   9.735
 2303POPC   GL131357  24.388  44.054   9.271
 2303POPC   GL231358  24.723  44.050   9.238
 2303POPC   C1A31359  24.258  43.937   8.814
 2303POPC   D2A31360  24.051  44.175   8.498
 2303POPC   C3A31361  24.251  44.007   8.173
 2303POPC   C4A31362  24.422  43.773   7.868
 2303POPC   C1B31363  24.782  43.941   8.804
 2303POPC   C2B31364  24.727  43.746   8.374
 2303POPC   C3B31365  24.858  43.550   7.942
 2303POPC   C4B31366  24.718  43.667   7.474
 2304POPC   NC331367  19.567   0.790   9.552
 2304POPC   PO431368  20.011   0.395   9.738
 2304POPC   GL131369  19.916   0.395   9.290
 2304POPC   GL231370  19.669   0.153   9.117
 2304POPC   C1A31371  19.874   0.604   8.888
 2304POPC   D2A31372  19.549   0.509   8.597
 2304POPC   C3A31373  19.621   0.387   8.191
 2304POPC   C4A31374  19.666   0.449   7.772
 2304POPC   C1B31375  20.057   0.145   8.845
 2304POPC   C2B31376  20.096   0.331   8.459
 2304POPC   C3B31377  20.111   0.415   8.042
 2304POPC   C4B31378  20.243   0.220   7.713
 2305POPC   NC331379  28.178  15.246   9.604
 2305POPC   PO431380  28.801  14.801   9.493
 2305POPC   GL131381  28.517  15.075   9.237
 2305POPC   GL231382  28.167  14.956   9.176
 2305POPC   C1A31383  28.379  15.296   8.842
 2305POPC   D2A31384  28.366  15.253   8.393
 2305POPC   C3A31385  28.164  15.435   8.024
 2305POPC   C4A31386  28.387  15.207   7.668
 2305POPC   C1B31387  28.025  14.916   8.751
 2305POPC   C2B31388  28.045  14.789   8.322
 2305POPC   C3B31389  27.984  14.985   7.914
 2305POPC   C4B31390  27.957  14.985   7.448
 2306POPC   NC331391  27.016  13.500   9.426
 2306POPC   PO431392  26.376  13.853   9.467
 2306POPC   GL131393  26.587  13.649   9.169
 2306POPC   GL231394  26.828  13.905   9.157
 2306POPC   C1A31395  26.697  13.527   8.756
 2306POPC   D2A31396  26.527  13.328   8.368
 2306POPC   C3A31397  26.730  13.480   7.997
 2306POPC   C4A31398  26.675  13.763   7.665
 2306POPC   C1B31399  26.907  14.017   8.750
 2306POPC   C2B31400  26.755  13.853   8.363
 2306POPC   C3B31401  26.994  13.915   8.025
 2306POPC   C4B31402  27.010  14.146   7.666
 2307POPC   NC331403  20.692  44.417   9.562
 2307POPC   PO431404  20.251  44.906   9.431
 2307POPC   GL131405  20.623  44.968   9.214
 2307POPC   GL231406  20.688  44.625   9.116
 2307POPC   C1A31407  20.815  44.991   8.819
 2307POPC   D2A31408  20.702  44.762   8.473
 2307POPC   C3A31409  20.549   0.049   8.141
 2307POPC   C4A31410  20.626  44.892   7.732
 2307POPC   C1B31411  20.327  44.700   8.844
 2307POPC   C2B31412  20.197  44.802   8.454
 2307POPC   C3B31413  20.366  44.564   8.132
 2307POPC   C4B31414  20.322  44.479   7.747
 2308POPC   NC331415   0.256  40.670   9.559
 2308POPC   PO431416   0.896  40.615   9.478
 2308POPC   GL131417   0.587  40.661   9.161
 2308POPC   GL231418   0.392  40.993   9.189
 2308POPC   C1A31419   0.657  40.745   8.749
 2308POPC   D2A31420   0.603  40.945   8.368
 2308POPC   C3A31421   0.690  40.757   7.985
 2308POPC   C4A31422   0.628  41.100   7.676
 2308POPC   C1B31423   0.316  41.144   8.801
 2308POPC   C2B31424   0.101  40.994   8.421
 2308POPC   C3B31425   0.211  40.967   7.979
 2308POPC   C4B31426   0.157  41.030   7.526
 2309POPC   NC331427   3.885  15.941   9.557
 2309POPC   PO431428   4.547  15.883   9.491
 2309POPC   GL131429   4.413  15.860   9.076
 2309POPC   GL231430   4.046  15.966   9.059
 2309POPC   C1A31431   4.577  15.909   8.658
 2309POPC   D2A31432   4.434  16.120   8.277
 2309POPC   C3A31433   4.296  15.825   7.975
 2309POPC   C4A31434   4.584  15.745   7.665
 2309POPC   C1B31435   3.918  16.282   8.756
 2309POPC   C2B31436   3.889  16.189   8.329
 2309POPC   C3B31437   4.069  16.299   7.948
 2309POPC   C4B31438   3.977  16.026   7.595
 2310POPC   NC331439  18.417   4.951   9.546
 2310POPC   PO431440  17.748   5.076   9.362
 2310POPC   GL131441  18.087   4.915   9.150
 2310POPC   GL231442  18.296   5.224   9.135
 2310POPC   C1A31443  18.198   4.948   8.715
 2310POPC   D2A31444  17.990   5.177   8.387
 2310POPC   C3A31445  18.127   4.969   8.032
 2310POPC   C4A31446  18.378   4.950   7.672
 2310POPC   C1B31447  18.505   5.381   8.781
 2310POPC   C2B31448  18.451   5.557   8.378
 2310POPC   C3B31449  18.486   5.355   7.968
 2310POPC   C4B31450  18.534   5.415   7.498
 2311POPC   NC331451  33.229  22.516   9.281
 2311POPC   PO431452  32.931  21.988   9.562
 2311POPC   GL131453  33.004  22.026   9.103
 2311POPC   GL231454  32.908  22.321   8.925
 2311POPC   C1A31455  33.070  21.867   8.696
 2311POPC   D2A31456  33.076  22.107   8.292
 2311POPC   C3A31457  32.907  22.016   7.864
 2311POPC   C4A31458  32.625  22.021   7.487
 2311POPC   C1B31459  33.326  22.303   8.704
 2311POPC   C2B31460  33.593  22.380   8.399
 2311POPC   C3B31461  33.401  22.470   8.062
 2311POPC   C4B31462  33.286  22.307   7.711
 2312POPC   NC331463   7.230  30.086   9.317
 2312POPC   PO431464   6.712  30.106   9.757
 2312POPC   GL131465   6.710  29.980   9.290
 2312POPC   GL231466   6.824  29.645   9.127
 2312POPC   C1A31467   6.725  30.084   8.840
 2312POPC   D2A31468   6.843  30.020   8.394
 2312POPC   C3A31469   6.532  30.178   8.076
 2312POPC   C4A31470   6.611  30.194   7.652
 2312POPC   C1B31471   6.611  29.595   8.701
 2312POPC   C2B31472   6.741  29.517   8.267
 2312POPC   C3B31473   6.682  29.704   7.831
 2312POPC   C4B31474   6.612  29.723   7.357
 2313POPC   NC331475  37.024   0.771   9.522
 2313POPC   PO431476  37.366   0.195   9.274
 2313POPC   GL131477  36.939   0.240   9.145
 2313POPC   GL231478  36.835   0.560   9.111
 2313POPC   C1A31479  36.881   0.171   8.729
 2313POPC   D2A31480  37.122   0.382   8.409
 2313POPC   C3A31481  36.969   0.330   7.987
 2313POPC   C4A31482  36.706   0.089   7.711
 2313POPC   C1B31483  36.822   0.691   8.709
 2313POPC   C2B31484  37.077   0.902   8.459
 2313POPC   C3B31485  37.097   0.857   8.068
 2313POPC   C4B31486  36.842   0.754   7.735
 2314POPC   NC331487  42.624  35.071   9.533
 2314POPC   PO431488  42.270  35.647   9.511
 2314POPC   GL131489  42.298  35.254   9.175
 2314POPC   GL231490  42.021  34.994   9.065
 2314POPC   C1A31491  42.362  35.208   8.711
 2314POPC   D2A31492  42.427  35.571   8.424
 2314POPC   C3A31493  42.443  35.508   7.994
 2314POPC   C4A31494  42.491  35.380   7.570
 2314POPC   C1B31495  41.850  35.195   8.677
 2314POPC   C2B31496  42.041  35.250   8.271
 2314POPC   C3B31497  42.081  35.195   7.826
 2314POPC   C4B31498  41.999  35.362   7.391
 2315POPC   NC331499  36.976  18.321   9.599
 2315POPC   PO431500  36.326  18.079   9.725
 2315POPC   GL131501  36.630  18.082   9.339
 2315POPC   GL231502  36.574  18.449   9.292
 2315POPC   C1A31503  36.908  18.272   8.952
 2315POPC   D2A31504  36.860  18.501   8.536
 2315POPC   C3A31505  36.874  18.261   8.163
 2315POPC   C4A31506  37.167  18.293   7.809
 2315POPC   C1B31507  36.448  18.442   8.838
 2315POPC   C2B31508  36.364  18.421   8.385
 2315POPC   C3B31509  36.498  18.722   8.080
 2315POPC   C4B31510  36.782  18.629   7.715
 2316POPC   NC331511  21.559  36.513   9.529
 2316POPC   PO431512  21.195  35.907   9.636
 2316POPC   GL131513  21.162  35.969   9.179
 2316POPC   GL231514  21.304  36.305   9.151
 2316POPC   C1A31515  21.461  35.974   8.820
 2316POPC   D2A31516  21.575  35.853   8.428
 2316POPC   C3A31517  21.358  36.081   8.122
 2316POPC   C4A31518  21.502  35.978   7.746
 2316POPC   C1B31519  21.490  36.491   8.754
 2316POPC   C2B31520  21.294  36.623   8.372
 2316POPC   C3B31521  21.100  36.534   8.008
 2316POPC   C4B31522  21.416  36.474   7.713
 2317POPC   NC331523  28.457   7.937   9.515
 2317POPC   PO431524  27.913   8.496   9.459
 2317POPC   GL131525  28.308   8.393   9.195
 2317POPC   GL231526  28.386   8.049   9.033
 2317POPC   C1A31527  28.538   8.451   8.787
 2317POPC   D2A31528  28.335   8.211   8.475
 2317POPC   C3A31529  28.428   8.284   8.070
 2317POPC   C4A31530  28.111   8.143   7.765
 2317POPC   C1B31531  28.516   7.752   8.729
 2317POPC   C2B31532  28.677   7.622   8.351
 2317POPC   C3B31533  28.574   7.808   7.997
 2317POPC   C4B31534  28.414   7.742   7.648
 2318POPC   NC331535  10.002  18.456   9.560
 2318POPC   PO431536   9.684  17.974   9.351
 2318POPC   GL131537   9.770  18.128   9.007
 2318POPC   GL231538   9.724  18.436   9.130
 2318POPC   C1A31539   9.581  18.322   8.653
 2318POPC   D2A31540   9.559  18.354   8.223
 2318POPC   C3A31541   9.758  18.084   7.977
 2318POPC   C4A31542   9.424  17.863   7.782
 2318POPC   C1B31543  10.023  18.533   8.810
 2318POPC   C2B31544   9.923  18.648   8.425
 2318POPC   C3B31545  10.101  18.572   8.040
 2318POPC   C4B31546  10.083  18.403   7.660
 2319POPC   NC331547  18.373  20.426   9.530
 2319POPC   PO431548  18.561  19.846   9.850
 2319POPC   GL131549  18.349  19.885   9.379
 2319POPC   GL231550  18.607  19.670   9.194
 2319POPC   C1A31551  18.243  19.905   8.917
 2319POPC   D2A31552  18.112  19.798   8.457
 2319POPC   C3A31553  17.988  19.860   8.021
 2319POPC   C4A31554  18.206  19.677   7.618
 2319POPC   C1B31555  18.743  19.834   8.778
 2319POPC   C2B31556  18.563  19.995   8.382
 2319POPC   C3B31557  18.529  19.839   7.969
 2319POPC   C4B31558  18.641  19.995   7.531
 2320POPC   NC331559  16.050  44.208   9.447
 2320POPC   PO431560  16.108  43.585   9.464
 2320POPC   GL131561  15.851  43.783   9.176
 2320POPC   GL231562  16.156  43.919   9.048
 2320POPC   C1A31563  15.815  43.681   8.746
 2320POPC   D2A31564  16.048  43.788   8.396
 2320POPC   C3A31565  15.890  43.589   8.044
 2320POPC   C4A31566  15.669  43.746   7.731
 2320POPC   C1B31567  16.398  44.077   8.692
 2320POPC   C2B31568  16.431  44.124   8.244
 2320POPC   C3B31569  16.410  44.142   7.830
 2320POPC   C4B31570  16.111  43.962   7.606
 2321POPC   NC331571   5.914  26.419   9.399
 2321POPC   PO431572   6.403  26.093   9.488
 2321POPC   GL131573   6.041  25.919   9.210
 2321POPC   GL231574   5.678  26.057   9.153
 2321POPC   C1A31575   5.932  25.884   8.752
 2321POPC   D2A31576   5.939  26.121   8.378
 2321POPC   C3A31577   5.765  25.943   7.994
 2321POPC   C4A31578   6.012  25.888   7.636
 2321POPC   C1B31579   5.498  26.157   8.739
 2321POPC   C2B31580   5.382  26.005   8.349
 2321POPC   C3B31581   5.297  26.129   7.943
 2321POPC   C4B31582   5.592  26.232   7.594
 2322POPC   NC331583  14.465   4.764   9.382
 2322POPC   PO431584  14.601   5.421   9.525
 2322POPC   GL131585  14.502   5.436   9.111
 2322POPC   GL231586  14.197   5.250   9.122
 2322POPC   C1A31587  14.495   5.226   8.689
 2322POPC   D2A31588  14.233   5.242   8.320
 2322POPC   C3A31589  14.298   5.105   7.895
 2322POPC   C4A31590  14.497   5.299   7.561
 2322POPC   C1B31591  13.948   5.098   8.744
 2322POPC   C2B31592  13.723   5.317   8.401
 2322POPC   C3B31593  13.846   5.331   7.977
 2322POPC   C4B31594  13.841   4.991   7.629
 2323POPC   NC331595  41.142  32.114   9.518
 2323POPC   PO431596  41.707  32.434   9.555
 2323POPC   GL131597  41.598  32.198   9.187
 2323POPC   GL231598  41.487  31.862   9.188
 2323POPC   C1A31599  41.743  32.053   8.775
 2323POPC   D2A31600  41.708  32.267   8.396
 2323POPC   C3A31601  41.748  32.092   7.993
 2323POPC   C4A31602  41.631  32.275   7.618
 2323POPC   C1B31603  41.245  31.902   8.813
 2323POPC   C2B31604  41.203  32.123   8.436
 2323POPC   C3B31605  41.266  32.235   8.036
 2323POPC   C4B31606  41.302  31.936   7.760
 2324POPC   NC331607  40.769  14.238   9.606
 2324POPC   PO431608  40.659  13.610   9.763
 2324POPC   GL131609  40.675  13.767   9.332
 2324POPC   GL231610  40.764  13.443   9.186
 2324POPC   C1A31611  40.584  13.810   8.882
 2324POPC   D2A31612  40.802  13.801   8.488
 2324POPC   C3A31613  40.531  13.706   8.150
 2324POPC   C4A31614  40.611  13.607   7.721
 2324POPC   C1B31615  41.082  13.585   8.894
 2324POPC   C2B31616  41.209  13.481   8.474
 2324POPC   C3B31617  41.002  13.493   8.097
 2324POPC   C4B31618  41.139  13.700   7.732
 2325POPC   NC331619  36.009  26.349   9.555
 2325POPC   PO431620  36.071  25.681   9.537
 2325POPC   GL131621  36.253  26.008   9.219
 2325POPC   GL231622  36.052  26.329   9.058
 2325POPC   C1A31623  36.356  26.044   8.773
 2325POPC   D2A31624  36.185  26.163   8.375
 2325POPC   C3A31625  36.314  25.978   7.987
 2325POPC   C4A31626  35.947  25.928   7.727
 2325POPC   C1B31627  36.313  26.566   8.772
 2325POPC   C2B31628  36.453  26.590   8.347
 2325POPC   C3B31629  36.318  26.559   7.922
 2325POPC   C4B31630  36.169  26.342   7.554
 2326POPC   NC331631  12.895  29.822   9.398
 2326POPC   PO431632  12.371  30.153   9.698
 2326POPC   GL131633  12.606  30.255   9.216
 2326POPC   GL231634  12.683  29.979   8.967
 2326POPC   C1A31635  12.880  30.379   8.761
 2326POPC   D2A31636  13.041  30.114   8.388
 2326POPC   C3A31637  12.966  30.252   7.946
 2326POPC   C4A31638  12.617  30.365   7.604
 2326POPC   C1B31639  12.843  29.668   8.682
 2326POPC   C2B31640  12.721  29.455   8.318
 2326POPC   C3B31641  12.822  29.689   7.965
 2326POPC   C4B31642  12.816  29.903   7.614
 2327POPC   NC331643   0.254  24.915   9.512
 2327POPC   PO431644   0.492  25.561   9.432
 2327POPC   GL131645   0.531  25.158   9.155
 2327POPC   GL231646   0.862  24.982   9.104
 2327POPC   C1A31647   0.270  25.122   8.785
 2327POPC   D2A31648   0.280  25.508   8.517
 2327POPC   C3A31649   0.296  25.503   8.090
 2327POPC   C4A31650   0.344  25.582   7.665
 2327POPC   C1B31651   0.777  25.130   8.666
 2327POPC   C2B31652   0.490  25.085   8.301
 2327POPC   C3B31653   0.358  24.951   7.878
 2327POPC   C4B31654   0.509  25.001   7.445
 2328POPC   NC331655  44.813   8.442   9.471
 2328POPC   PO431656  44.262   8.023   9.416
 2328POPC   GL131657  44.531   8.050   9.093
 2328POPC   GL231658  44.848   8.192   9.044
 2328POPC   C1A31659  44.599   7.868   8.698
 2328POPC   D2A31660  44.938   7.808   8.416
 2328POPC   C3A31661  44.734   7.885   8.032
 2328POPC   C4A31662  44.391   8.034   7.761
 2328POPC   C1B31663  44.556   8.456   8.810
 2328POPC   C2B31664  44.815   8.338   8.480
 2328POPC   C3B31665  44.853   8.399   8.062
 2328POPC   C4B31666  44.789   8.581   7.687
 2329POPC   NC331667  21.659  24.030   9.315
 2329POPC   PO431668  21.288  23.651   9.739
 2329POPC   GL131669  21.258  23.482   9.172
 2329POPC   GL231670  21.527  23.636   8.994
 2329POPC   C1A31671  21.111  23.519   8.725
 2329POPC   D2A31672  21.410  23.726   8.491
 2329POPC   C3A31673  21.367  23.852   8.123
 2329POPC   C4A31674  21.308  23.642   7.783
 2329POPC   C1B31675  21.829  23.889   8.704
 2329POPC   C2B31676  21.878  23.982   8.269
 2329POPC   C3B31677  21.772  23.991   7.846
 2329POPC   C4B31678  21.808  23.675   7.593
 2330POPC   NC331679   6.423  12.384   9.511
 2330POPC   PO431680   6.838  12.917   9.643
 2330POPC   GL131681   6.751  12.941   9.206
 2330POPC   GL231682   6.539  12.656   9.086
 2330POPC   C1A31683   6.541  13.120   8.848
 2330POPC   D2A31684   6.655  13.034   8.432
 2330POPC   C3A31685   6.455  13.151   8.051
 2330POPC   C4A31686   6.658  13.050   7.671
 2330POPC   C1B31687   6.910  12.692   8.784
 2330POPC   C2B31688   7.010  12.678   8.340
 2330POPC   C3B31689   6.707  12.679   8.025
 2330POPC   C4B31690   6.751  12.559   7.599
 2331POPC   NC331691   9.887  37.987   9.417
 2331POPC   PO431692   9.801  37.353   9.505
 2331POPC   GL131693   9.620  37.545   9.136
 2331POPC   GL231694   9.932  37.681   8.983
 2331POPC   C1A31695   9.546  37.540   8.688
 2331POPC   D2A31696   9.827  37.673   8.401
 2331POPC   C3A31697   9.670  37.479   8.069
 2331POPC   C4A31698   9.962  37.322   7.780
 2331POPC   C1B31699   9.675  38.016   8.805
 2331POPC   C2B31700   9.433  38.004   8.429
 2331POPC   C3B31701   9.621  38.043   8.055
 2331POPC   C4B31702   9.885  37.833   7.803
 2332POPC   NC331703   9.380  22.092  10.019
 2332POPC   PO431704   9.853  22.228   9.649
 2332POPC   GL131705   9.777  22.196   9.218
 2332POPC   GL231706   9.435  22.140   9.247
 2332POPC   C1A31707   9.862  22.365   8.783
 2332POPC   D2A31708   9.600  22.441   8.408
 2332POPC   C3A31709   9.762  22.315   8.007
 2332POPC   C4A31710   9.923  22.091   7.648
 2332POPC   C1B31711   9.519  21.999   8.805
 2332POPC   C2B31712   9.562  21.926   8.345
 2332POPC   C3B31713   9.424  21.912   7.906
 2332POPC   C4B31714   9.409  22.067   7.461
 2333POPC   NC331715  30.586  33.790   9.497
 2333POPC   PO431716  30.829  34.379   9.580
 2333POPC   GL131717  30.725  34.201   9.202
 2333POPC   GL231718  31.017  34.319   9.074
 2333POPC   C1A31719  30.552  33.992   8.823
 2333POPC   D2A31720  30.471  34.077   8.377
 2333POPC   C3A31721  30.469  33.707   8.112
 2333POPC   C4A31722  30.716  33.577   7.754
 2333POPC   C1B31723  31.065  34.024   8.807
 2333POPC   C2B31724  31.126  33.895   8.439
 2333POPC   C3B31725  30.901  33.980   8.090
 2333POPC   C4B31726  31.068  33.952   7.712
 2334POPC   NC331727  28.537  31.221   9.877
 2334POPC   PO431728  28.082  30.695   9.594
 2334POPC   GL131729  28.401  30.552   9.277
 2334POPC   GL231730  28.539  30.819   9.010
 2334POPC   C1A31731  28.375  30.341   8.896
 2334POPC   D2A31732  28.242  30.344   8.484
 2334POPC   C3A31733  28.368  30.649   8.167
 2334POPC   C4A31734  28.235  30.546   7.727
 2334POPC   C1B31735  28.399  31.197   8.731
 2334POPC   C2B31736  28.339  31.314   8.288
 2334POPC   C3B31737  28.299  31.062   7.889
 2334POPC   C4B31738  28.138  30.977   7.458
 2335POPC   NC331739   5.754  38.027   9.770
 2335POPC   PO431740   6.128  37.683   9.294
 2335POPC   GL131741   5.786  37.732   9.012
 2335POPC   GL231742   6.031  37.930   8.810
 2335POPC   C1A31743   5.661  37.632   8.573
 2335POPC   D2A31744   5.936  37.842   8.287
 2335POPC   C3A31745   5.828  37.700   7.925
 2335POPC   C4A31746   5.431  37.456   7.845
 2335POPC   C1B31747   6.126  37.497   8.662
 2335POPC   C2B31748   5.967  37.321   8.285
 2335POPC   C3B31749   6.059  37.265   7.851
 2335POPC   C4B31750   6.138  37.437   7.431
 2336POPC   NC331751  27.568  14.515   9.579
 2336POPC   PO431752  27.279  13.893   9.412
 2336POPC   GL131753  27.585  14.186   9.160
 2336POPC   GL231754  27.822  14.525   9.159
 2336POPC   C1A31755  27.471  14.197   8.754
 2336POPC   D2A31756  27.284  14.364   8.410
 2336POPC   C3A31757  27.409  14.189   8.073
 2336POPC   C4A31758  27.490  14.341   7.702
 2336POPC   C1B31759  27.952  14.409   8.754
 2336POPC   C2B31760  27.824  14.268   8.371
 2336POPC   C3B31761  27.937  14.193   7.961
 2336POPC   C4B31762  27.958  14.538   7.706
 2337POPC   NC331763  28.870  11.743   9.584
 2337POPC   PO431764  29.464  11.348   9.450
 2337POPC   GL131765  29.220  11.290   9.106
 2337POPC   GL231766  29.014  11.536   9.138
 2337POPC   C1A31767  29.176  11.294   8.677
 2337POPC   D2A31768  29.065  11.077   8.309
 2337POPC   C3A31769  29.275  11.328   8.002
 2337POPC   C4A31770  29.089  11.328   7.630
 2337POPC   C1B31771  28.748  11.621   8.820
 2337POPC   C2B31772  28.694  11.424   8.457
 2337POPC   C3B31773  28.801  11.507   8.070
 2337POPC   C4B31774  28.763  11.710   7.687
 2338POPC   NC331775   9.239   9.155   9.589
 2338POPC   PO431776   8.853   8.625   9.570
 2338POPC   GL131777   8.864   8.938   9.208
 2338POPC   GL231778   9.099   9.212   9.108
 2338POPC   C1A31779   8.731   9.082   8.777
 2338POPC   D2A31780   8.973   9.084   8.373
 2338POPC   C3A31781   8.737   9.233   8.015
 2338POPC   C4A31782   8.624   8.952   7.689
 2338POPC   C1B31783   9.384   9.221   8.730
 2338POPC   C2B31784   9.304   9.473   8.351
 2338POPC   C3B31785   9.204   9.408   7.927
 2338POPC   C4B31786   9.230   8.986   7.790
 2339POPC   NC331787  39.525  26.095   9.462
 2339POPC   PO431788  38.983  26.481   9.393
 2339POPC   GL131789  38.923  26.135   9.146
 2339POPC   GL231790  39.182  25.863   9.072
 2339POPC   C1A31791  38.974  26.229   8.739
 2339POPC   D2A31792  39.123  26.382   8.366
 2339POPC   C3A31793  39.185  26.167   7.987
 2339POPC   C4A31794  39.031  25.767   7.894
 2339POPC   C1B31795  39.301  25.865   8.602
 2339POPC   C2B31796  39.581  26.101   8.321
 2339POPC   C3B31797  39.659  26.114   7.870
 2339POPC   C4B31798  39.472  25.873   7.530
 2340POPC   NC331799  14.571  20.160   9.516
 2340POPC   PO431800  14.119  20.639   9.745
 2340POPC   GL131801  14.323  20.592   9.341
 2340POPC   GL231802  14.631  20.719   9.439
 2340POPC   C1A31803  14.376  20.590   8.876
 2340POPC   D2A31804  14.203  20.581   8.445
 2340POPC   C3A31805  14.364  20.631   8.014
 2340POPC   C4A31806  14.447  20.488   7.569
 2340POPC   C1B31807  14.779  20.854   9.055
 2340POPC   C2B31808  14.634  20.974   8.630
 2340POPC   C3B31809  14.688  21.052   8.174
 2340POPC   C4B31810  14.670  20.914   7.731
 2341POPC   NC331811  28.926  35.679   9.851
 2341POPC   PO431812  29.192  36.216   9.531
 2341POPC   GL131813  29.411  36.039   9.196
 2341POPC   GL231814  29.132  36.139   9.012
 2341POPC   C1A31815  29.466  35.846   8.810
 2341POPC   D2A31816  29.169  35.952   8.479
 2341POPC   C3A31817  29.254  35.724   8.104
 2341POPC   C4A31818  29.321  36.025   7.779
 2341POPC   C1B31819  29.034  36.449   8.814
 2341POPC   C2B31820  29.164  36.499   8.434
 2341POPC   C3B31821  29.054  36.373   8.053
 2341POPC   C4B31822  29.236  36.571   7.705
 2342POPC   NC331823  15.842  36.560   9.587
 2342POPC   PO431824  15.678  37.289   9.482
 2342POPC   GL131825  15.893  37.196   9.101
 2342POPC   GL231826  16.055  36.852   9.134
 2342POPC   C1A31827  16.037  37.157   8.696
 2342POPC   D2A31828  16.157  36.970   8.309
 2342POPC   C3A31829  15.912  37.086   7.940
 2342POPC   C4A31830  15.928  37.221   7.498
 2342POPC   C1B31831  15.864  36.689   8.749
 2342POPC   C2B31832  15.709  36.696   8.319
 2342POPC   C3B31833  15.847  36.561   7.902
 2342POPC   C4B31834  15.866  36.723   7.497
 2343POPC   NC331835  13.914   7.337   9.291
 2343POPC   PO431836  14.277   7.444   9.932
 2343POPC   GL131837  14.377   7.502   9.415
 2343POPC   GL231838  14.457   7.209   9.209
 2343POPC   C1A31839  14.365   7.604   8.905
 2343POPC   D2A31840  14.411   7.459   8.453
 2343POPC   C3A31841  14.143   7.492   8.088
 2343POPC   C4A31842  14.273   7.535   7.677
 2343POPC   C1B31843  14.498   7.072   8.778
 2343POPC   C2B31844  14.670   7.006   8.372
 2343POPC   C3B31845  14.436   7.062   7.989
 2343POPC   C4B31846  14.199   7.026   7.620
 2344POPC   NC331847  34.110  18.170   9.828
 2344POPC   PO431848  34.720  18.353   9.587
 2344POPC   GL131849  34.469  18.340   9.218
 2344POPC   GL231850  34.577  18.672   9.145
 2344POPC   C1A31851  34.448  18.141   8.794
 2344POPC   D2A31852  34.651  18.313   8.432
 2344POPC   C3A31853  34.500  18.330   8.024
 2344POPC   C4A31854  34.659  18.028   7.690
 2344POPC   C1B31855  34.885  18.536   8.825
 2344POPC   C2B31856  35.035  18.681   8.389
 2344POPC   C3B31857  35.015  18.714   7.933
 2344POPC   C4B31858  34.777  18.521   7.625
 2345POPC   NC331859  41.635  11.808   9.778
 2345POPC   PO431860  41.667  12.370   9.368
 2345POPC   GL131861  41.531  12.241   8.969
 2345POPC   GL231862  41.341  11.907   8.914
 2345POPC   C1A31863  41.478  12.223   8.551
 2345POPC   D2A31864  41.724  12.063   8.253
 2345POPC   C3A31865  41.564  12.343   7.952
 2345POPC   C4A31866  41.761  12.466   7.643
 2345POPC   C1B31867  41.574  11.687   8.613
 2345POPC   C2B31868  41.399  11.630   8.217
 2345POPC   C3B31869  41.508  11.865   7.839
 2345POPC   C4B31870  41.289  11.870   7.475
 2346POPC   NC331871  42.126   3.239   9.928
 2346POPC   PO431872  42.541   3.700   9.503
 2346POPC   GL131873  42.427   3.580   9.079
 2346POPC   GL231874  42.037   3.539   9.078
 2346POPC   C1A31875  42.652   3.440   8.699
 2346POPC   D2A31876  42.597   3.675   8.307
 2346POPC   C3A31877  42.471   3.675   7.882
 2346POPC   C4A31878  42.042   3.663   7.764
 2346POPC   C1B31879  42.180   3.194   8.801
 2346POPC   C2B31880  42.352   3.132   8.410
 2346POPC   C3B31881  42.201   3.279   8.073
 2346POPC   C4B31882  42.096   3.152   7.707
 2347POPC   NC331883  15.324  25.915   9.452
 2347POPC   PO431884  15.295  26.629   9.527
 2347POPC   GL131885  15.237  26.401   9.172
 2347POPC   GL231886  15.463  26.178   9.030
 2347POPC   C1A31887  15.016  26.392   8.793
 2347POPC   D2A31888  14.791  26.197   8.467
 2347POPC   C3A31889  15.075  26.063   8.132
 2347POPC   C4A31890  14.995  26.198   7.708
 2347POPC   C1B31891  15.264  25.948   8.701
 2347POPC   C2B31892  15.455  25.663   8.422
 2347POPC   C3B31893  15.527  25.697   8.013
 2347POPC   C4B31894  15.234  25.765   7.716
 2348POPC   NC331895  30.812   9.643   9.548
 2348POPC   PO431896  30.552  10.135   9.683
 2348POPC   GL131897  30.550   9.859   9.205
 2348POPC   GL231898  30.432   9.529   9.215
 2348POPC   C1A31899  30.769   9.752   8.827
 2348POPC   D2A31900  30.647   9.656   8.417
 2348POPC   C3A31901  30.826   9.800   8.051
 2348POPC   C4A31902  30.417   9.828   7.839
 2348POPC   C1B31903  30.461   9.347   8.796
 2348POPC   C2B31904  30.471   9.180   8.378
 2348POPC   C3B31905  30.777   9.264   8.068
 2348POPC   C4B31906  30.764   9.484   7.661
 2349POPC   NC331907  37.050  24.190   9.414
 2349POPC   PO431908  36.597  24.676   9.326
 2349POPC   GL131909  36.946  24.606   9.098
 2349POPC   GL231910  36.995  24.879   8.888
 2349POPC   C1A31911  37.134  24.397   8.784
 2349POPC   D2A31912  37.103  24.566   8.397
 2349POPC   C3A31913  36.961  24.437   8.030
 2349POPC   C4A31914  37.112  24.654   7.641
 2349POPC   C1B31915  36.665  24.650   8.648
 2349POPC   C2B31916  36.492  24.380   8.355
 2349POPC   C3B31917  36.484  24.207   7.960
 2349POPC   C4B31918  36.587  24.544   7.702
 2350POPC   NC331919  10.573  40.951   9.801
 2350POPC   PO431920  10.177  40.454   9.568
 2350POPC   GL131921  10.513  40.700   9.339
 2350POPC   GL231922  10.830  40.534   9.201
 2350POPC   C1A31923  10.557  40.908   8.943
 2350POPC   D2A31924  10.542  40.815   8.488
 2350POPC   C3A31925  10.474  41.077   8.117
 2350POPC   C4A31926  10.671  41.200   7.733
 2350POPC   C1B31927  10.466  40.382   8.916
 2350POPC   C2B31928  10.227  40.346   8.530
 2350POPC   C3B31929  10.292  40.548   8.129
 2350POPC   C4B31930  10.429  40.709   7.758
 2351POPC   NC331931  20.762   1.987   9.447
 2351POPC   PO431932  20.566   2.632   9.362
 2351POPC   GL131933  20.529   2.310   9.128
 2351POPC   GL231934  20.317   2.057   9.205
 2351POPC   C1A31935  20.541   2.106   8.760
 2351POPC   D2A31936  20.848   2.052   8.507
 2351POPC   C3A31937  20.700   2.197   8.166
 2351POPC   C4A31938  20.685   1.945   7.823
 2351POPC   C1B31939  20.245   1.704   8.875
 2351POPC   C2B31940  20.439   1.674   8.461
 2351POPC   C3B31941  20.302   1.654   8.047
 2351POPC   C4B31942  20.250   1.746   7.618
 2352POPC   NC331943   3.521  11.850   9.524
 2352POPC   PO431944   3.056  12.387   9.528
 2352POPC   GL131945   3.110  12.202   9.102
 2352POPC   GL231946   3.281  11.908   9.083
 2352POPC   C1A31947   3.367  12.185   8.675
 2352POPC   D2A31948   3.259  12.076   8.235
 2352POPC   C3A31949   3.592  11.944   7.961
 2352POPC   C4A31950   3.944  12.213   7.827
 2352POPC   C1B31951   3.125  11.730   8.714
 2352POPC   C2B31952   3.055  11.591   8.308
 2352POPC   C3B31953   3.101  11.690   7.885
 2352POPC   C4B31954   3.315  11.780   7.509
 2353POPC   NC331955  12.750  41.912   9.370
 2353POPC   PO431956  13.159  41.365   9.580
 2353POPC   GL131957  12.974  41.476   9.199
 2353POPC   GL231958  12.637  41.436   9.096
 2353POPC   C1A31959  13.023  41.558   8.774
 2353POPC   D2A31960  13.233  41.652   8.391
 2353POPC   C3A31961  12.889  41.573   8.085
 2353POPC   C4A31962  12.941  41.250   7.827
 2353POPC   C1B31963  12.372  41.308   8.721
 2353POPC   C2B31964  12.289  41.188   8.285
 2353POPC   C3B31965  12.434  41.288   7.887
 2353POPC   C4B31966  12.585  41.327   7.477
 2354POPC   NC331967   4.520  16.949   9.397
 2354POPC   PO431968   5.119  16.700   9.421
 2354POPC   GL131969   5.026  16.803   9.030
 2354POPC   GL231970   4.722  16.650   9.045
 2354POPC   C1A31971   4.917  16.819   8.588
 2354POPC   D2A31972   5.183  16.887   8.297
 2354POPC   C3A31973   5.070  16.665   7.957
 2354POPC   C4A31974   5.059  16.514   7.577
 2354POPC   C1B31975   4.447  16.905   8.758
 2354POPC   C2B31976   4.513  17.112   8.388
 2354POPC   C3B31977   4.785  17.077   8.060
 2354POPC   C4B31978   4.952  17.038   7.614
 2355POPC   NC331979  11.322  11.227   9.480
 2355POPC   PO431980  11.960  11.448   9.528
 2355POPC   GL131981  11.742  11.199   9.170
 2355POPC   GL231982  11.382  11.322   9.001
 2355POPC   C1A31983  11.740  11.083   8.730
 2355POPC   D2A31984  11.732  11.284   8.310
 2355POPC   C3A31985  11.352  11.216   8.084
 2355POPC   C4A31986  11.213  11.289   7.679
 2355POPC   C1B31987  11.071  11.559   8.718
 2355POPC   C2B31988  11.068  11.619   8.281
 2355POPC   C3B31989  10.852  11.358   8.057
 2355POPC   C4B31990  10.699  11.297   7.655
 2356POPC   NC331991  21.218  30.340   9.566
 2356POPC   PO431992  21.001  31.031   9.400
 2356POPC   GL131993  21.196  30.715   9.045
 2356POPC   GL231994  21.460  30.411   9.020
 2356POPC   C1A31995  21.299  30.542   8.581
 2356POPC   D2A31996  21.654  30.426   8.295
 2356POPC   C3A31997  21.509  30.470   7.863
 2356POPC   C4A31998  21.310  30.846   7.684
 2356POPC   C1B31999  21.659  30.809   8.807
 2356POPC   C2B32000  21.545  30.989   8.427
 2356POPC   C3B32001  21.699  30.909   8.089
 2356POPC   C4B32002  21.777  30.932   7.717
 2357POPC   NC332003   7.724   4.246   9.599
 2357POPC   PO432004   7.192   4.187   9.901
 2357POPC   GL132005   7.316   4.247   9.339
 2357POPC   GL232006   7.354   3.954   9.173
 2357POPC   C1A32007   7.499   4.386   8.906
 2357POPC   D2A32008   7.315   4.428   8.467
 2357POPC   C3A32009   7.561   4.455   8.091
 2357POPC   C4A32010   7.436   4.634   7.726
 2357POPC   C1B32011   7.158   4.014   8.764
 2357POPC   C2B32012   7.003   3.895   8.391
 2357POPC   C3B32013   7.300   3.971   8.085
 2357POPC   C4B32014   7.398   4.119   7.697
 2358POPC   NC332015   5.087  28.744   9.693
 2358POPC   PO432016   5.379  29.355   9.475
 2358POPC   GL132017   4.966  29.202   9.251
 2358POPC   GL232018   4.814  29.441   8.978
 2358POPC   C1A32019   4.908  28.967   8.868
 2358POPC   D2A32020   5.128  29.000   8.458
 2358POPC   C3A32021   4.875  29.021   8.093
 2358POPC   C4A32022   5.062  28.984   7.676
 2358POPC   C1B32023   5.238  29.385   8.799
 2358POPC   C2B32024   5.385  29.465   8.367
 2358POPC   C3B32025   5.177  29.413   7.955
 2358POPC   C4B32026   5.150  29.405   7.429
 2359POPC   NC332027  29.857  11.115   9.558
 2359POPC   PO432028  29.921  11.790   9.405
 2359POPC   GL132029  29.847  11.397   9.126
 2359POPC   GL232030  29.656  11.024   9.119
 2359POPC   C1A32031  29.754  11.371   8.717
 2359POPC   D2A32032  29.986  11.493   8.368
 2359POPC   C3A32033  29.810  11.425   7.979
 2359POPC   C4A32034  30.101  11.342   7.666
 2359POPC   C1B32035  29.617  10.892   8.731
 2359POPC   C2B32036  29.585  11.075   8.325
 2359POPC   C3B32037  29.538  10.895   7.932
 2359POPC   C4B32038  29.610  11.147   7.592
 2360POPC   NC332039   0.354  24.135   9.518
 2360POPC   PO432040   0.727  24.792   9.578
 2360POPC   GL132041   0.568  24.572   9.233
 2360POPC   GL232042   0.791  24.287   9.210
 2360POPC   C1A32043   0.343  24.574   8.826
 2360POPC   D2A32044   0.245  24.292   8.467
 2360POPC   C3A32045   0.077  24.507   8.138
 2360POPC   C4A32046   0.165  24.449   7.727
 2360POPC   C1B32047   0.860  24.552   8.805
 2360POPC   C2B32048   0.639  24.614   8.399
 2360POPC   C3B32049   0.616  24.460   7.956
 2360POPC   C4B32050   0.669  24.515   7.491
 2361POPC   NC332051  38.852  41.873   9.403
 2361POPC   PO432052  38.273  42.180   9.666
 2361POPC   GL132053  38.473  42.301   9.293
 2361POPC   GL232054  38.191  42.488   9.149
 2361POPC   C1A32055  38.607  42.351   8.877
 2361POPC   D2A32056  38.372  42.444   8.503
 2361POPC   C3A32057  38.400  42.159   8.148
 2361POPC   C4A32058  38.446  42.275   7.724
 2361POPC   C1B32059  38.220  42.824   8.826
 2361POPC   C2B32060  38.045  42.851   8.376
 2361POPC   C3B32061  38.257  42.690   7.983
 2361POPC   C4B32062  38.234  42.666   7.485
 2362POPC   NC332063  12.984  27.037   9.593
 2362POPC   PO432064  12.352  26.794   9.498
 2362POPC   GL132065  12.653  26.740   9.116
 2362POPC   GL232066  13.004  26.879   9.113
 2362POPC   C1A32067  12.837  26.642   8.684
 2362POPC   D2A32068  13.132  26.878   8.397
 2362POPC   C3A32069  12.980  26.870   7.989
 2362POPC   C4A32070  12.705  26.564   7.942
 2362POPC   C1B32071  12.871  27.141   8.783
 2362POPC   C2B32072  12.868  27.316   8.399
 2362POPC   C3B32073  12.706  27.311   7.983
 2362POPC   C4B32074  12.702  27.110   7.592
 2363POPC   NC332075  32.536  18.245   9.562
 2363POPC   PO432076  31.933  18.471   9.405
 2363POPC   GL132077  32.181  18.216   9.166
 2363POPC   GL232078  32.399  18.513   9.099
 2363POPC   C1A32079  32.071  18.130   8.757
 2363POPC   D2A32080  32.133  18.435   8.448
 2363POPC   C3A32081  32.079  18.273   8.085
 2363POPC   C4A32082  32.183  18.102   7.721
 2363POPC   C1B32083  32.615  18.186   8.845
 2363POPC   C2B32084  32.805  18.105   8.428
 2363POPC   C3B32085  32.611  18.155   8.018
 2363POPC   C4B32086  32.666  18.007   7.573
 2364POPC   NC332087  32.489  23.051   9.389
 2364POPC   PO432088  32.134  22.669   9.668
 2364POPC   GL132089  32.059  22.846   9.226
 2364POPC   GL232090  32.101  23.241   9.129
 2364POPC   C1A32091  32.240  22.846   8.797
 2364POPC   D2A32092  32.182  22.632   8.407
 2364POPC   C3A32093  32.369  22.747   8.047
 2364POPC   C4A32094  32.132  22.892   7.707
 2364POPC   C1B32095  32.410  23.346   8.777
 2364POPC   C2B32096  32.376  23.149   8.358
 2364POPC   C3B32097  32.371  23.296   7.901
 2364POPC   C4B32098  32.326  23.274   7.417
 2365POPC   NC332099  28.903  27.217   9.383
 2365POPC   PO432100  29.561  27.318   9.612
 2365POPC   GL132101  29.321  27.496   9.256
 2365POPC   GL232102  29.303  27.215   9.019
 2365POPC   C1A32103  29.361  27.669   8.805
 2365POPC   D2A32104  29.377  27.518   8.361
 2365POPC   C3A32105  29.114  27.682   8.016
 2365POPC   C4A32106  29.099  27.906   7.633
 2365POPC   C1B32107  29.074  27.128   8.637
 2365POPC   C2B32108  29.010  27.196   8.186
 2365POPC   C3B32109  29.124  27.213   7.765
 2365POPC   C4B32110  29.101  27.266   7.315
 2366POPC   NC332111  15.403  24.132   9.653
 2366POPC   PO432112  15.362  24.774   9.651
 2366POPC   GL132113  15.085  24.603   9.333
 2366POPC   GL232114  15.363  24.515   9.178
 2366POPC   C1A32115  14.948  24.490   8.890
 2366POPC   D2A32116  15.018  24.292   8.469
 2366POPC   C3A32117  15.068  24.456   8.000
 2366POPC   C4A32118  15.086  24.434   7.495
 2366POPC   C1B32119  15.448  24.592   8.751
 2366POPC   C2B32120  15.481  24.483   8.325
 2366POPC   C3B32121  15.554  24.650   7.945
 2366POPC   C4B32122  15.644  24.780   7.540
 2367POPC   NC332123  39.815  31.078   9.351
 2367POPC   PO432124  40.071  30.531   9.613
 2367POPC   GL132125  40.102  30.713   9.132
 2367POPC   GL232126  39.798  30.750   8.927
 2367POPC   C1A32127  40.228  30.883   8.694
 2367POPC   D2A32128  39.972  30.684   8.385
 2367POPC   C3A32129  40.132  30.451   8.021
 2367POPC   C4A32130  40.047  30.609   7.632
 2367POPC   C1B32131  39.726  31.111   8.705
 2367POPC   C2B32132  39.654  31.101   8.305
 2367POPC   C3B32133  39.780  30.890   7.950
 2367POPC   C4B32134  39.604  31.025   7.560
 2368POPC   NC332135  33.174  30.257   9.400
 2368POPC   PO432136  32.735  29.785   9.579
 2368POPC   GL132137  32.766  29.866   9.145
 2368POPC   GL232138  33.101  29.897   9.011
 2368POPC   C1A32139  32.731  30.183   8.817
 2368POPC   D2A32140  32.576  30.275   8.416
 2368POPC   C3A32141  32.508  29.996   8.083
 2368POPC   C4A32142  32.706  30.065   7.705
 2368POPC   C1B32143  33.408  29.801   8.674
 2368POPC   C2B32144  33.489  30.010   8.268
 2368POPC   C3B32145  33.217  30.094   7.887
 2368POPC   C4B32146  33.129  30.063   7.426
 2369POPC   NC332147  40.128  42.714   9.221
 2369POPC   PO432148  40.095  42.114   9.519
 2369POPC   GL132149  39.979  42.249   9.092
 2369POPC   GL232150  39.774  42.528   8.917
 2369POPC   C1A32151  40.053  42.002   8.770
 2369POPC   D2A32152  39.922  41.848   8.419
 2369POPC   C3A32153  39.848  42.127   8.112
 2369POPC   C4A32154  39.873  42.057   7.659
 2369POPC   C1B32155  40.170  42.505   8.641
 2369POPC   C2B32156  40.464  42.463   8.335
 2369POPC   C3B32157  40.293  42.333   7.961
 2369POPC   C4B32158  39.868  42.548   7.780
 2370POPC   NC332159  30.470  36.394   9.446
 2370POPC   PO432160  30.754  37.007   9.537
 2370POPC   GL132161  30.557  37.038   9.167
 2370POPC   GL232162  30.611  36.718   9.080
 2370POPC   C1A32163  30.426  37.093   8.768
 2370POPC   D2A32164  30.605  37.099   8.382
 2370POPC   C3A32165  30.391  37.097   8.028
 2370POPC   C4A32166  30.724  36.951   7.768
 2370POPC   C1B32167  30.965  36.484   8.954
 2370POPC   C2B32168  31.098  36.500   8.559
 2370POPC   C3B32169  31.007  36.746   8.229
 2370POPC   C4B32170  31.136  36.654   7.828
 2371POPC   NC332171  41.925  37.312   9.401
 2371POPC   PO432172  41.398  36.878   9.562
 2371POPC   GL132173  41.624  36.937   9.207
 2371POPC   GL232174  41.581  37.254   9.017
 2371POPC   C1A32175  41.740  36.765   8.837
 2371POPC   D2A32176  41.639  36.955   8.464
 2371POPC   C3A32177  41.605  36.695   8.124
 2371POPC   C4A32178  41.484  36.784   7.708
 2371POPC   C1B32179  41.978  37.234   8.760
 2371POPC   C2B32180  42.108  37.083   8.330
 2371POPC   C3B32181  41.860  37.087   7.898
 2371POPC   C4B32182  41.817  37.126   7.398
 2372POPC   NC332183  37.008  37.208   9.472
 2372POPC   PO432184  36.708  36.573   9.642
 2372POPC   GL132185  36.947  36.651   9.264
 2372POPC   GL232186  36.711  36.882   9.087
 2372POPC   C1A32187  37.004  36.565   8.826
 2372POPC   D2A32188  37.003  36.822   8.432
 2372POPC   C3A32189  36.753  36.755   8.100
 2372POPC   C4A32190  36.818  36.585   7.695
 2372POPC   C1B32191  36.989  37.154   8.813
 2372POPC   C2B32192  37.093  37.347   8.414
 2372POPC   C3B32193  36.831  37.260   8.086
 2372POPC   C4B32194  36.869  37.080   7.685
 2373POPC   NC332195  10.289  27.074   9.559
 2373POPC   PO432196  10.871  26.932   9.636
 2373POPC   GL132197  10.646  26.808   9.271
 2373POPC   GL232198  10.623  27.164   9.189
 2373POPC   C1A32199  10.451  26.676   8.873
 2373POPC   D2A32200  10.570  26.814   8.457
 2373POPC   C3A32201  10.464  26.671   8.023
 2373POPC   C4A32202  10.270  26.375   7.703
 2373POPC   C1B32203  10.400  27.192   8.810
 2373POPC   C2B32204  10.521  27.312   8.406
 2373POPC   C3B32205  10.382  27.357   8.040
 2373POPC   C4B32206  10.371  27.078   7.718
 2374POPC   NC332207   8.615  24.214   9.644
 2374POPC   PO432208   7.988  24.456   9.548
 2374POPC   GL132209   7.982  24.588   9.168
 2374POPC   GL232210   7.675  24.705   9.158
 2374POPC   C1A32211   8.216  24.636   8.807
 2374POPC   D2A32212   8.385  24.349   8.503
 2374POPC   C3A32213   8.340  24.447   8.073
 2374POPC   C4A32214   8.305  24.265   7.661
 2374POPC   C1B32215   7.711  24.549   8.716
 2374POPC   C2B32216   7.956  24.643   8.358
 2374POPC   C3B32217   8.003  24.831   7.953
 2374POPC   C4B32218   7.878  24.585   7.590
 2375POPC   NC332219  32.150  16.587   9.537
 2375POPC   PO432220  32.125  17.254   9.584
 2375POPC   GL132221  32.396  16.981   9.241
 2375POPC   GL232222  32.564  16.616   9.245
 2375POPC   C1A32223  32.228  16.711   8.880
 2375POPC   D2A32224  31.895  16.626   8.605
 2375POPC   C3A32225  32.041  16.657   8.192
 2375POPC   C4A32226  31.892  16.923   7.841
 2375POPC   C1B32227  32.602  16.338   8.843
 2375POPC   C2B32228  32.754  16.342   8.397
 2375POPC   C3B32229  32.511  16.318   8.008
 2375POPC   C4B32230  32.326  16.638   7.768
 2376POPC   NC332231  20.552  16.958   9.499
 2376POPC   PO432232  20.866  16.316   9.316
 2376POPC   GL132233  20.793  16.648   9.112
 2376POPC   GL232234  20.467  16.729   9.074
 2376POPC   C1A32235  20.778  16.565   8.680
 2376POPC   D2A32236  20.801  16.723   8.287
 2376POPC   C3A32237  20.759  16.479   7.909
 2376POPC   C4A32238  20.841  16.877   7.761
 2376POPC   C1B32239  20.269  16.535   8.786
 2376POPC   C2B32240  20.304  16.741   8.439
 2376POPC   C3B32241  20.362  16.775   8.040
 2376POPC   C4B32242  20.350  16.879   7.649
 2377POPC   NC332243   0.906  44.589   9.563
 2377POPC   PO432244   1.538  44.654   9.486
 2377POPC   GL132245   1.286  44.400   9.132
 2377POPC   GL232246   0.927  44.339   9.131
 2377POPC   C1A32247   1.190  44.330   8.666
 2377POPC   D2A32248   1.456  44.335   8.291
 2377POPC   C3A32249   1.288  44.635   7.984
 2377POPC   C4A32250   1.338  44.747   7.547
 2377POPC   C1B32251   0.916  44.723   8.848
 2377POPC   C2B32252   1.110  44.886   8.446
 2377POPC   C3B32253   0.913   0.027   8.050
 2377POPC   C4B32254   0.807  44.745   7.730
 2378POPC   NC332255  29.654  29.953   9.321
 2378POPC   PO432256  29.079  30.051   9.587
 2378POPC   GL132257  29.181  30.099   9.154
 2378POPC   GL232258  29.401  30.391   9.227
 2378POPC   C1A32259  29.297  29.838   8.765
 2378POPC   D2A32260  29.504  29.541   8.444
 2378POPC   C3A32261  29.384  29.735   8.041
 2378POPC   C4A32262  29.025  29.655   7.794
 2378POPC   C1B32263  29.435  30.393   8.772
 2378POPC   C2B32264  29.119  30.251   8.485
 2378POPC   C3B32265  28.974  30.072   8.108
 2378POPC   C4B32266  29.181  30.132   7.728
 2379POPC   NC332267  15.387  27.928   9.767
 2379POPC   PO432268  15.022  27.392   9.948
 2379POPC   GL132269  15.101  27.528   9.456
 2379POPC   GL232270  15.302  27.829   9.281
 2379POPC   C1A32271  15.099  27.475   8.966
 2379POPC   D2A32272  14.998  27.697   8.560
 2379POPC   C3A32273  15.101  27.608   8.118
 2379POPC   C4A32274  15.352  27.403   7.814
 2379POPC   C1B32275  15.337  27.998   8.836
 2379POPC   C2B32276  15.494  27.901   8.405
 2379POPC   C3B32277  15.461  27.981   7.955
 2379POPC   C4B32278  15.446  27.975   7.488
 2380POPC   NC332279  38.768  15.953   9.429
 2380POPC   PO432280  39.371  16.026   9.489
 2380POPC   GL132281  39.363  16.215   9.103
 2380POPC   GL232282  39.042  16.053   9.006
 2380POPC   C1A32283  39.449  16.119   8.670
 2380POPC   D2A32284  39.342  15.719   8.467
 2380POPC   C3A32285  39.370  15.721   8.014
 2380POPC   C4A32286  39.608  15.915   7.680
 2380POPC   C1B32287  38.933  16.061   8.571
 2380POPC   C2B32288  38.854  15.772   8.250
 2380POPC   C3B32289  38.799  15.820   7.860
 2380POPC   C4B32290  39.119  16.046   7.692
 2381POPC   NC332291   0.728  31.174   9.692
 2381POPC   PO432292   1.285  31.344   9.678
 2381POPC   GL132293   1.212  31.191   9.232
 2381POPC   GL232294   0.842  31.155   9.157
 2381POPC   C1A32295   1.418  31.197   8.797
 2381POPC   D2A32296   1.294  31.452   8.394
 2381POPC   C3A32297   1.344  31.259   7.980
 2381POPC   C4A32298   1.371  30.984   7.625
 2381POPC   C1B32299   0.924  31.265   8.721
 2381POPC   C2B32300   0.857  31.230   8.272
 2381POPC   C3B32301   0.928  31.552   7.964
 2381POPC   C4B32302   1.208  31.583   7.578
 2382POPC   NC332303  24.827   4.775   9.603
 2382POPC   PO432304  25.504   4.946   9.404
 2382POPC   GL132305  25.097   5.008   9.197
 2382POPC   GL232306  24.857   4.727   9.099
 2382POPC   C1A32307  25.005   5.224   8.822
 2382POPC   D2A32308  25.313   5.347   8.516
 2382POPC   C3A32309  25.151   5.400   8.113
 2382POPC   C4A32310  25.155   5.252   7.724
 2382POPC   C1B32311  25.077   4.755   8.711
 2382POPC   C2B32312  25.060   4.910   8.294
 2382POPC   C3B32313  25.304   4.825   7.933
 2382POPC   C4B32314  25.456   4.910   7.523
 2383POPC   NC332315  24.524  40.624   9.435
 2383POPC   PO432316  24.395  41.367   9.552
 2383POPC   GL132317  24.352  41.103   9.198
 2383POPC   GL232318  24.097  40.877   9.271
 2383POPC   C1A32319  24.448  40.864   8.823
 2383POPC   D2A32320  24.559  40.938   8.426
 2383POPC   C3A32321  24.572  40.698   8.063
 2383POPC   C4A32322  24.494  40.891   7.704
 2383POPC   C1B32323  24.010  40.629   8.871
 2383POPC   C2B32324  24.076  40.735   8.436
 2383POPC   C3B32325  24.055  40.658   7.987
 2383POPC   C4B32326  24.186  40.507   7.602
 2384POPC   NC332327   7.676  10.253   9.539
 2384POPC   PO432328   7.372   9.600   9.482
 2384POPC   GL132329   7.398   9.807   9.109
 2384POPC   GL232330   7.342  10.156   9.131
 2384POPC   C1A32331   7.262   9.845   8.708
 2384POPC   D2A32332   7.479   9.833   8.346
 2384POPC   C3A32333   7.278   9.906   7.967
 2384POPC   C4A32334   7.326   9.614   7.725
 2384POPC   C1B32335   7.531  10.307   8.741
 2384POPC   C2B32336   7.755  10.266   8.372
 2384POPC   C3B32337   7.792  10.020   7.989
 2384POPC   C4B32338   7.655   9.971   7.557
 2385POPC   NC332339  15.540  13.450   9.355
 2385POPC   PO432340  14.824  13.523   9.473
 2385POPC   GL132341  14.926  13.775   9.144
 2385POPC   GL232342  15.272  13.757   9.051
 2385POPC   C1A32343  14.865  13.634   8.741
 2385POPC   D2A32344  15.092  13.752   8.422
 2385POPC   C3A32345  15.037  13.644   7.999
 2385POPC   C4A32346  15.035  13.928   7.642
 2385POPC   C1B32347  15.557  13.782   8.660
 2385POPC   C2B32348  15.512  13.585   8.226
 2385POPC   C3B32349  15.503  13.785   7.816
 2385POPC   C4B32350  15.413  13.896   7.331
 2386POPC   NC332351   1.094   1.838   9.589
 2386POPC   PO432352   1.315   2.511   9.544
 2386POPC   GL132353   1.370   2.203   9.201
 2386POPC   GL232354   1.065   2.068   9.142
 2386POPC   C1A32355   1.331   2.307   8.761
 2386POPC   D2A32356   1.234   2.388   8.327
 2386POPC   C3A32357   1.071   2.035   8.082
 2386POPC   C4A32358   1.251   1.918   7.705
 2386POPC   C1B32359   1.282   1.799   8.872
 2386POPC   C2B32360   1.186   1.676   8.453
 2386POPC   C3B32361   0.937   1.500   8.123
 2386POPC   C4B32362   0.998   1.510   7.678
 2387POPC   NC332363  27.332  25.951   9.476
 2387POPC   PO432364  27.934  25.718   9.721
 2387POPC   GL132365  27.785  25.754   9.302
 2387POPC   GL232366  27.780  26.096   9.216
 2387POPC   C1A32367  27.601  25.735   8.879
 2387POPC   D2A32368  27.705  25.893   8.468
 2387POPC   C3A32369  27.420  25.843   8.118
 2387POPC   C4A32370  27.686  25.764   7.768
 2387POPC   C1B32371  27.656  26.279   8.820
 2387POPC   C2B32372  27.839  26.388   8.397
 2387POPC   C3B32373  27.768  26.209   8.011
 2387POPC   C4B32374  27.609  26.259   7.613
 2388POPC   NC332375  10.995  28.373   9.681
 2388POPC   PO432376  11.600  28.449   9.600
 2388POPC   GL132377  11.250  28.428   9.243
 2388POPC   GL232378  10.912  28.266   9.200
 2388POPC   C1A32379  11.265  28.327   8.798
 2388POPC   D2A32380  11.571  28.097   8.552
 2388POPC   C3A32381  11.561  28.167   8.117
 2388POPC   C4A32382  11.362  28.485   7.855
 2388POPC   C1B32383  10.790  28.132   8.837
 2388POPC   C2B32384  10.886  28.271   8.443
 2388POPC   C3B32385  11.028  28.164   8.059
 2388POPC   C4B32386  11.108  28.096   7.653
 2389POPC   NC332387  17.571   9.284   9.547
 2389POPC   PO432388  17.932   8.698   9.309
 2389POPC   GL132389  17.583   8.907   9.122
 2389POPC   GL232390  17.705   9.235   9.077
 2389POPC   C1A32391  17.375   8.770   8.757
 2389POPC   D2A32392  17.205   8.976   8.427
 2389POPC   C3A32393  17.372   8.787   8.062
 2389POPC   C4A32394  17.580   8.937   7.702
 2389POPC   C1B32395  17.692   9.143   8.670
 2389POPC   C2B32396  17.780   8.891   8.348
 2389POPC   C3B32397  17.999   9.016   7.996
 2389POPC   C4B32398  18.048   9.034   7.547
 2390POPC   NC332399  18.922  19.802   9.572
 2390POPC   PO432400  19.440  20.273   9.639
 2390POPC   GL132401  19.265  20.082   9.268
 2390POPC   GL232402  19.316  19.694   9.287
 2390POPC   C1A32403  19.291  20.203   8.816
 2390POPC   D2A32404  19.062  20.070   8.445
 2390POPC   C3A32405  19.130  20.015   7.994
 2390POPC   C4A32406  18.959  19.643   7.764
 2390POPC   C1B32407  19.268  19.706   8.855
 2390POPC   C2B32408  19.481  19.708   8.459
 2390POPC   C3B32409  19.375  19.572   8.054
 2390POPC   C4B32410  19.459  19.457   7.666
 2391POPC   NC332411   2.369  39.445   9.458
 2391POPC   PO432412   2.951  39.079   9.522
 2391POPC   GL132413   2.738  39.195   9.144
 2391POPC   GL232414   2.407  39.189   8.982
 2391POPC   C1A32415   2.900  39.198   8.728
 2391POPC   D2A32416   2.685  39.074   8.378
 2391POPC   C3A32417   2.899  39.164   8.005
 2391POPC   C4A32418   2.952  38.835   7.748
 2391POPC   C1B32419   2.555  39.580   8.800
 2391POPC   C2B32420   2.724  39.599   8.362
 2391POPC   C3B32421   2.590  39.564   7.931
 2391POPC   C4B32422   2.400  39.614   7.521
 2392POPC   NC332423  13.938  18.058   9.580
 2392POPC   PO432424  13.451  18.526   9.481
 2392POPC   GL132425  13.587  18.434   9.105
 2392POPC   GL232426  13.705  18.093   9.123
 2392POPC   C1A32427  13.599  18.588   8.697
 2392POPC   D2A32428  13.690  18.398   8.325
 2392POPC   C3A32429  13.726  18.560   7.937
 2392POPC   C4A32430  13.657  18.393   7.531
 2392POPC   C1B32431  13.440  18.086   8.740
 2392POPC   C2B32432  13.319  18.071   8.301
 2392POPC   C3B32433  13.573  18.040   7.915
 2392POPC   C4B32434  13.495  17.910   7.482
 2393POPC   NC332435  25.025  42.784   9.381
 2393POPC   PO432436  25.565  42.452   9.585
 2393POPC   GL132437  25.466  42.596   9.132
 2393POPC   GL232438  25.183  42.669   8.925
 2393POPC   C1A32439  25.584  42.514   8.671
 2393POPC   D2A32440  25.468  42.192   8.357
 2393POPC   C3A32441  25.308  42.351   7.989
 2393POPC   C4A32442  25.558  42.702   7.894
 2393POPC   C1B32443  24.954  42.510   8.586
 2393POPC   C2B32444  24.765  42.728   8.263
 2393POPC   C3B32445  24.895  42.660   7.862
 2393POPC   C4B32446  24.808  42.319   7.648
 2394POPC   NC332447  38.392  34.293   9.430
 2394POPC   PO432448  38.023  34.917   9.421
 2394POPC   GL132449  38.371  34.777   9.118
 2394POPC   GL232450  38.586  34.472   8.989
 2394POPC   C1A32451  38.531  34.886   8.705
 2394POPC   D2A32452  38.340  34.604   8.411
 2394POPC   C3A32453  38.441  34.572   7.976
 2394POPC   C4A32454  38.654  34.920   7.774
 2394POPC   C1B32455  38.384  34.159   8.703
 2394POPC   C2B32456  38.037  34.213   8.380
 2394POPC   C3B32457  37.901  34.182   7.968
 2394POPC   C4B32458  38.225  34.143   7.649
 2395POPC   NC332459  17.297   4.325   9.784
 2395POPC   PO432460  17.852   4.581   9.676
 2395POPC   GL132461  17.719   4.429   9.234
 2395POPC   GL232462  17.751   4.128   9.062
 2395POPC   C1A32463  17.507   4.578   8.838
 2395POPC   D2A32464  17.578   4.841   8.483
 2395POPC   C3A32465  17.702   4.630   8.121
 2395POPC   C4A32466  17.588   4.315   7.814
 2395POPC   C1B32467  17.412   4.068   8.746
 2395POPC   C2B32468  17.430   4.173   8.288
 2395POPC   C3B32469  17.246   3.966   7.915
 2395POPC   C4B32470  17.316   3.988   7.433
 2396POPC   NC332471  13.761  41.888   9.436
 2396POPC   PO432472  13.167  42.142   9.420
 2396POPC   GL132473  13.454  42.386   9.146
 2396POPC   GL232474  13.825  42.353   9.157
 2396POPC   C1A32475  13.428  42.363   8.711
 2396POPC   D2A32476  13.199  42.493   8.361
 2396POPC   C3A32477  13.350  42.326   7.972
 2396POPC   C4A32478  13.730  42.231   7.767
 2396POPC   C1B32479  13.929  42.405   8.732
 2396POPC   C2B32480  13.815  42.369   8.305
 2396POPC   C3B32481  14.036  42.568   7.998
 2396POPC   C4B32482  14.249  42.618   7.646
 2397POPC   NC332483   0.594  10.812   9.535
 2397POPC   PO432484   0.302  11.338   9.432
 2397POPC   GL132485   0.460  11.187   9.082
 2397POPC   GL232486   0.708  11.438   9.054
 2397POPC   C1A32487   0.341  11.334   8.658
 2397POPC   D2A32488   0.443  11.580   8.284
 2397POPC   C3A32489   0.490  11.359   7.902
 2397POPC   C4A32490   0.361  10.951   7.817
 2397POPC   C1B32491   0.824  11.174   8.717
 2397POPC   C2B32492   0.700  11.070   8.288
 2397POPC   C3B32493   0.879  11.043   7.871
 2397POPC   C4B32494   0.670  11.155   7.465
 2398POPC   NC332495  17.923   7.980   9.581
 2398POPC   PO432496  18.389   7.454   9.495
 2398POPC   GL132497  18.552   7.628   9.139
 2398POPC   GL232498  18.612   7.304   9.061
 2398POPC   C1A32499  18.415   7.620   8.710
 2398POPC   D2A32500  18.014   7.556   8.489
 2398POPC   C3A32501  18.088   7.598   8.072
 2398POPC   C4A32502  18.131   7.261   7.794
 2398POPC   C1B32503  18.797   7.210   8.693
 2398POPC   C2B32504  18.720   7.149   8.286
 2398POPC   C3B32505  18.577   7.393   7.993
 2398POPC   C4B32506  18.594   7.240   7.590
 2399POPC   NC332507  36.201  37.243   9.525
 2399POPC   PO432508  35.943  36.576   9.506
 2399POPC   GL132509  35.947  36.772   9.091
 2399POPC   GL232510  36.192  37.044   9.063
 2399POPC   C1A32511  35.961  36.928   8.627
 2399POPC   D2A32512  35.713  36.841   8.255
 2399POPC   C3A32513  36.011  36.780   7.972
 2399POPC   C4A32514  36.392  36.901   7.795
 2399POPC   C1B32515  36.429  37.142   8.678
 2399POPC   C2B32516  36.337  37.132   8.245
 2399POPC   C3B32517  36.377  37.404   7.883
 2399POPC   C4B32518  36.479  37.347   7.463
 2400POPC   NC332519  14.743  40.351   9.451
 2400POPC   PO432520  14.172  39.972   9.561
 2400POPC   GL132521  14.380  40.058   9.201
 2400POPC   GL232522  14.116  40.291   9.043
 2400POPC   C1A32523  14.724  39.883   8.900
 2400POPC   D2A32524  14.736  39.568   8.553
 2400POPC   C3A32525  14.733  39.677   8.108
 2400POPC   C4A32526  14.780  40.022   7.849
 2400POPC   C1B32527  14.461  40.311   8.784
 2400POPC   C2B32528  14.614  40.087   8.439
 2400POPC   C3B32529  14.356  40.064   8.103
 2400POPC   C4B32530  14.294  40.134   7.664
 2401POPC   NC332531  41.928   4.204   9.426
 2401POPC   PO432532  41.259   4.173   9.442
 2401POPC   GL132533  41.522   4.413   9.117
 2401POPC   GL232534  41.894   4.560   9.060
 2401POPC   C1A32535  41.660   4.280   8.715
 2401POPC   D2A32536  41.601   4.021   8.364
 2401POPC   C3A32537  41.504   4.198   7.967
 2401POPC   C4A32538  41.788   4.095   7.677
 2401POPC   C1B32539  41.959   4.815   8.694
 2401POPC   C2B32540  41.944   4.836   8.243
 2401POPC   C3B32541  41.933   4.521   7.925
 2401POPC   C4B32542  41.848   4.534   7.464
 2402POPC   NC332543  32.282   2.298   9.453
 2402POPC   PO432544  31.824   1.816   9.744
 2402POPC   GL132545  32.026   1.718   9.258
 2402POPC   GL232546  32.346   1.860   9.172
 2402POPC   C1A32547  32.011   1.867   8.783
 2402POPC   D2A32548  31.923   2.270   8.576
 2402POPC   C3A32549  31.990   2.265   8.145
 2402POPC   C4A32550  32.223   2.012   7.864
 2402POPC   C1B32551  32.520   1.777   8.766
 2402POPC   C2B32552  32.371   1.754   8.326
 2402POPC   C3B32553  32.566   1.631   7.934
 2402POPC   C4B32554  32.570   1.766   7.499
 2403POPC   NC332555  42.684   1.587   9.349
 2403POPC   PO432556  42.075   1.274   9.463
 2403POPC   GL132557  42.358   1.101   9.164
 2403POPC   GL232558  42.375   1.400   8.983
 2403POPC   C1A32559  42.272   0.947   8.747
 2403POPC   D2A32560  42.129   1.186   8.383
 2403POPC   C3A32561  42.231   1.084   7.936
 2403POPC   C4A32562  41.973   0.908   7.596
 2403POPC   C1B32563  42.384   1.769   8.738
 2403POPC   C2B32564  42.684   1.851   8.421
 2403POPC   C3B32565  42.560   1.511   8.149
 2403POPC   C4B32566  42.458   1.497   7.738
 2404POPC   NC332567   0.781  19.682   9.613
 2404POPC   PO432568   1.448  19.912   9.569
 2404POPC   GL132569   1.117  19.976   9.298
 2404POPC   GL232570   1.075  19.640   9.186
 2404POPC   C1A32571   1.109  20.023   8.854
 2404POPC   D2A32572   1.409  20.091   8.514
 2404POPC   C3A32573   1.268  19.903   8.130
 2404POPC   C4A32574   1.145  19.982   7.722
 2404POPC   C1B32575   1.100  19.500   8.751
 2404POPC   C2B32576   0.918  19.601   8.345
 2404POPC   C3B32577   0.898  19.531   7.888
 2404POPC   C4B32578   0.962  19.591   7.433
 2405POPC   NC332579  33.943   4.105   9.457
 2405POPC   PO432580  34.052   4.691   9.397
 2405POPC   GL132581  33.761   4.488   9.080
 2405POPC   GL232582  33.674   4.102   9.041
 2405POPC   C1A32583  33.706   4.390   8.633
 2405POPC   D2A32584  33.944   4.218   8.336
 2405POPC   C3A32585  33.988   4.451   8.005
 2405POPC   C4A32586  33.764   4.466   7.680
 2405POPC   C1B32587  33.918   3.859   8.701
 2405POPC   C2B32588  33.813   3.716   8.259
 2405POPC   C3B32589  33.710   4.007   7.919
 2405POPC   C4B32590  33.640   4.006   7.486
 2406POPC   NC332591  25.175   0.141   9.499
 2406POPC   PO432592  25.701   0.569   9.422
 2406POPC   GL132593  25.512   0.304   9.155
 2406POPC   GL232594  25.231   0.466   9.080
 2406POPC   C1A32595  25.514   0.101   8.796
 2406POPC   D2A32596  25.349   0.312   8.444
 2406POPC   C3A32597  25.547   0.247   8.061
 2406POPC   C4A32598  25.440   0.548   7.754
 2406POPC   C1B32599  24.953   0.494   8.728
 2406POPC   C2B32600  24.790   0.257   8.428
 2406POPC   C3B32601  24.970   0.150   8.051
 2406POPC   C4B32602  24.935   0.503   7.795
 2407POPC   NC332603  20.797  13.092   9.520
 2407POPC   PO432604  20.243  12.671   9.442
 2407POPC   GL132605  20.523  12.833   9.147
 2407POPC   GL232606  20.857  12.701   9.182
 2407POPC   C1A32607  20.443  12.980   8.719
 2407POPC   D2A32608  20.328  13.204   8.308
 2407POPC   C3A32609  20.479  12.978   7.942
 2407POPC   C4A32610  20.702  12.958   7.546
 2407POPC   C1B32611  20.932  13.022   8.817
 2407POPC   C2B32612  20.865  13.049   8.328
 2407POPC   C3B32613  20.904  12.708   7.958
 2407POPC   C4B32614  20.993  12.493   7.546
 2408POPC   NC332615  43.186   8.109   9.817
 2408POPC   PO432616  43.511   8.673   9.528
 2408POPC   GL132617  43.438   8.438   9.131
 2408POPC   GL232618  43.093   8.268   9.095
 2408POPC   C1A32619  43.432   8.222   8.715
 2408POPC   D2A32620  43.133   8.225   8.396
 2408POPC   C3A32621  43.266   8.047   8.018
 2408POPC   C4A32622  43.185   8.388   7.812
 2408POPC   C1B32623  42.935   7.950   8.836
 2408POPC   C2B32624  42.721   7.910   8.468
 2408POPC   C3B32625  42.750   7.991   8.061
 2408POPC   C4B32626  42.449   7.913   7.767
 2409POPC   NC332627  40.322  40.709   9.384
 2409POPC   PO432628  39.824  41.152   9.538
 2409POPC   GL132629  39.919  40.882   9.104
 2409POPC   GL232630  40.178  40.571   8.948
 2409POPC   C1A32631  39.923  40.840   8.633
 2409POPC   D2A32632  40.223  40.937   8.337
 2409POPC   C3A32633  40.091  40.859   7.937
 2409POPC   C4A32634  39.763  40.831   7.628
 2409POPC   C1B32635  40.135  40.319   8.635
 2409POPC   C2B32636  40.051  40.444   8.280
 2409POPC   C3B32637  40.251  40.326   7.966
 2409POPC   C4B32638  40.149  40.469   7.605
 2410POPC   NC332639  14.905  43.526   9.510
 2410POPC   PO432640  15.324  42.966   9.507
 2410POPC   GL132641  15.143  43.218   9.177
 2410POPC   GL232642  14.819  43.371   9.052
 2410POPC   C1A32643  15.277  43.401   8.815
 2410POPC   D2A32644  15.476  43.391   8.448
 2410POPC   C3A32645  15.229  43.352   8.085
 2410POPC   C4A32646  15.196  43.030   7.798
 2410POPC   C1B32647  14.877  43.718   8.815
 2410POPC   C2B32648  14.946  43.713   8.424
 2410POPC   C3B32649  14.643  43.576   8.132
 2410POPC   C4B32650  14.787  43.467   7.731
 2411POPC   NC332651  11.616  26.146   9.359
 2411POPC   PO432652  11.039  25.921   9.649
 2411POPC   GL132653  11.274  25.783   9.172
 2411POPC   GL232654  11.055  25.901   8.876
 2411POPC   C1A32655  11.541  25.921   8.745
 2411POPC   D2A32656  11.423  26.001   8.299
 2411POPC   C3A32657  11.677  26.134   7.942
 2411POPC   C4A32658  11.562  25.890   7.537
 2411POPC   C1B32659  11.114  26.299   8.599
 2411POPC   C2B32660  10.852  26.432   8.277
 2411POPC   C3B32661  10.908  26.409   7.890
 2411POPC   C4B32662  11.199  26.133   7.794
 2412POPC   NC332663  22.000  16.858   9.811
 2412POPC   PO432664  22.459  16.500   9.727
 2412POPC   GL132665  22.148  16.556   9.341
 2412POPC   GL232666  21.966  16.904   9.259
 2412POPC   C1A32667  22.162  16.612   8.857
 2412POPC   D2A32668  22.383  16.877   8.525
 2412POPC   C3A32669  22.338  16.765   8.093
 2412POPC   C4A32670  22.364  16.620   7.656
 2412POPC   C1B32671  22.024  17.111   8.829
 2412POPC   C2B32672  21.898  17.321   8.435
 2412POPC   C3B32673  21.804  17.164   8.018
 2412POPC   C4B32674  22.097  17.040   7.700
 2413POPC   NC332675   3.414  32.837   9.609
 2413POPC   PO432676   4.099  32.823   9.598
 2413POPC   GL132677   3.764  33.018   9.276
 2413POPC   GL232678   3.496  32.855   9.104
 2413POPC   C1A32679   3.703  33.197   8.816
 2413POPC   D2A32680   3.511  33.020   8.426
 2413POPC   C3A32681   3.599  33.123   8.012
 2413POPC   C4A32682   3.500  32.855   7.665
 2413POPC   C1B32683   3.279  32.623   8.754
 2413POPC   C2B32684   3.228  32.480   8.337
 2413POPC   C3B32685   3.163  32.801   8.038
 2413POPC   C4B32686   2.983  32.775   7.614
 2414POPC   NC332687   6.123  42.613   9.345
 2414POPC   PO432688   5.666  42.155   9.465
 2414POPC   GL132689   5.874  42.223   9.118
 2414POPC   GL232690   5.582  42.456   9.020
 2414POPC   C1A32691   6.006  42.374   8.739
 2414POPC   D2A32692   5.722  42.462   8.450
 2414POPC   C3A32693   5.911  42.299   8.109
 2414POPC   C4A32694   5.956  42.458   7.706
 2414POPC   C1B32695   5.515  42.041   8.811
 2414POPC   C2B32696   5.660  41.888   8.417
 2414POPC   C3B32697   5.511  41.983   8.013
 2414POPC   C4B32698   5.447  42.278   7.674
 2415POPC   NC332699  16.872  29.643   9.401
 2415POPC   PO432700  16.829  28.993   9.551
 2415POPC   GL132701  16.712  29.178   9.163
 2415POPC   GL232702  17.028  29.237   9.108
 2415POPC   C1A32703  16.529  29.326   8.770
 2415POPC   D2A32704  16.349  29.388   8.369
 2415POPC   C3A32705  16.545  29.277   7.977
 2415POPC   C4A32706  16.792  29.028   7.710
 2415POPC   C1B32707  17.018  29.457   8.750
 2415POPC   C2B32708  16.882  29.375   8.359
 2415POPC   C3B32709  17.027  29.433   7.942
 2415POPC   C4B32710  17.091  29.438   7.510
 2416POPC   NC332711  26.832  20.077   9.639
 2416POPC   PO432712  27.281  19.690   9.406
 2416POPC   GL132713  27.072  19.919   9.119
 2416POPC   GL232714  26.731  19.810   9.163
 2416POPC   C1A32715  27.012  19.783   8.707
 2416POPC   D2A32716  26.896  19.900   8.317
 2416POPC   C3A32717  27.117  19.606   8.072
 2416POPC   C4A32718  27.043  19.628   7.681
 2416POPC   C1B32719  26.549  19.958   8.777
 2416POPC   C2B32720  26.377  19.881   8.348
 2416POPC   C3B32721  26.518  19.900   7.916
 2416POPC   C4B32722  26.257  19.863   7.567
 2417POPC   NC332723  42.118   2.436   9.502
 2417POPC   PO432724  42.411   1.878   9.609
 2417POPC   GL132725  42.353   2.008   9.224
 2417POPC   GL232726  42.091   1.796   9.198
 2417POPC   C1A32727  42.360   2.265   8.841
 2417POPC   D2A32728  42.160   2.136   8.441
 2417POPC   C3A32729  42.347   1.993   8.068
 2417POPC   C4A32730  42.507   2.061   7.666
 2417POPC   C1B32731  41.898   1.918   8.824
 2417POPC   C2B32732  41.901   1.661   8.453
 2417POPC   C3B32733  42.041   1.564   8.052
 2417POPC   C4B32734  42.048   1.803   7.693
 2418POPC   NC332735  16.488  44.795   9.518
 2418POPC   PO432736  15.860  44.617   9.420
 2418POPC   GL132737  15.852  44.624   9.048
 2418POPC   GL232738  16.203  44.457   9.014
 2418POPC   C1A32739  16.003  44.794   8.682
 2418POPC   D2A32740  16.142  44.484   8.420
 2418POPC   C3A32741  16.274  44.597   8.021
 2418POPC   C4A32742  15.958  44.781   7.782
 2418POPC   C1B32743  15.890  44.208   8.772
 2418POPC   C2B32744  15.713  44.172   8.415
 2418POPC   C3B32745  15.906  44.147   8.037
 2418POPC   C4B32746  15.770  44.326   7.667
 2419POPC   NC332747  25.810  14.181   9.483
 2419POPC   PO432748  26.317  14.641   9.492
 2419POPC   GL132749  26.183  14.387   9.193
 2419POPC   GL232750  25.882  14.554   9.174
 2419POPC   C1A32751  26.070  14.193   8.824
 2419POPC   D2A32752  26.308  14.103   8.470
 2419POPC   C3A32753  26.084  14.220   8.118
 2419POPC   C4A32754  26.114  14.424   7.761
 2419POPC   C1B32755  25.681  14.545   8.849
 2419POPC   C2B32756  25.798  14.450   8.455
 2419POPC   C3B32757  25.584  14.380   8.056
 2419POPC   C4B32758  25.652  14.654   7.729
 2420POPC   NC332759   6.273  44.693   9.682
 2420POPC   PO432760   6.921  44.592   9.484
 2420POPC   GL132761   6.529  44.705   9.217
 2420POPC   GL232762   6.420  44.388   8.997
 2420POPC   C1A32763   6.403  44.874   8.815
 2420POPC   D2A32764   6.539  44.638   8.447
 2420POPC   C3A32765   6.485  44.833   8.062
 2420POPC   C4A32766   6.726  44.828   7.716
 2420POPC   C1B32767   6.821  44.335   8.793
 2420POPC   C2B32768   7.011  44.388   8.381
 2420POPC   C3B32769   6.786  44.389   7.983
 2420POPC   C4B32770   6.356  44.395   7.801
 2421POPC   NC332771  12.237  17.260   9.507
 2421POPC   PO432772  12.002  17.851   9.411
 2421POPC   GL132773  11.972  17.475   9.107
 2421POPC   GL232774  11.890  17.127   9.157
 2421POPC   C1A32775  12.260  17.291   8.780
 2421POPC   D2A32776  12.401  17.547   8.394
 2421POPC   C3A32777  12.272  17.487   7.960
 2421POPC   C4A32778  12.031  17.816   7.725
 2421POPC   C1B32779  11.762  17.123   8.741
 2421POPC   C2B32780  12.004  17.112   8.374
 2421POPC   C3B32781  11.830  17.092   8.014
 2421POPC   C4B32782  11.848  17.345   7.682
 2422POPC   NC332783  24.951  16.488   9.453
 2422POPC   PO432784  25.177  17.174   9.363
 2422POPC   GL132785  25.148  16.846   9.096
 2422POPC   GL232786  25.394  16.594   9.192
 2422POPC   C1A32787  25.121  16.907   8.645
 2422POPC   D2A32788  24.846  16.858   8.275
 2422POPC   C3A32789  25.138  16.662   7.987
 2422POPC   C4A32790  25.575  16.844   7.874
 2422POPC   C1B32791  25.193  16.426   8.812
 2422POPC   C2B32792  25.404  16.479   8.425
 2422POPC   C3B32793  25.627  16.370   8.063
 2422POPC   C4B32794  25.416  16.384   7.669
 2423POPC   NC332795   3.135  41.173   9.444
 2423POPC   PO432796   2.384  41.299   9.466
 2423POPC   GL132797   2.729  41.348   9.146
 2423POPC   GL232798   2.503  41.594   8.944
 2423POPC   C1A32799   2.986  41.433   8.795
 2423POPC   D2A32800   2.815  41.751   8.540
 2423POPC   C3A32801   2.835  41.687   8.111
 2423POPC   C4A32802   2.786  41.516   7.712
 2423POPC   C1B32803   2.531  41.209   8.700
 2423POPC   C2B32804   2.683  41.213   8.288
 2423POPC   C3B32805   2.590  41.079   7.877
 2423POPC   C4B32806   2.157  41.196   7.669
 2424POPC   NC332807  18.035  25.851   9.506
 2424POPC   PO432808  18.627  26.175   9.645
 2424POPC   GL132809  18.493  26.045   9.253
 2424POPC   GL232810  18.196  26.258   9.199
 2424POPC   C1A32811  18.480  26.005   8.826
 2424POPC   D2A32812  18.348  26.255   8.518
 2424POPC   C3A32813  18.356  26.075   8.140
 2424POPC   C4A32814  18.503  26.115   7.744
 2424POPC   C1B32815  17.975  26.032   8.885
 2424POPC   C2B32816  17.924  25.862   8.524
 2424POPC   C3B32817  17.882  25.911   8.119
 2424POPC   C4B32818  17.998  26.218   7.792
 2425POPC   NC332819  37.471  31.655   9.563
 2425POPC   PO432820  37.944  31.238   9.576
 2425POPC   GL132821  37.901  31.409   9.192
 2425POPC   GL232822  37.826  31.767   9.196
 2425POPC   C1A32823  37.754  31.440   8.796
 2425POPC   D2A32824  37.836  31.215   8.427
 2425POPC   C3A32825  37.541  31.292   8.139
 2425POPC   C4A32826  37.766  31.280   7.773
 2425POPC   C1B32827  38.043  31.893   8.797
 2425POPC   C2B32828  37.888  31.723   8.393
 2425POPC   C3B32829  37.692  31.735   7.977
 2425POPC   C4B32830  37.969  31.751   7.607
 2426POPC   NC332831  27.391  26.943   9.415
 2426POPC   PO432832  27.844  26.487   9.518
 2426POPC   GL132833  27.782  26.700   9.122
 2426POPC   GL232834  27.839  27.065   9.101
 2426POPC   C1A32835  27.677  26.786   8.688
 2426POPC   D2A32836  27.472  26.754   8.288
 2426POPC   C3A32837  27.689  26.687   7.914
 2426POPC   C4A32838  27.384  26.743   7.656
 2426POPC   C1B32839  27.715  27.317   8.742
 2426POPC   C2B32840  27.637  27.260   8.303
 2426POPC   C3B32841  27.547  27.178   7.869
 2426POPC   C4B32842  27.684  27.102   7.427
 2427POPC   NC332843   8.947  15.777   9.494
 2427POPC   PO432844   8.622  16.337   9.639
 2427POPC   GL132845   8.841  16.235   9.247
 2427POPC   GL232846   9.220  16.245   9.219
 2427POPC   C1A32847   8.836  16.106   8.822
 2427POPC   D2A32848   8.816  16.255   8.395
 2427POPC   C3A32849   8.697  15.918   8.117
 2427POPC   C4A32850   8.512  15.826   7.711
 2427POPC   C1B32851   9.338  16.032   8.805
 2427POPC   C2B32852   9.316  16.121   8.380
 2427POPC   C3B32853   9.361  15.993   7.964
 2427POPC   C4B32854   9.088  15.663   7.773
 2428POPC   NC332855  38.241  33.957   9.901
 2428POPC   PO432856  38.807  33.646   9.646
 2428POPC   GL132857  38.633  33.675   9.203
 2428POPC   GL232858  38.693  33.988   9.137
 2428POPC   C1A32859  38.409  33.636   8.781
 2428POPC   D2A32860  38.501  33.796   8.356
 2428POPC   C3A32861  38.270  33.752   7.979
 2428POPC   C4A32862  38.315  33.542   7.561
 2428POPC   C1B32863  38.892  34.093   8.760
 2428POPC   C2B32864  38.788  34.236   8.350
 2428POPC   C3B32865  38.669  34.101   7.945
 2428POPC   C4B32866  38.700  34.299   7.534
 2429POPC   NC332867  13.947  14.326   9.511
 2429POPC   PO432868  14.635  14.493   9.498
 2429POPC   GL132869  14.447  14.506   9.084
 2429POPC   GL232870  14.131  14.374   9.045
 2429POPC   C1A32871  14.374  14.627   8.674
 2429POPC   D2A32872  14.586  14.456   8.359
 2429POPC   C3A32873  14.497  14.501   7.934
 2429POPC   C4A32874  14.805  14.398   7.652
 2429POPC   C1B32875  14.179  14.148   8.636
 2429POPC   C2B32876  14.208  14.139   8.194
 2429POPC   C3B32877  13.977  14.415   7.967
 2429POPC   C4B32878  14.028  14.558   7.567
 2430POPC   NC332879  22.362  28.558   9.492
 2430POPC   PO432880  21.777  28.242   9.594
 2430POPC   GL132881  21.962  28.359   9.172
 2430POPC   GL232882  22.317  28.410   9.029
 2430POPC   C1A32883  21.909  28.621   8.788
 2430POPC   D2A32884  21.912  28.870   8.424
 2430POPC   C3A32885  21.945  28.673   8.040
 2430POPC   C4A32886  22.277  28.622   7.750
 2430POPC   C1B32887  22.453  28.134   8.726
 2430POPC   C2B32888  22.468  28.222   8.292
 2430POPC   C3B32889  22.352  28.127   7.871
 2430POPC   C4B32890  21.922  28.248   7.751
 2431POPC   NC332891  28.151  35.212   9.424
 2431POPC   PO432892  28.823  35.380   9.502
 2431POPC   GL132893  28.591  35.561   9.144
 2431POPC   GL232894  28.278  35.700   9.238
 2431POPC   C1A32895  28.450  35.443   8.716
 2431POPC   D2A32896  28.362  35.063   8.469
 2431POPC   C3A32897  28.367  35.103   8.021
 2431POPC   C4A32898  28.048  35.231   7.722
 2431POPC   C1B32899  28.096  35.807   8.827
 2431POPC   C2B32900  28.204  35.776   8.369
 2431POPC   C3B32901  28.366  35.636   7.954
 2431POPC   C4B32902  28.240  35.701   7.526
 2432POPC   NC332903   6.331   0.312   9.680
 2432POPC   PO432904   6.944   0.430   9.439
 2432POPC   GL132905   6.701   0.197   9.189
 2432POPC   GL232906   6.365   0.314   9.155
 2432POPC   C1A32907   6.735   0.295   8.772
 2432POPC   D2A32908   6.575   0.184   8.409
 2432POPC   C3A32909   6.770   0.284   7.992
 2432POPC   C4A32910   6.654   0.676   7.787
 2432POPC   C1B32911   6.370   0.646   8.777
 2432POPC   C2B32912   6.485   0.685   8.326
 2432POPC   C3B32913   6.279   0.389   8.032
 2432POPC   C4B32914   6.340   0.247   7.624
 2433POPC   NC332915  24.392   0.328   9.482
 2433POPC   PO432916  23.827   0.559   9.502
 2433POPC   GL132917  23.713   0.355   9.171
 2433POPC   GL232918  24.016   0.142   9.136
 2433POPC   C1A32919  23.622   0.514   8.811
 2433POPC   D2A32920  23.814   0.462   8.463
 2433POPC   C3A32921  23.683   0.690   8.137
 2433POPC   C4A32922  24.022   0.530   7.881
 2433POPC   C1B32923  23.726   0.026   8.797
 2433POPC   C2B32924  23.557   0.019   8.429
 2433POPC   C3B32925  23.850   0.071   8.124
 2433POPC   C4B32926  23.814  44.847   7.812
 2434POPC   NC332927  10.231   8.894   9.494
 2434POPC   PO432928  10.932   9.052   9.563
 2434POPC   GL132929  10.645   9.065   9.177
 2434POPC   GL232930  10.552   8.760   9.058
 2434POPC   C1A32931  10.431   9.144   8.748
 2434POPC   D2A32932  10.261   9.028   8.325
 2434POPC   C3A32933  10.540   9.136   7.963
 2434POPC   C4A32934  10.530   9.169   7.519
 2434POPC   C1B32935  10.296   8.620   8.665
 2434POPC   C2B32936  10.206   8.518   8.210
 2434POPC   C3B32937  10.386   8.672   7.828
 2434POPC   C4B32938  10.657   8.678   7.474
 2435POPC   NC332939  42.101  40.518   9.694
 2435POPC   PO432940  42.261  41.174   9.568
 2435POPC   GL132941  42.408  40.987   9.214
 2435POPC   GL232942  42.256  40.636   9.218
 2435POPC   C1A32943  42.522  40.815   8.825
 2435POPC   D2A32944  42.342  40.623   8.485
 2435POPC   C3A32945  42.427  40.847   8.107
 2435POPC   C4A32946  42.306  40.956   7.674
 2435POPC   C1B32947  42.059  40.350   8.919
 2435POPC   C2B32948  41.883  40.371   8.538
 2435POPC   C3B32949  42.076  40.389   8.119
 2435POPC   C4B32950  41.974  40.503   7.731
 2436POPC   NC332951  25.681  42.384  10.022
 2436POPC   PO432952  26.125  42.209   9.562
 2436POPC   GL132953  26.241  42.295   9.151
 2436POPC   GL232954  25.909  42.355   9.069
 2436POPC   C1A32955  26.297  42.437   8.740
 2436POPC   D2A32956  26.034  42.395   8.379
 2436POPC   C3A32957  26.242  42.440   7.981
 2436POPC   C4A32958  25.985  42.557   7.666
 2436POPC   C1B32959  25.818  42.059   8.747
 2436POPC   C2B32960  25.881  41.888   8.355
 2436POPC   C3B32961  25.856  42.103   7.976
 2436POPC   C4B32962  25.686  42.135   7.578
 2437POPC   NC332963   2.330  42.861   9.655
 2437POPC   PO432964   3.053  43.019   9.584
 2437POPC   GL132965   2.869  43.066   9.203
 2437POPC   GL232966   2.613  42.900   9.226
 2437POPC   C1A32967   2.931  42.916   8.799
 2437POPC   D2A32968   2.694  42.885   8.420
 2437POPC   C3A32969   2.754  43.125   8.074
 2437POPC   C4A32970   2.888  43.187   7.633
 2437POPC   C1B32971   2.429  42.752   8.842
 2437POPC   C2B32972   2.278  42.589   8.436
 2437POPC   C3B32973   2.360  42.758   8.018
 2437POPC   C4B32974   2.358  43.125   7.756
 2438POPC   NC332975  25.473  10.902   9.504
 2438POPC   PO432976  25.053  10.346   9.550
 2438POPC   GL132977  25.198  10.481   9.150
 2438POPC   GL232978  25.176  10.822   9.076
 2438POPC   C1A32979  25.216  10.411   8.687
 2438POPC   D2A32980  25.235  10.597   8.268
 2438POPC   C3A32981  24.939  10.424   7.966
 2438POPC   C4A32982  24.922  10.084   7.687
 2438POPC   C1B32983  25.550  10.798   8.785
 2438POPC   C2B32984  25.734  10.688   8.361
 2438POPC   C3B32985  25.620  10.862   7.971
 2438POPC   C4B32986  25.333  10.627   7.748
 2439POPC   NC332987  13.033  14.310   9.860
 2439POPC   PO432988  12.621  14.686   9.487
 2439POPC   GL132989  12.997  14.667   9.267
 2439POPC   GL232990  13.020  14.311   9.264
 2439POPC   C1A32991  12.967  14.617   8.836
 2439POPC   D2A32992  12.999  14.422   8.451
 2439POPC   C3A32993  12.799  14.641   8.104
 2439POPC   C4A32994  12.911  14.515   7.673
 2439POPC   C1B32995  12.848  14.095   8.874
 2439POPC   C2B32996  12.890  13.927   8.437
 2439POPC   C3B32997  12.851  14.136   8.041
 2439POPC   C4B32998  12.629  14.081   7.705
 2440POPC   NC332999   1.433  16.653   9.518
 2440POPC   PO433000   0.846  16.779   9.727
 2440POPC   GL133001   1.009  16.810   9.268
 2440POPC   GL233002   1.220  17.049   9.238
 2440POPC   C1A33003   1.337  16.673   8.885
 2440POPC   D2A33004   1.538  16.797   8.497
 2440POPC   C3A33005   1.449  16.620   8.082
 2440POPC   C4A33006   1.343  16.720   7.628
 2440POPC   C1B33007   1.008  17.052   8.810
 2440POPC   C2B33008   1.060  16.952   8.401
 2440POPC   C3B33009   1.296  17.099   8.057
 2440POPC   C4B33010   0.977  17.073   7.747
 2441POPC   NC333011  38.580  17.994   9.343
 2441POPC   PO433012  38.485  17.300   9.480
 2441POPC   GL133013  38.701  17.545   9.111
 2441POPC   GL233014  38.559  17.841   8.866
 2441POPC   C1A33015  38.903  17.482   8.696
 2441POPC   D2A33016  38.746  17.748   8.385
 2441POPC   C3A33017  38.524  17.505   8.087
 2441POPC   C4A33018  38.636  17.441   7.679
 2441POPC   C1B33019  38.376  17.457   8.698
 2441POPC   C2B33020  38.114  17.307   8.357
 2441POPC   C3B33021  38.026  17.414   7.920
 2441POPC   C4B33022  38.192  17.744   7.635
 2442POPC   NC333023  36.943  22.553   9.603
 2442POPC   PO433024  36.551  23.115   9.549
 2442POPC   GL133025  36.740  23.096   9.156
 2442POPC   GL233026  36.915  22.827   9.182
 2442POPC   C1A33027  36.671  22.888   8.735
 2442POPC   D2A33028  36.749  22.646   8.344
 2442POPC   C3A33029  36.630  22.871   7.965
 2442POPC   C4A33030  36.789  22.882   7.548
 2442POPC   C1B33031  37.182  22.960   8.857
 2442POPC   C2B33032  37.298  23.103   8.444
 2442POPC   C3B33033  37.163  22.929   8.025
 2442POPC   C4B33034  37.007  22.514   7.886
 2443POPC   NC333035  16.951  37.180   9.454
 2443POPC   PO433036  16.413  36.719   9.485
 2443POPC   GL133037  16.579  36.956   9.159
 2443POPC   GL233038  16.883  36.760   9.142
 2443POPC   C1A33039  16.520  37.026   8.712
 2443POPC   D2A33040  16.766  36.969   8.328
 2443POPC   C3A33041  16.527  36.817   7.984
 2443POPC   C4A33042  16.366  37.074   7.696
 2443POPC   C1B33043  17.012  36.948   8.791
 2443POPC   C2B33044  17.250  37.179   8.503
 2443POPC   C3B33045  17.212  37.122   8.079
 2443POPC   C4B33046  17.018  36.815   7.832
 2444POPC   NC333047  15.285  19.477   9.674
 2444POPC   PO433048  15.135  18.837   9.689
 2444POPC   GL133049  15.265  19.023   9.279
 2444POPC   GL233050  15.175  19.395   9.179
 2444POPC   C1A33051  15.099  18.926   8.866
 2444POPC   D2A33052  15.013  19.126   8.475
 2444POPC   C3A33053  15.181  18.971   8.091
 2444POPC   C4A33054  15.001  19.245   7.807
 2444POPC   C1B33055  15.418  19.323   8.795
 2444POPC   C2B33056  15.442  19.391   8.337
 2444POPC   C3B33057  15.492  19.396   7.895
 2444POPC   C4B33058  15.474  19.032   7.647
 2445POPC   NC333059  27.396   0.285   9.638
 2445POPC   PO433060  27.916   0.685   9.859
 2445POPC   GL133061  27.816   0.538   9.380
 2445POPC   GL233062  28.029   0.693   9.133
 2445POPC   C1A33063  27.721   0.296   8.947
 2445POPC   D2A33064  27.494   0.362   8.508
 2445POPC   C3A33065  27.565   0.264   8.046
 2445POPC   C4A33066  27.284   0.398   7.698
 2445POPC   C1B33067  27.612   0.795   8.919
 2445POPC   C2B33068  27.435   0.876   8.504
 2445POPC   C3B33069  27.380   0.760   8.081
 2445POPC   C4B33070  27.666   0.729   7.717
 2446POPC   NC333071   4.467  29.398   9.385
 2446POPC   PO433072   4.654  28.752   9.479
 2446POPC   GL133073   4.431  28.946   9.119
 2446POPC   GL233074   4.086  29.111   9.167
 2446POPC   C1A33075   4.445  29.171   8.718
 2446POPC   D2A33076   4.386  29.026   8.293
 2446POPC   C3A33077   4.438  29.328   7.984
 2446POPC   C4A33078   4.725  29.363   7.709
 2446POPC   C1B33079   3.994  28.905   8.768
 2446POPC   C2B33080   3.858  29.044   8.340
 2446POPC   C3B33081   3.997  28.951   7.902
 2446POPC   C4B33082   3.903  28.917   7.432
 2447POPC   NC333083  32.449  22.349   9.583
 2447POPC   PO433084  32.274  21.733   9.395
 2447POPC   GL133085  32.483  22.055   9.114
 2447POPC   GL233086  32.429  22.443   9.085
 2447POPC   C1A33087  32.584  21.996   8.664
 2447POPC   D2A33088  32.551  22.259   8.289
 2447POPC   C3A33089  32.392  22.032   7.943
 2447POPC   C4A33090  32.336  21.643   7.695
 2447POPC   C1B33091  32.157  22.255   8.752
 2447POPC   C2B33092  32.036  22.148   8.303
 2447POPC   C3B33093  31.967  22.377   7.902
 2447POPC   C4B33094  31.876  22.508   7.456
 2448POPC   NC333095  22.855   5.586   9.472
 2448POPC   PO433096  23.194   6.144   9.223
 2448POPC   GL133097  22.904   5.898   9.063
 2448POPC   GL233098  23.127   5.659   9.040
 2448POPC   C1A33099  22.717   5.797   8.673
 2448POPC   D2A33100  22.590   5.516   8.363
 2448POPC   C3A33101  22.723   5.689   7.940
 2448POPC   C4A33102  22.806   5.903   7.489
 2448POPC   C1B33103  23.221   5.912   8.616
 2448POPC   C2B33104  23.082   6.193   8.285
 2448POPC   C3B33105  23.078   6.118   7.852
 2448POPC   C4B33106  23.325   5.871   7.543
 2449POPC   NC333107   7.657  41.038   9.506
 2449POPC   PO433108   8.227  40.756   9.768
 2449POPC   GL133109   8.162  40.892   9.286
 2449POPC   GL233110   7.887  41.068   9.068
 2449POPC   C1A33111   8.367  40.968   8.848
 2449POPC   D2A33112   8.540  40.822   8.398
 2449POPC   C3A33113   8.300  40.930   7.977
 2449POPC   C4A33114   8.326  40.647   7.580
 2449POPC   C1B33115   7.935  40.700   8.805
 2449POPC   C2B33116   8.025  40.711   8.361
 2449POPC   C3B33117   7.977  40.534   7.948
 2449POPC   C4B33118   7.885  40.869   7.616
 2450POPC   NC333119  18.038  28.478   9.475
 2450POPC   PO433120  17.351  28.492   9.587
 2450POPC   GL133121  17.580  28.458   9.201
 2450POPC   GL233122  17.226  28.487   9.048
 2450POPC   C1A33123  17.621  28.311   8.787
 2450POPC   D2A33124  17.373  28.586   8.502
 2450POPC   C3A33125  17.316  28.411   8.107
 2450POPC   C4A33126  17.560  28.396   7.785
 2450POPC   C1B33127  17.140  28.167   8.711
 2450POPC   C2B33128  17.441  27.936   8.460
 2450POPC   C3B33129  17.443  27.900   8.025
 2450POPC   C4B33130  17.224  28.023   7.673
 2451POPC   NC333131  18.062  35.436   9.705
 2451POPC   PO433132  18.701  35.619   9.494
 2451POPC   GL133133  18.335  35.413   9.247
 2451POPC   GL233134  18.062  35.640   9.211
 2451POPC   C1A33135  18.105  35.381   8.789
 2451POPC   D2A33136  18.120  35.558   8.340
 2451POPC   C3A33137  18.139  35.259   7.935
 2451POPC   C4A33138  17.956  35.026   7.531
 2451POPC   C1B33139  18.424  35.772   8.874
 2451POPC   C2B33140  18.521  35.868   8.430
 2451POPC   C3B33141  18.557  35.624   8.015
 2451POPC   C4B33142  18.648  35.208   7.867
 2452POPC   NC333143  40.005  21.784   9.688
 2452POPC   PO433144  39.716  22.399   9.500
 2452POPC   GL133145  39.995  22.224   9.223
 2452POPC   GL233146  39.812  21.955   9.066
 2452POPC   C1A33147  40.144  22.267   8.796
 2452POPC   D2A33148  39.918  22.063   8.439
 2452POPC   C3A33149  40.107  22.026   8.037
 2452POPC   C4A33150  40.210  22.288   7.672
 2452POPC   C1B33151  39.641  22.302   8.805
 2452POPC   C2B33152  39.502  22.432   8.394
 2452POPC   C3B33153  39.679  22.326   8.029
 2452POPC   C4B33154  39.720  22.426   7.620
 2453POPC   NC333155  13.459  14.881   9.413
 2453POPC   PO433156  13.493  14.311   9.712
 2453POPC   GL133157  13.528  14.268   9.236
 2453POPC   GL233158  13.654  14.555   9.073
 2453POPC   C1A33159  13.343  14.249   8.815
 2453POPC   D2A33160  13.524  14.212   8.417
 2453POPC   C3A33161  13.414  14.382   7.999
 2453POPC   C4A33162  13.635  14.234   7.613
 2453POPC   C1B33163  13.855  14.561   8.652
 2453POPC   C2B33164  13.703  14.739   8.263
 2453POPC   C3B33165  13.716  14.843   7.837
 2453POPC   C4B33166  13.532  14.729   7.480
 2454POPC   NC333167  17.371  20.876   9.232
 2454POPC   PO433168  17.812  20.412   9.505
 2454POPC   GL133169  17.693  20.506   9.124
 2454POPC   GL233170  17.427  20.369   8.993
 2454POPC   C1A33171  17.741  20.717   8.727
 2454POPC   D2A33172  17.580  20.694   8.317
 2454POPC   C3A33173  17.768  20.600   7.922
 2454POPC   C4A33174  17.680  20.875   7.566
 2454POPC   C1B33175  17.415  20.284   8.589
 2454POPC   C2B33176  17.145  20.471   8.304
 2454POPC   C3B33177  17.243  20.628   7.942
 2454POPC   C4B33178  17.370  20.461   7.565
 2455POPC   NC333179   7.872  24.905   9.590
 2455POPC   PO433180   8.377  25.374   9.479
 2455POPC   GL133181   8.084  25.449   9.193
 2455POPC   GL233182   8.060  25.099   9.137
 2455POPC   C1A33183   8.036  25.465   8.756
 2455POPC   D2A33184   8.067  25.149   8.439
 2455POPC   C3A33185   8.184  25.331   8.048
 2455POPC   C4A33186   8.135  25.541   7.670
 2455POPC   C1B33187   8.418  25.092   8.836
 2455POPC   C2B33188   8.489  24.855   8.436
 2455POPC   C3B33189   8.520  24.932   8.043
 2455POPC   C4B33190   8.451  25.102   7.677
 2456POPC   NC333191   0.018  18.018   9.631
 2456POPC   PO433192  44.459  18.436   9.498
 2456POPC   GL133193  44.517  18.239   9.136
 2456POPC   GL233194  44.706  17.971   9.213
 2456POPC   C1A33195  44.605  18.202   8.713
 2456POPC   D2A33196  44.513  18.336   8.296
 2456POPC   C3A33197  44.801  18.454   7.976
 2456POPC   C4A33198  44.568  18.285   7.614
 2456POPC   C1B33199   0.030  17.933   8.880
 2456POPC   C2B33200  44.951  17.924   8.422
 2456POPC   C3B33201  44.744  17.934   7.991
 2456POPC   C4B33202  44.659  17.799   7.550
 2457POPC   NC333203  18.733  22.087   9.659
 2457POPC   PO433204  19.160  22.521   9.414
 2457POPC   GL133205  19.126  22.286   9.104
 2457POPC   GL233206  19.011  21.990   9.227
 2457POPC   C1A33207  19.014  22.351   8.709
 2457POPC   D2A33208  19.296  22.373   8.379
 2457POPC   C3A33209  19.137  22.449   7.990
 2457POPC   C4A33210  19.226  22.162   7.685
 2457POPC   C1B33211  18.846  21.905   8.839
 2457POPC   C2B33212  19.065  21.912   8.438
 2457POPC   C3B33213  18.906  21.930   8.038
 2457POPC   C4B33214  18.770  21.930   7.633
 2458POPC   NC333215  17.215  22.439   9.837
 2458POPC   PO433216  17.832  22.733   9.558
 2458POPC   GL133217  17.607  22.895   9.189
 2458POPC   GL233218  17.330  23.101   9.220
 2458POPC   C1A33219  17.690  22.818   8.758
 2458POPC   D2A33220  17.599  22.929   8.326
 2458POPC   C3A33221  17.554  22.731   7.907
 2458POPC   C4A33222  17.686  22.861   7.483
 2458POPC   C1B33223  17.193  22.974   8.815
 2458POPC   C2B33224  17.112  23.160   8.407
 2458POPC   C3B33225  17.309  23.203   7.988
 2458POPC   C4B33226  17.234  23.163   7.537
 2459POPC   NC333227  12.214  19.420   9.551
 2459POPC   PO433228  11.675  19.106   9.662
 2459POPC   GL133229  11.821  19.185   9.264
 2459POPC   GL233230  12.100  18.991   9.286
 2459POPC   C1A33231  12.075  19.324   8.888
 2459POPC   D2A33232  12.093  19.080   8.474
 2459POPC   C3A33233  12.316  19.097   8.121
 2459POPC   C4A33234  12.224  19.254   7.733
 2459POPC   C1B33235  11.998  18.802   8.879
 2459POPC   C2B33236  12.226  18.576   8.517
 2459POPC   C3B33237  12.390  18.577   8.096
 2459POPC   C4B33238  12.423  18.786   7.674
 2460POPC   NC333239  21.128  38.052   9.507
 2460POPC   PO433240  21.477  38.662   9.379
 2460POPC   GL133241  21.270  38.387   9.120
 2460POPC   GL233242  21.500  38.070   9.160
 2460POPC   C1A33243  21.240  38.640   8.737
 2460POPC   D2A33244  21.555  38.664   8.410
 2460POPC   C3A33245  21.385  38.809   8.035
 2460POPC   C4A33246  21.552  38.820   7.618
 2460POPC   C1B33247  21.587  38.261   8.753
 2460POPC   C2B33248  21.652  38.158   8.338
 2460POPC   C3B33249  21.609  38.340   7.941
 2460POPC   C4B33250  21.254  38.377   7.718
 2461POPC   NC333251   6.364  20.237   9.617
 2461POPC   PO433252   6.859  20.763   9.536
 2461POPC   GL133253   6.609  20.570   9.221
 2461POPC   GL233254   6.881  20.520   9.009
 2461POPC   C1A33255   6.428  20.574   8.783
 2461POPC   D2A33256   6.421  20.852   8.390
 2461POPC   C3A33257   6.427  20.692   7.961
 2461POPC   C4A33258   6.523  20.814   7.510
 2461POPC   C1B33259   6.877  20.508   8.554
 2461POPC   C2B33260   6.955  20.629   8.147
 2461POPC   C3B33261   6.851  20.483   7.725
 2461POPC   C4B33262   6.454  20.281   7.663
 2462POPC   NC333263  28.380  28.186   9.456
 2462POPC   PO433264  28.119  28.864   9.583
 2462POPC   GL133265  28.239  28.619   9.178
 2462POPC   GL233266  28.106  28.297   9.061
 2462POPC   C1A33267  28.454  28.543   8.766
 2462POPC   D2A33268  28.350  28.665   8.375
 2462POPC   C3A33269  28.472  28.421   8.021
 2462POPC   C4A33270  28.305  28.350   7.608
 2462POPC   C1B33271  28.307  28.010   8.772
 2462POPC   C2B33272  28.352  27.994   8.321
 2462POPC   C3B33273  28.068  28.095   7.984
 2462POPC   C4B33274  27.820  28.070   7.628
 2463POPC   NC333275   2.610  14.270   9.506
 2463POPC   PO433276   2.966  14.716   9.940
 2463POPC   GL133277   2.998  14.572   9.421
 2463POPC   GL233278   3.244  14.374   9.249
 2463POPC   C1A33279   2.850  14.363   8.940
 2463POPC   D2A33280   2.706  14.564   8.559
 2463POPC   C3A33281   2.704  14.475   8.113
 2463POPC   C4A33282   2.400  14.580   7.798
 2463POPC   C1B33283   3.314  14.473   8.794
 2463POPC   C2B33284   3.144  14.312   8.401
 2463POPC   C3B33285   3.175  14.394   7.951
 2463POPC   C4B33286   2.949  14.397   7.548
 2464POPC   NC333287  21.238  34.072   9.599
 2464POPC   PO433288  21.616  33.481   9.552
 2464POPC   GL133289  21.666  33.679   9.148
 2464POPC   GL233290  21.497  34.005   9.140
 2464POPC   C1A33291  21.594  33.545   8.724
 2464POPC   D2A33292  21.368  33.597   8.339
 2464POPC   C3A33293  21.637  33.448   7.982
 2464POPC   C4A33294  21.751  33.580   7.540
 2464POPC   C1B33295  21.251  33.941   8.745
 2464POPC   C2B33296  21.090  34.216   8.404
 2464POPC   C3B33297  21.038  34.245   7.942
 2464POPC   C4B33298  21.442  34.213   7.731
 2465POPC   NC333299  10.681  17.625   9.546
 2465POPC   PO433300  10.320  18.136   9.661
 2465POPC   GL133301  10.311  17.687   9.154
 2465POPC   GL233302  10.614  17.468   9.088
 2465POPC   C1A33303  10.334  17.551   8.691
 2465POPC   D2A33304  10.521  17.821   8.408
 2465POPC   C3A33305  10.611  17.699   8.009
 2465POPC   C4A33306  10.353  17.393   7.851
 2465POPC   C1B33307  10.821  17.297   8.749
 2465POPC   C2B33308  10.651  17.303   8.345
 2465POPC   C3B33309  10.862  17.272   7.979
 2465POPC   C4B33310  11.086  17.305   7.643
 2466POPC   NC333311   7.729  22.206   9.456
 2466POPC   PO433312   8.305  22.003   9.554
 2466POPC   GL133313   8.090  21.983   9.145
 2466POPC   GL233314   8.092  22.333   9.121
 2466POPC   C1A33315   7.908  22.035   8.706
 2466POPC   D2A33316   7.943  21.817   8.327
 2466POPC   C3A33317   8.037  21.968   7.927
 2466POPC   C4A33318   7.884  21.964   7.499
 2466POPC   C1B33319   8.082  22.508   8.734
 2466POPC   C2B33320   8.111  22.350   8.355
 2466POPC   C3B33321   7.967  22.567   8.014
 2466POPC   C4B33322   8.090  22.413   7.657
 2467POPC   NC333323  42.572  39.659   9.486
 2467POPC   PO433324  42.328  40.178   9.509
 2467POPC   GL133325  42.366  39.956   9.124
 2467POPC   GL233326  42.746  39.959   9.088
 2467POPC   C1A33327  42.181  39.851   8.719
 2467POPC   D2A33328  41.945  39.926   8.320
 2467POPC   C3A33329  42.176  39.838   7.953
 2467POPC   C4A33330  42.521  39.507   7.939
 2467POPC   C1B33331  42.579  40.267   8.781
 2467POPC   C2B33332  42.455  40.128   8.369
 2467POPC   C3B33333  42.576  40.144   7.952
 2467POPC   C4B33334  42.494  40.503   7.750
 2468POPC   NC333335  23.970  12.563   9.359
 2468POPC   PO433336  23.488  13.086   9.431
 2468POPC   GL133337  23.710  12.961   9.105
 2468POPC   GL233338  23.575  12.710   9.051
 2468POPC   C1A33339  23.891  13.032   8.694
 2468POPC   D2A33340  23.951  12.805   8.288
 2468POPC   C3A33341  23.908  12.972   7.900
 2468POPC   C4A33342  23.568  13.117   7.744
 2468POPC   C1B33343  23.637  12.610   8.656
 2468POPC   C2B33344  23.461  12.621   8.261
 2468POPC   C3B33345  23.564  12.576   7.830
 2468POPC   C4B33346  23.375  12.422   7.429
 2469POPC   NC333347  10.005  33.674   9.803
 2469POPC   PO433348  10.683  33.553   9.778
 2469POPC   GL133349  10.715  33.603   9.253
 2469POPC   GL233350  10.675  33.935   9.072
 2469POPC   C1A33351  10.505  33.580   8.770
 2469POPC   D2A33352  10.325  33.443   8.373
 2469POPC   C3A33353  10.448  33.681   7.997
 2469POPC   C4A33354  10.798  33.846   7.751
 2469POPC   C1B33355  10.319  34.047   8.761
 2469POPC   C2B33356  10.108  33.919   8.391
 2469POPC   C3B33357  10.036  34.087   7.996
 2469POPC   C4B33358  10.324  34.077   7.670
 2470POPC   NC333359  21.610  28.677   9.575
 2470POPC   PO433360  21.222  28.066   9.498
 2470POPC   GL133361  21.432  28.265   9.188
 2470POPC   GL233362  21.256  28.564   9.223
 2470POPC   C1A33363  21.629  28.188   8.791
 2470POPC   D2A33364  21.732  28.326   8.364
 2470POPC   C3A33365  21.517  28.069   8.046
 2470POPC   C4A33366  21.541  27.928   7.631
 2470POPC   C1B33367  21.394  28.671   8.815
 2470POPC   C2B33368  21.386  28.754   8.380
 2470POPC   C3B33369  21.415  28.574   7.947
 2470POPC   C4B33370  21.192  28.629   7.542
 2471POPC   NC333371  13.996   6.471   9.371
 2471POPC   PO433372  13.596   7.048   9.476
 2471POPC   GL133373  13.602   6.733   9.174
 2471POPC   GL233374  13.378   6.503   9.321
 2471POPC   C1A33375  13.724   6.575   8.762
 2471POPC   D2A33376  13.576   6.752   8.355
 2471POPC   C3A33377  13.775   6.611   7.969
 2471POPC   C4A33378  13.723   6.812   7.582
 2471POPC   C1B33379  13.259   6.421   8.905
 2471POPC   C2B33380  13.378   6.292   8.512
 2471POPC   C3B33381  13.330   6.379   8.089
 2471POPC   C4B33382  13.492   6.248   7.721
 2472POPC   NC333383  38.486  16.360   9.909
 2472POPC   PO433384  38.431  15.709   9.652
 2472POPC   GL133385  38.390  15.803   9.147
 2472POPC   GL233386  38.697  15.639   9.037
 2472POPC   C1A33387  38.503  16.184   8.850
 2472POPC   D2A33388  38.571  16.455   8.505
 2472POPC   C3A33389  38.753  16.288   8.115
 2472POPC   C4A33390  38.425  16.188   7.821
 2472POPC   C1B33391  38.541  15.736   8.651
 2472POPC   C2B33392  38.384  15.989   8.350
 2472POPC   C3B33393  38.281  15.742   8.023
 2472POPC   C4B33394  38.378  15.746   7.575
 2473POPC   NC333395  40.917   2.252   9.414
 2473POPC   PO433396  40.899   1.650   9.468
 2473POPC   GL133397  40.750   1.870   9.134
 2473POPC   GL233398  40.438   1.783   9.210
 2473POPC   C1A33399  40.867   2.152   8.786
 2473POPC   D2A33400  41.124   2.169   8.438
 2473POPC   C3A33401  40.930   2.107   8.055
 2473POPC   C4A33402  40.987   2.282   7.675
 2473POPC   C1B33403  40.365   1.990   8.794
 2473POPC   C2B33404  40.529   2.136   8.414
 2473POPC   C3B33405  40.429   2.257   8.021
 2473POPC   C4B33406  40.532   2.049   7.693
 2474POPC   NC333407  29.172   4.550   9.468
 2474POPC   PO433408  29.302   3.922   9.406
 2474POPC   GL133409  29.093   4.224   9.068
 2474POPC   GL233410  29.274   4.537   8.971
 2474POPC   C1A33411  28.809   4.550   8.832
 2474POPC   D2A33412  29.023   4.809   8.543
 2474POPC   C3A33413  29.046   4.618   8.129
 2474POPC   C4A33414  29.115   4.748   7.684
 2474POPC   C1B33415  29.188   4.306   8.571
 2474POPC   C2B33416  29.440   4.202   8.214
 2474POPC   C3B33417  29.507   4.427   7.852
 2474POPC   C4B33418  29.263   4.322   7.471
 2475POPC   NC333419  29.659  26.967   9.308
 2475POPC   PO433420  29.835  26.463   9.761
 2475POPC   GL133421  29.814  26.489   9.254
 2475POPC   GL233422  30.061  26.738   9.086
 2475POPC   C1A33423  29.849  26.461   8.734
 2475POPC   D2A33424  29.932  26.791   8.390
 2475POPC   C3A33425  29.850  26.676   7.950
 2475POPC   C4A33426  29.906  26.657   7.492
 2475POPC   C1B33427  30.183  27.069   8.768
 2475POPC   C2B33428  30.356  27.148   8.354
 2475POPC   C3B33429  30.306  27.024   7.922
 2475POPC   C4B33430  30.369  26.860   7.498
 2476POPC   NC333431  22.367  24.400   9.353
 2476POPC   PO433432  21.654  24.507   9.410
 2476POPC   GL133433  21.959  24.541   9.084
 2476POPC   GL233434  22.141  24.844   9.190
 2476POPC   C1A33435  22.158  24.286   8.715
 2476POPC   D2A33436  22.327  24.203   8.295
 2476POPC   C3A33437  22.006  24.425   7.974
 2476POPC   C4A33438  21.764  24.459   7.582
 2476POPC   C1B33439  22.320  24.783   8.781
 2476POPC   C2B33440  22.178  24.672   8.383
 2476POPC   C3B33441  22.389  24.766   7.989
 2476POPC   C4B33442  22.808  24.876   7.853
 2477POPC   NC333443  44.545  18.883   9.465
 2477POPC   PO433444   0.197  19.110   9.494
 2477POPC   GL133445  44.875  19.169   9.168
 2477POPC   GL233446  44.839  18.813   9.059
 2477POPC   C1A33447  44.863  19.160   8.707
 2477POPC   D2A33448   0.132  19.286   8.398
 2477POPC   C3A33449   0.021  19.144   8.021
 2477POPC   C4A33450  44.661  19.173   7.776
 2477POPC   C1B33451  44.667  18.701   8.652
 2477POPC   C2B33452  44.566  18.870   8.235
 2477POPC   C3B33453  44.406  18.740   7.834
 2477POPC   C4B33454  44.341  18.974   7.445
 2478POPC   NC333455  11.636  33.052   9.494
 2478POPC   PO433456  12.115  32.693   9.722
 2478POPC   GL133457  12.026  32.833   9.274
 2478POPC   GL233458  11.738  32.592   9.213
 2478POPC   C1A33459  12.215  33.058   8.862
 2478POPC   D2A33460  12.126  33.339   8.565
 2478POPC   C3A33461  12.417  33.329   8.253
 2478POPC   C4A33462  12.240  33.168   7.865
 2478POPC   C1B33463  11.734  32.883   8.856
 2478POPC   C2B33464  11.892  32.886   8.448
 2478POPC   C3B33465  11.811  32.924   8.024
 2478POPC   C4B33466  11.924  32.753   7.646
 2479POPC   NC333467   9.633  43.178  10.023
 2479POPC   PO433468  10.083  43.082   9.607
 2479POPC   GL133469   9.778  43.103   9.257
 2479POPC   GL233470   9.801  42.744   9.238
 2479POPC   C1A33471   9.661  43.293   8.822
 2479POPC   D2A33472   9.879  43.450   8.410
 2479POPC   C3A33473   9.797  43.268   7.971
 2479POPC   C4A33474   9.951  43.424   7.549
 2479POPC   C1B33475   9.743  42.744   8.818
 2479POPC   C2B33476   9.818  42.942   8.447
 2479POPC   C3B33477   9.852  42.780   8.072
 2479POPC   C4B33478   9.758  42.795   7.698
 2480POPC   NC333479   5.009  30.955   9.463
 2480POPC   PO433480   4.725  30.449   9.551
 2480POPC   GL133481   4.868  30.496   9.126
 2480POPC   GL233482   5.191  30.613   9.129
 2480POPC   C1A33483   4.788  30.407   8.685
 2480POPC   D2A33484   4.831  30.708   8.323
 2480POPC   C3A33485   5.167  30.729   8.057
 2480POPC   C4A33486   5.136  30.742   7.624
 2480POPC   C1B33487   5.421  30.751   8.776
 2480POPC   C2B33488   5.594  30.607   8.443
 2480POPC   C3B33489   5.539  30.377   8.081
 2480POPC   C4B33490   5.574  30.487   7.671
 2481POPC   NC333491  32.667  14.381   9.833
 2481POPC   PO433492  32.041  14.221   9.582
 2481POPC   GL133493  32.159  14.329   9.163
 2481POPC   GL233494  31.907  14.596   9.208
 2481POPC   C1A33495  32.455  14.322   8.789
 2481POPC   D2A33496  32.511  14.181   8.350
 2481POPC   C3A33497  32.380  14.548   8.103
 2481POPC   C4A33498  32.384  14.479   7.699
 2481POPC   C1B33499  31.802  14.517   8.801
 2481POPC   C2B33500  32.042  14.359   8.474
 2481POPC   C3B33501  31.952  14.304   8.055
 2481POPC   C4B33502  31.894  14.591   7.741
 2482POPC   NC333503   1.478   0.423  10.021
 2482POPC   PO433504   1.097   0.757   9.542
 2482POPC   GL133505   1.128   0.653   9.111
 2482POPC   GL233506   1.484   0.591   9.094
 2482POPC   C1A33507   1.132   0.342   8.746
 2482POPC   D2A33508   1.358   0.335   8.333
 2482POPC   C3A33509   1.384   0.144   7.903
 2482POPC   C4A33510   1.090   0.180   7.539
 2482POPC   C1B33511   1.714   0.453   8.732
 2482POPC   C2B33512   1.856   0.347   8.312
 2482POPC   C3B33513   1.715   0.534   7.912
 2482POPC   C4B33514   1.568   0.487   7.473
 2483POPC   NC333515   4.794  16.286   9.454
 2483POPC   PO433516   5.111  15.707   9.305
 2483POPC   GL133517   4.941  15.968   9.054
 2483POPC   GL233518   5.187  16.264   9.119
 2483POPC   C1A33519   5.088  15.865   8.627
 2483POPC   D2A33520   5.428  15.936   8.353
 2483POPC   C3A33521   5.417  15.748   7.945
 2483POPC   C4A33522   5.086  15.739   7.696
 2483POPC   C1B33523   5.000  16.353   8.743
 2483POPC   C2B33524   4.916  16.321   8.342
 2483POPC   C3B33525   4.904  16.160   7.945
 2483POPC   C4B33526   4.542  16.233   7.735
 2484POPC   NC333527  40.952  36.773   9.514
 2484POPC   PO433528  40.417  36.928   9.256
 2484POPC   GL133529  40.793  36.926   9.055
 2484POPC   GL233530  41.084  37.155   9.170
 2484POPC   C1A33531  40.736  36.903   8.643
 2484POPC   D2A33532  40.462  37.092   8.390
 2484POPC   C3A33533  40.420  36.819   8.056
 2484POPC   C4A33534  40.636  36.585   7.737
 2484POPC   C1B33535  41.238  36.898   8.808
 2484POPC   C2B33536  41.146  36.818   8.365
 2484POPC   C3B33537  40.922  36.944   8.018
 2484POPC   C4B33538  41.000  36.884   7.594
 2485POPC   NC333539  38.588   0.134   9.690
 2485POPC   PO433540  38.199   0.681   9.538
 2485POPC   GL133541  38.501   0.505   9.213
 2485POPC   GL233542  38.694   0.165   9.200
 2485POPC   C1A33543  38.379   0.336   8.786
 2485POPC   D2A33544  38.137   0.368   8.414
 2485POPC   C3A33545  38.322   0.409   8.023
 2485POPC   C4A33546  38.421   0.563   7.600
 2485POPC   C1B33547  38.690  44.941   8.822
 2485POPC   C2B33548  38.868   0.021   8.398
 2485POPC   C3B33549  38.729   0.117   7.993
 2485POPC   C4B33550  38.735   0.141   7.535
 2486POPC   NC333551   4.820  11.608   9.640
 2486POPC   PO433552   5.381  11.257   9.796
 2486POPC   GL133553   5.305  11.333   9.339
 2486POPC   GL233554   4.952  11.351   9.219
 2486POPC   C1A33555   5.346  11.271   8.878
 2486POPC   D2A33556   5.290  11.465   8.489
 2486POPC   C3A33557   5.083  11.180   8.240
 2486POPC   C4A33558   5.264  11.115   7.835
 2486POPC   C1B33559   4.967  11.650   8.842
 2486POPC   C2B33560   4.813  11.633   8.371
 2486POPC   C3B33561   5.005  11.577   7.926
 2486POPC   C4B33562   5.105  11.512   7.457
 2487POPC   NC333563  16.743   7.010   9.822
 2487POPC   PO433564  16.897   6.477   9.384
 2487POPC   GL133565  16.614   6.569   9.042
 2487POPC   GL233566  16.455   6.909   8.987
 2487POPC   C1A33567  16.787   6.673   8.682
 2487POPC   D2A33568  16.689   6.458   8.345
 2487POPC   C3A33569  16.886   6.645   7.998
 2487POPC   C4A33570  16.775   6.575   7.571
 2487POPC   C1B33571  16.319   6.799   8.555
 2487POPC   C2B33572  16.473   6.896   8.150
 2487POPC   C3B33573  16.345   6.880   7.720
 2487POPC   C4B33574  16.441   6.832   7.284
 2488POPC   NC333575   1.986  23.184   9.305
 2488POPC   PO433576   2.245  22.660   9.581
 2488POPC   GL133577   2.102  22.750   9.075
 2488POPC   GL233578   1.705  22.876   9.000
 2488POPC   C1A33579   2.048  23.022   8.675
 2488POPC   D2A33580   2.238  23.270   8.396
 2488POPC   C3A33581   2.066  23.037   8.094
 2488POPC   C4A33582   1.959  23.122   7.696
 2488POPC   C1B33583   1.804  22.559   8.650
 2488POPC   C2B33584   1.852  22.495   8.194
 2488POPC   C3B33585   1.919  22.594   7.783
 2488POPC   C4B33586   1.807  22.754   7.371
 2489POPC   NC333587  40.027  39.006   9.558
 2489POPC   PO433588  39.804  39.637   9.524
 2489POPC   GL133589  39.881  39.358   9.168
 2489POPC   GL233590  40.158  39.207   9.120
 2489POPC   C1A33591  39.938  39.469   8.739
 2489POPC   D2A33592  39.907  39.314   8.357
 2489POPC   C3A33593  39.965  39.473   7.916
 2489POPC   C4A33594  40.055  39.200   7.513
 2489POPC   C1B33595  40.384  39.215   8.761
 2489POPC   C2B33596  40.341  39.059   8.387
 2489POPC   C3B33597  40.147  39.003   8.001
 2489POPC   C4B33598  40.271  38.771   7.664
 2490POPC   NC333599  14.133  40.369   9.796
 2490POPC   PO433600  14.565  40.831   9.594
 2490POPC   GL133601  14.460  40.736   9.172
 2490POPC   GL233602  14.667  41.024   9.117
 2490POPC   C1A33603  14.254  40.871   8.779
 2490POPC   D2A33604  14.044  40.796   8.383
 2490POPC   C3A33605  14.235  40.823   7.960
 2490POPC   C4A33606  14.504  40.588   7.711
 2490POPC   C1B33607  14.693  41.109   8.675
 2490POPC   C2B33608  14.450  41.133   8.307
 2490POPC   C3B33609  14.522  41.242   7.894
 2490POPC   C4B33610  14.804  41.025   7.651
 2491POPC   NC333611  25.798   8.511   9.498
 2491POPC   PO433612  26.351   8.160   9.512
 2491POPC   GL133613  26.146   8.302   9.125
 2491POPC   GL233614  25.866   8.107   9.149
 2491POPC   C1A33615  26.056   8.164   8.663
 2491POPC   D2A33616  26.011   8.378   8.257
 2491POPC   C3A33617  26.060   8.256   7.833
 2491POPC   C4A33618  26.321   8.377   7.471
 2491POPC   C1B33619  25.611   7.926   8.829
 2491POPC   C2B33620  25.667   7.922   8.397
 2491POPC   C3B33621  25.499   7.806   7.999
 2491POPC   C4B33622  25.578   8.030   7.643
 2492POPC   NC333623  20.694  36.997   9.395
 2492POPC   PO433624  20.199  36.617   9.513
 2492POPC   GL133625  20.281  36.799   9.143
 2492POPC   GL233626  20.285  36.493   8.965
 2492POPC   C1A33627  20.517  36.898   8.758
 2492POPC   D2A33628  20.633  37.241   8.512
 2492POPC   C3A33629  20.586  37.123   8.095
 2492POPC   C4A33630  20.836  36.907   7.795
 2492POPC   C1B33631  20.493  36.355   8.608
 2492POPC   C2B33632  20.567  36.622   8.241
 2492POPC   C3B33633  20.313  36.764   7.868
 2492POPC   C4B33634  20.499  36.744   7.448
 2493POPC   NC333635   1.397  11.115   9.642
 2493POPC   PO433636   0.898  11.496   9.538
 2493POPC   GL133637   1.112  11.165   9.219
 2493POPC   GL233638   1.432  11.327   9.154
 2493POPC   C1A33639   1.303  10.999   8.796
 2493POPC   D2A33640   1.190  11.147   8.369
 2493POPC   C3A33641   1.365  11.180   7.973
 2493POPC   C4A33642   1.463  11.322   7.586
 2493POPC   C1B33643   1.236  11.500   8.811
 2493POPC   C2B33644   1.120  11.664   8.454
 2493POPC   C3B33645   0.953  11.530   8.083
 2493POPC   C4B33646   0.998  11.499   7.656
 2494POPC   NC333647   3.227  20.987   9.376
 2494POPC   PO433648   3.705  21.494   9.531
 2494POPC   GL133649   3.616  21.305   9.189
 2494POPC   GL233650   3.764  21.009   9.213
 2494POPC   C1A33651   3.365  21.253   8.810
 2494POPC   D2A33652   3.257  21.497   8.466
 2494POPC   C3A33653   3.450  21.415   8.075
 2494POPC   C4A33654   3.295  21.590   7.713
 2494POPC   C1B33655   3.882  21.187   8.778
 2494POPC   C2B33656   3.893  21.345   8.332
 2494POPC   C3B33657   3.910  21.335   7.857
 2494POPC   C4B33658   3.627  21.235   7.538
 2495POPC   NC333659  20.230  22.119   9.490
 2495POPC   PO433660  19.602  22.390   9.702
 2495POPC   GL133661  19.629  22.451   9.221
 2495POPC   GL233662  19.964  22.512   9.212
 2495POPC   C1A33663  19.583  22.251   8.810
 2495POPC   D2A33664  19.767  22.001   8.455
 2495POPC   C3A33665  19.529  22.005   8.064
 2495POPC   C4A33666  19.660  21.928   7.611
 2495POPC   C1B33667  19.841  22.707   8.808
 2495POPC   C2B33668  19.783  22.532   8.410
 2495POPC   C3B33669  19.647  22.519   8.004
 2495POPC   C4B33670  19.827  22.440   7.626
 2496POPC   NC333671  42.821   2.220   9.530
 2496POPC   PO433672  43.113   1.600   9.541
 2496POPC   GL133673  43.123   1.932   9.199
 2496POPC   GL233674  42.830   2.035   9.040
 2496POPC   C1A33675  43.325   2.049   8.811
 2496POPC   D2A33676  43.270   2.238   8.411
 2496POPC   C3A33677  43.256   1.998   8.027
 2496POPC   C4A33678  42.896   1.769   7.869
 2496POPC   C1B33679  42.872   2.392   8.766
 2496POPC   C2B33680  42.856   2.568   8.362
 2496POPC   C3B33681  42.805   2.272   8.044
 2496POPC   C4B33682  43.003   2.251   7.644
 2497POPC   NC333683  22.415   5.198   9.672
 2497POPC   PO433684  21.892   4.815   9.536
 2497POPC   GL133685  21.971   4.989   9.157
 2497POPC   GL233686  22.200   5.291   9.209
 2497POPC   C1A33687  21.859   5.228   8.809
 2497POPC   D2A33688  22.069   5.319   8.454
 2497POPC   C3A33689  22.064   5.042   8.112
 2497POPC   C4A33690  22.117   5.270   7.722
 2497POPC   C1B33691  22.356   5.074   8.833
 2497POPC   C2B33692  22.479   5.009   8.423
 2497POPC   C3B33693  22.537   5.166   7.988
 2497POPC   C4B33694  22.465   4.909   7.602
 2498POPC   NC333695  28.756   3.929   9.297
 2498POPC   PO433696  29.191   3.511   9.749
 2498POPC   GL133697  28.994   3.495   9.294
 2498POPC   GL233698  29.313   3.507   9.112
 2498POPC   C1A33699  28.915   3.374   8.838
 2498POPC   D2A33700  29.126   3.121   8.557
 2498POPC   C3A33701  29.130   3.211   8.083
 2498POPC   C4A33702  29.229   3.363   7.657
 2498POPC   C1B33703  29.273   3.788   8.748
 2498POPC   C2B33704  29.236   3.670   8.307
 2498POPC   C3B33705  29.268   3.828   7.880
 2498POPC   C4B33706  29.231   3.826   7.423
 2499POPC   NC333707  41.827  28.878   9.473
 2499POPC   PO433708  41.415  29.424   9.509
 2499POPC   GL133709  41.557  29.211   9.165
 2499POPC   GL233710  41.825  29.387   9.113
 2499POPC   C1A33711  41.441  28.959   8.818
 2499POPC   D2A33712  41.285  28.933   8.417
 2499POPC   C3A33713  41.173  29.303   8.215
 2499POPC   C4A33714  41.436  29.130   7.921
 2499POPC   C1B33715  41.931  29.120   8.754
 2499POPC   C2B33716  41.830  29.043   8.301
 2499POPC   C3B33717  41.874  28.908   7.890
 2499POPC   C4B33718  41.733  28.975   7.487
 2500POPC   NC333719   9.320  12.808   9.563
 2500POPC   PO433720   8.611  13.017   9.572
 2500POPC   GL133721   8.899  12.855   9.212
 2500POPC   GL233722   9.178  13.045   9.141
 2500POPC   C1A33723   8.860  12.748   8.754
 2500POPC   D2A33724   9.056  12.770   8.304
 2500POPC   C3A33725   8.909  12.946   7.871
 2500POPC   C4A33726   8.830  12.835   7.403
 2500POPC   C1B33727   9.343  12.897   8.756
 2500POPC   C2B33728   9.374  13.148   8.351
 2500POPC   C3B33729   9.421  13.037   7.931
 2500POPC   C4B33730   9.290  13.015   7.487
 2501POPC   NC333731  26.065  44.428   9.562
 2501POPC   PO433732  25.538  44.803   9.446
 2501POPC   GL133733  25.773  44.518   9.154
 2501POPC   GL233734  26.150  44.506   9.079
 2501POPC   C1A33735  25.808  44.679   8.739
 2501POPC   D2A33736  25.976  44.610   8.323
 2501POPC   C3A33737  25.776  44.783   7.962
 2501POPC   C4A33738  25.622  44.559   7.594
 2501POPC   C1B33739  26.306  44.782   8.745
 2501POPC   C2B33740  26.104   0.096   8.461
 2501POPC   C3B33741  26.137   0.133   8.008
 2501POPC   C4B33742  26.329  44.811   7.740
 2502POPC   NC333743   2.361  15.419   9.445
 2502POPC   PO433744   2.021  14.878   9.660
 2502POPC   GL133745   2.113  15.044   9.210
 2502POPC   GL233746   1.866  15.267   9.060
 2502POPC   C1A33747   2.189  15.056   8.725
 2502POPC   D2A33748   1.844  15.206   8.428
 2502POPC   C3A33749   1.950  15.226   7.985
 2502POPC   C4A33750   2.201  15.513   7.780
 2502POPC   C1B33751   1.766  14.849   8.890
 2502POPC   C2B33752   1.764  14.693   8.475
 2502POPC   C3B33753   1.602  14.860   8.103
 2502POPC   C4B33754   1.522  15.083   7.711
 2503POPC   NC333755   2.770  36.772   9.848
 2503POPC   PO433756   2.867  37.200   9.342
 2503POPC   GL133757   2.800  37.107   8.978
 2503POPC   GL233758   2.519  36.964   9.019
 2503POPC   C1A33759   2.827  37.050   8.566
 2503POPC   D2A33760   3.186  37.042   8.323
 2503POPC   C3A33761   2.995  36.761   8.115
 2503POPC   C4A33762   2.845  36.899   7.772
 2503POPC   C1B33763   2.342  37.231   8.760
 2503POPC   C2B33764   2.265  37.042   8.425
 2503POPC   C3B33765   2.534  37.089   8.134
 2503POPC   C4B33766   2.408  37.145   7.764
 2504POPC   NC333767  43.377  12.100   9.401
 2504POPC   PO433768  44.020  12.239   9.704
 2504POPC   GL133769  43.865  12.203   9.276
 2504POPC   GL233770  43.830  11.851   9.186
 2504POPC   C1A33771  43.908  12.168   8.807
 2504POPC   D2A33772  44.122  12.135   8.423
 2504POPC   C3A33773  43.890  12.213   8.035
 2504POPC   C4A33774  43.960  11.991   7.596
 2504POPC   C1B33775  43.549  11.819   8.809
 2504POPC   C2B33776  43.511  12.007   8.365
 2504POPC   C3B33777  43.504  11.918   7.885
 2504POPC   C4B33778  43.540  11.824   7.406
 2505POPC   NC333779  25.988  22.081   9.412
 2505POPC   PO433780  26.408  22.631   9.456
 2505POPC   GL133781  26.203  22.393   9.054
 2505POPC   GL233782  25.883  22.141   8.935
 2505POPC   C1A33783  26.259  22.218   8.609
 2505POPC   D2A33784  25.917  21.997   8.409
 2505POPC   C3A33785  25.922  22.103   7.988
 2505POPC   C4A33786  26.312  22.305   7.837
 2505POPC   C1B33787  26.161  21.768   8.797
 2505POPC   C2B33788  26.392  21.768   8.326
 2505POPC   C3B33789  26.328  21.763   7.836
 2505POPC   C4B33790  26.045  21.953   7.507
 2506POPC   NC333791  37.893   6.505   9.615
 2506POPC   PO433792  37.676   5.994   9.517
 2506POPC   GL133793  37.726   5.902   9.107
 2506POPC   GL233794  37.933   6.185   9.078
 2506POPC   C1A33795  37.716   5.591   8.756
 2506POPC   D2A33796  37.481   5.487   8.379
 2506POPC   C3A33797  37.615   5.626   7.955
 2506POPC   C4A33798  37.366   5.742   7.579
 2506POPC   C1B33799  37.679   6.107   8.648
 2506POPC   C2B33800  37.555   6.076   8.204
 2506POPC   C3B33801  37.449   6.245   7.818
 2506POPC   C4B33802  37.340   6.215   7.373
 2507POPC   NC333803  21.804  19.828   9.675
 2507POPC   PO433804  22.141  20.263   9.351
 2507POPC   GL133805  22.158  20.042   9.036
 2507POPC   GL233806  21.945  19.809   9.165
 2507POPC   C1A33807  22.405  19.924   8.700
 2507POPC   D2A33808  22.186  19.967   8.335
 2507POPC   C3A33809  22.342  19.991   7.906
 2507POPC   C4A33810  22.381  20.180   7.449
 2507POPC   C1B33811  21.914  19.690   8.748
 2507POPC   C2B33812  21.998  19.496   8.361
 2507POPC   C3B33813  21.974  19.634   7.986
 2507POPC   C4B33814  21.930  19.572   7.591
 2508POPC   NC333815  35.893  37.863   9.475
 2508POPC   PO433816  36.438  37.590   9.748
 2508POPC   GL133817  36.386  37.797   9.286
 2508POPC   GL233818  36.131  37.563   9.144
 2508POPC   C1A33819  36.385  37.781   8.776
 2508POPC   D2A33820  36.542  37.589   8.366
 2508POPC   C3A33821  36.499  37.883   8.024
 2508POPC   C4A33822  36.072  37.822   7.934
 2508POPC   C1B33823  35.935  37.428   8.784
 2508POPC   C2B33824  36.018  37.526   8.366
 2508POPC   C3B33825  35.897  37.301   8.015
 2508POPC   C4B33826  35.988  37.166   7.624
 2509POPC   NC333827  23.075  34.705   9.513
 2509POPC   PO433828  22.416  34.768   9.419
 2509POPC   GL133829  22.703  34.576   9.179
 2509POPC   GL233830  22.904  34.296   9.192
 2509POPC   C1A33831  22.923  34.656   8.837
 2509POPC   D2A33832  23.098  34.569   8.470
 2509POPC   C3A33833  22.962  34.861   8.166
 2509POPC   C4A33834  22.888  34.629   7.802
 2509POPC   C1B33835  23.114  34.166   8.804
 2509POPC   C2B33836  23.258  34.070   8.354
 2509POPC   C3B33837  23.140  34.170   7.928
 2509POPC   C4B33838  23.407  34.324   7.601
 2510POPC   NC333839   3.502  23.102   9.446
 2510POPC   PO433840   3.816  23.669   9.724
 2510POPC   GL133841   3.831  23.643   9.272
 2510POPC   GL233842   3.509  23.771   9.209
 2510POPC   C1A33843   3.785  23.490   8.843
 2510POPC   D2A33844   3.750  23.600   8.394
 2510POPC   C3A33845   3.805  23.563   7.948
 2510POPC   C4A33846   3.668  23.770   7.587
 2510POPC   C1B33847   3.397  23.986   8.846
 2510POPC   C2B33848   3.600  24.086   8.477
 2510POPC   C3B33849   3.547  23.987   8.069
 2510POPC   C4B33850   3.355  24.149   7.730
 2511POPC   NC333851  25.727  11.975   9.901
 2511POPC   PO433852  25.194  12.037   9.500
 2511POPC   GL133853  25.397  12.119   9.109
 2511POPC   GL233854  25.256  11.835   8.980
 2511POPC   C1A33855  25.369  12.224   8.655
 2511POPC   D2A33856  25.458  12.030   8.248
 2511POPC   C3A33857  25.290  12.262   7.910
 2511POPC   C4A33858  24.883  12.197   7.709
 2511POPC   C1B33859  25.211  11.705   8.575
 2511POPC   C2B33860  25.164  11.580   8.163
 2511POPC   C3B33861  25.253  11.773   7.769
 2511POPC   C4B33862  25.581  12.031   7.540
 2512POPC   NC333863  32.597  27.817   9.803
 2512POPC   PO433864  33.087  27.440   9.475
 2512POPC   GL133865  33.069  27.693   9.121
 2512POPC   GL233866  32.746  27.859   9.034
 2512POPC   C1A33867  33.087  27.576   8.705
 2512POPC   D2A33868  32.999  27.414   8.327
 2512POPC   C3A33869  33.185  27.519   7.968
 2512POPC   C4A33870  32.905  27.691   7.655
 2512POPC   C1B33871  33.072  28.086   8.792
 2512POPC   C2B33872  32.987  28.206   8.395
 2512POPC   C3B33873  32.941  27.958   8.084
 2512POPC   C4B33874  33.293  27.991   7.824
 2513POPC   NC333875  30.313  10.511   9.763
 2513POPC   PO433876  30.736  10.348   9.190
 2513POPC   GL133877  30.635  10.771   9.042
 2513POPC   GL233878  30.411  10.594   8.817
 2513POPC   C1A33879  30.540  11.041   8.645
 2513POPC   D2A33880  30.478  10.785   8.258
 2513POPC   C3A33881  30.842  10.635   8.047
 2513POPC   C4A33882  30.973  10.700   7.647
 2513POPC   C1B33883  30.855  10.611   8.599
 2513POPC   C2B33884  30.936  10.234   8.374
 2513POPC   C3B33885  30.555  10.216   8.147
 2513POPC   C4B33886  30.555  10.308   7.722
 2514POPC   NC333887  13.156  36.339   9.393
 2514POPC   PO433888  12.550  35.988   9.633
 2514POPC   GL133889  12.863  35.989   9.186
 2514POPC   GL233890  13.119  35.794   9.141
 2514POPC   C1A33891  12.766  36.127   8.685
 2514POPC   D2A33892  12.672  36.245   8.282
 2514POPC   C3A33893  12.798  36.025   7.919
 2514POPC   C4A33894  12.566  36.026   7.553
 2514POPC   C1B33895  13.247  36.092   8.796
 2514POPC   C2B33896  13.170  36.098   8.349
 2514POPC   C3B33897  13.224  36.331   7.943
 2514POPC   C4B33898  12.984  36.323   7.522
 2515POPC   NC333899  20.151  14.558   9.527
 2515POPC   PO433900  19.723  14.113   9.510
 2515POPC   GL133901  19.856  14.347   9.149
 2515POPC   GL233902  20.146  14.136   9.153
 2515POPC   C1A33903  19.672  14.521   8.747
 2515POPC   D2A33904  19.516  14.329   8.367
 2515POPC   C3A33905  19.680  14.360   7.959
 2515POPC   C4A33906  19.859  14.750   7.850
 2515POPC   C1B33907  20.169  14.208   8.721
 2515POPC   C2B33908  20.019  14.182   8.312
 2515POPC   C3B33909  20.186  14.358   7.931
 2515POPC   C4B33910  20.066  14.412   7.513
 2516POPC   NC333911   0.030   9.988   9.474
 2516POPC   PO433912   0.151  10.660   9.488
 2516POPC   GL133913   0.344  10.595   9.126
 2516POPC   GL233914   0.372  10.240   9.119
 2516POPC   C1A33915   0.520  10.741   8.750
 2516POPC   D2A33916   0.364  10.685   8.338
 2516POPC   C3A33917   0.679  10.584   8.022
 2516POPC   C4A33918   0.716  10.661   7.570
 2516POPC   C1B33919   0.194  10.314   8.723
 2516POPC   C2B33920  44.932  10.359   8.370
 2516POPC   C3B33921   0.246  10.293   8.043
 2516POPC   C4B33922   0.237  10.488   7.658
 2517POPC   NC333923  41.073   1.304   9.693
 2517POPC   PO433924  40.607   0.776   9.705
 2517POPC   GL133925  40.858   0.970   9.307
 2517POPC   GL233926  40.659   1.293   9.193
 2517POPC   C1A33927  40.813   1.000   8.816
 2517POPC   D2A33928  40.516   1.185   8.511
 2517POPC   C3A33929  40.584   1.224   8.084
 2517POPC   C4A33930  40.912   0.949   7.966
 2517POPC   C1B33931  40.784   1.520   8.791
 2517POPC   C2B33932  40.842   1.713   8.388
 2517POPC   C3B33933  40.887   1.619   7.923
 2517POPC   C4B33934  40.847   1.291   7.599
 2518POPC   NC333935   8.645  19.848  10.084
 2518POPC   PO433936   8.229  19.760   9.561
 2518POPC   GL133937   8.025  19.695   9.149
 2518POPC   GL233938   8.182  19.978   9.057
 2518POPC   C1A33939   7.850  19.751   8.734
 2518POPC   D2A33940   7.955  19.559   8.358
 2518POPC   C3A33941   7.947  19.766   7.978
 2518POPC   C4A33942   7.721  20.111   7.803
 2518POPC   C1B33943   8.340  19.799   8.692
 2518POPC   C2B33944   8.285  19.988   8.316
 2518POPC   C3B33945   8.469  19.741   8.068
 2518POPC   C4B33946   8.556  19.607   7.710
 2519POPC   NC333947  42.822  43.692   9.404
 2519POPC   PO433948  43.364  44.142   9.543
 2519POPC   GL133949  43.177  44.000   9.169
 2519POPC   GL233950  42.833  44.149   9.192
 2519POPC   C1A33951  43.305  43.836   8.757
 2519POPC   D2A33952  43.074  43.634   8.407
 2519POPC   C3A33953  43.067  43.845   8.038
 2519POPC   C4A33954  43.402  43.761   7.785
 2519POPC   C1B33955  42.799  43.865   8.797
 2519POPC   C2B33956  42.730  44.026   8.399
 2519POPC   C3B33957  42.687  44.250   8.030
 2519POPC   C4B33958  42.817  44.082   7.633
 2520POPC   NC333959   3.091  34.571   9.378
 2520POPC   PO433960   3.734  34.493   9.576
 2520POPC   GL133961   3.539  34.380   9.198
 2520POPC   GL233962   3.529  34.756   9.152
 2520POPC   C1A33963   3.482  34.123   8.814
 2520POPC   D2A33964   3.469  34.237   8.362
 2520POPC   C3A33965   3.861  34.415   8.195
 2520POPC   C4A33966   3.908  34.767   7.877
 2520POPC   C1B33967   3.657  34.655   8.737
 2520POPC   C2B33968   3.523  34.783   8.329
 2520POPC   C3B33969   3.435  34.600   7.944
 2520POPC   C4B33970   3.421  34.903   7.623
 2521POPC   NC333971  44.006   0.820   9.541
 2521POPC   PO433972  43.766   1.401   9.518
 2521POPC   GL133973  43.830   1.133   9.173
 2521POPC   GL233974  44.040   1.406   9.022
 2521POPC   C1A33975  43.765   1.019   8.753
 2521POPC   D2A33976  43.938   1.260   8.394
 2521POPC   C3A33977  43.950   1.028   8.003
 2521POPC   C4A33978  43.624   0.898   7.687
 2521POPC   C1B33979  43.606   1.508   8.854
 2521POPC   C2B33980  43.440   1.670   8.456
 2521POPC   C3B33981  43.605   1.620   8.042
 2521POPC   C4B33982  43.765   1.389   7.704
 2522POPC   NC333983  24.089   4.192   9.600
 2522POPC   PO433984  23.424   4.317   9.597
 2522POPC   GL133985  23.703   4.394   9.279
 2522POPC   GL233986  23.803   4.070   9.139
 2522POPC   C1A33987  23.708   4.517   8.846
 2522POPC   D2A33988  23.552   4.365   8.446
 2522POPC   C3A33989  23.681   4.450   8.027
 2522POPC   C4A33990  23.545   4.073   7.860
 2522POPC   C1B33991  24.009   4.114   8.726
 2522POPC   C2B33992  23.907   4.013   8.328
 2522POPC   C3B33993  24.042   4.084   7.942
 2522POPC   C4B33994  23.913   4.250   7.565
 2523POPC   NC333995   3.768  42.862   9.494
 2523POPC   PO433996   3.709  43.524   9.481
 2523POPC   GL133997   3.627  43.247   9.168
 2523POPC   GL233998   3.346  43.204   9.214
 2523POPC   C1A33999   3.456  43.050   8.759
 2523POPC   D2A34000   3.590  43.145   8.385
 2523POPC   C3A34001   3.641  42.905   8.029
 2523POPC   C4A34002   3.498  43.085   7.645
 2523POPC   C1B34003   3.115  43.404   8.881
 2523POPC   C2B34004   3.062  43.305   8.461
 2523POPC   C3B34005   3.234  43.292   8.051
 2523POPC   C4B34006   3.196  43.581   7.732
 2524POPC   NC334007  16.223  17.934   9.551
 2524POPC   PO434008  15.989  17.257   9.640
 2524POPC   GL134009  15.944  17.288   9.202
 2524POPC   GL234010  16.053  17.637   9.145
 2524POPC   C1A34011  15.889  17.209   8.745
 2524POPC   D2A34012  15.932  17.541   8.427
 2524POPC   C3A34013  15.763  17.592   8.000
 2524POPC   C4A34014  15.795  17.431   7.576
 2524POPC   C1B34015  16.310  17.617   8.782
 2524POPC   C2B34016  16.425  17.771   8.406
 2524POPC   C3B34017  16.301  17.572   8.070
 2524POPC   C4B34018  16.196  17.691   7.697
 2525POPC   NC334019  38.998  14.646   9.330
 2525POPC   PO434020  39.508  14.307   9.603
 2525POPC   GL134021  39.419  14.173   9.088
 2525POPC   GL234022  39.089  14.276   8.996
 2525POPC   C1A34023  39.420  14.210   8.601
 2525POPC   D2A34024  39.280  14.547   8.280
 2525POPC   C3A34025  39.392  14.545   7.843
 2525POPC   C4A34026  39.345  14.275   7.470
 2525POPC   C1B34027  38.936  14.573   8.665
 2525POPC   C2B34028  38.857  14.896   8.347
 2525POPC   C3B34029  39.048  14.912   7.917
 2525POPC   C4B34030  38.998  14.629   7.528
 2526POPC   NC334031  15.433  41.709   9.561
 2526POPC   PO434032  14.801  41.470   9.487
 2526POPC   GL134033  15.154  41.387   9.205
 2526POPC   GL234034  15.284  41.680   9.074
 2526POPC   C1A34035  15.131  41.361   8.729
 2526POPC   D2A34036  15.107  41.605   8.365
 2526POPC   C3A34037  15.033  41.342   8.005
 2526POPC   C4A34038  15.091  41.429   7.551
 2526POPC   C1B34039  15.579  41.682   8.726
 2526POPC   C2B34040  15.608  41.632   8.280
 2526POPC   C3B34041  15.426  41.661   7.866
 2526POPC   C4B34042  15.491  41.731   7.416
 2527POPC   NC334043  25.077  28.296   9.887
 2527POPC   PO434044  25.246  28.525   9.334
 2527POPC   GL134045  25.398  28.319   8.978
 2527POPC   GL234046  25.479  27.986   9.036
 2527POPC   C1A34047  25.328  28.472   8.584
 2527POPC   D2A34048  25.068  28.424   8.240
 2527POPC   C3A34049  25.351  28.537   7.916
 2527POPC   C4A34050  25.385  28.845   7.575
 2527POPC   C1B34051  25.173  27.978   8.656
 2527POPC   C2B34052  25.175  27.946   8.197
 2527POPC   C3B34053  25.149  28.057   7.753
 2527POPC   C4B34054  25.057  27.994   7.256
 2528POPC   NC334055  10.593  36.460   9.512
 2528POPC   PO434056  10.584  35.802   9.465
 2528POPC   GL134057  10.579  36.135   9.112
 2528POPC   GL234058  10.860  36.419   9.089
 2528POPC   C1A34059  10.404  36.031   8.699
 2528POPC   D2A34060  10.361  35.714   8.385
 2528POPC   C3A34061  10.592  35.798   7.982
 2528POPC   C4A34062  10.478  36.061   7.616
 2528POPC   C1B34063  10.807  36.337   8.659
 2528POPC   C2B34064  10.579  36.307   8.276
 2528POPC   C3B34065  10.726  36.413   7.878
 2528POPC   C4B34066  10.707  36.469   7.414
 2529POPC   NC334067  18.612  12.617   9.234
 2529POPC   PO434068  17.971  12.580   9.434
 2529POPC   GL134069  18.171  12.844   9.120
 2529POPC   GL234070  18.214  12.511   8.948
 2529POPC   C1A34071  18.446  12.980   8.737
 2529POPC   D2A34072  18.637  12.865   8.369
 2529POPC   C3A34073  18.516  13.079   8.022
 2529POPC   C4A34074  18.625  12.815   7.703
 2529POPC   C1B34075  17.920  12.725   8.705
 2529POPC   C2B34076  18.095  12.892   8.371
 2529POPC   C3B34077  18.246  12.643   8.056
 2529POPC   C4B34078  18.079  12.769   7.709
 2530POPC   NC334079  23.642  33.532   9.446
 2530POPC   PO434080  23.242  34.139   9.541
 2530POPC   GL134081  23.508  34.081   9.157
 2530POPC   GL234082  23.868  33.930   9.169
 2530POPC   C1A34083  23.533  33.884   8.756
 2530POPC   D2A34084  23.685  33.782   8.345
 2530POPC   C3A34085  23.669  34.061   8.000
 2530POPC   C4A34086  23.775  33.932   7.587
 2530POPC   C1B34087  24.024  33.736   8.744
 2530POPC   C2B34088  24.186  33.740   8.292
 2530POPC   C3B34089  24.053  33.549   7.866
 2530POPC   C4B34090  24.033  33.486   7.392
 2531POPC   NC334091  22.345  21.780   9.767
 2531POPC   PO434092  21.937  22.331   9.667
 2531POPC   GL134093  22.038  22.059   9.324
 2531POPC   GL234094  22.277  22.288   9.193
 2531POPC   C1A34095  22.007  21.958   8.877
 2531POPC   D2A34096  22.164  21.827   8.469
 2531POPC   C3A34097  22.012  21.966   8.081
 2531POPC   C4A34098  21.967  21.955   7.671
 2531POPC   C1B34099  22.541  22.343   8.839
 2531POPC   C2B34100  22.470  22.217   8.413
 2531POPC   C3B34101  22.401  22.311   7.975
 2531POPC   C4B34102  22.676  22.536   7.727
 2532POPC   NC334103  39.448  41.412   9.612
 2532POPC   PO434104  38.826  41.473   9.684
 2532POPC   GL134105  39.115  41.418   9.245
 2532POPC   GL234106  39.228  41.703   9.122
 2532POPC   C1A34107  39.118  41.414   8.741
 2532POPC   D2A34108  39.189  41.254   8.339
 2532POPC   C3A34109  38.808  41.255   8.091
 2532POPC   C4A34110  38.793  41.127   7.679
 2532POPC   C1B34111  39.090  41.929   8.722
 2532POPC   C2B34112  38.959  41.783   8.286
 2532POPC   C3B34113  39.173  41.619   7.899
 2532POPC   C4B34114  39.515  41.682   7.537
 2533POPC   NC334115  19.676  30.888   9.976
 2533POPC   PO434116  20.038  30.578   9.527
 2533POPC   GL134117  19.863  30.745   9.174
 2533POPC   GL234118  20.023  31.054   9.126
 2533POPC   C1A34119  19.945  30.635   8.752
 2533POPC   D2A34120  19.970  30.415   8.369
 2533POPC   C3A34121  19.702  30.669   8.147
 2533POPC   C4A34122  19.517  30.647   7.750
 2533POPC   C1B34123  20.270  31.032   8.727
 2533POPC   C2B34124  20.162  30.912   8.281
 2533POPC   C3B34125  20.060  30.788   7.824
 2533POPC   C4B34126  20.067  31.042   7.384
 2534POPC   NC334127  44.186   4.473   9.567
 2534POPC   PO434128  44.839   4.594   9.506
 2534POPC   GL134129  44.767   4.347   9.144
 2534POPC   GL234130  44.451   4.174   9.136
 2534POPC   C1A34131  44.908   4.395   8.715
 2534POPC   D2A34132  44.830   4.636   8.346
 2534POPC   C3A34133  44.881   4.394   7.975
 2534POPC   C4A34134  44.524   4.441   7.713
 2534POPC   C1B34135  44.692   3.928   8.805
 2534POPC   C2B34136  44.795   4.010   8.365
 2534POPC   C3B34137  44.610   3.947   7.949
 2534POPC   C4B34138  44.752   3.748   7.593
 2535POPC   NC334139  36.043  18.476   9.821
 2535POPC   PO434140  36.038  19.180   9.707
 2535POPC   GL134141  36.029  19.205   9.244
 2535POPC   GL234142  35.909  18.929   9.044
 2535POPC   C1A34143  36.195  19.294   8.818
 2535POPC   D2A34144  36.159  19.108   8.396
 2535POPC   C3A34145  36.128  19.369   8.088
 2535POPC   C4A34146  35.827  19.282   7.837
 2535POPC   C1B34147  36.020  18.707   8.680
 2535POPC   C2B34148  35.933  18.671   8.224
 2535POPC   C3B34149  35.976  18.785   7.768
 2535POPC   C4B34150  35.767  18.790   7.317
 2536POPC   NC334151  37.432  25.852   9.527
 2536POPC   PO434152  38.152  26.046   9.556
 2536POPC   GL134153  37.837  25.955   9.235
 2536POPC   GL234154  37.635  26.233   9.087
 2536POPC   C1A34155  37.629  25.780   8.860
 2536POPC   D2A34156  37.617  26.069   8.480
 2536POPC   C3A34157  37.680  25.938   8.030
 2536POPC   C4A34158  37.384  25.874   7.671
 2536POPC   C1B34159  37.338  26.409   8.765
 2536POPC   C2B34160  37.388  26.502   8.299
 2536POPC   C3B34161  37.338  26.383   7.841
 2536POPC   C4B34162  37.602  26.334   7.468
 2537POPC   NC334163  22.758  33.939   9.509
 2537POPC   PO434164  23.139  33.336   9.399
 2537POPC   GL134165  23.056  33.721   9.113
 2537POPC   GL234166  22.690  33.812   9.031
 2537POPC   C1A34167  23.036  33.689   8.644
 2537POPC   D2A34168  23.278  33.475   8.325
 2537POPC   C3A34169  23.299  33.684   7.912
 2537POPC   C4A34170  23.260  33.872   7.457
 2537POPC   C1B34171  22.606  34.200   8.784
 2537POPC   C2B34172  22.760  34.115   8.389
 2537POPC   C3B34173  22.819  33.743   8.143
 2537POPC   C4B34174  22.820  33.809   7.712
 2538POPC   NC334175   6.403  10.697   9.528
 2538POPC   PO434176   7.035  10.380   9.480
 2538POPC   GL134177   6.769  10.523   9.219
 2538POPC   GL234178   6.562  10.225   9.238
 2538POPC   C1A34179   6.571  10.639   8.853
 2538POPC   D2A34180   6.600  10.429   8.457
 2538POPC   C3A34181   6.696  10.705   8.125
 2538POPC   C4A34182   6.936  10.761   7.739
 2538POPC   C1B34183   6.301  10.216   8.860
 2538POPC   C2B34184   6.133  10.170   8.479
 2538POPC   C3B34185   6.274  10.260   8.081
 2538POPC   C4B34186   6.536  10.416   7.731
 2539POPC   NC334187  12.285  18.223   9.557
 2539POPC   PO434188  11.744  18.363   9.792
 2539POPC   GL134189  11.897  18.476   9.325
 2539POPC   GL234190  12.290  18.537   9.180
 2539POPC   C1A34191  11.896  18.309   8.883
 2539POPC   D2A34192  11.723  18.460   8.466
 2539POPC   C3A34193  11.931  18.344   8.052
 2539POPC   C4A34194  11.854  18.581   7.654
 2539POPC   C1B34195  12.430  18.252   8.875
 2539POPC   C2B34196  12.458  18.087   8.463
 2539POPC   C3B34197  12.362  18.051   8.034
 2539POPC   C4B34198  12.268  18.283   7.653
 2540POPC   NC334199   8.803  10.907   9.576
 2540POPC   PO434200   8.775  11.592   9.718
 2540POPC   GL134201   8.683  11.360   9.335
 2540POPC   GL234202   9.067  11.303   9.281
 2540POPC   C1A34203   8.748  11.164   8.910
 2540POPC   D2A34204   8.982  11.455   8.633
 2540POPC   C3A34205   8.973  11.478   8.165
 2540POPC   C4A34206   8.869  11.238   7.768
 2540POPC   C1B34207   9.268  11.062   8.912
 2540POPC   C2B34208   9.155  10.993   8.470
 2540POPC   C3B34209   9.284  11.038   8.048
 2540POPC   C4B34210   9.293  11.004   7.601
 2541POPC   NC334211  26.199   1.826   9.407
 2541POPC   PO434212  25.603   2.160   9.596
 2541POPC   GL134213  25.823   2.275   9.172
 2541POPC   GL234214  26.151   2.209   9.089
 2541POPC   C1A34215  25.813   2.387   8.720
 2541POPC   D2A34216  26.107   2.411   8.354
 2541POPC   C3A34217  25.951   2.082   8.115
 2541POPC   C4A34218  25.925   2.018   7.685
 2541POPC   C1B34219  26.418   2.118   8.733
 2541POPC   C2B34220  26.442   1.957   8.320
 2541POPC   C3B34221  26.398   2.049   7.896
 2541POPC   C4B34222  26.400   1.895   7.506
 2542POPC   NC334223  24.873  26.174   9.473
 2542POPC   PO434224  24.218  25.911   9.550
 2542POPC   GL134225  24.508  25.886   9.213
 2542POPC   GL234226  24.500  26.220   9.134
 2542POPC   C1A34227  24.575  25.839   8.772
 2542POPC   D2A34228  24.289  25.823   8.407
 2542POPC   C3A34229  24.485  25.709   8.024
 2542POPC   C4A34230  24.810  25.785   7.709
 2542POPC   C1B34231  24.778  26.384   8.842
 2542POPC   C2B34232  24.893  26.450   8.421
 2542POPC   C3B34233  24.843  26.261   8.027
 2542POPC   C4B34234  25.122  26.208   7.729
 2543POPC   NC334235   6.973   6.742   9.343
 2543POPC   PO434236   7.529   6.664   9.609
 2543POPC   GL134237   7.517   6.596   9.199
 2543POPC   GL234238   7.266   6.378   9.152
 2543POPC   C1A34239   7.647   6.429   8.786
 2543POPC   D2A34240   7.438   6.391   8.363
 2543POPC   C3A34241   7.584   6.684   8.061
 2543POPC   C4A34242   7.715   6.603   7.641
 2543POPC   C1B34243   7.164   6.617   8.751
 2543POPC   C2B34244   6.888   6.476   8.434
 2543POPC   C3B34245   6.986   6.197   8.129
 2543POPC   C4B34246   7.270   6.342   7.850
 2544POPC   NC334247   5.495  10.434   9.688
 2544POPC   PO434248   6.165  10.305   9.582
 2544POPC   GL134249   5.877  10.467   9.272
 2544POPC   GL234250   5.521  10.398   9.142
 2544POPC   C1A34251   6.006  10.645   8.897
 2544POPC   D2A34252   5.917  10.674   8.464
 2544POPC   C3A34253   6.133  10.760   8.082
 2544POPC   C4A34254   6.050  10.529   7.716
 2544POPC   C1B34255   5.496  10.744   8.799
 2544POPC   C2B34256   5.523  10.998   8.427
 2544POPC   C3B34257   5.570  10.761   8.068
 2544POPC   C4B34258   5.536  10.512   7.714
 2545POPC   NC334259  12.338   5.118   9.545
 2545POPC   PO434260  11.769   4.816   9.374
 2545POPC   GL134261  12.019   5.029   9.112
 2545POPC   GL234262  11.816   5.264   9.056
 2545POPC   C1A34263  12.039   5.081   8.643
 2545POPC   D2A34264  12.199   5.009   8.243
 2545POPC   C3A34265  12.042   5.151   7.867
 2545POPC   C4A34266  12.074   4.886   7.508
 2545POPC   C1B34267  11.720   5.475   8.685
 2545POPC   C2B34268  11.920   5.465   8.294
 2545POPC   C3B34269  11.734   5.550   7.916
 2545POPC   C4B34270  11.525   5.240   7.761
 2546POPC   NC334271  25.389  13.333   9.466
 2546POPC   PO434272  24.850  13.718   9.585
 2546POPC   GL134273  25.004  13.493   9.193
 2546POPC   GL234274  25.336  13.592   9.025
 2546POPC   C1A34275  24.971  13.310   8.797
 2546POPC   D2A34276  25.242  13.504   8.499
 2546POPC   C3A34277  25.007  13.624   8.163
 2546POPC   C4A34278  25.109  13.602   7.753
 2546POPC   C1B34279  25.667  13.732   8.726
 2546POPC   C2B34280  25.716  13.935   8.345
 2546POPC   C3B34281  25.566  13.811   7.939
 2546POPC   C4B34282  25.549  13.755   7.480
 2547POPC   NC334283  30.598  44.061   9.598
 2547POPC   PO434284  30.933  43.420   9.485
 2547POPC   GL134285  30.660  43.612   9.142
 2547POPC   GL234286  30.570  43.973   9.097
 2547POPC   C1A34287  30.492  43.669   8.688
 2547POPC   D2A34288  30.317  43.815   8.307
 2547POPC   C3A34289  30.444  43.533   8.040
 2547POPC   C4A34290  30.697  43.530   7.662
 2547POPC   C1B34291  30.891  43.997   8.773
 2547POPC   C2B34292  31.099  43.983   8.339
 2547POPC   C3B34293  30.798  43.961   7.959
 2547POPC   C4B34294  30.809  43.972   7.479
 2548POPC   NC334295  43.658  23.015   9.535
 2548POPC   PO434296  44.376  23.229   9.602
 2548POPC   GL134297  44.063  23.155   9.217
 2548POPC   GL234298  43.993  22.810   9.216
 2548POPC   C1A34299  43.782  23.105   8.813
 2548POPC   D2A34300  43.522  23.158   8.396
 2548POPC   C3A34301  43.704  23.101   8.006
 2548POPC   C4A34302  43.576  23.084   7.584
 2548POPC   C1B34303  43.908  22.610   8.822
 2548POPC   C2B34304  43.828  22.758   8.399
 2548POPC   C3B34305  43.785  22.595   7.984
 2548POPC   C4B34306  43.777  22.586   7.559
 2549POPC   NC334307  21.987  39.411   9.617
 2549POPC   PO434308  22.304  38.810   9.615
 2549POPC   GL134309  22.179  39.064   9.278
 2549POPC   GL234310  22.317  39.403   9.225
 2549POPC   C1A34311  22.155  39.058   8.848
 2549POPC   D2A34312  22.103  38.833   8.474
 2549POPC   C3A34313  22.151  39.072   8.110
 2549POPC   C4A34314  22.073  39.043   7.717
 2549POPC   C1B34315  22.190  39.596   8.857
 2549POPC   C2B34316  22.127  39.427   8.472
 2549POPC   C3B34317  22.002  39.556   8.073
 2549POPC   C4B34318  22.082  39.582   7.655
 2550POPC   NC334319   0.874  43.640   9.603
 2550POPC   PO434320   1.560  43.654   9.477
 2550POPC   GL134321   1.436  43.892   9.145
 2550POPC   GL234322   1.099  43.858   9.189
 2550POPC   C1A34323   1.529  43.955   8.737
 2550POPC   D2A34324   1.250  43.813   8.430
 2550POPC   C3A34325   1.314  43.887   8.033
 2550POPC   C4A34326   0.998  43.655   7.826
 2550POPC   C1B34327   0.905  43.927   8.799
 2550POPC   C2B34328   0.731  43.974   8.391
 2550POPC   C3B34329   0.966  44.239   8.154
 2550POPC   C4B34330   1.049  44.262   7.732
 2551POPC   NC334331   5.721  13.087   9.450
 2551POPC   PO434332   5.959  12.448   9.563
 2551POPC   GL134333   6.031  12.707   9.239
 2551POPC   GL234334   5.699  12.674   9.074
 2551POPC   C1A34335   6.104  12.844   8.824
 2551POPC   D2A34336   5.816  12.768   8.495
 2551POPC   C3A34337   5.992  12.880   8.091
 2551POPC   C4A34338   6.251  12.741   7.755
 2551POPC   C1B34339   5.630  13.099   8.826
 2551POPC   C2B34340   5.627  13.223   8.374
 2551POPC   C3B34341   5.476  12.880   8.118
 2551POPC   C4B34342   5.646  12.633   7.790
 2552POPC   NC334343  44.409   9.781   9.839
 2552POPC   PO434344  44.918   9.513   9.575
 2552POPC   GL134345  44.717   9.521   9.220
 2552POPC   GL234346  44.396   9.619   9.292
 2552POPC   C1A34347  44.789   9.356   8.816
 2552POPC   D2A34348  44.815   9.557   8.437
 2552POPC   C3A34349  44.714   9.374   8.081
 2552POPC   C4A34350  44.559   9.493   7.700
 2552POPC   C1B34351  44.480   9.775   8.848
 2552POPC   C2B34352  44.398   9.924   8.423
 2552POPC   C3B34353  44.441   9.923   7.981
 2552POPC   C4B34354  44.138   9.752   7.671
 2553POPC   NC334355  44.074  22.086   9.714
 2553POPC   PO434356  43.569  22.546   9.619
 2553POPC   GL134357  43.766  22.322   9.266
 2553POPC   GL234358  44.127  22.329   9.280
 2553POPC   C1A34359  43.853  22.093   8.853
 2553POPC   D2A34360  43.898  22.262   8.415
 2553POPC   C3A34361  43.820  22.075   7.998
 2553POPC   C4A34362  43.456  21.939   7.781
 2553POPC   C1B34363  44.327  22.276   8.908
 2553POPC   C2B34364  44.355  22.499   8.538
 2553POPC   C3B34365  44.253  22.595   8.156
 2553POPC   C4B34366  44.237  22.332   7.782
 2554POPC   NC334367  35.609  11.099   9.452
 2554POPC   PO434368  35.333  11.769   9.429
 2554POPC   GL134369  35.472  11.484   9.131
 2554POPC   GL234370  35.257  11.201   9.067
 2554POPC   C1A34371  35.626  11.368   8.743
 2554POPC   D2A34372  35.710  11.527   8.358
 2554POPC   C3A34373  35.344  11.411   8.160
 2554POPC   C4A34374  35.165  11.271   7.813
 2554POPC   C1B34375  35.080  11.056   8.666
 2554POPC   C2B34376  35.113  10.868   8.225
 2554POPC   C3B34377  34.861  10.874   7.808
 2554POPC   C4B34378  34.889  11.188   7.398
 2555POPC   NC334379  42.211   0.810   9.566
 2555POPC   PO434380  42.787   0.659   9.449
 2555POPC   GL134381  42.605   0.652   9.031
 2555POPC   GL234382  42.310   0.515   9.160
 2555POPC   C1A34383  42.550   0.570   8.542
 2555POPC   D2A34384  42.184   0.660   8.310
 2555POPC   C3A34385  42.284   0.573   7.903
 2555POPC   C4A34386  42.562   0.601   7.576
 2555POPC   C1B34387  42.152   0.391   8.782
 2555POPC   C2B34388  42.213   0.123   8.428
 2555POPC   C3B34389  42.125   0.061   7.999
 2555POPC   C4B34390  42.278   0.130   7.591
 2556POPC   NC334391  13.245   5.976   9.482
 2556POPC   PO434392  13.890   6.023   9.473
 2556POPC   GL134393  13.691   6.121   9.101
 2556POPC   GL234394  13.570   5.786   9.126
 2556POPC   C1A34395  13.835   6.055   8.670
 2556POPC   D2A34396  13.768   6.155   8.222
 2556POPC   C3A34397  13.778   5.858   7.882
 2556POPC   C4A34398  14.073   6.063   7.591
 2556POPC   C1B34399  13.314   5.867   8.801
 2556POPC   C2B34400  13.470   5.780   8.408
 2556POPC   C3B34401  13.289   5.888   8.064
 2556POPC   C4B34402  13.239   5.797   7.647
 2557POPC   NC334403  31.045  31.295   9.434
 2557POPC   PO434404  30.431  31.587   9.491
 2557POPC   GL134405  30.658  31.518   9.129
 2557POPC   GL234406  30.600  31.816   9.007
 2557POPC   C1A34407  30.757  31.433   8.699
 2557POPC   D2A34408  30.728  31.164   8.343
 2557POPC   C3A34409  30.830  31.348   7.920
 2557POPC   C4A34410  30.754  31.569   7.503
 2557POPC   C1B34411  30.673  31.936   8.628
 2557POPC   C2B34412  30.750  31.769   8.239
 2557POPC   C3B34413  30.486  31.848   7.893
 2557POPC   C4B34414  30.573  32.218   7.656
 2558POPC   NC334415  28.421   2.642   9.657
 2558POPC   PO434416  28.558   3.265   9.518
 2558POPC   GL134417  28.364   2.956   9.175
 2558POPC   GL234418  28.323   2.581   9.185
 2558POPC   C1A34419  28.181   2.791   8.759
 2558POPC   D2A34420  28.065   2.718   8.325
 2558POPC   C3A34421  28.371   2.911   8.075
 2558POPC   C4A34422  28.248   3.067   7.712
 2558POPC   C1B34423  28.474   2.383   8.905
 2558POPC   C2B34424  28.419   2.383   8.509
 2558POPC   C3B34425  28.431   2.398   8.084
 2558POPC   C4B34426  28.160   2.551   7.766
 2559POPC   NC334427  19.991  21.180   9.477
 2559POPC   PO434428  19.879  21.826   9.378
 2559POPC   GL134429  19.963  21.492   9.071
 2559POPC   GL234430  20.234  21.232   9.051
 2559POPC   C1A34431  19.795  21.488   8.689
 2559POPC   D2A34432  19.541  21.497   8.323
 2559POPC   C3A34433  19.819  21.593   7.975
 2559POPC   C4A34434  20.138  21.410   7.703
 2559POPC   C1B34435  19.974  20.965   8.832
 2559POPC   C2B34436  19.780  21.033   8.474
 2559POPC   C3B34437  19.844  21.097   8.089
 2559POPC   C4B34438  19.851  20.982   7.691
 2560POPC   NC334439   4.704  41.568   9.470
 2560POPC   PO434440   4.138  41.893   9.676
 2560POPC   GL134441   4.181  41.864   9.194
 2560POPC   GL234442   4.470  41.706   9.037
 2560POPC   C1A34443   4.010  41.710   8.781
 2560POPC   D2A34444   4.025  41.347   8.484
 2560POPC   C3A34445   4.232  41.337   8.062
 2560POPC   C4A34446   4.136  41.690   7.805
 2560POPC   C1B34447   4.439  41.953   8.667
 2560POPC   C2B34448   4.430  41.755   8.284
 2560POPC   C3B34449   4.632  41.777   7.879
 2560POPC   C4B34450   4.682  41.595   7.467
 2561POPC   NC334451   0.312  34.709   9.540
 2561POPC   PO434452   0.328  35.403   9.556
 2561POPC   GL134453   0.542  35.349   9.151
 2561POPC   GL234454   0.593  34.980   9.165
 2561POPC   C1A34455   0.510  35.539   8.724
 2561POPC   D2A34456   0.321  35.484   8.323
 2561POPC   C3A34457   0.531  35.526   7.953
 2561POPC   C4A34458   0.394  35.432   7.555
 2561POPC   C1B34459   0.350  35.012   8.782
 2561POPC   C2B34460   0.462  34.992   8.335
 2561POPC   C3B34461   0.329  35.050   7.898
 2561POPC   C4B34462   0.518  34.922   7.484
 2562POPC   NC334463   9.186  24.083   9.356
 2562POPC   PO434464   8.953  24.716   9.489
 2562POPC   GL134465   9.103  24.515   9.119
 2562POPC   GL234466   8.779  24.325   9.150
 2562POPC   C1A34467   9.216  24.303   8.698
 2562POPC   D2A34468   9.310  24.287   8.219
 2562POPC   C3A34469   9.180  24.610   7.916
 2562POPC   C4A34470   9.160  24.729   7.458
 2562POPC   C1B34471   8.760  24.595   8.773
 2562POPC   C2B34472   8.850  24.481   8.340
 2562POPC   C3B34473   8.790  24.256   7.959
 2562POPC   C4B34474   8.703  24.609   7.689
 2563POPC   NC334475  40.065  20.375   9.509
 2563POPC   PO434476  40.010  19.692   9.496
 2563POPC   GL134477  39.907  19.718   9.092
 2563POPC   GL234478  40.230  19.802   8.940
 2563POPC   C1A34479  39.757  19.953   8.757
 2563POPC   D2A34480  39.668  19.785   8.359
 2563POPC   C3A34481  39.960  19.870   8.016
 2563POPC   C4A34482  39.949  19.811   7.585
 2563POPC   C1B34483  40.204  19.889   8.486
 2563POPC   C2B34484  40.464  20.018   8.131
 2563POPC   C3B34485  40.555  19.837   7.764
 2563POPC   C4B34486  40.409  19.852   7.341
 2564POPC   NC334487  37.720   0.340   9.544
 2564POPC   PO434488  37.515   1.032   9.561
 2564POPC   GL134489  37.510   0.709   9.263
 2564POPC   GL234490  37.840   0.634   9.099
 2564POPC   C1A34491  37.364   0.687   8.832
 2564POPC   D2A34492  37.651   0.537   8.506
 2564POPC   C3A34493  37.508   0.504   8.098
 2564POPC   C4A34494  37.336   0.581   7.722
 2564POPC   C1B34495  37.875   0.209   8.845
 2564POPC   C2B34496  37.833  44.971   8.425
 2564POPC   C3B34497  37.866   0.159   7.989
 2564POPC   C4B34498  37.917   0.524   7.726
 2565POPC   NC334499   7.062  20.344   9.460
 2565POPC   PO434500   6.626  19.831   9.596
 2565POPC   GL134501   6.693  20.052   9.242
 2565POPC   GL234502   6.365  20.014   9.161
 2565POPC   C1A34503   6.786  20.016   8.819
 2565POPC   D2A34504   6.530  20.134   8.480
 2565POPC   C3A34505   6.715  20.163   8.083
 2565POPC   C4A34506   6.924  19.819   7.848
 2565POPC   C1B34507   6.317  19.755   8.852
 2565POPC   C2B34508   6.431  19.597   8.492
 2565POPC   C3B34509   6.503  19.713   8.112
 2565POPC   C4B34510   6.341  19.785   7.711
 2566POPC   NC334511   0.996   4.623   9.546
 2566POPC   PO434512   1.459   4.121   9.404
 2566POPC   GL134513   1.188   4.261   9.098
 2566POPC   GL234514   1.431   4.451   8.950
 2566POPC   C1A34515   0.979   4.440   8.731
 2566POPC   D2A34516   0.841   4.490   8.334
 2566POPC   C3A34517   1.059   4.667   8.003
 2566POPC   C4A34518   1.377   4.461   7.740
 2566POPC   C1B34519   1.447   4.390   8.502
 2566POPC   C2B34520   1.264   4.146   8.165
 2566POPC   C3B34521   1.471   3.960   7.777
 2566POPC   C4B34522   1.583   4.174   7.357
 2567POPC   NC334523   8.733  34.984   9.493
 2567POPC   PO434524   8.520  34.318   9.461
 2567POPC   GL134525   8.761  34.586   9.111
 2567POPC   GL234526   9.089  34.768   9.106
 2567POPC   C1A34527   8.905  34.624   8.657
 2567POPC   D2A34528   9.074  34.887   8.329
 2567POPC   C3A34529   9.120  34.581   8.018
 2567POPC   C4A34530   8.756  34.350   7.864
 2567POPC   C1B34531   8.844  35.084   8.843
 2567POPC   C2B34532   8.593  35.069   8.463
 2567POPC   C3B34533   8.645  34.856   8.039
 2567POPC   C4B34534   8.540  35.049   7.649
 2568POPC   NC334535   7.128  11.769   9.391
 2568POPC   PO434536   6.489  11.986   9.752
 2568POPC   GL134537   6.569  11.931   9.276
 2568POPC   GL234538   6.789  12.201   9.187
 2568POPC   C1A34539   6.473  12.071   8.810
 2568POPC   D2A34540   6.638  12.343   8.449
 2568POPC   C3A34541   6.529  12.188   8.019
 2568POPC   C4A34542   6.435  11.856   7.714
 2568POPC   C1B34543   6.981  12.170   8.786
 2568POPC   C2B34544   7.191  12.193   8.409
 2568POPC   C3B34545   7.070  12.300   7.982
 2568POPC   C4B34546   6.890  12.082   7.646
 2569POPC   NC334547  32.034   7.425   9.473
 2569POPC   PO434548  32.517   7.898   9.262
 2569POPC   GL134549  32.285   7.560   9.062
 2569POPC   GL234550  32.179   7.189   9.023
 2569POPC   C1A34551  32.017   7.591   8.747
 2569POPC   D2A34552  32.220   7.647   8.372
 2569POPC   C3A34553  32.034   7.582   7.990
 2569POPC   C4A34554  31.991   7.377   7.572
 2569POPC   C1B34555  32.447   6.936   8.752
 2569POPC   C2B34556  32.638   6.961   8.324
 2569POPC   C3B34557  32.544   7.351   8.093
 2569POPC   C4B34558  32.440   7.537   7.697
 2570POPC   NC334559  19.647  28.400   9.581
 2570POPC   PO434560  20.298  28.181   9.375
 2570POPC   GL134561  19.915  28.168   9.211
 2570POPC   GL234562  19.882  28.528   9.145
 2570POPC   C1A34563  19.908  28.169   8.788
 2570POPC   D2A34564  19.794  28.317   8.399
 2570POPC   C3A34565  20.028  28.242   8.057
 2570POPC   C4A34566  19.965  28.388   7.672
 2570POPC   C1B34567  20.033  28.692   8.771
 2570POPC   C2B34568  20.183  28.653   8.360
 2570POPC   C3B34569  19.987  28.805   8.005
 2570POPC   C4B34570  20.183  28.977   7.666
 2571POPC   NC334571  22.646   7.877   9.545
 2571POPC   PO434572  22.790   7.123   9.577
 2571POPC   GL134573  22.944   7.134   9.175
 2571POPC   GL234574  23.144   6.821   9.194
 2571POPC   C1A34575  22.963   7.460   8.848
 2571POPC   D2A34576  22.816   7.605   8.419
 2571POPC   C3A34577  23.095   7.631   8.040
 2571POPC   C4A34578  22.976   7.765   7.601
 2571POPC   C1B34579  23.268   7.002   8.804
 2571POPC   C2B34580  23.064   7.157   8.445
 2571POPC   C3B34581  23.198   7.140   8.039
 2571POPC   C4B34582  23.113   7.279   7.647
 2572POPC   NC334583  35.587  44.415   9.549
 2572POPC   PO434584  36.249  44.737   9.470
 2572POPC   GL134585  36.064  44.558   9.114
 2572POPC   GL234586  36.350  44.692   8.962
 2572POPC   C1A34587  35.889  44.658   8.701
 2572POPC   D2A34588  35.912  44.442   8.303
 2572POPC   C3A34589  35.967  44.703   7.936
 2572POPC   C4A34590  36.027  44.564   7.526
 2572POPC   C1B34591  36.345  44.411   8.634
 2572POPC   C2B34592  36.416  44.562   8.216
 2572POPC   C3B34593  36.342  44.330   7.865
 2572POPC   C4B34594  36.354  44.134   7.474
 2573POPC   NC334595  28.915   2.159   9.494
 2573POPC   PO434596  29.376   1.776   9.407
 2573POPC   GL134597  29.279   2.079   9.141
 2573POPC   GL234598  28.992   1.932   9.057
 2573POPC   C1A34599  29.370   2.091   8.730
 2573POPC   D2A34600  29.424   1.791   8.410
 2573POPC   C3A34601  29.235   1.874   8.056
 2573POPC   C4A34602  29.239   1.928   7.660
 2573POPC   C1B34603  28.870   2.155   8.707
 2573POPC   C2B34604  29.069   2.260   8.337
 2573POPC   C3B34605  28.922   2.277   7.942
 2573POPC   C4B34606  28.997   2.407   7.540
 2574POPC   NC334607  25.659   9.222   9.512
 2574POPC   PO434608  26.162   8.812   9.513
 2574POPC   GL134609  25.969   8.826   9.128
 2574POPC   GL234610  26.052   9.182   9.138
 2574POPC   C1A34611  26.064   8.708   8.695
 2574POPC   D2A34612  26.363   8.739   8.355
 2574POPC   C3A34613  26.171   8.823   7.931
 2574POPC   C4A34614  26.171   9.215   7.687
 2574POPC   C1B34615  25.755   9.161   8.803
 2574POPC   C2B34616  25.905   9.101   8.380
 2574POPC   C3B34617  25.821   9.340   8.033
 2574POPC   C4B34618  25.728   9.480   7.633
 2575POPC   NC334619  36.831  35.272   9.624
 2575POPC   PO434620  36.700  35.724   9.223
 2575POPC   GL134621  36.965  35.522   8.975
 2575POPC   GL234622  37.071  35.171   9.108
 2575POPC   C1A34623  36.857  35.600   8.545
 2575POPC   D2A34624  36.497  35.612   8.288
 2575POPC   C3A34625  36.699  35.632   7.908
 2575POPC   C4A34626  37.150  35.740   7.818
 2575POPC   C1B34627  37.179  35.198   8.644
 2575POPC   C2B34628  37.226  35.365   8.210
 2575POPC   C3B34629  37.021  35.252   7.833
 2575POPC   C4B34630  36.758  34.922   7.782
 2576POPC   NC334631  31.946  37.103   9.464
 2576POPC   PO434632  32.440  36.788   9.744
 2576POPC   GL134633  32.428  36.729   9.285
 2576POPC   GL234634  32.546  37.024   9.121
 2576POPC   C1A34635  32.325  36.657   8.833
 2576POPC   D2A34636  32.010  36.768   8.520
 2576POPC   C3A34637  31.985  36.612   8.083
 2576POPC   C4A34638  32.162  36.778   7.723
 2576POPC   C1B34639  32.301  37.163   8.738
 2576POPC   C2B34640  32.351  37.073   8.304
 2576POPC   C3B34641  32.351  37.226   7.906
 2576POPC   C4B34642  32.090  37.269   7.588
 2577POPC   NC334643  40.809  23.311   9.535
 2577POPC   PO434644  40.560  22.768   9.498
 2577POPC   GL134645  40.469  22.816   9.067
 2577POPC   GL234646  40.741  23.055   9.079
 2577POPC   C1A34647  40.497  22.838   8.583
 2577POPC   D2A34648  40.793  22.865   8.201
 2577POPC   C3A34649  40.731  22.665   7.783
 2577POPC   C4A34650  41.023  22.667   7.400
 2577POPC   C1B34651  40.803  23.271   8.708
 2577POPC   C2B34652  40.637  23.328   8.326
 2577POPC   C3B34653  40.922  23.421   7.971
 2577POPC   C4B34654  41.015  23.078   7.698
 2578POPC   NC334655  12.479  14.140   9.452
 2578POPC   PO434656  11.937  14.511   9.461
 2578POPC   GL134657  12.162  14.360   9.136
 2578POPC   GL234658  11.913  14.131   9.071
 2578POPC   C1A34659  12.344  14.146   8.772
 2578POPC   D2A34660  12.493  14.238   8.358
 2578POPC   C3A34661  12.348  14.459   7.964
 2578POPC   C4A34662  12.229  14.415   7.534
 2578POPC   C1B34663  11.922  14.421   8.706
 2578POPC   C2B34664  11.984  14.280   8.294
 2578POPC   C3B34665  11.824  14.308   7.876
 2578POPC   C4B34666  11.715  13.916   7.704
 2579POPC   NC334667  26.835  11.224  10.114
 2579POPC   PO434668  26.614  11.459   9.548
 2579POPC   GL134669  26.495  11.374   9.132
 2579POPC   GL234670  26.827  11.318   9.082
 2579POPC   C1A34671  26.511  11.169   8.689
 2579POPC   D2A34672  26.738  10.903   8.378
 2579POPC   C3A34673  26.713  11.181   8.065
 2579POPC   C4A34674  26.467  11.467   7.843
 2579POPC   C1B34675  27.104  11.437   8.765
 2579POPC   C2B34676  27.155  11.239   8.380
 2579POPC   C3B34677  27.156  11.384   7.948
 2579POPC   C4B34678  26.967  11.211   7.551
 2580POPC   NC334679  15.964  38.379   9.780
 2580POPC   PO434680  16.269  38.873   9.590
 2580POPC   GL134681  15.908  38.690   9.350
 2580POPC   GL234682  15.988  38.320   9.243
 2580POPC   C1A34683  15.672  38.625   8.959
 2580POPC   D2A34684  15.947  38.561   8.601
 2580POPC   C3A34685  15.829  38.439   8.202
 2580POPC   C4A34686  15.640  38.631   7.836
 2580POPC   C1B34687  15.895  38.108   8.837
 2580POPC   C2B34688  16.073  37.944   8.441
 2580POPC   C3B34689  16.208  38.070   8.026
 2580POPC   C4B34690  16.172  38.471   7.813
 2581POPC   NC334691  19.739   6.872   9.593
 2581POPC   PO434692  19.947   6.275   9.479
 2581POPC   GL134693  19.997   6.479   9.115
 2581POPC   GL234694  20.066   6.810   9.205
 2581POPC   C1A34695  20.075   6.332   8.704
 2581POPC   D2A34696  19.985   6.429   8.272
 2581POPC   C3A34697  19.651   6.298   8.005
 2581POPC   C4A34698  19.864   6.490   7.652
 2581POPC   C1B34699  19.814   6.843   8.807
 2581POPC   C2B34700  19.591   6.787   8.427
 2581POPC   C3B34701  19.660   6.804   8.004
 2581POPC   C4B34702  19.546   6.886   7.570
 2582POPC   NC334703  23.484  27.157   9.483
 2582POPC   PO434704  23.884  27.614   9.490
 2582POPC   GL134705  23.658  27.654   9.132
 2582POPC   GL234706  23.481  27.371   9.003
 2582POPC   C1A34707  23.869  27.735   8.763
 2582POPC   D2A34708  23.770  27.476   8.459
 2582POPC   C3A34709  23.952  27.516   8.083
 2582POPC   C4A34710  23.754  27.669   7.774
 2582POPC   C1B34711  23.359  27.728   8.705
 2582POPC   C2B34712  23.341  27.697   8.248
 2582POPC   C3B34713  23.255  27.621   7.814
 2582POPC   C4B34714  23.432  27.599   7.373
 2583POPC   NC334715  22.310  44.296   9.376
 2583POPC   PO434716  21.852  43.762   9.488
 2583POPC   GL134717  22.231  43.803   9.223
 2583POPC   GL234718  22.526  43.728   9.420
 2583POPC   C1A34719  22.297  44.003   8.795
 2583POPC   D2A34720  22.033  43.849   8.444
 2583POPC   C3A34721  22.233  43.899   8.058
 2583POPC   C4A34722  22.182  43.978   7.654
 2583POPC   C1B34723  22.621  43.605   8.955
 2583POPC   C2B34724  22.570  43.675   8.519
 2583POPC   C3B34725  22.609  43.522   8.119
 2583POPC   C4B34726  22.458  43.555   7.723
 2584POPC   NC334727   2.486  25.535   9.473
 2584POPC   PO434728   2.988  25.095   9.497
 2584POPC   GL134729   2.784  25.222   9.168
 2584POPC   GL234730   2.901  25.584   9.130
 2584POPC   C1A34731   2.949  25.078   8.777
 2584POPC   D2A34732   2.951  24.775   8.429
 2584POPC   C3A34733   2.643  24.902   8.114
 2584POPC   C4A34734   2.573  25.040   7.693
 2584POPC   C1B34735   2.613  25.518   8.796
 2584POPC   C2B34736   2.683  25.295   8.423
 2584POPC   C3B34737   2.733  25.409   8.023
 2584POPC   C4B34738   2.480  25.646   7.781
 2585POPC   NC334739   1.585  25.550   9.458
 2585POPC   PO434740   2.188  25.147   9.495
 2585POPC   GL134741   2.012  25.380   9.177
 2585POPC   GL234742   1.728  25.177   9.074
 2585POPC   C1A34743   2.139  25.322   8.745
 2585POPC   D2A34744   2.202  25.082   8.372
 2585POPC   C3A34745   2.218  25.258   7.956
 2585POPC   C4A34746   2.183  25.267   7.456
 2585POPC   C1B34747   1.677  25.549   8.807
 2585POPC   C2B34748   1.799  25.507   8.404
 2585POPC   C3B34749   1.749  25.204   8.117
 2585POPC   C4B34750   1.769  25.390   7.718
 2586POPC   NC334751   9.389  17.275   9.606
 2586POPC   PO434752   9.466  16.671   9.547
 2586POPC   GL134753   9.540  16.658   9.117
 2586POPC   GL234754   9.874  16.788   9.150
 2586POPC   C1A34755   9.564  16.856   8.726
 2586POPC   D2A34756   9.663  16.943   8.315
 2586POPC   C3A34757   9.672  16.652   7.945
 2586POPC   C4A34758   9.376  16.448   7.658
 2586POPC   C1B34759   9.976  17.145   8.813
 2586POPC   C2B34760  10.126  17.197   8.363
 2586POPC   C3B34761   9.978  17.081   7.942
 2586POPC   C4B34762   9.953  16.883   7.542
 2587POPC   NC334763  24.211  41.941   9.502
 2587POPC   PO434764  23.557  41.538   9.594
 2587POPC   GL134765  23.762  41.706   9.260
 2587POPC   GL234766  24.030  41.514   9.214
 2587POPC   C1A34767  23.595  41.615   8.868
 2587POPC   D2A34768  23.389  41.834   8.524
 2587POPC   C3A34769  23.480  41.536   8.193
 2587POPC   C4A34770  23.601  41.436   7.784
 2587POPC   C1B34771  24.115  41.718   8.842
 2587POPC   C2B34772  23.903  41.746   8.473
 2587POPC   C3B34773  23.980  41.602   8.102
 2587POPC   C4B34774  24.098  41.622   7.722
 2588POPC   NC334775   0.590  42.121   9.520
 2588POPC   PO434776   0.609  41.431   9.618
 2588POPC   GL134777   0.434  41.564   9.217
 2588POPC   GL234778   0.188  41.874   9.259
 2588POPC   C1A34779   0.564  41.685   8.807
 2588POPC   D2A34780   0.727  41.649   8.391
 2588POPC   C3A34781   0.556  41.387   8.095
 2588POPC   C4A34782   0.593  41.645   7.743
 2588POPC   C1B34783   0.063  41.642   8.874
 2588POPC   C2B34784   0.187  41.492   8.461
 2588POPC   C3B34785   0.158  41.700   8.063
 2588POPC   C4B34786   0.112  41.515   7.673
 2589POPC   NC334787  27.126   9.582   9.496
 2589POPC   PO434788  26.561   9.985   9.548
 2589POPC   GL134789  26.658   9.892   9.141
 2589POPC   GL234790  27.018   9.900   9.013
 2589POPC   C1A34791  26.632  10.029   8.727
 2589POPC   D2A34792  26.973  10.015   8.444
 2589POPC   C3A34793  26.785  10.026   8.056
 2589POPC   C4A34794  26.819   9.988   7.633
 2589POPC   C1B34795  26.871   9.570   8.744
 2589POPC   C2B34796  27.000   9.500   8.304
 2589POPC   C3B34797  26.802   9.538   7.888
 2589POPC   C4B34798  26.902   9.548   7.407
 2590POPC   NC334799  33.881  19.102   9.544
 2590POPC   PO434800  33.350  18.916   9.294
 2590POPC   GL134801  33.756  19.052   9.046
 2590POPC   GL234802  34.092  18.902   9.121
 2590POPC   C1A34803  33.869  18.935   8.628
 2590POPC   D2A34804  33.518  18.806   8.370
 2590POPC   C3A34805  33.457  19.036   8.047
 2590POPC   C4A34806  33.543  18.974   7.641
 2590POPC   C1B34807  34.203  18.590   8.809
 2590POPC   C2B34808  34.286  18.680   8.407
 2590POPC   C3B34809  33.975  18.818   8.095
 2590POPC   C4B34810  34.058  19.051   7.738
 2591POPC   NC334811  20.413   6.135   9.542
 2591POPC   PO434812  20.927   6.668   9.495
 2591POPC   GL134813  20.867   6.421   9.145
 2591POPC   GL234814  20.500   6.428   9.115
 2591POPC   C1A34815  20.795   6.541   8.703
 2591POPC   D2A34816  20.499   6.569   8.355
 2591POPC   C3A34817  20.671   6.764   7.995
 2591POPC   C4A34818  20.871   6.472   7.761
 2591POPC   C1B34819  20.341   6.759   8.798
 2591POPC   C2B34820  20.119   6.913   8.396
 2591POPC   C3B34821  20.164   6.821   7.951
 2591POPC   C4B34822  20.369   7.045   7.601
 2592POPC   NC334823  15.076  35.681   9.489
 2592POPC   PO434824  14.895  35.060   9.711
 2592POPC   GL134825  15.001  35.235   9.244
 2592POPC   GL234826  14.818  35.514   9.068
 2592POPC   C1A34827  15.221  35.388   8.793
 2592POPC   D2A34828  15.074  35.476   8.338
 2592POPC   C3A34829  15.227  35.477   7.882
 2592POPC   C4A34830  15.046  35.595   7.470
 2592POPC   C1B34831  14.781  35.136   8.798
 2592POPC   C2B34832  14.957  34.964   8.430
 2592POPC   C3B34833  14.975  35.045   8.009
 2592POPC   C4B34834  14.983  35.095   7.577
 2593POPC   NC334835   0.458   7.693   9.622
 2593POPC   PO434836   0.436   7.038   9.592
 2593POPC   GL134837   0.343   7.329   9.262
 2593POPC   GL234838   0.634   7.392   9.154
 2593POPC   C1A34839   0.177   7.444   8.833
 2593POPC   D2A34840   0.338   7.425   8.382
 2593POPC   C3A34841   0.333   7.357   7.923
 2593POPC   C4A34842   0.101   7.075   7.659
 2593POPC   C1B34843   0.682   7.548   8.762
 2593POPC   C2B34844   0.847   7.348   8.413
 2593POPC   C3B34845   0.865   7.246   8.019
 2593POPC   C4B34846   0.775   7.325   7.602
 2594POPC   NC334847  40.438  42.411   9.666
 2594POPC   PO434848  41.059  42.109   9.549
 2594POPC   GL134849  40.846  42.392   9.218
 2594POPC   GL234850  40.488  42.371   9.155
 2594POPC   C1A34851  40.768  42.596   8.792
 2594POPC   D2A34852  40.952  42.347   8.490
 2594POPC   C3A34853  40.813  42.223   8.063
 2594POPC   C4A34854  40.753  42.641   7.909
 2594POPC   C1B34855  40.536  42.150   8.756
 2594POPC   C2B34856  40.428  41.937   8.360
 2594POPC   C3B34857  40.244  41.816   7.953
 2594POPC   C4B34858  40.483  41.974   7.593
 2595POPC   NC334859  43.325  15.970   9.462
 2595POPC   PO434860  42.678  15.973   9.667
 2595POPC   GL134861  42.850  16.101   9.251
 2595POPC   GL234862  42.936  15.740   9.195
 2595POPC   C1A34863  43.095  16.095   8.834
 2595POPC   D2A34864  43.325  15.896   8.452
 2595POPC   C3A34865  43.176  16.118   8.043
 2595POPC   C4A34866  42.817  16.430   7.892
 2595POPC   C1B34867  43.041  15.576   8.795
 2595POPC   C2B34868  43.108  15.398   8.425
 2595POPC   C3B34869  42.917  15.408   8.036
 2595POPC   C4B34870  43.167  15.641   7.813
 2596POPC   NC334871  16.668   3.231   9.438
 2596POPC   PO434872  16.761   2.544   9.553
 2596POPC   GL134873  16.675   2.702   9.171
 2596POPC   GL234874  16.991   2.842   9.146
 2596POPC   C1A34875  16.809   2.523   8.762
 2596POPC   D2A34876  16.729   2.698   8.350
 2596POPC   C3A34877  16.482   2.739   7.955
 2596POPC   C4A34878  16.761   2.650   7.607
 2596POPC   C1B34879  16.824   3.067   8.799
 2596POPC   C2B34880  16.882   3.215   8.388
 2596POPC   C3B34881  16.895   3.029   7.974
 2596POPC   C4B34882  17.066   3.113   7.587
 2597POPC   NC334883  40.824   3.969   9.373
 2597POPC   PO434884  41.055   3.365   9.549
 2597POPC   GL134885  41.036   3.555   9.137
 2597POPC   GL234886  40.758   3.376   9.076
 2597POPC   C1A34887  40.793   3.750   8.751
 2597POPC   D2A34888  40.608   3.665   8.351
 2597POPC   C3A34889  40.858   3.599   8.025
 2597POPC   C4A34890  40.961   3.546   7.595
 2597POPC   C1B34891  40.705   3.198   8.680
 2597POPC   C2B34892  40.658   3.133   8.248
 2597POPC   C3B34893  40.403   3.380   7.956
 2597POPC   C4B34894  40.423   3.377   7.477
 2598POPC   NC334895   1.589  39.494   9.433
 2598POPC   PO434896   2.179  39.027   9.403
 2598POPC   GL134897   1.924  39.234   9.176
 2598POPC   GL234898   1.656  39.007   9.180
 2598POPC   C1A34899   1.936  39.423   8.782
 2598POPC   D2A34900   2.247  39.374   8.451
 2598POPC   C3A34901   2.089  39.525   8.064
 2598POPC   C4A34902   1.951  39.441   7.659
 2598POPC   C1B34903   1.821  38.919   8.794
 2598POPC   C2B34904   1.854  39.052   8.396
 2598POPC   C3B34905   1.735  38.817   8.056
 2598POPC   C4B34906   1.775  38.959   7.642
 2599POPC   NC334907  19.461  22.028   9.454
 2599POPC   PO434908  18.919  21.665   9.609
 2599POPC   GL134909  18.928  21.491   9.166
 2599POPC   GL234910  19.313  21.546   9.100
 2599POPC   C1A34911  19.022  21.448   8.694
 2599POPC   D2A34912  18.976  21.438   8.257
 2599POPC   C3A34913  19.227  21.545   7.916
 2599POPC   C4A34914  19.055  21.267   7.563
 2599POPC   C1B34915  19.416  21.146   8.824
 2599POPC   C2B34916  19.287  21.032   8.374
 2599POPC   C3B34917  19.377  21.060   7.911
 2599POPC   C4B34918  19.404  20.857   7.482
 2600POPC   NC334919  11.147   8.608   9.604
 2600POPC   PO434920  11.438   7.953   9.715
 2600POPC   GL134921  11.449   8.133   9.312
 2600POPC   GL234922  11.167   8.291   9.191
 2600POPC   C1A34923  11.467   8.000   8.881
 2600POPC   D2A34924  11.592   8.160   8.451
 2600POPC   C3A34925  11.359   8.095   8.060
 2600POPC   C4A34926  11.565   8.260   7.696
 2600POPC   C1B34927  11.335   8.502   8.810
 2600POPC   C2B34928  11.182   8.472   8.393
 2600POPC   C3B34929  11.333   8.606   7.987
 2600POPC   C4B34930  11.084   8.424   7.648
 2601POPC   NC334931  40.141   9.676   9.706
 2601POPC   PO434932  39.516  10.010   9.629
 2601POPC   GL134933  39.841   9.836   9.292
 2601POPC   GL234934  40.226   9.739   9.207
 2601POPC   C1A34935  39.837   9.849   8.838
 2601POPC   D2A34936  39.744   9.541   8.507
 2601POPC   C3A34937  39.804   9.603   8.063
 2601POPC   C4A34938  39.764   9.960   7.802
 2601POPC   C1B34939  40.340   9.854   8.767
 2601POPC   C2B34940  40.111   9.912   8.364
 2601POPC   C3B34941  40.276   9.847   7.950
 2601POPC   C4B34942  40.370   9.970   7.517
 2602POPC   NC334943  15.129  38.906   9.624
 2602POPC   PO434944  14.868  38.270   9.587
 2602POPC   GL134945  15.014  38.277   9.196
 2602POPC   GL234946  15.218  38.570   9.237
 2602POPC   C1A34947  15.103  38.124   8.796
 2602POPC   D2A34948  14.963  38.282   8.395
 2602POPC   C3A34949  15.316  38.289   8.111
 2602POPC   C4A34950  15.274  38.235   7.685
 2602POPC   C1B34951  15.052  38.652   8.829
 2602POPC   C2B34952  15.190  38.758   8.425
 2602POPC   C3B34953  14.994  38.686   8.043
 2602POPC   C4B34954  15.179  38.732   7.648
 2603POPC   NC334955   4.656  33.865   9.472
 2603POPC   PO434956   5.236  34.246   9.547
 2603POPC   GL134957   5.155  33.888   9.247
 2603POPC   GL234958   4.847  33.861   9.007
 2603POPC   C1A34959   5.314  33.793   8.827
 2603POPC   D2A34960   5.064  33.822   8.464
 2603POPC   C3A34961   5.224  33.771   8.073
 2603POPC   C4A34962   5.238  34.072   7.767
 2603POPC   C1B34963   4.800  33.478   8.756
 2603POPC   C2B34964   4.973  33.261   8.405
 2603POPC   C3B34965   4.827  33.424   8.002
 2603POPC   C4B34966   4.765  33.833   7.845
 2604POPC   NC334967   9.160  28.957   9.345
 2604POPC   PO434968   8.924  29.492   9.671
 2604POPC   GL134969   8.879  29.188   8.996
 2604POPC   GL234970   8.808  28.804   8.982
 2604POPC   C1A34971   9.183  29.348   8.646
 2604POPC   D2A34972   9.311  29.409   8.255
 2604POPC   C3A34973   9.160  29.070   8.047
 2604POPC   C4A34974   9.274  28.924   7.699
 2604POPC   C1B34975   8.966  28.911   8.538
 2604POPC   C2B34976   8.795  29.316   8.316
 2604POPC   C3B34977   8.921  29.510   7.930
 2604POPC   C4B34978   8.820  29.280   7.585
 2605POPC   NC334979   6.911   4.352   9.582
 2605POPC   PO434980   6.237   4.360   9.477
 2605POPC   GL134981   6.521   4.310   9.104
 2605POPC   GL234982   6.853   4.198   9.113
 2605POPC   C1A34983   6.563   4.009   8.731
 2605POPC   D2A34984   6.239   3.929   8.410
 2605POPC   C3A34985   6.420   4.062   7.998
 2605POPC   C4A34986   6.844   4.023   7.847
 2605POPC   C1B34987   6.883   4.468   8.761
 2605POPC   C2B34988   6.773   4.363   8.344
 2605POPC   C3B34989   7.050   4.447   8.000
 2605POPC   C4B34990   6.978   4.490   7.558
 2606POPC   NC334991  37.676  23.217   9.625
 2606POPC   PO434992  37.288  23.790   9.532
 2606POPC   GL134993  37.616  23.597   9.250
 2606POPC   GL234994  37.933  23.743   9.103
 2606POPC   C1A34995  37.605  23.440   8.823
 2606POPC   D2A34996  37.934  23.594   8.550
 2606POPC   C3A34997  37.824  23.510   8.112
 2606POPC   C4A34998  37.376  23.409   8.003
 2606POPC   C1B34999  37.653  23.946   8.801
 2606POPC   C2B35000  37.478  23.765   8.396
 2606POPC   C3B35001  37.546  23.926   7.964
 2606POPC   C4B35002  37.282  24.185   7.729
 2607POPC   NC335003  41.982  30.430   9.367
 2607POPC   PO435004  41.633  30.996   9.631
 2607POPC   GL135005  41.462  30.807   9.229
 2607POPC   GL235006  41.329  30.490   9.067
 2607POPC   C1A35007  41.389  30.962   8.810
 2607POPC   D2A35008  41.547  30.908   8.377
 2607POPC   C3A35009  41.448  30.645   8.018
 2607POPC   C4A35010  41.623  30.713   7.614
 2607POPC   C1B35011  41.666  30.528   8.769
 2607POPC   C2B35012  41.712  30.384   8.359
 2607POPC   C3B35013  41.918  30.412   7.925
 2607POPC   C4B35014  41.847  30.286   7.478
 2608POPC   NC335015  10.365  44.303   9.498
 2608POPC   PO435016  10.748  44.871   9.611
 2608POPC   GL135017  10.818  44.626   9.265
 2608POPC   GL235018  10.485  44.686   9.165
 2608POPC   C1A35019  10.884  44.420   8.887
 2608POPC   D2A35020  10.648  44.519   8.496
 2608POPC   C3A35021  10.704  44.307   8.103
 2608POPC   C4A35022  10.339  44.287   7.823
 2608POPC   C1B35023  10.541  44.915   8.801
 2608POPC   C2B35024  10.365  44.985   8.408
 2608POPC   C3B35025  10.425  44.745   8.053
 2608POPC   C4B35026  10.805  44.731   7.813
 2609POPC   NC335027   4.891  37.564   9.569
 2609POPC   PO435028   5.521  37.608   9.792
 2609POPC   GL135029   5.332  37.601   9.280
 2609POPC   GL235030   4.964  37.572   9.082
 2609POPC   C1A35031   5.299  37.830   8.843
 2609POPC   D2A35032   5.150  37.778   8.418
 2609POPC   C3A35033   5.358  37.923   8.042
 2609POPC   C4A35034   5.236  37.923   7.585
 2609POPC   C1B35035   4.783  37.906   8.803
 2609POPC   C2B35036   4.720  38.076   8.388
 2609POPC   C3B35037   4.840  37.880   7.999
 2609POPC   C4B35038   4.921  37.529   7.733
 2610POPC   NC335039  31.104  10.585   9.384
 2610POPC   PO435040  31.766  10.438   9.157
 2610POPC   GL135041  31.442  10.608   9.009
 2610POPC   GL235042  31.404  10.922   9.092
 2610POPC   C1A35043  31.347  10.418   8.650
 2610POPC   D2A35044  31.677  10.345   8.350
 2610POPC   C3A35045  31.382  10.230   8.083
 2610POPC   C4A35046  31.049  10.205   7.795
 2610POPC   C1B35047  31.475  10.921   8.617
 2610POPC   C2B35048  31.326  10.736   8.245
 2610POPC   C3B35049  31.477  10.704   7.854
 2610POPC   C4B35050  31.922  10.744   7.698
 2611POPC   NC335051  14.239  25.861   9.556
 2611POPC   PO435052  14.890  26.107   9.404
 2611POPC   GL135053  14.599  26.139   9.039
 2611POPC   GL235054  14.239  26.095   9.084
 2611POPC   C1A35055  14.423  25.882   8.673
 2611POPC   D2A35056  14.341  25.977   8.252
 2611POPC   C3A35057  14.601  25.827   7.925
 2611POPC   C4A35058  14.357  25.683   7.576
 2611POPC   C1B35059  14.093  26.307   8.706
 2611POPC   C2B35060  14.136  26.609   8.377
 2611POPC   C3B35061  14.311  26.438   8.005
 2611POPC   C4B35062  14.100  26.079   7.789
 2612POPC   NC335063  16.572  31.468   9.868
 2612POPC   PO435064  17.094  31.559   9.558
 2612POPC   GL135065  16.799  31.470   9.207
 2612POPC   GL235066  16.794  31.145   9.166
 2612POPC   C1A35067  16.915  31.384   8.731
 2612POPC   D2A35068  16.998  31.552   8.324
 2612POPC   C3A35069  16.935  31.452   7.904
 2612POPC   C4A35070  16.709  31.520   7.513
 2612POPC   C1B35071  16.537  31.061   8.775
 2612POPC   C2B35072  16.611  31.139   8.283
 2612POPC   C3B35073  16.608  31.079   7.802
 2612POPC   C4B35074  16.312  31.186   7.447
 2613POPC   NC335075  30.138   8.686   9.466
 2613POPC   PO435076  30.115   7.916   9.619
 2613POPC   GL135077  30.227   8.028   9.152
 2613POPC   GL235078  30.068   8.391   9.005
 2613POPC   C1A35079  30.048   7.837   8.754
 2613POPC   D2A35080  29.769   7.823   8.374
 2613POPC   C3A35081  29.920   8.078   8.041
 2613POPC   C4A35082  29.801   8.192   7.630
 2613POPC   C1B35083  29.717   8.625   8.711
 2613POPC   C2B35084  29.549   8.781   8.279
 2613POPC   C3B35085  29.767   8.668   7.866
 2613POPC   C4B35086  30.189   8.515   7.844
 2614POPC   NC335087  18.731   7.996   9.464
 2614POPC   PO435088  18.202   8.335   9.668
 2614POPC   GL135089  18.346   8.259   9.238
 2614POPC   GL235090  18.026   8.223   9.139
 2614POPC   C1A35091  18.371   8.244   8.774
 2614POPC   D2A35092  18.277   7.996   8.389
 2614POPC   C3A35093  18.408   8.155   8.003
 2614POPC   C4A35094  18.650   8.173   7.624
 2614POPC   C1B35095  17.931   7.965   8.791
 2614POPC   C2B35096  17.775   7.999   8.362
 2614POPC   C3B35097  17.889   8.045   7.959
 2614POPC   C4B35098  18.086   8.145   7.597
 2615POPC   NC335099  26.362  11.851   9.494
 2615POPC   PO435100  25.896  12.334   9.651
 2615POPC   GL135101  25.868  12.330   9.216
 2615POPC   GL235102  26.180  12.220   9.187
 2615POPC   C1A35103  25.863  12.233   8.771
 2615POPC   D2A35104  25.984  11.996   8.394
 2615POPC   C3A35105  25.877  12.134   7.959
 2615POPC   C4A35106  26.106  12.213   7.575
 2615POPC   C1B35107  26.370  12.105   8.802
 2615POPC   C2B35108  26.511  12.048   8.379
 2615POPC   C3B35109  26.393  11.968   7.934
 2615POPC   C4B35110  26.493  11.872   7.488
 2616POPC   NC335111   1.311  27.802   9.593
 2616POPC   PO435112   0.949  27.303   9.258
 2616POPC   GL135113   1.050  27.673   9.154
 2616POPC   GL235114   1.387  27.631   9.118
 2616POPC   C1A35115   1.031  27.727   8.731
 2616POPC   D2A35116   1.180  27.722   8.345
 2616POPC   C3A35117   0.915  27.545   8.022
 2616POPC   C4A35118   1.069  27.770   7.695
 2616POPC   C1B35119   1.407  27.369   8.740
 2616POPC   C2B35120   1.509  27.341   8.320
 2616POPC   C3B35121   1.396  27.424   7.904
 2616POPC   C4B35122   1.638  27.390   7.552
 2617POPC   NC335123  38.793  12.496   9.398
 2617POPC   PO435124  38.372  12.992   9.485
 2617POPC   GL135125  38.392  12.860   9.101
 2617POPC   GL235126  38.325  12.538   9.142
 2617POPC   C1A35127  38.298  13.049   8.723
 2617POPC   D2A35128  38.414  12.906   8.346
 2617POPC   C3A35129  38.578  13.199   8.059
 2617POPC   C4A35130  38.461  13.004   7.695
 2617POPC   C1B35131  38.349  12.498   8.724
 2617POPC   C2B35132  38.256  12.333   8.361
 2617POPC   C3B35133  38.316  12.525   7.995
 2617POPC   C4B35134  38.092  12.637   7.668
 2618POPC   NC335135  33.620  20.066   9.503
 2618POPC   PO435136  34.307  20.134   9.718
 2618POPC   GL135137  34.073  19.951   9.285
 2618POPC   GL235138  33.831  19.653   9.249
 2618POPC   C1A35139  33.908  19.958   8.828
 2618POPC   D2A35140  33.991  19.733   8.399
 2618POPC   C3A35141  33.962  19.914   7.962
 2618POPC   C4A35142  33.732  19.886   7.560
 2618POPC   C1B35143  33.612  19.531   8.853
 2618POPC   C2B35144  33.639  19.346   8.433
 2618POPC   C3B35145  33.796  19.418   8.014
 2618POPC   C4B35146  33.526  19.455   7.672
 2619POPC   NC335147  34.293  25.744   9.421
 2619POPC   PO435148  34.852  26.069   9.564
 2619POPC   GL135149  34.659  26.220   9.165
 2619POPC   GL235150  34.301  26.227   9.205
 2619POPC   C1A35151  34.811  26.170   8.743
 2619POPC   D2A35152  34.597  26.193   8.358
 2619POPC   C3A35153  34.814  26.059   8.007
 2619POPC   C4A35154  34.720  25.903   7.628
 2619POPC   C1B35155  34.306  26.015   8.797
 2619POPC   C2B35156  34.297  25.784   8.407
 2619POPC   C3B35157  34.329  25.898   7.967
 2619POPC   C4B35158  34.275  25.515   7.741
 2620POPC   NC335159  38.440  35.134   9.475
 2620POPC   PO435160  38.208  35.784   9.597
 2620POPC   GL135161  38.315  35.589   9.189
 2620POPC   GL235162  38.014  35.392   9.229
 2620POPC   C1A35163  38.565  35.463   8.782
 2620POPC   D2A35164  38.631  35.280   8.347
 2620POPC   C3A35165  38.506  35.520   7.963
 2620POPC   C4A35166  38.526  35.580   7.498
 2620POPC   C1B35167  38.121  35.201   8.832
 2620POPC   C2B35168  38.143  35.085   8.413
 2620POPC   C3B35169  38.231  35.086   7.998
 2620POPC   C4B35170  38.087  35.357   7.673
 2621POPC   NC335171  32.776  23.936   9.325
 2621POPC   PO435172  33.375  23.654   9.580
 2621POPC   GL135173  33.267  23.875   9.238
 2621POPC   GL235174  33.069  23.601   9.090
 2621POPC   C1A35175  33.195  24.001   8.813
 2621POPC   D2A35176  33.220  23.662   8.517
 2621POPC   C3A35177  33.190  23.690   8.109
 2621POPC   C4A35178  33.117  23.831   7.698
 2621POPC   C1B35179  32.764  23.750   8.732
 2621POPC   C2B35180  32.790  23.918   8.307
 2621POPC   C3B35181  32.687  23.690   7.905
 2621POPC   C4B35182  32.752  23.576   7.427
 2622POPC   NC335183  10.965  33.870   9.602
 2622POPC   PO435184  11.380  33.433   9.596
 2622POPC   GL135185  11.311  33.646   9.201
 2622POPC   GL235186  11.233  33.983   9.181
 2622POPC   C1A35187  11.403  33.623   8.756
 2622POPC   D2A35188  11.349  33.848   8.354
 2622POPC   C3A35189  11.491  33.735   7.968
 2622POPC   C4A35190  11.315  33.568   7.625
 2622POPC   C1B35191  11.122  34.060   8.759
 2622POPC   C2B35192  11.129  34.307   8.360
 2622POPC   C3B35193  11.215  34.167   7.931
 2622POPC   C4B35194  11.154  34.098   7.479
 2623POPC   NC335195  38.584  32.613   9.619
 2623POPC   PO435196  38.152  32.155   9.399
 2623POPC   GL135197  38.350  32.355   9.073
 2623POPC   GL235198  38.707  32.447   9.142
 2623POPC   C1A35199  38.345  32.344   8.617
 2623POPC   D2A35200  38.364  32.412   8.186
 2623POPC   C3A35201  38.533  32.078   7.936
 2623POPC   C4A35202  38.745  32.247   7.593
 2623POPC   C1B35203  38.755  32.115   8.811
 2623POPC   C2B35204  38.819  32.216   8.382
 2623POPC   C3B35205  38.864  32.493   8.028
 2623POPC   C4B35206  39.038  32.689   7.659
 2624POPC   NC335207  31.711  20.426   9.404
 2624POPC   PO435208  31.088  20.686   9.521
 2624POPC   GL135209  31.290  20.615   9.158
 2624POPC   GL235210  31.304  20.262   9.133
 2624POPC   C1A35211  31.511  20.788   8.783
 2624POPC   D2A35212  31.645  20.837   8.345
 2624POPC   C3A35213  31.366  20.746   7.975
 2624POPC   C4A35214  31.518  20.517   7.604
 2624POPC   C1B35215  31.184  20.396   8.717
 2624POPC   C2B35216  31.393  20.376   8.336
 2624POPC   C3B35217  31.506  20.152   7.963
 2624POPC   C4B35218  31.229  20.082   7.586
 2625POPC   NC335219  22.451  40.434   9.597
 2625POPC   PO435220  22.225  39.797   9.528
 2625POPC   GL135221  22.198  40.018   9.176
 2625POPC   GL235222  22.541  40.091   9.216
 2625POPC   C1A35223  22.066  40.110   8.748
 2625POPC   D2A35224  22.234  39.938   8.360
 2625POPC   C3A35225  22.279  40.128   7.976
 2625POPC   C4A35226  21.964  40.373   7.760
 2625POPC   C1B35227  22.564  39.977   8.800
 2625POPC   C2B35228  22.594  39.642   8.522
 2625POPC   C3B35229  22.512  39.621   8.069
 2625POPC   C4B35230  22.545  39.801   7.645
 2626POPC   NC335231  24.732  19.015   9.465
 2626POPC   PO435232  24.056  19.225   9.429
 2626POPC   GL135233  24.404  19.259   9.173
 2626POPC   GL235234  24.388  18.914   9.086
 2626POPC   C1A35235  24.764  19.186   8.852
 2626POPC   D2A35236  25.035  19.086   8.508
 2626POPC   C3A35237  24.756  19.021   8.151
 2626POPC   C4A35238  24.635  19.286   7.847
 2626POPC   C1B35239  24.506  18.741   8.687
 2626POPC   C2B35240  24.242  18.794   8.330
 2626POPC   C3B35241  24.189  19.022   7.936
 2626POPC   C4B35242  23.930  18.899   7.576
 2627POPC   NC335243   2.231   9.227   9.390
 2627POPC   PO435244   2.033   8.556   9.475
 2627POPC   GL135245   1.937   8.855   9.125
 2627POPC   GL235246   2.142   9.098   8.917
 2627POPC   C1A35247   1.754   8.762   8.738
 2627POPC   D2A35248   1.834   8.690   8.305
 2627POPC   C3A35249   2.131   9.011   8.198
 2627POPC   C4A35250   2.273   9.025   7.798
 2627POPC   C1B35251   1.798   9.271   8.672
 2627POPC   C2B35252   1.593   9.169   8.302
 2627POPC   C3B35253   1.719   9.127   7.901
 2627POPC   C4B35254   1.984   9.423   7.732
 2628POPC   NC335255   1.241   9.367   9.422
 2628POPC   PO435256   1.416  10.042   9.560
 2628POPC   GL135257   1.273  10.003   9.120
 2628POPC   GL235258   1.478   9.721   9.147
 2628POPC   C1A35259   0.997   9.727   8.829
 2628POPC   D2A35260   0.774   9.589   8.423
 2628POPC   C3A35261   0.968   9.726   8.030
 2628POPC   C4A35262   1.015   9.658   7.576
 2628POPC   C1B35263   1.499   9.718   8.738
 2628POPC   C2B35264   1.343   9.614   8.372
 2628POPC   C3B35265   1.518   9.723   8.013
 2628POPC   C4B35266   1.337  10.004   7.723
 2629POPC   NC335267  13.452  29.155   9.672
 2629POPC   PO435268  13.966  29.547   9.521
 2629POPC   GL135269  13.675  29.387   9.194
 2629POPC   GL235270  13.581  29.044   9.198
 2629POPC   C1A35271  13.791  29.207   8.772
 2629POPC   D2A35272  13.750  29.405   8.390
 2629POPC   C3A35273  13.660  29.196   8.025
 2629POPC   C4A35274  13.950  28.963   7.755
 2629POPC   C1B35275  13.395  28.830   8.862
 2629POPC   C2B35276  13.451  28.945   8.459
 2629POPC   C3B35277  13.206  28.819   8.105
 2629POPC   C4B35278  13.378  28.880   7.716
 2630POPC   NC335279  11.603   4.395   9.334
 2630POPC   PO435280  11.170   4.901   9.567
 2630POPC   GL135281  11.242   4.650   9.132
 2630POPC   GL235282  10.950   4.453   9.003
 2630POPC   C1A35283  11.345   4.513   8.684
 2630POPC   D2A35284  11.099   4.430   8.303
 2630POPC   C3A35285  11.299   4.446   7.924
 2630POPC   C4A35286  11.655   4.219   7.817
 2630POPC   C1B35287  10.999   4.129   8.697
 2630POPC   C2B35288  10.998   3.861   8.379
 2630POPC   C3B35289  11.124   3.979   8.024
 2630POPC   C4B35290  11.201   3.942   7.644
 2631POPC   NC335291  10.149  43.494   9.816
 2631POPC   PO435292  10.861  43.341   9.716
 2631POPC   GL135293  10.614  43.183   9.327
 2631POPC   GL235294  10.283  43.293   9.208
 2631POPC   C1A35295  10.634  43.144   8.843
 2631POPC   D2A35296  10.707  42.788   8.559
 2631POPC   C3A35297  10.783  42.903   8.123
 2631POPC   C4A35298  10.689  42.982   7.709
 2631POPC   C1B35299  10.135  43.069   8.845
 2631POPC   C2B35300  10.301  43.099   8.427
 2631POPC   C3B35301  10.281  43.352   8.076
 2631POPC   C4B35302  10.207  43.054   7.792
 2632POPC   NC335303  33.154  10.025   9.556
 2632POPC   PO435304  32.864   9.394   9.724
 2632POPC   GL135305  32.927   9.535   9.289
 2632POPC   GL235306  32.844   9.871   9.159
 2632POPC   C1A35307  33.000   9.454   8.837
 2632POPC   D2A35308  33.156   9.606   8.414
 2632POPC   C3A35309  32.895   9.767   8.094
 2632POPC   C4A35310  32.672   9.481   7.863
 2632POPC   C1B35311  33.108   9.950   8.791
 2632POPC   C2B35312  33.415  10.035   8.436
 2632POPC   C3B35313  33.389   9.874   8.000
 2632POPC   C4B35314  33.593   9.521   7.845
 2633POPC   NC335315   8.015  44.582   9.660
 2633POPC   PO435316   8.498   0.011   9.700
 2633POPC   GL135317   8.351  44.710   9.294
 2633POPC   GL235318   8.002  44.776   9.184
 2633POPC   C1A35319   8.169  44.455   8.865
 2633POPC   D2A35320   7.949  44.583   8.467
 2633POPC   C3A35321   7.891  44.328   8.073
 2633POPC   C4A35322   8.209  44.240   7.816
 2633POPC   C1B35323   8.385  44.930   8.852
 2633POPC   C2B35324   8.572  44.944   8.434
 2633POPC   C3B35325   8.398   0.042   8.036
 2633POPC   C4B35326   8.095  44.768   7.881
 2634POPC   NC335327  12.026   8.760   9.474
 2634POPC   PO435328  12.171   9.386   9.654
 2634POPC   GL135329  12.250   9.187   9.259
 2634POPC   GL235330  11.900   9.149   9.170
 2634POPC   C1A35331  12.326   9.195   8.794
 2634POPC   D2A35332  12.170   9.239   8.332
 2634POPC   C3A35333  12.353   9.252   7.847
 2634POPC   C4A35334  12.345   9.316   7.352
 2634POPC   C1B35335  11.916   8.863   8.816
 2634POPC   C2B35336  11.700   8.689   8.448
 2634POPC   C3B35337  11.765   8.896   8.065
 2634POPC   C4B35338  11.742   8.735   7.663
 2635POPC   NC335339  31.164   6.109   9.830
 2635POPC   PO435340  30.554   6.081   9.451
 2635POPC   GL135341  30.694   5.885   9.073
 2635POPC   GL235342  30.684   6.239   8.993
 2635POPC   C1A35343  30.597   5.898   8.634
 2635POPC   D2A35344  30.294   5.968   8.329
 2635POPC   C3A35345  30.472   5.954   7.936
 2635POPC   C4A35346  30.721   5.711   7.627
 2635POPC   C1B35347  30.841   6.345   8.649
 2635POPC   C2B35348  30.869   6.137   8.280
 2635POPC   C3B35349  30.981   6.029   7.912
 2635POPC   C4B35350  31.155   6.326   7.672
 2636POPC   NC335351  16.442  42.794   9.346
 2636POPC   PO435352  16.868  42.272   9.583
 2636POPC   GL135353  16.900  42.135   9.168
 2636POPC   GL235354  16.537  42.085   9.131
 2636POPC   C1A35355  17.034  42.092   8.765
 2636POPC   D2A35356  16.951  42.095   8.332
 2636POPC   C3A35357  16.987  42.453   8.074
 2636POPC   C4A35358  16.811  42.447   7.679
 2636POPC   C1B35359  16.423  42.316   8.732
 2636POPC   C2B35360  16.522  42.533   8.331
 2636POPC   C3B35361  16.369  42.473   7.894
 2636POPC   C4B35362  16.427  42.707   7.446
 2637POPC   NC335363  21.657  17.280   9.457
 2637POPC   PO435364  21.006  17.102   9.562
 2637POPC   GL135365  21.248  17.312   9.179
 2637POPC   GL235366  21.271  17.652   9.081
 2637POPC   C1A35367  21.535  17.220   8.832
 2637POPC   D2A35368  21.433  17.092   8.423
 2637POPC   C3A35369  21.415  17.446   8.181
 2637POPC   C4A35370  21.463  17.624   7.773
 2637POPC   C1B35371  21.192  17.550   8.677
 2637POPC   C2B35372  20.952  17.641   8.358
 2637POPC   C3B35373  20.955  17.516   7.951
 2637POPC   C4B35374  21.033  17.871   7.735
 2638POPC   NC335375  17.338   1.506   9.523
 2638POPC   PO435376  17.335   2.170   9.672
 2638POPC   GL135377  17.391   2.027   9.250
 2638POPC   GL235378  17.662   1.782   9.243
 2638POPC   C1A35379  17.183   2.182   8.874
 2638POPC   D2A35380  17.198   2.304   8.432
 2638POPC   C3A35381  17.466   1.963   8.291
 2638POPC   C4A35382  17.526   1.775   7.862
 2638POPC   C1B35383  17.800   1.862   8.824
 2638POPC   C2B35384  17.897   1.648   8.440
 2638POPC   C3B35385  17.946   1.489   7.999
 2638POPC   C4B35386  17.928   1.616   7.528
 2639POPC   NC335387   6.431   7.112   9.451
 2639POPC   PO435388   6.684   6.398   9.348
 2639POPC   GL135389   6.680   6.608   8.965
 2639POPC   GL235390   6.382   6.840   9.021
 2639POPC   C1A35391   6.709   6.905   8.648
 2639POPC   D2A35392   6.430   7.057   8.374
 2639POPC   C3A35393   6.672   6.990   8.018
 2639POPC   C4A35394   6.836   6.625   7.892
 2639POPC   C1B35395   6.268   6.526   8.707
 2639POPC   C2B35396   6.057   6.513   8.331
 2639POPC   C3B35397   6.288   6.684   7.963
 2639POPC   C4B35398   6.438   6.617   7.526
 2640POPC   NC335399  37.789  37.665   9.585
 2640POPC   PO435400  37.196  37.517   9.782
 2640POPC   GL135401  37.356  37.651   9.300
 2640POPC   GL235402  37.730  37.533   9.113
 2640POPC   C1A35403  37.330  37.535   8.839
 2640POPC   D2A35404  37.640  37.467   8.507
 2640POPC   C3A35405  37.492  37.485   8.081
 2640POPC   C4A35406  37.310  37.515   7.678
 2640POPC   C1B35407  37.714  37.882   8.803
 2640POPC   C2B35408  37.865  38.026   8.389
 2640POPC   C3B35409  37.911  37.892   7.949
 2640POPC   C4B35410  38.054  37.866   7.515
 2641POPC   NC335411  14.167  44.783   9.617
 2641POPC   PO435412  14.713  44.418   9.768
 2641POPC   GL135413  14.654  44.505   9.303
 2641POPC   GL235414  14.457  44.832   9.181
 2641POPC   C1A35415  14.579  44.486   8.842
 2641POPC   D2A35416  14.430  44.473   8.434
 2641POPC   C3A35417  14.545  44.566   8.034
 2641POPC   C4A35418  14.540  44.452   7.609
 2641POPC   C1B35419  14.204  44.843   8.726
 2641POPC   C2B35420  14.111  44.795   8.222
 2641POPC   C3B35421  14.266  44.941   7.791
 2641POPC   C4B35422  14.528   0.232   7.504
 2642POPC   NC335423   2.622  32.802   9.445
 2642POPC   PO435424   3.174  33.214   9.564
 2642POPC   GL135425   2.919  33.176   9.204
 2642POPC   GL235426   3.003  32.866   9.126
 2642POPC   C1A35427   2.668  33.040   8.798
 2642POPC   D2A35428   2.765  32.668   8.524
 2642POPC   C3A35429   2.664  32.707   8.077
 2642POPC   C4A35430   2.713  33.126   7.898
 2642POPC   C1B35431   3.168  33.117   8.786
 2642POPC   C2B35432   2.980  33.135   8.399
 2642POPC   C3B35433   3.155  33.349   8.121
 2642POPC   C4B35434   3.168  33.232   7.730
 2643POPC   NC335435  15.767  10.330   9.730
 2643POPC   PO435436  16.289  10.730   9.486
 2643POPC   GL135437  15.935  10.562   9.261
 2643POPC   GL235438  15.860  10.214   9.167
 2643POPC   C1A35439  15.829  10.649   8.826
 2643POPC   D2A35440  16.109  10.718   8.466
 2643POPC   C3A35441  15.875  10.752   8.085
 2643POPC   C4A35442  15.444  10.876   8.086
 2643POPC   C1B35443  16.034  10.189   8.723
 2643POPC   C2B35444  15.771  10.242   8.330
 2643POPC   C3B35445  15.875  10.285   7.903
 2643POPC   C4B35446  16.296  10.438   7.832
 2644POPC   NC335447  31.785   9.121   9.532
 2644POPC   PO435448  31.206   9.415   9.428
 2644POPC   GL135449  31.308   8.969   9.216
 2644POPC   GL235450  31.656   8.792   9.156
 2644POPC   C1A35451  31.269   8.688   8.826
 2644POPC   D2A35452  31.588   8.751   8.520
 2644POPC   C3A35453  31.655   8.776   8.065
 2644POPC   C4A35454  31.531   8.985   7.671
 2644POPC   C1B35455  31.651   9.146   8.863
 2644POPC   C2B35456  31.579   9.269   8.437
 2644POPC   C3B35457  31.775   9.283   8.011
 2644POPC   C4B35458  31.759   9.493   7.615
 2645POPC   NC335459  36.282  32.864   9.725
 2645POPC   PO435460  35.837  33.276   9.553
 2645POPC   GL135461  36.108  33.239   9.206
 2645POPC   GL235462  36.164  32.880   9.184
 2645POPC   C1A35463  35.923  33.284   8.764
 2645POPC   D2A35464  35.805  33.157   8.373
 2645POPC   C3A35465  36.043  33.220   7.966
 2645POPC   C4A35466  36.074  32.966   7.588
 2645POPC   C1B35467  36.356  33.028   8.794
 2645POPC   C2B35468  36.317  33.101   8.366
 2645POPC   C3B35469  36.500  32.933   7.976
 2645POPC   C4B35470  36.613  32.634   7.639
 2646POPC   NC335471  29.987  25.094   9.668
 2646POPC   PO435472  30.190  25.737   9.653
 2646POPC   GL135473  30.069  25.611   9.227
 2646POPC   GL235474  30.012  25.238   9.173
 2646POPC   C1A35475  29.994  25.577   8.770
 2646POPC   D2A35476  30.145  25.288   8.424
 2646POPC   C3A35477  29.854  25.180   8.085
 2646POPC   C4A35478  29.686  25.266   7.673
 2646POPC   C1B35479  30.290  25.020   8.871
 2646POPC   C2B35480  30.552  24.964   8.484
 2646POPC   C3B35481  30.359  24.954   8.064
 2646POPC   C4B35482  30.096  24.935   7.687
 2647POPC   NC335483  20.165  38.010   9.403
 2647POPC   PO435484  20.493  37.390   9.595
 2647POPC   GL135485  20.688  37.487   9.203
 2647POPC   GL235486  20.774  37.824   9.205
 2647POPC   C1A35487  20.548  37.656   8.802
 2647POPC   D2A35488  20.801  37.801   8.477
 2647POPC   C3A35489  20.763  37.591   8.133
 2647POPC   C4A35490  20.548  37.499   7.766
 2647POPC   C1B35491  21.078  37.972   8.879
 2647POPC   C2B35492  21.112  38.209   8.513
 2647POPC   C3B35493  21.178  38.078   8.123
 2647POPC   C4B35494  20.976  37.910   7.809
 2648POPC   NC335495   1.701  11.915   9.557
 2648POPC   PO435496   2.247  12.328   9.476
 2648POPC   GL135497   1.887  12.208   9.184
 2648POPC   GL235498   1.933  11.894   9.111
 2648POPC   C1A35499   1.738  12.350   8.781
 2648POPC   D2A35500   1.933  12.264   8.368
 2648POPC   C3A35501   1.750  12.228   7.935
 2648POPC   C4A35502   1.825  12.306   7.493
 2648POPC   C1B35503   2.123  11.730   8.781
 2648POPC   C2B35504   2.144  11.550   8.400
 2648POPC   C3B35505   1.985  11.805   8.123
 2648POPC   C4B35506   1.967  11.825   7.699
 2649POPC   NC335507  28.592  32.707   9.336
 2649POPC   PO435508  28.996  33.180   9.740
 2649POPC   GL135509  28.841  33.188   9.205
 2649POPC   GL235510  28.860  32.903   8.945
 2649POPC   C1A35511  29.008  33.375   8.786
 2649POPC   D2A35512  29.222  33.412   8.386
 2649POPC   C3A35513  29.091  33.168   8.034
 2649POPC   C4A35514  29.295  33.211   7.661
 2649POPC   C1B35515  29.253  32.915   8.734
 2649POPC   C2B35516  29.449  32.914   8.364
 2649POPC   C3B35517  29.362  32.734   7.970
 2649POPC   C4B35518  29.071  32.756   7.662
 2650POPC   NC335519  41.212  40.778   9.381
 2650POPC   PO435520  41.701  40.346   9.549
 2650POPC   GL135521  41.708  40.654   9.197
 2650POPC   GL235522  41.870  41.005   9.230
 2650POPC   C1A35523  41.507  40.803   8.803
 2650POPC   D2A35524  41.439  40.630   8.413
 2650POPC   C3A35525  41.428  40.928   8.164
 2650POPC   C4A35526  41.447  40.799   7.763
 2650POPC   C1B35527  42.004  40.847   8.806
 2650POPC   C2B35528  41.906  40.844   8.355
 2650POPC   C3B35529  41.887  40.992   7.936
 2650POPC   C4B35530  41.821  40.908   7.467
 2651POPC   NC335531  29.642  29.342   9.529
 2651POPC   PO435532  30.099  28.912   9.410
 2651POPC   GL135533  29.696  28.958   9.163
 2651POPC   GL235534  29.537  29.298   9.030
 2651POPC   C1A35535  29.806  28.964   8.734
 2651POPC   D2A35536  30.086  28.826   8.407
 2651POPC   C3A35537  29.880  29.041   8.095
 2651POPC   C4A35538  29.847  29.196   7.701
 2651POPC   C1B35539  29.884  29.539   8.793
 2651POPC   C2B35540  30.075  29.631   8.405
 2651POPC   C3B35541  29.867  29.584   8.034
 2651POPC   C4B35542  29.998  29.666   7.634
 2652POPC   NC335543   6.957  21.886   9.326
 2652POPC   PO435544   6.533  22.337   9.560
 2652POPC   GL135545   6.728  22.327   9.142
 2652POPC   GL235546   7.002  22.554   9.042
 2652POPC   C1A35547   6.618  22.366   8.709
 2652POPC   D2A35548   6.844  22.447   8.302
 2652POPC   C3A35549   6.581  22.522   7.953
 2652POPC   C4A35550   6.339  22.236   7.708
 2652POPC   C1B35551   7.115  22.274   8.700
 2652POPC   C2B35552   6.864  21.961   8.453
 2652POPC   C3B35553   6.671  22.002   8.047
 2652POPC   C4B35554   6.766  22.000   7.616
 2653POPC   NC335555  37.970   1.053   9.425
 2653POPC   PO435556  37.648   1.619   9.575
 2653POPC   GL135557  37.569   1.499   9.153
 2653POPC   GL235558  37.685   1.194   9.070
 2653POPC   C1A35559  37.834   1.567   8.775
 2653POPC   D2A35560  37.948   1.373   8.411
 2653POPC   C3A35561  37.780   1.406   8.008
 2653POPC   C4A35562  37.659   1.368   7.569
 2653POPC   C1B35563  37.755   1.005   8.716
 2653POPC   C2B35564  37.562   1.017   8.311
 2653POPC   C3B35565  37.665   0.940   7.878
 2653POPC   C4B35566  37.633   0.856   7.426
 2654POPC   NC335567  17.100  41.057   9.472
 2654POPC   PO435568  17.688  40.645   9.465
 2654POPC   GL135569  17.550  40.603   9.075
 2654POPC   GL235570  17.517  40.960   9.084
 2654POPC   C1A35571  17.362  40.715   8.651
 2654POPC   D2A35572  17.461  40.827   8.200
 2654POPC   C3A35573  17.239  40.747   7.793
 2654POPC   C4A35574  17.098  40.528   7.355
 2654POPC   C1B35575  17.860  40.879   8.768
 2654POPC   C2B35576  17.997  41.039   8.380
 2654POPC   C3B35577  17.783  41.161   8.015
 2654POPC   C4B35578  17.709  40.913   7.699
 2655POPC   NC335579  42.783  42.912   9.607
 2655POPC   PO435580  42.080  42.798   9.526
 2655POPC   GL135581  42.176  42.865   9.117
 2655POPC   GL235582  42.507  42.852   9.142
 2655POPC   C1A35583  42.189  43.094   8.734
 2655POPC   D2A35584  41.999  43.374   8.432
 2655POPC   C3A35585  42.184  43.356   8.032
 2655POPC   C4A35586  42.601  43.244   7.929
 2655POPC   C1B35587  42.668  42.880   8.704
 2655POPC   C2B35588  42.432  42.880   8.299
 2655POPC   C3B35589  42.162  42.847   7.943
 2655POPC   C4B35590  42.152  42.756   7.519
 2656POPC   NC335591  25.394  35.904   9.654
 2656POPC   PO435592  24.836  36.127   9.708
 2656POPC   GL135593  25.093  36.108   9.298
 2656POPC   GL235594  25.298  35.819   9.156
 2656POPC   C1A35595  25.145  36.294   8.891
 2656POPC   D2A35596  24.993  36.394   8.486
 2656POPC   C3A35597  25.327  36.458   8.144
 2656POPC   C4A35598  25.165  36.564   7.730
 2656POPC   C1B35599  25.126  35.784   8.731
 2656POPC   C2B35600  25.202  35.963   8.313
 2656POPC   C3B35601  24.952  36.144   7.996
 2656POPC   C4B35602  24.931  36.016   7.560
 2657POPC   NC335603  15.909  22.905   9.773
 2657POPC   PO435604  15.960  22.539   9.255
 2657POPC   GL135605  15.834  22.907   9.078
 2657POPC   GL235606  16.091  23.098   9.151
 2657POPC   C1A35607  15.758  22.958   8.635
 2657POPC   D2A35608  15.680  23.149   8.236
 2657POPC   C3A35609  15.957  23.069   7.916
 2657POPC   C4A35610  16.297  23.360   7.865
 2657POPC   C1B35611  16.238  23.140   8.739
 2657POPC   C2B35612  16.212  22.949   8.350
 2657POPC   C3B35613  16.456  22.887   8.027
 2657POPC   C4B35614  16.333  22.831   7.673
 2658POPC   NC335615  17.070  21.600   9.623
 2658POPC   PO435616  16.375  21.482   9.685
 2658POPC   GL135617  16.623  21.576   9.283
 2658POPC   GL235618  16.927  21.350   9.198
 2658POPC   C1A35619  16.649  21.559   8.811
 2658POPC   D2A35620  16.626  21.323   8.408
 2658POPC   C3A35621  16.356  21.469   8.067
 2658POPC   C4A35622  16.555  21.511   7.679
 2658POPC   C1B35623  17.039  21.214   8.776
 2658POPC   C2B35624  17.127  21.054   8.364
 2658POPC   C3B35625  16.938  21.086   7.968
 2658POPC   C4B35626  17.199  21.010   7.618
 2659POPC   NC335627  40.279  37.300   9.487
 2659POPC   PO435628  39.817  37.847   9.553
 2659POPC   GL135629  39.918  37.570   9.227
 2659POPC   GL235630  40.278  37.642   9.127
 2659POPC   C1A35631  39.823  37.447   8.809
 2659POPC   D2A35632  40.071  37.486   8.420
 2659POPC   C3A35633  39.813  37.627   8.067
 2659POPC   C4A35634  39.701  37.500   7.653
 2659POPC   C1B35635  40.097  37.886   8.792
 2659POPC   C2B35636  40.187  38.044   8.384
 2659POPC   C3B35637  40.309  37.859   7.987
 2659POPC   C4B35638  40.075  37.826   7.602
 2660POPC   NC335639   0.824   7.981   9.233
 2660POPC   PO435640   0.137   7.982   9.450
 2660POPC   GL135641   0.376   8.199   9.110
 2660POPC   GL235642   0.669   8.458   9.069
 2660POPC   C1A35643   0.465   8.060   8.692
 2660POPC   D2A35644   0.333   8.286   8.358
 2660POPC   C3A35645   0.226   8.033   8.036
 2660POPC   C4A35646   0.240   8.340   7.743
 2660POPC   C1B35647   0.911   8.335   8.681
 2660POPC   C2B35648   0.938   8.470   8.260
 2660POPC   C3B35649   0.714   8.194   7.998
 2660POPC   C4B35650   0.671   7.749   7.901
 2661POPC   NC335651   2.682  12.104   9.503
 2661POPC   PO435652   3.117  11.623   9.452
 2661POPC   GL135653   2.778  11.749   9.100
 2661POPC   GL235654   2.446  11.971   9.097
 2661POPC   C1A35655   2.612  11.771   8.647
 2661POPC   D2A35656   2.576  11.782   8.190
 2661POPC   C3A35657   2.790  12.111   8.017
 2661POPC   C4A35658   3.075  12.275   7.753
 2661POPC   C1B35659   2.278  12.230   8.789
 2661POPC   C2B35660   2.436  12.247   8.380
 2661POPC   C3B35661   2.286  12.190   7.967
 2661POPC   C4B35662   2.328  12.153   7.548
 2662POPC   NC335663  41.793  24.388   9.759
 2662POPC   PO435664  41.439  24.859   9.465
 2662POPC   GL135665  41.429  24.497   9.264
 2662POPC   GL235666  41.782  24.483   9.260
 2662POPC   C1A35667  41.305  24.516   8.840
 2662POPC   D2A35668  41.479  24.343   8.471
 2662POPC   C3A35669  41.343  24.435   8.068
 2662POPC   C4A35670  41.456  24.277   7.677
 2662POPC   C1B35671  41.792  24.280   8.884
 2662POPC   C2B35672  41.969  24.193   8.474
 2662POPC   C3B35673  41.808  24.198   8.064
 2662POPC   C4B35674  41.886  23.986   7.692
 2663POPC   NC335675  38.051  28.923   9.440
 2663POPC   PO435676  37.428  29.033   9.646
 2663POPC   GL135677  37.614  29.241   9.266
 2663POPC   GL235678  37.648  28.901   9.147
 2663POPC   C1A35679  37.742  29.466   8.853
 2663POPC   D2A35680  38.045  29.366   8.514
 2663POPC   C3A35681  37.794  29.137   8.205
 2663POPC   C4A35682  37.692  29.272   7.796
 2663POPC   C1B35683  37.840  28.950   8.734
 2663POPC   C2B35684  38.078  28.744   8.422
 2663POPC   C3B35685  38.124  28.800   7.974
 2663POPC   C4B35686  37.818  28.791   7.664
 2664POPC   NC335687   4.515  39.920   9.616
 2664POPC   PO435688   3.921  40.259   9.509
 2664POPC   GL135689   4.057  40.077   9.136
 2664POPC   GL235690   4.417  40.005   9.124
 2664POPC   C1A35691   4.032  40.063   8.700
 2664POPC   D2A35692   4.247  40.085   8.356
 2664POPC   C3A35693   4.009  40.151   7.993
 2664POPC   C4A35694   4.144  40.035   7.557
 2664POPC   C1B35695   4.478  40.296   8.779
 2664POPC   C2B35696   4.511  40.514   8.392
 2664POPC   C3B35697   4.512  40.343   7.987
 2664POPC   C4B35698   4.266  40.505   7.726
 2665POPC   NC335699  43.500  40.606   9.721
 2665POPC   PO435700  44.163  40.744   9.506
 2665POPC   GL135701  43.996  40.966   9.173
 2665POPC   GL235702  44.031  40.676   8.991
 2665POPC   C1A35703  43.798  41.047   8.756
 2665POPC   D2A35704  43.821  40.794   8.386
 2665POPC   C3A35705  43.750  41.074   8.077
 2665POPC   C4A35706  43.870  41.073   7.690
 2665POPC   C1B35707  44.032  40.395   8.678
 2665POPC   C2B35708  44.194  40.410   8.259
 2665POPC   C3B35709  43.973  40.490   7.891
 2665POPC   C4B35710  44.133  40.391   7.466
 2666POPC   NC335711  37.173  11.678   9.359
 2666POPC   PO435712  36.697  11.248   9.346
 2666POPC   GL135713  37.091  11.222   9.096
 2666POPC   GL235714  36.858  11.339   8.855
 2666POPC   C1A35715  37.324  11.289   8.674
 2666POPC   D2A35716  37.029  11.287   8.316
 2666POPC   C3A35717  37.061  11.166   7.894
 2666POPC   C4A35718  36.933  11.421   7.493
 2666POPC   C1B35719  36.494  11.271   8.622
 2666POPC   C2B35720  36.439  11.287   8.227
 2666POPC   C3B35721  36.586  11.362   7.863
 2666POPC   C4B35722  36.669  10.994   7.642
 2667POPC   NC335723   2.998   9.549   9.552
 2667POPC   PO435724   2.412   9.980   9.492
 2667POPC   GL135725   2.763   9.888   9.205
 2667POPC   GL235726   2.770   9.539   9.114
 2667POPC   C1A35727   2.809   9.881   8.747
 2667POPC   D2A35728   2.942   9.681   8.377
 2667POPC   C3A35729   2.783   9.836   7.990
 2667POPC   C4A35730   2.924   9.881   7.596
 2667POPC   C1B35731   2.884   9.344   8.762
 2667POPC   C2B35732   2.693   9.232   8.387
 2667POPC   C3B35733   2.903   9.338   8.013
 2667POPC   C4B35734   2.707   9.252   7.664
 2668POPC   NC335735   5.638   6.582   9.497
 2668POPC   PO435736   5.950   7.069   9.449
 2668POPC   GL135737   5.857   6.871   9.088
 2668POPC   GL235738   5.990   6.530   9.131
 2668POPC   C1A35739   5.981   6.927   8.644
 2668POPC   D2A35740   5.937   7.011   8.211
 2668POPC   C3A35741   5.785   6.704   7.935
 2668POPC   C4A35742   5.960   6.789   7.553
 2668POPC   C1B35743   5.737   6.497   8.765
 2668POPC   C2B35744   5.558   6.155   8.572
 2668POPC   C3B35745   5.420   6.150   8.177
 2668POPC   C4B35746   5.525   6.291   7.754
 2669POPC   NC335747  24.066  14.136   9.457
 2669POPC   PO435748  24.687  14.551   9.557
 2669POPC   GL135749  24.633  14.343   9.237
 2669POPC   GL235750  24.319  14.429   9.114
 2669POPC   C1A35751  24.787  14.326   8.852
 2669POPC   D2A35752  24.826  14.588   8.519
 2669POPC   C3A35753  24.785  14.390   8.155
 2669POPC   C4A35754  24.648  14.370   7.753
 2669POPC   C1B35755  24.353  14.085   8.783
 2669POPC   C2B35756  24.299  14.188   8.351
 2669POPC   C3B35757  24.037  13.982   8.050
 2669POPC   C4B35758  24.203  13.983   7.707
 2670POPC   NC335759  31.951  35.662   9.389
 2670POPC   PO435760  32.509  35.447   9.629
 2670POPC   GL135761  32.303  35.316   9.228
 2670POPC   GL235762  32.031  35.150   9.110
 2670POPC   C1A35763  32.248  35.513   8.803
 2670POPC   D2A35764  32.444  35.468   8.426
 2670POPC   C3A35765  32.262  35.638   8.098
 2670POPC   C4A35766  32.213  35.399   7.768
 2670POPC   C1B35767  32.226  35.039   8.665
 2670POPC   C2B35768  32.236  35.052   8.179
 2670POPC   C3B35769  31.958  34.984   7.823
 2670POPC   C4B35770  31.897  35.189   7.399
 2671POPC   NC335771  38.504  24.447   9.484
 2671POPC   PO435772  37.876  24.518   9.580
 2671POPC   GL135773  38.114  24.737   9.225
 2671POPC   GL235774  38.369  24.574   9.014
 2671POPC   C1A35775  37.981  24.815   8.792
 2671POPC   D2A35776  37.920  24.589   8.371
 2671POPC   C3A35777  38.174  24.671   8.034
 2671POPC   C4A35778  38.564  24.513   7.859
 2671POPC   C1B35779  38.713  24.677   8.715
 2671POPC   C2B35780  38.858  24.554   8.306
 2671POPC   C3B35781  39.032  24.316   7.980
 2671POPC   C4B35782  38.871  24.252   7.546
 2672POPC   NC335783  29.122  34.972   9.452
 2672POPC   PO435784  29.314  35.586   9.595
 2672POPC   GL135785  29.284  35.489   9.147
 2672POPC   GL235786  29.374  35.150   9.071
 2672POPC   C1A35787  29.129  35.475   8.701
 2672POPC   D2A35788  28.854  35.265   8.404
 2672POPC   C3A35789  28.824  35.381   7.963
 2672POPC   C4A35790  29.128  35.414   7.638
 2672POPC   C1B35791  29.130  34.950   8.740
 2672POPC   C2B35792  29.289  34.832   8.346
 2672POPC   C3B35793  29.213  35.031   7.971
 2672POPC   C4B35794  29.413  34.927   7.601
 2673POPC   NC335795  16.352  22.734   9.425
 2673POPC   PO435796  17.040  22.864   9.564
 2673POPC   GL135797  16.867  22.732   9.187
 2673POPC   GL235798  16.627  22.944   9.064
 2673POPC   C1A35799  16.868  22.561   8.768
 2673POPC   D2A35800  16.752  22.806   8.425
 2673POPC   C3A35801  17.006  22.796   8.054
 2673POPC   C4A35802  16.821  22.720   7.661
 2673POPC   C1B35803  16.737  23.193   8.759
 2673POPC   C2B35804  16.592  23.326   8.360
 2673POPC   C3B35805  16.804  23.258   8.004
 2673POPC   C4B35806  16.712  23.202   7.618
 2674POPC   NC335807   5.061   2.580   9.555
 2674POPC   PO435808   5.240   3.228   9.406
 2674POPC   GL135809   4.974   2.916   9.156
 2674POPC   GL235810   5.253   2.691   9.091
 2674POPC   C1A35811   4.897   2.695   8.728
 2674POPC   D2A35812   5.171   2.673   8.345
 2674POPC   C3A35813   5.002   2.521   8.010
 2674POPC   C4A35814   4.857   2.692   7.655
 2674POPC   C1B35815   5.417   2.504   8.733
 2674POPC   C2B35816   5.342   2.192   8.350
 2674POPC   C3B35817   5.365   2.182   7.889
 2674POPC   C4B35818   5.279   2.473   7.537
 2675POPC   NC335819  26.577  20.660   9.576
 2675POPC   PO435820  25.898  20.639   9.658
 2675POPC   GL135821  26.044  20.633   9.238
 2675POPC   GL235822  26.334  20.873   9.165
 2675POPC   C1A35823  25.806  20.549   8.833
 2675POPC   D2A35824  26.067  20.591   8.471
 2675POPC   C3A35825  25.856  20.517   8.099
 2675POPC   C4A35826  26.114  20.387   7.760
 2675POPC   C1B35827  26.004  21.005   8.875
 2675POPC   C2B35828  25.767  20.992   8.496
 2675POPC   C3B35829  25.939  21.043   8.094
 2675POPC   C4B35830  25.864  20.835   7.712
 2676POPC   NC335831  39.480  11.247   9.310
 2676POPC   PO435832  38.846  11.401   9.495
 2676POPC   GL135833  39.011  11.343   9.100
 2676POPC   GL235834  39.232  11.630   9.072
 2676POPC   C1A35835  39.104  11.337   8.658
 2676POPC   D2A35836  38.890  11.478   8.277
 2676POPC   C3A35837  39.121  11.472   7.901
 2676POPC   C4A35838  39.306  11.171   7.613
 2676POPC   C1B35839  39.538  11.613   8.712
 2676POPC   C2B35840  39.440  11.516   8.319
 2676POPC   C3B35841  39.584  11.269   8.019
 2676POPC   C4B35842  39.797  11.330   7.649
 2677POPC   NC335843  37.717  24.093   9.530
 2677POPC   PO435844  37.318  24.674   9.432
 2677POPC   GL135845  37.601  24.475   9.152
 2677POPC   GL235846  37.940  24.274   9.120
 2677POPC   C1A35847  37.631  24.450   8.753
 2677POPC   D2A35848  37.498  24.267   8.390
 2677POPC   C3A35849  37.493  24.544   8.057
 2677POPC   C4A35850  37.748  24.516   7.738
 2677POPC   C1B35851  38.085  24.203   8.702
 2677POPC   C2B35852  37.946  24.042   8.302
 2677POPC   C3B35853  38.072  24.169   7.902
 2677POPC   C4B35854  38.010  24.162   7.451
 2678POPC   NC335855   6.747  13.952   9.356
 2678POPC   PO435856   6.511  14.643   9.515
 2678POPC   GL135857   6.514  14.370   9.198
 2678POPC   GL235858   6.843  14.455   9.153
 2678POPC   C1A35859   6.514  14.129   8.800
 2678POPC   D2A35860   6.380  14.277   8.434
 2678POPC   C3A35861   6.552  14.242   8.052
 2678POPC   C4A35862   6.750  14.564   7.813
 2678POPC   C1B35863   7.015  14.225   8.817
 2678POPC   C2B35864   6.888  14.066   8.430
 2678POPC   C3B35865   7.051  14.177   8.037
 2678POPC   C4B35866   7.195  14.360   7.670
 2679POPC   NC335867  18.196  31.468   9.503
 2679POPC   PO435868  17.883  32.091   9.455
 2679POPC   GL135869  17.999  31.765   9.116
 2679POPC   GL235870  18.043  31.367   9.022
 2679POPC   C1A35871  18.360  31.694   8.831
 2679POPC   D2A35872  18.363  31.303   8.596
 2679POPC   C3A35873  18.463  31.267   8.165
 2679POPC   C4A35874  18.425  31.496   7.801
 2679POPC   C1B35875  17.906  31.601   8.614
 2679POPC   C2B35876  18.056  31.616   8.179
 2679POPC   C3B35877  17.933  31.610   7.742
 2679POPC   C4B35878  17.740  31.496   7.314
 2680POPC   NC335879   1.724  36.992   9.507
 2680POPC   PO435880   2.423  36.789   9.515
 2680POPC   GL135881   2.095  36.793   9.213
 2680POPC   GL235882   2.007  37.128   9.110
 2680POPC   C1A35883   2.157  36.659   8.789
 2680POPC   D2A35884   1.963  36.633   8.380
 2680POPC   C3A35885   2.189  36.719   8.007
 2680POPC   C4A35886   2.024  36.788   7.638
 2680POPC   C1B35887   1.797  36.999   8.737
 2680POPC   C2B35888   1.746  37.110   8.343
 2680POPC   C3B35889   1.961  37.178   8.000
 2680POPC   C4B35890   1.760  37.218   7.618
 2681POPC   NC335891   3.130  11.218   9.658
 2681POPC   PO435892   2.608  10.926   9.420
 2681POPC   GL135893   2.857  11.217   9.138
 2681POPC   GL235894   3.215  11.317   9.063
 2681POPC   C1A35895   2.847  11.300   8.695
 2681POPC   D2A35896   2.594  11.293   8.338
 2681POPC   C3A35897   2.743  11.182   7.929
 2681POPC   C4A35898   2.802  11.408   7.554
 2681POPC   C1B35899   3.351  11.238   8.625
 2681POPC   C2B35900   3.141  11.089   8.254
 2681POPC   C3B35901   3.241  11.180   7.818
 2681POPC   C4B35902   3.289  11.278   7.395
 2682POPC   NC335903   4.691  43.088   9.587
 2682POPC   PO435904   5.317  43.465   9.531
 2682POPC   GL135905   5.118  43.165   9.258
 2682POPC   GL235906   5.313  42.889   9.158
 2682POPC   C1A35907   4.889  43.077   8.900
 2682POPC   D2A35908   4.921  43.384   8.547
 2682POPC   C3A35909   5.080  43.185   8.175
 2682POPC   C4A35910   5.111  43.085   7.743
 2682POPC   C1B35911   5.376  43.121   8.770
 2682POPC   C2B35912   5.574  43.113   8.380
 2682POPC   C3B35913   5.562  43.185   7.945
 2682POPC   C4B35914   5.499  42.771   7.735
 2683POPC   NC335915  37.604  39.606   9.510
 2683POPC   PO435916  37.853  38.992   9.648
 2683POPC   GL135917  37.977  38.972   9.216
 2683POPC   GL235918  38.086  39.318   9.242
 2683POPC   C1A35919  37.882  38.901   8.746
 2683POPC   D2A35920  37.831  39.156   8.374
 2683POPC   C3A35921  37.642  39.051   7.972
 2683POPC   C4A35922  37.845  38.827   7.680
 2683POPC   C1B35923  37.791  39.390   8.885
 2683POPC   C2B35924  37.751  39.648   8.501
 2683POPC   C3B35925  37.719  39.546   8.050
 2683POPC   C4B35926  37.590  39.548   7.630
 2684POPC   NC335927  31.573   9.713   9.369
 2684POPC   PO435928  31.492  10.344   9.599
 2684POPC   GL135929  31.366  10.129   9.160
 2684POPC   GL235930  31.100   9.887   9.186
 2684POPC   C1A35931  31.639   9.987   8.756
 2684POPC   D2A35932  31.616   9.774   8.387
 2684POPC   C3A35933  31.799   9.895   8.022
 2684POPC   C4A35934  31.447   9.873   7.734
 2684POPC   C1B35935  31.262   9.656   8.792
 2684POPC   C2B35936  31.134   9.511   8.385
 2684POPC   C3B35937  31.273   9.317   8.011
 2684POPC   C4B35938  31.262   9.425   7.600
 2685POPC   NC335939  28.519  10.326   9.632
 2685POPC   PO435940  28.171  10.861   9.469
 2685POPC   GL135941  28.340  10.734   9.070
 2685POPC   GL235942  28.440  10.388   9.114
 2685POPC   C1A35943  28.196  10.528   8.668
 2685POPC   D2A35944  28.014  10.232   8.357
 2685POPC   C3A35945  28.121  10.407   7.964
 2685POPC   C4A35946  28.327  10.829   7.964
 2685POPC   C1B35947  28.713  10.507   8.761
 2685POPC   C2B35948  28.678  10.589   8.303
 2685POPC   C3B35949  28.631  10.464   7.838
 2685POPC   C4B35950  28.508  10.771   7.480
 2686POPC   NC335951  11.958  29.564   9.311
 2686POPC   PO435952  12.222  28.958   9.445
 2686POPC   GL135953  12.186  29.107   9.045
 2686POPC   GL235954  12.386  29.375   8.916
 2686POPC   C1A35955  12.302  28.973   8.626
 2686POPC   D2A35956  12.012  28.978   8.312
 2686POPC   C3A35957  12.160  29.113   7.957
 2686POPC   C4A35958  11.933  29.393   7.732
 2686POPC   C1B35959  11.985  29.422   8.668
 2686POPC   C2B35960  11.952  29.582   8.258
 2686POPC   C3B35961  12.315  29.607   8.010
 2686POPC   C4B35962  12.395  29.556   7.555
 2687POPC   NC335963  44.813  35.407   9.580
 2687POPC   PO435964  44.790  34.748   9.543
 2687POPC   GL135965  44.530  35.134   9.234
 2687POPC   GL235966  44.589  35.543   9.146
 2687POPC   C1A35967  44.283  35.325   8.820
 2687POPC   D2A35968  44.232  35.482   8.372
 2687POPC   C3A35969  44.567  35.501   8.043
 2687POPC   C4A35970  44.829  35.201   7.799
 2687POPC   C1B35971  44.643  35.751   8.701
 2687POPC   C2B35972  44.931  35.802   8.317
 2687POPC   C3B35973   0.033  35.680   7.844
 2687POPC   C4B35974  44.921  35.523   7.397
 2688POPC   NC335975  15.616  22.247   9.358
 2688POPC   PO435976  16.146  22.454   9.752
 2688POPC   GL135977  16.190  22.104   9.328
 2688POPC   GL235978  15.948  21.875   9.155
 2688POPC   C1A35979  16.142  22.161   8.780
 2688POPC   D2A35980  15.919  22.484   8.464
 2688POPC   C3A35981  16.049  22.533   7.993
 2688POPC   C4A35982  16.059  22.459   7.500
 2688POPC   C1B35983  15.702  21.896   8.715
 2688POPC   C2B35984  15.834  22.002   8.264
 2688POPC   C3B35985  16.062  22.034   7.848
 2688POPC   C4B35986  15.878  22.003   7.435
 2689POPC   NC335987   9.511   8.522   9.431
 2689POPC   PO435988   9.701   9.109   9.526
 2689POPC   GL135989   9.783   8.849   9.152
 2689POPC   GL235990  10.075   8.925   9.023
 2689POPC   C1A35991   9.730   8.790   8.684
 2689POPC   D2A35992   9.707   9.051   8.304
 2689POPC   C3A35993   9.666   8.715   8.004
 2689POPC   C4A35994   9.935   8.476   7.741
 2689POPC   C1B35995   9.925   9.266   8.762
 2689POPC   C2B35996  10.105   9.497   8.440
 2689POPC   C3B35997  10.068   9.402   7.999
 2689POPC   C4B35998   9.815   9.111   7.740
 2690POPC   NC335999  40.161  26.150   9.576
 2690POPC   PO436000  39.740  25.889   9.115
 2690POPC   GL136001  40.182  25.938   9.056
 2690POPC   GL236002  40.246  26.275   9.082
 2690POPC   C1A36003  40.272  25.846   8.634
 2690POPC   D2A36004  40.102  26.084   8.359
 2690POPC   C3A36005  39.996  25.818   8.087
 2690POPC   C4A36006  40.096  25.916   7.699
 2690POPC   C1B36007  40.415  26.318   8.708
 2690POPC   C2B36008  40.353  26.541   8.336
 2690POPC   C3B36009  40.186  26.383   7.947
 2690POPC   C4B36010  39.940  26.410   7.582
 2691POPC   NC336011  26.135  37.559   9.466
 2691POPC   PO436012  25.743  38.006   9.611
 2691POPC   GL136013  25.934  37.964   9.204
 2691POPC   GL236014  26.247  37.903   9.088
 2691POPC   C1A36015  25.868  37.743   8.805
 2691POPC   D2A36016  26.001  37.556   8.445
 2691POPC   C3A36017  25.828  37.681   8.059
 2691POPC   C4A36018  25.711  37.345   7.806
 2691POPC   C1B36019  26.372  37.560   8.830
 2691POPC   C2B36020  26.476  37.432   8.418
 2691POPC   C3B36021  26.235  37.348   8.021
 2691POPC   C4B36022  26.177  37.602   7.688
 2692POPC   NC336023  20.887   1.160   9.459
 2692POPC   PO436024  20.457   1.645   9.478
 2692POPC   GL136025  20.392   1.298   9.180
 2692POPC   GL236026  20.501   0.934   9.187
 2692POPC   C1A36027  20.422   1.212   8.739
 2692POPC   D2A36028  20.287   1.161   8.320
 2692POPC   C3A36029  20.618   1.222   8.088
 2692POPC   C4A36030  20.671   1.444   7.755
 2692POPC   C1B36031  20.841   0.932   8.852
 2692POPC   C2B36032  20.915   0.935   8.419
 2692POPC   C3B36033  20.917   0.758   8.015
 2692POPC   C4B36034  20.760   0.952   7.629
 2693POPC   NC336035  29.507  37.130   9.492
 2693POPC   PO436036  28.863  37.155   9.431
 2693POPC   GL136037  29.043  36.855   9.148
 2693POPC   GL236038  29.315  36.629   9.240
 2693POPC   C1A36039  29.012  36.952   8.711
 2693POPC   D2A36040  29.168  36.995   8.320
 2693POPC   C3A36041  29.005  36.990   7.922
 2693POPC   C4A36042  29.262  37.089   7.582
 2693POPC   C1B36043  29.497  36.843   8.864
 2693POPC   C2B36044  29.622  36.769   8.427
 2693POPC   C3B36045  29.544  36.880   7.972
 2693POPC   C4B36046  29.697  36.753   7.548
 2694POPC   NC336047  42.509  24.955   9.755
 2694POPC   PO436048  42.161  25.468   9.488
 2694POPC   GL136049  42.230  25.259   9.136
 2694POPC   GL236050  42.528  25.105   9.113
 2694POPC   C1A36051  42.148  25.149   8.718
 2694POPC   D2A36052  42.325  24.953   8.349
 2694POPC   C3A36053  42.080  25.103   8.020
 2694POPC   C4A36054  42.173  25.260   7.642
 2694POPC   C1B36055  42.546  25.509   8.835
 2694POPC   C2B36056  42.511  25.671   8.433
 2694POPC   C3B36057  42.519  25.395   8.089
 2694POPC   C4B36058  42.560  25.555   7.702
 2695POPC   NC336059  25.932  27.365   9.530
 2695POPC   PO436060  26.291  27.879   9.468
 2695POPC   GL136061  26.205  27.569   9.143
 2695POPC   GL236062  25.867  27.554   9.058
 2695POPC   C1A36063  26.271  27.389   8.745
 2695POPC   D2A36064  26.074  27.298   8.353
 2695POPC   C3A36065  26.052  27.568   8.015
 2695POPC   C4A36066  26.282  27.483   7.661
 2695POPC   C1B36067  25.767  27.174   8.818
 2695POPC   C2B36068  25.659  27.008   8.405
 2695POPC   C3B36069  25.689  27.171   7.980
 2695POPC   C4B36070  25.763  27.468   7.583
 2696POPC   NC336071  35.055  38.408   9.481
 2696POPC   PO436072  35.555  38.866   9.491
 2696POPC   GL136073  35.397  38.585   9.143
 2696POPC   GL236074  35.331  38.253   9.081
 2696POPC   C1A36075  35.288  38.582   8.703
 2696POPC   D2A36076  35.540  38.465   8.342
 2696POPC   C3A36077  35.291  38.666   8.026
 2696POPC   C4A36078  35.105  38.510   7.665
 2696POPC   C1B36079  35.092  38.104   8.738
 2696POPC   C2B36080  35.095  38.257   8.354
 2696POPC   C3B36081  35.300  38.141   8.002
 2696POPC   C4B36082  35.166  38.014   7.626
 2697POPC   NC336083  17.540   8.581   9.503
 2697POPC   PO436084  17.461   7.876   9.600
 2697POPC   GL136085  17.558   7.984   9.162
 2697POPC   GL236086  17.542   8.365   9.042
 2697POPC   C1A36087  17.418   7.999   8.723
 2697POPC   D2A36088  17.431   8.374   8.419
 2697POPC   C3A36089  17.388   8.168   8.037
 2697POPC   C4A36090  17.469   7.762   7.843
 2697POPC   C1B36091  17.863   8.473   8.697
 2697POPC   C2B36092  18.039   8.450   8.275
 2697POPC   C3B36093  17.808   8.533   7.902
 2697POPC   C4B36094  17.841   8.562   7.444
 2698POPC   NC336095   9.047  29.948   9.568
 2698POPC   PO436096   9.206  29.404   9.258
 2698POPC   GL136097   8.968  29.698   9.003
 2698POPC   GL236098   8.722  29.862   9.194
 2698POPC   C1A36099   8.925  29.798   8.543
 2698POPC   D2A36100   8.922  30.215   8.310
 2698POPC   C3A36101   9.254  30.195   7.992
 2698POPC   C4A36102   9.272  30.054   7.543
 2698POPC   C1B36103   8.659  30.123   8.843
 2698POPC   C2B36104   8.454  30.006   8.481
 2698POPC   C3B36105   8.596  29.847   8.117
 2698POPC   C4B36106   8.828  30.020   7.779
 2699POPC   NC336107   3.214  17.521   9.521
 2699POPC   PO436108   3.678  17.068   9.723
 2699POPC   GL136109   3.690  17.356   9.276
 2699POPC   GL236110   3.422  17.516   9.071
 2699POPC   C1A36111   3.849  17.527   8.816
 2699POPC   D2A36112   3.626  17.510   8.402
 2699POPC   C3A36113   3.783  17.654   8.039
 2699POPC   C4A36114   3.965  17.395   7.742
 2699POPC   C1B36115   3.176  17.549   8.702
 2699POPC   C2B36116   3.069  17.556   8.276
 2699POPC   C3B36117   3.305  17.465   7.936
 2699POPC   C4B36118   3.288  17.365   7.513
 2700POPC   NC336119  16.121  41.942   9.542
 2700POPC   PO436120  15.719  41.381   9.700
 2700POPC   GL136121  15.801  41.510   9.244
 2700POPC   GL236122  15.760  41.867   9.184
 2700POPC   C1A36123  16.002  41.406   8.822
 2700POPC   D2A36124  16.115  41.223   8.428
 2700POPC   C3A36125  16.177  41.468   8.045
 2700POPC   C4A36126  15.893  41.524   7.699
 2700POPC   C1B36127  16.091  41.919   8.883
 2700POPC   C2B36128  16.060  41.786   8.469
 2700POPC   C3B36129  15.938  41.934   8.060
 2700POPC   C4B36130  16.195  41.960   7.755
 2701POPC   NC336131   4.953  43.649   9.318
 2701POPC   PO436132   5.405  44.081   9.471
 2701POPC   GL136133   5.110  44.103   9.132
 2701POPC   GL236134   5.265  44.405   9.038
 2701POPC   C1A36135   4.857  43.921   8.758
 2701POPC   D2A36136   4.680  43.983   8.367
 2701POPC   C3A36137   4.865  43.665   8.100
 2701POPC   C4A36138   5.204  43.570   7.816
 2701POPC   C1B36139   5.296  44.133   8.673
 2701POPC   C2B36140   5.194  44.039   8.296
 2701POPC   C3B36141   5.146  44.075   7.912
 2701POPC   C4B36142   5.448  44.027   7.613
 2702POPC   NC336143  13.228  39.430   9.579
 2702POPC   PO436144  13.903  39.166   9.533
 2702POPC   GL136145  13.598  39.261   9.234
 2702POPC   GL236146  13.314  39.033   9.274
 2702POPC   C1A36147  13.718  39.433   8.841
 2702POPC   D2A36148  13.894  39.284   8.457
 2702POPC   C3A36149  13.660  39.403   8.106
 2702POPC   C4A36150  13.642  39.511   7.680
 2702POPC   C1B36151  13.213  39.240   8.891
 2702POPC   C2B36152  13.369  39.250   8.505
 2702POPC   C3B36153  13.257  39.088   8.146
 2702POPC   C4B36154  13.261  39.133   7.718
 2703POPC   NC336155   3.592  31.378   9.589
 2703POPC   PO436156   3.698  32.035   9.605
 2703POPC   GL136157   3.653  31.805   9.217
 2703POPC   GL236158   3.904  31.552   9.242
 2703POPC   C1A36159   3.438  31.653   8.825
 2703POPC   D2A36160   3.271  31.473   8.447
 2703POPC   C3A36161   3.503  31.566   8.083
 2703POPC   C4A36162   3.471  31.462   7.673
 2703POPC   C1B36163   3.973  31.686   8.853
 2703POPC   C2B36164   3.821  31.589   8.479
 2703POPC   C3B36165   4.003  31.365   8.167
 2703POPC   C4B36166   3.954  31.495   7.773
 2704POPC   NC336167  20.447  16.139   9.368
 2704POPC   PO436168  21.023  15.864   9.676
 2704POPC   GL136169  20.958  15.841   9.153
 2704POPC   GL236170  20.560  15.775   9.036
 2704POPC   C1A36171  20.920  15.645   8.726
 2704POPC   D2A36172  20.492  15.650   8.518
 2704POPC   C3A36173  20.518  15.832   8.118
 2704POPC   C4A36174  20.612  15.980   7.700
 2704POPC   C1B36175  20.611  16.092   8.734
 2704POPC   C2B36176  20.470  16.277   8.363
 2704POPC   C3B36177  20.263  16.273   7.984
 2704POPC   C4B36178  20.334  16.374   7.558
 2705POPC   NC336179  42.745   9.005   9.718
 2705POPC   PO436180  42.205   8.830   9.419
 2705POPC   GL136181  42.431   9.058   9.134
 2705POPC   GL236182  42.780   9.044   9.209
 2705POPC   C1A36183  42.290   8.946   8.740
 2705POPC   D2A36184  42.164   8.686   8.404
 2705POPC   C3A36185  42.264   8.903   8.030
 2705POPC   C4A36186  42.091   9.305   7.850
 2705POPC   C1B36187  42.781   8.823   8.809
 2705POPC   C2B36188  42.665   8.983   8.408
 2705POPC   C3B36189  42.785   8.947   8.020
 2705POPC   C4B36190  42.575   8.974   7.644
 2706POPC   NC336191  24.339  15.808   9.856
 2706POPC   PO436192  24.847  16.014   9.430
 2706POPC   GL136193  24.564  16.059   9.135
 2706POPC   GL236194  24.453  15.701   9.137
 2706POPC   C1A36195  24.628  16.298   8.768
 2706POPC   D2A36196  24.430  16.223   8.383
 2706POPC   C3A36197  24.703  15.984   8.128
 2706POPC   C4A36198  24.499  15.866   7.778
 2706POPC   C1B36199  24.369  15.823   8.696
 2706POPC   C2B36200  24.256  15.725   8.249
 2706POPC   C3B36201  24.116  15.547   7.839
 2706POPC   C4B36202  24.224  15.730   7.371
 2707POPC   NC336203   8.530  29.507   9.892
 2707POPC   PO436204   8.301  29.049   9.470
 2707POPC   GL136205   8.069  29.078   9.106
 2707POPC   GL236206   8.369  29.124   8.977
 2707POPC   C1A36207   7.991  29.156   8.649
 2707POPC   D2A36208   8.160  29.070   8.230
 2707POPC   C3A36209   7.889  29.060   7.899
 2707POPC   C4A36210   7.902  29.284   7.554
 2707POPC   C1B36211   8.488  29.042   8.627
 2707POPC   C2B36212   8.528  28.730   8.342
 2707POPC   C3B36213   8.648  28.928   7.978
 2707POPC   C4B36214   8.366  29.013   7.656
 2708POPC   NC336215  18.236   6.087   9.445
 2708POPC   PO436216  18.493   5.452   9.559
 2708POPC   GL136217  18.551   5.697   9.190
 2708POPC   GL236218  18.752   6.005   9.226
 2708POPC   C1A36219  18.229   5.811   8.830
 2708POPC   D2A36220  18.095   5.944   8.397
 2708POPC   C3A36221  18.020   5.604   8.091
 2708POPC   C4A36222  18.251   5.739   7.763
 2708POPC   C1B36223  18.702   6.011   8.809
 2708POPC   C2B36224  18.702   6.313   8.509
 2708POPC   C3B36225  18.529   6.142   8.148
 2708POPC   C4B36226  18.754   5.922   7.818
 2709POPC   NC336227  20.852  19.982   9.576
 2709POPC   PO436228  20.223  20.040   9.244
 2709POPC   GL136229  20.603  19.791   9.149
 2709POPC   GL236230  20.949  19.667   9.196
 2709POPC   C1A36231  20.803  19.911   8.777
 2709POPC   D2A36232  20.658  19.781   8.377
 2709POPC   C3A36233  20.676  19.991   7.979
 2709POPC   C4A36234  20.473  19.852   7.587
 2709POPC   C1B36235  20.912  19.411   8.844
 2709POPC   C2B36236  21.016  19.384   8.431
 2709POPC   C3B36237  21.071  19.632   8.079
 2709POPC   C4B36238  20.825  19.517   7.772
 2710POPC   NC336239   8.520   6.945   9.442
 2710POPC   PO436240   9.161   6.698   9.442
 2710POPC   GL136241   8.898   6.594   9.100
 2710POPC   GL236242   8.761   6.231   9.104
 2710POPC   C1A36243   8.681   6.549   8.718
 2710POPC   D2A36244   8.508   6.337   8.375
 2710POPC   C3A36245   8.603   6.548   8.011
 2710POPC   C4A36246   8.829   6.574   7.629
 2710POPC   C1B36247   9.068   6.198   8.806
 2710POPC   C2B36248   9.065   6.388   8.408
 2710POPC   C3B36249   9.039   6.277   8.000
 2710POPC   C4B36250   9.285   6.333   7.603
 2711POPC   NC336251  27.908  11.973   9.436
 2711POPC   PO436252  27.371  12.399   9.522
 2711POPC   GL136253  27.346  12.232   9.101
 2711POPC   GL236254  27.699  12.255   9.074
 2711POPC   C1A36255  27.502  11.989   8.700
 2711POPC   D2A36256  27.680  12.115   8.298
 2711POPC   C3A36257  27.480  12.068   7.904
 2711POPC   C4A36258  27.489  11.690   7.667
 2711POPC   C1B36259  27.561  12.506   8.719
 2711POPC   C2B36260  27.664  12.617   8.333
 2711POPC   C3B36261  27.842  12.482   7.936
 2711POPC   C4B36262  27.773  12.365   7.500
 2712POPC   NC336263  33.404  34.553   9.511
 2712POPC   PO436264  32.747  34.498   9.453
 2712POPC   GL136265  33.011  34.697   9.180
 2712POPC   GL236266  33.195  34.993   9.315
 2712POPC   C1A36267  33.115  34.539   8.774
 2712POPC   D2A36268  32.896  34.547   8.395
 2712POPC   C3A36269  32.990  34.394   7.995
 2712POPC   C4A36270  32.685  34.346   7.675
 2712POPC   C1B36271  33.198  35.065   8.876
 2712POPC   C2B36272  33.302  34.929   8.473
 2712POPC   C3B36273  33.091  34.909   8.083
 2712POPC   C4B36274  32.935  34.809   7.664
 2713POPC   NC336275  18.332  43.758   9.899
 2713POPC   PO436276  18.402  44.195   9.404
 2713POPC   GL136277  18.245  43.934   9.092
 2713POPC   GL236278  17.982  44.193   8.972
 2713POPC   C1A36279  18.394  43.668   8.746
 2713POPC   D2A36280  18.599  43.493   8.354
 2713POPC   C3A36281  18.558  43.629   7.921
 2713POPC   C4A36282  18.211  43.889   7.784
 2713POPC   C1B36283  18.327  44.209   8.687
 2713POPC   C2B36284  18.345  44.012   8.302
 2713POPC   C3B36285  18.589  44.152   7.995
 2713POPC   C4B36286  18.572  44.281   7.580
 2714POPC   NC336287   7.488  37.916   9.511
 2714POPC   PO436288   7.173  38.531   9.616
 2714POPC   GL136289   7.330  38.390   9.263
 2714POPC   GL236290   7.098  38.125   9.235
 2714POPC   C1A36291   7.450  38.605   8.888
 2714POPC   D2A36292   7.320  38.545   8.481
 2714POPC   C3A36293   7.576  38.515   8.129
 2714POPC   C4A36294   7.409  38.566   7.726
 2714POPC   C1B36295   7.371  38.100   8.844
 2714POPC   C2B36296   7.488  38.067   8.420
 2714POPC   C3B36297   7.244  38.149   8.054
 2714POPC   C4B36298   7.561  38.099   7.755
 2715POPC   NC336299   7.935  35.555   9.301
 2715POPC   PO436300   7.292  35.651   9.334
 2715POPC   GL136301   7.291  35.242   9.149
 2715POPC   GL236302   7.631  35.134   9.185
 2715POPC   C1A36303   7.161  35.208   8.722
 2715POPC   D2A36304   7.041  35.256   8.311
 2715POPC   C3A36305   7.359  35.303   8.023
 2715POPC   C4A36306   7.278  35.723   7.859
 2715POPC   C1B36307   7.646  35.317   8.768
 2715POPC   C2B36308   7.521  35.584   8.444
 2715POPC   C3B36309   7.749  35.668   8.072
 2715POPC   C4B36310   7.691  35.489   7.674
 2716POPC   NC336311  16.373  18.564   9.334
 2716POPC   PO436312  15.817  18.234   9.537
 2716POPC   GL136313  15.889  18.436   9.163
 2716POPC   GL236314  16.141  18.170   9.100
 2716POPC   C1A36315  15.976  18.489   8.728
 2716POPC   D2A36316  16.037  18.661   8.359
 2716POPC   C3A36317  15.924  18.471   8.001
 2716POPC   C4A36318  15.920  18.686   7.633
 2716POPC   C1B36319  15.983  17.989   8.715
 2716POPC   C2B36320  16.001  18.030   8.277
 2716POPC   C3B36321  16.270  18.102   7.975
 2716POPC   C4B36322  16.212  18.182   7.538
 2717POPC   NC336323  12.665  28.885   9.511
 2717POPC   PO436324  13.083  29.431   9.629
 2717POPC   GL136325  13.072  29.156   9.285
 2717POPC   GL236326  12.867  29.393   9.111
 2717POPC   C1A36327  12.895  28.929   8.911
 2717POPC   D2A36328  12.939  29.001   8.494
 2717POPC   C3A36329  12.622  28.945   8.179
 2717POPC   C4A36330  12.647  29.214   7.838
 2717POPC   C1B36331  13.242  29.335   8.809
 2717POPC   C2B36332  13.244  29.419   8.344
 2717POPC   C3B36333  13.159  29.297   7.909
 2717POPC   C4B36334  13.403  29.339   7.495
 2718POPC   NC336335  41.133  25.927   9.498
 2718POPC   PO436336  40.600  26.294   9.427
 2718POPC   GL136337  40.807  26.054   9.141
 2718POPC   GL236338  41.147  26.236   9.097
 2718POPC   C1A36339  40.731  25.790   8.820
 2718POPC   D2A36340  40.723  26.018   8.418
 2718POPC   C3A36341  40.511  25.837   8.085
 2718POPC   C4A36342  40.790  25.690   7.792
 2718POPC   C1B36343  40.919  26.366   8.762
 2718POPC   C2B36344  40.862  26.532   8.340
 2718POPC   C3B36345  40.754  26.297   7.952
 2718POPC   C4B36346  40.915  26.430   7.540
 2719POPC   NC336347  22.314   6.963   9.311
 2719POPC   PO436348  22.079   7.378   9.732
 2719POPC   GL136349  22.152   7.449   9.243
 2719POPC   GL236350  22.153   7.763   9.147
 2719POPC   C1A36351  21.879   7.481   8.813
 2719POPC   D2A36352  21.738   7.443   8.371
 2719POPC   C3A36353  22.010   7.329   8.008
 2719POPC   C4A36354  22.102   7.635   7.680
 2719POPC   C1B36355  22.395   7.541   8.788
 2719POPC   C2B36356  22.309   7.621   8.328
 2719POPC   C3B36357  22.582   7.677   7.933
 2719POPC   C4B36358  22.491   7.898   7.487
 2720POPC   NC336359  18.704  26.640   9.612
 2720POPC   PO436360  18.124  27.020   9.480
 2720POPC   GL136361  18.231  26.773   9.106
 2720POPC   GL236362  18.594  26.870   9.158
 2720POPC   C1A36363  17.985  26.559   8.724
 2720POPC   D2A36364  18.001  26.550   8.223
 2720POPC   C3A36365  18.046  26.980   7.993
 2720POPC   C4A36366  18.406  27.171   7.748
 2720POPC   C1B36367  18.706  26.476   8.940
 2720POPC   C2B36368  18.849  26.459   8.493
 2720POPC   C3B36369  18.606  26.509   8.109
 2720POPC   C4B36370  18.334  26.622   7.767
 2721POPC   NC336371  42.430  16.339   9.519
 2721POPC   PO436372  42.201  16.959   9.579
 2721POPC   GL136373  42.353  16.724   9.192
 2721POPC   GL236374  42.128  16.428   9.115
 2721POPC   C1A36375  42.251  16.827   8.775
 2721POPC   D2A36376  42.174  16.673   8.395
 2721POPC   C3A36377  42.397  16.824   8.023
 2721POPC   C4A36378  42.359  17.173   7.750
 2721POPC   C1B36379  42.422  16.349   8.783
 2721POPC   C2B36380  42.395  16.206   8.357
 2721POPC   C3B36381  42.175  16.354   8.008
 2721POPC   C4B36382  42.291  16.454   7.614
 2722POPC   NC336383  15.842   8.330   9.500
 2722POPC   PO436384  16.481   8.069   9.569
 2722POPC   GL136385  16.229   8.121   9.231
 2722POPC   GL236386  16.223   8.489   9.148
 2722POPC   C1A36387  16.063   8.034   8.834
 2722POPC   D2A36388  15.794   8.166   8.486
 2722POPC   C3A36389  16.041   8.084   8.136
 2722POPC   C4A36390  16.127   7.867   7.734
 2722POPC   C1B36391  15.850   8.517   8.862
 2722POPC   C2B36392  15.733   8.679   8.458
 2722POPC   C3B36393  15.750   8.503   8.052
 2722POPC   C4B36394  16.001   8.342   7.707
 2723POPC   NC336395  17.165  24.183   9.486
 2723POPC   PO436396  17.719  24.719   9.569
 2723POPC   GL136397  17.526  24.544   9.256
 2723POPC   GL236398  17.699  24.227   9.278
 2723POPC   C1A36399  17.465  24.715   8.849
 2723POPC   D2A36400  17.741  24.879   8.514
 2723POPC   C3A36401  17.611  24.734   8.115
 2723POPC   C4A36402  17.551  24.581   7.708
 2723POPC   C1B36403  17.488  24.200   8.893
 2723POPC   C2B36404  17.473  24.358   8.481
 2723POPC   C3B36405  17.501  24.224   8.077
 2723POPC   C4B36406  17.316  24.132   7.685
 2724POPC   NC336407  35.717  16.358   9.525
 2724POPC   PO436408  36.360  16.409   9.466
 2724POPC   GL136409  36.050  16.539   9.153
 2724POPC   GL236410  36.003  16.904   9.193
 2724POPC   C1A36411  35.904  16.659   8.721
 2724POPC   D2A36412  35.808  16.831   8.302
 2724POPC   C3A36413  35.883  16.570   7.915
 2724POPC   C4A36414  35.929  16.625   7.452
 2724POPC   C1B36415  36.341  16.906   8.861
 2724POPC   C2B36416  36.337  16.771   8.405
 2724POPC   C3B36417  36.204  16.984   8.005
 2724POPC   C4B36418  36.491  17.107   7.647
 2725POPC   NC336419  26.587  42.306   9.510
 2725POPC   PO436420  27.287  42.384   9.400
 2725POPC   GL136421  26.952  42.162   9.187
 2725POPC   GL236422  26.794  42.462   9.077
 2725POPC   C1A36423  26.771  42.053   8.783
 2725POPC   D2A36424  26.886  42.183   8.358
 2725POPC   C3A36425  26.883  41.956   7.982
 2725POPC   C4A36426  26.998  42.047   7.578
 2725POPC   C1B36427  26.781  42.606   8.679
 2725POPC   C2B36428  26.596  42.594   8.307
 2725POPC   C3B36429  26.778  42.472   7.896
 2725POPC   C4B36430  27.002  42.532   7.483
 2726POPC   NC336431  41.174  14.526   9.353
 2726POPC   PO436432  40.458  14.525   9.414
 2726POPC   GL136433  40.632  14.291   9.071
 2726POPC   GL236434  40.983  14.310   8.931
 2726POPC   C1A36435  40.599  14.274   8.609
 2726POPC   D2A36436  40.936  14.272   8.308
 2726POPC   C3A36437  40.802  14.071   7.915
 2726POPC   C4A36438  40.341  14.086   7.856
 2726POPC   C1B36439  41.025  14.761   8.789
 2726POPC   C2B36440  41.237  14.890   8.432
 2726POPC   C3B36441  41.055  14.911   8.039
 2726POPC   C4B36442  41.035  14.520   7.853
 2727POPC   NC336443  19.790  10.307   9.573
 2727POPC   PO436444  19.740   9.630   9.530
 2727POPC   GL136445  19.701   9.696   9.114
 2727POPC   GL236446  19.625  10.039   9.155
 2727POPC   C1A36447  19.890   9.563   8.703
 2727POPC   D2A36448  20.009   9.750   8.322
 2727POPC   C3A36449  19.870   9.527   7.974
 2727POPC   C4A36450  19.724   9.676   7.570
 2727POPC   C1B36451  19.625  10.012   8.723
 2727POPC   C2B36452  19.630  10.223   8.329
 2727POPC   C3B36453  19.633  10.436   7.956
 2727POPC   C4B36454  19.542  10.188   7.574
 2728POPC   NC336455  20.513  40.469   9.614
 2728POPC   PO436456  20.992  40.941   9.715
 2728POPC   GL136457  20.812  40.842   9.241
 2728POPC   GL236458  20.672  40.502   9.150
 2728POPC   C1A36459  20.695  40.763   8.756
 2728POPC   D2A36460  20.565  40.617   8.418
 2728POPC   C3A36461  20.365  40.847   8.101
 2728POPC   C4A36462  20.656  40.784   7.724
 2728POPC   C1B36463  20.296  40.404   8.822
 2728POPC   C2B36464  20.116  40.414   8.337
 2728POPC   C3B36465  20.463  40.379   7.975
 2728POPC   C4B36466  20.508  40.362   7.480
 2729POPC   NC336467  36.499  13.589   9.260
 2729POPC   PO436468  36.013  13.947   9.536
 2729POPC   GL136469  36.000  13.820   9.110
 2729POPC   GL236470  35.891  13.482   9.109
 2729POPC   C1A36471  36.184  13.712   8.694
 2729POPC   D2A36472  36.213  13.448   8.343
 2729POPC   C3A36473  36.297  13.618   7.950
 2729POPC   C4A36474  36.116  13.980   7.832
 2729POPC   C1B36475  35.693  13.591   8.694
 2729POPC   C2B36476  35.723  13.490   8.247
 2729POPC   C3B36477  35.736  13.517   7.784
 2729POPC   C4B36478  35.598  13.521   7.318
 2730POPC   NC336479   2.242  16.809   9.736
 2730POPC   PO436480   1.758  16.326   9.502
 2730POPC   GL136481   1.904  16.740   9.321
 2730POPC   GL236482   2.242  16.815   9.196
 2730POPC   C1A36483   1.821  16.925   8.923
 2730POPC   D2A36484   2.061  16.789   8.577
 2730POPC   C3A36485   1.923  16.848   8.134
 2730POPC   C4A36486   1.822  16.643   7.733
 2730POPC   C1B36487   2.352  16.499   8.927
 2730POPC   C2B36488   2.540  16.416   8.556
 2730POPC   C3B36489   2.462  16.666   8.238
 2730POPC   C4B36490   2.284  16.563   7.884
 2731POPC   NC336491  12.769   8.540   9.578
 2731POPC   PO436492  13.105   8.128   9.300
 2731POPC   GL136493  12.817   8.265   9.004
 2731POPC   GL236494  12.548   8.513   9.098
 2731POPC   C1A36495  12.703   8.366   8.588
 2731POPC   D2A36496  12.859   8.133   8.231
 2731POPC   C3A36497  12.958   8.192   7.831
 2731POPC   C4A36498  12.563   8.292   7.650
 2731POPC   C1B36499  12.351   8.125   8.911
 2731POPC   C2B36500  12.439   7.931   8.498
 2731POPC   C3B36501  12.382   8.040   8.069
 2731POPC   C4B36502  12.261   7.849   7.707
 2732POPC   NC336503  32.881  34.071   9.338
 2732POPC   PO436504  33.286  33.666   9.590
 2732POPC   GL136505  33.155  33.685   9.157
 2732POPC   GL236506  32.776  33.613   9.119
 2732POPC   C1A36507  33.222  33.984   8.779
 2732POPC   D2A36508  33.029  34.039   8.378
 2732POPC   C3A36509  33.166  33.887   7.974
 2732POPC   C4A36510  33.369  33.477   7.870
 2732POPC   C1B36511  32.903  33.586   8.719
 2732POPC   C2B36512  32.693  33.588   8.361
 2732POPC   C3B36513  32.835  33.512   7.974
 2732POPC   C4B36514  32.764  33.828   7.641
 2733POPC   NC336515  33.512   6.614   9.590
 2733POPC   PO436516  33.203   7.199   9.457
 2733POPC   GL136517  33.321   6.829   9.146
 2733POPC   GL236518  33.689   6.711   9.122
 2733POPC   C1A36519  33.437   6.700   8.692
 2733POPC   D2A36520  33.657   6.529   8.311
 2733POPC   C3A36521  33.824   6.847   8.005
 2733POPC   C4A36522  33.840   6.889   7.548
 2733POPC   C1B36523  33.945   6.526   8.747
 2733POPC   C2B36524  34.183   6.500   8.316
 2733POPC   C3B36525  34.249   6.553   7.849
 2733POPC   C4B36526  34.030   6.425   7.471
 2734POPC   NC336527   7.618  32.635   9.801
 2734POPC   PO436528   7.462  33.238   9.568
 2734POPC   GL136529   7.500  33.052   9.183
 2734POPC   GL236530   7.608  32.677   9.253
 2734POPC   C1A36531   7.399  33.225   8.754
 2734POPC   D2A36532   7.199  33.245   8.333
 2734POPC   C3A36533   7.453  33.176   7.964
 2734POPC   C4A36534   7.483  32.839   7.662
 2734POPC   C1B36535   7.567  32.725   8.797
 2734POPC   C2B36536   7.714  32.948   8.455
 2734POPC   C3B36537   7.966  32.958   8.103
 2734POPC   C4B36538   7.890  33.137   7.701
 2735POPC   NC336539  27.472  40.964   9.685
 2735POPC   PO436540  26.850  40.655   9.566
 2735POPC   GL136541  26.637  40.775   9.146
 2735POPC   GL236542  26.592  41.126   9.023
 2735POPC   C1A36543  26.488  40.762   8.699
 2735POPC   D2A36544  26.555  41.029   8.362
 2735POPC   C3A36545  26.633  40.712   8.062
 2735POPC   C4A36546  26.637  40.481   7.685
 2735POPC   C1B36547  26.941  40.961   8.764
 2735POPC   C2B36548  27.090  40.768   8.377
 2735POPC   C3B36549  27.373  40.937   8.045
 2735POPC   C4B36550  27.308  40.941   7.594
 2736POPC   NC336551  29.731  27.757   9.537
 2736POPC   PO436552  30.085  27.135   9.437
 2736POPC   GL136553  30.135  27.444   9.148
 2736POPC   GL236554  29.794  27.465   9.110
 2736POPC   C1A36555  30.090  27.602   8.734
 2736POPC   D2A36556  30.268  27.694   8.361
 2736POPC   C3A36557  30.203  27.536   7.953
 2736POPC   C4A36558  30.037  27.728   7.533
 2736POPC   C1B36559  29.706  27.268   8.704
 2736POPC   C2B36560  29.875  27.345   8.298
 2736POPC   C3B36561  29.701  27.608   7.949
 2736POPC   C4B36562  29.458  27.543   7.599
 2737POPC   NC336563  25.821  20.132   9.564
 2737POPC   PO436564  26.443  20.164   9.444
 2737POPC   GL136565  26.193  19.902   9.174
 2737POPC   GL236566  25.961  20.134   9.087
 2737POPC   C1A36567  26.144  19.628   8.797
 2737POPC   D2A36568  25.941  19.608   8.398
 2737POPC   C3A36569  26.127  19.539   7.993
 2737POPC   C4A36570  25.808  19.577   7.692
 2737POPC   C1B36571  26.083  20.134   8.701
 2737POPC   C2B36572  25.825  20.104   8.391
 2737POPC   C3B36573  25.935  19.997   8.011
 2737POPC   C4B36574  25.642  20.059   7.708
 2738POPC   NC336575   5.255  27.169   9.449
 2738POPC   PO436576   5.042  27.810   9.514
 2738POPC   GL136577   5.142  27.574   9.124
 2738POPC   GL236578   4.871  27.287   9.103
 2738POPC   C1A36579   5.284  27.732   8.699
 2738POPC   D2A36580   5.378  27.948   8.315
 2738POPC   C3A36581   5.408  27.667   7.966
 2738POPC   C4A36582   5.091  27.733   7.682
 2738POPC   C1B36583   4.821  27.520   8.697
 2738POPC   C2B36584   4.975  27.570   8.276
 2738POPC   C3B36585   4.960  27.311   7.913
 2738POPC   C4B36586   4.846  27.358   7.462
 2739POPC   NC336587  16.523  20.417   9.496
 2739POPC   PO436588  17.225  20.489   9.428
 2739POPC   GL136589  16.961  20.585   9.099
 2739POPC   GL236590  16.643  20.474   9.022
 2739POPC   C1A36591  16.914  20.715   8.683
 2739POPC   D2A36592  16.633  20.815   8.367
 2739POPC   C3A36593  16.727  20.627   8.010
 2739POPC   C4A36594  16.871  20.609   7.594
 2739POPC   C1B36595  16.373  20.198   8.796
 2739POPC   C2B36596  16.308  19.977   8.410
 2739POPC   C3B36597  16.363  20.168   8.031
 2739POPC   C4B36598  16.492  20.001   7.669
 2740POPC   NC336599   0.698  20.931   9.670
 2740POPC   PO436600   1.230  20.463   9.485
 2740POPC   GL136601   1.262  20.570   9.075
 2740POPC   GL236602   1.599  20.733   9.055
 2740POPC   C1A36603   1.029  20.496   8.686
 2740POPC   D2A36604   0.892  20.374   8.261
 2740POPC   C3A36605   1.236  20.449   7.943
 2740POPC   C4A36606   1.296  20.426   7.479
 2740POPC   C1B36607   1.342  20.911   8.698
 2740POPC   C2B36608   1.078  20.864   8.304
 2740POPC   C3B36609   1.149  21.012   7.898
 2740POPC   C4B36610   1.492  20.865   7.671
 2741POPC   NC336611  41.905   5.007   9.385
 2741POPC   PO436612  41.209   5.172   9.459
 2741POPC   GL136613  41.523   5.245   9.130
 2741POPC   GL236614  41.565   4.939   9.016
 2741POPC   C1A36615  41.757   5.318   8.739
 2741POPC   D2A36616  41.559   5.158   8.375
 2741POPC   C3A36617  41.739   5.203   7.967
 2741POPC   C4A36618  41.619   5.246   7.538
 2741POPC   C1B36619  41.423   4.734   8.659
 2741POPC   C2B36620  41.480   4.639   8.225
 2741POPC   C3B36621  41.521   4.771   7.777
 2741POPC   C4B36622  41.444   4.825   7.323
 2742POPC   NC336623  30.895  14.504   9.489
 2742POPC   PO436624  30.581  13.933   9.272
 2742POPC   GL136625  30.777  14.235   9.034
 2742POPC   GL236626  30.649  14.586   9.062
 2742POPC   C1A36627  30.636  14.300   8.616
 2742POPC   D2A36628  30.952  14.480   8.358
 2742POPC   C3A36629  30.847  14.429   7.932
 2742POPC   C4A36630  30.605  14.247   7.595
 2742POPC   C1B36631  30.680  14.789   8.683
 2742POPC   C2B36632  30.374  14.678   8.356
 2742POPC   C3B36633  30.346  14.586   7.922
 2742POPC   C4B36634  30.621  14.781   7.650
 2743POPC   NC336635  24.328   8.509   9.831
 2743POPC   PO436636  24.772   8.050   9.495
 2743POPC   GL136637  24.518   8.199   9.167
 2743POPC   GL236638  24.761   8.111   8.949
 2743POPC   C1A36639  24.338   8.327   8.747
 2743POPC   D2A36640  24.657   8.302   8.457
 2743POPC   C3A36641  24.468   8.270   8.087
 2743POPC   C4A36642  24.585   8.194   7.716
 2743POPC   C1B36643  24.424   7.840   8.792
 2743POPC   C2B36644  24.238   7.923   8.382
 2743POPC   C3B36645  24.328   7.781   7.922
 2743POPC   C4B36646  24.279   7.889   7.454
 2744POPC   NC336647  34.298  38.891   9.922
 2744POPC   PO436648  34.562  38.470   9.440
 2744POPC   GL136649  34.787  38.370   9.064
 2744POPC   GL236650  34.665  38.044   9.018
 2744POPC   C1A36651  34.766  38.514   8.666
 2744POPC   D2A36652  34.472  38.544   8.350
 2744POPC   C3A36653  34.762  38.504   8.051
 2744POPC   C4A36654  34.829  38.893   7.862
 2744POPC   C1B36655  34.308  38.295   8.806
 2744POPC   C2B36656  34.107  38.181   8.407
 2744POPC   C3B36657  34.362  38.159   8.020
 2744POPC   C4B36658  34.683  38.184   7.641
 2745POPC   NC336659   9.007  16.614   9.602
 2745POPC   PO436660   8.943  17.240   9.730
 2745POPC   GL136661   9.133  17.001   9.270
 2745POPC   GL236662   9.006  16.715   9.127
 2745POPC   C1A36663   9.083  17.014   8.750
 2745POPC   D2A36664   9.103  17.151   8.324
 2745POPC   C3A36665   9.281  16.988   7.968
 2745POPC   C4A36666   9.151  16.899   7.584
 2745POPC   C1B36667   9.168  16.510   8.764
 2745POPC   C2B36668   9.240  16.631   8.346
 2745POPC   C3B36669   8.987  16.541   7.975
 2745POPC   C4B36670   8.926  16.159   7.729
 2746POPC   NC336671   5.724   1.087   9.502
 2746POPC   PO436672   6.029   1.710   9.594
 2746POPC   GL136673   6.028   1.466   9.182
 2746POPC   GL236674   5.722   1.306   9.035
 2746POPC   C1A36675   6.127   1.110   8.847
 2746POPC   D2A36676   6.017   0.873   8.457
 2746POPC   C3A36677   6.122   1.074   8.025
 2746POPC   C4A36678   6.070   1.329   7.632
 2746POPC   C1B36679   5.580   1.059   8.679
 2746POPC   C2B36680   5.511   0.978   8.232
 2746POPC   C3B36681   5.606   1.005   7.779
 2746POPC   C4B36682   5.304   0.970   7.413
 2747POPC   NC336683  18.174  44.736   9.500
 2747POPC   PO436684  18.783  44.574   9.671
 2747POPC   GL136685  18.651  44.574   9.161
 2747POPC   GL236686  18.294  44.604   9.039
 2747POPC   C1A36687  18.643  44.642   8.688
 2747POPC   D2A36688  18.384  44.575   8.324
 2747POPC   C3A36689  18.520  44.662   7.929
 2747POPC   C4A36690  18.130  44.382   7.852
 2747POPC   C1B36691  18.181  44.872   8.681
 2747POPC   C2B36692  17.886  44.923   8.363
 2747POPC   C3B36693  18.059  44.882   7.967
 2747POPC   C4B36694  18.229   0.160   7.692
 2748POPC   NC336695  35.109  21.072   9.924
 2748POPC   PO436696  35.493  21.599   9.435
 2748POPC   GL136697  35.229  21.333   9.206
 2748POPC   GL236698  35.001  21.639   9.161
 2748POPC   C1A36699  35.329  21.076   8.804
 2748POPC   D2A36700  35.537  20.972   8.367
 2748POPC   C3A36701  35.375  21.119   7.969
 2748POPC   C4A36702  35.554  21.546   7.894
 2748POPC   C1B36703  35.146  21.558   8.753
 2748POPC   C2B36704  35.175  21.347   8.384
 2748POPC   C3B36705  35.039  21.529   8.016
 2748POPC   C4B36706  34.815  21.694   7.696
 2749POPC   NC336707  37.720   4.307   9.410
 2749POPC   PO436708  37.683   4.995   9.462
 2749POPC   GL136709  37.459   4.701   9.115
 2749POPC   GL236710  37.316   4.326   9.093
 2749POPC   C1A36711  37.454   4.573   8.675
 2749POPC   D2A36712  37.679   4.369   8.356
 2749POPC   C3A36713  37.583   4.257   7.952
 2749POPC   C4A36714  37.846   4.583   7.749
 2749POPC   C1B36715  37.594   4.072   8.777
 2749POPC   C2B36716  37.772   3.871   8.390
 2749POPC   C3B36717  37.995   3.903   7.980
 2749POPC   C4B36718  37.940   4.118   7.589
 2750POPC   NC336719   9.339  41.433   9.432
 2750POPC   PO436720   8.688  41.423   9.359
 2750POPC   GL136721   8.993  41.618   9.056
 2750POPC   GL236722   9.228  41.895   9.208
 2750POPC   C1A36723   8.910  41.699   8.594
 2750POPC   D2A36724   8.626  41.859   8.261
 2750POPC   C3A36725   8.701  41.748   7.821
 2750POPC   C4A36726   8.669  41.317   7.673
 2750POPC   C1B36727   9.343  41.957   8.770
 2750POPC   C2B36728   9.388  41.675   8.402
 2750POPC   C3B36729   9.194  41.669   8.015
 2750POPC   C4B36730   9.496  41.921   7.828
 2751POPC   NC336731   3.147   1.104   9.605
 2751POPC   PO436732   3.653   1.352   9.800
 2751POPC   GL136733   3.526   1.263   9.322
 2751POPC   GL236734   3.385   0.891   9.198
 2751POPC   C1A36735   3.621   1.241   8.878
 2751POPC   D2A36736   3.600   1.465   8.488
 2751POPC   C3A36737   3.778   1.260   8.134
 2751POPC   C4A36738   3.544   1.277   7.786
 2751POPC   C1B36739   3.232   0.906   8.745
 2751POPC   C2B36740   3.321   1.026   8.279
 2751POPC   C3B36741   3.105   1.043   7.848
 2751POPC   C4B36742   3.365   0.941   7.416
 2752POPC   NC336743  13.252  18.119   9.375
 2752POPC   PO436744  12.708  18.441   9.536
 2752POPC   GL136745  12.851  18.399   9.144
 2752POPC   GL236746  13.104  18.602   9.086
 2752POPC   C1A36747  12.933  18.266   8.726
 2752POPC   D2A36748  12.843  18.411   8.334
 2752POPC   C3A36749  12.855  18.058   8.129
 2752POPC   C4A36750  13.079  17.975   7.788
 2752POPC   C1B36751  13.111  18.737   8.675
 2752POPC   C2B36752  13.277  18.700   8.273
 2752POPC   C3B36753  13.237  18.439   7.919
 2752POPC   C4B36754  13.169  18.360   7.453
 2753POPC   NC336755  16.390   1.471   9.459
 2753POPC   PO436756  16.718   0.863   9.580
 2753POPC   GL136757  16.754   1.092   9.152
 2753POPC   GL236758  17.015   0.955   9.012
 2753POPC   C1A36759  16.784   1.408   8.772
 2753POPC   D2A36760  16.552   1.631   8.427
 2753POPC   C3A36761  16.768   1.488   8.125
 2753POPC   C4A36762  16.711   1.214   7.814
 2753POPC   C1B36763  16.863   0.919   8.675
 2753POPC   C2B36764  16.977   1.074   8.326
 2753POPC   C3B36765  17.098   0.931   7.955
 2753POPC   C4B36766  16.813   0.747   7.650
 2754POPC   NC336767  28.442  34.507   9.444
 2754POPC   PO436768  28.388  33.860   9.617
 2754POPC   GL136769  28.278  34.069   9.190
 2754POPC   GL236770  28.582  34.311   9.012
 2754POPC   C1A36771  28.214  34.154   8.735
 2754POPC   D2A36772  28.528  34.299   8.468
 2754POPC   C3A36773  28.307  34.585   8.211
 2754POPC   C4A36774  28.277  34.579   7.774
 2754POPC   C1B36775  28.648  34.710   8.743
 2754POPC   C2B36776  28.772  34.789   8.285
 2754POPC   C3B36777  28.760  34.832   7.815
 2754POPC   C4B36778  28.942  34.994   7.410
 2755POPC   NC336779   7.078   0.013   9.885
 2755POPC   PO436780   7.612  44.788   9.521
 2755POPC   GL136781   7.492  44.659   9.096
 2755POPC   GL236782   7.158  44.596   9.052
 2755POPC   C1A36783   7.460  44.722   8.681
 2755POPC   D2A36784   7.479  45.000   8.412
 2755POPC   C3A36785   7.631  44.769   8.117
 2755POPC   C4A36786   7.613  44.687   7.712
 2755POPC   C1B36787   6.944  44.834   8.741
 2755POPC   C2B36788   6.978  44.903   8.320
 2755POPC   C3B36789   7.152  44.757   7.985
 2755POPC   C4B36790   7.206  44.964   7.601
 2756POPC   NC336791  30.033  13.227   9.360
 2756POPC   PO436792  29.851  12.645   9.710
 2756POPC   GL136793  29.820  12.602   9.224
 2756POPC   GL236794  29.964  12.885   9.012
 2756POPC   C1A36795  29.782  12.506   8.754
 2756POPC   D2A36796  29.950  12.793   8.463
 2756POPC   C3A36797  29.812  12.738   8.069
 2756POPC   C4A36798  29.484  12.880   7.815
 2756POPC   C1B36799  30.262  13.091   8.735
 2756POPC   C2B36800  30.344  13.340   8.337
 2756POPC   C3B36801  30.332  13.283   7.874
 2756POPC   C4B36802  30.344  13.027   7.481
 2757POPC   NC336803  19.411   1.697   9.448
 2757POPC   PO436804  20.031   2.122   9.612
 2757POPC   GL136805  19.858   1.874   9.193
 2757POPC   GL236806  19.576   1.921   9.041
 2757POPC   C1A36807  19.911   2.038   8.691
 2757POPC   D2A36808  20.219   2.263   8.384
 2757POPC   C3A36809  20.235   2.168   7.935
 2757POPC   C4A36810  19.932   2.201   7.612
 2757POPC   C1B36811  19.371   2.062   8.730
 2757POPC   C2B36812  19.477   1.827   8.388
 2757POPC   C3B36813  19.642   1.887   7.993
 2757POPC   C4B36814  19.460   2.224   7.757
 2758POPC   NC336815  31.134  42.946   9.488
 2758POPC   PO436816  31.766  43.166   9.548
 2758POPC   GL136817  31.540  43.133   9.196
 2758POPC   GL236818  31.482  42.810   9.095
 2758POPC   C1A36819  31.744  43.128   8.812
 2758POPC   D2A36820  31.663  42.938   8.466
 2758POPC   C3A36821  31.756  43.188   8.179
 2758POPC   C4A36822  31.588  43.198   7.759
 2758POPC   C1B36823  31.219  42.840   8.790
 2758POPC   C2B36824  31.108  43.028   8.441
 2758POPC   C3B36825  31.301  42.978   8.091
 2758POPC   C4B36826  31.325  42.740   7.724
 2759POPC   NC336827  23.030  22.508   9.743
 2759POPC   PO436828  22.600  23.040   9.502
 2759POPC   GL136829  22.723  22.967   9.108
 2759POPC   GL236830  23.007  22.758   9.178
 2759POPC   C1A36831  22.757  22.799   8.696
 2759POPC   D2A36832  22.726  22.629   8.280
 2759POPC   C3A36833  22.745  22.963   8.000
 2759POPC   C4A36834  22.781  23.007   7.553
 2759POPC   C1B36835  23.295  22.745   8.829
 2759POPC   C2B36836  23.199  22.792   8.402
 2759POPC   C3B36837  23.150  22.651   7.977
 2759POPC   C4B36838  23.229  23.047   7.755
 2760POPC   NC336839  29.103   0.701   9.983
 2760POPC   PO436840  29.035   0.361   9.350
 2760POPC   GL136841  29.024   0.526   8.999
 2760POPC   GL236842  29.349   0.630   9.066
 2760POPC   C1A36843  28.787   0.306   8.693
 2760POPC   D2A36844  28.900   0.097   8.333
 2760POPC   C3A36845  29.099   0.439   8.107
 2760POPC   C4A36846  29.215   0.481   7.659
 2760POPC   C1B36847  29.340   0.555   8.608
 2760POPC   C2B36848  29.286   0.873   8.316
 2760POPC   C3B36849  29.290   0.915   7.903
 2760POPC   C4B36850  28.959   1.019   7.685
 2761POPC   NC336851  43.814   6.121   9.615
 2761POPC   PO436852  43.514   5.599   9.786
 2761POPC   GL136853  43.704   5.751   9.298
 2761POPC   GL236854  44.082   5.700   9.250
 2761POPC   C1A36855  43.847   5.801   8.819
 2761POPC   D2A36856  43.977   5.727   8.384
 2761POPC   C3A36857  43.727   5.719   7.985
 2761POPC   C4A36858  43.564   6.078   7.741
 2761POPC   C1B36859  44.275   5.504   8.833
 2761POPC   C2B36860  44.293   5.312   8.388
 2761POPC   C3B36861  44.247   5.548   8.005
 2761POPC   C4B36862  44.064   5.565   7.614
 2762POPC   NC336863  30.869  15.421   9.530
 2762POPC   PO436864  30.501  14.820   9.517
 2762POPC   GL136865  30.566  15.101   9.222
 2762POPC   GL236866  30.914  15.014   9.210
 2762POPC   C1A36867  30.392  15.206   8.833
 2762POPC   D2A36868  30.520  15.199   8.443
 2762POPC   C3A36869  30.598  15.053   8.074
 2762POPC   C4A36870  30.567  15.296   7.723
 2762POPC   C1B36871  30.917  15.209   8.833
 2762POPC   C2B36872  31.035  15.124   8.416
 2762POPC   C3B36873  31.088  14.886   8.072
 2762POPC   C4B36874  31.032  15.107   7.717
 2763POPC   NC336875   3.952   6.342   9.396
 2763POPC   PO436876   4.616   6.336   9.668
 2763POPC   GL136877   4.461   6.618   9.254
 2763POPC   GL236878   4.114   6.736   9.141
 2763POPC   C1A36879   4.363   6.518   8.782
 2763POPC   D2A36880   4.569   6.444   8.390
 2763POPC   C3A36881   4.272   6.502   8.089
 2763POPC   C4A36882   4.225   6.600   7.674
 2763POPC   C1B36883   3.867   6.879   8.799
 2763POPC   C2B36884   3.941   6.810   8.373
 2763POPC   C3B36885   3.838   6.894   7.961
 2763POPC   C4B36886   3.922   7.247   7.699
 2764POPC   NC336887  25.480  43.638   9.742
 2764POPC   PO436888  25.006  43.266   9.429
 2764POPC   GL136889  25.293  43.167   9.079
 2764POPC   GL236890  25.647  43.079   9.178
 2764POPC   C1A36891  25.376  43.010   8.647
 2764POPC   D2A36892  25.275  42.798   8.308
 2764POPC   C3A36893  25.097  43.087   8.024
 2764POPC   C4A36894  25.217  42.985   7.634
 2764POPC   C1B36895  25.770  43.269   8.774
 2764POPC   C2B36896  25.569  43.432   8.448
 2764POPC   C3B36897  25.580  43.187   8.100
 2764POPC   C4B36898  25.469  43.407   7.720
 2765POPC   NC336899  42.352  34.186   9.580
 2765POPC   PO436900  42.189  34.864   9.531
 2765POPC   GL136901  42.408  34.662   9.201
 2765POPC   GL236902  42.304  34.316   9.092
 2765POPC   C1A36903  42.298  34.687   8.762
 2765POPC   D2A36904  42.030  34.765   8.457
 2765POPC   C3A36905  42.287  34.824   8.134
 2765POPC   C4A36906  42.134  34.589   7.835
 2765POPC   C1B36907  42.696  34.383   8.866
 2765POPC   C2B36908  42.663  34.481   8.425
 2765POPC   C3B36909  42.719  34.597   7.995
 2765POPC   C4B36910  42.574  34.501   7.584
 2766POPC   NC336911   3.135  27.802   9.435
 2766POPC   PO436912   2.492  27.494   9.485
 2766POPC   GL136913   2.795  27.468   9.165
 2766POPC   GL236914   2.592  27.172   9.078
 2766POPC   C1A36915   2.949  27.634   8.781
 2766POPC   D2A36916   2.779  27.723   8.421
 2766POPC   C3A36917   3.011  27.761   8.107
 2766POPC   C4A36918   3.020  27.869   7.747
 2766POPC   C1B36919   2.409  27.501   8.805
 2766POPC   C2B36920   2.303  27.562   8.368
 2766POPC   C3B36921   2.405  27.459   7.953
 2766POPC   C4B36922   2.474  27.039   7.809
 2767POPC   NC336923   0.727  18.034   9.494
 2767POPC   PO436924   1.187  17.498   9.548
 2767POPC   GL136925   1.349  17.530   9.156
 2767POPC   GL236926   1.034  17.495   9.063
 2767POPC   C1A36927   1.467  17.300   8.849
 2767POPC   D2A36928   1.263  17.403   8.510
 2767POPC   C3A36929   1.469  17.693   8.292
 2767POPC   C4A36930   1.383  17.606   7.895
 2767POPC   C1B36931   0.749  17.626   8.841
 2767POPC   C2B36932   0.718  17.369   8.494
 2767POPC   C3B36933   0.924  17.441   8.112
 2767POPC   C4B36934   0.908  17.626   7.722
 2768POPC   NC336935   4.803  39.109   9.662
 2768POPC   PO436936   5.463  39.332   9.616
 2768POPC   GL136937   5.200  39.194   9.263
 2768POPC   GL236938   5.206  38.840   9.290
 2768POPC   C1A36939   5.263  39.372   8.820
 2768POPC   D2A36940   5.055  39.637   8.484
 2768POPC   C3A36941   5.001  39.510   8.064
 2768POPC   C4A36942   5.374  39.425   7.839
 2768POPC   C1B36943   5.221  38.843   8.833
 2768POPC   C2B36944   5.160  39.058   8.407
 2768POPC   C3B36945   5.249  38.895   7.982
 2768POPC   C4B36946   5.094  38.840   7.560
 2769POPC   NC336947  44.766   5.822   9.559
 2769POPC   PO436948  44.248   6.235   9.549
 2769POPC   GL136949  44.467   6.070   9.189
 2769POPC   GL236950  44.824   6.047   9.121
 2769POPC   C1A36951  44.506   5.979   8.752
 2769POPC   D2A36952  44.501   5.778   8.399
 2769POPC   C3A36953  44.430   6.014   8.065
 2769POPC   C4A36954  44.518   5.849   7.673
 2769POPC   C1B36955  44.908   5.680   8.864
 2769POPC   C2B36956   0.014   5.820   8.447
 2769POPC   C3B36957  44.923   5.858   8.006
 2769POPC   C4B36958  44.962   5.616   7.614
 2770POPC   NC336959   0.624  23.179   9.635
 2770POPC   PO436960   0.660  23.795   9.555
 2770POPC   GL136961   0.528  23.815   9.134
 2770POPC   GL236962   0.792  23.892   8.875
 2770POPC   C1A36963   0.282  23.864   8.749
 2770POPC   D2A36964   0.510  23.850   8.337
 2770POPC   C3A36965   0.328  23.706   7.918
 2770POPC   C4A36966   0.165  23.297   7.790
 2770POPC   C1B36967   0.606  23.460   8.756
 2770POPC   C2B36968   0.756  23.261   8.403
 2770POPC   C3B36969   0.749  23.479   8.047
 2770POPC   C4B36970   0.802  23.933   7.915
 2771POPC   NC336971   0.944   2.827   9.573
 2771POPC   PO436972   0.937   3.361   9.180
 2771POPC   GL136973   1.176   2.971   9.122
 2771POPC   GL236974   1.050   2.611   9.119
 2771POPC   C1A36975   1.274   2.809   8.708
 2771POPC   D2A36976   1.448   2.858   8.280
 2771POPC   C3A36977   1.210   3.117   8.000
 2771POPC   C4A36978   1.014   2.882   7.698
 2771POPC   C1B36979   0.791   2.368   8.841
 2771POPC   C2B36980   0.700   2.401   8.407
 2771POPC   C3B36981   0.840   2.493   7.983
 2771POPC   C4B36982   1.253   2.430   7.763
 2772POPC   NC336983   0.610  16.379   9.778
 2772POPC   PO436984   0.364  16.934   9.471
 2772POPC   GL136985   0.491  16.696   9.163
 2772POPC   GL236986   0.660  16.453   9.277
 2772POPC   C1A36987   0.354  16.408   8.840
 2772POPC   D2A36988   0.185  16.324   8.444
 2772POPC   C3A36989   0.236  16.637   8.148
 2772POPC   C4A36990   0.399  16.775   7.748
 2772POPC   C1B36991   0.847  16.553   8.860
 2772POPC   C2B36992   0.637  16.646   8.478
 2772POPC   C3B36993   0.780  16.669   8.079
 2772POPC   C4B36994   0.863  16.579   7.694
 2773POPC   NC336995   2.511  10.451   9.491
 2773POPC   PO436996   3.162  10.634   9.594
 2773POPC   GL136997   2.939  10.692   9.135
 2773POPC   GL236998   3.137  10.805   8.848
 2773POPC   C1A36999   2.629  10.840   8.758
 2773POPC   D2A37000   2.718  10.790   8.299
 2773POPC   C3A37001   2.511  10.601   7.925
 2773POPC   C4A37002   2.445  10.170   7.743
 2773POPC   C1B37003   2.863  10.402   8.722
 2773POPC   C2B37004   2.730  10.203   8.348
 2773POPC   C3B37005   2.932  10.325   7.999
 2773POPC   C4B37006   3.007  10.738   7.862
 2774POPC   NC337007  30.824  30.132   9.420
 2774POPC   PO437008  30.670  29.572   9.690
 2774POPC   GL137009  30.710  29.612   9.203
 2774POPC   GL237010  30.838  29.905   8.986
 2774POPC   C1A37011  30.728  29.499   8.739
 2774POPC   D2A37012  30.778  29.864   8.432
 2774POPC   C3A37013  30.852  29.805   7.983
 2774POPC   C4A37014  30.464  29.751   7.784
 2774POPC   C1B37015  30.702  30.263   8.743
 2774POPC   C2B37016  30.759  30.387   8.324
 2774POPC   C3B37017  30.570  30.266   7.940
 2774POPC   C4B37018  30.682  30.163   7.507
 2775POPC   NC337019  17.272   2.615   9.530
 2775POPC   PO437020  17.195   3.281   9.368
 2775POPC   GL137021  17.490   2.949   9.126
 2775POPC   GL237022  17.493   2.544   9.101
 2775POPC   C1A37023  17.505   2.818   8.684
 2775POPC   D2A37024  17.219   2.822   8.345
 2775POPC   C3A37025  17.378   2.802   7.932
 2775POPC   C4A37026  17.819   2.702   7.847
 2775POPC   C1B37027  17.664   2.340   8.725
 2775POPC   C2B37028  17.700   2.451   8.294
 2775POPC   C3B37029  17.512   2.307   7.922
 2775POPC   C4B37030  17.115   2.368   7.820
 2776POPC   NC337031  41.859  25.022   9.399
 2776POPC   PO437032  41.279  25.483   9.504
 2776POPC   GL137033  41.482  25.258   9.144
 2776POPC   GL237034  41.757  25.434   9.056
 2776POPC   C1A37035  41.638  24.968   8.782
 2776POPC   D2A37036  41.405  24.847   8.407
 2776POPC   C3A37037  41.474  25.032   7.997
 2776POPC   C4A37038  41.765  24.950   7.639
 2776POPC   C1B37039  41.557  25.475   8.655
 2776POPC   C2B37040  41.735  25.402   8.241
 2776POPC   C3B37041  41.718  25.448   7.782
 2776POPC   C4B37042  41.487  25.735   7.470
 2777POPC   NC337043  41.457   5.598   9.482
 2777POPC   PO437044  41.724   6.224   9.479
 2777POPC   GL137045  41.577   6.102   9.110
 2777POPC   GL237046  41.259   5.985   9.061
 2777POPC   C1A37047  41.653   6.026   8.694
 2777POPC   D2A37048  41.627   5.750   8.346
 2777POPC   C3A37049  41.426   6.014   8.024
 2777POPC   C4A37050  41.620   6.142   7.591
 2777POPC   C1B37051  41.341   5.630   8.808
 2777POPC   C2B37052  41.181   5.508   8.413
 2777POPC   C3B37053  41.310   5.493   7.995
 2777POPC   C4B37054  41.261   5.746   7.643
 2778POPC   NC337055  26.751   0.994   9.470
 2778POPC   PO437056  26.226   1.383   9.500
 2778POPC   GL137057  26.454   1.201   9.099
 2778POPC   GL237058  26.825   1.260   9.039
 2778POPC   C1A37059  26.657   0.932   8.718
 2778POPC   D2A37060  26.931   0.902   8.368
 2778POPC   C3A37061  26.650   0.954   8.037
 2778POPC   C4A37062  26.499   1.229   7.769
 2778POPC   C1B37063  27.095   1.449   8.741
 2778POPC   C2B37064  27.273   1.430   8.314
 2778POPC   C3B37065  27.058   1.241   7.962
 2778POPC   C4B37066  27.225   0.986   7.635
 2779POPC   NC337067   2.970  19.264   9.636
 2779POPC   PO437068   3.460  18.789   9.365
 2779POPC   GL137069   3.411  19.131   8.997
 2779POPC   GL237070   3.043  19.371   9.029
 2779POPC   C1A37071   3.727  19.129   8.669
 2779POPC   D2A37072   3.982  19.123   8.315
 2779POPC   C3A37073   3.753  18.988   7.950
 2779POPC   C4A37074   3.294  19.007   7.785
 2779POPC   C1B37075   3.192  19.348   8.614
 2779POPC   C2B37076   3.411  19.315   8.240
 2779POPC   C3B37077   3.172  19.463   7.936
 2779POPC   C4B37078   3.252  19.556   7.535
 2780POPC   NC337079  25.977  21.100   9.607
 2780POPC   PO437080  25.769  21.690   9.452
 2780POPC   GL137081  25.827  21.386   9.180
 2780POPC   GL237082  26.186  21.382   9.207
 2780POPC   C1A37083  25.760  21.437   8.761
 2780POPC   D2A37084  26.042  21.421   8.449
 2780POPC   C3A37085  25.946  21.577   8.086
 2780POPC   C4A37086  25.886  21.478   7.682
 2780POPC   C1B37087  26.413  21.293   8.831
 2780POPC   C2B37088  26.362  21.037   8.466
 2780POPC   C3B37089  26.399  21.267   8.069
 2780POPC   C4B37090  26.266  21.148   7.687
 2781POPC   NC337091  15.226  37.234   9.580
 2781POPC   PO437092  15.281  36.674   9.858
 2781POPC   GL137093  15.208  36.801   9.326
 2781POPC   GL237094  15.528  36.828   9.143
 2781POPC   C1A37095  15.009  36.959   8.901
 2781POPC   D2A37096  15.022  37.173   8.470
 2781POPC   C3A37097  15.070  36.983   8.033
 2781POPC   C4A37098  15.441  36.940   7.770
 2781POPC   C1B37099  15.353  36.606   8.763
 2781POPC   C2B37100  15.193  36.604   8.351
 2781POPC   C3B37101  15.339  36.468   7.940
 2781POPC   C4B37102  15.371  36.517   7.456
 2782POPC   NC337103  23.971  23.095   9.497
 2782POPC   PO437104  23.311  22.837   9.593
 2782POPC   GL137105  23.497  23.042   9.216
 2782POPC   GL237106  23.807  22.878   9.079
 2782POPC   C1A37107  23.579  23.205   8.782
 2782POPC   D2A37108  23.808  23.040   8.448
 2782POPC   C3A37109  23.596  22.899   8.082
 2782POPC   C4A37110  23.575  22.671   7.694
 2782POPC   C1B37111  24.148  23.103   8.834
 2782POPC   C2B37112  24.317  22.953   8.443
 2782POPC   C3B37113  24.097  22.777   8.095
 2782POPC   C4B37114  23.956  23.018   7.719
 2783POPC   NC337115  18.788  15.734   9.478
 2783POPC   PO437116  19.285  16.161   9.437
 2783POPC   GL137117  19.105  15.948   9.116
 2783POPC   GL237118  18.792  16.102   9.115
 2783POPC   C1A37119  19.132  15.972   8.692
 2783POPC   D2A37120  19.358  16.127   8.368
 2783POPC   C3A37121  19.172  15.972   8.023
 2783POPC   C4A37122  18.960  16.210   7.750
 2783POPC   C1B37123  18.692  15.739   8.819
 2783POPC   C2B37124  18.800  15.592   8.400
 2783POPC   C3B37125  18.710  15.719   7.974
 2783POPC   C4B37126  18.933  15.728   7.595
 2784POPC   NC337127  35.800  41.747   9.562
 2784POPC   PO437128  36.298  41.327   9.547
 2784POPC   GL137129  36.125  41.542   9.187
 2784POPC   GL237130  35.785  41.546   9.111
 2784POPC   C1A37131  36.210  41.407   8.795
 2784POPC   D2A37132  36.403  41.590   8.441
 2784POPC   C3A37133  36.216  41.503   8.065
 2784POPC   C4A37134  36.119  41.299   7.694
 2784POPC   C1B37135  35.625  41.612   8.720
 2784POPC   C2B37136  35.784  41.704   8.298
 2784POPC   C3B37137  35.712  41.584   7.864
 2784POPC   C4B37138  35.762  41.551   7.399
 2785POPC   NC337139   4.074  13.319   9.791
 2785POPC   PO437140   4.388  12.871   9.382
 2785POPC   GL137141   4.353  12.689   8.996
 2785POPC   GL237142   4.168  12.999   8.891
 2785POPC   C1A37143   4.123  12.582   8.616
 2785POPC   D2A37144   4.003  12.862   8.270
 2785POPC   C3A37145   4.123  12.696   7.879
 2785POPC   C4A37146   4.344  12.607   7.521
 2785POPC   C1B37147   4.595  13.086   8.788
 2785POPC   C2B37148   4.651  13.177   8.396
 2785POPC   C3B37149   4.448  13.088   8.018
 2785POPC   C4B37150   4.361  13.225   7.603
 2786POPC   NC337151   3.408   4.616   9.406
 2786POPC   PO437152   3.609   5.284   9.517
 2786POPC   GL137153   3.536   5.129   9.137
 2786POPC   GL237154   3.208   5.238   9.126
 2786POPC   C1A37155   3.516   5.288   8.694
 2786POPC   D2A37156   3.735   5.259   8.310
 2786POPC   C3A37157   3.526   5.337   7.941
 2786POPC   C4A37158   3.764   5.215   7.542
 2786POPC   C1B37159   3.260   4.860   8.816
 2786POPC   C2B37160   3.554   4.787   8.474
 2786POPC   C3B37161   3.563   4.825   8.031
 2786POPC   C4B37162   3.296   4.949   7.708
 2787POPC   NC337163   9.979  13.778   9.468
 2787POPC   PO437164   9.495  13.244   9.526
 2787POPC   GL137165   9.633  13.505   9.204
 2787POPC   GL237166   9.980  13.413   9.108
 2787POPC   C1A37167   9.577  13.752   8.821
 2787POPC   D2A37168   9.350  13.651   8.425
 2787POPC   C3A37169   9.569  13.538   8.027
 2787POPC   C4A37170   9.643  13.772   7.624
 2787POPC   C1B37171  10.138  13.475   8.708
 2787POPC   C2B37172   9.922  13.682   8.375
 2787POPC   C3B37173  10.055  13.704   7.935
 2787POPC   C4B37174  10.108  13.595   7.503
 2788POPC   NC337175   7.484  38.908   9.636
 2788POPC   PO437176   7.027  39.460   9.574
 2788POPC   GL137177   7.411  39.330   9.265
 2788POPC   GL237178   7.785  39.260   9.304
 2788POPC   C1A37179   7.399  39.466   8.817
 2788POPC   D2A37180   7.114  39.408   8.454
 2788POPC   C3A37181   7.301  39.373   8.032
 2788POPC   C4A37182   7.159  39.636   7.681
 2788POPC   C1B37183   7.696  39.058   8.906
 2788POPC   C2B37184   7.484  39.035   8.498
 2788POPC   C3B37185   7.666  39.011   8.089
 2788POPC   C4B37186   7.649  39.025   7.655
 2789POPC   NC337187  19.920  11.316   9.573
 2789POPC   PO437188  19.768  10.752   9.481
 2789POPC   GL137189  19.727  11.123   9.138
 2789POPC   GL237190  20.060  11.318   9.079
 2789POPC   C1A37191  19.665  11.441   8.775
 2789POPC   D2A37192  19.915  11.601   8.404
 2789POPC   C3A37193  19.901  11.441   7.985
 2789POPC   C4A37194  19.492  11.486   7.838
 2789POPC   C1B37195  20.072  11.148   8.645
 2789POPC   C2B37196  19.916  10.938   8.269
 2789POPC   C3B37197  20.055  10.936   7.857
 2789POPC   C4B37198  20.289  11.249   7.630
 2790POPC   NC337199   6.840  17.350   9.500
 2790POPC   PO437200   6.310  17.831   9.478
 2790POPC   GL137201   6.214  17.688   9.075
 2790POPC   GL237202   6.466  17.437   9.094
 2790POPC   C1A37203   6.364  17.614   8.629
 2790POPC   D2A37204   6.680  17.366   8.362
 2790POPC   C3A37205   6.663  17.433   7.917
 2790POPC   C4A37206   6.516  17.823   7.753
 2790POPC   C1B37207   6.743  17.774   8.959
 2790POPC   C2B37208   6.856  17.823   8.540
 2790POPC   C3B37209   7.042  17.723   8.143
 2790POPC   C4B37210   7.022  17.874   7.712
 2791POPC   NC337211  35.635  17.212   9.424
 2791POPC   PO437212  35.124  17.595   9.378
 2791POPC   GL137213  35.456  17.591   9.128
 2791POPC   GL237214  35.681  17.859   9.131
 2791POPC   C1A37215  35.520  17.388   8.751
 2791POPC   D2A37216  35.527  17.252   8.322
 2791POPC   C3A37217  35.528  17.518   7.942
 2791POPC   C4A37218  35.098  17.689   7.816
 2791POPC   C1B37219  35.553  17.907   8.743
 2791POPC   C2B37220  35.395  17.772   8.376
 2791POPC   C3B37221  35.468  18.000   8.014
 2791POPC   C4B37222  35.724  17.939   7.681
 2792POPC   NC337223   7.059   8.479   9.532
 2792POPC   PO437224   6.467   8.229   9.563
 2792POPC   GL137225   6.727   8.228   9.204
 2792POPC   GL237226   6.812   7.952   9.113
 2792POPC   C1A37227   6.645   8.313   8.749
 2792POPC   D2A37228   6.348   8.277   8.359
 2792POPC   C3A37229   6.599   8.325   7.955
 2792POPC   C4A37230   6.847   8.428   7.574
 2792POPC   C1B37231   6.966   7.888   8.735
 2792POPC   C2B37232   6.742   7.926   8.373
 2792POPC   C3B37233   6.823   7.833   7.980
 2792POPC   C4B37234   6.726   7.927   7.595
 2793POPC   NC337235   0.608   5.309   9.835
 2793POPC   PO437236   1.237   5.017   9.689
 2793POPC   GL137237   1.063   5.126   9.304
 2793POPC   GL237238   1.183   5.489   9.274
 2793POPC   C1A37239   1.150   4.882   8.936
 2793POPC   D2A37240   1.211   4.853   8.492
 2793POPC   C3A37241   1.053   5.181   8.244
 2793POPC   C4A37242   1.058   5.251   7.788
 2793POPC   C1B37243   1.458   5.295   8.958
 2793POPC   C2B37244   1.656   5.188   8.564
 2793POPC   C3B37245   1.573   5.241   8.121
 2793POPC   C4B37246   1.511   4.954   7.772
 2794POPC   NC337247   3.237  12.806   9.600
 2794POPC   PO437248   3.697  13.154   9.566
 2794POPC   GL137249   3.376  13.121   9.217
 2794POPC   GL237250   3.605  13.298   9.049
 2794POPC   C1A37251   3.322  12.906   8.802
 2794POPC   D2A37252   3.607  12.627   8.525
 2794POPC   C3A37253   3.590  12.545   8.057
 2794POPC   C4A37254   3.654  12.707   7.625
 2794POPC   C1B37255   3.741  13.170   8.647
 2794POPC   C2B37256   3.478  13.085   8.315
 2794POPC   C3B37257   3.483  13.079   7.908
 2794POPC   C4B37258   3.899  13.159   7.788
 2795POPC   NC337259   8.099  30.267   9.555
 2795POPC   PO437260   8.350  30.885   9.545
 2795POPC   GL137261   8.232  30.722   9.152
 2795POPC   GL237262   8.452  30.422   9.195
 2795POPC   C1A37263   8.011  30.793   8.747
 2795POPC   D2A37264   8.036  30.874   8.302
 2795POPC   C3A37265   7.968  30.557   7.989
 2795POPC   C4A37266   8.072  30.709   7.604
 2795POPC   C1B37267   8.150  30.298   8.862
 2795POPC   C2B37268   8.166  30.407   8.443
 2795POPC   C3B37269   8.432  30.327   8.075
 2795POPC   C4B37270   8.397  30.276   7.648
 2796POPC   NC337271  39.412  32.782   9.374
 2796POPC   PO437272  39.600  32.196   9.687
 2796POPC   GL137273  39.257  32.243   9.301
 2796POPC   GL237274  39.018  31.944   9.216
 2796POPC   C1A37275  39.161  32.448   8.859
 2796POPC   D2A37276  39.430  32.592   8.502
 2796POPC   C3A37277  39.368  32.404   8.097
 2796POPC   C4A37278  39.409  32.257   7.703
 2796POPC   C1B37279  39.271  31.944   8.819
 2796POPC   C2B37280  39.327  31.967   8.355
 2796POPC   C3B37281  39.040  31.998   7.979
 2796POPC   C4B37282  38.939  31.767   7.594
 2797POPC   NC337283  30.250  37.912   9.467
 2797POPC   PO437284  29.838  37.443   9.585
 2797POPC   GL137285  30.004  37.539   9.196
 2797POPC   GL237286  29.699  37.436   9.069
 2797POPC   C1A37287  30.195  37.549   8.784
 2797POPC   D2A37288  30.051  37.601   8.382
 2797POPC   C3A37289  30.129  37.582   7.934
 2797POPC   C4A37290  29.969  37.925   7.653
 2797POPC   C1B37291  29.380  37.340   8.782
 2797POPC   C2B37292  29.506  37.352   8.381
 2797POPC   C3B37293  29.370  37.386   7.981
 2797POPC   C4B37294  29.611  37.562   7.648
 2798POPC   NC337295  22.405  36.119   9.379
 2798POPC   PO437296  21.756  36.112   9.422
 2798POPC   GL137297  22.013  36.291   9.083
 2798POPC   GL237298  22.305  36.553   9.113
 2798POPC   C1A37299  21.921  36.172   8.682
 2798POPC   D2A37300  21.749  36.335   8.324
 2798POPC   C3A37301  21.911  36.202   7.945
 2798POPC   C4A37302  21.981  35.793   7.769
 2798POPC   C1B37303  22.422  36.302   8.722
 2798POPC   C2B37304  22.278  36.113   8.323
 2798POPC   C3B37305  22.444  36.011   7.939
 2798POPC   C4B37306  22.346  36.383   7.753
 2799POPC   NC337307  44.329   6.680   9.507
 2799POPC   PO437308  44.975   6.311   9.528
 2799POPC   GL137309  44.741   6.554   9.194
 2799POPC   GL237310  44.520   6.842   9.065
 2799POPC   C1A37311  44.776   6.545   8.749
 2799POPC   D2A37312  44.612   6.345   8.392
 2799POPC   C3A37313  44.789   6.375   7.979
 2799POPC   C4A37314  44.732   6.770   7.816
 2799POPC   C1B37315  44.245   6.950   8.714
 2799POPC   C2B37316  44.136   6.693   8.356
 2799POPC   C3B37317  44.295   6.527   7.979
 2799POPC   C4B37318  44.219   6.770   7.581
 2800POPC   NC337319  43.065  42.140   9.506
 2800POPC   PO437320  43.220  42.761   9.726
 2800POPC   GL137321  43.256  42.529   9.257
 2800POPC   GL237322  43.003  42.359   9.041
 2800POPC   C1A37323  43.472  42.298   8.864
 2800POPC   D2A37324  43.245  42.195   8.467
 2800POPC   C3A37325  43.366  42.347   8.081
 2800POPC   C4A37326  43.331  42.343   7.695
 2800POPC   C1B37327  42.798  42.392   8.642
 2800POPC   C2B37328  42.848  42.550   8.244
 2800POPC   C3B37329  42.876  42.289   7.891
 2800POPC   C4B37330  42.737  42.130   7.487
 2801POPC   NC337331   7.155  19.354   9.361
 2801POPC   PO437332   7.666  19.019   9.667
 2801POPC   GL137333   7.571  19.071   9.217
 2801POPC   GL237334   7.756  18.843   9.101
 2801POPC   C1A37335   7.585  19.301   8.800
 2801POPC   D2A37336   7.449  19.391   8.378
 2801POPC   C3A37337   7.308  19.056   8.100
 2801POPC   C4A37338   7.196  19.251   7.740
 2801POPC   C1B37339   7.686  18.825   8.665
 2801POPC   C2B37340   7.851  19.060   8.337
 2801POPC   C3B37341   7.747  19.269   7.963
 2801POPC   C4B37342   7.711  19.017   7.626
 2802POPC   NC337343  13.437  13.876   9.564
 2802POPC   PO437344  13.316  13.178   9.475
 2802POPC   GL137345  13.484  13.553   9.162
 2802POPC   GL237346  13.228  13.853   9.128
 2802POPC   C1A37347  13.697  13.843   8.804
 2802POPC   D2A37348  13.918  13.769   8.406
 2802POPC   C3A37349  13.753  13.954   8.041
 2802POPC   C4A37350  13.586  13.688   7.743
 2802POPC   C1B37351  13.204  13.722   8.762
 2802POPC   C2B37352  13.416  13.670   8.408
 2802POPC   C3B37353  13.266  13.874   8.085
 2802POPC   C4B37354  13.173  14.038   7.674
 2803POPC   NC337355   4.752  15.452   9.462
 2803POPC   PO437356   5.423  15.162   9.577
 2803POPC   GL137357   5.176  15.167   9.218
 2803POPC   GL237358   4.876  14.964   9.273
 2803POPC   C1A37359   5.172  15.260   8.777
 2803POPC   D2A37360   4.892  15.215   8.429
 2803POPC   C3A37361   4.937  15.378   8.023
 2803POPC   C4A37362   5.249  15.265   7.727
 2803POPC   C1B37363   4.937  14.809   8.865
 2803POPC   C2B37364   5.013  14.688   8.470
 2803POPC   C3B37365   5.075  14.874   8.091
 2803POPC   C4B37366   4.858  14.948   7.733
 2804POPC   NC337367  11.011  43.511   9.316
 2804POPC   PO437368  10.611  43.932   9.633
 2804POPC   GL137369  10.758  43.972   9.178
 2804POPC   GL237370  10.611  43.658   9.050
 2804POPC   C1A37371  10.637  44.019   8.707
 2804POPC   D2A37372  10.392  43.733   8.456
 2804POPC   C3A37373  10.467  43.840   8.048
 2804POPC   C4A37374  10.283  43.783   7.682
 2804POPC   C1B37375  10.865  43.561   8.687
 2804POPC   C2B37376  10.740  43.362   8.345
 2804POPC   C3B37377  10.754  43.433   7.927
 2804POPC   C4B37378  10.977  43.642   7.657
 2805POPC   NC337379   8.260  38.556   9.637
 2805POPC   PO437380   7.968  37.936   9.493
 2805POPC   GL137381   8.130  38.115   9.116
 2805POPC   GL237382   8.394  38.395   9.159
 2805POPC   C1A37383   7.862  38.240   8.763
 2805POPC   D2A37384   7.843  38.644   8.549
 2805POPC   C3A37385   8.075  38.675   8.170
 2805POPC   C4A37386   7.928  38.567   7.747
 2805POPC   C1B37387   8.331  38.420   8.706
 2805POPC   C2B37388   8.200  38.183   8.350
 2805POPC   C3B37389   8.400  38.296   7.970
 2805POPC   C4B37390   8.507  38.736   7.878
 2806POPC   NC337391  39.171  42.817   9.492
 2806POPC   PO437392  39.383  43.484   9.477
 2806POPC   GL137393  39.354  43.173   9.199
 2806POPC   GL237394  39.007  43.162   9.159
 2806POPC   C1A37395  39.414  43.003   8.787
 2806POPC   D2A37396  39.406  43.260   8.392
 2806POPC   C3A37397  39.146  43.032   8.089
 2806POPC   C4A37398  39.121  42.916   7.655
 2806POPC   C1B37399  39.092  43.394   8.826
 2806POPC   C2B37400  38.899  43.254   8.510
 2806POPC   C3B37401  38.763  43.383   8.170
 2806POPC   C4B37402  39.025  43.468   7.846
 2807POPC   NC337403  19.647  18.600   9.370
 2807POPC   PO437404  20.125  18.208   9.536
 2807POPC   GL137405  20.040  18.342   9.112
 2807POPC   GL237406  19.676  18.268   8.998
 2807POPC   C1A37407  20.054  18.146   8.689
 2807POPC   D2A37408  19.927  18.042   8.263
 2807POPC   C3A37409  20.068  18.252   7.929
 2807POPC   C4A37410  19.900  18.685   7.784
 2807POPC   C1B37411  19.782  18.632   8.725
 2807POPC   C2B37412  19.806  18.681   8.288
 2807POPC   C3B37413  19.571  18.397   8.027
 2807POPC   C4B37414  19.477  18.075   7.783
 2808POPC   NC337415  16.300   2.465   9.517
 2808POPC   PO437416  16.207   3.137   9.422
 2808POPC   GL137417  16.033   2.936   9.087
 2808POPC   GL237418  16.162   2.611   9.066
 2808POPC   C1A37419  15.872   2.841   8.669
 2808POPC   D2A37420  15.788   3.091   8.297
 2808POPC   C3A37421  15.858   2.859   7.921
 2808POPC   C4A37422  15.645   2.475   7.757
 2808POPC   C1B37423  16.375   2.782   8.727
 2808POPC   C2B37424  16.238   2.537   8.379
 2808POPC   C3B37425  16.094   2.400   7.992
 2808POPC   C4B37426  16.150   2.626   7.568
 2809POPC   NC337427  13.816  41.191   9.323
 2809POPC   PO437428  13.604  40.557   9.556
 2809POPC   GL137429  13.571  40.551   9.143
 2809POPC   GL237430  13.856  40.734   9.077
 2809POPC   C1A37431  13.592  40.415   8.740
 2809POPC   D2A37432  13.603  40.548   8.360
 2809POPC   C3A37433  13.459  40.396   7.999
 2809POPC   C4A37434  13.550  40.593   7.586
 2809POPC   C1B37435  13.655  40.928   8.723
 2809POPC   C2B37436  13.496  41.049   8.325
 2809POPC   C3B37437  13.724  40.881   7.982
 2809POPC   C4B37438  13.880  41.022   7.590
 2810POPC   NC337439   7.158  31.748   9.816
 2810POPC   PO437440   7.705  31.458   9.452
 2810POPC   GL137441   7.497  31.394   9.082
 2810POPC   GL237442   7.789  31.180   9.011
 2810POPC   C1A37443   7.188  31.457   8.733
 2810POPC   D2A37444   7.169  31.285   8.319
 2810POPC   C3A37445   7.264  31.469   7.923
 2810POPC   C4A37446   7.367  31.246   7.554
 2810POPC   C1B37447   7.699  31.414   8.616
 2810POPC   C2B37448   7.716  31.416   8.182
 2810POPC   C3B37449   7.787  31.482   7.738
 2810POPC   C4B37450   7.965  31.484   7.328
 2811POPC   NC337451   8.376  25.840   9.568
 2811POPC   PO437452   7.983  26.264   9.249
 2811POPC   GL137453   8.110  25.947   9.012
 2811POPC   GL237454   8.444  26.024   9.076
 2811POPC   C1A37455   8.232  25.931   8.581
 2811POPC   D2A37456   8.406  25.812   8.182
 2811POPC   C3A37457   8.201  26.023   7.847
 2811POPC   C4A37458   8.275  26.298   7.493
 2811POPC   C1B37459   8.717  26.057   8.715
 2811POPC   C2B37460   8.704  26.229   8.284
 2811POPC   C3B37461   8.691  26.162   7.839
 2811POPC   C4B37462   8.772  26.257   7.413
 2812POPC   NC337463  18.822   7.268   9.579
 2812POPC   PO437464  19.152   7.836   9.581
 2812POPC   GL137465  19.059   7.559   9.210
 2812POPC   GL237466  19.105   7.216   9.106
 2812POPC   C1A37467  19.142   7.594   8.764
 2812POPC   D2A37468  18.846   7.640   8.388
 2812POPC   C3A37469  18.854   7.842   7.970
 2812POPC   C4A37470  18.875   7.677   7.535
 2812POPC   C1B37471  19.269   7.028   8.755
 2812POPC   C2B37472  19.239   7.281   8.376
 2812POPC   C3B37473  19.076   7.368   7.960
 2812POPC   C4B37474  19.178   7.265   7.530
 2813POPC   NC337475   0.557  22.565   9.998
 2813POPC   PO437476   0.333  22.050   9.514
 2813POPC   GL137477   0.402  21.988   9.105
 2813POPC   GL237478   0.671  22.205   9.059
 2813POPC   C1A37479   0.348  21.962   8.646
 2813POPC   D2A37480   0.507  22.219   8.297
 2813POPC   C3A37481   0.198  22.246   7.988
 2813POPC   C4A37482   0.185  21.925   7.722
 2813POPC   C1B37483   0.803  22.579   8.848
 2813POPC   C2B37484   0.875  22.764   8.443
 2813POPC   C3B37485   0.849  22.545   8.076
 2813POPC   C4B37486   0.570  22.546   7.738
 2814POPC   NC337487   5.837   4.523   9.282
 2814POPC   PO437488   6.104   4.993   9.710
 2814POPC   GL137489   5.941   5.091   9.252
 2814POPC   GL237490   5.610   5.263   9.072
 2814POPC   C1A37491   6.005   4.989   8.801
 2814POPC   D2A37492   5.865   4.791   8.384
 2814POPC   C3A37493   5.887   5.013   7.957
 2814POPC   C4A37494   6.011   4.922   7.489
 2814POPC   C1B37495   5.576   5.198   8.621
 2814POPC   C2B37496   5.960   5.312   8.374
 2814POPC   C3B37497   6.298   5.410   8.102
 2814POPC   C4B37498   6.363   5.110   7.805
 2815POPC   NC337499  39.266  39.489   9.602
 2815POPC   PO437500  39.582  38.819   9.584
 2815POPC   GL137501  39.446  39.134   9.277
 2815POPC   GL237502  39.135  39.226   9.131
 2815POPC   C1A37503  39.540  39.157   8.822
 2815POPC   D2A37504  39.353  39.184   8.391
 2815POPC   C3A37505  39.583  39.123   8.012
 2815POPC   C4A37506  39.569  39.260   7.620
 2815POPC   C1B37507  39.079  38.944   8.773
 2815POPC   C2B37508  38.836  38.994   8.399
 2815POPC   C3B37509  38.769  39.225   8.024
 2815POPC   C4B37510  39.155  39.405   7.908
 2816POPC   NC337511  34.280   0.238   9.524
 2816POPC   PO437512  34.876   0.638   9.505
 2816POPC   GL137513  34.585   0.478   9.180
 2816POPC   GL237514  34.564   0.129   9.114
 2816POPC   C1A37515  34.380   0.519   8.778
 2816POPC   D2A37516  34.358   0.344   8.360
 2816POPC   C3A37517  34.647   0.390   8.038
 2816POPC   C4A37518  34.461   0.469   7.669
 2816POPC   C1B37519  34.486  44.983   8.717
 2816POPC   C2B37520  34.695  44.963   8.324
 2816POPC   C3B37521  34.581  44.919   7.899
 2816POPC   C4B37522  34.809  44.994   7.499
 2817POPC   NC337523   4.196  42.364   9.620
 2817POPC   PO437524   4.679  42.042   9.351
 2817POPC   GL137525   4.393  42.325   9.127
 2817POPC   GL237526   4.119  42.621   9.190
 2817POPC   C1A37527   4.049  42.237   8.837
 2817POPC   D2A37528   3.954  42.056   8.398
 2817POPC   C3A37529   4.237  42.144   8.034
 2817POPC   C4A37530   4.582  42.318   7.804
 2817POPC   C1B37531   4.309  42.702   8.812
 2817POPC   C2B37532   4.263  42.476   8.430
 2817POPC   C3B37533   4.220  42.653   8.024
 2817POPC   C4B37534   4.380  42.731   7.606
 2818POPC   NC337535  18.941  44.225   9.393
 2818POPC   PO437536  19.377  44.729   9.345
 2818POPC   GL137537  19.163  44.539   9.052
 2818POPC   GL237538  19.060  44.818   8.917
 2818POPC   C1A37539  19.036  44.327   8.694
 2818POPC   D2A37540  18.883  44.445   8.277
 2818POPC   C3A37541  19.070  44.376   7.874
 2818POPC   C4A37542  19.363  44.518   7.530
 2818POPC   C1B37543  19.207   0.106   8.646
 2818POPC   C2B37544  18.964  44.963   8.330
 2818POPC   C3B37545  19.017  44.860   7.947
 2818POPC   C4B37546  19.255   0.031   7.646
 2819POPC   NC337547  25.161   7.739   9.491
 2819POPC   PO437548  25.699   7.404   9.582
 2819POPC   GL137549  25.535   7.213   9.178
 2819POPC   GL237550  25.228   7.414   9.094
 2819POPC   C1A37551  25.584   7.395   8.739
 2819POPC   D2A37552  25.356   7.508   8.403
 2819POPC   C3A37553  25.407   7.278   8.027
 2819POPC   C4A37554  25.106   7.454   7.776
 2819POPC   C1B37555  25.112   7.749   8.791
 2819POPC   C2B37556  24.790   7.790   8.450
 2819POPC   C3B37557  24.834   7.857   8.018
 2819POPC   C4B37558  24.744   7.727   7.578
 2820POPC   NC337559  22.990  43.553   9.644
 2820POPC   PO437560  22.756  44.210   9.537
 2820POPC   GL137561  22.762  44.071   9.127
 2820POPC   GL237562  23.012  43.825   9.186
 2820POPC   C1A37563  22.863  44.053   8.691
 2820POPC   D2A37564  22.660  44.102   8.276
 2820POPC   C3A37565  22.797  44.019   7.867
 2820POPC   C4A37566  22.552  44.310   7.653
 2820POPC   C1B37567  23.147  43.652   8.764
 2820POPC   C2B37568  23.047  43.736   8.289
 2820POPC   C3B37569  23.041  43.558   7.839
 2820POPC   C4B37570  22.854  43.447   7.425
 2821POPC   NC337571  24.874   9.166   9.768
 2821POPC   PO437572  25.431   8.809   9.548
 2821POPC   GL137573  25.342   8.951   9.190
 2821POPC   GL237574  25.156   9.219   9.322
 2821POPC   C1A37575  25.260   8.771   8.804
 2821POPC   D2A37576  25.410   8.958   8.465
 2821POPC   C3A37577  25.234   8.895   8.090
 2821POPC   C4A37578  25.500   9.034   7.738
 2821POPC   C1B37579  24.961   9.153   8.928
 2821POPC   C2B37580  24.897   9.040   8.500
 2821POPC   C3B37581  24.816   9.230   8.085
 2821POPC   C4B37582  24.959   9.061   7.685
 2822POPC   NC337583  27.250  35.351   9.551
 2822POPC   PO437584  27.839  35.563   9.517
 2822POPC   GL137585  27.676  35.271   9.209
 2822POPC   GL237586  27.531  34.936   9.309
 2822POPC   C1A37587  27.816  35.354   8.791
 2822POPC   D2A37588  27.710  35.627   8.475
 2822POPC   C3A37589  27.811  35.485   8.103
 2822POPC   C4A37590  27.582  35.448   7.747
 2822POPC   C1B37591  27.566  34.917   8.841
 2822POPC   C2B37592  27.435  35.124   8.465
 2822POPC   C3B37593  27.436  35.056   8.028
 2822POPC   C4B37594  27.703  34.819   7.770
 2823POPC   NC337595  17.416   6.466   9.460
 2823POPC   PO437596  17.743   7.097   9.337
 2823POPC   GL137597  17.555   6.799   9.090
 2823POPC   GL237598  17.204   6.701   9.046
 2823POPC   C1A37599  17.568   6.554   8.735
 2823POPC   D2A37600  17.235   6.566   8.482
 2823POPC   C3A37601  17.391   6.693   8.141
 2823POPC   C4A37602  17.524   6.437   7.813
 2823POPC   C1B37603  17.181   7.012   8.734
 2823POPC   C2B37604  16.995   7.044   8.331
 2823POPC   C3B37605  17.163   7.147   7.960
 2823POPC   C4B37606  17.233   6.837   7.685
 2824POPC   NC337607  15.366   4.225   9.516
 2824POPC   PO437608  16.073   4.313   9.531
 2824POPC   GL137609  15.870   4.504   9.193
 2824POPC   GL237610  15.748   4.172   9.126
 2824POPC   C1A37611  15.697   4.713   8.825
 2824POPC   D2A37612  15.635   4.619   8.388
 2824POPC   C3A37613  15.989   4.381   8.200
 2824POPC   C4A37614  16.097   4.444   7.784
 2824POPC   C1B37615  15.952   4.221   8.711
 2824POPC   C2B37616  16.041   3.886   8.391
 2824POPC   C3B37617  16.182   3.839   7.963
 2824POPC   C4B37618  16.326   4.020   7.591
 2825POPC   NC337619  29.639  36.314   9.553
 2825POPC   PO437620  30.195  36.030   9.432
 2825POPC   GL137621  29.919  36.143   9.123
 2825POPC   GL237622  29.772  36.460   9.095
 2825POPC   C1A37623  30.000  36.116   8.714
 2825POPC   D2A37624  30.224  36.299   8.395
 2825POPC   C3A37625  30.214  36.164   7.970
 2825POPC   C4A37626  30.433  35.924   7.663
 2825POPC   C1B37627  29.539  36.347   8.783
 2825POPC   C2B37628  29.602  36.199   8.410
 2825POPC   C3B37629  29.558  36.379   8.073
 2825POPC   C4B37630  29.770  36.308   7.747
 2826POPC   NC337631  34.955  43.718   9.526
 2826POPC   PO437632  34.488  44.182   9.665
 2826POPC   GL137633  34.512  43.924   9.231
 2826POPC   GL237634  34.584  43.545   9.216
 2826POPC   C1A37635  34.404  43.769   8.785
 2826POPC   D2A37636  34.577  44.018   8.444
 2826POPC   C3A37637  34.645  43.930   8.052
 2826POPC   C4A37638  34.415  44.057   7.700
 2826POPC   C1B37639  34.804  43.362   8.840
 2826POPC   C2B37640  34.732  43.499   8.432
 2826POPC   C3B37641  34.827  43.454   8.013
 2826POPC   C4B37642  34.661  43.633   7.627
 2827POPC   NC337643  30.331   4.113   9.463
 2827POPC   PO437644  30.779   4.462   9.588
 2827POPC   GL137645  30.748   4.502   9.167
 2827POPC   GL237646  30.359   4.525   9.156
 2827POPC   C1A37647  30.866   4.269   8.764
 2827POPC   D2A37648  30.590   4.045   8.492
 2827POPC   C3A37649  30.474   4.062   8.040
 2827POPC   C4A37650  30.798   4.126   7.724
 2827POPC   C1B37651  30.490   4.609   8.750
 2827POPC   C2B37652  30.447   4.524   8.344
 2827POPC   C3B37653  30.614   4.550   7.954
 2827POPC   C4B37654  30.538   4.485   7.513
 2828POPC   NC337655   5.461  24.455   9.268
 2828POPC   PO437656   4.814  24.623   9.547
 2828POPC   GL137657   4.967  24.615   9.166
 2828POPC   GL237658   5.008  24.247   9.154
 2828POPC   C1A37659   5.179  24.774   8.783
 2828POPC   D2A37660   5.292  24.513   8.455
 2828POPC   C3A37661   5.231  24.667   8.073
 2828POPC   C4A37662   5.344  24.482   7.727
 2828POPC   C1B37663   4.889  24.359   8.741
 2828POPC   C2B37664   4.809  24.455   8.335
 2828POPC   C3B37665   4.883  24.277   7.964
 2828POPC   C4B37666   4.797  24.059   7.602
 2829POPC   NC337667  39.460   6.427   9.616
 2829POPC   PO437668  39.087   6.991   9.905
 2829POPC   GL137669  39.109   6.846   9.403
 2829POPC   GL237670  38.818   6.803   9.194
 2829POPC   C1A37671  39.282   6.816   8.920
 2829POPC   D2A37672  39.436   6.916   8.455
 2829POPC   C3A37673  39.352   6.642   8.058
 2829POPC   C4A37674  39.501   6.228   7.878
 2829POPC   C1B37675  38.931   6.409   8.972
 2829POPC   C2B37676  38.905   6.253   8.536
 2829POPC   C3B37677  38.902   6.385   8.102
 2829POPC   C4B37678  38.992   6.309   7.688
 2830POPC   NC337679  20.203  24.298   9.617
 2830POPC   PO437680  20.716  24.734   9.671
 2830POPC   GL137681  20.739  24.449   9.276
 2830POPC   GL237682  20.464  24.227   9.186
 2830POPC   C1A37683  20.723  24.568   8.823
 2830POPC   D2A37684  20.514  24.831   8.496
 2830POPC   C3A37685  20.648  24.716   8.081
 2830POPC   C4A37686  20.925  24.490   7.809
 2830POPC   C1B37687  20.259  24.338   8.806
 2830POPC   C2B37688  20.329  24.379   8.378
 2830POPC   C3B37689  20.177  24.542   7.994
 2830POPC   C4B37690  20.446  24.305   7.769
 2831POPC   NC337691  22.601  37.817   9.538
 2831POPC   PO437692  23.094  37.383   9.590
 2831POPC   GL137693  23.062  37.663   9.241
 2831POPC   GL237694  23.231  37.965   9.365
 2831POPC   C1A37695  22.848  37.671   8.807
 2831POPC   D2A37696  22.862  37.496   8.369
 2831POPC   C3A37697  23.137  37.432   8.011
 2831POPC   C4A37698  22.865  37.536   7.672
 2831POPC   C1B37699  23.176  38.051   8.919
 2831POPC   C2B37700  23.238  37.885   8.484
 2831POPC   C3B37701  23.072  37.942   8.033
 2831POPC   C4B37702  23.277  37.799   7.636
 2832POPC   NC337703  32.767  19.927   9.516
 2832POPC   PO437704  33.387  19.642   9.529
 2832POPC   GL137705  33.159  19.849   9.186
 2832POPC   GL237706  33.432  19.986   9.037
 2832POPC   C1A37707  32.988  19.979   8.754
 2832POPC   D2A37708  32.702  19.975   8.383
 2832POPC   C3A37709  32.824  19.908   7.947
 2832POPC   C4A37710  32.746  20.076   7.476
 2832POPC   C1B37711  33.471  20.071   8.610
 2832POPC   C2B37712  33.234  20.135   8.264
 2832POPC   C3B37713  33.420  19.890   7.984
 2832POPC   C4B37714  33.208  19.847   7.632
 2833POPC   NC337715  27.909  29.211   9.825
 2833POPC   PO437716  28.428  29.387   9.474
 2833POPC   GL137717  28.534  29.344   9.123
 2833POPC   GL237718  28.798  29.608   9.102
 2833POPC   C1A37719  28.485  29.074   8.761
 2833POPC   D2A37720  28.761  29.082   8.416
 2833POPC   C3A37721  28.555  28.956   8.037
 2833POPC   C4A37722  28.613  28.768   7.662
 2833POPC   C1B37723  28.618  29.547   8.696
 2833POPC   C2B37724  28.368  29.442   8.393
 2833POPC   C3B37725  28.621  29.450   8.050
 2833POPC   C4B37726  28.445  29.349   7.661
 2834POPC   NC337727  13.589   8.675  10.096
 2834POPC   PO437728  13.754   9.096   9.583
 2834POPC   GL137729  13.699   9.177   9.149
 2834POPC   GL237730  13.652   8.859   9.016
 2834POPC   C1A37731  13.350   9.219   8.812
 2834POPC   D2A37732  13.266   9.071   8.384
 2834POPC   C3A37733  13.628   9.052   8.113
 2834POPC   C4A37734  13.569   9.181   7.723
 2834POPC   C1B37735  13.821   8.708   8.621
 2834POPC   C2B37736  13.545   8.586   8.299
 2834POPC   C3B37737  13.356   8.649   7.891
 2834POPC   C4B37738  13.540   8.735   7.455
 2835POPC   NC337739   7.018  33.254   9.295
 2835POPC   PO437740   6.614  32.791   9.335
 2835POPC   GL137741   6.776  32.882   9.001
 2835POPC   GL237742   7.098  32.766   9.054
 2835POPC   C1A37743   6.647  33.119   8.688
 2835POPC   D2A37744   6.459  33.385   8.397
 2835POPC   C3A37745   6.403  33.211   8.014
 2835POPC   C4A37746   6.570  33.277   7.617
 2835POPC   C1B37747   7.094  32.800   8.599
 2835POPC   C2B37748   6.788  32.878   8.262
 2835POPC   C3B37749   6.942  33.058   7.901
 2835POPC   C4B37750   7.076  33.297   7.563
 2836POPC   NC337751  18.441  42.853   9.486
 2836POPC   PO437752  18.016  43.371   9.690
 2836POPC   GL137753  18.046  43.176   9.299
 2836POPC   GL237754  18.368  43.270   9.165
 2836POPC   C1A37755  17.941  43.165   8.842
 2836POPC   D2A37756  18.091  43.370   8.462
 2836POPC   C3A37757  18.255  43.223   8.082
 2836POPC   C4A37758  18.182  43.325   7.643
 2836POPC   C1B37759  18.454  43.102   8.761
 2836POPC   C2B37760  18.286  42.832   8.432
 2836POPC   C3B37761  18.455  42.749   8.009
 2836POPC   C4B37762  18.610  43.087   7.730
 2837POPC   NC337763  17.647  13.649   9.916
 2837POPC   PO437764  17.827  13.566   9.322
 2837POPC   GL137765  17.677  13.523   8.994
 2837POPC   GL237766  17.858  13.795   8.873
 2837POPC   C1A37767  17.401  13.415   8.718
 2837POPC   D2A37768  17.160  13.386   8.375
 2837POPC   C3A37769  17.448  13.460   8.066
 2837POPC   C4A37770  17.752  13.645   7.847
 2837POPC   C1B37771  17.482  13.937   8.769
 2837POPC   C2B37772  17.563  13.807   8.412
 2837POPC   C3B37773  17.963  13.870   8.269
 2837POPC   C4B37774  18.061  14.043   7.865
 2838POPC   NC337775  42.076  13.427   9.675
 2838POPC   PO437776  42.286  14.134   9.493
 2838POPC   GL137777  42.278  13.701   9.260
 2838POPC   GL237778  41.964  13.479   9.170
 2838POPC   C1A37779  42.378  13.484   8.862
 2838POPC   D2A37780  42.431  13.601   8.445
 2838POPC   C3A37781  42.414  13.421   8.054
 2838POPC   C4A37782  42.307  13.655   7.676
 2838POPC   C1B37783  41.910  13.205   8.778
 2838POPC   C2B37784  42.036  13.214   8.334
 2838POPC   C3B37785  41.937  13.346   7.900
 2838POPC   C4B37786  41.931  13.399   7.443
 2839POPC   NC337787  18.808  33.200   9.672
 2839POPC   PO437788  19.361  32.855   9.769
 2839POPC   GL137789  19.106  32.964   9.332
 2839POPC   GL237790  19.188  32.778   9.044
 2839POPC   C1A37791  19.089  33.240   8.907
 2839POPC   D2A37792  19.267  33.331   8.445
 2839POPC   C3A37793  19.052  33.200   8.037
 2839POPC   C4A37794  18.817  33.255   7.621
 2839POPC   C1B37795  19.338  32.850   8.643
 2839POPC   C2B37796  19.289  32.640   8.273
 2839POPC   C3B37797  19.175  32.754   7.848
 2839POPC   C4B37798  18.757  32.781   7.814
 2840POPC   NC337799  30.251  28.504   9.561
 2840POPC   PO437800  29.615  28.210   9.550
 2840POPC   GL137801  29.901  28.281   9.243
 2840POPC   GL237802  30.037  27.958   9.168
 2840POPC   C1A37803  29.987  28.486   8.858
 2840POPC   D2A37804  29.946  28.321   8.449
 2840POPC   C3A37805  29.759  28.515   8.103
 2840POPC   C4A37806  29.867  28.694   7.713
 2840POPC   C1B37807  29.769  27.985   8.827
 2840POPC   C2B37808  29.773  27.845   8.406
 2840POPC   C3B37809  30.002  28.002   8.047
 2840POPC   C4B37810  29.915  28.206   7.688
 2841POPC   NC337811  41.198   9.767   9.619
 2841POPC   PO437812  41.839   9.755   9.518
 2841POPC   GL137813  41.506   9.820   9.201
 2841POPC   GL237814  41.188  10.037   9.177
 2841POPC   C1A37815  41.499   9.596   8.826
 2841POPC   D2A37816  41.728   9.322   8.558
 2841POPC   C3A37817  41.735   9.482   8.160
 2841POPC   C4A37818  41.556   9.338   7.778
 2841POPC   C1B37819  41.414  10.131   8.804
 2841POPC   C2B37820  41.346   9.953   8.420
 2841POPC   C3B37821  41.364   9.805   8.020
 2841POPC   C4B37822  41.236   9.982   7.664
 2842POPC   NC337823  12.400  40.338   9.407
 2842POPC   PO437824  11.750  40.260   9.654
 2842POPC   GL137825  11.904  40.143   9.229
 2842POPC   GL237826  12.146  39.851   9.146
 2842POPC   C1A37827  11.967  40.130   8.779
 2842POPC   D2A37828  11.868  39.894   8.458
 2842POPC   C3A37829  11.949  40.102   8.091
 2842POPC   C4A37830  11.793  39.922   7.732
 2842POPC   C1B37831  12.342  39.791   8.709
 2842POPC   C2B37832  12.400  39.873   8.250
 2842POPC   C3B37833  12.299  39.864   7.793
 2842POPC   C4B37834  12.234  40.125   7.417
 2843POPC   NC337835  22.057   0.872   9.552
 2843POPC   PO437836  22.294   1.485   9.617
 2843POPC   GL137837  22.029   1.326   9.264
 2843POPC   GL237838  22.325   1.132   9.164
 2843POPC   C1A37839  21.878   1.009   8.933
 2843POPC   D2A37840  21.879   0.924   8.491
 2843POPC   C3A37841  22.001   1.232   8.169
 2843POPC   C4A37842  22.036   1.139   7.718
 2843POPC   C1B37843  22.349   1.075   8.712
 2843POPC   C2B37844  22.508   1.275   8.336
 2843POPC   C3B37845  22.517   1.216   7.904
 2843POPC   C4B37846  22.492   0.900   7.626
 2844POPC   NC337847  36.509   1.908   9.483
 2844POPC   PO437848  35.862   2.161   9.477
 2844POPC   GL137849  36.044   1.846   9.200
 2844POPC   GL237850  36.281   2.113   9.046
 2844POPC   C1A37851  36.160   1.688   8.790
 2844POPC   D2A37852  36.278   1.967   8.488
 2844POPC   C3A37853  36.368   1.911   8.065
 2844POPC   C4A37854  36.483   2.270   7.813
 2844POPC   C1B37855  35.887   2.147   8.791
 2844POPC   C2B37856  35.620   2.059   8.455
 2844POPC   C3B37857  35.844   1.898   8.102
 2844POPC   C4B37858  35.973   1.887   7.678
 2845POPC   NC337859  37.712  24.925   9.478
 2845POPC   PO437860  37.808  25.541   9.516
 2845POPC   GL137861  37.596  25.340   9.161
 2845POPC   GL237862  37.462  24.989   9.046
 2845POPC   C1A37863  37.752  25.280   8.750
 2845POPC   D2A37864  37.718  25.545   8.418
 2845POPC   C3A37865  37.981  25.505   8.099
 2845POPC   C4A37866  37.765  25.507   7.705
 2845POPC   C1B37867  37.451  24.894   8.590
 2845POPC   C2B37868  37.720  25.045   8.263
 2845POPC   C3B37869  37.826  25.015   7.844
 2845POPC   C4B37870  37.525  24.926   7.507
 2846POPC   NC337871  25.646   4.203   9.560
 2846POPC   PO437872  24.955   4.321   9.566
 2846POPC   GL137873  25.240   4.188   9.255
 2846POPC   GL237874  25.332   4.508   9.121
 2846POPC   C1A37875  25.489   3.980   8.893
 2846POPC   D2A37876  25.705   3.845   8.514
 2846POPC   C3A37877  25.485   3.956   8.129
 2846POPC   C4A37878  25.666   4.046   7.726
 2846POPC   C1B37879  25.059   4.263   8.806
 2846POPC   C2B37880  24.998   4.375   8.388
 2846POPC   C3B37881  24.932   4.469   8.000
 2846POPC   C4B37882  25.251   4.343   7.761
 2847POPC   NC337883  14.039  12.545   9.678
 2847POPC   PO437884  14.303  13.103   9.461
 2847POPC   GL137885  14.442  12.881   9.170
 2847POPC   GL237886  14.122  12.680   9.196
 2847POPC   C1A37887  14.653  12.982   8.785
 2847POPC   D2A37888  14.449  12.902   8.405
 2847POPC   C3A37889  14.649  12.840   8.011
 2847POPC   C4A37890  14.480  12.661   7.651
 2847POPC   C1B37891  14.021  12.872   8.796
 2847POPC   C2B37892  13.986  12.683   8.388
 2847POPC   C3B37893  14.136  12.850   8.001
 2847POPC   C4B37894  13.985  12.860   7.603
 2848POPC   NC337895  38.393   6.052   9.480
 2848POPC   PO437896  38.591   5.388   9.318
 2848POPC   GL137897  38.544   5.714   9.099
 2848POPC   GL237898  38.220   5.746   9.102
 2848POPC   C1A37899  38.619   5.841   8.684
 2848POPC   D2A37900  38.444   6.084   8.364
 2848POPC   C3A37901  38.600   5.992   7.988
 2848POPC   C4A37902  38.576   5.633   7.844
 2848POPC   C1B37903  38.125   5.872   8.716
 2848POPC   C2B37904  37.952   5.810   8.329
 2848POPC   C3B37905  38.041   5.954   7.895
 2848POPC   C4B37906  37.886   6.174   7.530
 2849POPC   NC337907   3.618  24.083   9.603
 2849POPC   PO437908   3.481  24.699   9.750
 2849POPC   GL137909   3.269  24.666   9.335
 2849POPC   GL237910   3.329  24.320   9.219
 2849POPC   C1A37911   3.336  24.777   8.895
 2849POPC   D2A37912   3.451  24.581   8.494
 2849POPC   C3A37913   3.280  24.521   8.092
 2849POPC   C4A37914   3.497  24.626   7.729
 2849POPC   C1B37915   3.688  24.395   8.911
 2849POPC   C2B37916   3.950  24.463   8.532
 2849POPC   C3B37917   3.808  24.427   8.112
 2849POPC   C4B37918   3.839  24.272   7.704
 2850POPC   NC337919  28.112   3.364   9.415
 2850POPC   PO437920  27.469   3.347   9.461
 2850POPC   GL137921  27.552   3.266   9.057
 2850POPC   GL237922  27.866   3.072   9.073
 2850POPC   C1A37923  27.508   3.541   8.680
 2850POPC   D2A37924  27.533   3.920   8.417
 2850POPC   C3A37925  27.614   3.766   8.045
 2850POPC   C4A37926  27.355   3.396   8.053
 2850POPC   C1B37927  27.817   3.118   8.629
 2850POPC   C2B37928  27.804   3.163   8.194
 2850POPC   C3B37929  27.858   3.384   7.819
 2850POPC   C4B37930  27.940   3.288   7.361
 2851POPC   NC337931  40.192   6.675   9.627
 2851POPC   PO437932  39.596   6.870   9.480
 2851POPC   GL137933  39.853   6.603   9.196
 2851POPC   GL237934  40.213   6.441   9.178
 2851POPC   C1A37935  39.765   6.641   8.764
 2851POPC   D2A37936  39.747   6.478   8.351
 2851POPC   C3A37937  39.829   6.864   8.095
 2851POPC   C4A37938  40.085   6.900   7.722
 2851POPC   C1B37939  40.279   6.615   8.786
 2851POPC   C2B37940  40.223   6.666   8.349
 2851POPC   C3B37941  40.084   6.432   7.961
 2851POPC   C4B37942  40.277   6.468   7.563
 2852POPC   NC337943  15.465  29.544   9.206
 2852POPC   PO437944  14.948  29.269   9.559
 2852POPC   GL137945  14.960  29.092   9.162
 2852POPC   GL237946  15.286  29.054   9.082
 2852POPC   C1A37947  14.839  29.001   8.738
 2852POPC   D2A37948  14.689  29.155   8.329
 2852POPC   C3A37949  14.861  28.966   7.928
 2852POPC   C4A37950  14.986  29.011   7.483
 2852POPC   C1B37951  15.352  29.105   8.664
 2852POPC   C2B37952  15.174  28.863   8.343
 2852POPC   C3B37953  15.348  28.879   7.951
 2852POPC   C4B37954  15.387  29.288   7.741
 2853POPC   NC337955  10.362  37.109   9.480
 2853POPC   PO437956  10.972  36.720   9.538
 2853POPC   GL137957  10.835  36.926   9.205
 2853POPC   GL237958  10.517  36.800   9.116
 2853POPC   C1A37959  10.865  36.858   8.774
 2853POPC   D2A37960  10.565  36.904   8.469
 2853POPC   C3A37961  10.742  36.852   8.114
 2853POPC   C4A37962  10.714  36.880   7.691
 2853POPC   C1B37963  10.348  36.539   8.776
 2853POPC   C2B37964  10.166  36.582   8.358
 2853POPC   C3B37965  10.225  36.865   8.014
 2853POPC   C4B37966  10.263  36.531   7.752
 2854POPC   NC337967   4.228  28.541   9.468
 2854POPC   PO437968   4.748  28.280   9.798
 2854POPC   GL137969   4.659  28.271   9.302
 2854POPC   GL237970   4.344  28.156   9.156
 2854POPC   C1A37971   4.677  28.493   8.887
 2854POPC   D2A37972   4.727  28.665   8.490
 2854POPC   C3A37973   4.579  28.396   8.196
 2854POPC   C4A37974   4.536  28.528   7.802
 2854POPC   C1B37975   4.185  28.394   8.798
 2854POPC   C2B37976   4.135  28.592   8.389
 2854POPC   C3B37977   4.069  28.432   7.994
 2854POPC   C4B37978   3.841  28.070   7.877
 2855POPC   NC337979  23.994  28.804   9.965
 2855POPC   PO437980  23.717  28.959   9.335
 2855POPC   GL137981  23.622  29.241   8.986
 2855POPC   GL237982  23.322  29.546   9.029
 2855POPC   C1A37983  23.835  29.050   8.682
 2855POPC   D2A37984  23.982  29.085   8.311
 2855POPC   C3A37985  23.653  29.088   8.009
 2855POPC   C4A37986  23.925  28.836   7.840
 2855POPC   C1B37987  23.254  29.347   8.659
 2855POPC   C2B37988  23.603  29.412   8.410
 2855POPC   C3B37989  23.701  29.599   8.053
 2855POPC   C4B37990  23.338  29.620   7.930
 2856POPC   NC337991  14.601   7.941   9.550
 2856POPC   PO437992  14.035   7.925   9.377
 2856POPC   GL137993  14.357   8.114   9.119
 2856POPC   GL237994  14.645   8.321   9.223
 2856POPC   C1A37995  14.616   8.037   8.770
 2856POPC   D2A37996  14.693   7.894   8.356
 2856POPC   C3A37997  14.437   7.933   7.990
 2856POPC   C4A37998  14.269   8.271   7.783
 2856POPC   C1B37999  14.845   8.485   8.866
 2856POPC   C2B38000  14.877   8.359   8.456
 2856POPC   C3B38001  14.694   8.468   8.071
 2856POPC   C4B38002  14.820   8.745   7.738
 2857POPC   NC338003  20.248  43.201   9.555
 2857POPC   PO438004  20.934  43.397   9.529
 2857POPC   GL138005  20.724  43.370   9.160
 2857POPC   GL238006  20.582  43.035   9.176
 2857POPC   C1A38007  20.774  43.218   8.741
 2857POPC   D2A38008  20.893  42.951   8.396
 2857POPC   C3A38009  20.762  43.207   8.049
 2857POPC   C4A38010  20.490  43.277   7.748
 2857POPC   C1B38011  20.350  42.931   8.807
 2857POPC   C2B38012  20.395  43.058   8.379
 2857POPC   C3B38013  20.363  42.851   8.023
 2857POPC   C4B38014  20.638  42.795   7.708
 2858POPC   NC338015  35.485   9.409   9.845
 2858POPC   PO438016  35.183   9.952   9.607
 2858POPC   GL138017  35.172   9.809   9.162
 2858POPC   GL238018  35.101   9.456   9.033
 2858POPC   C1A38019  35.366   9.839   8.728
 2858POPC   D2A38020  35.645   9.945   8.358
 2858POPC   C3A38021  35.458   9.760   7.990
 2858POPC   C4A38022  35.127   9.474   7.868
 2858POPC   C1B38023  35.338   9.318   8.647
 2858POPC   C2B38024  35.646   9.382   8.294
 2858POPC   C3B38025  35.701   9.319   7.853
 2858POPC   C4B38026  35.434   9.256   7.507
 2859POPC   NC338027  38.030  15.887   9.498
 2859POPC   PO438028  37.401  16.110   9.536
 2859POPC   GL138029  37.682  16.090   9.159
 2859POPC   GL238030  38.015  16.279   9.135
 2859POPC   C1A38031  37.539  16.216   8.718
 2859POPC   D2A38032  37.259  16.097   8.346
 2859POPC   C3A38033  37.499  15.970   7.984
 2859POPC   C4A38034  37.638  16.281   7.629
 2859POPC   C1B38035  38.033  15.975   8.789
 2859POPC   C2B38036  37.855  15.946   8.391
 2859POPC   C3B38037  37.964  16.169   8.031
 2859POPC   C4B38038  37.912  15.876   7.710
 2860POPC   NC338039   1.735  43.201   9.395
 2860POPC   PO438040   1.906  42.625   9.732
 2860POPC   GL138041   2.098  42.733   9.245
 2860POPC   GL238042   2.150  43.074   9.141
 2860POPC   C1A38043   1.924  42.733   8.791
 2860POPC   D2A38044   1.661  42.961   8.516
 2860POPC   C3A38045   1.845  42.969   8.109
 2860POPC   C4A38046   1.845  42.601   7.859
 2860POPC   C1B38047   2.112  43.192   8.731
 2860POPC   C2B38048   2.276  43.189   8.335
 2860POPC   C3B38049   2.143  43.505   8.080
 2860POPC   C4B38050   1.891  43.368   7.769
 2861POPC   NC338051  27.901   7.672   9.620
 2861POPC   PO438052  27.762   7.103   9.996
 2861POPC   GL138053  27.651   7.199   9.445
 2861POPC   GL238054  27.747   7.503   9.163
 2861POPC   C1A38055  27.371   7.241   8.990
 2861POPC   D2A38056  27.468   7.535   8.614
 2861POPC   C3A38057  27.522   7.476   8.159
 2861POPC   C4A38058  27.486   7.401   7.715
 2861POPC   C1B38059  27.948   7.684   8.732
 2861POPC   C2B38060  28.156   7.760   8.350
 2861POPC   C3B38061  28.051   7.609   7.984
 2861POPC   C4B38062  27.911   7.671   7.613
 2862POPC   NC338063  17.390  13.705   9.387
 2862POPC   PO438064  16.757  13.602   9.559
 2862POPC   GL138065  16.716  13.583   9.139
 2862POPC   GL238066  16.980  13.373   9.029
 2862POPC   C1A38067  16.530  13.517   8.738
 2862POPC   D2A38068  16.681  13.615   8.344
 2862POPC   C3A38069  16.499  13.706   7.962
 2862POPC   C4A38070  16.604  13.338   7.752
 2862POPC   C1B38071  17.007  13.754   8.740
 2862POPC   C2B38072  17.082  13.918   8.304
 2862POPC   C3B38073  17.012  13.685   7.918
 2862POPC   C4B38074  17.300  13.677   7.606
 2863POPC   NC338075  40.437  26.742   9.423
 2863POPC   PO438076  41.038  27.044   9.508
 2863POPC   GL138077  40.858  26.877   9.158
 2863POPC   GL238078  40.632  27.178   9.034
 2863POPC   C1A38079  40.626  26.760   8.780
 2863POPC   D2A38080  40.470  27.035   8.520
 2863POPC   C3A38081  40.610  26.991   8.103
 2863POPC   C4A38082  40.540  26.712   7.768
 2863POPC   C1B38083  40.995  27.093   8.726
 2863POPC   C2B38084  41.088  27.116   8.290
 2863POPC   C3B38085  41.076  26.845   7.918
 2863POPC   C4B38086  41.111  26.920   7.483
 2864POPC   NC338087  19.760  25.429   9.475
 2864POPC   PO438088  19.197  24.968   9.385
 2864POPC   GL138089  19.490  25.180   9.070
 2864POPC   GL238090  19.868  25.220   9.037
 2864POPC   C1A38091  19.604  25.184   8.622
 2864POPC   D2A38092  19.911  25.349   8.370
 2864POPC   C3A38093  19.672  25.511   8.067
 2864POPC   C4A38094  19.650  25.262   7.743
 2864POPC   C1B38095  20.014  25.618   8.795
 2864POPC   C2B38096  20.179  25.782   8.373
 2864POPC   C3B38097  20.150  25.687   7.928
 2864POPC   C4B38098  19.816  25.744   7.634
 2865POPC   NC338099   4.623   8.108   9.589
 2865POPC   PO438100   3.983   8.380   9.611
 2865POPC   GL138101   4.276   8.315   9.269
 2865POPC   GL238102   4.267   7.996   9.090
 2865POPC   C1A38103   4.355   8.480   8.847
 2865POPC   D2A38104   4.360   8.279   8.431
 2865POPC   C3A38105   4.366   8.495   8.048
 2865POPC   C4A38106   4.171   8.449   7.669
 2865POPC   C1B38107   4.546   7.881   8.723
 2865POPC   C2B38108   4.534   7.825   8.257
 2865POPC   C3B38109   4.265   8.003   7.902
 2865POPC   C4B38110   4.375   8.004   7.447
 2866POPC   NC338111  25.655  28.319   9.417
 2866POPC   PO438112  26.224  28.665   9.491
 2866POPC   GL138113  26.088  28.409   9.145
 2866POPC   GL238114  25.991  28.063   9.108
 2866POPC   C1A38115  25.859  28.421   8.757
 2866POPC   D2A38116  26.073  28.293   8.391
 2866POPC   C3A38117  25.980  28.470   7.991
 2866POPC   C4A38118  26.208  28.392   7.596
 2866POPC   C1B38119  25.862  27.913   8.697
 2866POPC   C2B38120  25.615  28.093   8.378
 2866POPC   C3B38121  25.681  28.040   7.936
 2866POPC   C4B38122  26.022  27.921   7.638
 2867POPC   NC338123  15.756  24.787   9.370
 2867POPC   PO438124  16.070  24.166   9.522
 2867POPC   GL138125  16.171  24.247   9.113
 2867POPC   GL238126  15.829  24.348   9.055
 2867POPC   C1A38127  16.213  24.630   8.858
 2867POPC   D2A38128  16.009  24.889   8.527
 2867POPC   C3A38129  16.004  24.619   8.179
 2867POPC   C4A38130  16.000  24.448   7.771
 2867POPC   C1B38131  15.882  24.364   8.613
 2867POPC   C2B38132  15.871  24.122   8.269
 2867POPC   C3B38133  15.701  24.063   7.894
 2867POPC   C4B38134  15.556  24.273   7.551
 2868POPC   NC338135  40.231  16.856   9.546
 2868POPC   PO438136  39.468  16.982   9.542
 2868POPC   GL138137  39.763  16.704   9.239
 2868POPC   GL238138  40.021  16.885   9.102
 2868POPC   C1A38139  39.981  16.473   8.835
 2868POPC   D2A38140  40.049  16.392   8.365
 2868POPC   C3A38141  40.170  16.570   7.941
 2868POPC   C4A38142  40.039  16.892   7.610
 2868POPC   C1B38143  40.218  16.932   8.739
 2868POPC   C2B38144  40.135  16.916   8.317
 2868POPC   C3B38145  40.393  17.031   7.970
 2868POPC   C4B38146  40.346  17.297   7.642
 2869POPC   NC338147  41.388   3.056   9.483
 2869POPC   PO438148  42.035   2.889   9.596
 2869POPC   GL138149  41.814   3.043   9.158
 2869POPC   GL238150  41.489   2.820   9.051
 2869POPC   C1A38151  41.718   3.027   8.661
 2869POPC   D2A38152  41.428   2.774   8.401
 2869POPC   C3A38153  41.477   2.810   7.956
 2869POPC   C4A38154  41.396   2.583   7.619
 2869POPC   C1B38155  41.240   3.157   8.819
 2869POPC   C2B38156  41.150   3.202   8.376
 2869POPC   C3B38157  41.177   3.216   7.935
 2869POPC   C4B38158  41.162   3.047   7.512
 2870POPC   NC338159   4.866   5.959   9.523
 2870POPC   PO438160   5.203   5.420   9.627
 2870POPC   GL138161   5.225   5.639   9.211
 2870POPC   GL238162   4.909   5.786   9.058
 2870POPC   C1A38163   5.307   5.743   8.766
 2870POPC   D2A38164   4.990   5.890   8.475
 2870POPC   C3A38165   4.990   5.785   8.046
 2870POPC   C4A38166   5.376   5.794   7.825
 2870POPC   C1B38167   5.099   6.206   8.885
 2870POPC   C2B38168   5.086   6.401   8.482
 2870POPC   C3B38169   4.964   6.312   8.080
 2870POPC   C4B38170   5.017   6.133   7.664
 2871POPC   NC338171   1.482   2.990   9.571
 2871POPC   PO438172   2.035   2.668   9.492
 2871POPC   GL138173   1.960   2.541   9.106
 2871POPC   GL238174   1.599   2.657   9.116
 2871POPC   C1A38175   2.220   2.505   8.734
 2871POPC   D2A38176   2.251   2.829   8.433
 2871POPC   C3A38177   2.192   2.686   8.037
 2871POPC   C4A38178   2.035   2.836   7.679
 2871POPC   C1B38179   1.761   2.720   8.693
 2871POPC   C2B38180   1.815   2.455   8.349
 2871POPC   C3B38181   1.703   2.552   7.934
 2871POPC   C4B38182   1.528   2.909   7.664
 2872POPC   NC338183  16.332   7.636   9.559
 2872POPC   PO438184  15.754   7.624   9.565
 2872POPC   GL138185  15.765   7.437   9.136
 2872POPC   GL238186  16.037   7.163   9.160
 2872POPC   C1A38187  15.674   7.696   8.737
 2872POPC   D2A38188  15.657   7.720   8.279
 2872POPC   C3A38189  16.027   7.581   8.167
 2872POPC   C4A38190  16.189   7.363   7.862
 2872POPC   C1B38191  16.107   7.255   8.695
 2872POPC   C2B38192  16.000   7.075   8.267
 2872POPC   C3B38193  15.703   7.194   7.947
 2872POPC   C4B38194  15.703   7.590   7.735
 2873POPC   NC338195  10.953  12.148   9.355
 2873POPC   PO438196  10.336  11.910   9.666
 2873POPC   GL138197  10.423  12.123   9.266
 2873POPC   GL238198  10.295  12.455   9.250
 2873POPC   C1A38199  10.557  12.015   8.833
 2873POPC   D2A38200  10.339  11.875   8.466
 2873POPC   C3A38201  10.626  11.918   8.144
 2873POPC   C4A38202  10.566  12.042   7.746
 2873POPC   C1B38203  10.364  12.515   8.802
 2873POPC   C2B38204  10.559  12.369   8.422
 2873POPC   C3B38205  10.682  12.473   8.001
 2873POPC   C4B38206  10.409  12.509   7.631
 2874POPC   NC338207  21.749  29.498   9.405
 2874POPC   PO438208  22.340  29.782   9.453
 2874POPC   GL138209  22.154  29.687   9.081
 2874POPC   GL238210  21.840  29.902   9.054
 2874POPC   C1A38211  22.274  29.789   8.677
 2874POPC   D2A38212  22.582  29.953   8.415
 2874POPC   C3A38213  22.471  29.753   8.044
 2874POPC   C4A38214  22.097  29.623   7.823
 2874POPC   C1B38215  21.774  29.623   8.695
 2874POPC   C2B38216  21.881  29.661   8.288
 2874POPC   C3B38217  21.983  30.043   8.096
 2874POPC   C4B38218  21.972  30.119   7.659
 2875POPC   NC338219  11.094  29.525   9.635
 2875POPC   PO438220  11.643  30.046   9.553
 2875POPC   GL138221  11.471  29.884   9.153
 2875POPC   GL238222  11.103  29.906   9.099
 2875POPC   C1A38223  11.394  29.962   8.704
 2875POPC   D2A38224  11.424  29.680   8.365
 2875POPC   C3A38225  11.145  29.835   8.065
 2875POPC   C4A38226  11.338  30.225   8.000
 2875POPC   C1B38227  10.868  30.058   8.781
 2875POPC   C2B38228  10.919  30.196   8.388
 2875POPC   C3B38229  10.707  30.133   8.000
 2875POPC   C4B38230  10.972  30.155   7.647
 2876POPC   NC338231   1.767  13.492   9.435
 2876POPC   PO438232   2.295  13.927   9.514
 2876POPC   GL138233   2.167  13.683   9.161
 2876POPC   GL238234   1.863  13.871   9.093
 2876POPC   C1A38235   2.250  13.399   8.814
 2876POPC   D2A38236   2.337  13.576   8.403
 2876POPC   C3A38237   2.075  13.663   8.075
 2876POPC   C4A38238   2.186  13.540   7.673
 2876POPC   C1B38239   1.876  13.710   8.671
 2876POPC   C2B38240   1.618  13.701   8.299
 2876POPC   C3B38241   1.641  13.967   7.938
 2876POPC   C4B38242   1.758  13.873   7.516
 2877POPC   NC338243  31.863  31.861   9.339
 2877POPC   PO438244  32.440  32.243   9.473
 2877POPC   GL138245  32.324  32.395   9.134
 2877POPC   GL238246  31.989  32.298   9.059
 2877POPC   C1A38247  32.439  32.307   8.760
 2877POPC   D2A38248  32.432  32.132   8.400
 2877POPC   C3A38249  32.120  32.187   8.108
 2877POPC   C4A38250  32.306  32.162   7.727
 2877POPC   C1B38251  32.055  31.980   8.714
 2877POPC   C2B38252  32.105  31.723   8.346
 2877POPC   C3B38253  31.855  31.737   7.948
 2877POPC   C4B38254  31.919  31.920   7.527
 2878POPC   NC338255  43.461  29.168   9.546
 2878POPC   PO438256  42.810  28.930   9.566
 2878POPC   GL138257  42.910  29.110   9.156
 2878POPC   GL238258  43.258  29.204   9.104
 2878POPC   C1A38259  42.937  29.326   8.746
 2878POPC   D2A38260  43.095  29.441   8.344
 2878POPC   C3A38261  42.865  29.299   7.965
 2878POPC   C4A38262  43.148  29.256   7.618
 2878POPC   C1B38263  43.245  28.894   8.805
 2878POPC   C2B38264  43.059  28.905   8.411
 2878POPC   C3B38265  43.185  28.901   7.987
 2878POPC   C4B38266  43.152  28.690   7.594
 2879POPC   NC338267   5.477  12.301   9.515
 2879POPC   PO438268   4.785  12.059   9.560
 2879POPC   GL138269   5.054  12.101   9.177
 2879POPC   GL238270   5.235  12.423   9.088
 2879POPC   C1A38271   5.003  12.152   8.720
 2879POPC   D2A38272   5.180  12.014   8.346
 2879POPC   C3A38273   4.926  12.079   7.996
 2879POPC   C4A38274   5.108  12.021   7.594
 2879POPC   C1B38275   5.342  12.612   8.687
 2879POPC   C2B38276   5.105  12.550   8.298
 2879POPC   C3B38277   5.142  12.510   7.844
 2879POPC   C4B38278   5.339  12.454   7.410
 2880POPC   NC338279   6.047  17.408   9.514
 2880POPC   PO438280   5.342  17.702   9.516
 2880POPC   GL138281   5.692  17.674   9.232
 2880POPC   GL238282   5.650  17.345   9.114
 2880POPC   C1A38283   5.785  17.701   8.776
 2880POPC   D2A38284   5.591  17.814   8.380
 2880POPC   C3A38285   5.725  17.532   8.041
 2880POPC   C4A38286   6.074  17.594   7.784
 2880POPC   C1B38287   6.045  17.237   8.857
 2880POPC   C2B38288   6.373  17.031   8.596
 2880POPC   C3B38289   6.455  16.950   8.141
 2880POPC   C4B38290   6.098  17.046   7.868
 2881POPC   NC338291  22.328  26.154   9.532
 2881POPC   PO438292  21.586  26.018   9.599
 2881POPC   GL138293  21.857  26.135   9.250
 2881POPC   GL238294  22.018  25.840   9.218
 2881POPC   C1A38295  21.872  26.261   8.794
 2881POPC   D2A38296  21.924  26.039   8.368
 2881POPC   C3A38297  22.289  26.146   8.113
 2881POPC   C4A38298  22.348  26.265   7.699
 2881POPC   C1B38299  21.989  25.702   8.766
 2881POPC   C2B38300  21.869  25.416   8.408
 2881POPC   C3B38301  22.039  25.468   7.983
 2881POPC   C4B38302  22.032  25.864   7.758
 2882POPC   NC338303   7.856  36.853   9.391
 2882POPC   PO438304   8.450  36.529   9.500
 2882POPC   GL138305   8.267  36.746   9.113
 2882POPC   GL238306   7.975  36.584   8.986
 2882POPC   C1A38307   8.245  36.940   8.693
 2882POPC   D2A38308   8.418  37.233   8.371
 2882POPC   C3A38309   8.350  37.200   7.906
 2882POPC   C4A38310   8.402  36.828   7.643
 2882POPC   C1B38311   7.736  36.943   8.755
 2882POPC   C2B38312   7.871  37.074   8.378
 2882POPC   C3B38313   8.081  36.813   8.100
 2882POPC   C4B38314   7.929  36.944   7.729
 2883POPC   NC338315  23.181  35.490   9.348
 2883POPC   PO438316  22.875  35.043   9.760
 2883POPC   GL138317  22.873  35.070   9.226
 2883POPC   GL238318  22.573  35.080   9.060
 2883POPC   C1A38319  23.032  35.147   8.757
 2883POPC   D2A38320  22.998  35.515   8.458
 2883POPC   C3A38321  23.175  35.448   8.048
 2883POPC   C4A38322  23.246  35.078   7.803
 2883POPC   C1B38323  22.619  35.419   8.809
 2883POPC   C2B38324  22.556  35.201   8.447
 2883POPC   C3B38325  22.689  35.314   8.076
 2883POPC   C4B38326  22.732  35.124   7.729
 2884POPC   NC338327   8.890  44.780   9.888
 2884POPC   PO438328   9.342  44.527   9.467
 2884POPC   GL138329   9.232  44.764   9.098
 2884POPC   GL238330   8.848  44.784   9.055
 2884POPC   C1A38331   9.145  44.643   8.659
 2884POPC   D2A38332   8.979  44.390   8.312
 2884POPC   C3A38333   9.135  44.505   7.904
 2884POPC   C4A38334   9.273  44.945   7.776
 2884POPC   C1B38335   8.657  44.478   8.723
 2884POPC   C2B38336   8.452  44.424   8.288
 2884POPC   C3B38337   8.609  44.600   7.873
 2884POPC   C4B38338   8.889  44.704   7.492
 2885POPC   NC338339   0.071  20.375   9.507
 2885POPC   PO438340  44.512  20.750   9.661
 2885POPC   GL138341  44.652  20.643   9.205
 2885POPC   GL238342  44.819  20.325   9.075
 2885POPC   C1A38343  44.438  20.570   8.790
 2885POPC   D2A38344  44.275  20.422   8.376
 2885POPC   C3A38345  44.334  20.604   7.983
 2885POPC   C4A38346  44.395  20.505   7.556
 2885POPC   C1B38347  44.941  20.512   8.675
 2885POPC   C2B38348  44.774  20.396   8.263
 2885POPC   C3B38349  44.931  20.486   7.892
 2885POPC   C4B38350   0.201  20.828   7.811
 2886POPC   NC338351  29.547   3.797   9.801
 2886POPC   PO438352  29.708   3.291   9.362
 2886POPC   GL138353  30.020   3.420   9.015
 2886POPC   GL238354  29.917   3.739   8.837
 2886POPC   C1A38355  30.356   3.546   8.737
 2886POPC   D2A38356  30.232   3.727   8.370
 2886POPC   C3A38357  30.128   3.527   8.024
 2886POPC   C4A38358  30.264   3.705   7.687
 2886POPC   C1B38359  29.613   3.413   8.705
 2886POPC   C2B38360  29.561   3.234   8.323
 2886POPC   C3B38361  29.614   3.445   7.982
 2886POPC   C4B38362  29.755   3.546   7.601
 2887POPC   NC338363  21.812  41.613   9.409
 2887POPC   PO438364  22.564  41.642   9.643
 2887POPC   GL138365  22.296  41.563   9.248
 2887POPC   GL238366  22.116  41.745   9.046
 2887POPC   C1A38367  22.354  41.326   8.848
 2887POPC   D2A38368  22.488  41.437   8.424
 2887POPC   C3A38369  22.366  41.328   7.972
 2887POPC   C4A38370  22.291  41.557   7.550
 2887POPC   C1B38371  21.928  41.646   8.685
 2887POPC   C2B38372  22.099  41.821   8.317
 2887POPC   C3B38373  22.032  41.862   7.888
 2887POPC   C4B38374  21.804  41.528   7.689
 2888POPC   NC338375  34.796   1.092   9.458
 2888POPC   PO438376  34.319   1.468   9.469
 2888POPC   GL138377  34.474   1.294   9.084
 2888POPC   GL238378  34.407   0.955   9.116
 2888POPC   C1A38379  34.447   1.199   8.635
 2888POPC   D2A38380  34.717   1.226   8.265
 2888POPC   C3A38381  34.546   1.326   7.879
 2888POPC   C4A38382  34.678   1.336   7.421
 2888POPC   C1B38383  34.771   0.854   8.838
 2888POPC   C2B38384  34.669   0.743   8.417
 2888POPC   C3B38385  34.455   0.852   8.027
 2888POPC   C4B38386  34.826   0.938   7.766
 2889POPC   NC338387  19.645  24.831   9.403
 2889POPC   PO438388  19.741  24.228   9.580
 2889POPC   GL138389  19.900  24.402   9.206
 2889POPC   GL238390  20.167  24.651   9.215
 2889POPC   C1A38391  19.773  24.213   8.831
 2889POPC   D2A38392  19.829  24.342   8.428
 2889POPC   C3A38393  19.452  24.326   8.218
 2889POPC   C4A38394  19.533  24.423   7.816
 2889POPC   C1B38395  19.949  24.756   8.825
 2889POPC   C2B38396  19.997  24.836   8.416
 2889POPC   C3B38397  19.794  24.873   8.041
 2889POPC   C4B38398  19.995  24.913   7.654
 2890POPC   NC338399  20.709  15.573   9.476
 2890POPC   PO438400  20.460  14.920   9.485
 2890POPC   GL138401  20.759  15.090   9.210
 2890POPC   GL238402  20.850  14.811   8.977
 2890POPC   C1A38403  20.568  15.273   8.864
 2890POPC   D2A38404  20.332  15.111   8.533
 2890POPC   C3A38405  20.480  15.301   8.158
 2890POPC   C4A38406  20.569  15.458   7.767
 2890POPC   C1B38407  21.063  15.141   8.761
 2890POPC   C2B38408  21.011  15.249   8.323
 2890POPC   C3B38409  20.848  15.035   7.931
 2890POPC   C4B38410  20.797  15.094   7.486
 2891POPC   NC338411  42.066  12.628   9.401
 2891POPC   PO438412  42.551  13.192   9.545
 2891POPC   GL138413  42.496  12.934   9.250
 2891POPC   GL238414  42.596  12.604   9.350
 2891POPC   C1A38415  42.345  12.979   8.889
 2891POPC   D2A38416  42.186  12.788   8.586
 2891POPC   C3A38417  42.315  12.801   8.167
 2891POPC   C4A38418  42.269  12.990   7.802
 2891POPC   C1B38419  42.527  12.507   8.908
 2891POPC   C2B38420  42.702  12.624   8.526
 2891POPC   C3B38421  42.724  12.477   8.109
 2891POPC   C4B38422  42.519  12.548   7.728
 2892POPC   NC338423  26.825  21.620   9.704
 2892POPC   PO438424  26.443  21.111   9.621
 2892POPC   GL138425  26.699  21.253   9.282
 2892POPC   GL238426  26.864  20.945   9.235
 2892POPC   C1A38427  26.919  21.353   8.866
 2892POPC   D2A38428  26.751  21.380   8.426
 2892POPC   C3A38429  26.800  21.604   8.013
 2892POPC   C4A38430  26.701  21.471   7.590
 2892POPC   C1B38431  26.775  20.863   8.792
 2892POPC   C2B38432  26.812  20.837   8.332
 2892POPC   C3B38433  26.896  21.097   7.967
 2892POPC   C4B38434  27.029  20.986   7.561
 2893POPC   NC338435  40.317  39.951   9.629
 2893POPC   PO438436  39.936  40.419   9.354
 2893POPC   GL138437  40.045  40.085   9.077
 2893POPC   GL238438  40.174  39.771   9.182
 2893POPC   C1A38439  39.804  39.953   8.749
 2893POPC   D2A38440  39.948  39.881   8.366
 2893POPC   C3A38441  39.791  40.080   8.032
 2893POPC   C4A38442  39.986  39.983   7.663
 2893POPC   C1B38443  40.330  39.792   8.787
 2893POPC   C2B38444  40.349  39.595   8.401
 2893POPC   C3B38445  40.355  39.811   7.998
 2893POPC   C4B38446  40.329  39.597   7.582
 2894POPC   NC338447  33.533   0.161   9.591
 2894POPC   PO438448  32.892   0.413   9.596
 2894POPC   GL138449  33.051   0.478   9.220
 2894POPC   GL238450  33.225   0.162   9.156
 2894POPC   C1A38451  32.908   0.451   8.818
 2894POPC   D2A38452  32.984   0.109   8.546
 2894POPC   C3A38453  32.899   0.248   8.115
 2894POPC   C4A38454  33.071   0.491   7.789
 2894POPC   C1B38455  33.417   0.351   8.780
 2894POPC   C2B38456  33.357   0.392   8.325
 2894POPC   C3B38457  33.372   0.082   7.983
 2894POPC   C4B38458  33.328   0.135   7.528
 2895POPC   NC338459  22.018   6.182   9.519
 2895POPC   PO438460  22.417   5.645   9.607
 2895POPC   GL138461  22.412   5.777   9.220
 2895POPC   GL238462  22.496   6.118   9.308
 2895POPC   C1A38463  22.248   5.634   8.830
 2895POPC   D2A38464  22.201   5.859   8.453
 2895POPC   C3A38465  22.155   5.635   8.071
 2895POPC   C4A38466  21.861   5.755   7.749
 2895POPC   C1B38467  22.411   6.140   8.858
 2895POPC   C2B38468  22.552   6.236   8.421
 2895POPC   C3B38469  22.338   6.124   8.020
 2895POPC   C4B38470  22.341   5.867   7.655
 2896POPC   NC338471   4.132   8.880   9.681
 2896POPC   PO438472   4.728   8.592   9.509
 2896POPC   GL138473   4.404   8.830   9.244
 2896POPC   GL238474   4.004   8.742   9.216
 2896POPC   C1A38475   4.452   9.062   8.863
 2896POPC   D2A38476   4.446   9.223   8.451
 2896POPC   C3A38477   4.531   8.979   8.097
 2896POPC   C4A38478   4.433   8.877   7.672
 2896POPC   C1B38479   3.978   8.867   8.812
 2896POPC   C2B38480   4.130   8.763   8.413
 2896POPC   C3B38481   4.028   8.877   7.997
 2896POPC   C4B38482   4.145   9.281   7.859
 2897POPC   NC338483  34.873  44.432   9.527
 2897POPC   PO438484  35.399  44.860   9.622
 2897POPC   GL138485  35.232  44.679   9.258
 2897POPC   GL238486  34.964  44.897   9.311
 2897POPC   C1A38487  35.402  44.512   8.857
 2897POPC   D2A38488  35.416  44.324   8.440
 2897POPC   C3A38489  35.441  44.579   8.058
 2897POPC   C4A38490  35.443  44.447   7.644
 2897POPC   C1B38491  35.067  44.914   8.837
 2897POPC   C2B38492  35.187  44.872   8.398
 2897POPC   C3B38493  35.088   0.049   7.960
 2897POPC   C4B38494  35.298  44.914   7.553
 2898POPC   NC338495   6.664  13.327   9.520
 2898POPC   PO438496   6.309  13.907   9.507
 2898POPC   GL138497   6.422  13.632   9.129
 2898POPC   GL238498   6.789  13.529   9.046
 2898POPC   C1A38499   6.435  13.612   8.686
 2898POPC   D2A38500   6.793  13.543   8.447
 2898POPC   C3A38501   6.770  13.737   8.048
 2898POPC   C4A38502   6.596  13.540   7.725
 2898POPC   C1B38503   7.038  13.214   8.796
 2898POPC   C2B38504   7.164  13.158   8.406
 2898POPC   C3B38505   6.974  13.250   8.034
 2898POPC   C4B38506   7.070  13.342   7.614
 2899POPC   NC338507  19.034  13.362   9.488
 2899POPC   PO438508  18.937  14.038   9.366
 2899POPC   GL138509  18.996  13.706   9.116
 2899POPC   GL238510  19.360  13.661   9.208
 2899POPC   C1A38511  18.786  13.504   8.778
 2899POPC   D2A38512  18.688  13.726   8.378
 2899POPC   C3A38513  18.810  13.524   7.999
 2899POPC   C4A38514  19.090  13.535   7.657
 2899POPC   C1B38515  19.307  13.438   8.811
 2899POPC   C2B38516  19.132  13.449   8.408
 2899POPC   C3B38517  19.328  13.622   8.084
 2899POPC   C4B38518  19.558  13.373   7.808
 2900POPC   NC338519   5.475  31.533   9.799
 2900POPC   PO438520   4.918  31.428   9.493
 2900POPC   GL138521   4.894  31.305   9.094
 2900POPC   GL238522   4.671  31.014   9.086
 2900POPC   C1A38523   4.922  31.434   8.683
 2900POPC   D2A38524   4.789  31.688   8.338
 2900POPC   C3A38525   5.110  31.731   8.068
 2900POPC   C4A38526   5.219  31.438   7.769
 2900POPC   C1B38527   4.945  30.905   8.777
 2900POPC   C2B38528   5.194  31.069   8.444
 2900POPC   C3B38529   4.929  31.226   8.132
 2900POPC   C4B38530   4.743  31.252   7.726
 2901POPC   NC338531   5.337  41.173   9.359
 2901POPC   PO438532   5.124  41.728   9.636
 2901POPC   GL138533   5.080  41.737   9.173
 2901POPC   GL238534   5.309  41.554   9.006
 2901POPC   C1A38535   4.928  41.800   8.752
 2901POPC   D2A38536   4.950  41.746   8.313
 2901POPC   C3A38537   4.808  41.343   8.146
 2901POPC   C4A38538   4.809  41.197   7.737
 2901POPC   C1B38539   5.320  41.475   8.551
 2901POPC   C2B38540   5.308  41.148   8.235
 2901POPC   C3B38541   5.332  41.225   7.820
 2901POPC   C4B38542   5.138  41.621   7.821
 2902POPC   NC338543  23.722  25.791   9.486
 2902POPC   PO438544  23.988  25.174   9.410
 2902POPC   GL138545  23.896  25.028   9.023
 2902POPC   GL238546  23.755  25.386   8.997
 2902POPC   C1A38547  23.648  25.040   8.641
 2902POPC   D2A38548  23.552  25.325   8.293
 2902POPC   C3A38549  23.759  25.106   7.980
 2902POPC   C4A38550  23.673  24.768   7.749
 2902POPC   C1B38551  23.430  25.672   8.871
 2902POPC   C2B38552  23.210  25.715   8.503
 2902POPC   C3B38553  23.299  25.808   8.064
 2902POPC   C4B38554  23.504  25.529   7.803
 2903POPC   NC338555   3.213  22.335   9.485
 2903POPC   PO438556   2.658  22.036   9.639
 2903POPC   GL138557   2.664  22.077   9.213
 2903POPC   GL238558   2.797  22.404   9.184
 2903POPC   C1A38559   2.953  22.022   8.852
 2903POPC   D2A38560   3.098  22.139   8.434
 2903POPC   C3A38561   2.778  22.139   8.106
 2903POPC   C4A38562   2.554  21.840   7.846
 2903POPC   C1B38563   2.949  22.527   8.766
 2903POPC   C2B38564   2.789  22.563   8.375
 2903POPC   C3B38565   2.895  22.678   7.980
 2903POPC   C4B38566   2.787  22.518   7.616
 2904POPC   NC338567  31.818   8.358   9.410
 2904POPC   PO438568  31.152   8.321   9.458
 2904POPC   GL138569  31.340   8.157   9.104
 2904POPC   GL238570  31.627   8.312   8.939
 2904POPC   C1A38571  31.201   8.150   8.713
 2904POPC   D2A38572  31.512   8.266   8.419
 2904POPC   C3A38573  31.374   8.325   8.051
 2904POPC   C4A38574  31.500   8.465   7.681
 2904POPC   C1B38575  31.618   7.894   8.739
 2904POPC   C2B38576  31.726   7.801   8.343
 2904POPC   C3B38577  31.836   8.067   8.045
 2904POPC   C4B38578  31.620   7.962   7.694
 2905POPC   NC338579   5.611  44.498   9.417
 2905POPC   PO438580   6.025   0.037   9.483
 2905POPC   GL138581   5.782  44.919   9.132
 2905POPC   GL238582   5.981  44.626   9.069
 2905POPC   C1A38583   5.719  44.869   8.684
 2905POPC   D2A38584   6.030  44.567   8.479
 2905POPC   C3A38585   5.990  44.630   8.086
 2905POPC   C4A38586   6.076  44.849   7.757
 2905POPC   C1B38587   5.704  44.381   8.791
 2905POPC   C2B38588   5.495  44.496   8.389
 2905POPC   C3B38589   5.571  44.341   8.000
 2905POPC   C4B38590   5.852  44.420   7.619
 2906POPC   NC338591  40.108  22.711   9.458
 2906POPC   PO438592  39.641  23.161   9.520
 2906POPC   GL138593  39.959  23.133   9.186
 2906POPC   GL238594  40.310  23.247   9.317
 2906POPC   C1A38595  39.994  22.810   8.825
 2906POPC   D2A38596  39.983  22.587   8.426
 2906POPC   C3A38597  40.002  22.778   8.025
 2906POPC   C4A38598  40.210  22.805   7.632
 2906POPC   C1B38599  40.314  23.237   8.847
 2906POPC   C2B38600  40.098  23.140   8.447
 2906POPC   C3B38601  40.149  23.275   8.057
 2906POPC   C4B38602  40.509  23.133   7.865
 2907POPC   NC338603  18.399   2.558   9.422
 2907POPC   PO438604  17.743   2.735   9.547
 2907POPC   GL138605  18.040   2.960   9.265
 2907POPC   GL238606  17.962   2.747   9.021
 2907POPC   C1A38607  18.410   3.006   8.940
 2907POPC   D2A38608  18.561   2.987   8.509
 2907POPC   C3A38609  18.384   3.163   8.150
 2907POPC   C4A38610  18.300   2.907   7.809
 2907POPC   C1B38611  18.011   2.952   8.633
 2907POPC   C2B38612  18.126   2.739   8.276
 2907POPC   C3B38613  18.202   2.406   7.990
 2907POPC   C4B38614  18.215   2.462   7.566
 2908POPC   NC338615  24.824  10.769   9.496
 2908POPC   PO438616  24.382  10.422   9.629
 2908POPC   GL138617  24.623  10.378   9.247
 2908POPC   GL238618  24.828  10.104   9.133
 2908POPC   C1A38619  24.756  10.549   8.860
 2908POPC   D2A38620  24.746  10.400   8.434
 2908POPC   C3A38621  24.545  10.702   8.115
 2908POPC   C4A38622  24.542  11.130   7.927
 2908POPC   C1B38623  24.456  10.127   8.846
 2908POPC   C2B38624  24.252  10.251   8.435
 2908POPC   C3B38625  24.477  10.164   8.050
 2908POPC   C4B38626  24.523  10.389   7.681
 2909POPC   NC338627  25.508  11.708   9.400
 2909POPC   PO438628  25.061  11.166   9.471
 2909POPC   GL138629  25.260  11.335   9.136
 2909POPC   GL238630  25.585  11.220   9.123
 2909POPC   C1A38631  25.227  11.206   8.723
 2909POPC   D2A38632  25.416  11.106   8.359
 2909POPC   C3A38633  25.133  11.051   8.019
 2909POPC   C4A38634  24.957  11.347   7.745
 2909POPC   C1B38635  25.647  11.491   8.774
 2909POPC   C2B38636  25.659  11.559   8.340
 2909POPC   C3B38637  25.575  11.388   7.907
 2909POPC   C4B38638  25.581  11.528   7.445
 2910POPC   NC338639   0.196  44.374   9.619
 2910POPC   PO438640   0.577  44.905   9.599
 2910POPC   GL138641   0.525  44.749   9.195
 2910POPC   GL238642   0.404  44.431   9.172
 2910POPC   C1A38643   0.385  44.815   8.770
 2910POPC   D2A38644   0.592  44.817   8.385
 2910POPC   C3A38645   0.365  44.903   7.993
 2910POPC   C4A38646   0.257  44.871   7.561
 2910POPC   C1B38647   0.560  44.334   8.787
 2910POPC   C2B38648   0.352  44.353   8.430
 2910POPC   C3B38649   0.517  44.423   8.050
 2910POPC   C4B38650   0.384  44.407   7.673
 2911POPC   NC338651  33.962  30.316   9.320
 2911POPC   PO438652  33.461  29.876   9.352
 2911POPC   GL138653  33.785  29.837   9.062
 2911POPC   GL238654  34.132  29.765   9.222
 2911POPC   C1A38655  33.842  30.095   8.674
 2911POPC   D2A38656  34.112  30.181   8.305
 2911POPC   C3A38657  33.952  30.243   7.904
 2911POPC   C4A38658  34.108  30.180   7.471
 2911POPC   C1B38659  34.173  29.680   8.773
 2911POPC   C2B38660  33.944  29.683   8.358
 2911POPC   C3B38661  33.790  29.763   7.937
 2911POPC   C4B38662  33.453  29.617   7.673
 2912POPC   NC338663  28.106   5.580   9.423
 2912POPC   PO438664  28.651   5.833   9.787
 2912POPC   GL138665  28.523   5.853   9.331
 2912POPC   GL238666  28.563   6.165   9.227
 2912POPC   C1A38667  28.505   5.733   8.865
 2912POPC   D2A38668  28.462   5.919   8.433
 2912POPC   C3A38669  28.425   5.652   8.083
 2912POPC   C4A38670  28.108   5.740   7.767
 2912POPC   C1B38671  28.379   6.226   8.834
 2912POPC   C2B38672  28.168   6.331   8.470
 2912POPC   C3B38673  27.996   6.154   8.110
 2912POPC   C4B38674  28.104   6.247   7.702
 2913POPC   NC338675  18.519  37.864   9.495
 2913POPC   PO438676  18.218  37.343   9.441
 2913POPC   GL138677  18.330  37.593   9.082
 2913POPC   GL238678  18.438  37.982   9.006
 2913POPC   C1A38679  18.076  37.634   8.706
 2913POPC   D2A38680  18.151  37.747   8.310
 2913POPC   C3A38681  18.064  37.571   7.949
 2913POPC   C4A38682  18.003  37.809   7.604
 2913POPC   C1B38683  18.609  37.720   8.681
 2913POPC   C2B38684  18.620  37.518   8.293
 2913POPC   C3B38685  18.544  37.734   7.932
 2913POPC   C4B38686  18.831  37.836   7.648
 2914POPC   NC338687  22.519  44.424   9.872
 2914POPC   PO438688  21.932  44.524   9.542
 2914POPC   GL138689  22.076  44.691   9.139
 2914POPC   GL238690  21.768  44.881   9.107
 2914POPC   C1A38691  22.100  44.569   8.740
 2914POPC   D2A38692  22.201  44.333   8.373
 2914POPC   C3A38693  22.310  44.568   8.027
 2914POPC   C4A38694  22.056  44.478   7.671
 2914POPC   C1B38695  21.972   0.094   8.782
 2914POPC   C2B38696  22.106  44.952   8.375
 2914POPC   C3B38697  21.956  44.930   7.945
 2914POPC   C4B38698  21.954  44.944   7.506
 2915POPC   NC338699  28.920  43.842   9.611
 2915POPC   PO438700  29.587  43.850   9.632
 2915POPC   GL138701  29.452  43.980   9.184
 2915POPC   GL238702  29.088  43.983   9.163
 2915POPC   C1A38703  29.474  43.907   8.690
 2915POPC   D2A38704  29.232  43.920   8.306
 2915POPC   C3A38705  29.160  43.762   7.893
 2915POPC   C4A38706  29.424  43.738   7.545
 2915POPC   C1B38707  29.007  44.085   8.759
 2915POPC   C2B38708  28.782  44.108   8.374
 2915POPC   C3B38709  28.949  44.250   7.982
 2915POPC   C4B38710  29.067  44.151   7.547
 2916POPC   NC338711  42.932  26.569   9.457
 2916POPC   PO438712  43.141  25.847   9.451
 2916POPC   GL138713  42.887  26.088   9.209
 2916POPC   GL238714  43.118  26.289   9.053
 2916POPC   C1A38715  42.793  26.010   8.785
 2916POPC   D2A38716  42.998  25.851   8.398
 2916POPC   C3A38717  43.294  25.857   8.062
 2916POPC   C4A38718  42.965  25.851   7.791
 2916POPC   C1B38719  43.343  26.034   8.742
 2916POPC   C2B38720  43.464  26.247   8.339
 2916POPC   C3B38721  43.403  26.339   7.862
 2916POPC   C4B38722  43.498  26.439   7.381
 2917POPC   NC338723   2.579  38.773   9.490
 2917POPC   PO438724   2.937  38.197   9.389
 2917POPC   GL138725   2.684  38.423   9.140
 2917POPC   GL238726   2.919  38.697   9.108
 2917POPC   C1A38727   2.498  38.704   8.825
 2917POPC   D2A38728   2.492  38.497   8.456
 2917POPC   C3A38729   2.679  38.615   8.115
 2917POPC   C4A38730   2.576  38.373   7.782
 2917POPC   C1B38731   2.955  38.465   8.706
 2917POPC   C2B38732   3.154  38.474   8.311
 2917POPC   C3B38733   3.068  38.317   7.907
 2917POPC   C4B38734   2.999  38.414   7.469
 2918POPC   NC338735  34.359  32.068   9.515
 2918POPC   PO438736  34.161  32.630   9.532
 2918POPC   GL138737  34.440  32.437   9.152
 2918POPC   GL238738  34.671  32.125   9.130
 2918POPC   C1A38739  34.747  32.472   8.776
 2918POPC   D2A38740  34.820  32.154   8.464
 2918POPC   C3A38741  34.766  32.288   8.042
 2918POPC   C4A38742  34.345  32.308   7.839
 2918POPC   C1B38743  34.401  32.072   8.775
 2918POPC   C2B38744  34.305  32.091   8.325
 2918POPC   C3B38745  34.295  31.820   7.956
 2918POPC   C4B38746  34.275  31.856   7.480
 2919POPC   NC338747  20.845   8.751   9.833
 2919POPC   PO438748  20.321   8.894   9.450
 2919POPC   GL138749  20.647   8.807   9.192
 2919POPC   GL238750  20.711   9.110   8.999
 2919POPC   C1A38751  20.583   8.684   8.780
 2919POPC   D2A38752  20.407   8.787   8.414
 2919POPC   C3A38753  20.582   8.538   8.118
 2919POPC   C4A38754  20.613   8.594   7.696
 2919POPC   C1B38755  20.730   9.174   8.531
 2919POPC   C2B38756  20.668   9.046   8.065
 2919POPC   C3B38757  20.934   9.173   7.724
 2919POPC   C4B38758  20.840   9.618   7.562
 2920POPC   NC338759  11.034   3.503   9.426
 2920POPC   PO438760  11.212   4.158   9.341
 2920POPC   GL138761  11.113   3.823   9.059
 2920POPC   GL238762  11.424   3.644   9.101
 2920POPC   C1A38763  11.117   3.478   8.733
 2920POPC   D2A38764  10.925   3.351   8.362
 2920POPC   C3A38765  11.148   3.462   8.033
 2920POPC   C4A38766  11.259   3.392   7.644
 2920POPC   C1B38767  11.470   3.858   8.692
 2920POPC   C2B38768  11.512   3.736   8.256
 2920POPC   C3B38769  11.629   3.704   7.804
 2920POPC   C4B38770  11.666   3.935   7.386
 2921POPC   NC338771  34.145   5.145   9.464
 2921POPC   PO438772  34.666   5.043   9.712
 2921POPC   GL138773  34.654   5.147   9.285
 2921POPC   GL238774  34.835   4.866   9.191
 2921POPC   C1A38775  34.588   5.252   8.842
 2921POPC   D2A38776  34.426   5.086   8.428
 2921POPC   C3A38777  34.538   5.295   8.036
 2921POPC   C4A38778  34.723   5.268   7.630
 2921POPC   C1B38779  34.999   4.986   8.764
 2921POPC   C2B38780  34.931   5.105   8.346
 2921POPC   C3B38781  34.862   4.878   7.966
 2921POPC   C4B38782  35.109   4.869   7.618
 2922POPC   NC338783  20.068  12.257   9.391
 2922POPC   PO438784  20.184  11.661   9.459
 2922POPC   GL138785  19.796  11.782   9.172
 2922POPC   GL238786  19.493  12.059   9.152
 2922POPC   C1A38787  19.759  11.958   8.740
 2922POPC   D2A38788  19.907  12.229   8.403
 2922POPC   C3A38789  19.988  12.001   8.033
 2922POPC   C4A38790  19.704  11.930   7.731
 2922POPC   C1B38791  19.534  12.425   8.786
 2922POPC   C2B38792  19.459  12.461   8.311
 2922POPC   C3B38793  19.718  12.438   7.905
 2922POPC   C4B38794  20.173  12.495   7.825
 2923POPC   NC338795   3.154   5.738   9.397
 2923POPC   PO438796   2.474   6.021   9.537
 2923POPC   GL138797   2.725   6.057   9.213
 2923POPC   GL238798   2.713   5.717   9.161
 2923POPC   C1A38799   2.761   6.047   8.773
 2923POPC   D2A38800   2.565   5.881   8.432
 2923POPC   C3A38801   2.743   6.023   8.070
 2923POPC   C4A38802   2.605   6.055   7.681
 2923POPC   C1B38803   2.553   5.543   8.816
 2923POPC   C2B38804   2.546   5.367   8.412
 2923POPC   C3B38805   2.572   5.553   8.028
 2923POPC   C4B38806   2.472   5.430   7.649
 2924POPC   NC338807  31.489  29.607   9.468
 2924POPC   PO438808  31.265  30.287   9.523
 2924POPC   GL138809  31.298  30.023   9.179
 2924POPC   GL238810  31.633  29.983   9.133
 2924POPC   C1A38811  31.275  29.954   8.734
 2924POPC   D2A38812  31.261  29.972   8.303
 2924POPC   C3A38813  31.641  30.022   8.129
 2924POPC   C4A38814  31.693  29.920   7.692
 2924POPC   C1B38815  31.837  29.837   8.766
 2924POPC   C2B38816  31.638  29.593   8.437
 2924POPC   C3B38817  31.555  29.500   8.001
 2924POPC   C4B38818  31.235  29.543   7.692
 2925POPC   NC338819  27.588  12.799   9.662
 2925POPC   PO438820  28.099  12.488   9.393
 2925POPC   GL138821  27.783  12.745   9.101
 2925POPC   GL238822  27.463  12.759   9.165
 2925POPC   C1A38823  27.785  13.041   8.748
 2925POPC   D2A38824  27.508  13.126   8.397
 2925POPC   C3A38825  27.655  13.010   8.005
 2925POPC   C4A38826  27.761  12.877   7.605
 2925POPC   C1B38827  27.284  12.968   8.831
 2925POPC   C2B38828  27.156  12.747   8.456
 2925POPC   C3B38829  27.231  12.532   8.098
 2925POPC   C4B38830  27.376  12.562   7.713
 2926POPC   NC338831  42.242   0.024   9.372
 2926POPC   PO438832  42.529  44.403   9.535
 2926POPC   GL138833  42.513  44.611   9.175
 2926POPC   GL238834  42.166  44.518   9.176
 2926POPC   C1A38835  42.423  44.727   8.757
 2926POPC   D2A38836  42.661  44.549   8.467
 2926POPC   C3A38837  42.458  44.697   8.163
 2926POPC   C4A38838  42.507  44.691   7.774
 2926POPC   C1B38839  41.993  44.447   8.782
 2926POPC   C2B38840  41.980  44.644   8.354
 2926POPC   C3B38841  42.001  44.574   7.895
 2926POPC   C4B38842  42.130  44.577   7.447
 2927POPC   NC338843  28.927  26.385   9.401
 2927POPC   PO438844  29.288  25.845   9.415
 2927POPC   GL138845  29.105  26.011   9.031
 2927POPC   GL238846  28.756  25.992   9.101
 2927POPC   C1A38847  28.953  25.853   8.623
 2927POPC   D2A38848  28.986  25.676   8.203
 2927POPC   C3A38849  29.149  25.959   7.937
 2927POPC   C4A38850  28.999  26.355   7.901
 2927POPC   C1B38851  28.629  26.256   8.775
 2927POPC   C2B38852  28.714  26.215   8.329
 2927POPC   C3B38853  28.617  25.989   7.988
 2927POPC   C4B38854  28.568  26.258   7.671
 2928POPC   NC338855  42.440  28.834   9.818
 2928POPC   PO438856  42.140  29.297   9.537
 2928POPC   GL138857  42.281  29.132   9.173
 2928POPC   GL238858  42.454  28.838   9.209
 2928POPC   C1A38859  42.429  29.295   8.796
 2928POPC   D2A38860  42.600  29.192   8.386
 2928POPC   C3A38861  42.326  29.036   8.064
 2928POPC   C4A38862  42.256  29.107   7.592
 2928POPC   C1B38863  42.667  28.842   8.779
 2928POPC   C2B38864  42.634  28.669   8.324
 2928POPC   C3B38865  42.710  28.759   7.886
 2928POPC   C4B38866  42.736  29.005   7.503
 2929POPC   NC338867  15.738  14.275   9.634
 2929POPC   PO438868  16.395  14.222   9.600
 2929POPC   GL138869  16.038  14.289   9.231
 2929POPC   GL238870  15.747  14.577   9.213
 2929POPC   C1A38871  15.807  14.258   8.815
 2929POPC   D2A38872  16.003  14.259   8.438
 2929POPC   C3A38873  15.836  14.287   7.994
 2929POPC   C4A38874  15.828  14.096   7.578
 2929POPC   C1B38875  15.455  14.670   8.850
 2929POPC   C2B38876  15.499  14.492   8.425
 2929POPC   C3B38877  15.516  14.672   8.013
 2929POPC   C4B38878  15.731  14.630   7.578
 2930POPC   NC338879  32.295  34.287   9.554
 2930POPC   PO438880  32.044  34.979   9.685
 2930POPC   GL138881  32.086  34.686   9.305
 2930POPC   GL238882  32.410  34.797   9.189
 2930POPC   C1A38883  32.159  34.395   8.923
 2930POPC   D2A38884  31.938  34.196   8.573
 2930POPC   C3A38885  32.067  34.284   8.144
 2930POPC   C4A38886  32.149  34.502   7.750
 2930POPC   C1B38887  32.586  34.675   8.805
 2930POPC   C2B38888  32.371  34.618   8.414
 2930POPC   C3B38889  32.560  34.695   8.022
 2930POPC   C4B38890  32.440  34.931   7.664
 2931POPC   NC338891   3.399  38.867   9.525
 2931POPC   PO438892   3.921  39.311   9.449
 2931POPC   GL138893   3.514  39.311   9.218
 2931POPC   GL238894   3.245  39.086   9.110
 2931POPC   C1A38895   3.450  39.347   8.757
 2931POPC   D2A38896   3.675  39.249   8.367
 2931POPC   C3A38897   3.511  39.304   7.953
 2931POPC   C4A38898   3.685  39.265   7.511
 2931POPC   C1B38899   3.300  38.845   8.744
 2931POPC   C2B38900   3.245  38.972   8.325
 2931POPC   C3B38901   3.423  38.767   7.951
 2931POPC   C4B38902   3.380  38.793   7.503
 2932POPC   NC338903   8.849  30.928   9.574
 2932POPC   PO438904   9.211  30.382   9.465
 2932POPC   GL138905   9.010  30.653   9.141
 2932POPC   GL238906   8.718  30.891   9.106
 2932POPC   C1A38907   8.935  30.601   8.703
 2932POPC   D2A38908   9.021  30.904   8.350
 2932POPC   C3A38909   8.986  30.688   8.062
 2932POPC   C4A38910   8.824  30.522   7.782
 2932POPC   C1B38911   8.553  30.926   8.723
 2932POPC   C2B38912   8.539  30.729   8.359
 2932POPC   C3B38913   8.451  30.828   7.957
 2932POPC   C4B38914   8.763  31.078   7.783
 2933POPC   NC338915  25.731   5.184   9.731
 2933POPC   PO438916  26.391   5.246   9.459
 2933POPC   GL138917  26.053   5.227   9.141
 2933POPC   GL238918  25.900   4.888   9.089
 2933POPC   C1A38919  25.937   5.243   8.674
 2933POPC   D2A38920  26.092   5.473   8.299
 2933POPC   C3A38921  26.147   5.183   7.939
 2933POPC   C4A38922  26.336   4.764   7.848
 2933POPC   C1B38923  25.574   4.858   8.763
 2933POPC   C2B38924  25.581   4.912   8.352
 2933POPC   C3B38925  25.638   5.248   8.073
 2933POPC   C4B38926  25.723   5.296   7.657
 2934POPC   NC338927  21.659  25.564   9.590
 2934POPC   PO438928  21.227  25.056   9.495
 2934POPC   GL138929  21.287  25.338   9.166
 2934POPC   GL238930  21.246  25.687   9.285
 2934POPC   C1A38931  21.436  25.386   8.732
 2934POPC   D2A38932  21.356  25.237   8.330
 2934POPC   C3A38933  21.551  25.340   7.977
 2934POPC   C4A38934  21.326  25.226   7.645
 2934POPC   C1B38935  21.053  25.700   8.870
 2934POPC   C2B38936  21.009  25.625   8.445
 2934POPC   C3B38937  21.120  25.607   8.017
 2934POPC   C4B38938  20.860  25.505   7.679
 2935POPC   NC338939   7.902  34.501   9.830
 2935POPC   PO438940   8.290  34.960   9.612
 2935POPC   GL138941   8.276  34.692   9.234
 2935POPC   GL238942   7.921  34.678   9.174
 2935POPC   C1A38943   8.397  34.674   8.783
 2935POPC   D2A38944   8.291  34.419   8.425
 2935POPC   C3A38945   8.160  34.638   8.050
 2935POPC   C4A38946   8.360  34.577   7.638
 2935POPC   C1B38947   7.880  34.468   8.776
 2935POPC   C2B38948   7.783  34.316   8.379
 2935POPC   C3B38949   7.784  34.168   7.995
 2935POPC   C4B38950   7.805  34.491   7.695
 2936POPC   NC338951  13.977  24.928   9.307
 2936POPC   PO438952  14.507  25.195   9.551
 2936POPC   GL138953  14.431  25.165   9.149
 2936POPC   GL238954  14.688  24.900   9.126
 2936POPC   C1A38955  14.250  25.397   8.794
 2936POPC   D2A38956  14.072  25.245   8.401
 2936POPC   C3A38957  14.153  25.474   8.031
 2936POPC   C4A38958  14.148  25.211   7.651
 2936POPC   C1B38959  14.668  25.114   8.693
 2936POPC   C2B38960  14.582  25.434   8.344
 2936POPC   C3B38961  14.601  25.309   7.897
 2936POPC   C4B38962  14.577  24.901   7.728
 2937POPC   NC338963  13.267  15.839   9.598
 2937POPC   PO438964  12.627  15.617   9.702
 2937POPC   GL138965  12.734  15.967   9.346
 2937POPC   GL238966  13.053  16.020   9.196
 2937POPC   C1A38967  12.663  16.029   8.872
 2937POPC   D2A38968  12.468  15.905   8.486
 2937POPC   C3A38969  12.700  15.874   8.093
 2937POPC   C4A38970  12.608  15.970   7.667
 2937POPC   C1B38971  13.175  16.091   8.822
 2937POPC   C2B38972  13.055  15.990   8.447
 2937POPC   C3B38973  13.183  16.052   8.041
 2937POPC   C4B38974  12.959  16.326   7.774
 2938POPC   NC338975  22.452  20.595   9.269
 2938POPC   PO438976  21.918  20.548   9.710
 2938POPC   GL138977  21.915  20.713   9.254
 2938POPC   GL238978  22.127  20.982   9.279
 2938POPC   C1A38979  21.995  20.526   8.800
 2938POPC   D2A38980  21.865  20.429   8.410
 2938POPC   C3A38981  22.213  20.439   8.142
 2938POPC   C4A38982  22.184  20.551   7.745
 2938POPC   C1B38983  22.209  20.988   8.839
 2938POPC   C2B38984  22.359  20.833   8.464
 2938POPC   C3B38985  22.169  20.950   8.101
 2938POPC   C4B38986  22.070  21.069   7.702
 2939POPC   NC338987   3.839   3.485   9.892
 2939POPC   PO438988   4.275   3.488   9.365
 2939POPC   GL138989   4.428   3.532   8.979
 2939POPC   GL238990   4.595   3.216   8.937
 2939POPC   C1A38991   4.173   3.565   8.620
 2939POPC   D2A38992   3.770   3.585   8.395
 2939POPC   C3A38993   3.900   3.683   7.984
 2939POPC   C4A38994   4.121   3.778   7.611
 2939POPC   C1B38995   4.621   3.322   8.507
 2939POPC   C2B38996   4.415   3.523   8.148
 2939POPC   C3B38997   4.608   3.561   7.739
 2939POPC   C4B38998   4.533   3.290   7.365
 2940POPC   NC338999  10.804  38.730   9.410
 2940POPC   PO439000  10.285  38.233   9.482
 2940POPC   GL139001  10.582  38.332   9.158
 2940POPC   GL239002  10.400  38.603   9.140
 2940POPC   C1A39003  10.704  38.219   8.711
 2940POPC   D2A39004  10.562  38.404   8.303
 2940POPC   C3A39005  10.653  38.154   7.929
 2940POPC   C4A39006  10.740  38.226   7.449
 2940POPC   C1B39007  10.602  38.706   8.757
 2940POPC   C2B39008  10.460  38.936   8.416
 2940POPC   C3B39009  10.260  38.825   8.043
 2940POPC   C4B39010  10.466  38.574   7.754
 2941POPC   NC339011   4.083   1.419   9.919
 2941POPC   PO439012   4.479   0.930   9.632
 2941POPC   GL139013   4.465   1.045   9.223
 2941POPC   GL239014   4.396   1.390   9.265
 2941POPC   C1A39015   4.631   0.982   8.798
 2941POPC   D2A39016   4.585   1.239   8.424
 2941POPC   C3A39017   4.597   1.061   8.014
 2941POPC   C4A39018   4.359   1.101   7.648
 2941POPC   C1B39019   4.193   1.305   8.862
 2941POPC   C2B39020   4.122   1.492   8.467
 2941POPC   C3B39021   4.263   1.457   8.061
 2941POPC   C4B39022   4.029   1.487   7.702
 2942POPC   NC339023  34.878   3.969   9.557
 2942POPC   PO439024  34.679   3.318   9.711
 2942POPC   GL139025  34.639   3.439   9.213
 2942POPC   GL239026  34.663   3.799   9.135
 2942POPC   C1A39027  34.785   3.530   8.745
 2942POPC   D2A39028  34.622   3.469   8.357
 2942POPC   C3A39029  34.747   3.768   8.051
 2942POPC   C4A39030  34.591   3.535   7.723
 2942POPC   C1B39031  34.467   3.938   8.755
 2942POPC   C2B39032  34.301   3.855   8.323
 2942POPC   C3B39033  34.326   4.001   7.865
 2942POPC   C4B39034  34.417   3.847   7.387
 2943POPC   NC339035  24.304   7.774   9.447
 2943POPC   PO439036  24.567   7.072   9.460
 2943POPC   GL139037  24.475   7.400   9.159
 2943POPC   GL239038  24.744   7.642   9.160
 2943POPC   C1A39039  24.223   7.375   8.772
 2943POPC   D2A39040  24.356   7.443   8.386
 2943POPC   C3A39041  24.119   7.309   8.035
 2943POPC   C4A39042  24.135   7.049   7.683
 2943POPC   C1B39043  24.777   7.371   8.774
 2943POPC   C2B39044  24.892   7.296   8.355
 2943POPC   C3B39045  24.674   7.379   8.018
 2943POPC   C4B39046  24.621   7.237   7.676
 2944POPC   NC339047  25.338  21.851   9.529
 2944POPC   PO439048  25.095  21.194   9.656
 2944POPC   GL139049  25.126  21.386   9.248
 2944POPC   GL239050  25.363  21.608   9.087
 2944POPC   C1A39051  24.931  21.393   8.866
 2944POPC   D2A39052  25.060  21.543   8.474
 2944POPC   C3A39053  24.964  21.384   8.086
 2944POPC   C4A39054  25.048  21.157   7.716
 2944POPC   C1B39055  25.481  21.863   8.748
 2944POPC   C2B39056  25.527  21.671   8.352
 2944POPC   C3B39057  25.457  21.500   7.953
 2944POPC   C4B39058  25.533  21.845   7.671
 2945POPC   NC339059  36.447  44.267   9.340
 2945POPC   PO439060  35.742  44.015   9.370
 2945POPC   GL139061  36.077  44.028   9.070
 2945POPC   GL239062  35.902  44.153   8.789
 2945POPC   C1A39063  36.359  43.826   8.762
 2945POPC   D2A39064  36.307  43.524   8.435
 2945POPC   C3A39065  36.164  43.762   8.115
 2945POPC   C4A39066  36.315  43.661   7.737
 2945POPC   C1B39067  35.849  43.686   8.705
 2945POPC   C2B39068  35.773  43.460   8.318
 2945POPC   C3B39069  35.722  43.654   7.892
 2945POPC   C4B39070  35.837  44.150   7.857
 2946POPC   NC339071  22.776  38.800   9.558
 2946POPC   PO439072  23.124  39.360   9.455
 2946POPC   GL139073  22.989  39.127   9.139
 2946POPC   GL239074  22.668  39.042   9.148
 2946POPC   C1A39075  23.045  38.961   8.740
 2946POPC   D2A39076  22.979  38.852   8.328
 2946POPC   C3A39077  23.216  39.135   8.088
 2946POPC   C4A39078  23.102  39.276   7.729
 2946POPC   C1B39079  22.613  39.253   8.820
 2946POPC   C2B39080  22.557  39.126   8.424
 2946POPC   C3B39081  22.694  39.158   8.017
 2946POPC   C4B39082  22.529  39.292   7.628
 2947POPC   NC339083   2.871  36.747   9.313
 2947POPC   PO439084   2.738  36.318   9.813
 2947POPC   GL139085   2.763  36.247   9.342
 2947POPC   GL239086   2.480  36.421   9.153
 2947POPC   C1A39087   2.900  36.149   8.885
 2947POPC   D2A39088   2.987  36.327   8.433
 2947POPC   C3A39089   2.962  36.067   8.071
 2947POPC   C4A39090   2.903  36.030   7.616
 2947POPC   C1B39091   2.651  36.571   8.739
 2947POPC   C2B39092   2.556  36.607   8.333
 2947POPC   C3B39093   2.618  36.438   7.914
 2947POPC   C4B39094   2.264  36.278   7.688
 2948POPC   NC339095  32.460   3.242   9.692
 2948POPC   PO439096  32.061   2.729   9.411
 2948POPC   GL139097  32.265   2.820   9.060
 2948POPC   GL239098  32.559   2.645   9.141
 2948POPC   C1A39099  32.170   2.731   8.626
 2948POPC   D2A39100  31.968   2.790   8.210
 2948POPC   C3A39101  32.180   3.094   7.913
 2948POPC   C4A39102  32.124   3.151   7.440
 2948POPC   C1B39103  32.501   2.322   8.807
 2948POPC   C2B39104  32.563   2.238   8.352
 2948POPC   C3B39105  32.392   2.516   7.998
 2948POPC   C4B39106  32.287   2.701   7.607
 2949POPC   NC339107  42.990  44.418   9.639
 2949POPC   PO439108  43.294  44.974   9.792
 2949POPC   GL139109  43.090  44.824   9.343
 2949POPC   GL239110  43.205  44.513   9.176
 2949POPC   C1A39111  42.969  44.823   8.862
 2949POPC   D2A39112  43.138  44.705   8.429
 2949POPC   C3A39113  42.988  44.822   7.994
 2949POPC   C4A39114  43.240  44.977   7.609
 2949POPC   C1B39115  43.034  44.319   8.774
 2949POPC   C2B39116  43.220  44.182   8.397
 2949POPC   C3B39117  43.183  44.344   8.027
 2949POPC   C4B39118  43.291  44.251   7.647
 2950POPC   NC339119  41.831  31.397   9.574
 2950POPC   PO439120  41.153  31.621   9.480
 2950POPC   GL139121  41.426  31.350   9.169
 2950POPC   GL239122  41.777  31.190   9.131
 2950POPC   C1A39123  41.601  31.494   8.748
 2950POPC   D2A39124  41.583  31.759   8.365
 2950POPC   C3A39125  41.561  31.520   7.980
 2950POPC   C4A39126  41.324  31.134   7.927
 2950POPC   C1B39127  41.896  31.044   8.743
 2950POPC   C2B39128  41.891  31.276   8.334
 2950POPC   C3B39129  41.841  31.040   7.944
 2950POPC   C4B39130  41.746  31.224   7.541
 2951POPC   NC339131  23.795  39.244   9.485
 2951POPC   PO439132  23.830  38.578   9.598
 2951POPC   GL139133  23.788  38.791   9.190
 2951POPC   GL239134  23.480  38.989   9.154
 2951POPC   C1A39135  23.827  38.924   8.752
 2951POPC   D2A39136  24.029  38.895   8.367
 2951POPC   C3A39137  23.772  39.141   8.097
 2951POPC   C4A39138  23.588  39.147   7.715
 2951POPC   C1B39139  23.574  39.359   8.867
 2951POPC   C2B39140  23.534  39.479   8.427
 2951POPC   C3B39141  23.481  39.596   7.988
 2951POPC   C4B39142  23.439  39.604   7.533
 2952POPC   NC339143  27.719  32.796   9.532
 2952POPC   PO439144  27.573  33.443   9.634
 2952POPC   GL139145  27.624  33.251   9.199
 2952POPC   GL239146  27.460  32.944   9.095
 2952POPC   C1A39147  27.509  33.300   8.726
 2952POPC   D2A39148  27.656  33.232   8.307
 2952POPC   C3A39149  27.539  32.871   8.071
 2952POPC   C4A39150  27.300  32.706   7.724
 2952POPC   C1B39151  27.693  32.786   8.720
 2952POPC   C2B39152  27.989  32.849   8.362
 2952POPC   C3B39153  28.011  33.059   7.934
 2952POPC   C4B39154  27.730  33.055   7.613
 2953POPC   NC339155   9.187  36.423   9.471
 2953POPC   PO439156   8.922  35.854   9.683
 2953POPC   GL139157   8.880  36.089   9.233
 2953POPC   GL239158   9.139  36.270   8.981
 2953POPC   C1A39159   8.723  36.056   8.814
 2953POPC   D2A39160   8.708  36.134   8.358
 2953POPC   C3A39161   8.966  35.856   8.099
 2953POPC   C4A39162   8.995  35.729   7.646
 2953POPC   C1B39163   9.405  36.214   8.624
 2953POPC   C2B39164   9.367  36.204   8.175
 2953POPC   C3B39165   9.059  36.296   7.843
 2953POPC   C4B39166   9.162  36.315   7.418
 2954POPC   NC339167  43.842  15.125   9.323
 2954POPC   PO439168  44.409  15.499   9.619
 2954POPC   GL139169  44.202  15.444   9.134
 2954POPC   GL239170  44.119  15.115   8.907
 2954POPC   C1A39171  44.078  15.516   8.658
 2954POPC   D2A39172  44.086  15.176   8.347
 2954POPC   C3A39173  43.998  15.314   7.941
 2954POPC   C4A39174  43.658  15.491   7.684
 2954POPC   C1B39175  43.812  14.909   8.716
 2954POPC   C2B39176  43.680  14.788   8.347
 2954POPC   C3B39177  43.760  14.853   7.935
 2954POPC   C4B39178  43.881  14.999   7.556
 2955POPC   NC339179   5.089   6.610   9.580
 2955POPC   PO439180   4.753   7.108   9.357
 2955POPC   GL139181   4.943   6.787   9.118
 2955POPC   GL239182   5.307   6.653   9.129
 2955POPC   C1A39183   4.810   6.760   8.724
 2955POPC   D2A39184   4.984   6.916   8.359
 2955POPC   C3A39185   4.768   6.782   8.028
 2955POPC   C4A39186   4.843   6.610   7.675
 2955POPC   C1B39187   5.316   6.776   8.741
 2955POPC   C2B39188   5.487   6.709   8.353
 2955POPC   C3B39189   5.277   6.698   7.958
 2955POPC   C4B39190   5.422   6.766   7.535
 2956POPC   NC339191   8.534   6.017   9.518
 2956POPC   PO439192   8.009   6.226   9.812
 2956POPC   GL139193   8.064   6.142   9.327
 2956POPC   GL239194   8.197   5.777   9.222
 2956POPC   C1A39195   8.085   6.091   8.847
 2956POPC   D2A39196   8.183   5.928   8.422
 2956POPC   C3A39197   8.206   6.103   8.021
 2956POPC   C4A39198   7.866   6.134   7.711
 2956POPC   C1B39199   8.268   5.599   8.792
 2956POPC   C2B39200   8.412   5.483   8.351
 2956POPC   C3B39201   8.175   5.606   8.012
 2956POPC   C4B39202   8.244   5.786   7.625
 2957POPC   NC339203  24.051  18.706   9.454
 2957POPC   PO439204  23.382  18.936   9.451
 2957POPC   GL139205  23.718  18.916   9.132
 2957POPC   GL239206  23.685  18.559   9.085
 2957POPC   C1A39207  23.832  19.116   8.720
 2957POPC   D2A39208  23.680  19.428   8.397
 2957POPC   C3A39209  23.809  19.364   7.984
 2957POPC   C4A39210  23.644  19.298   7.611
 2957POPC   C1B39211  23.386  18.780   8.780
 2957POPC   C2B39212  23.417  18.981   8.393
 2957POPC   C3B39213  23.651  18.892   8.031
 2957POPC   C4B39214  23.436  18.809   7.656
 2958POPC   NC339215   6.692   7.813   9.572
 2958POPC   PO439216   6.944   7.184   9.422
 2958POPC   GL139217   6.728   7.216   9.054
 2958POPC   GL239218   6.597   7.515   9.138
 2958POPC   C1A39219   6.728   7.421   8.665
 2958POPC   D2A39220   6.823   7.422   8.279
 2958POPC   C3A39221   6.445   7.440   8.043
 2958POPC   C4A39222   6.287   7.152   7.704
 2958POPC   C1B39223   6.443   7.819   8.792
 2958POPC   C2B39224   6.245   7.778   8.390
 2958POPC   C3B39225   6.298   7.913   7.948
 2958POPC   C4B39226   6.256   7.657   7.601
 2959POPC   NC339227  41.864  29.673   9.558
 2959POPC   PO439228  41.580  30.209   9.425
 2959POPC   GL139229  41.763  29.955   9.130
 2959POPC   GL239230  41.457  29.767   9.135
 2959POPC   C1A39231  41.661  29.960   8.691
 2959POPC   D2A39232  41.352  29.956   8.368
 2959POPC   C3A39233  41.502  30.120   7.979
 2959POPC   C4A39234  41.339  30.177   7.598
 2959POPC   C1B39235  41.331  29.502   8.792
 2959POPC   C2B39236  41.607  29.472   8.452
 2959POPC   C3B39237  41.533  29.614   8.036
 2959POPC   C4B39238  41.139  29.756   7.881
 2960POPC   NC339239  37.023  26.617   9.610
 2960POPC   PO439240  36.386  26.600   9.474
 2960POPC   GL139241  36.722  26.783   9.212
 2960POPC   GL239242  37.105  26.846   9.150
 2960POPC   C1A39243  36.738  26.836   8.795
 2960POPC   D2A39244  36.938  26.656   8.477
 2960POPC   C3A39245  36.822  26.820   8.089
 2960POPC   C4A39246  37.013  26.780   7.743
 2960POPC   C1B39247  37.155  27.123   8.773
 2960POPC   C2B39248  37.240  27.047   8.312
 2960POPC   C3B39249  37.225  27.226   7.854
 2960POPC   C4B39250  37.287  27.247   7.355
 2961POPC   NC339251  22.647   0.387   9.635
 2961POPC   PO439252  23.295   0.175   9.528
 2961POPC   GL139253  22.972   0.272   9.254
 2961POPC   GL239254  22.900  44.993   9.161
 2961POPC   C1A39255  22.712   0.400   8.881
 2961POPC   D2A39256  22.639   0.680   8.528
 2961POPC   C3A39257  22.838   0.530   8.158
 2961POPC   C4A39258  22.740   0.492   7.748
 2961POPC   C1B39259  23.215   0.228   8.825
 2961POPC   C2B39260  23.287   0.447   8.420
 2961POPC   C3B39261  23.400   0.304   7.997
 2961POPC   C4B39262  23.246   0.497   7.613
 2962POPC   NC339263  28.538  24.505   9.625
 2962POPC   PO439264  27.971  24.901   9.665
 2962POPC   GL139265  28.285  24.776   9.275
 2962POPC   GL239266  28.372  24.453   9.106
 2962POPC   C1A39267  28.534  24.862   8.852
 2962POPC   D2A39268  28.372  25.132   8.512
 2962POPC   C3A39269  28.186  24.867   8.191
 2962POPC   C4A39270  28.276  24.568   7.872
 2962POPC   C1B39271  28.317  24.441   8.616
 2962POPC   C2B39272  28.374  24.179   8.205
 2962POPC   C3B39273  28.510  24.091   7.753
 2962POPC   C4B39274  28.868  24.249   7.489
 2963POPC   NC339275  30.172   3.128   9.401
 2963POPC   PO439276  30.138   2.406   9.264
 2963POPC   GL139277  29.947   2.772   9.103
 2963POPC   GL239278  29.566   2.798   9.190
 2963POPC   C1A39279  30.146   3.004   8.765
 2963POPC   D2A39280  30.034   3.257   8.458
 2963POPC   C3A39281  30.147   3.035   8.091
 2963POPC   C4A39282  29.964   3.111   7.728
 2963POPC   C1B39283  29.597   2.899   8.736
 2963POPC   C2B39284  29.792   2.780   8.340
 2963POPC   C3B39285  29.868   2.618   7.922
 2963POPC   C4B39286  30.162   2.316   7.844
 2964POPC   NC339287   8.783  23.271   9.359
 2964POPC   PO439288   9.121  22.666   9.520
 2964POPC   GL139289   9.068  22.893   9.146
 2964POPC   GL239290   8.713  22.813   9.145
 2964POPC   C1A39291   8.905  23.043   8.730
 2964POPC   D2A39292   8.759  22.994   8.332
 2964POPC   C3A39293   9.038  23.053   8.036
 2964POPC   C4A39294   9.052  23.327   7.729
 2964POPC   C1B39295   8.782  22.534   8.824
 2964POPC   C2B39296   8.663  22.459   8.418
 2964POPC   C3B39297   8.819  22.580   8.020
 2964POPC   C4B39298   8.827  22.818   7.648
 2965POPC   NC339299  21.566  13.219   9.544
 2965POPC   PO439300  21.171  12.817   9.595
 2965POPC   GL139301  21.236  13.043   9.220
 2965POPC   GL239302  21.495  12.771   9.176
 2965POPC   C1A39303  21.436  13.124   8.832
 2965POPC   D2A39304  21.313  12.829   8.508
 2965POPC   C3A39305  21.338  12.926   8.082
 2965POPC   C4A39306  21.453  12.750   7.704
 2965POPC   C1B39307  21.767  12.752   8.768
 2965POPC   C2B39308  21.777  13.034   8.392
 2965POPC   C3B39309  21.787  13.100   7.935
 2965POPC   C4B39310  21.953  12.811   7.617
 2966POPC   NC339311  40.561  40.847   9.834
 2966POPC   PO439312  40.911  40.432   9.452
 2966POPC   GL139313  40.833  40.599   9.086
 2966POPC   GL239314  40.733  40.947   9.153
 2966POPC   C1A39315  40.997  40.626   8.663
 2966POPC   D2A39316  40.919  41.001   8.368
 2966POPC   C3A39317  40.988  40.983   7.926
 2966POPC   C4A39318  41.100  40.530   7.993
 2966POPC   C1B39319  40.538  40.837   8.738
 2966POPC   C2B39320  40.554  40.538   8.400
 2966POPC   C3B39321  40.596  40.696   8.064
 2966POPC   C4B39322  40.542  40.792   7.702
 2967POPC   NC339323  26.557   2.741   9.591
 2967POPC   PO439324  27.183   2.412   9.482
 2967POPC   GL139325  26.919   2.719   9.226
 2967POPC   GL239326  26.609   2.596   9.127
 2967POPC   C1A39327  26.874   2.952   8.845
 2967POPC   D2A39328  27.043   2.773   8.488
 2967POPC   C3A39329  26.888   2.926   8.142
 2967POPC   C4A39330  26.921   2.770   7.772
 2967POPC   C1B39331  26.834   2.436   8.815
 2967POPC   C2B39332  26.804   2.300   8.427
 2967POPC   C3B39333  26.683   2.426   8.057
 2967POPC   C4B39334  26.523   2.488   7.634
 2968POPC   NC339335  37.792  14.923   9.380
 2968POPC   PO439336  37.329  14.552   9.609
 2968POPC   GL139337  37.584  14.480   9.212
 2968POPC   GL239338  37.801  14.221   9.163
 2968POPC   C1A39339  37.588  14.591   8.749
 2968POPC   D2A39340  37.242  14.648   8.435
 2968POPC   C3A39341  37.274  14.376   8.081
 2968POPC   C4A39342  37.504  14.433   7.705
 2968POPC   C1B39343  37.710  14.076   8.773
 2968POPC   C2B39344  37.665  14.215   8.368
 2968POPC   C3B39345  37.865  14.177   7.979
 2968POPC   C4B39346  37.867  13.873   7.643
 2969POPC   NC339347  37.060  20.150   9.352
 2969POPC   PO439348  36.788  20.776   9.571
 2969POPC   GL139349  36.825  20.586   9.190
 2969POPC   GL239350  37.138  20.715   9.050
 2969POPC   C1A39351  36.685  20.635   8.785
 2969POPC   D2A39352  36.925  20.654   8.439
 2969POPC   C3A39353  36.920  20.851   8.069
 2969POPC   C4A39354  36.891  20.671   7.699
 2969POPC   C1B39355  37.200  20.397   8.769
 2969POPC   C2B39356  37.114  20.162   8.414
 2969POPC   C3B39357  36.930  20.270   8.056
 2969POPC   C4B39358  37.174  20.222   7.737
 2970POPC   NC339359  32.463  30.166   9.557
 2970POPC   PO439360  31.968  29.701   9.430
 2970POPC   GL139361  32.240  29.896   9.176
 2970POPC   GL239362  32.067  30.206   9.240
 2970POPC   C1A39363  32.385  29.780   8.765
 2970POPC   D2A39364  32.141  29.509   8.498
 2970POPC   C3A39365  32.053  29.719   8.096
 2970POPC   C4A39366  32.174  29.697   7.674
 2970POPC   C1B39367  32.161  30.255   8.825
 2970POPC   C2B39368  32.084  30.115   8.424
 2970POPC   C3B39369  32.118  30.313   8.051
 2970POPC   C4B39370  32.150  30.189   7.685
 2971POPC   NC339371  13.177  32.477   9.686
 2971POPC   PO439372  13.488  31.903   9.480
 2971POPC   GL139373  13.555  32.216   9.181
 2971POPC   GL239374  13.281  32.465   9.160
 2971POPC   C1A39375  13.842  32.223   8.807
 2971POPC   D2A39376  13.935  32.056   8.388
 2971POPC   C3A39377  13.662  32.078   8.034
 2971POPC   C4A39378  13.773  32.350   7.686
 2971POPC   C1B39379  13.336  32.296   8.742
 2971POPC   C2B39380  13.537  32.421   8.396
 2971POPC   C3B39381  13.389  32.537   7.995
 2971POPC   C4B39382  13.298  32.433   7.551
 2972POPC   NC339383  26.023  42.728   9.423
 2972POPC   PO439384  25.897  43.421   9.531
 2972POPC   GL139385  26.077  43.380   9.147
 2972POPC   GL239386  26.373  43.262   9.207
 2972POPC   C1A39387  26.196  43.020   8.801
 2972POPC   D2A39388  25.901  42.890   8.453
 2972POPC   C3A39389  26.052  42.939   8.033
 2972POPC   C4A39390  25.830  43.064   7.671
 2972POPC   C1B39391  26.382  43.512   8.781
 2972POPC   C2B39392  26.139  43.400   8.409
 2972POPC   C3B39393  26.266  43.416   7.996
 2972POPC   C4B39394  26.313  43.209   7.606
 2973POPC   NC339395  40.629  10.547   9.762
 2973POPC   PO439396  40.604  11.028   9.279
 2973POPC   GL139397  40.575  10.631   9.230
 2973POPC   GL239398  40.903  10.612   9.199
 2973POPC   C1A39399  40.554  10.503   8.817
 2973POPC   D2A39400  40.624  10.733   8.453
 2973POPC   C3A39401  40.880  10.752   8.116
 2973POPC   C4A39402  40.679  10.784   7.777
 2973POPC   C1B39403  41.067  10.516   8.822
 2973POPC   C2B39404  41.017  10.388   8.437
 2973POPC   C3B39405  41.118  10.271   8.069
 2973POPC   C4B39406  41.130  10.518   7.730
 2974POPC   NC339407   4.305  10.763   9.493
 2974POPC   PO439408   4.671  10.233   9.371
 2974POPC   GL139409   4.572  10.573   9.075
 2974POPC   GL239410   4.616  10.925   9.133
 2974POPC   C1A39411   4.358  10.481   8.705
 2974POPC   D2A39412   4.241  10.138   8.466
 2974POPC   C3A39413   4.451  10.305   8.124
 2974POPC   C4A39414   4.290  10.342   7.716
 2974POPC   C1B39415   4.234  10.954   8.827
 2974POPC   C2B39416   4.129  10.851   8.387
 2974POPC   C3B39417   4.332  10.797   7.981
 2974POPC   C4B39418   4.561  10.794   7.577
 2975POPC   NC339419   1.916  44.914   9.409
 2975POPC   PO439420   2.238  44.301   9.468
 2975POPC   GL139421   2.147  44.543   9.147
 2975POPC   GL239422   1.807  44.431   9.088
 2975POPC   C1A39423   2.157  44.601   8.716
 2975POPC   D2A39424   2.028  44.429   8.320
 2975POPC   C3A39425   2.251  44.675   8.013
 2975POPC   C4A39426   2.199  44.686   7.545
 2975POPC   C1B39427   1.623  44.626   8.705
 2975POPC   C2B39428   1.655  44.844   8.287
 2975POPC   C3B39429   1.775  44.795   7.839
 2975POPC   C4B39430   1.847   0.053   7.468
 2976POPC   NC339431  34.469  19.686   9.747
 2976POPC   PO439432  34.822  20.105   9.362
 2976POPC   GL139433  34.563  19.815   9.231
 2976POPC   GL239434  34.747  19.572   9.019
 2976POPC   C1A39435  34.394  19.891   8.835
 2976POPC   D2A39436  34.654  19.961   8.509
 2976POPC   C3A39437  34.482  19.981   8.130
 2976POPC   C4A39438  34.435  19.921   7.730
 2976POPC   C1B39439  34.608  19.469   8.626
 2976POPC   C2B39440  34.764  19.543   8.237
 2976POPC   C3B39441  34.870  19.666   7.838
 2976POPC   C4B39442  34.687  19.521   7.477
 2977POPC   NC339443   8.871   7.854   9.663
 2977POPC   PO439444   9.144   8.333   9.232
 2977POPC   GL139445   8.964   8.019   8.993
 2977POPC   GL239446   8.635   7.885   9.144
 2977POPC   C1A39447   9.120   8.194   8.598
 2977POPC   D2A39448   9.363   8.512   8.376
 2977POPC   C3A39449   9.217   8.447   7.954
 2977POPC   C4A39450   8.836   8.403   7.728
 2977POPC   C1B39451   8.608   7.864   8.675
 2977POPC   C2B39452   8.909   7.827   8.333
 2977POPC   C3B39453   8.936   7.902   7.877
 2977POPC   C4B39454   8.701   7.641   7.614
 2978POPC   NC339455  37.432  30.282   9.577
 2978POPC   PO439456  38.095  30.378   9.500
 2978POPC   GL139457  37.797  30.110   9.195
 2978POPC   GL239458  37.598  29.790   9.256
 2978POPC   C1A39459  37.598  29.990   8.774
 2978POPC   D2A39460  37.739  29.771   8.422
 2978POPC   C3A39461  37.557  29.884   8.059
 2978POPC   C4A39462  37.541  29.926   7.656
 2978POPC   C1B39463  37.274  29.612   8.957
 2978POPC   C2B39464  37.262  29.567   8.533
 2978POPC   C3B39465  37.160  29.548   8.103
 2978POPC   C4B39466  37.251  29.519   7.693
 2979POPC   NC339467  35.086   3.213   9.493
 2979POPC   PO439468  35.539   3.701   9.484
 2979POPC   GL139469  35.463   3.434   9.166
 2979POPC   GL239470  35.144   3.553   9.101
 2979POPC   C1A39471  35.677   3.399   8.790
 2979POPC   D2A39472  35.461   3.319   8.440
 2979POPC   C3A39473  35.538   3.488   8.028
 2979POPC   C4A39474  35.535   3.309   7.627
 2979POPC   C1B39475  35.093   3.148   8.849
 2979POPC   C2B39476  35.013   3.080   8.420
 2979POPC   C3B39477  35.058   3.371   8.117
 2979POPC   C4B39478  35.095   3.523   7.731
 2980POPC   NC339479   0.061   6.778   9.547
 2980POPC   PO439480   0.790   6.508   9.568
 2980POPC   GL139481   0.489   6.608   9.224
 2980POPC   GL239482   0.586   6.888   9.110
 2980POPC   C1A39483   0.306   6.599   8.765
 2980POPC   D2A39484   0.093   6.587   8.339
 2980POPC   C3A39485   0.261   6.602   7.913
 2980POPC   C4A39486   0.104   6.610   7.478
 2980POPC   C1B39487   0.532   7.059   8.729
 2980POPC   C2B39488   0.576   6.875   8.327
 2980POPC   C3B39489   0.748   6.765   7.916
 2980POPC   C4B39490   0.553   6.859   7.504
 2981POPC   NC339491   3.604  14.160   9.523
 2981POPC   PO439492   3.447  14.846   9.348
 2981POPC   GL139493   3.727  14.603   9.067
 2981POPC   GL239494   3.707  14.270   9.051
 2981POPC   C1A39495   3.845  14.644   8.651
 2981POPC   D2A39496   3.592  14.790   8.325
 2981POPC   C3A39497   3.598  14.676   7.909
 2981POPC   C4A39498   3.456  14.493   7.531
 2981POPC   C1B39499   3.669  14.151   8.646
 2981POPC   C2B39500   3.627  14.270   8.238
 2981POPC   C3B39501   3.787  14.070   7.884
 2981POPC   C4B39502   3.619  13.994   7.488
 2982POPC   NC339503  32.443  42.004  10.086
 2982POPC   PO439504  32.184  41.455   9.696
 2982POPC   GL139505  32.150  41.651   9.286
 2982POPC   GL239506  32.414  41.442   9.169
 2982POPC   C1A39507  32.247  41.774   8.837
 2982POPC   D2A39508  32.028  41.556   8.521
 2982POPC   C3A39509  32.075  41.640   8.078
 2982POPC   C4A39510  31.788  41.693   7.722
 2982POPC   C1B39511  32.476  41.265   8.760
 2982POPC   C2B39512  32.355  41.170   8.328
 2982POPC   C3B39513  32.489  41.349   7.960
 2982POPC   C4B39514  32.251  41.501   7.612
 2983POPC   NC339515  22.480  31.407   9.534
 2983POPC   PO439516  23.131  31.443   9.508
 2983POPC   GL139517  22.839  31.430   9.187
 2983POPC   GL239518  22.661  31.085   9.174
 2983POPC   C1A39519  22.727  31.657   8.831
 2983POPC   D2A39520  22.657  31.810   8.416
 2983POPC   C3A39521  22.904  31.736   8.076
 2983POPC   C4A39522  22.903  31.484   7.723
 2983POPC   C1B39523  22.883  31.142   8.778
 2983POPC   C2B39524  22.815  31.320   8.399
 2983POPC   C3B39525  22.525  31.349   8.090
 2983POPC   C4B39526  22.547  31.119   7.719
 2984POPC   NC339527  42.508   7.196   9.725
 2984POPC   PO439528  42.300   6.631   9.383
 2984POPC   GL139529  42.300   6.385   9.015
 2984POPC   GL239530  41.961   6.421   8.967
 2984POPC   C1A39531  42.491   6.298   8.609
 2984POPC   D2A39532  42.672   6.582   8.270
 2984POPC   C3A39533  42.467   6.597   7.870
 2984POPC   C4A39534  42.043   6.434   7.767
 2984POPC   C1B39535  42.171   6.714   8.657
 2984POPC   C2B39536  42.020   6.756   8.225
 2984POPC   C3B39537  42.084   6.946   7.839
 2984POPC   C4B39538  42.217   6.806   7.447
 2985POPC   NC339539  37.943   1.430   9.873
 2985POPC   PO439540  37.711   2.104   9.739
 2985POPC   GL139541  37.752   1.974   9.242
 2985POPC   GL239542  37.423   2.017   9.163
 2985POPC   C1A39543  37.804   2.078   8.786
 2985POPC   D2A39544  37.745   2.203   8.332
 2985POPC   C3A39545  37.967   1.875   8.099
 2985POPC   C4A39546  38.013   1.731   7.673
 2985POPC   C1B39547  37.374   1.774   8.770
 2985POPC   C2B39548  37.544   1.726   8.354
 2985POPC   C3B39549  37.470   1.794   7.904
 2985POPC   C4B39550  37.181   1.590   7.581
 2986POPC   NC339551  19.983  13.046   9.498
 2986POPC   PO439552  19.643  12.429   9.459
 2986POPC   GL139553  19.697  12.770   9.135
 2986POPC   GL239554  20.019  12.873   9.024
 2986POPC   C1A39555  19.493  12.966   8.773
 2986POPC   D2A39556  19.564  13.187   8.353
 2986POPC   C3A39557  19.510  12.910   8.014
 2986POPC   C4A39558  19.600  12.873   7.587
 2986POPC   C1B39559  19.958  12.978   8.616
 2986POPC   C2B39560  19.943  12.771   8.246
 2986POPC   C3B39561  19.988  12.977   7.872
 2986POPC   C4B39562  20.203  12.914   7.494
 2987POPC   NC339563   0.979   3.803   9.278
 2987POPC   PO439564   0.242   3.728   9.480
 2987POPC   GL139565   0.473   3.688   9.124
 2987POPC   GL239566   0.381   3.343   9.073
 2987POPC   C1A39567   0.590   3.622   8.719
 2987POPC   D2A39568   0.604   3.313   8.460
 2987POPC   C3A39569   0.704   3.559   8.118
 2987POPC   C4A39570   0.562   3.741   7.732
 2987POPC   C1B39571   0.075   3.563   8.816
 2987POPC   C2B39572  44.956   3.433   8.415
 2987POPC   C3B39573   0.233   3.356   8.084
 2987POPC   C4B39574   0.150   3.429   7.678
 2988POPC   NC339575   6.879  14.922   9.436
 2988POPC   PO439576   6.408  15.329   9.624
 2988POPC   GL139577   6.473  15.245   9.212
 2988POPC   GL239578   6.442  14.904   9.094
 2988POPC   C1A39579   6.664  15.339   8.824
 2988POPC   D2A39580   6.791  15.177   8.424
 2988POPC   C3A39581   6.707  15.465   8.088
 2988POPC   C4A39582   6.534  15.385   7.665
 2988POPC   C1B39583   6.604  14.657   8.745
 2988POPC   C2B39584   6.575  14.712   8.301
 2988POPC   C3B39585   6.519  14.989   8.002
 2988POPC   C4B39586   6.895  15.072   7.823
 2989POPC   NC339587  22.867  16.405   9.537
 2989POPC   PO439588  23.040  17.154   9.441
 2989POPC   GL139589  23.066  16.942   9.096
 2989POPC   GL239590  22.975  16.610   9.093
 2989POPC   C1A39591  22.875  16.939   8.717
 2989POPC   D2A39592  23.033  16.734   8.418
 2989POPC   C3A39593  22.827  16.887   8.104
 2989POPC   C4A39594  22.635  17.055   7.766
 2989POPC   C1B39595  23.024  16.327   8.766
 2989POPC   C2B39596  22.998  16.080   8.420
 2989POPC   C3B39597  23.024  16.378   8.070
 2989POPC   C4B39598  22.875  16.578   7.694
 2990POPC   NC339599  31.602  14.453   9.603
 2990POPC   PO439600  31.089  14.095   9.647
 2990POPC   GL139601  31.288  14.234   9.250
 2990POPC   GL239602  31.648  14.124   9.220
 2990POPC   C1A39603  31.270  14.443   8.831
 2990POPC   D2A39604  31.423  14.754   8.504
 2990POPC   C3A39605  31.457  14.496   8.134
 2990POPC   C4A39606  31.198  14.103   8.079
 2990POPC   C1B39607  31.800  14.001   8.848
 2990POPC   C2B39608  31.645  14.048   8.441
 2990POPC   C3B39609  31.648  13.908   8.038
 2990POPC   C4B39610  31.558  14.193   7.728
 2991POPC   NC339611  13.455  36.570   9.888
 2991POPC   PO439612  13.301  35.955   9.590
 2991POPC   GL139613  13.570  36.105   9.188
 2991POPC   GL239614  13.906  35.992   9.094
 2991POPC   C1A39615  13.699  36.312   8.767
 2991POPC   D2A39616  13.579  36.452   8.339
 2991POPC   C3A39617  13.741  36.304   7.921
 2991POPC   C4A39618  13.942  36.350   7.489
 2991POPC   C1B39619  13.880  35.845   8.693
 2991POPC   C2B39620  13.660  35.936   8.334
 2991POPC   C3B39621  13.442  35.858   7.989
 2991POPC   C4B39622  13.396  35.982   7.616
 2992POPC   NC339623  21.645  27.809   9.487
 2992POPC   PO439624  22.245  27.359   9.631
 2992POPC   GL139625  22.141  27.619   9.274
 2992POPC   GL239626  22.356  27.923   9.216
 2992POPC   C1A39627  21.982  27.790   8.878
 2992POPC   D2A39628  21.936  27.614   8.480
 2992POPC   C3A39629  21.971  27.867   8.117
 2992POPC   C4A39630  21.939  27.630   7.704
 2992POPC   C1B39631  22.487  27.635   8.871
 2992POPC   C2B39632  22.433  27.708   8.414
 2992POPC   C3B39633  22.373  27.610   7.989
 2992POPC   C4B39634  22.412  27.708   7.511
 2993POPC   NC339635  10.908  42.868   9.636
 2993POPC   PO439636  11.400  43.366   9.525
 2993POPC   GL139637  11.244  43.052   9.274
 2993POPC   GL239638  11.554  43.024   9.127
 2993POPC   C1A39639  11.137  43.000   8.841
 2993POPC   D2A39640  11.213  42.888   8.438
 2993POPC   C3A39641  11.202  43.234   8.170
 2993POPC   C4A39642  11.156  43.171   7.751
 2993POPC   C1B39643  11.689  42.926   8.721
 2993POPC   C2B39644  11.687  43.092   8.316
 2993POPC   C3B39645  11.512  42.870   7.953
 2993POPC   C4B39646  11.497  42.913   7.485
 2994POPC   NC339647  13.144  41.801   9.744
 2994POPC   PO439648  13.818  41.492   9.672
 2994POPC   GL139649  13.478  41.548   9.242
 2994POPC   GL239650  13.436  41.316   8.974
 2994POPC   C1A39651  13.451  41.825   8.866
 2994POPC   D2A39652  13.764  41.946   8.579
 2994POPC   C3A39653  13.675  41.870   8.137
 2994POPC   C4A39654  13.336  41.728   7.876
 2994POPC   C1B39655  13.757  41.429   8.644
 2994POPC   C2B39656  13.951  41.314   8.247
 2994POPC   C3B39657  13.756  41.425   7.860
 2994POPC   C4B39658  13.808  41.764   7.563
 2995POPC   NC339659   5.952  16.485   9.467
 2995POPC   PO439660   5.712  17.081   9.563
 2995POPC   GL139661   5.863  16.882   9.176
 2995POPC   GL239662   5.574  16.646   9.122
 2995POPC   C1A39663   5.997  16.652   8.789
 2995POPC   D2A39664   6.027  16.725   8.346
 2995POPC   C3A39665   5.668  16.853   8.102
 2995POPC   C4A39666   5.833  16.605   7.786
 2995POPC   C1B39667   5.456  16.645   8.679
 2995POPC   C2B39668   5.403  16.437   8.277
 2995POPC   C3B39669   5.428  16.291   7.859
 2995POPC   C4B39670   5.527  16.485   7.412
 2996POPC   NC339671  22.033  33.253   9.557
 2996POPC   PO439672  22.541  32.818   9.612
 2996POPC   GL139673  22.326  32.984   9.169
 2996POPC   GL239674  21.976  33.176   9.079
 2996POPC   C1A39675  22.383  33.086   8.740
 2996POPC   D2A39676  22.417  32.897   8.339
 2996POPC   C3A39677  22.445  33.214   8.034
 2996POPC   C4A39678  22.106  33.313   7.766
 2996POPC   C1B39679  21.859  33.098   8.703
 2996POPC   C2B39680  21.988  33.202   8.295
 2996POPC   C3B39681  21.847  32.932   7.968
 2996POPC   C4B39682  21.879  32.664   7.599
 2997POPC   NC339683  43.966   3.333   9.601
 2997POPC   PO439684  44.099   4.011   9.478
 2997POPC   GL139685  43.859   3.671   9.219
 2997POPC   GL239686  44.005   3.331   9.100
 2997POPC   C1A39687  43.729   3.598   8.771
 2997POPC   D2A39688  43.839   3.891   8.439
 2997POPC   C3A39689  43.645   3.751   8.047
 2997POPC   C4A39690  43.751   3.367   7.841
 2997POPC   C1B39691  44.100   3.196   8.698
 2997POPC   C2B39692  43.984   3.157   8.253
 2997POPC   C3B39693  44.209   3.129   7.863
 2997POPC   C4B39694  44.202   3.038   7.403
 2998POPC   NC339695  10.505  28.006   9.436
 2998POPC   PO439696  10.696  28.669   9.481
 2998POPC   GL139697  10.454  28.479   9.156
 2998POPC   GL239698  10.318  28.220   9.019
 2998POPC   C1A39699  10.588  28.608   8.764
 2998POPC   D2A39700  10.459  28.548   8.369
 2998POPC   C3A39701  10.721  28.564   8.026
 2998POPC   C4A39702  10.676  28.348   7.655
 2998POPC   C1B39703  10.078  28.339   8.649
 2998POPC   C2B39704  10.168  28.153   8.223
 2998POPC   C3B39705  10.190  28.263   7.779
 2998POPC   C4B39706  10.196  28.016   7.375
 2999POPC   NC339707  13.812  15.518   9.552
 2999POPC   PO439708  13.929  14.843   9.386
 2999POPC   GL139709  13.771  15.213   9.160
 2999POPC   GL239710  13.522  15.108   8.970
 2999POPC   C1A39711  13.784  15.488   8.781
 2999POPC   D2A39712  13.559  15.224   8.462
 2999POPC   C3A39713  13.689  15.292   8.050
 2999POPC   C4A39714  14.096  15.411   7.866
 2999POPC   C1B39715  13.411  14.788   8.692
 2999POPC   C2B39716  13.203  14.866   8.329
 2999POPC   C3B39717  13.221  14.865   7.899
 2999POPC   C4B39718  13.279  15.209   7.652
 3000POPC   NC339719  38.306  25.587   9.510
 3000POPC   PO439720  38.485  24.914   9.553
 3000POPC   GL139721  38.448  25.177   9.223
 3000POPC   GL239722  38.096  25.249   9.165
 3000POPC   C1A39723  38.468  25.135   8.794
 3000POPC   D2A39724  38.179  25.135   8.452
 3000POPC   C3A39725  38.382  25.153   8.068
 3000POPC   C4A39726  38.250  25.341   7.711
 3000POPC   C1B39727  38.176  25.563   8.832
 3000POPC   C2B39728  38.448  25.560   8.461
 3000POPC   C3B39729  38.512  25.661   8.046
 3000POPC   C4B39730  38.621  25.656   7.638
 3001POPC   NC339731  30.924  37.376   9.281
 3001POPC   PO439732  31.477  37.689   9.532
 3001POPC   GL139733  31.534  37.708   9.097
 3001POPC   GL239734  31.737  37.396   9.076
 3001POPC   C1A39735  31.431  37.569   8.677
 3001POPC   D2A39736  31.626  37.652   8.292
 3001POPC   C3A39737  31.367  37.803   7.959
 3001POPC   C4A39738  31.523  37.837   7.579
 3001POPC   C1B39739  31.787  37.208   8.634
 3001POPC   C2B39740  31.847  37.175   8.163
 3001POPC   C3B39741  31.648  37.396   7.815
 3001POPC   C4B39742  31.616  37.335   7.366
 3002POPC   NC339743  28.183  25.426   9.461
 3002POPC   PO439744  28.658  25.054   9.533
 3002POPC   GL139745  28.576  25.278   9.144
 3002POPC   GL239746  28.236  25.218   9.025
 3002POPC   C1A39747  28.534  25.575   8.789
 3002POPC   D2A39748  28.489  25.618   8.336
 3002POPC   C3A39749  28.606  25.329   7.985
 3002POPC   C4A39750  28.760  24.924   7.773
 3002POPC   C1B39751  28.022  25.446   8.759
 3002POPC   C2B39752  27.979  25.438   8.351
 3002POPC   C3B39753  28.081  25.429   7.925
 3002POPC   C4B39754  27.926  25.396   7.503
 3003POPC   NC339755  38.823  19.584   9.470
 3003POPC   PO439756  38.190  19.979   9.638
 3003POPC   GL139757  38.397  19.833   9.266
 3003POPC   GL239758  38.714  19.957   9.136
 3003POPC   C1A39759  38.398  19.687   8.838
 3003POPC   D2A39760  38.514  19.874   8.446
 3003POPC   C3A39761  38.286  19.893   8.074
 3003POPC   C4A39762  38.065  20.052   7.726
 3003POPC   C1B39763  38.900  19.744   8.744
 3003POPC   C2B39764  38.995  19.881   8.304
 3003POPC   C3B39765  38.769  19.798   7.897
 3003POPC   C4B39766  38.886  19.803   7.439
 3004POPC   NC339767   7.199   0.967   9.611
 3004POPC   PO439768   7.680   1.478   9.468
 3004POPC   GL139769   7.531   1.412   9.095
 3004POPC   GL239770   7.228   1.220   9.142
 3004POPC   C1A39771   7.577   1.286   8.703
 3004POPC   D2A39772   7.335   1.310   8.327
 3004POPC   C3A39773   7.547   1.341   7.952
 3004POPC   C4A39774   7.501   1.045   7.656
 3004POPC   C1B39775   7.071   1.410   8.763
 3004POPC   C2B39776   6.860   1.538   8.375
 3004POPC   C3B39777   7.031   1.521   7.957
 3004POPC   C4B39778   7.191   1.573   7.545
 3005POPC   NC339779  11.501  18.741   9.906
 3005POPC   PO439780  11.258  18.351   9.389
 3005POPC   GL139781  11.097  18.188   9.024
 3005POPC   GL239782  10.827  18.396   9.035
 3005POPC   C1A39783  11.189  18.184   8.575
 3005POPC   D2A39784  11.208  18.535   8.328
 3005POPC   C3A39785  11.470  18.529   8.004
 3005POPC   C4A39786  11.446  18.211   7.706
 3005POPC   C1B39787  10.679  18.264   8.639
 3005POPC   C2B39788  10.778  18.210   8.210
 3005POPC   C3B39789  11.000  18.382   7.872
 3005POPC   C4B39790  10.998  18.345   7.431
 3006POPC   NC339791  27.135  11.144   9.465
 3006POPC   PO439792  27.557  11.651   9.464
 3006POPC   GL139793  27.698  11.347   9.158
 3006POPC   GL239794  27.651  10.980   9.256
 3006POPC   C1A39795  27.624  11.478   8.728
 3006POPC   D2A39796  27.462  11.639   8.314
 3006POPC   C3A39797  27.693  11.381   8.031
 3006POPC   C4A39798  27.982  11.135   7.764
 3006POPC   C1B39799  27.420  11.017   8.854
 3006POPC   C2B39800  27.419  10.807   8.472
 3006POPC   C3B39801  27.379  10.931   8.036
 3006POPC   C4B39802  27.476  11.167   7.638
 3007POPC   NC339803   4.947  38.465   9.518
 3007POPC   PO439804   5.501  38.087   9.381
 3007POPC   GL139805   5.195  38.293   9.099
 3007POPC   GL239806   4.813  38.341   9.060
 3007POPC   C1A39807   5.114  38.276   8.669
 3007POPC   D2A39808   5.184  38.541   8.389
 3007POPC   C3A39809   5.055  38.343   8.075
 3007POPC   C4A39810   5.276  38.402   7.757
 3007POPC   C1B39811   4.768  38.643   8.709
 3007POPC   C2B39812   4.638  38.581   8.319
 3007POPC   C3B39813   4.759  38.731   7.945
 3007POPC   C4B39814   4.729  39.143   7.824
 3008POPC   NC339815  39.660  42.293   9.495
 3008POPC   PO439816  38.950  42.399   9.477
 3008POPC   GL139817  39.282  42.438   9.158
 3008POPC   GL239818  39.460  42.141   9.061
 3008POPC   C1A39819  39.159  42.463   8.741
 3008POPC   D2A39820  38.870  42.335   8.421
 3008POPC   C3A39821  39.039  42.496   8.040
 3008POPC   C4A39822  38.913  42.453   7.653
 3008POPC   C1B39823  39.573  42.158   8.649
 3008POPC   C2B39824  39.344  42.171   8.307
 3008POPC   C3B39825  39.387  42.079   7.899
 3008POPC   C4B39826  39.419  42.376   7.593
 3009POPC   NC339827   4.814  20.590   9.658
 3009POPC   PO439828   5.272  20.263   9.372
 3009POPC   GL139829   5.029  20.577   9.149
 3009POPC   GL239830   4.831  20.336   8.973
 3009POPC   C1A39831   4.914  20.750   8.716
 3009POPC   D2A39832   5.083  20.590   8.301
 3009POPC   C3A39833   5.015  20.741   7.863
 3009POPC   C4A39834   5.168  20.779   7.422
 3009POPC   C1B39835   5.238  20.277   8.724
 3009POPC   C2B39836   5.467  20.215   8.348
 3009POPC   C3B39837   5.234  20.159   7.986
 3009POPC   C4B39838   5.210  20.312   7.605
 3010POPC   NC339839   4.119  37.427   9.473
 3010POPC   PO439840   4.543  37.885   9.564
 3010POPC   GL139841   4.372  37.829   9.113
 3010POPC   GL239842   4.130  37.556   8.999
 3010POPC   C1A39843   4.283  37.841   8.638
 3010POPC   D2A39844   4.138  37.563   8.338
 3010POPC   C3A39845   4.293  37.817   8.014
 3010POPC   C4A39846   4.500  37.829   7.628
 3010POPC   C1B39847   4.554  37.452   8.803
 3010POPC   C2B39848   4.659  37.565   8.389
 3010POPC   C3B39849   4.515  37.368   8.002
 3010POPC   C4B39850   4.113  37.372   7.828
 3011POPC   NC339851  25.501   1.691   9.609
 3011POPC   PO439852  24.925   2.085   9.444
 3011POPC   GL139853  24.961   1.731   9.184
 3011POPC   GL239854  25.304   1.704   9.048
 3011POPC   C1A39855  24.911   1.864   8.773
 3011POPC   D2A39856  25.172   2.019   8.466
 3011POPC   C3A39857  25.007   1.850   8.114
 3011POPC   C4A39858  25.070   1.998   7.720
 3011POPC   C1B39859  25.583   1.755   8.654
 3011POPC   C2B39860  25.702   1.656   8.244
 3011POPC   C3B39861  25.502   1.888   7.928
 3011POPC   C4B39862  25.499   1.871   7.454
 3012POPC   NC339863  42.719  32.529   9.712
 3012POPC   PO439864  42.208  32.771   9.432
 3012POPC   GL139865  42.092  33.107   9.136
 3012POPC   GL239866  42.254  32.863   8.921
 3012POPC   C1A39867  42.268  33.373   8.780
 3012POPC   D2A39868  42.401  33.248   8.376
 3012POPC   C3A39869  42.177  33.357   8.054
 3012POPC   C4A39870  42.382  33.397   7.670
 3012POPC   C1B39871  41.995  32.621   8.666
 3012POPC   C2B39872  42.014  32.881   8.317
 3012POPC   C3B39873  42.215  32.871   7.925
 3012POPC   C4B39874  42.028  32.569   7.702
 3013POPC   NC339875  13.728  20.282   9.553
 3013POPC   PO439876  13.869  20.950   9.302
 3013POPC   GL139877  13.890  20.607   9.080
 3013POPC   GL239878  13.910  20.811   8.792
 3013POPC   C1A39879  13.777  20.277   8.822
 3013POPC   D2A39880  13.521  20.247   8.456
 3013POPC   C3A39881  13.810  20.419   8.151
 3013POPC   C4A39882  14.018  20.270   7.806
 3013POPC   C1B39883  13.459  20.701   8.676
 3013POPC   C2B39884  13.371  20.670   8.207
 3013POPC   C3B39885  13.564  20.693   7.783
 3013POPC   C4B39886  13.471  20.886   7.378
 3014POPC   NC339887  24.480  23.855   9.432
 3014POPC   PO439888  24.284  23.326   9.752
 3014POPC   GL139889  24.398  23.380   9.248
 3014POPC   GL239890  24.752  23.505   9.183
 3014POPC   C1A39891  24.324  23.614   8.821
 3014POPC   D2A39892  24.188  23.458   8.410
 3014POPC   C3A39893  24.272  23.678   8.017
 3014POPC   C4A39894  24.300  23.626   7.566
 3014POPC   C1B39895  24.833  23.770   8.804
 3014POPC   C2B39896  24.620  23.798   8.400
 3014POPC   C3B39897  24.730  23.939   7.971
 3014POPC   C4B39898  24.684  23.996   7.511
 3015POPC   NC339899  23.909  28.049   9.329
 3015POPC   PO439900  23.661  28.568   9.690
 3015POPC   GL139901  23.641  28.474   9.189
 3015POPC   GL239902  23.347  28.684   9.134
 3015POPC   C1A39903  23.796  28.339   8.719
 3015POPC   D2A39904  23.931  28.029   8.352
 3015POPC   C3A39905  23.773  28.146   7.955
 3015POPC   C4A39906  23.771  28.422   7.616
 3015POPC   C1B39907  23.345  28.835   8.747
 3015POPC   C2B39908  23.565  28.727   8.403
 3015POPC   C3B39909  23.495  28.592   8.019
 3015POPC   C4B39910  23.259  28.514   7.671
 3016POPC   NC339911   7.705  16.143   9.384
 3016POPC   PO439912   7.039  16.089   9.492
 3016POPC   GL139913   7.238  16.134   9.142
 3016POPC   GL239914   7.389  15.819   9.127
 3016POPC   C1A39915   7.441  16.170   8.762
 3016POPC   D2A39916   7.305  16.063   8.399
 3016POPC   C3A39917   7.493  16.144   8.033
 3016POPC   C4A39918   7.182  16.253   7.741
 3016POPC   C1B39919   7.516  15.666   8.704
 3016POPC   C2B39920   7.769  15.819   8.362
 3016POPC   C3B39921   7.669  15.667   7.961
 3016POPC   C4B39922   7.436  15.778   7.602
 3017POPC   NC339923  32.426  38.697   9.962
 3017POPC   PO439924  32.104  38.354   9.478
 3017POPC   GL139925  32.283  38.573   9.155
 3017POPC   GL239926  32.471  38.855   9.260
 3017POPC   C1A39927  32.111  38.736   8.795
 3017POPC   D2A39928  31.844  38.530   8.493
 3017POPC   C3A39929  32.095  38.519   8.122
 3017POPC   C4A39930  32.027  38.690   7.723
 3017POPC   C1B39931  32.634  38.832   8.846
 3017POPC   C2B39932  32.497  38.724   8.439
 3017POPC   C3B39933  32.563  38.894   8.052
 3017POPC   C4B39934  32.521  38.676   7.699
 3018POPC   NC339935  30.477  43.331   9.570
 3018POPC   PO439936  30.744  42.687   9.552
 3018POPC   GL139937  30.680  43.011   9.249
 3018POPC   GL239938  30.960  43.160   9.055
 3018POPC   C1A39939  30.474  43.197   8.902
 3018POPC   D2A39940  30.627  43.149   8.502
 3018POPC   C3A39941  30.432  42.951   8.154
 3018POPC   C4A39942  30.403  43.129   7.762
 3018POPC   C1B39943  30.965  43.476   8.740
 3018POPC   C2B39944  30.900  43.525   8.302
 3018POPC   C3B39945  30.861  43.208   8.011
 3018POPC   C4B39946  31.097  43.178   7.643
 3019POPC   NC339947  16.646   5.317   9.730
 3019POPC   PO439948  16.900   4.569   9.774
 3019POPC   GL139949  16.666   4.854   9.467
 3019POPC   GL239950  16.321   4.745   9.332
 3019POPC   C1A39951  16.626   5.072   9.060
 3019POPC   D2A39952  16.567   5.064   8.602
 3019POPC   C3A39953  16.878   5.228   8.307
 3019POPC   C4A39954  16.769   5.267   7.848
 3019POPC   C1B39955  16.388   4.541   8.896
 3019POPC   C2B39956  16.557   4.575   8.447
 3019POPC   C3B39957  16.688   4.805   8.103
 3019POPC   C4B39958  16.878   4.815   7.695
 3020POPC   NC339959  18.101  12.145   9.553
 3020POPC   PO439960  18.673  11.868   9.471
 3020POPC   GL139961  18.443  12.071   9.161
 3020POPC   GL239962  18.107  11.880   9.125
 3020POPC   C1A39963  18.448  12.068   8.733
 3020POPC   D2A39964  18.383  11.911   8.339
 3020POPC   C3A39965  18.462  12.168   8.020
 3020POPC   C4A39966  18.231  11.956   7.731
 3020POPC   C1B39967  17.902  12.139   8.820
 3020POPC   C2B39968  18.051  12.304   8.420
 3020POPC   C3B39969  17.899  12.198   8.013
 3020POPC   C4B39970  17.884  12.313   7.557
 3021POPC   NC339971  43.946  26.589   9.758
 3021POPC   PO439972  43.329  26.630   9.778
 3021POPC   GL139973  43.802  26.786   9.335
 3021POPC   GL239974  44.083  26.560   9.226
 3021POPC   C1A39975  43.747  26.938   8.830
 3021POPC   D2A39976  43.622  27.049   8.405
 3021POPC   C3A39977  43.756  26.718   8.147
 3021POPC   C4A39978  43.697  26.748   7.741
 3021POPC   C1B39979  44.214  26.797   8.869
 3021POPC   C2B39980  44.138  27.135   8.538
 3021POPC   C3B39981  44.038  27.210   8.117
 3021POPC   C4B39982  44.189  26.906   7.858
 3022POPC   NC339983   4.062  40.801   9.478
 3022POPC   PO439984   4.637  40.923   9.726
 3022POPC   GL139985   4.566  40.766   9.299
 3022POPC   GL239986   4.372  40.487   9.237
 3022POPC   C1A39987   4.520  40.801   8.832
 3022POPC   D2A39988   4.443  41.045   8.441
 3022POPC   C3A39989   4.512  40.880   8.019
 3022POPC   C4A39990   4.329  41.020   7.638
 3022POPC   C1B39991   4.037  40.545   8.872
 3022POPC   C2B39992   3.978  40.571   8.405
 3022POPC   C3B39993   3.993  40.846   8.014
 3022POPC   C4B39994   3.848  40.723   7.566
 3023POPC   NC339995  15.093  11.025   9.630
 3023POPC   PO439996  15.306  10.399   9.703
 3023POPC   GL139997  15.063  10.378   9.321
 3023POPC   GL239998  14.787  10.661   9.333
 3023POPC   C1A39999  15.162  10.253   8.879
 3023POPC   D2A40000  14.917  10.314   8.519
 3023POPC   C3A40001  15.191  10.337   8.169
 3023POPC   C4A40002  14.889  10.351   7.847
 3023POPC   C1B40003  14.993  10.731   8.940
 3023POPC   C2B40004  15.229  10.701   8.560
 3023POPC   C3B40005  14.954  10.773   8.199
 3023POPC   C4B40006  15.063  10.806   7.766
 3024POPC   NC340007   6.598   0.729   9.379
 3024POPC   PO440008   6.914   1.371   9.534
 3024POPC   GL140009   6.742   1.443   9.157
 3024POPC   GL240010   6.483   1.212   9.198
 3024POPC   C1A40011   6.504   1.495   8.763
 3024POPC   D2A40012   6.414   1.205   8.437
 3024POPC   C3A40013   6.646   1.150   8.082
 3024POPC   C4A40014   6.565   1.444   7.769
 3024POPC   C1B40015   6.715   1.033   8.821
 3024POPC   C2B40016   6.964   0.943   8.452
 3024POPC   C3B40017   7.104   0.853   8.027
 3024POPC   C4B40018   6.965   1.103   7.681
 3025POPC   NC340019  39.406  37.409   9.362
 3025POPC   PO440020  39.065  36.948   9.745
 3025POPC   GL140021  39.158  36.949   9.243
 3025POPC   GL240022  38.905  36.763   9.038
 3025POPC   C1A40023  39.374  36.899   8.807
 3025POPC   D2A40024  39.496  36.746   8.363
 3025POPC   C3A40025  39.623  36.950   7.982
 3025POPC   C4A40026  39.459  37.031   7.648
 3025POPC   C1B40027  38.880  37.099   8.771
 3025POPC   C2B40028  39.076  37.078   8.365
 3025POPC   C3B40029  39.030  36.951   7.934
 3025POPC   C4B40030  38.704  37.063   7.654
 3026POPC   NC340031  22.356  23.437   9.463
 3026POPC   PO440032  22.129  24.013   9.301
 3026POPC   GL140033  22.271  23.714   9.022
 3026POPC   GL240034  22.008  23.494   8.976
 3026POPC   C1A40035  22.337  23.755   8.595
 3026POPC   D2A40036  22.341  23.562   8.219
 3026POPC   C3A40037  22.233  23.814   7.900
 3026POPC   C4A40038  22.407  24.204   7.800
 3026POPC   C1B40039  21.769  23.379   8.589
 3026POPC   C2B40040  21.795  23.488   8.116
 3026POPC   C3B40041  22.086  23.314   7.801
 3026POPC   C4B40042  22.504  23.354   7.787
 3027POPC   NC340043   7.342  25.601   9.902
 3027POPC   PO440044   7.261  26.093   9.426
 3027POPC   GL140045   7.554  26.022   9.091
 3027POPC   GL240046   7.265  25.916   8.938
 3027POPC   C1A40047   7.697  25.867   8.676
 3027POPC   D2A40048   7.471  25.794   8.273
 3027POPC   C3A40049   7.692  25.828   7.877
 3027POPC   C4A40050   7.828  26.027   7.501
 3027POPC   C1B40051   7.308  26.337   8.762
 3027POPC   C2B40052   7.149  26.454   8.369
 3027POPC   C3B40053   7.346  26.368   7.994
 3027POPC   C4B40054   7.171  26.006   7.848
 3028POPC   NC340055  28.063  42.553   9.646
 3028POPC   PO440056  28.667  42.685   9.544
 3028POPC   GL140057  28.342  42.541   9.206
 3028POPC   GL240058  28.021  42.701   9.147
 3028POPC   C1A40059  28.155  42.343   8.788
 3028POPC   D2A40060  28.016  42.274   8.323
 3028POPC   C3A40061  28.287  42.154   7.946
 3028POPC   C4A40062  28.315  42.152   7.495
 3028POPC   C1B40063  28.267  42.836   8.809
 3028POPC   C2B40064  28.461  42.712   8.464
 3028POPC   C3B40065  28.293  42.647   8.092
 3028POPC   C4B40066  28.223  42.622   7.688
 3029POPC   NC340067  33.427  22.409   9.786
 3029POPC   PO440068  33.929  22.047   9.592
 3029POPC   GL140069  33.688  22.275   9.316
 3029POPC   GL240070  33.424  22.039   9.383
 3029POPC   C1A40071  33.810  22.335   8.883
 3029POPC   D2A40072  34.088  22.403   8.503
 3029POPC   C3A40073  33.993  22.112   8.159
 3029POPC   C4A40074  33.941  22.210   7.742
 3029POPC   C1B40075  33.527  21.894   8.958
 3029POPC   C2B40076  33.575  21.867   8.497
 3029POPC   C3B40077  33.509  21.964   8.056
 3029POPC   C4B40078  33.574  21.858   7.631
 3030POPC   NC340079  13.432  11.222   9.276
 3030POPC   PO440080  12.831  11.080   9.557
 3030POPC   GL140081  12.730  11.207   9.124
 3030POPC   GL240082  13.016  11.375   9.005
 3030POPC   C1A40083  12.604  11.349   8.695
 3030POPC   D2A40084  12.657  11.622   8.306
 3030POPC   C3A40085  12.731  11.415   7.916
 3030POPC   C4A40086  12.632  11.016   7.815
 3030POPC   C1B40087  13.077  11.101   8.694
 3030POPC   C2B40088  13.060  11.307   8.336
 3030POPC   C3B40089  13.245  11.307   7.965
 3030POPC   C4B40090  13.228  11.458   7.571
 3031POPC   NC340091   6.581  44.258   9.458
 3031POPC   PO440092   6.782  43.602   9.453
 3031POPC   GL140093   6.692  43.847   9.142
 3031POPC   GL240094   6.347  43.896   9.180
 3031POPC   C1A40095   6.758  43.836   8.727
 3031POPC   D2A40096   6.571  44.070   8.403
 3031POPC   C3A40097   6.767  43.884   8.072
 3031POPC   C4A40098   6.913  43.965   7.667
 3031POPC   C1B40099   6.346  43.567   8.880
 3031POPC   C2B40100   6.412  43.525   8.454
 3031POPC   C3B40101   6.288  43.724   8.107
 3031POPC   C4B40102   6.445  43.765   7.705
 3032POPC   NC340103  32.789  29.341   9.516
 3032POPC   PO440104  33.372  29.019   9.491
 3032POPC   GL140105  33.185  29.075   9.106
 3032POPC   GL240106  32.982  29.385   9.053
 3032POPC   C1A40107  33.256  29.185   8.672
 3032POPC   D2A40108  32.931  29.114   8.370
 3032POPC   C3A40109  33.022  29.199   7.937
 3032POPC   C4A40110  32.757  29.105   7.593
 3032POPC   C1B40111  32.893  29.606   8.658
 3032POPC   C2B40112  32.617  29.543   8.306
 3032POPC   C3B40113  32.630  29.543   7.855
 3032POPC   C4B40114  32.945  29.616   7.556
 3033POPC   NC340115  24.761  36.471   9.429
 3033POPC   PO440116  24.661  37.090   9.502
 3033POPC   GL140117  24.486  36.922   9.142
 3033POPC   GL240118  24.419  36.597   9.064
 3033POPC   C1A40119  24.298  37.115   8.804
 3033POPC   D2A40120  24.328  37.059   8.384
 3033POPC   C3A40121  24.372  37.299   8.029
 3033POPC   C4A40122  24.450  37.289   7.632
 3033POPC   C1B40123  24.466  36.640   8.659
 3033POPC   C2B40124  24.646  36.695   8.272
 3033POPC   C3B40125  24.469  36.812   7.905
 3033POPC   C4B40126  24.713  36.845   7.558
 3034POPC   NC340127  14.625  30.517   9.299
 3034POPC   PO440128  14.485  29.927   9.708
 3034POPC   GL140129  14.556  29.996   9.281
 3034POPC   GL240130  14.338  29.754   9.202
 3034POPC   C1A40131  14.683  29.932   8.838
 3034POPC   D2A40132  14.581  29.756   8.436
 3034POPC   C3A40133  14.716  29.904   8.032
 3034POPC   C4A40134  14.582  29.877   7.597
 3034POPC   C1B40135  14.179  29.808   8.813
 3034POPC   C2B40136  14.055  29.848   8.424
 3034POPC   C3B40137  14.213  29.884   8.052
 3034POPC   C4B40138  14.092  29.983   7.693
 3035POPC   NC340139   0.472  11.711   9.624
 3035POPC   PO440140   0.678  12.259   9.326
 3035POPC   GL140141   0.334  12.037   9.149
 3035POPC   GL240142   0.266  11.705   9.091
 3035POPC   C1A40143   0.062  12.104   8.814
 3035POPC   D2A40144   0.261  12.082   8.433
 3035POPC   C3A40145   0.121  12.172   8.077
 3035POPC   C4A40146   0.283  12.225   7.710
 3035POPC   C1B40147   0.569  11.810   8.728
 3035POPC   C2B40148   0.756  11.992   8.317
 3035POPC   C3B40149   0.597  11.877   7.902
 3035POPC   C4B40150   0.205  11.737   7.772
 3036POPC   NC340151  43.094   5.512   9.526
 3036POPC   PO440152  42.906   6.163   9.586
 3036POPC   GL140153  43.215   5.990   9.323
 3036POPC   GL240154  42.923   5.880   9.158
 3036POPC   C1A40155  43.353   5.857   8.890
 3036POPC   D2A40156  43.505   5.987   8.456
 3036POPC   C3A40157  43.231   5.928   8.095
 3036POPC   C4A40158  43.268   5.663   7.726
 3036POPC   C1B40159  42.886   5.976   8.732
 3036POPC   C2B40160  42.993   5.650   8.454
 3036POPC   C3B40161  42.850   5.570   8.032
 3036POPC   C4B40162  42.795   5.840   7.645
 3037POPC   NC340163  21.971  34.080   9.434
 3037POPC   PO440164  22.425  33.564   9.491
 3037POPC   GL140165  22.171  33.650   9.177
 3037POPC   GL240166  22.207  33.970   9.012
 3037POPC   C1A40167  22.111  33.554   8.753
 3037POPC   D2A40168  22.331  33.817   8.500
 3037POPC   C3A40169  22.250  33.675   8.110
 3037POPC   C4A40170  22.310  33.779   7.694
 3037POPC   C1B40171  21.844  34.012   8.759
 3037POPC   C2B40172  21.812  33.841   8.342
 3037POPC   C3B40173  21.852  33.940   7.894
 3037POPC   C4B40174  21.914  34.056   7.452
 3038POPC   NC340175  37.693  18.299   9.524
 3038POPC   PO440176  37.083  17.894   9.504
 3038POPC   GL140177  37.370  17.979   9.131
 3038POPC   GL240178  37.754  18.079   9.078
 3038POPC   C1A40179  37.380  18.180   8.747
 3038POPC   D2A40180  37.343  18.339   8.340
 3038POPC   C3A40181  37.635  18.338   7.990
 3038POPC   C4A40182  37.590  18.275   7.520
 3038POPC   C1B40183  37.751  18.496   8.864
 3038POPC   C2B40184  37.836  18.554   8.438
 3038POPC   C3B40185  38.112  18.308   8.189
 3038POPC   C4B40186  38.067  18.233   7.727
 3039POPC   NC340187  34.605  15.720   9.332
 3039POPC   PO440188  34.448  15.063   9.558
 3039POPC   GL140189  34.398  15.252   9.157
 3039POPC   GL240190  34.751  15.245   9.158
 3039POPC   C1A40191  34.211  15.150   8.741
 3039POPC   D2A40192  34.297  15.355   8.365
 3039POPC   C3A40193  34.256  15.276   7.905
 3039POPC   C4A40194  34.597  15.499   7.779
 3039POPC   C1B40195  34.721  15.066   8.767
 3039POPC   C2B40196  34.535  14.838   8.458
 3039POPC   C3B40197  34.675  15.086   8.139
 3039POPC   C4B40198  34.763  15.013   7.747
 3040POPC   NC340199  16.092  30.115   9.582
 3040POPC   PO440200  15.462  29.906   9.499
 3040POPC   GL140201  15.731  30.012   9.183
 3040POPC   GL240202  16.021  29.804   9.163
 3040POPC   C1A40203  15.780  30.119   8.755
 3040POPC   D2A40204  15.992  30.277   8.393
 3040POPC   C3A40205  15.746  30.140   8.045
 3040POPC   C4A40206  15.531  30.166   7.649
 3040POPC   C1B40207  16.201  29.821   8.732
 3040POPC   C2B40208  16.034  29.774   8.282
 3040POPC   C3B40209  16.210  29.860   7.858
 3040POPC   C4B40210  16.246  29.563   7.463
 3041POPC   NC340211  44.812  15.779   9.727
 3041POPC   PO440212   0.094  15.582   9.202
 3041POPC   GL140213  44.845  15.937   9.225
 3041POPC   GL240214  44.535  15.815   9.219
 3041POPC   C1A40215  44.848  16.167   8.845
 3041POPC   D2A40216  44.852  15.906   8.455
 3041POPC   C3A40217  44.952  16.073   8.053
 3041POPC   C4A40218  44.827  15.829   7.711
 3041POPC   C1B40219  44.575  15.566   8.807
 3041POPC   C2B40220  44.533  15.514   8.346
 3041POPC   C3B40221  44.436  15.842   8.036
 3041POPC   C4B40222  44.069  15.781   7.755
 3042POPC   NC340223   1.491  15.912   9.469
 3042POPC   PO440224   0.870  16.075   9.552
 3042POPC   GL140225   1.114  16.174   9.204
 3042POPC   GL240226   1.115  15.806   9.144
 3042POPC   C1A40227   1.224  16.165   8.760
 3042POPC   D2A40228   1.100  16.425   8.408
 3042POPC   C3A40229   1.116  16.260   7.965
 3042POPC   C4A40230   1.523  16.201   7.738
 3042POPC   C1B40231   1.012  15.643   8.750
 3042POPC   C2B40232   1.322  15.701   8.443
 3042POPC   C3B40233   1.312  15.812   8.017
 3042POPC   C4B40234   1.178  15.842   7.570
 3043POPC   NC340235   1.551  42.220   9.444
 3043POPC   PO440236   0.898  42.475   9.593
 3043POPC   GL140237   1.154  42.446   9.217
 3043POPC   GL240238   1.068  42.751   9.203
 3043POPC   C1A40239   1.407  42.428   8.774
 3043POPC   D2A40240   1.319  42.164   8.408
 3043POPC   C3A40241   1.382  42.361   7.988
 3043POPC   C4A40242   1.349  42.199   7.550
 3043POPC   C1B40243   0.922  42.578   8.789
 3043POPC   C2B40244   1.049  42.587   8.373
 3043POPC   C3B40245   0.877  42.405   7.991
 3043POPC   C4B40246   0.844  42.572   7.602
 3044POPC   NC340247   3.979  21.140   9.665
 3044POPC   PO440248   4.333  21.634   9.874
 3044POPC   GL140249   4.164  21.446   9.329
 3044POPC   GL240250   4.269  21.130   9.240
 3044POPC   C1A40251   4.183  21.582   8.867
 3044POPC   D2A40252   4.371  21.408   8.502
 3044POPC   C3A40253   4.285  21.597   8.101
 3044POPC   C4A40254   4.409  21.390   7.711
 3044POPC   C1B40255   4.367  21.001   8.836
 3044POPC   C2B40256   4.165  20.917   8.460
 3044POPC   C3B40257   4.289  21.042   8.084
 3044POPC   C4B40258   4.173  20.915   7.701
 3045POPC   NC340259  22.930   1.345   9.589
 3045POPC   PO440260  22.863   0.735   9.427
 3045POPC   GL140261  22.956   1.103   9.112
 3045POPC   GL240262  23.110   1.460   9.132
 3045POPC   C1A40263  22.940   1.135   8.643
 3045POPC   D2A40264  23.162   0.940   8.285
 3045POPC   C3A40265  22.991   0.960   7.839
 3045POPC   C4A40266  22.842   1.251   7.500
 3045POPC   C1B40267  23.348   1.443   8.756
 3045POPC   C2B40268  23.207   1.520   8.348
 3045POPC   C3B40269  22.985   1.485   7.975
 3045POPC   C4B40270  23.253   1.528   7.644
 3046POPC   NC340271  34.735   1.744   9.523
 3046POPC   PO440272  34.432   2.366   9.531
 3046POPC   GL140273  34.432   2.053   9.243
 3046POPC   GL240274  34.713   2.097   9.138
 3046POPC   C1A40275  34.427   1.763   8.881
 3046POPC   D2A40276  34.644   1.678   8.511
 3046POPC   C3A40277  34.527   1.775   8.111
 3046POPC   C4A40278  34.648   1.776   7.699
 3046POPC   C1B40279  34.744   2.150   8.732
 3046POPC   C2B40280  34.582   2.229   8.332
 3046POPC   C3B40281  34.827   2.193   7.931
 3046POPC   C4B40282  34.743   2.195   7.461
 3047POPC   NC340283  15.789  15.252   9.430
 3047POPC   PO440284  16.411  15.217   9.455
 3047POPC   GL140285  16.233  15.337   9.138
 3047POPC   GL240286  16.050  15.006   9.078
 3047POPC   C1A40287  16.061  15.427   8.784
 3047POPC   D2A40288  16.026  15.198   8.459
 3047POPC   C3A40289  16.117  15.483   8.144
 3047POPC   C4A40290  15.938  15.481   7.737
 3047POPC   C1B40291  15.958  14.749   8.725
 3047POPC   C2B40292  15.944  14.723   8.289
 3047POPC   C3B40293  16.088  14.760   7.914
 3047POPC   C4B40294  16.280  15.129   7.825
 3048POPC   NC340295  22.183  22.700   9.515
 3048POPC   PO440296  21.910  23.310   9.467
 3048POPC   GL140297  22.200  23.073   9.156
 3048POPC   GL240298  22.231  22.764   8.993
 3048POPC   C1A40299  22.380  23.205   8.757
 3048POPC   D2A40300  22.154  23.129   8.373
 3048POPC   C3A40301  22.257  22.810   8.133
 3048POPC   C4A40302  22.292  22.833   7.729
 3048POPC   C1B40303  22.060  22.443   8.712
 3048POPC   C2B40304  21.990  22.408   8.293
 3048POPC   C3B40305  21.912  22.499   7.865
 3048POPC   C4B40306  21.704  22.371   7.476
 3049POPC   NC340307   7.809  37.489   9.467
 3049POPC   PO440308   7.113  37.625   9.460
 3049POPC   GL140309   7.363  37.624   9.093
 3049POPC   GL240310   7.717  37.787   9.062
 3049POPC   C1A40311   7.192  37.399   8.728
 3049POPC   D2A40312   6.890  37.286   8.359
 3049POPC   C3A40313   6.981  37.459   7.952
 3049POPC   C4A40314   7.353  37.670   7.891
 3049POPC   C1B40315   7.713  37.464   8.753
 3049POPC   C2B40316   7.531  37.461   8.335
 3049POPC   C3B40317   7.785  37.374   7.973
 3049POPC   C4B40318   7.968  37.495   7.603
 3050POPC   NC340319  25.527   6.150   9.571
 3050POPC   PO440320  25.444   5.522   9.620
 3050POPC   GL140321  25.262   5.798   9.309
 3050POPC   GL240322  24.998   5.545   9.246
 3050POPC   C1A40323  25.413   6.083   8.935
 3050POPC   D2A40324  25.459   5.959   8.500
 3050POPC   C3A40325  25.390   6.087   8.058
 3050POPC   C4A40326  25.452   5.696   7.815
 3050POPC   C1B40327  25.086   5.711   8.844
 3050POPC   C2B40328  24.980   5.760   8.445
 3050POPC   C3B40329  24.926   5.864   8.036
 3050POPC   C4B40330  24.916   5.696   7.652
 3051POPC   NC340331   8.307  18.463   9.526
 3051POPC   PO440332   7.841  18.047   9.824
 3051POPC   GL140333   8.143  17.971   9.343
 3051POPC   GL240334   8.451  18.101   9.202
 3051POPC   C1A40335   8.158  18.079   8.823
 3051POPC   D2A40336   8.241  18.315   8.453
 3051POPC   C3A40337   8.235  18.157   8.051
 3051POPC   C4A40338   7.943  18.248   7.757
 3051POPC   C1B40339   8.584  18.399   8.863
 3051POPC   C2B40340   8.686  18.543   8.477
 3051POPC   C3B40341   8.600  18.499   8.052
 3051POPC   C4B40342   8.447  18.418   7.623
 3052POPC   NC340343   0.644   0.606   9.527
 3052POPC   PO440344   0.071   0.479   9.271
 3052POPC   GL140345   0.364   0.274   9.048
 3052POPC   GL240346   0.623   0.528   9.029
 3052POPC   C1A40347   0.434   0.303   8.600
 3052POPC   D2A40348   0.140   0.284   8.259
 3052POPC   C3A40349   0.408   0.422   7.987
 3052POPC   C4A40350   0.601   0.253   7.664
 3052POPC   C1B40351   0.801   0.739   8.678
 3052POPC   C2B40352   0.862   0.488   8.323
 3052POPC   C3B40353   1.030   0.526   7.942
 3052POPC   C4B40354   0.728   0.732   7.766
 3053POPC   NC340355  35.418  23.313   9.361
 3053POPC   PO440356  35.047  23.801   9.574
 3053POPC   GL140357  35.004  23.641   9.191
 3053POPC   GL240358  35.318  23.802   9.102
 3053POPC   C1A40359  35.062  23.500   8.761
 3053POPC   D2A40360  35.280  23.471   8.368
 3053POPC   C3A40361  35.073  23.556   7.948
 3053POPC   C4A40362  35.127  23.669   7.499
 3053POPC   C1B40363  35.427  23.913   8.678
 3053POPC   C2B40364  35.683  23.781   8.317
 3053POPC   C3B40365  35.545  23.758   7.899
 3053POPC   C4B40366  35.646  23.768   7.462
 3054POPC   NC340367   5.643   7.442   9.537
 3054POPC   PO440368   6.312   7.544   9.578
 3054POPC   GL140369   6.114   7.440   9.162
 3054POPC   GL240370   5.788   7.400   9.069
 3054POPC   C1A40371   6.192   7.374   8.737
 3054POPC   D2A40372   5.845   7.455   8.442
 3054POPC   C3A40373   5.942   7.518   8.017
 3054POPC   C4A40374   5.737   7.653   7.640
 3054POPC   C1B40375   5.584   7.184   8.796
 3054POPC   C2B40376   5.380   7.236   8.436
 3054POPC   C3B40377   5.471   7.159   8.070
 3054POPC   C4B40378   5.696   7.163   7.744
 3055POPC   NC340379   1.594  21.257   9.547
 3055POPC   PO440380   0.946  21.314   9.608
 3055POPC   GL140381   0.974  21.334   9.207
 3055POPC   GL240382   1.279  21.137   9.161
 3055POPC   C1A40383   0.949  21.264   8.797
 3055POPC   D2A40384   1.169  21.328   8.461
 3055POPC   C3A40385   0.927  21.428   8.139
 3055POPC   C4A40386   1.049  21.492   7.747
 3055POPC   C1B40387   1.440  21.478   8.891
 3055POPC   C2B40388   1.650  21.511   8.500
 3055POPC   C3B40389   1.594  21.196   8.159
 3055POPC   C4B40390   1.532  21.358   7.752
 3056POPC   NC340391  17.572   5.478   9.452
 3056POPC   PO440392  17.762   6.103   9.443
 3056POPC   GL140393  17.467   5.893   9.152
 3056POPC   GL240394  17.730   5.681   9.000
 3056POPC   C1A40395  17.305   5.780   8.725
 3056POPC   D2A40396  17.617   5.729   8.390
 3056POPC   C3A40397  17.503   5.692   7.951
 3056POPC   C4A40398  17.403   5.993   7.602
 3056POPC   C1B40399  17.747   6.079   8.747
 3056POPC   C2B40400  17.657   6.230   8.294
 3056POPC   C3B40401  17.855   6.053   7.898
 3056POPC   C4B40402  17.910   5.947   7.452
 3057POPC   NC340403  38.247  31.700   9.476
 3057POPC   PO440404  38.892  31.555   9.585
 3057POPC   GL140405  38.625  31.495   9.218
 3057POPC   GL240406  38.404  31.231   9.207
 3057POPC   C1A40407  38.397  31.534   8.788
 3057POPC   D2A40408  38.396  31.846   8.411
 3057POPC   C3A40409  38.251  31.631   8.024
 3057POPC   C4A40410  38.470  31.506   7.638
 3057POPC   C1B40411  38.761  31.122   8.902
 3057POPC   C2B40412  38.711  31.228   8.494
 3057POPC   C3B40413  38.563  31.068   8.118
 3057POPC   C4B40414  38.228  31.123   7.880
 3058POPC   NC340415  37.992  40.200   9.537
 3058POPC   PO440416  37.424  40.025   9.682
 3058POPC   GL140417  37.564  40.184   9.254
 3058POPC   GL240418  37.422  40.490   9.135
 3058POPC   C1A40419  37.856  40.075   8.894
 3058POPC   D2A40420  37.930  40.188   8.446
 3058POPC   C3A40421  37.591  40.013   8.182
 3058POPC   C4A40422  37.423  40.060   7.771
 3058POPC   C1B40423  37.580  40.491   8.750
 3058POPC   C2B40424  37.480  40.497   8.337
 3058POPC   C3B40425  37.684  40.450   7.961
 3058POPC   C4B40426  38.061  40.247   7.754
 3059POPC   NC340427   2.413  37.259   9.420
 3059POPC   PO440428   2.976  37.607   9.677
 3059POPC   GL140429   2.881  37.722   9.209
 3059POPC   GL240430   2.583  37.580   9.079
 3059POPC   C1A40431   2.719  37.999   8.805
 3059POPC   D2A40432   2.808  38.104   8.344
 3059POPC   C3A40433   2.749  37.883   7.952
 3059POPC   C4A40434   2.643  37.583   7.648
 3059POPC   C1B40435   2.875  37.527   8.737
 3059POPC   C2B40436   3.019  37.560   8.347
 3059POPC   C3B40437   2.952  37.360   7.986
 3059POPC   C4B40438   3.118  37.362   7.602
 3060POPC   NC340439  32.946   4.073   9.534
 3060POPC   PO440440  33.058   4.694   9.291
 3060POPC   GL140441  33.006   4.285   9.099
 3060POPC   GL240442  32.689   4.041   9.106
 3060POPC   C1A40443  33.237   4.255   8.771
 3060POPC   D2A40444  33.257   4.589   8.482
 3060POPC   C3A40445  33.251   4.443   8.076
 3060POPC   C4A40446  33.275   4.302   7.677
 3060POPC   C1B40447  32.891   3.881   8.751
 3060POPC   C2B40448  32.940   4.113   8.368
 3060POPC   C3B40449  32.792   4.229   7.983
 3060POPC   C4B40450  32.858   4.044   7.593
 3061POPC   NC340451  34.182  24.750   9.445
 3061POPC   PO440452  34.668  24.297   9.446
 3061POPC   GL140453  34.431  24.431   9.157
 3061POPC   GL240454  34.156  24.240   9.336
 3061POPC   C1A40455  34.427  24.496   8.734
 3061POPC   D2A40456  34.630  24.274   8.459
 3061POPC   C3A40457  34.721  24.573   8.186
 3061POPC   C4A40458  34.769  24.520   7.764
 3061POPC   C1B40459  34.112  24.156   8.893
 3061POPC   C2B40460  34.083  24.150   8.425
 3061POPC   C3B40461  34.365  24.182   8.047
 3061POPC   C4B40462  34.318  24.282   7.635
 3062POPC   NC340463  30.152  30.846   9.488
 3062POPC   PO440464  29.755  30.264   9.643
 3062POPC   GL140465  29.967  30.430   9.257
 3062POPC   GL240466  29.782  30.720   9.132
 3062POPC   C1A40467  30.198  30.563   8.847
 3062POPC   D2A40468  29.923  30.529   8.451
 3062POPC   C3A40469  30.088  30.534   8.033
 3062POPC   C4A40470  29.844  30.510   7.686
 3062POPC   C1B40471  29.766  30.943   8.746
 3062POPC   C2B40472  29.622  31.088   8.331
 3062POPC   C3B40473  29.688  30.972   7.906
 3062POPC   C4B40474  30.078  30.959   7.736
 3063POPC   NC340475  37.083  44.919   9.509
 3063POPC   PO440476  36.920  44.305   9.362
 3063POPC   GL140477  36.845  44.620   9.082
 3063POPC   GL240478  37.154  44.778   9.020
 3063POPC   C1A40479  36.787  44.665   8.635
 3063POPC   D2A40480  36.832  44.923   8.272
 3063POPC   C3A40481  36.950  44.702   7.920
 3063POPC   C4A40482  36.879  44.317   7.780
 3063POPC   C1B40483  37.226  44.415   8.753
 3063POPC   C2B40484  37.211  44.506   8.323
 3063POPC   C3B40485  37.377  44.296   7.969
 3063POPC   C4B40486  37.332  44.528   7.602
 3064POPC   NC340487  41.808   8.605   9.379
 3064POPC   PO440488  41.792   7.983   9.549
 3064POPC   GL140489  41.584   8.134   9.162
 3064POPC   GL240490  41.234   8.025   9.092
 3064POPC   C1A40491  41.518   8.297   8.719
 3064POPC   D2A40492  41.736   8.278   8.305
 3064POPC   C3A40493  41.511   8.167   7.912
 3064POPC   C4A40494  41.551   8.206   7.457
 3064POPC   C1B40495  41.291   7.807   8.697
 3064POPC   C2B40496  41.239   7.963   8.312
 3064POPC   C3B40497  41.030   7.835   7.949
 3064POPC   C4B40498  41.197   7.859   7.581
 3065POPC   NC340499  33.460  31.750   9.538
 3065POPC   PO440500  32.890  31.349   9.480
 3065POPC   GL140501  32.862  31.515   9.106
 3065POPC   GL240502  33.086  31.810   9.167
 3065POPC   C1A40503  32.875  31.314   8.708
 3065POPC   D2A40504  33.101  31.275   8.324
 3065POPC   C3A40505  32.888  31.471   7.980
 3065POPC   C4A40506  32.725  31.364   7.554
 3065POPC   C1B40507  33.218  31.681   8.757
 3065POPC   C2B40508  33.190  31.816   8.337
 3065POPC   C3B40509  33.390  31.740   7.960
 3065POPC   C4B40510  33.245  31.474   7.636
 3066POPC   NC340511  26.436  23.098   9.404
 3066POPC   PO440512  25.817  23.289   9.518
 3066POPC   GL140513  26.009  23.247   9.134
 3066POPC   GL240514  26.024  22.870   9.087
 3066POPC   C1A40515  26.183  23.178   8.730
 3066POPC   D2A40516  26.092  23.033   8.341
 3066POPC   C3A40517  26.242  23.283   8.014
 3066POPC   C4A40518  26.146  23.118   7.647
 3066POPC   C1B40519  25.887  22.595   8.703
 3066POPC   C2B40520  26.031  22.529   8.274
 3066POPC   C3B40521  25.929  22.667   7.879
 3066POPC   C4B40522  25.523  22.739   7.784
 3067POPC   NC340523   0.798  20.405   9.341
 3067POPC   PO440524   0.289  20.801   9.495
 3067POPC   GL140525   0.467  20.685   9.088
 3067POPC   GL240526   0.815  20.851   9.094
 3067POPC   C1A40527   0.497  20.406   8.687
 3067POPC   D2A40528   0.285  20.348   8.296
 3067POPC   C3A40529   0.494  20.411   7.917
 3067POPC   C4A40530   0.797  20.672   7.775
 3067POPC   C1B40531   0.687  20.868   8.655
 3067POPC   C2B40532   0.564  20.813   8.246
 3067POPC   C3B40533   0.579  21.128   7.945
 3067POPC   C4B40534   0.730  21.134   7.547
 3068POPC   NC340535  32.135  43.356   9.742
 3068POPC   PO440536  32.600  43.003   9.488
 3068POPC   GL140537  32.387  43.012   9.147
 3068POPC   GL240538  32.107  43.229   9.169
 3068POPC   C1A40539  32.197  42.849   8.812
 3068POPC   D2A40540  32.170  43.106   8.489
 3068POPC   C3A40541  32.229  42.872   8.129
 3068POPC   C4A40542  32.074  43.084   7.812
 3068POPC   C1B40543  32.432  43.466   8.911
 3068POPC   C2B40544  32.604  43.444   8.493
 3068POPC   C3B40545  32.392  43.378   8.104
 3068POPC   C4B40546  32.509  43.266   7.691
 3069POPC   NC340547  42.073  26.605   9.544
 3069POPC   PO440548  42.529  27.050   9.736
 3069POPC   GL140549  42.257  26.994   9.266
 3069POPC   GL240550  42.321  26.672   9.074
 3069POPC   C1A40551  42.066  27.076   8.833
 3069POPC   D2A40552  42.146  26.880   8.406
 3069POPC   C3A40553  42.098  27.057   7.967
 3069POPC   C4A40554  42.335  26.940   7.566
 3069POPC   C1B40555  42.692  26.527   8.821
 3069POPC   C2B40556  42.922  26.682   8.437
 3069POPC   C3B40557  42.914  26.486   8.014
 3069POPC   C4B40558  42.555  26.497   7.761
 3070POPC   NC340559  13.791  13.168   9.409
 3070POPC   PO440560  13.591  12.487   9.538
 3070POPC   GL140561  13.606  12.691   9.121
 3070POPC   GL240562  13.485  13.031   9.019
 3070POPC   C1A40563  13.541  12.670   8.670
 3070POPC   D2A40564  13.561  12.982   8.362
 3070POPC   C3A40565  13.647  12.748   7.996
 3070POPC   C4A40566  13.474  12.875   7.625
 3070POPC   C1B40567  13.737  13.315   8.733
 3070POPC   C2B40568  14.011  13.245   8.353
 3070POPC   C3B40569  13.816  13.243   7.934
 3070POPC   C4B40570  13.912  13.342   7.502
 3071POPC   NC340571  36.043  13.035   9.572
 3071POPC   PO440572  36.605  13.158   9.381
 3071POPC   GL140573  36.334  12.825   9.201
 3071POPC   GL240574  36.252  13.125   9.020
 3071POPC   C1A40575  36.200  12.668   8.780
 3071POPC   D2A40576  35.982  12.448   8.441
 3071POPC   C3A40577  36.187  12.471   8.046
 3071POPC   C4A40578  36.357  12.792   7.746
 3071POPC   C1B40579  35.971  13.150   8.704
 3071POPC   C2B40580  36.011  12.957   8.317
 3071POPC   C3B40581  36.070  13.167   7.936
 3071POPC   C4B40582  35.885  13.127   7.522
 3072POPC   NC340583  12.185  30.520   9.497
 3072POPC   PO440584  11.856  31.022   9.507
 3072POPC   GL140585  12.042  30.871   9.124
 3072POPC   GL240586  12.247  30.577   9.011
 3072POPC   C1A40587  12.145  31.010   8.734
 3072POPC   D2A40588  11.923  30.934   8.359
 3072POPC   C3A40589  12.115  30.997   8.004
 3072POPC   C4A40590  11.972  30.927   7.601
 3072POPC   C1B40591  12.117  30.504   8.610
 3072POPC   C2B40592  12.307  30.588   8.223
 3072POPC   C3B40593  12.169  30.503   7.802
 3072POPC   C4B40594  12.167  30.347   7.347
 3073POPC   NC340595  26.376   4.817   9.262
 3073POPC   PO440596  26.005   4.481   9.708
 3073POPC   GL140597  26.144   4.282   9.274
 3073POPC   GL240598  26.240   4.463   8.939
 3073POPC   C1A40599  26.063   3.993   8.881
 3073POPC   D2A40600  26.039   4.243   8.484
 3073POPC   C3A40601  26.077   4.170   8.049
 3073POPC   C4A40602  26.084   4.370   7.659
 3073POPC   C1B40603  25.780   4.413   8.905
 3073POPC   C2B40604  25.507   4.372   8.533
 3073POPC   C3B40605  25.628   4.447   8.097
 3073POPC   C4B40606  25.816   4.786   7.872
 3074POPC   NC340607   2.766   8.552   9.542
 3074POPC   PO440608   2.700   9.194   9.482
 3074POPC   GL140609   2.651   8.987   9.093
 3074POPC   GL240610   2.431   8.704   9.177
 3074POPC   C1A40611   2.970   8.840   8.781
 3074POPC   D2A40612   3.073   8.887   8.353
 3074POPC   C3A40613   2.775   8.856   8.022
 3074POPC   C4A40614   3.069   8.759   7.721
 3074POPC   C1B40615   2.264   8.625   8.775
 3074POPC   C2B40616   2.455   8.615   8.372
 3074POPC   C3B40617   2.367   8.550   7.931
 3074POPC   C4B40618   2.595   8.741   7.529
 3075POPC   NC340619  30.163  13.899   9.452
 3075POPC   PO440620  29.763  14.485   9.471
 3075POPC   GL140621  30.163  14.469   9.213
 3075POPC   GL240622  30.257  14.218   9.002
 3075POPC   C1A40623  30.191  14.725   8.842
 3075POPC   D2A40624  29.865  14.760   8.514
 3075POPC   C3A40625  29.906  14.485   8.160
 3075POPC   C4A40626  29.819  14.649   7.760
 3075POPC   C1B40627  30.093  14.283   8.602
 3075POPC   C2B40628  29.799  14.020   8.398
 3075POPC   C3B40629  29.671  14.018   7.970
 3075POPC   C4B40630  29.905  14.150   7.607
 3076POPC   NC340631  13.781  37.886   9.441
 3076POPC   PO440632  13.916  37.268   9.697
 3076POPC   GL140633  13.569  37.459   9.263
 3076POPC   GL240634  13.322  37.757   9.216
 3076POPC   C1A40635  13.623  37.681   8.820
 3076POPC   D2A40636  13.599  37.855   8.437
 3076POPC   C3A40637  13.894  37.933   8.130
 3076POPC   C4A40638  13.831  37.730   7.762
 3076POPC   C1B40639  13.274  38.066   8.820
 3076POPC   C2B40640  13.151  38.080   8.345
 3076POPC   C3B40641  13.379  37.883   7.965
 3076POPC   C4B40642  13.446  37.893   7.491
 3077POPC   NC340643  17.701  26.870   9.583
 3077POPC   PO440644  17.202  26.451   9.830
 3077POPC   GL140645  17.360  26.598   9.370
 3077POPC   GL240646  17.231  26.974   9.359
 3077POPC   C1A40647  17.461  26.753   8.920
 3077POPC   D2A40648  17.680  26.968   8.551
 3077POPC   C3A40649  17.539  26.912   8.121
 3077POPC   C4A40650  17.617  26.960   7.697
 3077POPC   C1B40651  17.118  27.176   8.953
 3077POPC   C2B40652  17.142  27.027   8.527
 3077POPC   C3B40653  17.046  27.100   8.108
 3077POPC   C4B40654  17.145  27.225   7.693
 3078POPC   NC340655   9.203  38.224   9.653
 3078POPC   PO440656   8.716  38.599   9.539
 3078POPC   GL140657   8.912  38.515   9.181
 3078POPC   GL240658   8.875  38.155   9.121
 3078POPC   C1A40659   8.821  38.562   8.740
 3078POPC   D2A40660   8.789  38.545   8.295
 3078POPC   C3A40661   9.085  38.852   8.158
 3078POPC   C4A40662   8.990  38.928   7.779
 3078POPC   C1B40663   9.256  38.305   8.877
 3078POPC   C2B40664   9.282  38.490   8.468
 3078POPC   C3B40665   9.217  38.371   8.049
 3078POPC   C4B40666   9.386  38.278   7.643
 3079POPC   NC340667  17.285  16.391   9.274
 3079POPC   PO440668  17.613  16.820   9.705
 3079POPC   GL140669  17.684  16.869   9.256
 3079POPC   GL240670  17.786  16.511   9.196
 3079POPC   C1A40671  17.645  17.036   8.820
 3079POPC   D2A40672  17.648  17.210   8.383
 3079POPC   C3A40673  17.476  16.985   8.011
 3079POPC   C4A40674  17.457  16.892   7.514
 3079POPC   C1B40675  17.639  16.543   8.755
 3079POPC   C2B40676  17.824  16.721   8.397
 3079POPC   C3B40677  17.798  16.600   7.989
 3079POPC   C4B40678  17.386  16.499   7.814
 3080POPC   NC340679  34.879  11.731   9.485
 3080POPC   PO440680  34.436  11.333   9.353
 3080POPC   GL140681  34.750  11.275   9.083
 3080POPC   GL240682  34.495  11.066   8.917
 3080POPC   C1A40683  34.755  11.458   8.684
 3080POPC   D2A40684  34.417  11.288   8.452
 3080POPC   C3A40685  34.484  11.191   8.045
 3080POPC   C4A40686  34.609  11.448   7.735
 3080POPC   C1B40687  34.124  10.915   8.693
 3080POPC   C2B40688  33.987  11.047   8.278
 3080POPC   C3B40689  34.064  10.934   7.852
 3080POPC   C4B40690  34.421  10.974   7.574
 3081POPC   NC340691   9.949   7.362   9.851
 3081POPC   PO440692   9.312   7.650   9.616
 3081POPC   GL140693   9.560   7.464   9.248
 3081POPC   GL240694   9.919   7.370   9.335
 3081POPC   C1A40695   9.425   7.295   8.831
 3081POPC   D2A40696   9.228   7.327   8.400
 3081POPC   C3A40697   9.598   7.259   8.175
 3081POPC   C4A40698   9.752   7.175   7.773
 3081POPC   C1B40699  10.145   7.462   8.962
 3081POPC   C2B40700   9.977   7.334   8.551
 3081POPC   C3B40701  10.012   7.575   8.170
 3081POPC   C4B40702  10.152   7.520   7.726
 3082POPC   NC340703  12.897  21.542   9.743
 3082POPC   PO440704  13.478  21.829   9.576
 3082POPC   GL140705  13.180  21.564   9.237
 3082POPC   GL240706  12.799  21.471   9.231
 3082POPC   C1A40707  13.114  21.265   8.842
 3082POPC   D2A40708  13.188  21.370   8.387
 3082POPC   C3A40709  12.986  21.298   7.974
 3082POPC   C4A40710  12.892  21.579   7.610
 3082POPC   C1B40711  12.598  21.315   8.822
 3082POPC   C2B40712  12.646  21.323   8.356
 3082POPC   C3B40713  12.515  21.442   7.925
 3082POPC   C4B40714  12.419  21.256   7.512
 3083POPC   NC340715  35.897   3.375   9.442
 3083POPC   PO440716  36.243   4.054   9.530
 3083POPC   GL140717  36.210   3.725   9.222
 3083POPC   GL240718  35.877   3.779   9.122
 3083POPC   C1A40719  36.215   3.478   8.817
 3083POPC   D2A40720  36.411   3.422   8.415
 3083POPC   C3A40721  36.201   3.589   8.047
 3083POPC   C4A40722  35.976   3.546   7.694
 3083POPC   C1B40723  35.942   3.908   8.750
 3083POPC   C2B40724  35.821   3.723   8.390
 3083POPC   C3B40725  35.799   3.912   7.998
 3083POPC   C4B40726  35.986   4.036   7.618
 3084POPC   NC340727  17.876  44.006   9.425
 3084POPC   PO440728  17.191  43.872   9.428
 3084POPC   GL140729  17.472  43.793   9.117
 3084POPC   GL240730  17.699  43.529   9.196
 3084POPC   C1A40731  17.386  43.875   8.684
 3084POPC   D2A40732  17.402  44.038   8.263
 3084POPC   C3A40733  17.320  43.703   7.977
 3084POPC   C4A40734  17.436  43.694   7.571
 3084POPC   C1B40735  17.871  43.712   8.790
 3084POPC   C2B40736  17.859  43.803   8.315
 3084POPC   C3B40737  17.812  43.573   7.888
 3084POPC   C4B40738  17.705  43.298   7.447
 3085POPC   NC340739  32.683   4.878   9.485
 3085POPC   PO440740  32.137   5.246   9.475
 3085POPC   GL140741  32.256   5.012   9.118
 3085POPC   GL240742  32.083   4.724   9.009
 3085POPC   C1A40743  32.315   5.253   8.750
 3085POPC   D2A40744  32.057   5.467   8.447
 3085POPC   C3A40745  32.176   5.460   7.988
 3085POPC   C4A40746  32.065   5.254   7.559
 3085POPC   C1B40747  32.197   4.762   8.590
 3085POPC   C2B40748  32.363   5.052   8.270
 3085POPC   C3B40749  32.441   5.015   7.835
 3085POPC   C4B40750  32.365   4.856   7.429
 3086POPC   NC340751  15.050  14.710   9.505
 3086POPC   PO440752  15.312  14.188   9.778
 3086POPC   GL140753  15.298  14.252   9.296
 3086POPC   GL240754  14.961  14.308   9.168
 3086POPC   C1A40755  15.281  14.195   8.814
 3086POPC   D2A40756  15.036  14.257   8.463
 3086POPC   C3A40757  15.239  14.149   8.091
 3086POPC   C4A40758  15.382  14.284   7.705
 3086POPC   C1B40759  14.895  14.612   8.834
 3086POPC   C2B40760  15.051  14.768   8.453
 3086POPC   C3B40761  15.000  14.632   8.054
 3086POPC   C4B40762  15.185  14.745   7.651
 3087POPC   NC340763   3.745  41.863   9.456
 3087POPC   PO440764   3.084  41.645   9.425
 3087POPC   GL140765   3.421  41.528   9.144
 3087POPC   GL240766   3.783  41.445   9.154
 3087POPC   C1A40767   3.499  41.645   8.729
 3087POPC   D2A40768   3.280  41.553   8.386
 3087POPC   C3A40769   3.338  41.724   7.996
 3087POPC   C4A40770   3.277  41.534   7.592
 3087POPC   C1B40771   3.625  41.160   8.808
 3087POPC   C2B40772   3.629  41.054   8.357
 3087POPC   C3B40773   3.702  41.358   8.050
 3087POPC   C4B40774   3.880  41.248   7.678
 3088POPC   NC340775  20.210  19.553   9.404
 3088POPC   PO440776  19.961  18.915   9.443
 3088POPC   GL140777  19.859  19.155   9.138
 3088POPC   GL240778  19.575  18.991   9.059
 3088POPC   C1A40779  20.037  19.084   8.751
 3088POPC   D2A40780  19.903  19.203   8.383
 3088POPC   C3A40781  20.098  19.122   7.969
 3088POPC   C4A40782  19.969  19.106   7.521
 3088POPC   C1B40783  19.493  19.258   8.767
 3088POPC   C2B40784  19.365  19.177   8.380
 3088POPC   C3B40785  19.580  19.084   8.013
 3088POPC   C4B40786  19.500  18.960   7.632
 3089POPC   NC340787  40.688  17.447   9.451
 3089POPC   PO440788  41.263  17.030   9.239
 3089POPC   GL140789  41.003  17.375   9.054
 3089POPC   GL240790  41.016  17.734   9.189
 3089POPC   C1A40791  40.616  17.468   8.796
 3089POPC   D2A40792  40.494  17.255   8.429
 3089POPC   C3A40793  40.844  17.155   8.179
 3089POPC   C4A40794  40.855  17.270   7.762
 3089POPC   C1B40795  41.047  17.782   8.729
 3089POPC   C2B40796  40.797  17.672   8.356
 3089POPC   C3B40797  40.534  17.623   8.002
 3089POPC   C4B40798  40.862  17.759   7.790
 3090POPC   NC340799  17.811  10.200   9.705
 3090POPC   PO440800  17.437   9.695   9.743
 3090POPC   GL140801  17.491   9.728   9.267
 3090POPC   GL240802  17.221   9.923   9.088
 3090POPC   C1A40803  17.628   9.654   8.820
 3090POPC   D2A40804  17.378   9.489   8.465
 3090POPC   C3A40805  17.525   9.294   8.113
 3090POPC   C4A40806  17.285   9.338   7.735
 3090POPC   C1B40807  17.415  10.097   8.693
 3090POPC   C2B40808  17.667   9.882   8.352
 3090POPC   C3B40809  17.565   9.828   7.949
 3090POPC   C4B40810  17.157   9.799   7.862
 3091POPC   NC340811  13.937  26.741   9.505
 3091POPC   PO440812  13.300  26.593   9.746
 3091POPC   GL140813  13.448  26.629   9.285
 3091POPC   GL240814  13.516  26.954   9.199
 3091POPC   C1A40815  13.376  26.649   8.795
 3091POPC   D2A40816  13.481  26.500   8.334
 3091POPC   C3A40817  13.783  26.551   7.932
 3091POPC   C4A40818  13.447  26.647   7.580
 3091POPC   C1B40819  13.816  26.874   8.843
 3091POPC   C2B40820  13.733  26.946   8.407
 3091POPC   C3B40821  13.490  26.926   8.012
 3091POPC   C4B40822  13.831  26.978   7.668
 3092POPC   NC340823  39.433  37.726   9.792
 3092POPC   PO440824  38.950  37.358   9.457
 3092POPC   GL140825  39.020  37.481   9.059
 3092POPC   GL240826  39.086  37.816   9.208
 3092POPC   C1A40827  39.306  37.387   8.721
 3092POPC   D2A40828  39.558  37.276   8.372
 3092POPC   C3A40829  39.317  37.398   7.995
 3092POPC   C4A40830  39.276  37.832   7.838
 3092POPC   C1B40831  39.237  37.882   8.796
 3092POPC   C2B40832  39.167  37.720   8.370
 3092POPC   C3B40833  38.853  37.961   8.151
 3092POPC   C4B40834  38.806  38.072   7.762
 3093POPC   NC340835  22.050  44.987   9.536
 3093POPC   PO440836  22.237   0.526   9.792
 3093POPC   GL140837  22.259   0.446   9.311
 3093POPC   GL240838  22.403   0.135   9.207
 3093POPC   C1A40839  22.197   0.581   8.881
 3093POPC   D2A40840  22.160   0.469   8.453
 3093POPC   C3A40841  22.308   0.734   8.109
 3093POPC   C4A40842  22.164   0.538   7.731
 3093POPC   C1B40843  22.454  44.957   8.814
 3093POPC   C2B40844  22.583   0.148   8.440
 3093POPC   C3B40845  22.425   0.205   8.043
 3093POPC   C4B40846  22.431   0.102   7.615
 3094POPC   NC340847  13.910  31.710   9.462
 3094POPC   PO440848  13.457  31.182   9.468
 3094POPC   GL140849  13.511  31.357   9.077
 3094POPC   GL240850  13.446  31.704   9.027
 3094POPC   C1A40851  13.777  31.361   8.734
 3094POPC   D2A40852  13.950  31.205   8.359
 3094POPC   C3A40853  13.690  31.232   7.978
 3094POPC   C4A40854  13.725  31.560   7.670
 3094POPC   C1B40855  13.556  31.834   8.653
 3094POPC   C2B40856  13.644  31.628   8.302
 3094POPC   C3B40857  13.345  31.625   8.014
 3094POPC   C4B40858  13.365  31.917   7.654
 3095POPC   NC340859   6.994   9.895   9.442
 3095POPC   PO440860   6.386   9.555   9.319
 3095POPC   GL140861   6.706   9.718   9.074
 3095POPC   GL240862   6.987   9.487   9.127
 3095POPC   C1A40863   6.767   9.986   8.743
 3095POPC   D2A40864   6.575   9.929   8.368
 3095POPC   C3A40865   6.756  10.048   7.996
 3095POPC   C4A40866   6.392   9.889   7.749
 3095POPC   C1B40867   6.931   9.444   8.682
 3095POPC   C2B40868   6.985   9.647   8.281
 3095POPC   C3B40869   6.828   9.561   7.869
 3095POPC   C4B40870   6.603   9.183   7.821
 3096POPC   NC340871  12.087   0.251   9.543
 3096POPC   PO440872  11.775   0.825   9.438
 3096POPC   GL140873  11.744   0.434   9.188
 3096POPC   GL240874  11.735   0.049   9.214
 3096POPC   C1A40875  12.012   0.278   8.850
 3096POPC   D2A40876  11.910   0.284   8.423
 3096POPC   C3A40877  12.105   0.260   8.016
 3096POPC   C4A40878  12.358   0.610   7.835
 3096POPC   C1B40879  11.717  44.865   8.767
 3096POPC   C2B40880  11.820  44.803   8.295
 3096POPC   C3B40881  11.712  44.951   7.853
 3096POPC   C4B40882  11.689   0.047   7.374
 3097POPC   NC340883   5.043  26.007   9.540
 3097POPC   PO440884   5.468  26.479   9.392
 3097POPC   GL140885   5.160  26.271   9.108
 3097POPC   GL240886   5.205  25.889   9.072
 3097POPC   C1A40887   4.855  26.302   8.754
 3097POPC   D2A40888   4.677  26.467   8.348
 3097POPC   C3A40889   4.802  26.305   7.909
 3097POPC   C4A40890   5.078  26.385   7.555
 3097POPC   C1B40891   5.023  25.808   8.679
 3097POPC   C2B40892   4.850  25.941   8.277
 3097POPC   C3B40893   4.899  25.788   7.843
 3097POPC   C4B40894   5.212  25.885   7.499
 3098POPC   NC340895  40.985   4.719   9.535
 3098POPC   PO440896  40.607   4.250   9.654
 3098POPC   GL140897  40.765   4.423   9.213
 3098POPC   GL240898  40.464   4.390   9.140
 3098POPC   C1A40899  40.880   4.294   8.797
 3098POPC   D2A40900  40.554   4.191   8.499
 3098POPC   C3A40901  40.673   4.123   8.068
 3098POPC   C4A40902  41.006   4.034   7.770
 3098POPC   C1B40903  40.529   4.670   8.780
 3098POPC   C2B40904  40.556   4.698   8.333
 3098POPC   C3B40905  40.637   4.618   7.902
 3098POPC   C4B40906  41.075   4.530   7.892
 3099POPC   NC340907  18.021  25.101   9.578
 3099POPC   PO440908  18.468  25.561   9.432
 3099POPC   GL140909  18.306  25.218   9.191
 3099POPC   GL240910  18.037  25.450   9.170
 3099POPC   C1A40911  18.151  24.981   8.836
 3099POPC   D2A40912  18.203  25.175   8.450
 3099POPC   C3A40913  18.045  25.026   8.103
 3099POPC   C4A40914  18.199  25.145   7.731
 3099POPC   C1B40915  18.250  25.554   8.810
 3099POPC   C2B40916  18.381  25.651   8.428
 3099POPC   C3B40917  18.317  25.576   8.005
 3099POPC   C4B40918  18.707  25.636   7.784
 3100POPC   NC340919   5.791  11.382   9.569
 3100POPC   PO440920   5.481  10.815   9.441
 3100POPC   GL140921   5.725  11.072   9.154
 3100POPC   GL240922   5.756  11.481   9.068
 3100POPC   C1A40923   5.890  11.124   8.751
 3100POPC   D2A40924   6.124  11.182   8.392
 3100POPC   C3A40925   5.840  11.236   8.057
 3100POPC   C4A40926   5.830  11.001   7.710
 3100POPC   C1B40927   5.977  11.813   8.778
 3100POPC   C2B40928   6.226  11.896   8.376
 3100POPC   C3B40929   6.300  11.548   8.072
 3100POPC   C4B40930   6.085  11.480   7.658
 3101POPC   NC340931   0.667  21.693   9.522
 3101POPC   PO440932   0.067  21.497   9.721
 3101POPC   GL140933   0.252  21.504   9.305
 3101POPC   GL240934   0.469  21.210   9.257
 3101POPC   C1A40935   0.493  21.526   8.879
 3101POPC   D2A40936   0.547  21.327   8.465
 3101POPC   C3A40937   0.441  21.639   8.148
 3101POPC   C4A40938   0.571  21.620   7.728
 3101POPC   C1B40939   0.249  21.072   8.825
 3101POPC   C2B40940   0.108  21.019   8.349
 3101POPC   C3B40941   0.093  21.315   7.954
 3101POPC   C4B40942   0.254  21.288   7.507
 3102POPC   NC340943  19.243  20.661   9.495
 3102POPC   PO440944  18.754  20.185   9.363
 3102POPC   GL140945  18.946  20.479   9.126
 3102POPC   GL240946  18.649  20.674   9.118
 3102POPC   C1A40947  19.101  20.672   8.742
 3102POPC   D2A40948  19.280  20.517   8.348
 3102POPC   C3A40949  19.077  20.664   7.999
 3102POPC   C4A40950  19.119  20.443   7.651
 3102POPC   C1B40951  18.620  20.374   8.754
 3102POPC   C2B40952  18.743  20.474   8.356
 3102POPC   C3B40953  18.713  20.307   7.965
 3102POPC   C4B40954  18.628  20.558   7.649
 3103POPC   NC340955   8.568   9.980   9.622
 3103POPC   PO440956   8.901   9.459   9.583
 3103POPC   GL140957   9.087   9.719   9.257
 3103POPC   GL240958   8.962  10.058   9.274
 3103POPC   C1A40959   9.131   9.661   8.810
 3103POPC   D2A40960   8.801   9.541   8.516
 3103POPC   C3A40961   8.747   9.749   8.133
 3103POPC   C4A40962   8.804   9.691   7.723
 3103POPC   C1B40963   9.026  10.159   8.815
 3103POPC   C2B40964   9.146   9.987   8.390
 3103POPC   C3B40965   9.222   9.929   7.920
 3103POPC   C4B40966   9.203   9.784   7.436
 3104POPC   NC340967  34.584  40.528   9.442
 3104POPC   PO440968  34.099  40.913   9.452
 3104POPC   GL140969  34.280  40.752   9.089
 3104POPC   GL240970  34.615  40.914   9.085
 3104POPC   C1A40971  34.339  40.810   8.653
 3104POPC   D2A40972  34.653  41.045   8.411
 3104POPC   C3A40973  34.706  40.941   7.981
 3104POPC   C4A40974  34.385  41.099   7.767
 3104POPC   C1B40975  34.840  40.714   8.761
 3104POPC   C2B40976  34.934  40.608   8.302
 3104POPC   C3B40977  34.983  40.502   7.823
 3104POPC   C4B40978  34.880  40.435   7.342
 3105POPC   NC340979  15.725   9.072   9.749
 3105POPC   PO440980  16.218   8.964   9.437
 3105POPC   GL140981  15.970   8.964   9.060
 3105POPC   GL240982  15.651   9.164   9.066
 3105POPC   C1A40983  16.161   8.901   8.643
 3105POPC   D2A40984  16.194   8.741   8.219
 3105POPC   C3A40985  16.068   8.823   7.801
 3105POPC   C4A40986  16.229   8.644   7.368
 3105POPC   C1B40987  15.853   9.319   8.681
 3105POPC   C2B40988  15.886   9.156   8.251
 3105POPC   C3B40989  15.925   9.305   7.832
 3105POPC   C4B40990  16.284   9.552   7.718
 3106POPC   NC340991  35.620   1.052   9.373
 3106POPC   PO440992  35.119   1.465   9.493
 3106POPC   GL140993  35.266   1.489   9.102
 3106POPC   GL240994  34.883   1.603   9.059
 3106POPC   C1A40995  35.409   1.181   8.753
 3106POPC   D2A40996  35.135   0.961   8.448
 3106POPC   C3A40997  35.266   1.095   8.049
 3106POPC   C4A40998  35.339   0.866   7.675
 3106POPC   C1B40999  34.927   1.338   8.751
 3106POPC   C2B41000  35.138   1.475   8.399
 3106POPC   C3B41001  35.021   1.561   7.985
 3106POPC   C4B41002  35.134   1.353   7.614
 3107POPC   NC341003  36.443   4.497   9.461
 3107POPC   PO441004  35.782   4.603   9.389
 3107POPC   GL141005  36.116   4.517   9.069
 3107POPC   GL241006  36.165   4.215   9.083
 3107POPC   C1A41007  36.242   4.387   8.638
 3107POPC   D2A41008  35.895   4.237   8.356
 3107POPC   C3A41009  35.821   4.412   7.907
 3107POPC   C4A41010  35.881   4.488   7.422
 3107POPC   C1B41011  36.455   3.959   8.822
 3107POPC   C2B41012  36.319   3.929   8.405
 3107POPC   C3B41013  36.294   4.134   8.024
 3107POPC   C4B41014  36.464   3.896   7.691
 3108POPC   NC341015  34.351  20.677   9.807
 3108POPC   PO441016  33.883  20.446   9.376
 3108POPC   GL141017  33.799  20.728   9.085
 3108POPC   GL241018  33.569  20.487   8.947
 3108POPC   C1A41019  33.975  20.911   8.743
 3108POPC   D2A41020  34.138  20.755   8.360
 3108POPC   C3A41021  33.817  20.848   8.093
 3108POPC   C4A41022  33.812  20.675   7.715
 3108POPC   C1B41023  33.673  20.535   8.504
 3108POPC   C2B41024  33.683  20.335   8.097
 3108POPC   C3B41025  33.502  20.294   7.687
 3108POPC   C4B41026  33.231  20.219   7.283
 3109POPC   NC341027  27.597   1.205   9.625
 3109POPC   PO441028  27.000   1.480   9.451
 3109POPC   GL141029  27.393   1.284   9.150
 3109POPC   GL241030  27.823   1.216   9.160
 3109POPC   C1A41031  27.595   1.314   8.724
 3109POPC   D2A41032  27.787   1.211   8.321
 3109POPC   C3A41033  27.574   1.223   7.925
 3109POPC   C4A41034  27.350   1.565   7.705
 3109POPC   C1B41035  28.037   1.035   8.753
 3109POPC   C2B41036  28.230   0.955   8.341
 3109POPC   C3B41037  28.071   1.076   7.921
 3109POPC   C4B41038  27.960   1.436   7.648
 3110POPC   NC341039  20.045  37.092   9.569
 3110POPC   PO441040  19.764  37.750   9.408
 3110POPC   GL141041  19.930  37.659   9.051
 3110POPC   GL241042  20.176  37.423   9.177
 3110POPC   C1A41043  19.706  37.569   8.667
 3110POPC   D2A41044  19.732  37.370   8.272
 3110POPC   C3A41045  19.648  37.665   7.935
 3110POPC   C4A41046  19.779  38.124   7.817
 3110POPC   C1B41047  20.164  37.321   8.742
 3110POPC   C2B41048  20.246  37.530   8.358
 3110POPC   C3B41049  20.215  37.797   8.035
 3110POPC   C4B41050  20.071  37.729   7.664
 3111POPC   NC341051   2.514  31.332   9.483
 3111POPC   PO441052   3.177  31.492   9.389
 3111POPC   GL141053   2.978  31.684   9.053
 3111POPC   GL241054   2.760  31.914   9.229
 3111POPC   C1A41055   2.835  31.410   8.703
 3111POPC   D2A41056   2.744  31.349   8.261
 3111POPC   C3A41057   3.076  31.266   7.957
 3111POPC   C4A41058   3.046  31.316   7.483
 3111POPC   C1B41059   2.485  31.714   8.924
 3111POPC   C2B41060   2.431  31.703   8.507
 3111POPC   C3B41061   2.518  31.802   8.103
 3111POPC   C4B41062   2.688  31.560   7.781
 3112POPC   NC341063  24.027  34.994   9.411
 3112POPC   PO441064  24.103  34.352   9.396
 3112POPC   GL141065  24.370  34.464   9.053
 3112POPC   GL241066  24.454  34.793   9.146
 3112POPC   C1A41067  24.244  34.671   8.683
 3112POPC   D2A41068  24.170  34.908   8.350
 3112POPC   C3A41069  24.419  34.669   8.134
 3112POPC   C4A41070  24.436  34.520   7.739
 3112POPC   C1B41071  24.871  34.798   8.905
 3112POPC   C2B41072  24.969  34.756   8.431
 3112POPC   C3B41073  24.894  34.762   7.949
 3112POPC   C4B41074  24.967  34.505   7.589
 3113POPC   NC341075  43.348  25.395   9.435
 3113POPC   PO441076  42.875  24.917   9.483
 3113POPC   GL141077  43.043  25.122   9.119
 3113POPC   GL241078  42.901  25.448   9.212
 3113POPC   C1A41079  43.356  25.199   8.785
 3113POPC   D2A41080  43.412  25.548   8.494
 3113POPC   C3A41081  43.539  25.401   8.115
 3113POPC   C4A41082  43.435  25.056   7.857
 3113POPC   C1B41083  43.047  25.587   8.849
 3113POPC   C2B41084  42.927  25.354   8.500
 3113POPC   C3B41085  43.035  25.411   8.097
 3113POPC   C4B41086  42.932  25.223   7.760
 3114POPC   NC341087  20.974   7.818   9.483
 3114POPC   PO441088  20.649   8.414   9.581
 3114POPC   GL141089  20.625   8.284   9.144
 3114POPC   GL241090  20.936   8.115   9.054
 3114POPC   C1A41091  20.411   8.165   8.748
 3114POPC   D2A41092  20.538   8.087   8.338
 3114POPC   C3A41093  20.292   8.020   7.992
 3114POPC   C4A41094  20.399   8.118   7.581
 3114POPC   C1B41095  20.899   8.314   8.665
 3114POPC   C2B41096  21.013   8.235   8.257
 3114POPC   C3B41097  20.840   8.159   7.878
 3114POPC   C4B41098  20.889   8.274   7.428
 3115POPC   NC341099  12.791  43.865   9.637
 3115POPC   PO441100  12.395  43.696   9.180
 3115POPC   GL141101  12.885  43.688   9.148
 3115POPC   GL241102  13.094  43.983   9.207
 3115POPC   C1A41103  13.259  43.651   8.850
 3115POPC   D2A41104  13.136  43.642   8.402
 3115POPC   C3A41105  12.931  43.875   8.054
 3115POPC   C4A41106  13.010  43.688   7.669
 3115POPC   C1B41107  12.971  44.069   8.760
 3115POPC   C2B41108  12.633  43.950   8.460
 3115POPC   C3B41109  12.455  43.659   8.143
 3115POPC   C4B41110  12.514  43.759   7.731
 3116POPC   NC341111  18.557  21.387   9.552
 3116POPC   PO441112  17.876  21.249   9.413
 3116POPC   GL141113  18.219  21.469   9.187
 3116POPC   GL241114  18.407  21.155   9.119
 3116POPC   C1A41115  18.514  21.520   8.811
 3116POPC   D2A41116  18.573  21.733   8.418
 3116POPC   C3A41117  18.540  21.515   7.986
 3116POPC   C4A41118  18.372  21.614   7.560
 3116POPC   C1B41119  18.076  21.227   8.765
 3116POPC   C2B41120  18.125  21.435   8.353
 3116POPC   C3B41121  18.013  21.495   7.911
 3116POPC   C4B41122  18.027  21.241   7.516
 3117POPC   NC341123  16.828  14.071   9.718
 3117POPC   PO441124  17.108  14.623   9.498
 3117POPC   GL141125  16.860  14.465   9.169
 3117POPC   GL241126  16.663  14.127   9.175
 3117POPC   C1A41127  16.831  14.707   8.788
 3117POPC   D2A41128  16.988  14.809   8.390
 3117POPC   C3A41129  16.922  14.423   8.182
 3117POPC   C4A41130  16.802  14.329   7.776
 3117POPC   C1B41131  16.398  14.451   8.914
 3117POPC   C2B41132  16.411  14.575   8.474
 3117POPC   C3B41133  16.360  14.334   8.069
 3117POPC   C4B41134  16.328  14.113   7.669
 3118POPC   NC341135   7.592  26.429   9.401
 3118POPC   PO441136   7.681  27.154   9.523
 3118POPC   GL141137   7.524  26.955   9.162
 3118POPC   GL241138   7.664  26.666   8.958
 3118POPC   C1A41139   7.370  27.057   8.775
 3118POPC   D2A41140   7.437  26.862   8.399
 3118POPC   C3A41141   7.426  27.112   8.048
 3118POPC   C4A41142   7.201  27.144   7.668
 3118POPC   C1B41143   7.839  26.380   8.638
 3118POPC   C2B41144   7.988  26.266   8.246
 3118POPC   C3B41145   7.853  26.445   7.844
 3118POPC   C4B41146   7.563  26.773   7.678
 3119POPC   NC341147   2.036   6.217   9.499
 3119POPC   PO441148   2.336   6.770   9.580
 3119POPC   GL141149   2.349   6.885   9.195
 3119POPC   GL241150   2.080   6.621   9.128
 3119POPC   C1A41151   2.214   6.993   8.794
 3119POPC   D2A41152   2.169   6.659   8.507
 3119POPC   C3A41153   2.272   6.626   8.073
 3119POPC   C4A41154   2.101   6.755   7.666
 3119POPC   C1B41155   1.839   6.390   8.814
 3119POPC   C2B41156   1.689   6.440   8.395
 3119POPC   C3B41157   1.532   6.288   8.028
 3119POPC   C4B41158   1.671   6.494   7.688
 3120POPC   NC341159  37.609  28.029   9.521
 3120POPC   PO441160  37.788  27.381   9.520
 3120POPC   GL141161  37.663  27.601   9.187
 3120POPC   GL241162  37.627  27.309   9.008
 3120POPC   C1A41163  37.784  27.764   8.787
 3120POPC   D2A41164  37.575  27.827   8.375
 3120POPC   C3A41165  37.628  27.822   7.907
 3120POPC   C4A41166  37.947  27.922   7.626
 3120POPC   C1B41167  37.594  27.341   8.592
 3120POPC   C2B41168  37.669  27.321   8.206
 3120POPC   C3B41169  38.021  27.105   7.979
 3120POPC   C4B41170  37.724  27.265   7.705
 3121POPC   NC341171  13.480  43.312   9.471
 3121POPC   PO441172  13.730  42.717   9.500
 3121POPC   GL141173  13.615  42.913   9.145
 3121POPC   GL241174  13.929  42.863   9.003
 3121POPC   C1A41175  13.713  43.291   8.862
 3121POPC   D2A41176  13.519  43.329   8.500
 3121POPC   C3A41177  13.653  43.297   8.094
 3121POPC   C4A41178  13.386  43.239   7.746
 3121POPC   C1B41179  13.650  42.828   8.630
 3121POPC   C2B41180  13.598  42.809   8.195
 3121POPC   C3B41181  13.615  42.742   7.755
 3121POPC   C4B41182  13.856  42.724   7.350
 3122POPC   NC341183  27.394   7.527   5.464
 3122POPC   PO441184  28.028   7.137   5.487
 3122POPC   GL141185  27.649   7.168   5.797
 3122POPC   GL241186  27.681   7.513   5.907
 3122POPC   C1A41187  27.442   7.201   6.265
 3122POPC   D2A41188  27.435   7.540   6.624
 3122POPC   C3A41189  27.186   7.509   7.003
 3122POPC   C4A41190  27.404   7.194   7.230
 3122POPC   C1B41191  27.964   7.258   6.186
 3122POPC   C2B41192  27.968   7.122   6.622
 3122POPC   C3B41193  27.832   7.375   6.961
 3122POPC   C4B41194  27.603   7.677   7.199
 3123POPC   NC341195  32.988   9.032   5.497
 3123POPC   PO441196  32.858   9.600   5.046
 3123POPC   GL141197  33.177   9.469   5.601
 3123POPC   GL241198  32.918   9.360   5.903
 3123POPC   C1A41199  33.296   9.114   6.061
 3123POPC   D2A41200  33.057   8.735   6.333
 3123POPC   C3A41201  33.039   8.646   6.815
 3123POPC   C4A41202  33.128   8.797   7.224
 3123POPC   C1B41203  32.809   9.209   6.285
 3123POPC   C2B41204  32.795   9.061   6.692
 3123POPC   C3B41205  32.918   9.231   7.080
 3123POPC   C4B41206  32.830   9.153   7.493
 3124POPC   NC341207  23.420   0.965   5.540
 3124POPC   PO441208  23.903   1.352   5.187
 3124POPC   GL141209  23.852   1.328   5.673
 3124POPC   GL241210  23.564   1.272   5.894
 3124POPC   C1A41211  23.990   1.385   6.129
 3124POPC   D2A41212  24.197   1.386   6.549
 3124POPC   C3A41213  23.987   1.424   6.948
 3124POPC   C4A41214  23.859   1.083   7.231
 3124POPC   C1B41215  23.277   1.204   6.216
 3124POPC   C2B41216  23.265   1.357   6.623
 3124POPC   C3B41217  23.442   1.181   6.978
 3124POPC   C4B41218  23.322   1.083   7.406
 3125POPC   NC341219  14.041  24.522   5.583
 3125POPC   PO441220  14.547  24.577   5.288
 3125POPC   GL141221  14.567  24.586   5.763
 3125POPC   GL241222  14.329  24.789   5.964
 3125POPC   C1A41223  14.606  24.404   6.229
 3125POPC   D2A41224  14.659  24.311   6.723
 3125POPC   C3A41225  14.607  24.418   7.200
 3125POPC   C4A41226  14.622  24.381   7.679
 3125POPC   C1B41227  14.186  24.654   6.396
 3125POPC   C2B41228  14.308  24.717   6.846
 3125POPC   C3B41229  14.291  24.859   7.272
 3125POPC   C4B41230  14.139  24.623   7.631
 3126POPC   NC341231  25.864  10.587   5.555
 3126POPC   PO441232  26.494  10.440   5.273
 3126POPC   GL141233  26.265  10.261   5.762
 3126POPC   GL241234  26.025  10.475   6.006
 3126POPC   C1A41235  26.369  10.252   6.278
 3126POPC   D2A41236  26.576  10.250   6.722
 3126POPC   C3A41237  26.355  10.504   7.062
 3126POPC   C4A41238  26.186  10.479   7.509
 3126POPC   C1B41239  25.768  10.547   6.348
 3126POPC   C2B41240  25.845  10.454   6.776
 3126POPC   C3B41241  25.783  10.453   7.227
 3126POPC   C4B41242  25.755  10.792   7.490
 3127POPC   NC341243  22.614  20.647   5.060
 3127POPC   PO441244  23.176  20.732   5.343
 3127POPC   GL141245  22.927  20.617   5.725
 3127POPC   GL241246  22.766  20.306   5.838
 3127POPC   C1A41247  22.821  20.795   6.131
 3127POPC   D2A41248  23.068  20.945   6.493
 3127POPC   C3A41249  23.016  20.785   6.876
 3127POPC   C4A41250  22.891  20.935   7.277
 3127POPC   C1B41251  23.028  20.332   6.191
 3127POPC   C2B41252  22.866  20.338   6.625
 3127POPC   C3B41253  22.767  20.399   7.076
 3127POPC   C4B41254  23.131  20.481   7.338
 3128POPC   NC341255  36.072  32.469   5.373
 3128POPC   PO441256  35.636  31.978   5.584
 3128POPC   GL141257  35.932  32.254   5.821
 3128POPC   GL241258  36.048  32.627   5.845
 3128POPC   C1A41259  36.125  32.146   6.189
 3128POPC   D2A41260  35.845  32.041   6.502
 3128POPC   C3A41261  36.053  31.938   6.830
 3128POPC   C4A41262  36.058  31.997   7.242
 3128POPC   C1B41263  36.243  32.654   6.223
 3128POPC   C2B41264  36.181  32.458   6.622
 3128POPC   C3B41265  35.963  32.424   6.987
 3128POPC   C4B41266  35.946  32.504   7.413
 3129POPC   NC341267  13.388  34.599   5.631
 3129POPC   PO441268  13.997  34.337   5.426
 3129POPC   GL141269  13.736  34.298   5.895
 3129POPC   GL241270  13.336  34.315   6.058
 3129POPC   C1A41271  13.728  34.444   6.346
 3129POPC   D2A41272  13.879  34.631   6.721
 3129POPC   C3A41273  13.753  34.430   7.083
 3129POPC   C4A41274  13.772  34.616   7.471
 3129POPC   C1B41275  13.238  34.272   6.479
 3129POPC   C2B41276  13.342  34.602   6.762
 3129POPC   C3B41277  13.283  34.595   7.177
 3129POPC   C4B41278  13.278  34.697   7.572
 3130POPC   NC341279  31.144  11.907   5.486
 3130POPC   PO441280  31.696  12.251   5.410
 3130POPC   GL141281  31.582  11.978   5.739
 3130POPC   GL241282  31.295  12.161   5.887
 3130POPC   C1A41283  31.558  11.796   6.135
 3130POPC   D2A41284  31.418  11.689   6.538
 3130POPC   C3A41285  31.402  11.917   6.871
 3130POPC   C4A41286  31.379  11.840   7.296
 3130POPC   C1B41287  31.296  12.189   6.330
 3130POPC   C2B41288  30.994  12.166   6.621
 3130POPC   C3B41289  30.987  12.173   7.031
 3130POPC   C4B41290  31.368  12.324   7.186
 3131POPC   NC341291  37.066  22.558   5.682
 3131POPC   PO441292  36.648  22.059   5.272
 3131POPC   GL141293  36.599  22.273   5.676
 3131POPC   GL241294  36.765  22.025   5.853
 3131POPC   C1A41295  36.530  22.341   6.151
 3131POPC   D2A41296  36.710  22.350   6.582
 3131POPC   C3A41297  36.977  22.243   6.906
 3131POPC   C4A41298  36.791  22.373   7.301
 3131POPC   C1B41299  37.026  22.171   6.220
 3131POPC   C2B41300  37.329  22.012   6.516
 3131POPC   C3B41301  37.447  22.015   6.933
 3131POPC   C4B41302  37.413  21.806   7.285
 3132POPC   NC341303  20.468  20.033   5.602
 3132POPC   PO441304  20.108  19.411   5.536
 3132POPC   GL141305  20.348  19.649   5.892
 3132POPC   GL241306  20.717  19.717   5.949
 3132POPC   C1A41307  20.313  19.969   6.240
 3132POPC   D2A41308  20.559  20.023   6.614
 3132POPC   C3A41309  20.609  19.726   6.968
 3132POPC   C4A41310  20.687  20.092   7.208
 3132POPC   C1B41311  20.736  19.587   6.386
 3132POPC   C2B41312  21.045  19.701   6.720
 3132POPC   C3B41313  21.085  19.752   7.162
 3132POPC   C4B41314  21.032  19.914   7.574
 3133POPC   NC341315  22.014   6.869   5.463
 3133POPC   PO441316  22.260   6.259   5.270
 3133POPC   GL141317  22.322   6.458   5.697
 3133POPC   GL241318  21.978   6.517   5.838
 3133POPC   C1A41319  22.396   6.587   6.162
 3133POPC   D2A41320  22.435   6.430   6.620
 3133POPC   C3A41321  22.195   6.523   7.035
 3133POPC   C4A41322  22.262   6.800   7.407
 3133POPC   C1B41323  21.903   6.610   6.276
 3133POPC   C2B41324  21.999   6.815   6.664
 3133POPC   C3B41325  21.825   6.912   7.090
 3133POPC   C4B41326  21.770   6.926   7.572
 3134POPC   NC341327  35.187  16.427   5.445
 3134POPC   PO441328  35.276  15.699   5.387
 3134POPC   GL141329  35.429  15.964   5.684
 3134POPC   GL241330  35.111  16.068   5.838
 3134POPC   C1A41331  35.538  15.920   6.117
 3134POPC   D2A41332  35.336  15.921   6.494
 3134POPC   C3A41333  35.583  16.069   6.798
 3134POPC   C4A41334  35.523  15.996   7.201
 3134POPC   C1B41335  35.091  16.305   6.252
 3134POPC   C2B41336  35.189  16.391   6.729
 3134POPC   C3B41337  35.084  16.272   7.210
 3134POPC   C4B41338  35.079  16.243   7.725
 3135POPC   NC341339  10.308  27.018   5.290
 3135POPC   PO441340  10.750  26.511   5.405
 3135POPC   GL141341  10.380  26.692   5.708
 3135POPC   GL241342  10.194  27.052   5.782
 3135POPC   C1A41343  10.256  26.621   6.155
 3135POPC   D2A41344  10.450  26.401   6.532
 3135POPC   C3A41345  10.540  26.573   6.928
 3135POPC   C4A41346  10.452  26.773   7.316
 3135POPC   C1B41347  10.477  27.091   6.105
 3135POPC   C2B41348  10.488  26.925   6.524
 3135POPC   C3B41349  10.504  27.090   6.930
 3135POPC   C4B41350  10.181  27.207   7.263
 3136POPC   NC341351  39.516  18.727   5.138
 3136POPC   PO441352  39.891  19.311   5.347
 3136POPC   GL141353  39.861  19.115   5.772
 3136POPC   GL241354  39.534  19.247   5.743
 3136POPC   C1A41355  39.676  18.991   6.237
 3136POPC   D2A41356  39.672  18.928   6.703
 3136POPC   C3A41357  40.068  18.973   7.010
 3136POPC   C4A41358  40.446  19.006   7.312
 3136POPC   C1B41359  39.671  19.483   6.122
 3136POPC   C2B41360  39.787  19.440   6.567
 3136POPC   C3B41361  39.704  19.348   6.999
 3136POPC   C4B41362  39.582  18.967   7.205
 3137POPC   NC341363  20.329  29.103   5.433
 3137POPC   PO441364  20.887  29.360   5.742
 3137POPC   GL141365  20.485  29.301   5.894
 3137POPC   GL241366  20.555  28.977   5.891
 3137POPC   C1A41367  20.472  29.474   6.279
 3137POPC   D2A41368  20.739  29.387   6.623
 3137POPC   C3A41369  20.572  29.434   7.005
 3137POPC   C4A41370  20.184  29.613   7.129
 3137POPC   C1B41371  20.345  28.973   6.295
 3137POPC   C2B41372  20.462  28.943   6.697
 3137POPC   C3B41373  20.553  28.942   7.096
 3137POPC   C4B41374  20.149  29.091   7.174
 3138POPC   NC341375  16.053  18.938   5.586
 3138POPC   PO441376  15.384  18.788   5.453
 3138POPC   GL141377  15.637  18.828   5.874
 3138POPC   GL241378  15.679  19.200   5.939
 3138POPC   C1A41379  15.903  18.575   6.198
 3138POPC   D2A41380  15.863  18.430   6.627
 3138POPC   C3A41381  15.672  18.754   6.871
 3138POPC   C4A41382  15.820  19.013   7.211
 3138POPC   C1B41383  16.050  19.063   6.212
 3138POPC   C2B41384  16.288  18.843   6.528
 3138POPC   C3B41385  16.338  19.005   6.958
 3138POPC   C4B41386  16.203  19.350   7.248
 3139POPC   NC341387  37.692  12.783   5.434
 3139POPC   PO441388  37.944  13.453   5.408
 3139POPC   GL141389  37.796  13.209   5.791
 3139POPC   GL241390  37.557  12.914   5.895
 3139POPC   C1A41391  37.845  13.097   6.251
 3139POPC   D2A41392  37.822  12.773   6.584
 3139POPC   C3A41393  37.816  12.973   6.998
 3139POPC   C4A41394  37.476  13.177   7.229
 3139POPC   C1B41395  37.554  12.532   6.172
 3139POPC   C2B41396  37.434  12.357   6.582
 3139POPC   C3B41397  37.505  12.559   6.963
 3139POPC   C4B41398  37.448  12.310   7.298
 3140POPC   NC341399   9.178   8.408   5.452
 3140POPC   PO441400   8.892   7.771   5.432
 3140POPC   GL141401   9.050   7.942   5.883
 3140POPC   GL241402   8.990   8.277   5.898
 3140POPC   C1A41403   9.085   7.953   6.387
 3140POPC   D2A41404   8.817   7.987   6.763
 3140POPC   C3A41405   8.897   8.341   7.047
 3140POPC   C4A41406   9.152   8.226   7.383
 3140POPC   C1B41407   9.249   8.411   6.215
 3140POPC   C2B41408   9.143   8.467   6.632
 3140POPC   C3B41409   9.360   8.585   7.048
 3140POPC   C4B41410   9.450   8.612   7.535
 3141POPC   NC341411  42.237  31.703   5.037
 3141POPC   PO441412  42.690  31.270   5.368
 3141POPC   GL141413  42.534  31.505   5.721
 3141POPC   GL241414  42.491  31.207   5.960
 3141POPC   C1A41415  42.136  31.578   5.948
 3141POPC   D2A41416  42.140  31.335   6.348
 3141POPC   C3A41417  42.290  31.404   6.770
 3141POPC   C4A41418  42.050  31.224   7.098
 3141POPC   C1B41419  42.418  30.880   6.340
 3141POPC   C2B41420  42.554  30.957   6.795
 3141POPC   C3B41421  42.546  31.212   7.185
 3141POPC   C4B41422  42.250  31.128   7.548
 3142POPC   NC341423   0.605  21.097   5.377
 3142POPC   PO441424   0.055  21.530   5.494
 3142POPC   GL141425   0.289  21.289   5.773
 3142POPC   GL241426   0.620  21.426   5.779
 3142POPC   C1A41427   0.238  21.222   6.202
 3142POPC   D2A41428   0.364  21.455   6.551
 3142POPC   C3A41429   0.290  21.384   6.976
 3142POPC   C4A41430   0.301  21.737   7.260
 3142POPC   C1B41431   0.759  21.476   6.202
 3142POPC   C2B41432   0.858  21.268   6.591
 3142POPC   C3B41433   0.773  21.228   7.029
 3142POPC   C4B41434   0.812  21.568   7.292
 3143POPC   NC341435  37.858  40.568   5.471
 3143POPC   PO441436  37.338  40.947   5.432
 3143POPC   GL141437  37.530  40.793   5.814
 3143POPC   GL241438  37.519  40.434   5.809
 3143POPC   C1A41439  37.620  40.862   6.264
 3143POPC   D2A41440  37.609  40.855   6.722
 3143POPC   C3A41441  38.006  40.855   6.930
 3143POPC   C4A41442  37.850  40.932   7.292
 3143POPC   C1B41443  37.713  40.347   6.198
 3143POPC   C2B41444  37.832  40.352   6.624
 3143POPC   C3B41445  37.707  40.461   7.043
 3143POPC   C4B41446  37.686  40.466   7.457
 3144POPC   NC341447  41.084  17.299   5.484
 3144POPC   PO441448  40.745  17.744   5.053
 3144POPC   GL141449  40.824  17.700   5.619
 3144POPC   GL241450  40.654  17.483   5.833
 3144POPC   C1A41451  40.885  17.762   6.148
 3144POPC   D2A41452  40.710  17.620   6.551
 3144POPC   C3A41453  40.988  17.714   6.917
 3144POPC   C4A41454  40.961  17.580   7.326
 3144POPC   C1B41455  40.727  17.228   6.197
 3144POPC   C2B41456  40.445  17.050   6.486
 3144POPC   C3B41457  40.570  17.054   6.885
 3144POPC   C4B41458  40.686  17.102   7.316
 3145POPC   NC341459  32.579  33.379   5.501
 3145POPC   PO441460  33.038  32.881   5.444
 3145POPC   GL141461  33.190  32.770   5.837
 3145POPC   GL241462  33.136  33.102   5.928
 3145POPC   C1A41463  33.048  32.753   6.273
 3145POPC   D2A41464  32.703  32.927   6.529
 3145POPC   C3A41465  32.894  32.886   6.944
 3145POPC   C4A41466  32.819  32.842   7.384
 3145POPC   C1B41467  32.967  33.305   6.270
 3145POPC   C2B41468  32.933  33.361   6.704
 3145POPC   C3B41469  33.195  33.282   7.063
 3145POPC   C4B41470  33.235  33.180   7.468
 3146POPC   NC341471  10.902   7.217   5.583
 3146POPC   PO441472  11.551   7.325   5.696
 3146POPC   GL141473  11.329   7.286   6.020
 3146POPC   GL241474  11.081   7.499   5.976
 3146POPC   C1A41475  11.420   7.204   6.414
 3146POPC   D2A41476  11.657   7.271   6.760
 3146POPC   C3A41477  11.340   7.189   7.001
 3146POPC   C4A41478  11.337   7.084   7.417
 3146POPC   C1B41479  11.085   7.598   6.413
 3146POPC   C2B41480  10.920   7.464   6.810
 3146POPC   C3B41481  11.008   7.580   7.253
 3146POPC   C4B41482  11.020   7.408   7.656
 3147POPC   NC341483  39.141  25.826   5.057
 3147POPC   PO441484  39.531  25.935   5.632
 3147POPC   GL141485  39.197  26.004   5.890
 3147POPC   GL241486  39.076  25.675   5.812
 3147POPC   C1A41487  39.299  26.190   6.276
 3147POPC   D2A41488  39.382  25.994   6.694
 3147POPC   C3A41489  39.079  26.114   7.035
 3147POPC   C4A41490  39.002  26.080   7.487
 3147POPC   C1B41491  39.180  25.660   6.243
 3147POPC   C2B41492  39.011  25.478   6.580
 3147POPC   C3B41493  38.957  25.614   6.977
 3147POPC   C4B41494  39.061  25.588   7.397
 3148POPC   NC341495  35.676   5.039   5.534
 3148POPC   PO441496  35.131   5.398   5.405
 3148POPC   GL141497  35.191   5.051   5.729
 3148POPC   GL241498  35.360   5.274   5.922
 3148POPC   C1A41499  35.405   4.813   6.122
 3148POPC   D2A41500  35.499   4.665   6.544
 3148POPC   C3A41501  35.256   4.809   6.870
 3148POPC   C4A41502  35.445   4.874   7.259
 3148POPC   C1B41503  34.973   5.098   6.177
 3148POPC   C2B41504  35.001   5.175   6.611
 3148POPC   C3B41505  35.311   5.294   6.937
 3148POPC   C4B41506  35.062   5.245   7.265
 3149POPC   NC341507   3.905   7.950   5.401
 3149POPC   PO441508   3.367   8.223   5.394
 3149POPC   GL141509   3.215   8.341   5.794
 3149POPC   GL241510   3.461   8.087   5.885
 3149POPC   C1A41511   3.436   8.490   6.189
 3149POPC   D2A41512   3.609   8.425   6.601
 3149POPC   C3A41513   3.360   8.362   6.945
 3149POPC   C4A41514   3.499   8.465   7.350
 3149POPC   C1B41515   3.732   8.068   6.235
 3149POPC   C2B41516   3.579   7.930   6.636
 3149POPC   C3B41517   3.630   7.892   7.030
 3149POPC   C4B41518   3.447   7.928   7.393
 3150POPC   NC341519  36.160  21.956   5.231
 3150POPC   PO441520  35.606  22.264   5.323
 3150POPC   GL141521  35.897  22.150   5.730
 3150POPC   GL241522  36.220  21.902   5.749
 3150POPC   C1A41523  35.962  22.056   6.199
 3150POPC   D2A41524  35.851  21.857   6.611
 3150POPC   C3A41525  35.928  22.145   6.966
 3150POPC   C4A41526  35.717  22.105   7.366
 3150POPC   C1B41527  36.418  21.828   6.170
 3150POPC   C2B41528  36.342  21.986   6.571
 3150POPC   C3B41529  36.491  22.063   6.973
 3150POPC   C4B41530  36.450  21.979   7.394
 3151POPC   NC341531  34.841  29.857   5.507
 3151POPC   PO441532  34.167  29.973   5.390
 3151POPC   GL141533  34.390  29.765   5.744
 3151POPC   GL241534  34.467  30.093   5.807
 3151POPC   C1A41535  34.633  29.775   6.168
 3151POPC   D2A41536  34.495  29.897   6.594
 3151POPC   C3A41537  34.675  29.849   7.005
 3151POPC   C4A41538  34.483  29.707   7.432
 3151POPC   C1B41539  34.334  30.230   6.197
 3151POPC   C2B41540  34.621  30.408   6.489
 3151POPC   C3B41541  34.662  30.363   6.920
 3151POPC   C4B41542  34.601  30.217   7.359
 3152POPC   NC341543  33.572  38.160   5.646
 3152POPC   PO441544  34.081  38.624   5.413
 3152POPC   GL141545  33.838  38.571   5.821
 3152POPC   GL241546  33.945  38.882   5.858
 3152POPC   C1A41547  33.685  38.421   6.264
 3152POPC   D2A41548  33.764  38.176   6.644
 3152POPC   C3A41549  33.646  38.378   7.051
 3152POPC   C4A41550  33.626  38.194   7.451
 3152POPC   C1B41551  34.056  38.785   6.272
 3152POPC   C2B41552  33.854  38.728   6.680
 3152POPC   C3B41553  33.982  38.833   7.117
 3152POPC   C4B41554  33.956  38.558   7.498
 3153POPC   NC341555  44.681  18.725   5.380
 3153POPC   PO441556  44.429  19.364   5.455
 3153POPC   GL141557  44.667  19.123   5.804
 3153POPC   GL241558  44.709  18.759   5.877
 3153POPC   C1A41559  44.542  19.084   6.245
 3153POPC   D2A41560  44.304  18.831   6.541
 3153POPC   C3A41561  44.435  18.872   6.956
 3153POPC   C4A41562  44.761  19.128   7.158
 3153POPC   C1B41563  44.960  18.787   6.242
 3153POPC   C2B41564  44.943  18.941   6.685
 3153POPC   C3B41565   0.010  18.695   7.066
 3153POPC   C4B41566  44.778  18.712   7.470
 3154POPC   NC341567  19.471  43.244   5.568
 3154POPC   PO441568  18.944  42.762   5.649
 3154POPC   GL141569  18.753  43.083   5.947
 3154POPC   GL241570  18.913  43.414   5.926
 3154POPC   C1A41571  18.583  43.176   6.352
 3154POPC   D2A41572  18.730  43.321   6.761
 3154POPC   C3A41573  18.871  43.008   7.057
 3154POPC   C4A41574  19.026  42.991   7.470
 3154POPC   C1B41575  19.198  43.174   6.212
 3154POPC   C2B41576  19.373  43.238   6.604
 3154POPC   C3B41577  19.228  43.389   6.976
 3154POPC   C4B41578  19.404  43.277   7.352
 3155POPC   NC341579   3.058   2.784   5.479
 3155POPC   PO441580   2.417   2.501   5.500
 3155POPC   GL141581   2.422   2.691   5.875
 3155POPC   GL241582   2.675   2.955   5.790
 3155POPC   C1A41583   2.655   2.694   6.231
 3155POPC   D2A41584   2.748   2.921   6.587
 3155POPC   C3A41585   2.559   2.717   6.888
 3155POPC   C4A41586   2.623   2.594   7.282
 3155POPC   C1B41587   2.530   3.194   6.136
 3155POPC   C2B41588   2.302   3.233   6.497
 3155POPC   C3B41589   2.432   3.232   6.897
 3155POPC   C4B41590   2.798   3.110   7.170
 3156POPC   NC341591  15.789  12.979   5.467
 3156POPC   PO441592  16.337  12.540   5.394
 3156POPC   GL141593  16.045  12.602   5.734
 3156POPC   GL241594  15.672  12.509   5.692
 3156POPC   C1A41595  16.061  12.782   6.149
 3156POPC   D2A41596  15.964  12.904   6.553
 3156POPC   C3A41597  16.262  12.930   6.854
 3156POPC   C4A41598  16.113  12.846   7.265
 3156POPC   C1B41599  15.604  12.540   6.131
 3156POPC   C2B41600  15.738  12.429   6.540
 3156POPC   C3B41601  15.838  12.575   6.949
 3156POPC   C4B41602  15.700  12.483   7.391
 3157POPC   NC341603   6.899  27.147   5.475
 3157POPC   PO441604   6.814  27.706   5.185
 3157POPC   GL141605   6.738  27.641   5.665
 3157POPC   GL241606   6.377  27.504   5.716
 3157POPC   C1A41607   6.694  27.639   6.154
 3157POPC   D2A41608   6.549  27.920   6.519
 3157POPC   C3A41609   6.762  28.019   6.928
 3157POPC   C4A41610   6.796  27.965   7.397
 3157POPC   C1B41611   6.305  27.286   6.117
 3157POPC   C2B41612   6.426  27.272   6.526
 3157POPC   C3B41613   6.647  27.490   6.810
 3157POPC   C4B41614   6.476  27.658   7.181
 3158POPC   NC341615  29.050  43.825   5.378
 3158POPC   PO441616  29.266  44.342   5.691
 3158POPC   GL141617  29.269  43.992   5.872
 3158POPC   GL241618  29.489  43.746   5.701
 3158POPC   C1A41619  29.223  44.080   6.322
 3158POPC   D2A41620  29.350  44.111   6.737
 3158POPC   C3A41621  29.030  43.923   6.996
 3158POPC   C4A41622  28.958  43.682   7.369
 3158POPC   C1B41623  29.441  43.624   6.168
 3158POPC   C2B41624  29.272  43.617   6.604
 3158POPC   C3B41625  29.465  43.654   7.004
 3158POPC   C4B41626  29.635  43.383   7.260
 3159POPC   NC341627  15.636  35.849   5.316
 3159POPC   PO441628  16.055  36.245   5.551
 3159POPC   GL141629  16.005  36.064   5.947
 3159POPC   GL241630  15.916  35.718   5.862
 3159POPC   C1A41631  16.097  36.165   6.394
 3159POPC   D2A41632  16.365  36.210   6.764
 3159POPC   C3A41633  16.149  36.086   7.158
 3159POPC   C4A41634  15.806  36.211   7.448
 3159POPC   C1B41635  15.840  35.721   6.329
 3159POPC   C2B41636  15.798  35.814   6.785
 3159POPC   C3B41637  15.872  35.665   7.203
 3159POPC   C4B41638  15.958  35.301   7.471
 3160POPC   NC341639  22.591   3.332   5.366
 3160POPC   PO441640  21.888   3.596   5.388
 3160POPC   GL141641  21.990   3.678   5.817
 3160POPC   GL241642  21.838   3.994   5.948
 3160POPC   C1A41643  22.243   3.695   6.172
 3160POPC   D2A41644  22.264   3.621   6.610
 3160POPC   C3A41645  22.051   3.261   6.829
 3160POPC   C4A41646  21.901   3.261   7.256
 3160POPC   C1B41647  21.844   3.965   6.375
 3160POPC   C2B41648  21.737   3.669   6.631
 3160POPC   C3B41649  21.926   3.736   6.992
 3160POPC   C4B41650  22.222   3.674   7.251
 3161POPC   NC341651  24.072   0.327   5.576
 3161POPC   PO441652  24.738   0.188   5.449
 3161POPC   GL141653  24.556   0.437   5.796
 3161POPC   GL241654  24.292   0.263   6.018
 3161POPC   C1A41655  24.689   0.547   6.207
 3161POPC   D2A41656  24.426   0.442   6.567
 3161POPC   C3A41657  24.510   0.632   6.958
 3161POPC   C4A41658  24.559   0.304   7.240
 3161POPC   C1B41659  24.198   0.685   6.164
 3161POPC   C2B41660  24.146   0.874   6.580
 3161POPC   C3B41661  23.992   0.675   6.954
 3161POPC   C4B41662  24.123   0.550   7.376
 3162POPC   NC341663  39.399  42.384   5.064
 3162POPC   PO441664  38.963  42.499   5.587
 3162POPC   GL141665  39.292  42.365   5.902
 3162POPC   GL241666  39.595  42.611   5.984
 3162POPC   C1A41667  39.211  42.312   6.326
 3162POPC   D2A41668  39.289  42.447   6.756
 3162POPC   C3A41669  39.360  42.146   7.116
 3162POPC   C4A41670  39.110  41.993   7.475
 3162POPC   C1B41671  39.218  42.818   6.160
 3162POPC   C2B41672  38.883  42.701   6.412
 3162POPC   C3B41673  38.869  42.742   6.871
 3162POPC   C4B41674  39.129  42.603   7.218
 3163POPC   NC341675  17.878  43.253   5.149
 3163POPC   PO441676  17.708  42.661   5.430
 3163POPC   GL141677  17.563  42.961   5.730
 3163POPC   GL241678  17.709  43.323   5.672
 3163POPC   C1A41679  17.706  42.935   6.162
 3163POPC   D2A41680  17.525  42.804   6.526
 3163POPC   C3A41681  17.642  42.926   6.953
 3163POPC   C4A41682  17.318  42.977   7.271
 3163POPC   C1B41683  17.567  43.421   6.103
 3163POPC   C2B41684  17.697  43.303   6.548
 3163POPC   C3B41685  17.637  43.503   6.967
 3163POPC   C4B41686  17.211  43.510   7.157
 3164POPC   NC341687   5.531  38.434   5.483
 3164POPC   PO441688   6.105  38.783   5.536
 3164POPC   GL141689   5.928  38.515   5.856
 3164POPC   GL241690   5.760  38.151   5.882
 3164POPC   C1A41691   6.099  38.394   6.238
 3164POPC   D2A41692   6.095  38.129   6.592
 3164POPC   C3A41693   6.023  38.394   6.973
 3164POPC   C4A41694   5.962  38.846   7.137
 3164POPC   C1B41695   5.648  38.081   6.345
 3164POPC   C2B41696   5.627  38.087   6.803
 3164POPC   C3B41697   5.616  38.146   7.249
 3164POPC   C4B41698   5.699  38.133   7.700
 3165POPC   NC341699  27.676  36.911   5.437
 3165POPC   PO441700  27.050  37.113   5.522
 3165POPC   GL141701  27.369  37.111   5.860
 3165POPC   GL241702  27.751  37.091   5.882
 3165POPC   C1A41703  27.323  37.005   6.304
 3165POPC   D2A41704  27.497  36.635   6.544
 3165POPC   C3A41705  27.517  36.729   7.005
 3165POPC   C4A41706  27.593  37.173   7.191
 3165POPC   C1B41707  27.823  36.973   6.283
 3165POPC   C2B41708  27.689  37.096   6.698
 3165POPC   C3B41709  27.999  36.915   7.053
 3165POPC   C4B41710  28.039  37.125   7.492
 3166POPC   NC341711  32.545   3.956   5.420
 3166POPC   PO441712  32.917   4.560   5.276
 3166POPC   GL141713  32.819   4.338   5.657
 3166POPC   GL241714  32.615   4.566   5.820
 3166POPC   C1A41715  32.870   4.256   6.110
 3166POPC   D2A41716  33.089   4.289   6.496
 3166POPC   C3A41717  32.918   4.206   6.900
 3166POPC   C4A41718  33.215   4.136   7.203
 3166POPC   C1B41719  32.624   4.715   6.242
 3166POPC   C2B41720  32.557   4.450   6.615
 3166POPC   C3B41721  32.561   4.579   7.039
 3166POPC   C4B41722  32.859   4.479   7.357
 3167POPC   NC341723  37.000  30.395   5.401
 3167POPC   PO441724  37.098  31.058   5.437
 3167POPC   GL141725  36.799  30.775   5.720
 3167POPC   GL241726  36.928  30.448   5.917
 3167POPC   C1A41727  36.500  30.709   6.089
 3167POPC   D2A41728  36.597  30.492   6.465
 3167POPC   C3A41729  36.774  30.655   6.835
 3167POPC   C4A41730  36.660  30.707   7.266
 3167POPC   C1B41731  37.118  30.427   6.352
 3167POPC   C2B41732  37.253  30.395   6.795
 3167POPC   C3B41733  37.202  30.678   7.130
 3167POPC   C4B41734  37.019  31.088   7.275
 3168POPC   NC341735  28.836  15.258   5.229
 3168POPC   PO441736  28.183  15.410   5.375
 3168POPC   GL141737  28.393  15.134   5.670
 3168POPC   GL241738  28.723  15.199   5.746
 3168POPC   C1A41739  28.397  15.027   6.119
 3168POPC   D2A41740  28.120  15.103   6.462
 3168POPC   C3A41741  28.307  15.116   6.843
 3168POPC   C4A41742  28.407  14.945   7.207
 3168POPC   C1B41743  28.778  15.372   6.165
 3168POPC   C2B41744  28.780  15.186   6.594
 3168POPC   C3B41745  28.734  15.338   7.027
 3168POPC   C4B41746  28.352  15.456   7.224
 3169POPC   NC341747  21.961  33.460   5.457
 3169POPC   PO441748  22.107  34.072   5.187
 3169POPC   GL141749  22.143  34.091   5.635
 3169POPC   GL241750  21.872  33.892   5.756
 3169POPC   C1A41751  22.226  34.096   6.084
 3169POPC   D2A41752  22.072  33.984   6.502
 3169POPC   C3A41753  22.388  33.992   6.828
 3169POPC   C4A41754  22.370  34.024   7.255
 3169POPC   C1B41755  21.895  33.603   6.132
 3169POPC   C2B41756  21.796  33.545   6.594
 3169POPC   C3B41757  21.922  33.769   6.988
 3169POPC   C4B41758  22.193  33.537   7.269
 3170POPC   NC341759  33.308  37.650   5.088
 3170POPC   PO441760  33.807  37.679   5.585
 3170POPC   GL141761  33.835  37.623   5.977
 3170POPC   GL241762  33.787  37.955   6.090
 3170POPC   C1A41763  33.624  37.505   6.353
 3170POPC   D2A41764  33.491  37.570   6.781
 3170POPC   C3A41765  33.847  37.532   7.021
 3170POPC   C4A41766  34.004  37.931   7.129
 3170POPC   C1B41767  33.353  37.984   6.278
 3170POPC   C2B41768  33.102  37.883   6.652
 3170POPC   C3B41769  33.277  37.970   7.072
 3170POPC   C4B41770  33.531  37.729   7.341
 3171POPC   NC341771  34.017  15.258   5.506
 3171POPC   PO441772  33.496  15.630   5.409
 3171POPC   GL141773  33.606  15.380   5.804
 3171POPC   GL241774  33.709  15.042   5.836
 3171POPC   C1A41775  33.951  15.324   6.172
 3171POPC   D2A41776  33.905  15.487   6.568
 3171POPC   C3A41777  34.014  15.317   6.987
 3171POPC   C4A41778  33.653  15.304   7.247
 3171POPC   C1B41779  33.748  14.843   6.228
 3171POPC   C2B41780  33.890  14.933   6.650
 3171POPC   C3B41781  33.840  14.816   7.100
 3171POPC   C4B41782  33.979  14.980   7.509
 3172POPC   NC341783  16.948  37.163   5.211
 3172POPC   PO441784  16.434  36.730   5.348
 3172POPC   GL141785  16.699  36.740   5.755
 3172POPC   GL241786  16.893  37.066   5.782
 3172POPC   C1A41787  16.607  36.881   6.201
 3172POPC   D2A41788  16.476  36.946   6.642
 3172POPC   C3A41789  16.693  36.651   6.917
 3172POPC   C4A41790  16.829  36.732   7.360
 3172POPC   C1B41791  16.846  37.354   6.139
 3172POPC   C2B41792  16.892  37.301   6.585
 3172POPC   C3B41793  16.837  37.121   6.983
 3172POPC   C4B41794  16.437  37.025   7.189
 3173POPC   NC341795   9.666  25.601   5.420
 3173POPC   PO441796   9.503  24.966   5.566
 3173POPC   GL141797   9.619  25.268   5.822
 3173POPC   GL241798   9.316  25.485   5.763
 3173POPC   C1A41799   9.871  25.226   6.195
 3173POPC   D2A41800  10.067  25.437   6.519
 3173POPC   C3A41801   9.923  25.385   6.880
 3173POPC   C4A41802   9.731  25.191   7.187
 3173POPC   C1B41803   9.397  25.531   6.193
 3173POPC   C2B41804   9.497  25.327   6.559
 3173POPC   C3B41805   9.385  25.509   6.934
 3173POPC   C4B41806   9.646  25.694   7.208
 3174POPC   NC341807   6.414  37.966   5.455
 3174POPC   PO441808   5.734  37.871   5.362
 3174POPC   GL141809   5.895  37.643   5.759
 3174POPC   GL241810   6.174  37.390   5.789
 3174POPC   C1A41811   5.979  37.712   6.221
 3174POPC   D2A41812   5.717  37.629   6.601
 3174POPC   C3A41813   5.832  37.661   7.036
 3174POPC   C4A41814   5.665  37.683   7.449
 3174POPC   C1B41815   6.290  37.309   6.242
 3174POPC   C2B41816   6.223  37.545   6.673
 3174POPC   C3B41817   6.266  37.905   7.008
 3174POPC   C4B41818   6.098  37.948   7.428
 3175POPC   NC341819   6.476  14.218   5.414
 3175POPC   PO441820   6.910  14.693   5.510
 3175POPC   GL141821   6.697  14.423   5.821
 3175POPC   GL241822   6.325  14.445   5.870
 3175POPC   C1A41823   6.811  14.251   6.203
 3175POPC   D2A41824   6.684  14.393   6.589
 3175POPC   C3A41825   6.885  14.243   6.926
 3175POPC   C4A41826   6.797  14.359   7.347
 3175POPC   C1B41827   6.312  14.220   6.272
 3175POPC   C2B41828   6.247  14.193   6.742
 3175POPC   C3B41829   6.442  14.045   7.121
 3175POPC   C4B41830   6.479  14.016   7.593
 3176POPC   NC341831  42.194  38.761   5.524
 3176POPC   PO441832  42.531  38.137   5.506
 3176POPC   GL141833  42.417  38.372   5.856
 3176POPC   GL241834  42.056  38.270   5.833
 3176POPC   C1A41835  42.494  38.661   6.218
 3176POPC   D2A41836  42.653  38.861   6.582
 3176POPC   C3A41837  42.610  38.559   6.864
 3176POPC   C4A41838  42.513  38.473   7.237
 3176POPC   C1B41839  42.120  38.303   6.277
 3176POPC   C2B41840  42.163  38.605   6.606
 3176POPC   C3B41841  42.078  38.678   7.043
 3176POPC   C4B41842  41.962  38.513   7.438
 3177POPC   NC341843   2.810  18.451   5.277
 3177POPC   PO441844   2.966  17.803   5.325
 3177POPC   GL141845   2.867  18.074   5.731
 3177POPC   GL241846   2.528  18.165   5.815
 3177POPC   C1A41847   2.921  18.327   6.165
 3177POPC   D2A41848   2.914  18.647   6.536
 3177POPC   C3A41849   2.839  18.529   7.004
 3177POPC   C4A41850   2.894  18.231   7.345
 3177POPC   C1B41851   2.410  18.323   6.232
 3177POPC   C2B41852   2.610  18.225   6.628
 3177POPC   C3B41853   2.467  18.159   7.053
 3177POPC   C4B41854   2.435  18.441   7.424
 3178POPC   NC341855   7.666  30.648   5.442
 3178POPC   PO441856   7.139  30.943   5.607
 3178POPC   GL141857   7.474  30.813   5.896
 3178POPC   GL241858   7.606  30.457   5.906
 3178POPC   C1A41859   7.526  30.925   6.313
 3178POPC   D2A41860   7.432  31.168   6.660
 3178POPC   C3A41861   7.354  30.932   7.041
 3178POPC   C4A41862   7.098  30.824   7.390
 3178POPC   C1B41863   7.529  30.417   6.341
 3178POPC   C2B41864   7.540  30.585   6.740
 3178POPC   C3B41865   7.637  30.522   7.196
 3178POPC   C4B41866   7.497  30.584   7.632
 3179POPC   NC341867  37.196  27.341   5.611
 3179POPC   PO441868  36.734  27.788   5.490
 3179POPC   GL141869  36.830  27.706   5.893
 3179POPC   GL241870  36.971  28.025   5.926
 3179POPC   C1A41871  36.744  27.470   6.285
 3179POPC   D2A41872  36.537  27.449   6.678
 3179POPC   C3A41873  36.762  27.519   7.052
 3179POPC   C4A41874  36.818  27.429   7.501
 3179POPC   C1B41875  37.181  27.762   6.253
 3179POPC   C2B41876  37.180  27.538   6.663
 3179POPC   C3B41877  37.225  27.728   7.081
 3179POPC   C4B41878  36.921  27.956   7.314
 3180POPC   NC341879  10.415  20.186   5.469
 3180POPC   PO441880  10.199  19.469   5.550
 3180POPC   GL141881  10.439  19.750   5.825
 3180POPC   GL241882  10.266  20.060   5.922
 3180POPC   C1A41883  10.442  19.755   6.297
 3180POPC   D2A41884  10.309  19.694   6.754
 3180POPC   C3A41885  10.608  19.703   7.109
 3180POPC   C4A41886  10.851  19.990   7.401
 3180POPC   C1B41887  10.363  20.270   6.266
 3180POPC   C2B41888  10.709  20.272   6.513
 3180POPC   C3B41889  10.570  20.164   6.884
 3180POPC   C4B41890  10.405  20.158   7.246
 3181POPC   NC341891  22.797   1.180   5.225
 3181POPC   PO441892  23.390   1.453   5.453
 3181POPC   GL141893  23.031   1.250   5.739
 3181POPC   GL241894  22.692   1.388   5.731
 3181POPC   C1A41895  22.814   1.026   6.123
 3181POPC   D2A41896  22.984   0.910   6.563
 3181POPC   C3A41897  22.941   1.110   6.975
 3181POPC   C4A41898  23.090   1.520   7.149
 3181POPC   C1B41899  22.634   1.517   6.166
 3181POPC   C2B41900  22.745   1.391   6.587
 3181POPC   C3B41901  22.590   1.474   7.022
 3181POPC   C4B41902  22.365   1.272   7.330
 3182POPC   NC341903  31.317  12.519   5.326
 3182POPC   PO441904  31.397  13.170   5.391
 3182POPC   GL141905  31.553  13.016   5.790
 3182POPC   GL241906  31.417  12.670   5.828
 3182POPC   C1A41907  31.620  13.184   6.206
 3182POPC   D2A41908  31.715  13.011   6.621
 3182POPC   C3A41909  31.633  13.299   6.956
 3182POPC   C4A41910  31.667  13.168   7.388
 3182POPC   C1B41911  31.522  12.672   6.275
 3182POPC   C2B41912  31.515  12.523   6.707
 3182POPC   C3B41913  31.610  12.749   7.090
 3182POPC   C4B41914  31.340  12.728   7.497
 3183POPC   NC341915  17.937  42.528   5.050
 3183POPC   PO441916  17.528  42.018   5.327
 3183POPC   GL141917  17.379  42.277   5.698
 3183POPC   GL241918  17.542  42.066   5.952
 3183POPC   C1A41919  17.382  42.500   6.120
 3183POPC   D2A41920  17.315  42.282   6.533
 3183POPC   C3A41921  17.279  42.524   6.865
 3183POPC   C4A41922  17.522  42.471   7.210
 3183POPC   C1B41923  17.665  41.961   6.376
 3183POPC   C2B41924  17.973  41.969   6.683
 3183POPC   C3B41925  17.777  42.029   7.090
 3183POPC   C4B41926  17.329  42.037   7.013
 3184POPC   NC341927  44.223  19.767   5.576
 3184POPC   PO441928  44.814  19.966   5.248
 3184POPC   GL141929  44.699  19.935   5.723
 3184POPC   GL241930  44.599  19.616   5.887
 3184POPC   C1A41931  44.782  19.942   6.221
 3184POPC   D2A41932  44.658  20.174   6.635
 3184POPC   C3A41933  44.546  19.901   7.014
 3184POPC   C4A41934  44.329  19.955   7.401
 3184POPC   C1B41935  44.385  19.575   6.298
 3184POPC   C2B41936  44.301  19.339   6.715
 3184POPC   C3B41937  44.345  19.418   7.162
 3184POPC   C4B41938  44.639  19.552   7.433
 3185POPC   NC341939  35.015  14.029   5.427
 3185POPC   PO441940  35.513  14.463   5.237
 3185POPC   GL141941  35.367  14.347   5.654
 3185POPC   GL241942  35.038  14.535   5.675
 3185POPC   C1A41943  35.516  14.432   6.094
 3185POPC   D2A41944  35.720  14.459   6.512
 3185POPC   C3A41945  35.512  14.455   6.876
 3185POPC   C4A41946  35.667  14.428   7.276
 3185POPC   C1B41947  35.020  14.298   6.058
 3185POPC   C2B41948  35.182  14.286   6.478
 3185POPC   C3B41949  35.034  14.273   6.889
 3185POPC   C4B41950  35.154  14.517   7.252
 3186POPC   NC341951  15.444  11.473   4.951
 3186POPC   PO441952  14.957  11.087   5.294
 3186POPC   GL141953  15.141  11.266   5.676
 3186POPC   GL241954  15.464  11.138   5.605
 3186POPC   C1A41955  15.026  11.317   6.126
 3186POPC   D2A41956  15.111  11.484   6.545
 3186POPC   C3A41957  14.778  11.477   6.845
 3186POPC   C4A41958  14.916  11.419   7.261
 3186POPC   C1B41959  15.469  11.068   6.059
 3186POPC   C2B41960  15.230  10.924   6.428
 3186POPC   C3B41961  15.190  11.071   6.867
 3186POPC   C4B41962  15.144  10.948   7.291
 3187POPC   NC341963  18.454  23.219   5.491
 3187POPC   PO441964  18.157  22.674   5.262
 3187POPC   GL141965  18.102  22.792   5.724
 3187POPC   GL241966  18.014  23.110   5.805
 3187POPC   C1A41967  18.257  22.772   6.158
 3187POPC   D2A41968  18.155  22.714   6.570
 3187POPC   C3A41969  18.354  22.998   6.826
 3187POPC   C4A41970  18.525  23.075   7.214
 3187POPC   C1B41971  17.838  23.040   6.223
 3187POPC   C2B41972  17.841  23.147   6.649
 3187POPC   C3B41973  17.848  22.897   6.965
 3187POPC   C4B41974  18.123  22.763   7.219
 3188POPC   NC341975  32.819  21.621   5.553
 3188POPC   PO441976  33.483  21.643   5.518
 3188POPC   GL141977  33.311  21.265   5.695
 3188POPC   GL241978  32.961  21.130   5.670
 3188POPC   C1A41979  33.210  21.292   6.118
 3188POPC   D2A41980  33.295  21.309   6.553
 3188POPC   C3A41981  33.206  21.665   6.850
 3188POPC   C4A41982  32.826  21.726   7.091
 3188POPC   C1B41983  32.761  21.045   6.088
 3188POPC   C2B41984  32.797  21.109   6.561
 3188POPC   C3B41985  33.018  21.186   6.980
 3188POPC   C4B41986  32.922  21.092   7.423
 3189POPC   NC341987  16.859   5.671   5.382
 3189POPC   PO441988  16.338   5.984   5.386
 3189POPC   GL141989  16.585   5.939   5.797
 3189POPC   GL241990  16.943   5.860   5.865
 3189POPC   C1A41991  16.627   5.846   6.271
 3189POPC   D2A41992  16.382   5.794   6.647
 3189POPC   C3A41993  16.616   5.902   7.035
 3189POPC   C4A41994  16.844   6.073   7.401
 3189POPC   C1B41995  17.086   5.633   6.251
 3189POPC   C2B41996  17.031   5.824   6.680
 3189POPC   C3B41997  17.018   5.564   7.046
 3189POPC   C4B41998  17.075   5.627   7.490
 3190POPC   NC341999  17.323  19.357   5.440
 3190POPC   PO442000  16.720  19.003   5.310
 3190POPC   GL142001  16.820  18.863   5.740
 3190POPC   GL242002  16.483  18.810   5.834
 3190POPC   C1A42003  17.018  18.931   6.141
 3190POPC   D2A42004  16.804  19.038   6.509
 3190POPC   C3A42005  16.993  19.063   6.887
 3190POPC   C4A42006  16.782  18.825   7.169
 3190POPC   C1B42007  16.547  19.188   6.081
 3190POPC   C2B42008  16.411  19.379   6.462
 3190POPC   C3B42009  16.521  19.489   6.875
 3190POPC   C4B42010  16.717  19.311   7.255
 3191POPC   NC342011  36.333  11.875   5.564
 3191POPC   PO442012  35.789  12.245   5.491
 3191POPC   GL142013  36.005  12.157   5.904
 3191POPC   GL242014  36.365  12.109   6.001
 3191POPC   C1A42015  36.033  11.799   6.205
 3191POPC   D2A42016  36.122  11.655   6.617
 3191POPC   C3A42017  35.905  11.834   6.968
 3191POPC   C4A42018  36.095  11.999   7.299
 3191POPC   C1B42019  36.605  12.118   6.372
 3191POPC   C2B42020  36.569  12.176   6.820
 3191POPC   C3B42021  36.468  12.333   7.239
 3191POPC   C4B42022  36.521  12.306   7.697
 3192POPC   NC342023   7.692  18.529   5.549
 3192POPC   PO442024   7.310  17.979   5.454
 3192POPC   GL142025   7.198  18.307   5.811
 3192POPC   GL242026   7.441  18.575   5.988
 3192POPC   C1A42027   7.124  18.307   6.268
 3192POPC   D2A42028   7.390  18.521   6.575
 3192POPC   C3A42029   7.466  18.293   6.957
 3192POPC   C4A42030   7.148  18.223   7.265
 3192POPC   C1B42031   7.683  18.233   6.158
 3192POPC   C2B42032   7.901  18.208   6.553
 3192POPC   C3B42033   7.882  17.994   6.933
 3192POPC   C4B42034   7.821  17.848   7.357
 3193POPC   NC342035   6.385  20.768   5.410
 3193POPC   PO442036   5.765  20.447   5.593
 3193POPC   GL142037   6.117  20.565   5.881
 3193POPC   GL242038   6.136  20.921   5.839
 3193POPC   C1A42039   6.153  20.541   6.353
 3193POPC   D2A42040   5.901  20.723   6.675
 3193POPC   C3A42041   5.874  20.559   7.040
 3193POPC   C4A42042   6.140  20.498   7.344
 3193POPC   C1B42043   5.848  20.948   6.216
 3193POPC   C2B42044   5.463  20.922   6.523
 3193POPC   C3B42045   5.416  20.948   6.960
 3193POPC   C4B42046   5.707  21.003   7.265
 3194POPC   NC342047   8.066   0.140   5.334
 3194POPC   PO442048   7.944   0.780   5.545
 3194POPC   GL142049   8.208   0.544   5.848
 3194POPC   GL242050   8.270   0.177   5.830
 3194POPC   C1A42051   8.174   0.546   6.303
 3194POPC   D2A42052   8.430   0.742   6.622
 3194POPC   C3A42053   8.216   0.708   7.010
 3194POPC   C4A42054   7.882   0.447   7.155
 3194POPC   C1B42055   8.444   0.116   6.284
 3194POPC   C2B42056   8.364   0.222   6.737
 3194POPC   C3B42057   8.179   0.015   7.111
 3194POPC   C4B42058   8.431  44.908   7.495
 3195POPC   NC342059   3.774  44.846   5.173
 3195POPC   PO442060   3.122  44.845   5.485
 3195POPC   GL142061   3.394  44.703   5.819
 3195POPC   GL242062   3.738  44.661   5.705
 3195POPC   C1A42063   3.471  44.499   6.234
 3195POPC   D2A42064   3.695  44.505   6.641
 3195POPC   C3A42065   3.453  44.488   7.050
 3195POPC   C4A42066   3.533  44.660   7.487
 3195POPC   C1B42067   3.812  44.880   6.130
 3195POPC   C2B42068   3.740   0.046   6.560
 3195POPC   C3B42069   3.771  44.882   6.985
 3195POPC   C4B42070   3.840   0.073   7.373
 3196POPC   NC342071  15.947   4.343   5.540
 3196POPC   PO442072  16.139   3.880   5.804
 3196POPC   GL142073  16.007   4.309   6.040
 3196POPC   GL242074  16.145   4.638   5.912
 3196POPC   C1A42075  15.915   4.437   6.464
 3196POPC   D2A42076  15.653   4.252   6.782
 3196POPC   C3A42077  15.842   4.043   7.098
 3196POPC   C4A42078  15.833   4.136   7.499
 3196POPC   C1B42079  16.251   4.801   6.297
 3196POPC   C2B42080  16.299   4.667   6.706
 3196POPC   C3B42081  16.024   4.546   6.997
 3196POPC   C4B42082  15.983   4.747   7.373
 3197POPC   NC342083   0.149  44.556   5.115
 3197POPC   PO442084  44.577  44.503   5.395
 3197POPC   GL142085  44.841  44.549   5.749
 3197POPC   GL242086  44.997  44.840   5.581
 3197POPC   C1A42087  44.819  44.491   6.257
 3197POPC   D2A42088  44.558  44.608   6.652
 3197POPC   C3A42089  44.613  44.474   7.105
 3197POPC   C4A42090  44.431  44.385   7.545
 3197POPC   C1B42091  44.949   0.012   6.013
 3197POPC   C2B42092  44.915  44.961   6.470
 3197POPC   C3B42093  44.814  44.969   6.918
 3197POPC   C4B42094  44.784  44.910   7.360
 3198POPC   NC342095  20.543  28.131   5.338
 3198POPC   PO442096  20.438  28.779   5.064
 3198POPC   GL142097  20.397  28.586   5.595
 3198POPC   GL242098  20.326  28.238   5.779
 3198POPC   C1A42099  20.603  28.525   6.087
 3198POPC   D2A42100  20.858  28.439   6.452
 3198POPC   C3A42101  20.696  28.495   6.847
 3198POPC   C4A42102  20.796  28.460   7.242
 3198POPC   C1B42103  20.365  28.076   6.218
 3198POPC   C2B42104  20.424  27.984   6.681
 3198POPC   C3B42105  20.392  28.131   7.138
 3198POPC   C4B42106  20.369  28.089   7.636
 3199POPC   NC342107  44.153  16.539   5.338
 3199POPC   PO442108  43.693  17.051   5.351
 3199POPC   GL142109  43.927  16.895   5.716
 3199POPC   GL242110  44.161  17.153   5.808
 3199POPC   C1A42111  44.006  16.708   6.136
 3199POPC   D2A42112  43.981  16.443   6.520
 3199POPC   C3A42113  43.888  16.701   6.888
 3199POPC   C4A42114  43.808  16.633   7.304
 3199POPC   C1B42115  44.338  17.134   6.216
 3199POPC   C2B42116  44.262  16.906   6.574
 3199POPC   C3B42117  44.392  16.793   6.969
 3199POPC   C4B42118  44.152  16.990   7.283
 3200POPC   NC342119  27.601  34.915   5.429
 3200POPC   PO442120  27.764  34.193   5.408
 3200POPC   GL142121  27.724  34.448   5.780
 3200POPC   GL242122  27.546  34.202   5.998
 3200POPC   C1A42123  27.575  34.665   6.176
 3200POPC   D2A42124  27.481  34.411   6.565
 3200POPC   C3A42125  27.383  34.656   6.910
 3200POPC   C4A42126  27.516  34.650   7.299
 3200POPC   C1B42127  27.938  34.331   6.246
 3200POPC   C2B42128  27.950  34.619   6.600
 3200POPC   C3B42129  27.860  34.439   6.989
 3200POPC   C4B42130  27.870  34.014   7.106
 3201POPC   NC342131  43.780  14.903   5.361
 3201POPC   PO442132  43.739  14.231   5.321
 3201POPC   GL142133  43.808  14.467   5.670
 3201POPC   GL242134  43.479  14.620   5.696
 3201POPC   C1A42135  43.955  14.294   6.062
 3201POPC   D2A42136  43.983  14.351   6.492
 3201POPC   C3A42137  44.055  14.019   6.763
 3201POPC   C4A42138  44.120  14.090   7.181
 3201POPC   C1B42139  43.477  14.478   6.144
 3201POPC   C2B42140  43.468  14.415   6.603
 3201POPC   C3B42141  43.766  14.415   6.968
 3201POPC   C4B42142  43.687  14.563   7.395
 3202POPC   NC342143  11.749   6.641   5.284
 3202POPC   PO442144  12.314   6.329   5.374
 3202POPC   GL142145  12.193   6.476   5.774
 3202POPC   GL242146  12.513   6.463   5.866
 3202POPC   C1A42147  12.161   6.779   6.150
 3202POPC   D2A42148  11.823   6.885   6.450
 3202POPC   C3A42149  11.835   6.779   6.899
 3202POPC   C4A42150  11.753   6.579   7.308
 3202POPC   C1B42151  12.375   6.317   6.255
 3202POPC   C2B42152  12.194   6.515   6.610
 3202POPC   C3B42153  12.140   6.384   7.018
 3202POPC   C4B42154  12.373   6.408   7.391
 3203POPC   NC342155   8.529   5.133   5.503
 3203POPC   PO442156   8.169   4.535   5.358
 3203POPC   GL142157   8.337   4.726   5.774
 3203POPC   GL242158   8.115   5.001   5.794
 3203POPC   C1A42159   8.382   4.949   6.231
 3203POPC   D2A42160   8.157   4.829   6.674
 3203POPC   C3A42161   8.233   5.008   7.137
 3203POPC   C4A42162   8.270   4.797   7.563
 3203POPC   C1B42163   7.986   5.256   6.164
 3203POPC   C2B42164   8.204   5.324   6.551
 3203POPC   C3B42165   8.516   5.356   6.863
 3203POPC   C4B42166   8.306   5.508   7.214
 3204POPC   NC342167  23.717  27.302   5.406
 3204POPC   PO442168  23.463  26.719   5.210
 3204POPC   GL142169  23.461  26.807   5.672
 3204POPC   GL242170  23.788  26.921   5.792
 3204POPC   C1A42171  23.510  26.724   6.152
 3204POPC   D2A42172  23.750  26.666   6.537
 3204POPC   C3A42173  23.474  26.699   6.897
 3204POPC   C4A42174  23.394  26.802   7.326
 3204POPC   C1B42175  24.023  26.934   6.180
 3204POPC   C2B42176  24.164  26.975   6.579
 3204POPC   C3B42177  23.977  26.859   6.966
 3204POPC   C4B42178  24.035  26.967   7.378
 3205POPC   NC342179   8.910  40.433   5.300
 3205POPC   PO442180   8.660  41.028   5.516
 3205POPC   GL142181   8.953  40.970   5.836
 3205POPC   GL242182   9.105  40.644   5.743
 3205POPC   C1A42183   8.865  40.726   6.219
 3205POPC   D2A42184   8.689  40.671   6.624
 3205POPC   C3A42185   8.929  40.907   6.927
 3205POPC   C4A42186   9.136  41.161   7.253
 3205POPC   C1B42187   9.133  40.303   6.046
 3205POPC   C2B42188   9.228  40.282   6.477
 3205POPC   C3B42189   9.039  40.400   6.850
 3205POPC   C4B42190   9.120  40.521   7.243
 3206POPC   NC342191   5.456  18.751   5.616
 3206POPC   PO442192   4.860  19.045   5.408
 3206POPC   GL142193   4.940  19.173   5.823
 3206POPC   GL242194   5.288  19.177   5.833
 3206POPC   C1A42195   4.851  18.974   6.218
 3206POPC   D2A42196   4.949  19.128   6.617
 3206POPC   C3A42197   4.804  18.927   6.961
 3206POPC   C4A42198   5.030  18.849   7.339
 3206POPC   C1B42199   5.353  19.094   6.251
 3206POPC   C2B42200   5.462  19.182   6.654
 3206POPC   C3B42201   5.446  18.991   7.065
 3206POPC   C4B42202   5.526  18.868   7.525
 3207POPC   NC342203  32.798  38.489   5.278
 3207POPC   PO442204  33.380  38.582   5.588
 3207POPC   GL142205  33.176  38.391   5.898
 3207POPC   GL242206  32.873  38.333   5.753
 3207POPC   C1A42207  33.166  38.483   6.301
 3207POPC   D2A42208  33.300  38.367   6.668
 3207POPC   C3A42209  33.138  38.603   6.971
 3207POPC   C4A42210  33.169  38.450   7.373
 3207POPC   C1B42211  32.702  38.587   6.089
 3207POPC   C2B42212  32.780  38.785   6.497
 3207POPC   C3B42213  32.637  38.833   6.886
 3207POPC   C4B42214  32.695  38.627   7.242
 3208POPC   NC342215  24.005  24.892   5.522
 3208POPC   PO442216  23.580  25.421   5.487
 3208POPC   GL142217  23.606  25.428   5.913
 3208POPC   GL242218  23.913  25.317   5.915
 3208POPC   C1A42219  23.641  25.389   6.362
 3208POPC   D2A42220  23.666  25.143   6.719
 3208POPC   C3A42221  23.687  25.378   7.065
 3208POPC   C4A42222  23.666  25.204   7.464
 3208POPC   C1B42223  23.935  24.988   6.258
 3208POPC   C2B42224  24.098  24.864   6.681
 3208POPC   C3B42225  24.031  24.987   7.132
 3208POPC   C4B42226  24.103  25.027   7.613
 3209POPC   NC342227  24.363  35.712   5.476
 3209POPC   PO442228  24.763  36.288   5.501
 3209POPC   GL142229  24.517  36.075   5.839
 3209POPC   GL242230  24.163  36.180   5.856
 3209POPC   C1A42231  24.409  35.844   6.237
 3209POPC   D2A42232  24.152  35.685   6.583
 3209POPC   C3A42233  24.395  35.805   6.972
 3209POPC   C4A42234  24.549  36.119   7.205
 3209POPC   C1B42235  24.214  36.333   6.254
 3209POPC   C2B42236  24.243  36.180   6.649
 3209POPC   C3B42237  24.128  36.330   7.030
 3209POPC   C4B42238  24.375  36.583   7.294
 3210POPC   NC342239  19.278  24.686   5.529
 3210POPC   PO442240  18.879  24.257   5.549
 3210POPC   GL142241  19.009  24.419   5.895
 3210POPC   GL242242  19.326  24.216   5.850
 3210POPC   C1A42243  19.075  24.738   6.211
 3210POPC   D2A42244  19.304  24.809   6.606
 3210POPC   C3A42245  19.038  24.716   6.971
 3210POPC   C4A42246  18.815  24.607   7.349
 3210POPC   C1B42247  19.227  24.203   6.300
 3210POPC   C2B42248  19.041  24.099   6.694
 3210POPC   C3B42249  19.131  24.232   7.124
 3210POPC   C4B42250  19.477  24.155   7.384
 3211POPC   NC342251  34.223   0.549   5.395
 3211POPC   PO442252  34.816   0.416   5.322
 3211POPC   GL142253  34.644   0.520   5.720
 3211POPC   GL242254  34.467   0.209   5.711
 3211POPC   C1A42255  34.901   0.461   6.109
 3211POPC   D2A42256  35.112   0.463   6.495
 3211POPC   C3A42257  34.835   0.430   6.833
 3211POPC   C4A42258  34.637   0.376   7.211
 3211POPC   C1B42259  34.425   0.285   6.145
 3211POPC   C2B42260  34.482   0.538   6.487
 3211POPC   C3B42261  34.280   0.456   6.866
 3211POPC   C4B42262  34.103   0.389   7.246
 3212POPC   NC342263  26.925   8.403   5.433
 3212POPC   PO442264  26.939   7.713   5.555
 3212POPC   GL142265  26.701   8.004   5.816
 3212POPC   GL242266  26.908   8.283   5.904
 3212POPC   C1A42267  26.669   8.039   6.273
 3212POPC   D2A42268  26.850   8.304   6.585
 3212POPC   C3A42269  26.704   8.278   7.013
 3212POPC   C4A42270  26.725   7.962   7.342
 3212POPC   C1B42271  27.081   8.658   6.117
 3212POPC   C2B42272  27.247   8.598   6.474
 3212POPC   C3B42273  27.045   8.704   6.853
 3212POPC   C4B42274  27.102   8.546   7.210
 3213POPC   NC342275  11.122  36.446   5.621
 3213POPC   PO442276  11.347  35.914   5.230
 3213POPC   GL142277  11.353  35.973   5.718
 3213POPC   GL242278  11.006  35.954   5.811
 3213POPC   C1A42279  11.497  36.036   6.181
 3213POPC   D2A42280  11.682  35.997   6.621
 3213POPC   C3A42281  11.390  36.227   6.876
 3213POPC   C4A42282  11.368  36.648   7.107
 3213POPC   C1B42283  10.973  36.120   6.243
 3213POPC   C2B42284  10.828  36.440   6.528
 3213POPC   C3B42285  10.930  36.446   6.950
 3213POPC   C4B42286  11.067  36.139   7.251
 3214POPC   NC342287   2.041  19.796   5.324
 3214POPC   PO442288   1.719  20.358   5.417
 3214POPC   GL142289   2.001  20.098   5.739
 3214POPC   GL242290   1.899  19.732   5.811
 3214POPC   C1A42291   2.179  19.978   6.171
 3214POPC   D2A42292   1.937  20.067   6.572
 3214POPC   C3A42293   2.045  20.022   7.014
 3214POPC   C4A42294   2.417  19.933   7.169
 3214POPC   C1B42295   1.890  19.576   6.232
 3214POPC   C2B42296   2.236  19.602   6.572
 3214POPC   C3B42297   2.111  19.522   7.000
 3214POPC   C4B42298   1.679  19.663   7.061
 3215POPC   NC342299   6.781  13.293   5.469
 3215POPC   PO442300   6.164  13.165   5.397
 3215POPC   GL142301   6.393  12.869   5.706
 3215POPC   GL242302   6.756  12.867   5.813
 3215POPC   C1A42303   6.353  12.926   6.169
 3215POPC   D2A42304   6.517  13.250   6.481
 3215POPC   C3A42305   6.663  13.079   6.908
 3215POPC   C4A42306   6.489  12.830   7.254
 3215POPC   C1B42307   6.862  12.815   6.273
 3215POPC   C2B42308   7.036  12.529   6.605
 3215POPC   C3B42309   6.958  12.551   7.059
 3215POPC   C4B42310   7.003  12.914   7.324
 3216POPC   NC342311  19.594  35.225   5.541
 3216POPC   PO442312  18.963  35.124   5.188
 3216POPC   GL142313  19.056  35.152   5.655
 3216POPC   GL242314  18.969  35.494   5.810
 3216POPC   C1A42315  19.131  35.098   6.122
 3216POPC   D2A42316  19.164  35.318   6.514
 3216POPC   C3A42317  19.043  35.179   6.919
 3216POPC   C4A42318  19.334  35.194   7.263
 3216POPC   C1B42319  18.874  35.656   6.240
 3216POPC   C2B42320  18.743  35.585   6.687
 3216POPC   C3B42321  18.828  35.727   7.119
 3216POPC   C4B42322  18.851  35.531   7.534
 3217POPC   NC342323   5.514  30.111   5.724
 3217POPC   PO442324   5.807  29.655   5.314
 3217POPC   GL142325   5.977  29.913   5.652
 3217POPC   GL242326   6.089  29.626   5.798
 3217POPC   C1A42327   6.072  30.065   6.094
 3217POPC   D2A42328   6.168  30.241   6.519
 3217POPC   C3A42329   5.964  30.105   6.916
 3217POPC   C4A42330   5.870  30.061   7.390
 3217POPC   C1B42331   6.393  29.657   6.109
 3217POPC   C2B42332   6.188  29.729   6.484
 3217POPC   C3B42333   6.299  29.701   6.890
 3217POPC   C4B42334   6.089  29.633   7.240
 3218POPC   NC342335  21.378  34.242   5.372
 3218POPC   PO442336  21.435  33.537   5.413
 3218POPC   GL142337  21.429  33.631   5.835
 3218POPC   GL242338  21.279  33.931   5.826
 3218POPC   C1A42339  21.390  33.624   6.276
 3218POPC   D2A42340  21.172  33.685   6.644
 3218POPC   C3A42341  21.428  33.581   6.949
 3218POPC   C4A42342  21.718  33.319   7.104
 3218POPC   C1B42343  21.158  34.135   6.229
 3218POPC   C2B42344  21.027  34.164   6.643
 3218POPC   C3B42345  21.193  34.100   7.029
 3218POPC   C4B42346  21.447  33.922   7.322
 3219POPC   NC342347  22.537  38.612   5.566
 3219POPC   PO442348  23.063  38.366   5.044
 3219POPC   GL142349  23.102  38.457   5.557
 3219POPC   GL242350  23.362  38.254   5.812
 3219POPC   C1A42351  23.056  38.604   6.010
 3219POPC   D2A42352  23.066  38.510   6.465
 3219POPC   C3A42353  23.137  38.585   6.909
 3219POPC   C4A42354  22.888  38.524   7.288
 3219POPC   C1B42355  23.368  38.104   6.270
 3219POPC   C2B42356  23.209  38.072   6.733
 3219POPC   C3B42357  23.275  38.140   7.197
 3219POPC   C4B42358  23.205  38.292   7.645
 3220POPC   NC342359  12.521   9.152   5.508
 3220POPC   PO442360  13.007   8.619   5.455
 3220POPC   GL142361  12.751   8.702   5.804
 3220POPC   GL242362  12.854   9.037   5.910
 3220POPC   C1A42363  12.726   8.715   6.266
 3220POPC   D2A42364  12.998   8.899   6.611
 3220POPC   C3A42365  12.841   8.920   7.048
 3220POPC   C4A42366  12.649   8.939   7.500
 3220POPC   C1B42367  12.958   9.306   6.261
 3220POPC   C2B42368  12.825   9.395   6.694
 3220POPC   C3B42369  12.829   9.426   7.156
 3220POPC   C4B42370  12.806   9.412   7.622
 3221POPC   NC342371  40.114  39.856   5.226
 3221POPC   PO442372  39.772  40.483   5.103
 3221POPC   GL142373  40.108  40.202   5.569
 3221POPC   GL242374  40.068  39.850   5.738
 3221POPC   C1A42375  40.137  40.239   6.068
 3221POPC   D2A42376  40.082  40.313   6.536
 3221POPC   C3A42377  39.814  40.097   6.829
 3221POPC   C4A42378  39.965  40.218   7.212
 3221POPC   C1B42379  40.121  39.731   6.181
 3221POPC   C2B42380  40.238  39.814   6.614
 3221POPC   C3B42381  40.139  39.761   7.080
 3221POPC   C4B42382  39.819  39.622   7.358
 3222POPC   NC342383  13.522   6.825   5.256
 3222POPC   PO442384  13.685   6.246   5.115
 3222POPC   GL142385  13.687   6.438   5.591
 3222POPC   GL242386  13.465   6.697   5.746
 3222POPC   C1A42387  13.795   6.511   6.085
 3222POPC   D2A42388  13.646   6.581   6.527
 3222POPC   C3A42389  13.811   6.608   6.947
 3222POPC   C4A42390  13.675   6.397   7.284
 3222POPC   C1B42391  13.309   6.678   6.152
 3222POPC   C2B42392  13.156   6.773   6.587
 3222POPC   C3B42393  13.297   6.818   7.021
 3222POPC   C4B42394  13.252   6.645   7.438
 3223POPC   NC342395  16.198  37.545   5.393
 3223POPC   PO442396  15.665  37.939   5.397
 3223POPC   GL142397  15.918  37.798   5.782
 3223POPC   GL242398  16.262  37.942   5.789
 3223POPC   C1A42399  15.895  37.678   6.262
 3223POPC   D2A42400  15.719  37.794   6.692
 3223POPC   C3A42401  15.881  37.604   7.098
 3223POPC   C4A42402  15.954  37.737   7.537
 3223POPC   C1B42403  16.234  38.077   6.218
 3223POPC   C2B42404  16.222  37.977   6.664
 3223POPC   C3B42405  16.314  37.899   7.098
 3223POPC   C4B42406  16.328  38.074   7.520
 3224POPC   NC342407  18.717  38.727   5.514
 3224POPC   PO442408  19.224  38.317   5.465
 3224POPC   GL142409  19.195  38.290   5.862
 3224POPC   GL242410  18.841  38.388   5.870
 3224POPC   C1A42411  19.213  38.454   6.255
 3224POPC   D2A42412  18.950  38.460   6.615
 3224POPC   C3A42413  19.116  38.523   7.003
 3224POPC   C4A42414  19.135  38.780   7.346
 3224POPC   C1B42415  18.768  38.187   6.220
 3224POPC   C2B42416  18.743  37.983   6.582
 3224POPC   C3B42417  18.815  38.091   7.016
 3224POPC   C4B42418  18.982  38.276   7.434
 3225POPC   NC342419   5.658  25.321   5.412
 3225POPC   PO442420   6.257  25.196   5.608
 3225POPC   GL142421   5.990  25.370   5.903
 3225POPC   GL242422   5.754  25.619   5.800
 3225POPC   C1A42423   5.855  25.246   6.295
 3225POPC   D2A42424   5.815  25.150   6.725
 3225POPC   C3A42425   6.162  25.020   7.003
 3225POPC   C4A42426   6.177  25.121   7.447
 3225POPC   C1B42427   5.515  25.615   6.163
 3225POPC   C2B42428   5.401  25.362   6.527
 3225POPC   C3B42429   5.461  25.459   6.946
 3225POPC   C4B42430   5.733  25.242   7.213
 3226POPC   NC342431   6.953  19.032   5.215
 3226POPC   PO442432   7.611  18.980   5.426
 3226POPC   GL142433   7.369  19.059   5.806
 3226POPC   GL242434   7.040  18.848   5.822
 3226POPC   C1A42435   7.577  19.170   6.195
 3226POPC   D2A42436   7.671  19.092   6.625
 3226POPC   C3A42437   7.621  19.410   6.945
 3226POPC   C4A42438   7.410  19.223   7.283
 3226POPC   C1B42439   7.149  18.905   6.293
 3226POPC   C2B42440   7.129  18.976   6.753
 3226POPC   C3B42441   7.261  18.746   7.104
 3226POPC   C4B42442   7.256  18.781   7.548
 3227POPC   NC342443  38.673  39.108   5.286
 3227POPC   PO442444  38.305  39.609   5.502
 3227POPC   GL142445  38.426  39.290   5.840
 3227POPC   GL242446  38.728  39.021   5.804
 3227POPC   C1A42447  38.216  39.197   6.245
 3227POPC   D2A42448  38.303  38.894   6.563
 3227POPC   C3A42449  38.271  39.080   6.972
 3227POPC   C4A42450  38.375  39.035   7.408
 3227POPC   C1B42451  38.726  39.141   6.260
 3227POPC   C2B42452  38.768  39.047   6.703
 3227POPC   C3B42453  38.739  39.241   7.103
 3227POPC   C4B42454  38.825  39.375   7.524
 3228POPC   NC342455  18.533  42.898   5.536
 3228POPC   PO442456  18.308  43.505   5.304
 3228POPC   GL142457  18.230  43.249   5.713
 3228POPC   GL242458  18.067  42.948   5.715
 3228POPC   C1A42459  18.077  43.294   6.169
 3228POPC   D2A42460  18.183  43.347   6.631
 3228POPC   C3A42461  18.068  43.211   7.058
 3228POPC   C4A42462  18.482  43.275   7.248
 3228POPC   C1B42463  18.212  42.811   6.157
 3228POPC   C2B42464  18.056  42.864   6.584
 3228POPC   C3B42465  18.393  42.868   6.889
 3228POPC   C4B42466  18.628  42.523   7.056
 3229POPC   NC342467  33.937  15.946   5.390
 3229POPC   PO442468  33.427  16.305   5.675
 3229POPC   GL142469  33.634  15.911   5.821
 3229POPC   GL242470  33.986  15.720   5.846
 3229POPC   C1A42471  33.626  15.748   6.223
 3229POPC   D2A42472  33.705  15.982   6.600
 3229POPC   C3A42473  33.721  15.748   6.977
 3229POPC   C4A42474  33.524  15.777   7.374
 3229POPC   C1B42475  34.080  16.104   6.052
 3229POPC   C2B42476  34.151  16.243   6.484
 3229POPC   C3B42477  34.033  16.257   6.903
 3229POPC   C4B42478  34.065  16.016   7.231
 3230POPC   NC342479  34.008  44.629   5.381
 3230POPC   PO442480  33.465   0.049   5.540
 3230POPC   GL142481  33.623  44.834   5.912
 3230POPC   GL242482  33.774  44.523   5.906
 3230POPC   C1A42483  33.624  44.757   6.353
 3230POPC   D2A42484  33.889  44.797   6.694
 3230POPC   C3A42485  33.776   0.026   7.046
 3230POPC   C4A42486  33.477  44.762   7.232
 3230POPC   C1B42487  34.151  44.408   6.154
 3230POPC   C2B42488  34.309  44.505   6.565
 3230POPC   C3B42489  34.137  44.456   6.963
 3230POPC   C4B42490  34.134  44.202   7.309
 3231POPC   NC342491  30.480   0.496   5.427
 3231POPC   PO442492  30.884   0.048   5.617
 3231POPC   GL142493  30.730   0.294   5.896
 3231POPC   GL242494  30.406   0.203   5.850
 3231POPC   C1A42495  30.751   0.332   6.336
 3231POPC   D2A42496  30.922   0.627   6.621
 3231POPC   C3A42497  30.799   0.504   7.027
 3231POPC   C4A42498  31.025   0.124   7.170
 3231POPC   C1B42499  30.336   0.572   6.168
 3231POPC   C2B42500  30.388   0.619   6.658
 3231POPC   C3B42501  30.290   0.403   7.087
 3231POPC   C4B42502  30.264   0.581   7.520
 3232POPC   NC342503  14.966  36.590   5.376
 3232POPC   PO442504  14.995  37.214   5.554
 3232POPC   GL142505  15.238  37.015   5.820
 3232POPC   GL242506  15.386  36.734   5.631
 3232POPC   C1A42507  15.212  37.081   6.266
 3232POPC   D2A42508  15.373  37.381   6.568
 3232POPC   C3A42509  15.298  37.233   6.984
 3232POPC   C4A42510  15.486  36.988   7.276
 3232POPC   C1B42511  15.322  36.595   6.086
 3232POPC   C2B42512  15.467  36.648   6.533
 3232POPC   C3B42513  15.233  36.646   6.945
 3232POPC   C4B42514  14.982  36.874   7.251
 3233POPC   NC342515  41.269   6.725   5.314
 3233POPC   PO442516  40.638   6.877   5.345
 3233POPC   GL142517  40.619   6.646   5.740
 3233POPC   GL242518  40.937   6.625   5.870
 3233POPC   C1A42519  40.545   6.449   6.149
 3233POPC   D2A42520  40.737   6.358   6.560
 3233POPC   C3A42521  40.543   6.508   6.967
 3233POPC   C4A42522  40.752   6.532   7.392
 3233POPC   C1B42523  40.772   6.910   6.207
 3233POPC   C2B42524  40.793   6.874   6.647
 3233POPC   C3B42525  41.017   6.758   7.005
 3233POPC   C4B42526  40.905   7.079   7.268
 3234POPC   NC342527  42.580  37.658   5.486
 3234POPC   PO442528  41.896  37.502   5.465
 3234POPC   GL142529  42.187  37.453   5.799
 3234POPC   GL242530  42.302  37.806   5.916
 3234POPC   C1A42531  42.280  37.372   6.235
 3234POPC   D2A42532  42.138  37.492   6.660
 3234POPC   C3A42533  42.452  37.663   6.902
 3234POPC   C4A42534  42.581  37.523   7.282
 3234POPC   C1B42535  42.384  37.875   6.383
 3234POPC   C2B42536  42.311  38.148   6.772
 3234POPC   C3B42537  42.201  38.041   7.186
 3234POPC   C4B42538  42.024  37.595   7.196
 3235POPC   NC342539   0.960  29.083   5.361
 3235POPC   PO442540   1.528  29.295   5.271
 3235POPC   GL142541   1.320  29.184   5.697
 3235POPC   GL242542   1.388  28.853   5.827
 3235POPC   C1A42543   1.128  29.177   6.129
 3235POPC   D2A42544   1.307  29.305   6.513
 3235POPC   C3A42545   1.118  29.392   6.907
 3235POPC   C4A42546   0.816  29.365   7.227
 3235POPC   C1B42547   1.509  28.867   6.282
 3235POPC   C2B42548   1.292  28.835   6.716
 3235POPC   C3B42549   1.258  28.975   7.149
 3235POPC   C4B42550   1.564  28.910   7.490
 3236POPC   NC342551  11.794  12.248   5.459
 3236POPC   PO442552  12.147  11.760   5.457
 3236POPC   GL142553  11.954  11.914   5.829
 3236POPC   GL242554  12.315  12.003   5.929
 3236POPC   C1A42555  11.962  11.875   6.293
 3236POPC   D2A42556  12.317  11.854   6.628
 3236POPC   C3A42557  12.375  12.094   7.009
 3236POPC   C4A42558  12.272  12.031   7.437
 3236POPC   C1B42559  12.294  12.264   6.318
 3236POPC   C2B42560  11.990  12.302   6.662
 3236POPC   C3B42561  11.813  12.439   7.079
 3236POPC   C4B42562  11.865  12.352   7.549
 3237POPC   NC342563  29.356   6.903   5.613
 3237POPC   PO442564  28.847   6.424   5.435
 3237POPC   GL142565  29.031   6.555   5.810
 3237POPC   GL242566  28.874   6.855   5.859
 3237POPC   C1A42567  29.265   6.652   6.235
 3237POPC   D2A42568  29.434   6.841   6.640
 3237POPC   C3A42569  29.297   6.689   7.043
 3237POPC   C4A42570  29.414   6.350   7.341
 3237POPC   C1B42571  28.762   6.656   6.236
 3237POPC   C2B42572  28.907   6.744   6.665
 3237POPC   C3B42573  28.742   6.610   7.066
 3237POPC   C4B42574  28.972   6.592   7.453
 3238POPC   NC342575   5.857  25.977   5.435
 3238POPC   PO442576   6.109  26.518   5.214
 3238POPC   GL142577   6.008  26.371   5.734
 3238POPC   GL242578   5.737  26.116   5.911
 3238POPC   C1A42579   6.049  26.367   6.200
 3238POPC   D2A42580   5.709  26.192   6.446
 3238POPC   C3A42581   5.763  26.088   6.872
 3238POPC   C4A42582   6.134  26.075   7.119
 3238POPC   C1B42583   6.001  25.845   6.179
 3238POPC   C2B42584   5.863  25.673   6.556
 3238POPC   C3B42585   5.943  25.616   6.948
 3238POPC   C4B42586   5.668  25.773   7.293
 3239POPC   NC342587  13.149  27.284   5.438
 3239POPC   PO442588  12.701  27.774   5.354
 3239POPC   GL142589  12.855  27.527   5.782
 3239POPC   GL242590  13.108  27.246   5.937
 3239POPC   C1A42591  12.930  27.639   6.230
 3239POPC   D2A42592  12.761  27.922   6.540
 3239POPC   C3A42593  12.720  27.805   6.961
 3239POPC   C4A42594  12.474  27.980   7.263
 3239POPC   C1B42595  12.777  27.146   6.244
 3239POPC   C2B42596  12.646  27.361   6.621
 3239POPC   C3B42597  12.999  27.377   6.917
 3239POPC   C4B42598  13.041  27.551   7.327
 3240POPC   NC342599   4.971   5.306   5.370
 3240POPC   PO442600   5.590   5.006   5.353
 3240POPC   GL142601   5.325   5.184   5.726
 3240POPC   GL242602   5.016   4.973   5.767
 3240POPC   C1A42603   5.224   5.205   6.187
 3240POPC   D2A42604   5.342   5.332   6.606
 3240POPC   C3A42605   5.094   5.409   6.939
 3240POPC   C4A42606   5.128   5.215   7.321
 3240POPC   C1B42607   4.960   4.775   6.165
 3240POPC   C2B42608   5.192   4.805   6.560
 3240POPC   C3B42609   4.977   4.885   6.967
 3240POPC   C4B42610   4.729   4.899   7.378
 3241POPC   NC342611  15.473  22.003   5.304
 3241POPC   PO442612  15.005  22.418   5.475
 3241POPC   GL142613  15.364  22.323   5.781
 3241POPC   GL242614  15.356  21.937   5.812
 3241POPC   C1A42615  15.455  22.590   6.185
 3241POPC   D2A42616  15.541  22.474   6.637
 3241POPC   C3A42617  15.220  22.447   6.951
 3241POPC   C4A42618  15.118  22.325   7.358
 3241POPC   C1B42619  15.415  21.782   6.250
 3241POPC   C2B42620  15.285  21.989   6.663
 3241POPC   C3B42621  15.233  21.903   7.113
 3241POPC   C4B42622  15.398  21.934   7.534
 3242POPC   NC342623  24.262  27.874   5.290
 3242POPC   PO442624  24.371  28.543   5.447
 3242POPC   GL142625  24.408  28.315   5.803
 3242POPC   GL242626  24.571  28.637   5.942
 3242POPC   C1A42627  24.659  28.182   6.155
 3242POPC   D2A42628  24.679  28.411   6.542
 3242POPC   C3A42629  24.634  28.251   6.984
 3242POPC   C4A42630  24.654  28.611   7.274
 3242POPC   C1B42631  24.250  28.508   6.236
 3242POPC   C2B42632  24.188  28.330   6.635
 3242POPC   C3B42633  24.219  28.550   7.021
 3242POPC   C4B42634  24.223  28.341   7.403
 3243POPC   NC342635  40.753  14.646   5.407
 3243POPC   PO442636  41.153  14.119   5.368
 3243POPC   GL142637  40.978  14.343   5.764
 3243POPC   GL242638  40.647  14.434   5.872
 3243POPC   C1A42639  40.946  14.263   6.241
 3243POPC   D2A42640  40.756  14.380   6.637
 3243POPC   C3A42641  41.022  14.318   7.024
 3243POPC   C4A42642  41.049  14.145   7.447
 3243POPC   C1B42643  40.398  14.561   6.267
 3243POPC   C2B42644  40.375  14.736   6.720
 3243POPC   C3B42645  40.494  14.440   7.078
 3243POPC   C4B42646  40.631  14.492   7.536
 3244POPC   NC342647  11.100  11.630   5.497
 3244POPC   PO442648  11.462  11.015   5.543
 3244POPC   GL142649  11.396  11.274   5.864
 3244POPC   GL242650  11.471  11.616   5.868
 3244POPC   C1A42651  11.169  11.403   6.215
 3244POPC   D2A42652  11.127  11.603   6.586
 3244POPC   C3A42653  11.201  11.372   6.960
 3244POPC   C4A42654  11.475  11.217   7.251
 3244POPC   C1B42655  11.405  11.857   6.223
 3244POPC   C2B42656  11.576  11.922   6.636
 3244POPC   C3B42657  11.585  11.735   7.039
 3244POPC   C4B42658  11.290  11.696   7.363
 3245POPC   NC342659  36.183  25.156   5.524
 3245POPC   PO442660  35.684  25.593   5.539
 3245POPC   GL142661  35.931  25.441   5.887
 3245POPC   GL242662  35.915  25.090   5.955
 3245POPC   C1A42663  35.922  25.423   6.335
 3245POPC   D2A42664  35.911  25.208   6.689
 3245POPC   C3A42665  35.969  25.552   6.939
 3245POPC   C4A42666  36.229  25.503   7.249
 3245POPC   C1B42667  36.135  24.886   6.298
 3245POPC   C2B42668  36.326  24.891   6.697
 3245POPC   C3B42669  36.265  24.998   7.147
 3245POPC   C4B42670  36.362  25.007   7.618
 3246POPC   NC342671  27.447  18.668   5.468
 3246POPC   PO442672  27.593  19.255   5.231
 3246POPC   GL142673  27.748  19.051   5.656
 3246POPC   GL242674  27.919  19.356   5.819
 3246POPC   C1A42675  27.698  18.870   6.051
 3246POPC   D2A42676  27.784  18.867   6.480
 3246POPC   C3A42677  27.526  18.813   6.838
 3246POPC   C4A42678  27.457  19.099   7.202
 3246POPC   C1B42679  27.764  19.337   6.252
 3246POPC   C2B42680  27.636  19.339   6.680
 3246POPC   C3B42681  27.798  19.469   7.062
 3246POPC   C4B42682  27.762  19.420   7.505
 3247POPC   NC342683   9.556  22.165   5.328
 3247POPC   PO442684   9.978  21.695   5.407
 3247POPC   GL142685   9.761  21.942   5.765
 3247POPC   GL242686   9.479  21.787   5.848
 3247POPC   C1A42687   9.654  22.161   6.225
 3247POPC   D2A42688   9.826  22.314   6.671
 3247POPC   C3A42689   9.569  22.333   7.071
 3247POPC   C4A42690   9.639  22.501   7.533
 3247POPC   C1B42691   9.815  21.682   6.206
 3247POPC   C2B42692   9.755  21.800   6.669
 3247POPC   C3B42693   9.544  21.734   7.076
 3247POPC   C4B42694   9.701  21.664   7.494
 3248POPC   NC342695  20.726  22.502   5.527
 3248POPC   PO442696  20.265  22.095   5.391
 3248POPC   GL142697  20.465  22.102   5.777
 3248POPC   GL242698  20.443  21.757   5.836
 3248POPC   C1A42699  20.703  22.228   6.177
 3248POPC   D2A42700  20.845  22.444   6.575
 3248POPC   C3A42701  20.868  22.178   6.957
 3248POPC   C4A42702  20.732  22.265   7.383
 3248POPC   C1B42703  20.254  21.919   6.205
 3248POPC   C2B42704  20.511  21.934   6.574
 3248POPC   C3B42705  20.324  21.829   6.936
 3248POPC   C4B42706  20.482  21.829   7.308
 3249POPC   NC342707  23.195  24.322   5.391
 3249POPC   PO442708  22.816  24.892   5.452
 3249POPC   GL142709  22.796  24.568   5.802
 3249POPC   GL242710  22.732  24.211   5.701
 3249POPC   C1A42711  22.953  24.483   6.232
 3249POPC   D2A42712  22.952  24.726   6.632
 3249POPC   C3A42713  23.127  24.660   7.055
 3249POPC   C4A42714  22.801  24.638   7.391
 3249POPC   C1B42715  22.539  24.119   6.109
 3249POPC   C2B42716  22.621  24.227   6.549
 3249POPC   C3B42717  22.779  24.289   6.959
 3249POPC   C4B42718  22.580  24.171   7.333
 3250POPC   NC342719  33.109  29.703   5.642
 3250POPC   PO442720  33.126  30.284   5.345
 3250POPC   GL142721  32.937  30.206   5.786
 3250POPC   GL242722  33.231  30.221   5.954
 3250POPC   C1A42723  32.873  30.036   6.269
 3250POPC   D2A42724  32.981  29.687   6.628
 3250POPC   C3A42725  32.831  29.785   7.050
 3250POPC   C4A42726  32.752  30.237   7.069
 3250POPC   C1B42727  33.324  30.319   6.343
 3250POPC   C2B42728  33.100  30.337   6.685
 3250POPC   C3B42729  33.245  30.045   6.938
 3250POPC   C4B42730  33.322  29.662   7.178
 3251POPC   NC342731   7.559  39.411   5.284
 3251POPC   PO442732   7.078  39.014   5.513
 3251POPC   GL142733   7.404  39.222   5.784
 3251POPC   GL242734   7.572  39.563   5.781
 3251POPC   C1A42735   7.372  39.272   6.224
 3251POPC   D2A42736   7.042  39.318   6.527
 3251POPC   C3A42737   7.134  39.127   6.906
 3251POPC   C4A42738   7.301  39.289   7.304
 3251POPC   C1B42739   7.648  39.707   6.229
 3251POPC   C2B42740   7.572  39.510   6.672
 3251POPC   C3B42741   7.587  39.674   7.140
 3251POPC   C4B42742   7.641  39.575   7.637
 3252POPC   NC342743  44.828  38.598   5.695
 3252POPC   PO442744   0.324  38.139   5.514
 3252POPC   GL142745   0.052  38.202   5.924
 3252POPC   GL242746  44.828  37.955   5.997
 3252POPC   C1A42747  44.819  38.410   6.310
 3252POPC   D2A42748  44.452  38.365   6.617
 3252POPC   C3A42749  44.539  38.596   6.986
 3252POPC   C4A42750  44.945  38.723   7.150
 3252POPC   C1B42751  44.610  37.952   6.340
 3252POPC   C2B42752  44.906  38.053   6.674
 3252POPC   C3B42753  44.712  38.123   7.047
 3252POPC   C4B42754  44.233  38.181   7.072
 3253POPC   NC342755  10.063  15.524   5.534
 3253POPC   PO442756   9.471  15.160   5.444
 3253POPC   GL142757   9.675  15.123   5.831
 3253POPC   GL242758   9.728  15.460   5.901
 3253POPC   C1A42759   9.571  15.042   6.272
 3253POPC   D2A42760   9.803  15.257   6.608
 3253POPC   C3A42761   9.878  15.040   6.965
 3253POPC   C4A42762  10.118  14.913   7.327
 3253POPC   C1B42763   9.567  15.552   6.269
 3253POPC   C2B42764   9.400  15.564   6.712
 3253POPC   C3B42765   9.708  15.553   7.022
 3253POPC   C4B42766   9.962  15.418   7.304
 3254POPC   NC342767  29.183  31.625   5.495
 3254POPC   PO442768  28.486  31.286   5.432
 3254POPC   GL142769  28.445  31.509   5.848
 3254POPC   GL242770  28.098  31.562   5.886
 3254POPC   C1A42771  28.402  31.562   6.310
 3254POPC   D2A42772  28.321  31.338   6.701
 3254POPC   C3A42773  28.329  31.409   7.150
 3254POPC   C4A42774  28.544  31.636   7.465
 3254POPC   C1B42775  28.117  31.161   6.170
 3254POPC   C2B42776  28.167  30.873   6.563
 3254POPC   C3B42777  27.993  31.036   6.974
 3254POPC   C4B42778  27.803  31.419   7.216
 3255POPC   NC342779   5.254  10.867   5.293
 3255POPC   PO442780   5.107  10.223   5.251
 3255POPC   GL142781   5.050  10.464   5.662
 3255POPC   GL242782   5.032  10.098   5.738
 3255POPC   C1A42783   4.940  10.674   6.110
 3255POPC   D2A42784   5.245  10.630   6.486
 3255POPC   C3A42785   5.166  10.723   6.925
 3255POPC   C4A42786   5.381  10.489   7.219
 3255POPC   C1B42787   5.146  10.217   6.129
 3255POPC   C2B42788   4.851  10.287   6.449
 3255POPC   C3B42789   4.726  10.384   6.841
 3255POPC   C4B42790   4.905  10.338   7.225
 3256POPC   NC342791   0.108  25.240   5.533
 3256POPC   PO442792   0.729  25.355   5.328
 3256POPC   GL142793   0.566  25.286   5.784
 3256POPC   GL242794   0.408  25.557   5.948
 3256POPC   C1A42795   0.391  25.098   6.189
 3256POPC   D2A42796   0.414  25.303   6.620
 3256POPC   C3A42797   0.250  25.069   6.967
 3256POPC   C4A42798   0.061  25.198   7.357
 3256POPC   C1B42799   0.769  25.422   6.239
 3256POPC   C2B42800   0.959  25.406   6.636
 3256POPC   C3B42801   0.778  25.298   7.004
 3256POPC   C4B42802   0.471  25.452   7.207
 3257POPC   NC342803  34.221  19.135   5.520
 3257POPC   PO442804  33.546  19.086   5.501
 3257POPC   GL142805  33.832  19.014   5.839
 3257POPC   GL242806  34.021  18.690   5.834
 3257POPC   C1A42807  33.763  19.063   6.253
 3257POPC   D2A42808  33.491  19.028   6.570
 3257POPC   C3A42809  33.773  19.231   6.873
 3257POPC   C4A42810  33.840  19.201   7.303
 3257POPC   C1B42811  34.235  18.846   6.217
 3257POPC   C2B42812  34.230  19.044   6.621
 3257POPC   C3B42813  34.202  18.832   7.030
 3257POPC   C4B42814  34.345  18.701   7.453
 3258POPC   NC342815  44.465  44.923   5.132
 3258POPC   PO442816  44.751   0.565   5.399
 3258POPC   GL142817  44.817   0.512   5.865
 3258POPC   GL242818   0.131   0.688   5.896
 3258POPC   C1A42819  44.647   0.391   6.326
 3258POPC   D2A42820  44.381   0.122   6.651
 3258POPC   C3A42821  44.420   0.221   7.111
 3258POPC   C4A42822  44.529   0.335   7.555
 3258POPC   C1B42823   0.162   0.433   6.273
 3258POPC   C2B42824   0.057   0.400   6.712
 3258POPC   C3B42825  44.785   0.592   7.010
 3258POPC   C4B42826  44.783   0.758   7.424
 3259POPC   NC342827  42.176  29.353   5.387
 3259POPC   PO442828  42.682  28.933   5.328
 3259POPC   GL142829  42.574  29.047   5.753
 3259POPC   GL242830  42.242  29.152   5.840
 3259POPC   C1A42831  42.580  29.092   6.226
 3259POPC   D2A42832  42.643  29.296   6.648
 3259POPC   C3A42833  42.452  29.136   7.051
 3259POPC   C4A42834  42.110  28.836   7.170
 3259POPC   C1B42835  42.033  29.052   6.214
 3259POPC   C2B42836  42.140  29.062   6.642
 3259POPC   C3B42837  41.942  29.294   6.961
 3259POPC   C4B42838  41.937  29.428   7.349
 3260POPC   NC342839   6.518  33.140   5.508
 3260POPC   PO442840   7.048  32.680   5.567
 3260POPC   GL142841   6.820  32.896   5.886
 3260POPC   GL242842   6.473  32.766   5.837
 3260POPC   C1A42843   6.932  33.185   6.252
 3260POPC   D2A42844   6.942  33.381   6.671
 3260POPC   C3A42845   6.903  33.104   7.056
 3260POPC   C4A42846   6.513  32.927   7.254
 3260POPC   C1B42847   6.438  33.037   6.201
 3260POPC   C2B42848   6.579  32.987   6.623
 3260POPC   C3B42849   6.466  33.319   6.886
 3260POPC   C4B42850   6.251  33.405   7.248
 3261POPC   NC342851  43.373   4.554   5.572
 3261POPC   PO442852  42.988   4.026   5.579
 3261POPC   GL142853  43.090   4.301   5.942
 3261POPC   GL242854  43.454   4.265   6.002
 3261POPC   C1A42855  43.208   4.619   6.296
 3261POPC   D2A42856  43.363   4.632   6.750
 3261POPC   C3A42857  43.153   4.461   7.094
 3261POPC   C4A42858  42.818   4.713   7.260
 3261POPC   C1B42859  43.276   4.098   6.404
 3261POPC   C2B42860  42.998   3.994   6.766
 3261POPC   C3B42861  43.102   3.905   7.218
 3261POPC   C4B42862  43.095   4.035   7.680
 3262POPC   NC342863  23.369  17.631   5.355
 3262POPC   PO442864  22.836  17.152   5.229
 3262POPC   GL142865  22.970  17.169   5.714
 3262POPC   GL242866  23.297  17.295   5.864
 3262POPC   C1A42867  22.852  17.362   6.145
 3262POPC   D2A42868  22.628  17.415   6.545
 3262POPC   C3A42869  22.798  17.368   6.978
 3262POPC   C4A42870  22.750  17.735   7.225
 3262POPC   C1B42871  23.346  17.445   6.291
 3262POPC   C2B42872  23.337  17.849   6.505
 3262POPC   C3B42873  23.121  17.779   6.875
 3262POPC   C4B42874  23.244  17.512   7.197
 3263POPC   NC342875  23.639  20.761   5.309
 3263POPC   PO442876  24.100  20.284   5.247
 3263POPC   GL142877  23.921  20.507   5.693
 3263POPC   GL242878  23.526  20.530   5.745
 3263POPC   C1A42879  23.830  20.748   6.132
 3263POPC   D2A42880  23.605  20.965   6.505
 3263POPC   C3A42881  23.865  20.912   6.868
 3263POPC   C4A42882  23.887  20.677   7.240
 3263POPC   C1B42883  23.330  20.733   6.102
 3263POPC   C2B42884  23.364  20.514   6.522
 3263POPC   C3B42885  23.482  20.528   6.936
 3263POPC   C4B42886  23.419  20.878   7.186
 3264POPC   NC342887  28.790   7.652   5.640
 3264POPC   PO442888  29.442   7.350   5.507
 3264POPC   GL142889  29.145   7.325   5.836
 3264POPC   GL242890  29.410   7.493   6.030
 3264POPC   C1A42891  29.051   7.157   6.245
 3264POPC   D2A42892  29.352   7.313   6.533
 3264POPC   C3A42893  29.259   7.233   6.961
 3264POPC   C4A42894  28.977   7.043   7.235
 3264POPC   C1B42895  29.083   7.680   6.272
 3264POPC   C2B42896  29.003   7.633   6.722
 3264POPC   C3B42897  29.072   7.681   7.175
 3264POPC   C4B42898  28.936   7.885   7.575
 3265POPC   NC342899   1.774  26.392   5.227
 3265POPC   PO442900   2.088  25.855   5.438
 3265POPC   GL142901   2.273  25.885   5.836
 3265POPC   GL242902   1.917  25.851   5.915
 3265POPC   C1A42903   2.177  26.103   6.245
 3265POPC   D2A42904   2.287  26.207   6.629
 3265POPC   C3A42905   2.039  26.117   7.008
 3265POPC   C4A42906   1.734  26.184   7.388
 3265POPC   C1B42907   1.727  25.654   6.279
 3265POPC   C2B42908   1.891  25.683   6.695
 3265POPC   C3B42909   1.716  25.739   7.096
 3265POPC   C4B42910   1.508  25.740   7.481
 3266POPC   NC342911  34.817  26.168   5.441
 3266POPC   PO442912  34.181  25.826   5.342
 3266POPC   GL142913  34.483  25.820   5.698
 3266POPC   GL242914  34.688  26.092   5.921
 3266POPC   C1A42915  34.411  25.753   6.159
 3266POPC   D2A42916  34.600  26.083   6.469
 3266POPC   C3A42917  34.549  26.016   6.934
 3266POPC   C4A42918  34.353  25.770   7.298
 3266POPC   C1B42919  34.468  26.462   6.127
 3266POPC   C2B42920  34.278  26.487   6.568
 3266POPC   C3B42921  34.402  26.500   7.023
 3266POPC   C4B42922  34.727  26.303   7.322
 3267POPC   NC342923  22.313  27.566   4.921
 3267POPC   PO442924  21.933  27.834   5.404
 3267POPC   GL142925  22.099  27.649   5.730
 3267POPC   GL242926  22.289  27.933   5.781
 3267POPC   C1A42927  22.216  27.506   6.122
 3267POPC   D2A42928  22.395  27.625   6.515
 3267POPC   C3A42929  22.170  27.383   6.827
 3267POPC   C4A42930  22.084  27.401   7.248
 3267POPC   C1B42931  22.009  27.985   6.142
 3267POPC   C2B42932  21.921  27.856   6.585
 3267POPC   C3B42933  22.169  27.872   6.965
 3267POPC   C4B42934  21.970  27.976   7.329
 3268POPC   NC342935  19.625  20.295   5.257
 3268POPC   PO442936  20.195  20.407   5.544
 3268POPC   GL142937  19.855  20.622   5.800
 3268POPC   GL242938  19.575  20.377   5.789
 3268POPC   C1A42939  19.592  20.725   6.202
 3268POPC   D2A42940  19.459  20.901   6.615
 3268POPC   C3A42941  19.642  20.750   7.000
 3268POPC   C4A42942  19.849  20.597   7.380
 3268POPC   C1B42943  19.787  20.255   6.170
 3268POPC   C2B42944  19.557  20.354   6.564
 3268POPC   C3B42945  19.305  20.230   6.891
 3268POPC   C4B42946  19.417  20.362   7.264
 3269POPC   NC342947  14.458   3.952   5.269
 3269POPC   PO442948  14.527   4.555   5.173
 3269POPC   GL142949  14.512   4.439   5.665
 3269POPC   GL242950  14.215   4.272   5.844
 3269POPC   C1A42951  14.579   4.431   6.172
 3269POPC   D2A42952  14.481   4.246   6.622
 3269POPC   C3A42953  14.549   4.405   7.068
 3269POPC   C4A42954  14.711   4.175   7.444
 3269POPC   C1B42955  14.063   4.319   6.324
 3269POPC   C2B42956  13.978   4.261   6.806
 3269POPC   C3B42957  14.113   4.170   7.246
 3269POPC   C4B42958  14.267   4.342   7.662
 3270POPC   NC342959   1.354  36.736   5.537
 3270POPC   PO442960   0.796  37.232   5.537
 3270POPC   GL142961   1.119  37.120   5.813
 3270POPC   GL242962   1.016  36.767   5.931
 3270POPC   C1A42963   1.325  37.092   6.205
 3270POPC   D2A42964   1.185  36.917   6.608
 3270POPC   C3A42965   1.397  37.084   6.968
 3270POPC   C4A42966   1.372  36.923   7.426
 3270POPC   C1B42967   1.358  36.568   6.193
 3270POPC   C2B42968   1.452  36.428   6.635
 3270POPC   C3B42969   1.423  36.589   7.046
 3270POPC   C4B42970   1.641  36.498   7.474
 3271POPC   NC342971   2.609  29.407   5.424
 3271POPC   PO442972   3.213  29.130   5.525
 3271POPC   GL142973   2.984  29.352   5.827
 3271POPC   GL242974   2.635  29.280   5.914
 3271POPC   C1A42975   2.993  29.323   6.272
 3271POPC   D2A42976   2.714  29.315   6.606
 3271POPC   C3A42977   2.947  29.414   6.961
 3271POPC   C4A42978   2.762  29.196   7.290
 3271POPC   C1B42979   2.491  29.008   6.249
 3271POPC   C2B42980   2.349  28.947   6.708
 3271POPC   C3B42981   2.403  28.823   7.173
 3271POPC   C4B42982   2.510  28.890   7.634
 3272POPC   NC342983  14.237   7.568   5.504
 3272POPC   PO442984  14.613   7.084   5.498
 3272POPC   GL142985  14.554   7.358   5.863
 3272POPC   GL242986  14.197   7.376   5.976
 3272POPC   C1A42987  14.539   7.587   6.293
 3272POPC   D2A42988  14.284   7.722   6.658
 3272POPC   C3A42989  14.494   7.640   7.043
 3272POPC   C4A42990  14.554   7.300   7.308
 3272POPC   C1B42991  14.143   7.086   6.305
 3272POPC   C2B42992  14.179   6.871   6.686
 3272POPC   C3B42993  14.153   7.017   7.098
 3272POPC   C4B42994  14.056   7.449   7.224
 3273POPC   NC342995  38.731  27.058   5.326
 3273POPC   PO442996  38.689  26.370   5.314
 3273POPC   GL142997  38.466  26.519   5.685
 3273POPC   GL242998  38.791  26.701   5.738
 3273POPC   C1A42999  38.429  26.739   6.123
 3273POPC   D2A43000  38.660  26.903   6.515
 3273POPC   C3A43001  38.439  26.940   6.929
 3273POPC   C4A43002  38.330  27.061   7.352
 3273POPC   C1B43003  38.804  26.366   6.057
 3273POPC   C2B43004  38.606  26.383   6.455
 3273POPC   C3B43005  38.690  26.497   6.850
 3273POPC   C4B43006  38.681  26.391   7.242
 3274POPC   NC343007  19.481   7.167   5.128
 3274POPC   PO443008  20.044   7.492   5.386
 3274POPC   GL143009  19.779   7.339   5.720
 3274POPC   GL243010  19.582   7.037   5.660
 3274POPC   C1A43011  19.901   7.445   6.141
 3274POPC   D2A43012  20.089   7.274   6.519
 3274POPC   C3A43013  20.059   7.560   6.868
 3274POPC   C4A43014  20.126   7.377   7.256
 3274POPC   C1B43015  19.564   7.047   6.111
 3274POPC   C2B43016  19.545   7.307   6.493
 3274POPC   C3B43017  19.684   7.197   6.877
 3274POPC   C4B43018  19.633   7.281   7.285
 3275POPC   NC343019  30.355  12.731   5.157
 3275POPC   PO443020  30.486  13.203   5.596
 3275POPC   GL143021  30.686  13.002   5.895
 3275POPC   GL243022  31.029  13.042   5.788
 3275POPC   C1A43023  30.481  12.878   6.299
 3275POPC   D2A43024  30.242  13.104   6.620
 3275POPC   C3A43025  30.444  12.920   6.987
 3275POPC   C4A43026  30.594  12.505   7.111
 3275POPC   C1B43027  31.024  12.859   6.239
 3275POPC   C2B43028  30.853  12.679   6.632
 3275POPC   C3B43029  31.074  12.697   6.998
 3275POPC   C4B43030  31.215  13.086   7.139
 3276POPC   NC343031  28.590   2.944   5.528
 3276POPC   PO443032  28.010   2.631   5.419
 3276POPC   GL143033  28.178   2.736   5.821
 3276POPC   GL243034  28.522   2.545   5.832
 3276POPC   C1A43035  28.051   2.937   6.236
 3276POPC   D2A43036  28.268   3.104   6.577
 3276POPC   C3A43037  28.155   3.036   6.970
 3276POPC   C4A43038  28.131   2.767   7.317
 3276POPC   C1B43039  28.549   2.808   6.215
 3276POPC   C2B43040  28.622   2.674   6.650
 3276POPC   C3B43041  28.604   2.799   7.091
 3276POPC   C4B43042  28.588   2.721   7.535
 3277POPC   NC343043  23.470  36.154   5.386
 3277POPC   PO443044  23.968  35.645   5.254
 3277POPC   GL143045  23.870  35.822   5.669
 3277POPC   GL243046  23.621  36.091   5.852
 3277POPC   C1A43047  23.894  35.805   6.141
 3277POPC   D2A43048  23.595  35.987   6.433
 3277POPC   C3A43049  23.780  35.997   6.828
 3277POPC   C4A43050  23.726  36.091   7.218
 3277POPC   C1B43051  23.701  36.436   6.153
 3277POPC   C2B43052  23.801  36.455   6.598
 3277POPC   C3B43053  23.624  36.533   6.997
 3277POPC   C4B43054  23.873  36.634   7.368
 3278POPC   NC343055  35.188  17.773   5.034
 3278POPC   PO443056  35.288  17.262   5.501
 3278POPC   GL143057  35.469  17.453   5.817
 3278POPC   GL243058  35.511  17.774   5.603
 3278POPC   C1A43059  35.513  17.293   6.250
 3278POPC   D2A43060  35.315  17.362   6.666
 3278POPC   C3A43061  35.506  17.349   7.073
 3278POPC   C4A43062  35.268  17.329   7.472
 3278POPC   C1B43063  35.303  17.907   6.000
 3278POPC   C2B43064  35.331  17.871   6.468
 3278POPC   C3B43065  35.211  17.820   6.925
 3278POPC   C4B43066  35.369  17.797   7.353
 3279POPC   NC343067  11.650   6.873   5.723
 3279POPC   PO443068  11.101   6.953   5.249
 3279POPC   GL143069  11.155   6.864   5.790
 3279POPC   GL243070  10.895   6.759   5.911
 3279POPC   C1A43071  11.301   6.698   6.237
 3279POPC   D2A43072  11.482   6.525   6.629
 3279POPC   C3A43073  11.328   6.682   7.032
 3279POPC   C4A43074  10.984   6.609   7.279
 3279POPC   C1B43075  10.929   7.039   6.283
 3279POPC   C2B43076  10.952   6.949   6.752
 3279POPC   C3B43077  10.877   7.095   7.202
 3279POPC   C4B43078  10.912   6.919   7.669
 3280POPC   NC343079  29.692   1.629   5.465
 3280POPC   PO443080  29.882   2.335   5.406
 3280POPC   GL143081  29.934   2.232   5.820
 3280POPC   GL243082  29.686   1.967   5.867
 3280POPC   C1A43083  30.010   2.225   6.257
 3280POPC   D2A43084  30.039   1.852   6.484
 3280POPC   C3A43085  30.061   1.635   6.860
 3280POPC   C4A43086  30.239   1.808   7.239
 3280POPC   C1B43087  29.583   1.745   6.255
 3280POPC   C2B43088  29.543   1.748   6.709
 3280POPC   C3B43089  29.736   1.970   7.041
 3280POPC   C4B43090  29.672   1.773   7.445
 3281POPC   NC343091   0.159  28.445   5.053
 3281POPC   PO443092   0.714  28.696   5.386
 3281POPC   GL143093   0.552  28.559   5.846
 3281POPC   GL243094   0.177  28.566   5.923
 3281POPC   C1A43095   0.589  28.408   6.252
 3281POPC   D2A43096   0.292  28.187   6.501
 3281POPC   C3A43097   0.362  28.181   6.941
 3281POPC   C4A43098   0.223  28.213   7.354
 3281POPC   C1B43099   0.156  28.666   6.348
 3281POPC   C2B43100   0.337  28.676   6.743
 3281POPC   C3B43101   0.321  28.680   7.210
 3281POPC   C4B43102   0.037  28.621   7.594
 3282POPC   NC343103   0.348   8.255   5.519
 3282POPC   PO443104   0.833   7.788   5.612
 3282POPC   GL143105   0.621   8.064   5.894
 3282POPC   GL243106   0.757   8.431   5.817
 3282POPC   C1A43107   0.346   8.034   6.251
 3282POPC   D2A43108   0.462   7.930   6.674
 3282POPC   C3A43109   0.374   7.979   7.108
 3282POPC   C4A43110   0.311   7.881   7.558
 3282POPC   C1B43111   0.810   8.359   6.268
 3282POPC   C2B43112   0.657   8.462   6.668
 3282POPC   C3B43113   0.757   8.320   7.058
 3282POPC   C4B43114   0.673   8.260   7.495
 3283POPC   NC343115  29.664  17.493   5.416
 3283POPC   PO443116  30.367  17.673   5.250
 3283POPC   GL143117  30.072  17.625   5.712
 3283POPC   GL243118  29.718  17.620   5.896
 3283POPC   C1A43119  30.112  17.649   6.203
 3283POPC   D2A43120  30.019  17.835   6.606
 3283POPC   C3A43121  30.040  17.602   7.003
 3283POPC   C4A43122  29.733  17.704   7.305
 3283POPC   C1B43123  29.605  17.296   6.212
 3283POPC   C2B43124  29.692  17.186   6.658
 3283POPC   C3B43125  29.697  17.215   7.118
 3283POPC   C4B43126  29.863  17.279   7.539
 3284POPC   NC343127   1.771  11.781   5.609
 3284POPC   PO443128   2.213  11.304   5.572
 3284POPC   GL143129   1.903  11.106   5.874
 3284POPC   GL243130   2.046  11.388   6.085
 3284POPC   C1A43131   1.879  10.938   6.316
 3284POPC   D2A43132   2.071  11.265   6.593
 3284POPC   C3A43133   2.044  11.263   7.037
 3284POPC   C4A43134   1.855  11.507   7.321
 3284POPC   C1B43135   2.369  11.063   6.210
 3284POPC   C2B43136   2.396  10.841   6.591
 3284POPC   C3B43137   2.465  10.937   7.029
 3284POPC   C4B43138   2.383  11.118   7.456
 3285POPC   NC343139  11.733  13.260   5.088
 3285POPC   PO443140  12.198  13.606   5.389
 3285POPC   GL143141  12.080  13.772   5.786
 3285POPC   GL243142  12.446  13.837   5.801
 3285POPC   C1A43143  11.941  13.633   6.237
 3285POPC   D2A43144  11.758  13.702   6.680
 3285POPC   C3A43145  11.888  13.461   7.094
 3285POPC   C4A43146  11.941  13.468   7.572
 3285POPC   C1B43147  12.321  13.980   6.203
 3285POPC   C2B43148  12.223  13.885   6.625
 3285POPC   C3B43149  12.095  14.096   6.985
 3285POPC   C4B43150  12.106  13.946   7.390
 3286POPC   NC343151  32.516   8.447   5.495
 3286POPC   PO443152  32.049   8.052   5.408
 3286POPC   GL143153  32.151   8.205   5.807
 3286POPC   GL243154  32.495   8.077   5.872
 3286POPC   C1A43155  32.130   8.343   6.238
 3286POPC   D2A43156  32.271   8.162   6.626
 3286POPC   C3A43157  32.182   8.414   6.979
 3286POPC   C4A43158  32.316   8.381   7.384
 3286POPC   C1B43159  32.638   8.382   6.208
 3286POPC   C2B43160  32.766   8.256   6.635
 3286POPC   C3B43161  32.614   8.112   7.030
 3286POPC   C4B43162  32.833   8.387   7.305
 3287POPC   NC343163   9.036  20.236   5.555
 3287POPC   PO443164   9.071  19.549   5.515
 3287POPC   GL143165   8.804  19.797   5.800
 3287POPC   GL243166   9.113  19.896   5.949
 3287POPC   C1A43167   8.729  19.949   6.255
 3287POPC   D2A43168   9.119  19.888   6.497
 3287POPC   C3A43169   9.091  19.816   6.913
 3287POPC   C4A43170   8.963  19.661   7.291
 3287POPC   C1B43171   9.014  19.498   6.184
 3287POPC   C2B43172   9.094  19.379   6.606
 3287POPC   C3B43173   9.344  19.358   6.993
 3287POPC   C4B43174   9.385  19.353   7.451
 3288POPC   NC343175  43.444  40.989   5.523
 3288POPC   PO443176  43.059  40.465   5.405
 3288POPC   GL143177  43.017  40.703   5.816
 3288POPC   GL243178  43.354  40.718   5.958
 3288POPC   C1A43179  42.766  40.722   6.218
 3288POPC   D2A43180  42.778  40.696   6.648
 3288POPC   C3A43181  43.122  40.816   6.889
 3288POPC   C4A43182  43.048  41.144   7.109
 3288POPC   C1B43183  43.274  40.722   6.405
 3288POPC   C2B43184  43.233  40.366   6.685
 3288POPC   C3B43185  43.263  40.381   7.115
 3288POPC   C4B43186  43.184  40.696   7.402
 3289POPC   NC343187  12.448  16.944   5.467
 3289POPC   PO443188  13.204  17.235   5.429
 3289POPC   GL143189  12.946  17.005   5.733
 3289POPC   GL243190  12.940  16.653   5.747
 3289POPC   C1A43191  12.735  16.976   6.134
 3289POPC   D2A43192  12.638  16.730   6.504
 3289POPC   C3A43193  12.735  16.953   6.884
 3289POPC   C4A43194  12.527  16.998   7.260
 3289POPC   C1B43195  12.890  16.446   6.140
 3289POPC   C2B43196  13.131  16.346   6.500
 3289POPC   C3B43197  13.047  16.523   6.906
 3289POPC   C4B43198  12.814  16.369   7.267
 3290POPC   NC343199  11.404   7.742   5.533
 3290POPC   PO443200  11.247   8.441   5.543
 3290POPC   GL143201  11.468   8.191   5.819
 3290POPC   GL243202  11.167   8.004   5.914
 3290POPC   C1A43203  11.448   8.259   6.264
 3290POPC   D2A43204  11.139   8.106   6.545
 3290POPC   C3A43205  11.243   8.227   6.953
 3290POPC   C4A43206  11.329   8.022   7.324
 3290POPC   C1B43207  11.493   7.773   6.154
 3290POPC   C2B43208  11.579   7.701   6.522
 3290POPC   C3B43209  11.379   7.720   6.895
 3290POPC   C4B43210  11.526   7.549   7.277
 3291POPC   NC343211  27.089  24.579   5.372
 3291POPC   PO443212  26.451  24.297   5.373
 3291POPC   GL143213  26.553  24.516   5.761
 3291POPC   GL243214  26.896  24.496   5.838
 3291POPC   C1A43215  26.513  24.561   6.220
 3291POPC   D2A43216  26.565  24.786   6.625
 3291POPC   C3A43217  26.736  24.598   7.015
 3291POPC   C4A43218  26.691  24.486   7.457
 3291POPC   C1B43219  27.002  24.776   6.170
 3291POPC   C2B43220  27.081  24.615   6.570
 3291POPC   C3B43221  27.205  24.307   6.861
 3291POPC   C4B43222  27.174  24.443   7.277
 3292POPC   NC343223  12.798  19.362   5.430
 3292POPC   PO443224  12.266  18.893   5.326
 3292POPC   GL143225  12.531  18.908   5.758
 3292POPC   GL243226  12.807  18.654   5.745
 3292POPC   C1A43227  12.844  19.050   6.119
 3292POPC   D2A43228  13.087  19.254   6.486
 3292POPC   C3A43229  12.884  19.288   6.934
 3292POPC   C4A43230  12.685  19.216   7.412
 3292POPC   C1B43231  13.124  18.632   6.085
 3292POPC   C2B43232  13.087  18.705   6.535
 3292POPC   C3B43233  13.021  18.752   6.998
 3292POPC   C4B43234  12.890  18.770   7.449
 3293POPC   NC343235  16.516  44.558   5.227
 3293POPC   PO443236  17.039  44.353   5.450
 3293POPC   GL143237  16.701  44.467   5.723
 3293POPC   GL243238  16.709  44.786   5.689
 3293POPC   C1A43239  16.337  44.674   5.987
 3293POPC   D2A43240  16.338  44.855   6.408
 3293POPC   C3A43241  16.575  44.582   6.716
 3293POPC   C4A43242  16.600  44.584   7.168
 3293POPC   C1B43243  16.801  44.852   6.141
 3293POPC   C2B43244  16.850  44.990   6.582
 3293POPC   C3B43245  17.031  44.897   7.018
 3293POPC   C4B43246  16.928  44.854   7.459
 3294POPC   NC343247   3.753  24.576   5.406
 3294POPC   PO443248   3.089  24.436   5.271
 3294POPC   GL143249   3.317  24.586   5.697
 3294POPC   GL243250   3.657  24.771   5.869
 3294POPC   C1A43251   3.498  24.324   6.043
 3294POPC   D2A43252   3.662  24.409   6.462
 3294POPC   C3A43253   3.452  24.252   6.824
 3294POPC   C4A43254   3.545  24.370   7.267
 3294POPC   C1B43255   3.358  24.826   6.164
 3294POPC   C2B43256   3.273  24.971   6.557
 3294POPC   C3B43257   3.268  24.736   6.931
 3294POPC   C4B43258   3.384  24.869   7.316
 3295POPC   NC343259  30.073  35.256   5.486
 3295POPC   PO443260  30.136  35.941   5.206
 3295POPC   GL143261  30.235  35.732   5.699
 3295POPC   GL243262  29.933  35.562   5.867
 3295POPC   C1A43263  30.295  35.590   6.199
 3295POPC   D2A43264  30.181  35.244   6.510
 3295POPC   C3A43265  30.184  35.348   6.943
 3295POPC   C4A43266  30.400  35.363   7.322
 3295POPC   C1B43267  29.780  35.506   6.312
 3295POPC   C2B43268  29.688  35.386   6.768
 3295POPC   C3B43269  29.730  35.615   7.162
 3295POPC   C4B43270  29.606  35.603   7.627
 3296POPC   NC343271  19.634  10.387   5.211
 3296POPC   PO443272  18.999  10.522   5.239
 3296POPC   GL143273  18.872  10.638   5.677
 3296POPC   GL243274  19.164  10.768   5.921
 3296POPC   C1A43275  18.747  10.524   6.117
 3296POPC   D2A43276  18.996  10.660   6.466
 3296POPC   C3A43277  19.002  10.527   6.872
 3296POPC   C4A43278  19.277  10.342   7.172
 3296POPC   C1B43279  19.425  10.889   6.312
 3296POPC   C2B43280  19.352  10.911   6.782
 3296POPC   C3B43281  19.508  10.812   7.194
 3296POPC   C4B43282  19.760  10.663   7.529
 3297POPC   NC343283  43.651  44.512   5.397
 3297POPC   PO443284  43.340   0.080   5.640
 3297POPC   GL143285  43.637  44.776   5.878
 3297POPC   GL243286  43.572  44.400   5.887
 3297POPC   C1A43287  43.735  44.643   6.332
 3297POPC   D2A43288  44.040  44.598   6.689
 3297POPC   C3A43289  44.035  44.875   7.067
 3297POPC   C4A43290  44.279  44.854   7.457
 3297POPC   C1B43291  43.427  44.229   6.244
 3297POPC   C2B43292  43.687  44.202   6.595
 3297POPC   C3B43293  43.643  44.397   6.940
 3297POPC   C4B43294  43.328  44.273   7.144
 3298POPC   NC343295  33.158  19.362   5.451
 3298POPC   PO443296  32.550  19.111   5.409
 3298POPC   GL143297  32.829  19.012   5.800
 3298POPC   GL243298  33.198  18.953   5.830
 3298POPC   C1A43299  32.968  18.910   6.263
 3298POPC   D2A43300  32.899  18.685   6.635
 3298POPC   C3A43301  32.950  18.856   7.038
 3298POPC   C4A43302  32.744  18.772   7.420
 3298POPC   C1B43303  33.265  19.312   6.124
 3298POPC   C2B43304  33.093  19.374   6.533
 3298POPC   C3B43305  33.253  19.284   6.936
 3298POPC   C4B43306  33.184  19.194   7.359
 3299POPC   NC343307  38.583  42.688   5.403
 3299POPC   PO443308  38.238  43.185   5.535
 3299POPC   GL143309  38.289  42.853   5.812
 3299POPC   GL243310  38.654  42.791   5.897
 3299POPC   C1A43311  38.207  42.941   6.230
 3299POPC   D2A43312  38.439  42.907   6.630
 3299POPC   C3A43313  38.241  42.992   7.038
 3299POPC   C4A43314  38.318  43.166   7.433
 3299POPC   C1B43315  38.706  43.138   6.154
 3299POPC   C2B43316  38.881  43.180   6.560
 3299POPC   C3B43317  38.687  43.224   6.986
 3299POPC   C4B43318  38.813  43.305   7.414
 3300POPC   NC343319   3.038   4.406   5.659
 3300POPC   PO443320   2.427   4.155   5.410
 3300POPC   GL143321   2.560   4.284   5.823
 3300POPC   GL243322   2.316   4.556   5.812
 3300POPC   C1A43323   2.821   4.229   6.244
 3300POPC   D2A43324   3.152   4.399   6.545
 3300POPC   C3A43325   2.987   4.341   6.952
 3300POPC   C4A43326   2.698   4.061   7.155
 3300POPC   C1B43327   2.477   4.618   6.222
 3300POPC   C2B43328   2.629   4.554   6.627
 3300POPC   C3B43329   2.419   4.663   7.003
 3300POPC   C4B43330   2.578   4.520   7.337
 3301POPC   NC343331  19.694  33.747   5.205
 3301POPC   PO443332  20.189  34.219   5.342
 3301POPC   GL143333  19.985  33.921   5.615
 3301POPC   GL243334  20.258  33.968   5.859
 3301POPC   C1A43335  19.801  33.664   5.958
 3301POPC   D2A43336  19.786  33.739   6.423
 3301POPC   C3A43337  19.635  33.507   6.797
 3301POPC   C4A43338  19.569  33.638   7.232
 3301POPC   C1B43339  20.279  33.698   6.211
 3301POPC   C2B43340  20.173  33.469   6.579
 3301POPC   C3B43341  20.096  33.661   6.995
 3301POPC   C4B43342  20.416  33.701   7.309
 3302POPC   NC343343  43.503  15.897   5.121
 3302POPC   PO443344  44.061  15.744   5.492
 3302POPC   GL143345  43.963  16.004   5.844
 3302POPC   GL243346  43.862  16.358   5.733
 3302POPC   C1A43347  43.780  15.860   6.248
 3302POPC   D2A43348  43.910  15.875   6.657
 3302POPC   C3A43349  43.595  15.758   6.929
 3302POPC   C4A43350  43.774  15.802   7.296
 3302POPC   C1B43351  43.632  16.334   6.130
 3302POPC   C2B43352  43.502  16.192   6.573
 3302POPC   C3B43353  43.647  16.240   7.022
 3302POPC   C4B43354  43.389  16.381   7.382
 3303POPC   NC343355   5.702  22.342   5.355
 3303POPC   PO443356   6.159  21.934   5.391
 3303POPC   GL143357   6.031  22.238   5.745
 3303POPC   GL243358   5.677  22.407   5.855
 3303POPC   C1A43359   5.939  22.122   6.177
 3303POPC   D2A43360   5.813  22.271   6.575
 3303POPC   C3A43361   6.087  22.234   6.909
 3303POPC   C4A43362   6.024  22.290   7.319
 3303POPC   C1B43363   5.444  22.203   6.201
 3303POPC   C2B43364   5.432  21.953   6.593
 3303POPC   C3B43365   5.393  22.227   6.941
 3303POPC   C4B43366   5.525  22.236   7.358
 3304POPC   NC343367  13.986  38.753   5.381
 3304POPC   PO443368  13.415  38.397   5.430
 3304POPC   GL143369  13.714  38.517   5.772
 3304POPC   GL243370  13.845  38.874   5.853
 3304POPC   C1A43371  13.713  38.503   6.216
 3304POPC   D2A43372  13.875  38.453   6.620
 3304POPC   C3A43373  13.643  38.287   6.930
 3304POPC   C4A43374  13.382  38.346   7.279
 3304POPC   C1B43375  14.014  38.910   6.262
 3304POPC   C2B43376  13.853  39.052   6.653
 3304POPC   C3B43377  13.811  38.805   7.006
 3304POPC   C4B43378  13.911  38.511   7.321
 3305POPC   NC343379   4.804  21.933   5.506
 3305POPC   PO443380   5.282  22.401   5.509
 3305POPC   GL143381   5.255  22.040   5.755
 3305POPC   GL243382   5.605  21.892   5.808
 3305POPC   C1A43383   4.952  22.064   6.135
 3305POPC   D2A43384   5.029  22.257   6.541
 3305POPC   C3A43385   4.783  22.371   6.889
 3305POPC   C4A43386   5.020  22.402   7.258
 3305POPC   C1B43387   5.322  21.716   6.136
 3305POPC   C2B43388   5.007  21.696   6.486
 3305POPC   C3B43389   4.988  21.869   6.909
 3305POPC   C4B43390   5.181  21.871   7.323
 3306POPC   NC343391  11.824  34.927   5.493
 3306POPC   PO443392  12.249  34.399   5.246
 3306POPC   GL143393  12.333  34.485   5.714
 3306POPC   GL243394  12.197  34.794   5.829
 3306POPC   C1A43395  12.199  34.376   6.173
 3306POPC   D2A43396  12.296  34.333   6.655
 3306POPC   C3A43397  11.982  34.471   6.988
 3306POPC   C4A43398  11.879  34.441   7.446
 3306POPC   C1B43399  12.285  34.866   6.270
 3306POPC   C2B43400  12.461  34.846   6.694
 3306POPC   C3B43401  12.378  34.751   7.104
 3306POPC   C4B43402  12.020  34.916   7.355
 3307POPC   NC343403  31.446  33.692   5.365
 3307POPC   PO443404  31.808  34.155   5.589
 3307POPC   GL143405  31.618  33.854   5.903
 3307POPC   GL243406  31.330  33.646   5.835
 3307POPC   C1A43407  31.631  33.834   6.370
 3307POPC   D2A43408  31.816  33.978   6.758
 3307POPC   C3A43409  31.645  33.761   7.070
 3307POPC   C4A43410  31.429  33.978   7.374
 3307POPC   C1B43411  31.389  33.434   6.176
 3307POPC   C2B43412  31.248  33.510   6.568
 3307POPC   C3B43413  31.256  33.298   6.924
 3307POPC   C4B43414  31.364  33.406   7.305
 3308POPC   NC343415  44.372  27.438   5.757
 3308POPC   PO443416  44.848  27.822   5.497
 3308POPC   GL143417  44.902  27.580   5.868
 3308POPC   GL243418  44.644  27.725   6.052
 3308POPC   C1A43419  44.812  27.308   6.261
 3308POPC   D2A43420  44.439  27.292   6.552
 3308POPC   C3A43421  44.512  27.435   6.989
 3308POPC   C4A43422  44.915  27.370   7.211
 3308POPC   C1B43423  44.871  27.927   6.331
 3308POPC   C2B43424   0.043  27.804   6.737
 3308POPC   C3B43425  44.850  27.935   7.107
 3308POPC   C4B43426  44.626  27.728   7.428
 3309POPC   NC343427  28.877  34.203   5.388
 3309POPC   PO443428  29.287  34.590   5.219
 3309POPC   GL143429  29.248  34.514   5.720
 3309POPC   GL243430  29.095  34.248   5.838
 3309POPC   C1A43431  28.952  34.591   6.154
 3309POPC   D2A43432  28.847  34.408   6.578
 3309POPC   C3A43433  28.941  34.693   6.957
 3309POPC   C4A43434  29.384  34.726   7.135
 3309POPC   C1B43435  29.300  34.127   6.172
 3309POPC   C2B43436  29.206  34.003   6.568
 3309POPC   C3B43437  29.202  34.239   6.923
 3309POPC   C4B43438  29.218  34.079   7.276
 3310POPC   NC343439  22.052  21.588   5.224
 3310POPC   PO443440  22.439  21.015   5.278
 3310POPC   GL143441  22.345  21.174   5.703
 3310POPC   GL243442  22.156  21.525   5.726
 3310POPC   C1A43443  22.359  21.045   6.141
 3310POPC   D2A43444  22.182  21.067   6.556
 3310POPC   C3A43445  22.446  21.100   6.915
 3310POPC   C4A43446  22.264  21.283   7.248
 3310POPC   C1B43447  21.966  21.444   6.142
 3310POPC   C2B43448  21.793  21.413   6.554
 3310POPC   C3B43449  21.913  21.523   6.964
 3310POPC   C4B43450  21.840  21.508   7.415
 3311POPC   NC343451  14.323  31.127   5.458
 3311POPC   PO443452  14.292  30.476   5.356
 3311POPC   GL143453  14.328  30.677   5.740
 3311POPC   GL243454  14.649  30.825   5.704
 3311POPC   C1A43455  14.431  30.515   6.159
 3311POPC   D2A43456  14.227  30.568   6.568
 3311POPC   C3A43457  14.430  30.624   6.967
 3311POPC   C4A43458  14.394  30.990   7.263
 3311POPC   C1B43459  14.591  30.991   6.115
 3311POPC   C2B43460  14.693  30.841   6.558
 3311POPC   C3B43461  14.792  31.006   6.968
 3311POPC   C4B43462  14.954  30.981   7.381
 3312POPC   NC343463  16.717   1.677   5.634
 3312POPC   PO443464  16.819   1.063   5.432
 3312POPC   GL143465  16.812   1.206   5.854
 3312POPC   GL243466  16.476   1.359   5.935
 3312POPC   C1A43467  16.993   1.305   6.252
 3312POPC   D2A43468  17.197   1.099   6.600
 3312POPC   C3A43469  17.157   1.279   7.011
 3312POPC   C4A43470  16.909   1.123   7.344
 3312POPC   C1B43471  16.581   1.635   6.278
 3312POPC   C2B43472  16.731   1.484   6.673
 3312POPC   C3B43473  16.555   1.243   6.994
 3312POPC   C4B43474  16.493   1.416   7.406
 3313POPC   NC343475  39.781  23.059   5.767
 3313POPC   PO443476  39.254  22.842   5.452
 3313POPC   GL143477  39.232  22.773   5.867
 3313POPC   GL243478  39.496  22.567   5.936
 3313POPC   C1A43479  39.123  23.020   6.239
 3313POPC   D2A43480  39.076  23.266   6.603
 3313POPC   C3A43481  39.155  23.088   7.013
 3313POPC   C4A43482  39.466  23.250   7.300
 3313POPC   C1B43483  39.597  22.788   6.331
 3313POPC   C2B43484  39.812  22.675   6.710
 3313POPC   C3B43485  39.584  22.783   7.047
 3313POPC   C4B43486  39.355  22.643   7.330
 3314POPC   NC343487  27.250   9.598   5.558
 3314POPC   PO443488  27.902   9.781   5.400
 3314POPC   GL143489  27.860  10.059   5.766
 3314POPC   GL243490  27.753   9.735   5.898
 3314POPC   C1A43491  27.915  10.071   6.251
 3314POPC   D2A43492  27.698   9.819   6.595
 3314POPC   C3A43493  27.584   9.961   7.027
 3314POPC   C4A43494  27.279   9.936   7.384
 3314POPC   C1B43495  27.426   9.669   6.180
 3314POPC   C2B43496  27.303   9.470   6.542
 3314POPC   C3B43497  27.520   9.437   6.908
 3314POPC   C4B43498  27.376   9.446   7.285
 3315POPC   NC343499   6.144  31.786   5.755
 3315POPC   PO443500   5.806  31.401   5.361
 3315POPC   GL143501   5.890  31.329   5.808
 3315POPC   GL243502   6.085  30.999   5.764
 3315POPC   C1A43503   5.736  31.515   6.252
 3315POPC   D2A43504   5.867  31.725   6.684
 3315POPC   C3A43505   5.745  31.592   7.116
 3315POPC   C4A43506   5.595  31.384   7.461
 3315POPC   C1B43507   6.182  31.120   6.187
 3315POPC   C2B43508   6.044  31.254   6.568
 3315POPC   C3B43509   6.189  31.349   6.936
 3315POPC   C4B43510   6.235  31.711   7.186
 3316POPC   NC343511  40.152  15.706   5.391
 3316POPC   PO443512  39.860  16.366   5.477
 3316POPC   GL143513  40.038  16.063   5.767
 3316POPC   GL243514  40.383  16.153   5.803
 3316POPC   C1A43515  40.064  15.860   6.193
 3316POPC   D2A43516  39.855  15.805   6.596
 3316POPC   C3A43517  40.128  15.785   6.955
 3316POPC   C4A43518  39.912  15.970   7.286
 3316POPC   C1B43519  40.359  16.303   6.216
 3316POPC   C2B43520  40.178  16.185   6.591
 3316POPC   C3B43521  40.171  16.302   6.995
 3316POPC   C4B43522  40.381  16.209   7.377
 3317POPC   NC343523  40.388   5.011   5.443
 3317POPC   PO443524  39.911   5.403   5.411
 3317POPC   GL143525  40.036   5.145   5.782
 3317POPC   GL243526  40.383   5.163   5.932
 3317POPC   C1A43527  39.942   5.041   6.199
 3317POPC   D2A43528  40.193   5.057   6.542
 3317POPC   C3A43529  39.945   4.968   6.895
 3317POPC   C4A43530  40.176   5.072   7.274
 3317POPC   C1B43531  40.344   4.726   6.127
 3317POPC   C2B43532  40.454   4.602   6.562
 3317POPC   C3B43533  40.284   4.603   6.973
 3317POPC   C4B43534  40.451   4.667   7.402
 3318POPC   NC343535  37.777  42.107   5.516
 3318POPC   PO443536  37.421  42.666   5.516
 3318POPC   GL143537  37.543  42.459   5.853
 3318POPC   GL243538  37.880  42.526   5.859
 3318POPC   C1A43539  37.420  42.315   6.257
 3318POPC   D2A43540  37.648  42.177   6.624
 3318POPC   C3A43541  37.492  42.315   7.010
 3318POPC   C4A43542  37.531  42.218   7.445
 3318POPC   C1B43543  37.941  42.376   6.248
 3318POPC   C2B43544  38.049  42.568   6.623
 3318POPC   C3B43545  37.907  42.612   7.034
 3318POPC   C4B43546  37.707  42.686   7.428
 3319POPC   NC343547  17.125  12.168   5.287
 3319POPC   PO443548  17.752  12.086   5.331
 3319POPC   GL143549  17.509  12.129   5.721
 3319POPC   GL243550  17.261  12.416   5.714
 3319POPC   C1A43551  17.502  12.110   6.178
 3319POPC   D2A43552  17.258  11.985   6.546
 3319POPC   C3A43553  17.485  12.031   6.899
 3319POPC   C4A43554  17.488  11.894   7.307
 3319POPC   C1B43555  17.378  12.604   6.094
 3319POPC   C2B43556  17.376  12.494   6.514
 3319POPC   C3B43557  17.585  12.534   6.886
 3319POPC   C4B43558  17.457  12.386   7.282
 3320POPC   NC343559  41.805  30.241   5.115
 3320POPC   PO443560  41.546  29.783   5.510
 3320POPC   GL143561  41.561  29.847   5.934
 3320POPC   GL243562  41.211  29.730   5.971
 3320POPC   C1A43563  41.883  29.852   6.291
 3320POPC   D2A43564  41.881  30.063   6.708
 3320POPC   C3A43565  41.771  29.868   7.137
 3320POPC   C4A43566  41.746  29.826   7.619
 3320POPC   C1B43567  41.223  30.139   6.194
 3320POPC   C2B43568  41.252  30.262   6.656
 3320POPC   C3B43569  41.307  30.091   7.085
 3320POPC   C4B43570  41.087  29.772   7.360
 3321POPC   NC343571  40.096  41.993   5.320
 3321POPC   PO443572  40.045  41.331   5.246
 3321POPC   GL143573  40.092  41.577   5.646
 3321POPC   GL243574  39.744  41.694   5.749
 3321POPC   C1A43575  40.113  41.598   6.113
 3321POPC   D2A43576  40.034  41.831   6.474
 3321POPC   C3A43577  39.963  41.742   6.935
 3321POPC   C4A43578  40.066  41.668   7.391
 3321POPC   C1B43579  39.590  41.722   6.195
 3321POPC   C2B43580  39.579  41.567   6.608
 3321POPC   C3B43581  39.629  41.244   6.922
 3321POPC   C4B43582  39.749  41.255   7.348
 3322POPC   NC343583  37.134  29.670   5.355
 3322POPC   PO443584  36.618  30.188   5.555
 3322POPC   GL143585  36.935  29.957   5.728
 3322POPC   GL243586  36.722  29.742   5.902
 3322POPC   C1A43587  37.176  29.988   6.093
 3322POPC   D2A43588  37.328  29.945   6.507
 3322POPC   C3A43589  37.118  29.667   6.790
 3322POPC   C4A43590  37.229  29.796   7.196
 3322POPC   C1B43591  36.699  30.045   6.251
 3322POPC   C2B43592  36.848  30.101   6.700
 3322POPC   C3B43593  36.799  30.213   7.171
 3322POPC   C4B43594  36.663  30.297   7.637
 3323POPC   NC343595  37.147  21.798   5.242
 3323POPC   PO443596  36.826  21.198   5.427
 3323POPC   GL143597  36.838  21.129   5.858
 3323POPC   GL243598  36.637  21.423   5.956
 3323POPC   C1A43599  36.886  21.169   6.311
 3323POPC   D2A43600  36.650  21.306   6.661
 3323POPC   C3A43601  36.878  21.165   7.006
 3323POPC   C4A43602  37.208  21.328   7.237
 3323POPC   C1B43603  36.917  21.665   6.173
 3323POPC   C2B43604  36.840  21.821   6.564
 3323POPC   C3B43605  37.017  21.696   6.919
 3323POPC   C4B43606  36.919  21.883   7.266
 3324POPC   NC343607  30.846  14.734   5.562
 3324POPC   PO443608  30.488  14.188   5.423
 3324POPC   GL143609  30.840  14.249   5.801
 3324POPC   GL243610  31.024  14.565   5.985
 3324POPC   C1A43611  30.797  14.250   6.290
 3324POPC   D2A43612  30.532  14.170   6.632
 3324POPC   C3A43613  30.746  14.217   7.005
 3324POPC   C4A43614  30.644  14.579   7.202
 3324POPC   C1B43615  30.716  14.758   6.284
 3324POPC   C2B43616  30.797  14.656   6.714
 3324POPC   C3B43617  31.130  14.593   7.048
 3324POPC   C4B43618  31.080  14.631   7.520
 3325POPC   NC343619   1.256   4.532   5.356
 3325POPC   PO443620   0.796   3.973   5.361
 3325POPC   GL143621   1.018   4.227   5.709
 3325POPC   GL243622   1.356   4.247   5.776
 3325POPC   C1A43623   1.073   4.071   6.147
 3325POPC   D2A43624   1.074   3.958   6.562
 3325POPC   C3A43625   1.273   4.118   6.927
 3325POPC   C4A43626   1.109   4.351   7.295
 3325POPC   C1B43627   1.426   4.479   6.140
 3325POPC   C2B43628   1.592   4.399   6.551
 3325POPC   C3B43629   1.405   4.601   6.890
 3325POPC   C4B43630   1.487   4.689   7.289
 3326POPC   NC343631  20.928  37.101   5.568
 3326POPC   PO443632  20.954  36.501   5.402
 3326POPC   GL143633  20.824  36.677   5.817
 3326POPC   GL243634  20.477  36.828   5.766
 3326POPC   C1A43635  20.635  36.664   6.248
 3326POPC   D2A43636  20.328  36.638   6.610
 3326POPC   C3A43637  20.614  36.647   6.964
 3326POPC   C4A43638  20.977  36.924   7.047
 3326POPC   C1B43639  20.422  37.135   6.126
 3326POPC   C2B43640  20.332  37.173   6.589
 3326POPC   C3B43641  20.472  37.158   7.026
 3326POPC   C4B43642  20.733  37.203   7.386
 3327POPC   NC343643  25.114   5.576   5.210
 3327POPC   PO443644  25.633   5.130   5.244
 3327POPC   GL143645  25.536   5.233   5.673
 3327POPC   GL243646  25.281   5.012   5.790
 3327POPC   C1A43647  25.642   5.161   6.111
 3327POPC   D2A43648  25.355   5.220   6.446
 3327POPC   C3A43649  25.487   5.013   6.802
 3327POPC   C4A43650  25.684   5.207   7.157
 3327POPC   C1B43651  25.027   5.295   6.045
 3327POPC   C2B43652  24.819   5.219   6.447
 3327POPC   C3B43653  24.872   5.237   6.878
 3327POPC   C4B43654  25.148   5.076   7.178
 3328POPC   NC343655  29.406  32.500   5.478
 3328POPC   PO443656  28.920  32.148   5.169
 3328POPC   GL143657  29.074  32.107   5.676
 3328POPC   GL243658  28.835  31.871   5.841
 3328POPC   C1A43659  29.269  32.170   6.100
 3328POPC   D2A43660  29.283  32.342   6.542
 3328POPC   C3A43661  29.451  32.154   6.940
 3328POPC   C4A43662  29.313  32.343   7.341
 3328POPC   C1B43663  28.731  31.960   6.276
 3328POPC   C2B43664  28.717  32.194   6.654
 3328POPC   C3B43665  28.952  32.206   7.002
 3328POPC   C4B43666  29.011  31.930   7.351
 3329POPC   NC343667   3.367  17.635   5.121
 3329POPC   PO443668   3.553  18.285   5.250
 3329POPC   GL143669   3.539  18.430   5.710
 3329POPC   GL243670   3.346  18.182   5.854
 3329POPC   C1A43671   3.744  18.337   6.138
 3329POPC   D2A43672   3.616  18.309   6.571
 3329POPC   C3A43673   3.912  18.263   6.884
 3329POPC   C4A43674   3.848  18.198   7.304
 3329POPC   C1B43675   3.308  18.004   6.264
 3329POPC   C2B43676   3.130  18.144   6.657
 3329POPC   C3B43677   3.309  18.291   7.044
 3329POPC   C4B43678   3.390  18.208   7.508
 3330POPC   NC343679   9.127   0.411   5.353
 3330POPC   PO443680   8.461   0.382   5.360
 3330POPC   GL143681   8.715   0.456   5.762
 3330POPC   GL243682   9.081   0.486   5.841
 3330POPC   C1A43683   8.698   0.557   6.198
 3330POPC   D2A43684   8.832   0.343   6.566
 3330POPC   C3A43685   8.768   0.532   6.942
 3330POPC   C4A43686   8.522   0.352   7.219
 3330POPC   C1B43687   9.221   0.435   6.219
 3330POPC   C2B43688   9.252   0.624   6.588
 3330POPC   C3B43689   9.248   0.375   6.890
 3330POPC   C4B43690   9.239   0.506   7.256
 3331POPC   NC343691  25.500   9.662   5.448
 3331POPC   PO443692  24.878   9.818   5.376
 3331POPC   GL143693  25.081   9.695   5.748
 3331POPC   GL243694  25.256   9.999   5.809
 3331POPC   C1A43695  25.290   9.519   6.126
 3331POPC   D2A43696  25.440   9.690   6.508
 3331POPC   C3A43697  25.542   9.480   6.891
 3331POPC   C4A43698  25.545   9.743   7.243
 3331POPC   C1B43699  25.033  10.017   6.200
 3331POPC   C2B43700  24.953  10.132   6.625
 3331POPC   C3B43701  25.167   9.896   6.919
 3331POPC   C4B43702  25.022   9.775   7.294
 3332POPC   NC343703  11.342  29.710   5.554
 3332POPC   PO443704  11.435  30.373   5.441
 3332POPC   GL143705  11.441  30.178   5.833
 3332POPC   GL243706  11.083  30.168   5.797
 3332POPC   C1A43707  11.549  30.180   6.289
 3332POPC   D2A43708  11.687  30.147   6.731
 3332POPC   C3A43709  11.534  29.868   7.073
 3332POPC   C4A43710  11.446  30.051   7.500
 3332POPC   C1B43711  11.015  30.291   6.217
 3332POPC   C2B43712  11.175  30.237   6.664
 3332POPC   C3B43713  11.120  30.159   7.108
 3332POPC   C4B43714  11.081  29.743   7.304
 3333POPC   NC343715  14.851  43.018   5.349
 3333POPC   PO443716  14.190  42.962   5.477
 3333POPC   GL143717  14.449  43.225   5.752
 3333POPC   GL243718  14.663  43.479   5.588
 3333POPC   C1A43719  14.455  43.243   6.224
 3333POPC   D2A43720  14.541  42.989   6.594
 3333POPC   C3A43721  14.253  42.855   6.926
 3333POPC   C4A43722  14.211  43.094   7.291
 3333POPC   C1B43723  14.828  43.574   5.998
 3333POPC   C2B43724  14.798  43.567   6.449
 3333POPC   C3B43725  14.520  43.479   6.804
 3333POPC   C4B43726  14.580  43.492   7.258
 3334POPC   NC343727  37.166  16.809   5.485
 3334POPC   PO443728  36.639  16.541   5.081
 3334POPC   GL143729  36.597  16.663   5.553
 3334POPC   GL243730  36.573  16.325   5.651
 3334POPC   C1A43731  36.746  16.790   6.018
 3334POPC   D2A43732  36.702  16.796   6.502
 3334POPC   C3A43733  36.741  16.975   6.935
 3334POPC   C4A43734  37.100  16.885   7.205
 3334POPC   C1B43735  36.769  16.264   6.052
 3334POPC   C2B43736  36.665  16.283   6.494
 3334POPC   C3B43737  36.849  16.414   6.878
 3334POPC   C4B43738  36.699  16.545   7.249
 3335POPC   NC343739  10.122   4.205   5.635
 3335POPC   PO443740   9.633   4.252   5.222
 3335POPC   GL143741   9.688   4.578   5.677
 3335POPC   GL243742   9.994   4.663   5.915
 3335POPC   C1A43743   9.573   4.685   6.176
 3335POPC   D2A43744   9.550   4.431   6.586
 3335POPC   C3A43745   9.591   4.395   7.017
 3335POPC   C4A43746   9.327   4.043   7.194
 3335POPC   C1B43747   9.883   4.293   6.219
 3335POPC   C2B43748   9.962   4.163   6.629
 3335POPC   C3B43749  10.115   4.343   6.973
 3335POPC   C4B43750  10.062   4.581   7.312
 3336POPC   NC343751  38.351  20.866   5.404
 3336POPC   PO443752  38.371  21.491   5.531
 3336POPC   GL143753  38.475  21.223   5.855
 3336POPC   GL243754  38.169  21.050   5.850
 3336POPC   C1A43755  38.538  21.402   6.265
 3336POPC   D2A43756  38.402  21.624   6.644
 3336POPC   C3A43757  38.638  21.418   6.966
 3336POPC   C4A43758  38.677  21.149   7.330
 3336POPC   C1B43759  38.170  21.046   6.276
 3336POPC   C2B43760  38.378  21.069   6.663
 3336POPC   C3B43761  38.246  20.906   7.040
 3336POPC   C4B43762  38.024  20.975   7.352
 3337POPC   NC343763  16.961  41.268   5.362
 3337POPC   PO443764  16.772  41.873   5.346
 3337POPC   GL143765  16.856  41.614   5.759
 3337POPC   GL243766  17.193  41.771   5.709
 3337POPC   C1A43767  16.706  41.622   6.256
 3337POPC   D2A43768  16.679  41.321   6.654
 3337POPC   C3A43769  16.625  41.359   7.137
 3337POPC   C4A43770  16.451  41.254   7.587
 3337POPC   C1B43771  17.169  41.838   6.187
 3337POPC   C2B43772  17.112  41.702   6.633
 3337POPC   C3B43773  16.887  41.788   7.040
 3337POPC   C4B43774  16.987  42.065   7.398
 3338POPC   NC343775  35.359  12.400   5.615
 3338POPC   PO443776  35.263  11.825   5.499
 3338POPC   GL143777  35.536  11.955   5.833
 3338POPC   GL243778  35.246  11.982   6.009
 3338POPC   C1A43779  35.645  12.097   6.267
 3338POPC   D2A43780  35.530  11.991   6.648
 3338POPC   C3A43781  35.355  12.185   6.986
 3338POPC   C4A43782  35.571  12.097   7.355
 3338POPC   C1B43783  35.210  12.368   6.286
 3338POPC   C2B43784  35.030  12.517   6.697
 3338POPC   C3B43785  34.982  12.545   7.161
 3338POPC   C4B43786  35.187  12.650   7.586
 3339POPC   NC343787  14.730  28.805   5.529
 3339POPC   PO443788  14.328  29.346   5.271
 3339POPC   GL143789  14.401  29.164   5.732
 3339POPC   GL243790  14.750  29.272   5.800
 3339POPC   C1A43791  14.152  29.018   6.118
 3339POPC   D2A43792  14.254  29.085   6.550
 3339POPC   C3A43793  14.013  28.970   6.910
 3339POPC   C4A43794  14.147  29.073   7.300
 3339POPC   C1B43795  14.667  29.013   6.177
 3339POPC   C2B43796  14.796  28.978   6.620
 3339POPC   C3B43797  14.625  28.959   7.039
 3339POPC   C4B43798  14.590  29.294   7.323
 3340POPC   NC343799  38.770   0.395   5.233
 3340POPC   PO443800  39.468   0.139   5.394
 3340POPC   GL143801  39.431   0.361   5.822
 3340POPC   GL243802  39.132   0.439   5.991
 3340POPC   C1A43803  39.534   0.216   6.262
 3340POPC   D2A43804  39.526   0.224   6.727
 3340POPC   C3A43805  39.226   0.493   6.957
 3340POPC   C4A43806  39.394   0.658   7.371
 3340POPC   C1B43807  39.089   0.480   6.411
 3340POPC   C2B43808  38.738   0.449   6.692
 3340POPC   C3B43809  38.671   0.499   7.129
 3340POPC   C4B43810  38.923   0.602   7.487
 3341POPC   NC343811  41.229  27.099   5.550
 3341POPC   PO443812  41.736  26.704   5.545
 3341POPC   GL143813  41.455  26.658   5.895
 3341POPC   GL243814  41.191  26.387   5.964
 3341POPC   C1A43815  41.686  26.806   6.258
 3341POPC   D2A43816  41.850  26.860   6.667
 3341POPC   C3A43817  41.517  27.037   6.907
 3341POPC   C4A43818  41.475  27.238   7.283
 3341POPC   C1B43819  41.396  26.409   6.373
 3341POPC   C2B43820  41.470  26.518   6.820
 3341POPC   C3B43821  41.508  26.670   7.265
 3341POPC   C4B43822  41.407  26.525   7.663
 3342POPC   NC343823  13.263  19.723   5.552
 3342POPC   PO443824  12.614  19.813   5.507
 3342POPC   GL143825  12.875  19.801   5.865
 3342POPC   GL243826  13.082  19.516   5.989
 3342POPC   C1A43827  12.929  20.003   6.243
 3342POPC   D2A43828  12.628  20.223   6.485
 3342POPC   C3A43829  12.569  20.081   6.906
 3342POPC   C4A43830  12.694  20.023   7.343
 3342POPC   C1B43831  12.706  19.524   6.261
 3342POPC   C2B43832  12.772  19.710   6.644
 3342POPC   C3B43833  13.013  19.793   7.011
 3342POPC   C4B43834  13.008  19.606   7.418
 3343POPC   NC343835  19.149  26.123   5.203
 3343POPC   PO443836  18.779  25.634   5.490
 3343POPC   GL143837  18.951  25.977   5.733
 3343POPC   GL243838  19.266  25.926   5.881
 3343POPC   C1A43839  18.877  26.082   6.187
 3343POPC   D2A43840  18.637  26.178   6.557
 3343POPC   C3A43841  18.832  26.157   6.951
 3343POPC   C4A43842  19.230  26.336   7.066
 3343POPC   C1B43843  19.360  26.205   6.250
 3343POPC   C2B43844  19.197  26.013   6.618
 3343POPC   C3B43845  19.238  25.816   7.007
 3343POPC   C4B43846  19.486  25.977   7.321
 3344POPC   NC343847  39.433  36.386   5.362
 3344POPC   PO443848  39.298  35.727   5.422
 3344POPC   GL143849  39.453  36.018   5.734
 3344POPC   GL243850  39.153  36.204   5.777
 3344POPC   C1A43851  39.483  36.181   6.166
 3344POPC   D2A43852  39.272  36.224   6.574
 3344POPC   C3A43853  39.448  36.247   6.946
 3344POPC   C4A43854  39.315  36.103   7.294
 3344POPC   C1B43855  39.081  35.877   6.101
 3344POPC   C2B43856  38.961  35.820   6.532
 3344POPC   C3B43857  38.922  36.018   6.922
 3344POPC   C4B43858  38.928  35.756   7.255
 3345POPC   NC343859  27.489  34.200   5.016
 3345POPC   PO443860  27.641  33.593   5.350
 3345POPC   GL143861  27.810  33.776   5.762
 3345POPC   GL243862  27.978  33.487   5.924
 3345POPC   C1A43863  27.800  33.833   6.248
 3345POPC   D2A43864  27.665  33.713   6.675
 3345POPC   C3A43865  27.400  33.992   6.905
 3345POPC   C4A43866  27.064  33.904   7.170
 3345POPC   C1B43867  28.093  33.345   6.340
 3345POPC   C2B43868  28.120  33.274   6.811
 3345POPC   C3B43869  27.902  33.486   7.094
 3345POPC   C4B43870  28.078  33.674   7.423
 3346POPC   NC343871   5.843  26.920   5.178
 3346POPC   PO443872   5.536  26.480   5.640
 3346POPC   GL143873   5.664  26.655   6.043
 3346POPC   GL243874   6.016  26.824   5.976
 3346POPC   C1A43875   5.700  26.705   6.471
 3346POPC   D2A43876   6.022  26.521   6.749
 3346POPC   C3A43877   5.906  26.560   7.166
 3346POPC   C4A43878   6.081  26.368   7.537
 3346POPC   C1B43879   6.195  26.838   6.384
 3346POPC   C2B43880   5.986  27.041   6.762
 3346POPC   C3B43881   6.041  27.114   7.211
 3346POPC   C4B43882   6.244  27.192   7.640
 3347POPC   NC343883  27.186  39.809   5.533
 3347POPC   PO443884  26.907  40.343   5.505
 3347POPC   GL143885  26.680  40.011   5.742
 3347POPC   GL243886  26.736  39.627   5.800
 3347POPC   C1A43887  26.461  39.938   6.132
 3347POPC   D2A43888  26.552  39.788   6.537
 3347POPC   C3A43889  26.788  40.073   6.789
 3347POPC   C4A43890  26.781  40.117   7.226
 3347POPC   C1B43891  26.955  39.745   6.194
 3347POPC   C2B43892  27.008  39.579   6.636
 3347POPC   C3B43893  26.739  39.598   6.994
 3347POPC   C4B43894  26.907  39.650   7.410
 3348POPC   NC343895  14.006  25.848   5.500
 3348POPC   PO443896  13.317  26.089   5.464
 3348POPC   GL143897  13.497  25.911   5.797
 3348POPC   GL243898  13.820  26.037   5.938
 3348POPC   C1A43899  13.368  25.983   6.225
 3348POPC   D2A43900  13.497  26.057   6.648
 3348POPC   C3A43901  13.731  25.784   6.924
 3348POPC   C4A43902  13.580  25.910   7.323
 3348POPC   C1B43903  13.925  25.927   6.366
 3348POPC   C2B43904  14.013  26.168   6.728
 3348POPC   C3B43905  13.727  26.328   7.021
 3348POPC   C4B43906  13.807  26.354   7.435
 3349POPC   NC343907   4.174  27.794   5.523
 3349POPC   PO443908   4.699  27.351   5.469
 3349POPC   GL143909   4.578  27.483   5.883
 3349POPC   GL243910   4.386  27.188   5.916
 3349POPC   C1A43911   4.563  27.596   6.369
 3349POPC   D2A43912   4.449  27.887   6.740
 3349POPC   C3A43913   4.210  27.688   7.076
 3349POPC   C4A43914   4.416  27.618   7.456
 3349POPC   C1B43915   4.073  27.301   6.220
 3349POPC   C2B43916   4.138  27.401   6.650
 3349POPC   C3B43917   4.162  27.165   7.036
 3349POPC   C4B43918   4.023  27.309   7.448
 3350POPC   NC343919  41.641   4.524   5.491
 3350POPC   PO443920  42.001   4.041   5.735
 3350POPC   GL143921  41.716   4.347   5.963
 3350POPC   GL243922  41.354   4.546   5.984
 3350POPC   C1A43923  41.707   4.591   6.328
 3350POPC   D2A43924  41.511   4.788   6.682
 3350POPC   C3A43925  41.701   4.559   6.979
 3350POPC   C4A43926  41.673   4.149   7.165
 3350POPC   C1B43927  41.320   4.216   6.303
 3350POPC   C2B43928  41.269   4.119   6.736
 3350POPC   C3B43929  41.231   4.397   7.082
 3350POPC   C4B43930  41.338   4.344   7.502
 3351POPC   NC343931  21.021  27.300   5.313
 3351POPC   PO443932  20.454  27.661   5.260
 3351POPC   GL143933  20.595  27.751   5.695
 3351POPC   GL243934  20.899  27.911   5.649
 3351POPC   C1A43935  20.605  27.618   6.144
 3351POPC   D2A43936  20.795  27.438   6.517
 3351POPC   C3A43937  20.662  27.525   6.931
 3351POPC   C4A43938  20.587  27.285   7.295
 3351POPC   C1B43939  20.880  28.060   6.082
 3351POPC   C2B43940  20.931  27.931   6.515
 3351POPC   C3B43941  20.870  28.012   6.954
 3351POPC   C4B43942  20.718  27.815   7.367
 3352POPC   NC343943   9.770   3.819   5.160
 3352POPC   PO443944   9.761   3.156   5.295
 3352POPC   GL143945   9.721   3.401   5.653
 3352POPC   GL243946  10.037   3.448   5.755
 3352POPC   C1A43947   9.678   3.652   6.069
 3352POPC   D2A43948   9.547   3.876   6.457
 3352POPC   C3A43949   9.667   3.655   6.825
 3352POPC   C4A43950   9.841   3.916   7.111
 3352POPC   C1B43951   9.906   3.126   6.057
 3352POPC   C2B43952   9.923   3.003   6.485
 3352POPC   C3B43953  10.090   3.190   6.846
 3352POPC   C4B43954  10.113   3.498   7.188
 3353POPC   NC343955   7.266  28.831   5.400
 3353POPC   PO443956   7.545  29.427   5.471
 3353POPC   GL143957   7.376  29.185   5.786
 3353POPC   GL243958   7.472  28.835   5.871
 3353POPC   C1A43959   7.234  29.189   6.192
 3353POPC   D2A43960   7.235  29.059   6.596
 3353POPC   C3A43961   7.277  28.894   6.982
 3353POPC   C4A43962   7.226  29.267   7.223
 3353POPC   C1B43963   7.449  28.722   6.299
 3353POPC   C2B43964   7.702  28.899   6.662
 3353POPC   C3B43965   7.697  29.160   7.039
 3353POPC   C4B43966   7.595  28.911   7.426
 3354POPC   NC343967  33.184   9.863   5.256
 3354POPC   PO443968  32.687   9.518   5.516
 3354POPC   GL143969  32.945   9.858   5.821
 3354POPC   GL243970  33.259   9.994   5.773
 3354POPC   C1A43971  33.165   9.678   6.227
 3354POPC   D2A43972  33.053   9.510   6.660
 3354POPC   C3A43973  33.202   9.645   7.092
 3354POPC   C4A43974  33.157   9.557   7.579
 3354POPC   C1B43975  33.077  10.170   6.217
 3354POPC   C2B43976  33.070  10.039   6.692
 3354POPC   C3B43977  32.977  10.087   7.164
 3354POPC   C4B43978  33.007  10.085   7.650
 3355POPC   NC343979  12.540   6.771   5.445
 3355POPC   PO443980  13.161   6.563   5.365
 3355POPC   GL143981  13.012   6.448   5.773
 3355POPC   GL243982  12.925   6.802   5.816
 3355POPC   C1A43983  12.853   6.509   6.243
 3355POPC   D2A43984  12.707   6.430   6.662
 3355POPC   C3A43985  12.897   6.482   7.075
 3355POPC   C4A43986  12.851   6.341   7.507
 3355POPC   C1B43987  12.643   6.965   6.142
 3355POPC   C2B43988  12.627   6.939   6.604
 3355POPC   C3B43989  12.489   6.770   7.012
 3355POPC   C4B43990  12.753   6.833   7.426
 3356POPC   NC343991  23.484  41.876   5.395
 3356POPC   PO443992  23.853  41.426   5.408
 3356POPC   GL143993  23.679  41.495   5.778
 3356POPC   GL243994  23.581  41.159   5.840
 3356POPC   C1A43995  23.726  41.645   6.189
 3356POPC   D2A43996  23.564  41.650   6.591
 3356POPC   C3A43997  23.840  41.604   6.932
 3356POPC   C4A43998  23.650  41.692   7.335
 3356POPC   C1B43999  23.874  41.134   6.139
 3356POPC   C2B44000  23.750  41.183   6.535
 3356POPC   C3B44001  23.810  41.105   6.948
 3356POPC   C4B44002  23.692  41.190   7.356
 3357POPC   NC344003  18.964   5.397   5.289
 3357POPC   PO444004  19.189   4.840   5.269
 3357POPC   GL144005  19.091   5.060   5.677
 3357POPC   GL244006  19.393   5.236   5.793
 3357POPC   C1A44007  18.981   5.188   6.105
 3357POPC   D2A44008  18.841   5.307   6.535
 3357POPC   C3A44009  18.974   5.112   6.926
 3357POPC   C4A44010  19.214   4.823   7.212
 3357POPC   C1B44011  19.444   5.413   6.181
 3357POPC   C2B44012  19.339   5.310   6.588
 3357POPC   C3B44013  19.457   5.235   6.996
 3357POPC   C4B44014  19.674   5.414   7.290
 3358POPC   NC344015   6.033  15.730   5.657
 3358POPC   PO444016   6.230  16.349   5.349
 3358POPC   GL144017   6.109  16.212   5.858
 3358POPC   GL244018   5.757  16.015   5.960
 3358POPC   C1A44019   6.056  16.079   6.344
 3358POPC   D2A44020   5.795  15.769   6.597
 3358POPC   C3A44021   5.736  15.873   7.028
 3358POPC   C4A44022   6.102  15.870   7.271
 3358POPC   C1B44023   5.427  15.841   6.243
 3358POPC   C2B44024   5.274  15.972   6.656
 3358POPC   C3B44025   5.302  16.151   7.062
 3358POPC   C4B44026   5.423  15.994   7.441
 3359POPC   NC344027  17.078  43.810   5.368
 3359POPC   PO444028  16.511  43.506   5.417
 3359POPC   GL144029  16.627  43.775   5.767
 3359POPC   GL244030  16.394  44.046   5.805
 3359POPC   C1A44031  16.851  43.845   6.158
 3359POPC   D2A44032  16.915  43.694   6.563
 3359POPC   C3A44033  16.791  43.892   6.924
 3359POPC   C4A44034  16.681  43.605   7.200
 3359POPC   C1B44035  16.571  44.260   6.172
 3359POPC   C2B44036  16.486  44.100   6.548
 3359POPC   C3B44037  16.350  44.145   6.953
 3359POPC   C4B44038  16.534  44.074   7.338
 3360POPC   NC344039  10.296   1.025   5.105
 3360POPC   PO444040  10.338   1.612   5.270
 3360POPC   GL144041  10.483   1.426   5.673
 3360POPC   GL244042  10.281   1.122   5.778
 3360POPC   C1A44043  10.583   1.435   6.124
 3360POPC   D2A44044  10.759   1.204   6.492
 3360POPC   C3A44045  10.735   1.363   6.922
 3360POPC   C4A44046  10.815   1.201   7.303
 3360POPC   C1B44047  10.358   0.993   6.222
 3360POPC   C2B44048  10.301   1.155   6.692
 3360POPC   C3B44049  10.311   1.204   7.174
 3360POPC   C4B44050  10.192   0.961   7.587
 3361POPC   NC344051  33.307   3.310   5.463
 3361POPC   PO444052  33.986   3.490   5.525
 3361POPC   GL144053  33.761   3.706   5.831
 3361POPC   GL244054  33.402   3.823   5.818
 3361POPC   C1A44055  33.919   3.585   6.214
 3361POPC   D2A44056  34.144   3.753   6.508
 3361POPC   C3A44057  33.859   3.684   6.806
 3361POPC   C4A44058  33.938   3.724   7.203
 3361POPC   C1B44059  33.415   3.463   6.135
 3361POPC   C2B44060  33.594   3.306   6.540
 3361POPC   C3B44061  33.470   3.185   6.959
 3361POPC   C4B44062  33.578   3.401   7.323
 3362POPC   NC344063   9.887  17.060   5.711
 3362POPC   PO444064   9.398  16.742   5.335
 3362POPC   GL144065   9.618  16.588   5.707
 3362POPC   GL244066   9.425  16.833   5.870
 3362POPC   C1A44067   9.781  16.566   6.150
 3362POPC   D2A44068   9.785  16.389   6.563
 3362POPC   C3A44069   9.816  16.553   6.928
 3362POPC   C4A44070  10.184  16.640   7.157
 3362POPC   C1B44071   9.428  16.921   6.307
 3362POPC   C2B44072   9.768  17.033   6.603
 3362POPC   C3B44073   9.813  17.040   7.052
 3362POPC   C4B44074   9.528  16.798   7.282
 3363POPC   NC344075  42.130  44.312   5.401
 3363POPC   PO444076  42.533  43.739   5.515
 3363POPC   GL144077  42.142  43.847   5.815
 3363POPC   GL244078  42.009  44.219   5.879
 3363POPC   C1A44079  42.165  43.785   6.269
 3363POPC   D2A44080  42.547  43.763   6.578
 3363POPC   C3A44081  42.341  43.822   6.987
 3363POPC   C4A44082  42.027  43.566   7.215
 3363POPC   C1B44083  42.365  44.234   6.160
 3363POPC   C2B44084  42.293  44.190   6.606
 3363POPC   C3B44085  42.210  44.322   7.001
 3363POPC   C4B44086  42.524  44.272   7.275
 3364POPC   NC344087   3.499  26.327   5.328
 3364POPC   PO444088   3.794  25.724   5.406
 3364POPC   GL144089   3.594  25.803   5.799
 3364POPC   GL244090   3.445  26.100   5.791
 3364POPC   C1A44091   3.615  25.833   6.233
 3364POPC   D2A44092   3.381  25.854   6.584
 3364POPC   C3A44093   3.578  25.868   6.963
 3364POPC   C4A44094   3.308  25.796   7.286
 3364POPC   C1B44095   3.639  26.350   6.141
 3364POPC   C2B44096   3.824  26.219   6.552
 3364POPC   C3B44097   3.712  26.386   6.960
 3364POPC   C4B44098   3.480  26.300   7.319
 3365POPC   NC344099  12.313   5.817   5.326
 3365POPC   PO444100  11.621   5.584   5.471
 3365POPC   GL144101  11.911   5.902   5.745
 3365POPC   GL244102  12.292   5.952   5.817
 3365POPC   C1A44103  11.932   6.025   6.217
 3365POPC   D2A44104  12.002   5.755   6.605
 3365POPC   C3A44105  11.906   5.911   7.015
 3365POPC   C4A44106  11.989   6.079   7.414
 3365POPC   C1B44107  12.389   5.802   6.241
 3365POPC   C2B44108  12.445   5.987   6.666
 3365POPC   C3B44109  12.421   5.966   7.101
 3365POPC   C4B44110  12.450   5.884   7.529
 3366POPC   NC344111  27.834  24.854   5.499
 3366POPC   PO444112  27.426  24.374   5.156
 3366POPC   GL144113  27.394  24.369   5.698
 3366POPC   GL244114  27.586  24.651   5.889
 3366POPC   C1A44115  27.305  24.350   6.162
 3366POPC   D2A44116  27.604  24.455   6.472
 3366POPC   C3A44117  27.565  24.688   6.834
 3366POPC   C4A44118  27.674  24.415   7.162
 3366POPC   C1B44119  27.886  24.811   6.215
 3366POPC   C2B44120  28.063  24.714   6.600
 3366POPC   C3B44121  28.063  24.718   7.009
 3366POPC   C4B44122  28.017  24.691   7.426
 3367POPC   NC344123   1.184   0.726   5.592
 3367POPC   PO444124   1.462   0.129   5.325
 3367POPC   GL144125   1.364   0.249   5.768
 3367POPC   GL244126   1.576   0.543   5.844
 3367POPC   C1A44127   1.192   0.376   6.204
 3367POPC   D2A44128   1.071   0.582   6.623
 3367POPC   C3A44129   1.067   0.349   7.030
 3367POPC   C4A44130   1.443   0.095   7.157
 3367POPC   C1B44131   1.509   0.822   6.226
 3367POPC   C2B44132   1.546   0.835   6.683
 3367POPC   C3B44133   1.364   0.779   7.079
 3367POPC   C4B44134   1.098   0.682   7.432
 3368POPC   NC344135  24.334   5.933   5.518
 3368POPC   PO444136  24.674   5.412   5.258
 3368POPC   GL144137  24.746   5.620   5.710
 3368POPC   GL244138  24.767   6.005   5.805
 3368POPC   C1A44139  24.648   5.636   6.181
 3368POPC   D2A44140  24.638   5.952   6.495
 3368POPC   C3A44141  24.551   5.871   6.905
 3368POPC   C4A44142  24.836   5.676   7.152
 3368POPC   C1B44143  24.431   6.187   6.095
 3368POPC   C2B44144  24.334   6.386   6.490
 3368POPC   C3B44145  24.210   6.290   6.899
 3368POPC   C4B44146  24.237   6.052   7.281
 3369POPC   NC344147  39.353  29.543   5.394
 3369POPC   PO444148  39.315  28.914   5.417
 3369POPC   GL144149  39.278  29.199   5.780
 3369POPC   GL244150  38.970  29.429   5.721
 3369POPC   C1A44151  39.491  29.084   6.174
 3369POPC   D2A44152  39.356  28.878   6.560
 3369POPC   C3A44153  39.556  28.907   6.886
 3369POPC   C4A44154  39.469  28.899   7.242
 3369POPC   C1B44155  38.920  29.298   6.172
 3369POPC   C2B44156  39.064  29.316   6.629
 3369POPC   C3B44157  39.050  29.250   7.100
 3369POPC   C4B44158  38.963  29.443   7.522
 3370POPC   NC344159  42.046  40.003   5.265
 3370POPC   PO444160  41.421  39.968   5.410
 3370POPC   GL144161  41.555  39.981   5.859
 3370POPC   GL244162  41.809  39.730   5.891
 3370POPC   C1A44163  41.518  40.231   6.287
 3370POPC   D2A44164  41.471  40.543   6.623
 3370POPC   C3A44165  41.419  40.273   6.978
 3370POPC   C4A44166  41.434  39.932   7.267
 3370POPC   C1B44167  41.623  39.737   6.332
 3370POPC   C2B44168  41.556  39.801   6.786
 3370POPC   C3B44169  41.708  39.530   7.152
 3370POPC   C4B44170  41.682  39.461   7.618
 3371POPC   NC344171  26.164  13.874   5.680
 3371POPC   PO444172  25.762  13.450   5.378
 3371POPC   GL144173  25.793  13.510   5.809
 3371POPC   GL244174  26.129  13.371   5.824
 3371POPC   C1A44175  25.824  13.416   6.262
 3371POPC   D2A44176  26.047  13.298   6.648
 3371POPC   C3A44177  25.998  13.597   6.966
 3371POPC   C4A44178  25.937  14.004   7.191
 3371POPC   C1B44179  26.340  13.474   6.236
 3371POPC   C2B44180  26.315  13.771   6.561
 3371POPC   C3B44181  26.442  13.915   6.964
 3371POPC   C4B44182  26.356  13.690   7.309
 3372POPC   NC344183  39.739  14.146   5.583
 3372POPC   PO444184  40.395  14.322   5.412
 3372POPC   GL144185  40.174  14.264   5.833
 3372POPC   GL244186  39.917  14.516   5.883
 3372POPC   C1A44187  40.013  14.196   6.272
 3372POPC   D2A44188  40.076  14.329   6.695
 3372POPC   C3A44189  40.155  14.046   7.061
 3372POPC   C4A44190  40.143  14.287   7.429
 3372POPC   C1B44191  39.634  14.554   6.252
 3372POPC   C2B44192  39.561  14.449   6.673
 3372POPC   C3B44193  39.751  14.362   7.095
 3372POPC   C4B44194  39.750  14.600   7.488
 3373POPC   NC344195   9.315  39.100   5.338
 3373POPC   PO444196   8.709  39.379   5.526
 3373POPC   GL144197   9.047  39.301   5.752
 3373POPC   GL244198   9.061  38.955   5.763
 3373POPC   C1A44199   9.147  39.413   6.172
 3373POPC   D2A44200   9.246  39.262   6.583
 3373POPC   C3A44201   9.248  39.452   6.977
 3373POPC   C4A44202   8.857  39.587   7.160
 3373POPC   C1B44203   8.848  38.958   6.162
 3373POPC   C2B44204   8.940  38.857   6.581
 3373POPC   C3B44205   8.854  39.016   6.994
 3373POPC   C4B44206   8.673  38.847   7.380
 3374POPC   NC344207   9.306  30.515   5.422
 3374POPC   PO444208   9.896  30.876   5.333
 3374POPC   GL144209   9.697  30.711   5.690
 3374POPC   GL244210   9.971  30.562   5.808
 3374POPC   C1A44211   9.531  30.628   6.119
 3374POPC   D2A44212   9.693  30.579   6.570
 3374POPC   C3A44213   9.549  30.824   6.924
 3374POPC   C4A44214   9.350  30.514   7.190
 3374POPC   C1B44215  10.050  30.686   6.216
 3374POPC   C2B44216  10.053  30.952   6.590
 3374POPC   C3B44217  10.042  30.723   6.966
 3374POPC   C4B44218  10.066  30.584   7.355
 3375POPC   NC344219  20.268  23.273   5.482
 3375POPC   PO444220  19.669  22.893   5.306
 3375POPC   GL144221  19.836  22.933   5.685
 3375POPC   GL244222  19.831  23.265   5.815
 3375POPC   C1A44223  19.839  22.759   6.082
 3375POPC   D2A44224  20.134  22.822   6.412
 3375POPC   C3A44225  20.039  22.686   6.816
 3375POPC   C4A44226  20.086  22.688   7.238
 3375POPC   C1B44227  19.974  23.256   6.221
 3375POPC   C2B44228  19.790  23.288   6.629
 3375POPC   C3B44229  19.892  23.130   7.022
 3375POPC   C4B44230  20.013  23.338   7.376
 3376POPC   NC344231   1.404   6.991   5.040
 3376POPC   PO444232   1.293   6.421   5.431
 3376POPC   GL144233   1.261   6.529   5.833
 3376POPC   GL244234   1.169   6.874   5.849
 3376POPC   C1A44235   1.071   6.466   6.212
 3376POPC   D2A44236   1.272   6.419   6.581
 3376POPC   C3A44237   1.154   6.658   6.940
 3376POPC   C4A44238   1.374   6.589   7.296
 3376POPC   C1B44239   1.419   6.862   6.257
 3376POPC   C2B44240   1.478   7.006   6.702
 3376POPC   C3B44241   1.454   7.067   7.159
 3376POPC   C4B44242   1.047   6.984   7.342
 3377POPC   NC344243  20.080  24.992   5.516
 3377POPC   PO444244  20.739  25.230   5.424
 3377POPC   GL144245  20.656  25.371   5.808
 3377POPC   GL244246  20.308  25.343   5.823
 3377POPC   C1A44247  20.627  25.435   6.220
 3377POPC   D2A44248  20.840  25.231   6.561
 3377POPC   C3A44249  20.641  25.314   6.926
 3377POPC   C4A44250  20.645  25.149   7.299
 3377POPC   C1B44251  20.209  25.105   6.219
 3377POPC   C2B44252  20.234  25.004   6.686
 3377POPC   C3B44253  20.154  25.048   7.154
 3377POPC   C4B44254  20.009  25.367   7.391
 3378POPC   NC344255  38.423  13.321   5.505
 3378POPC   PO444256  38.160  12.616   5.477
 3378POPC   GL144257  38.462  12.827   5.761
 3378POPC   GL244258  38.797  12.655   5.856
 3378POPC   C1A44259  38.552  13.005   6.169
 3378POPC   D2A44260  38.597  12.858   6.571
 3378POPC   C3A44261  38.786  13.077   6.911
 3378POPC   C4A44262  38.624  13.244   7.303
 3378POPC   C1B44263  38.466  12.459   6.152
 3378POPC   C2B44264  38.436  12.371   6.587
 3378POPC   C3B44265  38.228  12.623   6.861
 3378POPC   C4B44266  38.339  12.821   7.228
 3379POPC   NC344267   0.893  40.853   5.293
 3379POPC   PO444268   1.590  40.599   5.292
 3379POPC   GL144269   1.310  40.529   5.663
 3379POPC   GL244270   1.167  40.847   5.740
 3379POPC   C1A44271   1.443  40.525   6.107
 3379POPC   D2A44272   1.412  40.758   6.506
 3379POPC   C3A44273   1.078  40.691   6.804
 3379POPC   C4A44274   1.304  40.718   7.192
 3379POPC   C1B44275   1.012  40.793   6.165
 3379POPC   C2B44276   0.991  41.107   6.490
 3379POPC   C3B44277   0.991  41.177   6.925
 3379POPC   C4B44278   0.808  40.937   7.234
 3380POPC   NC344279   7.083   6.341   5.483
 3380POPC   PO444280   7.513   6.807   5.285
 3380POPC   GL144281   7.617   6.585   5.736
 3380POPC   GL244282   7.303   6.424   5.939
 3380POPC   C1A44283   7.769   6.461   6.177
 3380POPC   D2A44284   7.526   6.503   6.574
 3380POPC   C3A44285   7.638   6.717   6.952
 3380POPC   C4A44286   7.632   6.982   7.323
 3380POPC   C1B44287   7.208   6.747   6.258
 3380POPC   C2B44288   7.072   6.793   6.712
 3380POPC   C3B44289   7.191   6.775   7.171
 3380POPC   C4B44290   7.258   6.824   7.649
 3381POPC   NC344291  23.950  28.299   5.520
 3381POPC   PO444292  23.400  28.686   5.638
 3381POPC   GL144293  23.572  28.333   5.865
 3381POPC   GL244294  23.373  28.046   5.940
 3381POPC   C1A44295  23.795  28.277   6.262
 3381POPC   D2A44296  23.684  28.419   6.690
 3381POPC   C3A44297  23.884  28.188   7.034
 3381POPC   C4A44298  23.844  27.981   7.400
 3381POPC   C1B44299  23.296  28.381   6.287
 3381POPC   C2B44300  23.160  28.720   6.514
 3381POPC   C3B44301  23.264  28.650   6.919
 3381POPC   C4B44302  23.467  28.405   7.215
 3382POPC   NC344303  35.595  20.273   5.233
 3382POPC   PO444304  35.304  20.854   5.449
 3382POPC   GL144305  35.151  20.820   5.862
 3382POPC   GL244306  35.011  20.474   5.848
 3382POPC   C1A44307  35.369  20.801   6.262
 3382POPC   D2A44308  35.474  20.486   6.605
 3382POPC   C3A44309  35.398  20.565   7.062
 3382POPC   C4A44310  35.121  20.449   7.423
 3382POPC   C1B44311  34.913  20.562   6.278
 3382POPC   C2B44312  35.054  20.789   6.653
 3382POPC   C3B44313  34.978  20.836   7.067
 3382POPC   C4B44314  35.220  20.949   7.411
 3383POPC   NC344315   0.804   5.707   5.522
 3383POPC   PO444316   0.476   6.251   5.630
 3383POPC   GL144317   0.575   5.978   5.890
 3383POPC   GL244318   0.917   6.120   5.865
 3383POPC   C1A44319   0.441   5.666   6.178
 3383POPC   D2A44320   0.160   5.721   6.526
 3383POPC   C3A44321   0.325   5.643   6.906
 3383POPC   C4A44322   0.335   5.867   7.277
 3383POPC   C1B44323   0.895   5.964   6.270
 3383POPC   C2B44324   0.660   5.882   6.594
 3383POPC   C3B44325   0.800   5.800   6.967
 3383POPC   C4B44326   0.844   6.073   7.255
 3384POPC   NC344327   7.664  42.155   5.483
 3384POPC   PO444328   6.932  41.997   5.552
 3384POPC   GL144329   7.232  42.161   5.879
 3384POPC   GL244330   7.561  42.370   5.948
 3384POPC   C1A44331   7.204  42.310   6.305
 3384POPC   D2A44332   7.390  42.558   6.622
 3384POPC   C3A44333   7.184  42.389   6.957
 3384POPC   C4A44334   7.192  42.169   7.306
 3384POPC   C1B44335   7.721  42.183   6.337
 3384POPC   C2B44336   7.635  42.118   6.784
 3384POPC   C3B44337   7.654  42.339   7.171
 3384POPC   C4B44338   7.574  42.653   7.534
 3385POPC   NC344339  33.736  14.261   5.384
 3385POPC   PO444340  33.870  14.842   5.400
 3385POPC   GL144341  33.738  14.539   5.791
 3385POPC   GL244342  34.004  14.271   5.858
 3385POPC   C1A44343  33.583  14.328   6.168
 3385POPC   D2A44344  33.532  14.535   6.593
 3385POPC   C3A44345  33.556  14.335   7.012
 3385POPC   C4A44346  33.642  14.468   7.449
 3385POPC   C1B44347  34.048  14.425   6.323
 3385POPC   C2B44348  34.005  14.430   6.768
 3385POPC   C3B44349  34.061  14.335   7.193
 3385POPC   C4B44350  34.092  14.337   7.655
 3386POPC   NC344351  12.588  35.008   5.454
 3386POPC   PO444352  12.906  35.634   5.349
 3386POPC   GL144353  12.943  35.404   5.773
 3386POPC   GL244354  12.622  35.271   5.906
 3386POPC   C1A44355  13.053  35.482   6.219
 3386POPC   D2A44356  13.099  35.728   6.594
 3386POPC   C3A44357  13.148  35.505   6.960
 3386POPC   C4A44358  12.852  35.371   7.250
 3386POPC   C1B44359  12.654  35.203   6.348
 3386POPC   C2B44360  12.668  35.396   6.736
 3386POPC   C3B44361  12.403  35.257   7.058
 3386POPC   C4B44362  12.480  35.100   7.463
 3387POPC   NC344363  44.482  26.494   5.448
 3387POPC   PO444364  44.849  25.814   5.478
 3387POPC   GL144365  44.657  26.044   5.787
 3387POPC   GL244366  44.883  26.301   5.840
 3387POPC   C1A44367  44.563  25.914   6.209
 3387POPC   D2A44368  44.572  25.681   6.585
 3387POPC   C3A44369  44.607  25.912   6.932
 3387POPC   C4A44370  44.452  25.951   7.313
 3387POPC   C1B44371  44.569  26.426   6.132
 3387POPC   C2B44372  44.473  26.429   6.562
 3387POPC   C3B44373  44.667  26.461   6.971
 3387POPC   C4B44374  44.455  26.457   7.360
 3388POPC   NC344375   3.814  41.478   5.556
 3388POPC   PO444376   3.496  42.052   5.567
 3388POPC   GL144377   3.547  41.771   5.913
 3388POPC   GL244378   3.904  41.729   6.022
 3388POPC   C1A44379   3.333  41.568   6.262
 3388POPC   D2A44380   3.487  41.579   6.664
 3388POPC   C3A44381   3.435  41.651   7.114
 3388POPC   C4A44382   3.740  41.681   7.454
 3388POPC   C1B44383   3.769  41.291   6.202
 3388POPC   C2B44384   3.445  41.102   6.492
 3388POPC   C3B44385   3.500  41.168   6.945
 3388POPC   C4B44386   3.498  41.115   7.371
 3389POPC   NC344387  44.043  17.379   5.360
 3389POPC   PO444388  43.813  17.948   5.480
 3389POPC   GL144389  43.939  17.633   5.785
 3389POPC   GL244390  43.691  17.350   5.841
 3389POPC   C1A44391  44.091  17.606   6.178
 3389POPC   D2A44392  44.051  17.919   6.526
 3389POPC   C3A44393  43.954  17.714   6.930
 3389POPC   C4A44394  44.027  17.510   7.318
 3389POPC   C1B44395  43.814  17.171   6.266
 3389POPC   C2B44396  43.870  17.209   6.732
 3389POPC   C3B44397  43.697  17.150   7.161
 3389POPC   C4B44398  43.702  16.990   7.617
 3390POPC   NC344399  33.110  35.720   5.600
 3390POPC   PO444400  33.453  35.218   5.535
 3390POPC   GL144401  33.118  35.157   5.831
 3390POPC   GL244402  32.780  35.339   5.846
 3390POPC   C1A44403  33.068  35.297   6.246
 3390POPC   D2A44404  32.729  35.211   6.508
 3390POPC   C3A44405  32.947  35.227   6.870
 3390POPC   C4A44406  33.049  35.128   7.281
 3390POPC   C1B44407  32.737  35.669   6.170
 3390POPC   C2B44408  32.847  35.708   6.654
 3390POPC   C3B44409  32.807  35.613   7.133
 3390POPC   C4B44410  33.082  35.629   7.476
 3391POPC   NC344411  37.463  20.330   5.250
 3391POPC   PO444412  37.884  20.867   5.428
 3391POPC   GL144413  37.785  20.707   5.857
 3391POPC   GL244414  37.766  20.347   5.914
 3391POPC   C1A44415  37.732  20.779   6.289
 3391POPC   D2A44416  37.525  21.022   6.571
 3391POPC   C3A44417  37.723  20.997   6.946
 3391POPC   C4A44418  37.524  20.918   7.346
 3391POPC   C1B44419  37.666  20.273   6.306
 3391POPC   C2B44420  37.665  20.454   6.714
 3391POPC   C3B44421  37.716  20.499   7.127
 3391POPC   C4B44422  37.656  20.298   7.520
 3392POPC   NC344423  42.358  35.891   5.514
 3392POPC   PO444424  42.160  36.544   5.349
 3392POPC   GL144425  42.393  36.347   5.787
 3392POPC   GL244426  42.299  36.011   5.984
 3392POPC   C1A44427  42.528  36.350   6.254
 3392POPC   D2A44428  42.310  36.480   6.635
 3392POPC   C3A44429  42.408  36.233   6.978
 3392POPC   C4A44430  42.590  36.236   7.362
 3392POPC   C1B44431  41.963  35.801   6.216
 3392POPC   C2B44432  41.751  35.763   6.652
 3392POPC   C3B44433  42.050  35.818   7.053
 3392POPC   C4B44434  42.207  35.806   7.516
 3393POPC   NC344435   9.761  27.167   5.500
 3393POPC   PO444436   9.472  27.755   5.291
 3393POPC   GL144437   9.739  27.742   5.716
 3393POPC   GL244438   9.805  27.419   5.923
 3393POPC   C1A44439   9.813  27.851   6.174
 3393POPC   D2A44440   9.802  27.603   6.557
 3393POPC   C3A44441   9.902  27.748   6.988
 3393POPC   C4A44442   9.587  28.019   7.191
 3393POPC   C1B44443   9.969  27.147   6.258
 3393POPC   C2B44444  10.075  27.219   6.706
 3393POPC   C3B44445   9.738  27.251   7.026
 3393POPC   C4B44446   9.669  27.155   7.450
 3394POPC   NC344447  20.052  39.309   5.471
 3394POPC   PO444448  19.383  39.153   5.537
 3394POPC   GL144449  19.635  39.307   5.818
 3394POPC   GL244450  19.798  38.976   5.845
 3394POPC   C1A44451  19.828  39.319   6.211
 3394POPC   D2A44452  19.891  39.021   6.515
 3394POPC   C3A44453  19.813  39.220   6.864
 3394POPC   C4A44454  19.788  39.318   7.269
 3394POPC   C1B44455  19.491  38.898   6.187
 3394POPC   C2B44456  19.299  38.830   6.597
 3394POPC   C3B44457  19.503  38.845   6.989
 3394POPC   C4B44458  19.637  38.860   7.408
 3395POPC   NC344459  39.957  31.945   5.180
 3395POPC   PO444460  40.311  31.308   5.109
 3395POPC   GL144461  40.168  31.334   5.597
 3395POPC   GL244462  39.807  31.374   5.743
 3395POPC   C1A44463  40.138  31.318   6.118
 3395POPC   D2A44464  40.010  31.503   6.536
 3395POPC   C3A44465  40.148  31.300   6.940
 3395POPC   C4A44466  40.464  31.173   7.278
 3395POPC   C1B44467  39.585  31.525   6.134
 3395POPC   C2B44468  39.547  31.733   6.544
 3395POPC   C3B44469  39.687  31.570   6.944
 3395POPC   C4B44470  39.840  31.450   7.362
 3396POPC   NC344471  39.580  19.682   5.429
 3396POPC   PO444472  38.936  19.559   5.490
 3396POPC   GL144473  39.012  19.727   5.875
 3396POPC   GL244474  39.342  19.800   5.908
 3396POPC   C1A44475  38.968  19.891   6.260
 3396POPC   D2A44476  39.005  20.084   6.624
 3396POPC   C3A44477  38.936  19.737   6.912
 3396POPC   C4A44478  39.276  19.597   7.198
 3396POPC   C1B44479  39.421  20.128   6.250
 3396POPC   C2B44480  39.450  20.301   6.696
 3396POPC   C3B44481  39.271  20.088   7.071
 3396POPC   C4B44482  39.414  19.989   7.485
 3397POPC   NC344483  17.762  39.962   5.490
 3397POPC   PO444484  17.158  40.138   5.438
 3397POPC   GL144485  17.371  40.112   5.827
 3397POPC   GL244486  17.457  39.761   5.916
 3397POPC   C1A44487  17.449  40.145   6.281
 3397POPC   D2A44488  17.479  39.937   6.684
 3397POPC   C3A44489  17.552  40.170   7.049
 3397POPC   C4A44490  17.659  40.004   7.462
 3397POPC   C1B44491  17.259  39.617   6.321
 3397POPC   C2B44492  17.195  39.498   6.764
 3397POPC   C3B44493  17.396  39.645   7.175
 3397POPC   C4B44494  17.305  39.705   7.674
 3398POPC   NC344495  36.570  15.820   5.377
 3398POPC   PO444496  37.217  15.659   5.231
 3398POPC   GL144497  37.073  15.783   5.685
 3398POPC   GL244498  36.739  15.723   5.850
 3398POPC   C1A44499  37.118  15.884   6.170
 3398POPC   D2A44500  36.932  15.854   6.623
 3398POPC   C3A44501  37.168  15.988   7.026
 3398POPC   C4A44502  37.140  16.292   7.387
 3398POPC   C1B44503  36.509  15.858   6.232
 3398POPC   C2B44504  36.414  15.721   6.641
 3398POPC   C3B44505  36.532  15.988   6.977
 3398POPC   C4B44506  36.768  15.885   7.329
 3399POPC   NC344507  24.343  20.999   5.605
 3399POPC   PO444508  24.678  21.592   5.531
 3399POPC   GL144509  24.458  21.430   5.852
 3399POPC   GL244510  24.300  21.745   5.885
 3399POPC   C1A44511  24.531  21.169   6.242
 3399POPC   D2A44512  24.769  21.183   6.662
 3399POPC   C3A44513  24.526  21.077   7.053
 3399POPC   C4A44514  24.145  21.095   7.306
 3399POPC   C1B44515  24.614  21.690   6.238
 3399POPC   C2B44516  24.381  21.525   6.592
 3399POPC   C3B44517  24.203  21.476   6.980
 3399POPC   C4B44518  24.430  21.514   7.396
 3400POPC   NC344519  12.119  39.746   5.373
 3400POPC   PO444520  11.891  40.336   5.487
 3400POPC   GL144521  12.126  40.032   5.818
 3400POPC   GL244522  12.220  39.610   5.837
 3400POPC   C1A44523  12.059  40.186   6.258
 3400POPC   D2A44524  11.762  40.200   6.592
 3400POPC   C3A44525  11.909  40.246   7.000
 3400POPC   C4A44526  11.696  40.237   7.375
 3400POPC   C1B44527  12.299  39.745   6.226
 3400POPC   C2B44528  12.046  39.744   6.572
 3400POPC   C3B44529  12.169  39.798   6.966
 3400POPC   C4B44530  11.953  39.735   7.302
 3401POPC   NC344531  38.795  32.296   5.548
 3401POPC   PO444532  38.145  32.543   5.589
 3401POPC   GL144533  38.476  32.538   5.870
 3401POPC   GL244534  38.501  32.196   5.979
 3401POPC   C1A44535  38.564  32.588   6.294
 3401POPC   D2A44536  38.343  32.291   6.546
 3401POPC   C3A44537  38.484  32.285   6.957
 3401POPC   C4A44538  38.348  32.443   7.325
 3401POPC   C1B44539  38.602  31.901   6.302
 3401POPC   C2B44540  38.539  31.815   6.716
 3401POPC   C3B44541  38.712  31.856   7.117
 3401POPC   C4B44542  38.392  31.942   7.400
 3402POPC   NC344543   5.772   7.384   5.443
 3402POPC   PO444544   6.196   7.821   5.771
 3402POPC   GL144545   6.089   7.387   5.900
 3402POPC   GL244546   5.766   7.221   5.929
 3402POPC   C1A44547   6.062   7.363   6.375
 3402POPC   D2A44548   5.838   7.674   6.665
 3402POPC   C3A44549   5.869   7.671   7.114
 3402POPC   C4A44550   5.950   7.300   7.332
 3402POPC   C1B44551   5.624   7.530   6.176
 3402POPC   C2B44552   5.569   7.253   6.523
 3402POPC   C3B44553   5.575   7.279   6.949
 3402POPC   C4B44554   5.396   7.291   7.358
 3403POPC   NC344555  21.177   8.648   5.369
 3403POPC   PO444556  21.859   8.688   5.527
 3403POPC   GL144557  21.534   8.950   5.748
 3403POPC   GL244558  21.314   8.723   5.846
 3403POPC   C1A44559  21.292   9.120   6.147
 3403POPC   D2A44560  21.217   8.945   6.572
 3403POPC   C3A44561  21.374   9.199   6.923
 3403POPC   C4A44562  21.080   9.271   7.251
 3403POPC   C1B44563  21.635   8.723   6.225
 3403POPC   C2B44564  21.570   8.586   6.674
 3403POPC   C3B44565  21.601   8.763   7.098
 3403POPC   C4B44566  21.505   9.079   7.425
 3404POPC   NC344567  14.102  19.992   5.413
 3404POPC   PO444568  13.575  19.565   5.275
 3404POPC   GL144569  13.651  19.668   5.829
 3404POPC   GL244570  13.933  19.719   6.100
 3404POPC   C1A44571  13.432  19.903   6.171
 3404POPC   D2A44572  13.284  19.792   6.577
 3404POPC   C3A44573  13.484  20.016   6.930
 3404POPC   C4A44574  13.348  20.003   7.361
 3404POPC   C1B44575  13.627  19.479   6.359
 3404POPC   C2B44576  13.486  19.344   6.783
 3404POPC   C3B44577  13.466  19.564   7.161
 3404POPC   C4B44578  13.803  19.750   7.448
 3405POPC   NC344579  36.353  29.642   5.523
 3405POPC   PO444580  35.853  30.148   5.385
 3405POPC   GL144581  35.925  29.925   5.794
 3405POPC   GL244582  36.268  29.991   5.881
 3405POPC   C1A44583  35.783  29.754   6.233
 3405POPC   D2A44584  35.554  29.596   6.613
 3405POPC   C3A44585  35.779  29.820   6.930
 3405POPC   C4A44586  36.157  29.889   7.122
 3405POPC   C1B44587  36.293  29.727   6.232
 3405POPC   C2B44588  36.368  29.872   6.642
 3405POPC   C3B44589  36.396  30.259   6.873
 3405POPC   C4B44590  36.278  30.360   7.311
 3406POPC   NC344591  21.072   4.589   5.757
 3406POPC   PO444592  21.495   4.191   5.412
 3406POPC   GL144593  21.372   4.164   5.828
 3406POPC   GL244594  21.089   3.972   5.803
 3406POPC   C1A44595  21.506   4.330   6.234
 3406POPC   D2A44596  21.573   4.298   6.676
 3406POPC   C3A44597  21.354   4.602   6.931
 3406POPC   C4A44598  21.487   4.427   7.294
 3406POPC   C1B44599  21.002   4.126   6.215
 3406POPC   C2B44600  21.065   4.341   6.596
 3406POPC   C3B44601  21.085   4.197   7.042
 3406POPC   C4B44602  21.036   3.884   7.384
 3407POPC   NC344603  39.598  16.728   5.667
 3407POPC   PO444604  40.070  16.937   5.262
 3407POPC   GL144605  40.123  16.901   5.720
 3407POPC   GL244606  40.090  16.574   5.867
 3407POPC   C1A44607  40.039  16.933   6.196
 3407POPC   D2A44608  40.000  16.659   6.579
 3407POPC   C3A44609  40.118  16.808   6.990
 3407POPC   C4A44610  40.181  17.188   7.171
 3407POPC   C1B44611  39.832  16.335   6.189
 3407POPC   C2B44612  39.632  16.286   6.608
 3407POPC   C3B44613  39.693  16.499   6.994
 3407POPC   C4B44614  39.897  16.470   7.393
 3408POPC   NC344615  41.224  34.782   5.415
 3408POPC   PO444616  40.588  34.481   5.469
 3408POPC   GL144617  40.659  34.460   5.875
 3408POPC   GL244618  40.985  34.507   5.807
 3408POPC   C1A44619  40.656  34.350   6.323
 3408POPC   D2A44620  40.557  34.690   6.586
 3408POPC   C3A44621  40.578  34.809   6.988
 3408POPC   C4A44622  40.689  34.576   7.355
 3408POPC   C1B44623  40.956  34.752   6.203
 3408POPC   C2B44624  41.066  34.914   6.631
 3408POPC   C3B44625  41.076  34.813   7.079
 3408POPC   C4B44626  41.217  34.989   7.485
 3409POPC   NC344627  21.040  38.045   5.350
 3409POPC   PO444628  20.601  37.458   5.506
 3409POPC   GL144629  20.720  37.536   5.892
 3409POPC   GL244630  20.666  37.882   5.939
 3409POPC   C1A44631  20.910  37.528   6.287
 3409POPC   D2A44632  20.856  37.316   6.674
 3409POPC   C3A44633  20.712  37.629   6.949
 3409POPC   C4A44634  20.855  37.695   7.373
 3409POPC   C1B44635  20.618  38.120   6.332
 3409POPC   C2B44636  20.487  38.120   6.777
 3409POPC   C3B44637  20.413  38.173   7.233
 3409POPC   C4B44638  20.511  37.983   7.630
 3410POPC   NC344639   9.554  21.488   5.424
 3410POPC   PO444640   9.977  20.988   5.426
 3410POPC   GL144641   9.880  21.281   5.777
 3410POPC   GL244642   9.529  21.276   5.912
 3410POPC   C1A44643   9.988  21.202   6.215
 3410POPC   D2A44644  10.007  21.020   6.612
 3410POPC   C3A44645  10.083  21.367   6.853
 3410POPC   C4A44646  10.081  21.466   7.240
 3410POPC   C1B44647   9.336  21.548   6.262
 3410POPC   C2B44648   9.593  21.335   6.559
 3410POPC   C3B44649   9.619  21.222   6.975
 3410POPC   C4B44650   9.338  21.278   7.284
 3411POPC   NC344651   5.304  37.676   5.238
 3411POPC   PO444652   4.794  38.087   5.408
 3411POPC   GL144653   4.980  37.773   5.701
 3411POPC   GL244654   5.358  37.698   5.741
 3411POPC   C1A44655   4.936  37.620   6.137
 3411POPC   D2A44656   4.778  37.392   6.516
 3411POPC   C3A44657   4.801  37.627   6.907
 3411POPC   C4A44658   4.848  37.889   7.259
 3411POPC   C1B44659   5.442  37.651   6.168
 3411POPC   C2B44660   5.228  37.790   6.572
 3411POPC   C3B44661   5.317  37.707   7.031
 3411POPC   C4B44662   5.243  37.408   7.363
 3412POPC   NC344663  21.199   7.874   5.523
 3412POPC   PO444664  21.768   8.098   5.242
 3412POPC   GL144665  21.490   8.257   5.697
 3412POPC   GL244666  21.420   7.979   5.963
 3412POPC   C1A44667  21.271   8.388   6.193
 3412POPC   D2A44668  20.988   8.471   6.567
 3412POPC   C3A44669  21.133   8.552   6.990
 3412POPC   C4A44670  21.422   8.311   7.253
 3412POPC   C1B44671  21.045   7.952   6.252
 3412POPC   C2B44672  21.152   7.936   6.677
 3412POPC   C3B44673  21.086   7.968   7.093
 3412POPC   C4B44674  21.290   7.870   7.494
 3413POPC   NC344675  30.267   2.801   5.573
 3413POPC   PO444676  29.792   3.094   5.241
 3413POPC   GL144677  29.773   2.931   5.706
 3413POPC   GL244678  29.598   2.631   5.760
 3413POPC   C1A44679  29.888   2.737   6.162
 3413POPC   D2A44680  29.979   2.592   6.612
 3413POPC   C3A44681  29.983   2.853   6.984
 3413POPC   C4A44682  29.958   2.734   7.399
 3413POPC   C1B44683  29.492   2.372   6.144
 3413POPC   C2B44684  29.601   2.243   6.585
 3413POPC   C3B44685  29.610   2.501   6.985
 3413POPC   C4B44686  29.463   2.623   7.423
 3414POPC   NC344687   2.266   7.764   5.438
 3414POPC   PO444688   2.133   7.041   5.557
 3414POPC   GL144689   1.945   7.316   5.917
 3414POPC   GL244690   2.000   7.684   5.875
 3414POPC   C1A44691   1.708   7.331   6.327
 3414POPC   D2A44692   1.951   7.175   6.688
 3414POPC   C3A44693   1.968   7.209   7.128
 3414POPC   C4A44694   2.332   6.961   7.269
 3414POPC   C1B44695   2.089   7.676   6.311
 3414POPC   C2B44696   2.139   7.655   6.758
 3414POPC   C3B44697   2.016   7.795   7.177
 3414POPC   C4B44698   2.006   7.798   7.635
 3415POPC   NC344699  13.502  37.936   5.374
 3415POPC   PO444700  13.359  37.254   5.567
 3415POPC   GL144701  13.572  37.525   5.886
 3415POPC   GL244702  13.595  37.889   5.871
 3415POPC   C1A44703  13.651  37.491   6.307
 3415POPC   D2A44704  13.337  37.331   6.570
 3415POPC   C3A44705  13.441  37.412   6.984
 3415POPC   C4A44706  13.657  37.431   7.371
 3415POPC   C1B44707  13.522  38.029   6.295
 3415POPC   C2B44708  13.473  37.836   6.689
 3415POPC   C3B44709  13.753  37.805   7.044
 3415POPC   C4B44710  13.977  38.008   7.360
 3416POPC   NC344711  28.242  29.891   5.323
 3416POPC   PO444712  28.841  29.650   5.355
 3416POPC   GL144713  28.629  29.888   5.711
 3416POPC   GL244714  28.340  29.672   5.796
 3416POPC   C1A44715  28.678  29.941   6.179
 3416POPC   D2A44716  28.670  29.687   6.574
 3416POPC   C3A44717  28.541  29.840   6.984
 3416POPC   C4A44718  28.471  30.182   7.315
 3416POPC   C1B44719  28.297  29.576   6.231
 3416POPC   C2B44720  28.129  29.782   6.619
 3416POPC   C3B44721  28.077  30.004   7.005
 3416POPC   C4B44722  28.217  29.756   7.403
 3417POPC   NC344723   6.492  43.997   5.396
 3417POPC   PO444724   6.899  43.480   5.177
 3417POPC   GL144725   6.897  43.667   5.660
 3417POPC   GL244726   6.852  43.996   5.754
 3417POPC   C1A44727   6.760  43.694   6.162
 3417POPC   D2A44728   6.682  43.659   6.608
 3417POPC   C3A44729   6.485  43.971   6.870
 3417POPC   C4A44730   6.599  43.872   7.254
 3417POPC   C1B44731   6.888  44.187   6.158
 3417POPC   C2B44732   6.795  44.286   6.599
 3417POPC   C3B44733   6.941  44.221   7.053
 3417POPC   C4B44734   6.706  44.361   7.434
 3418POPC   NC344735  17.798  23.932   5.729
 3418POPC   PO444736  18.319  23.660   5.390
 3418POPC   GL144737  18.322  23.881   5.789
 3418POPC   GL244738  18.179  23.583   5.881
 3418POPC   C1A44739  18.188  23.917   6.260
 3418POPC   D2A44740  18.297  24.148   6.635
 3418POPC   C3A44741  18.247  23.961   7.064
 3418POPC   C4A44742  18.238  24.003   7.535
 3418POPC   C1B44743  18.283  23.321   6.212
 3418POPC   C2B44744  18.306  23.458   6.607
 3418POPC   C3B44745  18.148  23.431   7.006
 3418POPC   C4B44746  18.411  23.564   7.335
 3419POPC   NC344747  31.098   2.854   5.322
 3419POPC   PO444748  31.554   2.351   5.136
 3419POPC   GL144749  31.386   2.460   5.589
 3419POPC   GL244750  31.413   2.818   5.735
 3419POPC   C1A44751  31.312   2.444   6.070
 3419POPC   D2A44752  31.383   2.597   6.526
 3419POPC   C3A44753  31.485   2.558   6.985
 3419POPC   C4A44754  31.836   2.780   7.211
 3419POPC   C1B44755  31.428   3.054   6.142
 3419POPC   C2B44756  31.257   3.091   6.573
 3419POPC   C3B44757  31.478   3.075   6.979
 3419POPC   C4B44758  31.381   3.053   7.426
 3420POPC   NC344759  31.630  34.553   5.714
 3420POPC   PO444760  30.993  34.733   5.615
 3420POPC   GL144761  31.165  34.565   5.928
 3420POPC   GL244762  31.232  34.199   5.863
 3420POPC   C1A44763  31.140  34.772   6.303
 3420POPC   D2A44764  31.347  34.750   6.651
 3420POPC   C3A44765  31.135  34.862   6.971
 3420POPC   C4A44766  31.310  34.882   7.322
 3420POPC   C1B44767  31.424  34.295   6.278
 3420POPC   C2B44768  31.369  34.223   6.690
 3420POPC   C3B44769  31.420  34.412   7.059
 3420POPC   C4B44770  31.819  34.315   7.194
 3421POPC   NC344771  22.921  20.076   5.426
 3421POPC   PO444772  22.586  19.563   5.330
 3421POPC   GL144773  22.599  19.812   5.759
 3421POPC   GL244774  22.958  19.765   5.848
 3421POPC   C1A44775  22.706  19.963   6.234
 3421POPC   D2A44776  23.097  19.894   6.519
 3421POPC   C3A44777  23.125  20.029   6.981
 3421POPC   C4A44778  22.783  19.925   7.267
 3421POPC   C1B44779  23.090  19.479   6.183
 3421POPC   C2B44780  23.040  19.373   6.628
 3421POPC   C3B44781  23.030  19.513   7.062
 3421POPC   C4B44782  23.396  19.650   7.304
 3422POPC   NC344783  43.064  12.464   5.534
 3422POPC   PO444784  43.232  11.991   5.129
 3422POPC   GL144785  43.220  11.916   5.669
 3422POPC   GL244786  43.042  12.162   5.919
 3422POPC   C1A44787  43.301  11.856   6.199
 3422POPC   D2A44788  43.084  11.873   6.637
 3422POPC   C3A44789  43.247  12.012   7.031
 3422POPC   C4A44790  43.022  11.857   7.383
 3422POPC   C1B44791  42.987  12.285   6.354
 3422POPC   C2B44792  42.644  12.230   6.625
 3422POPC   C3B44793  42.735  12.108   7.013
 3422POPC   C4B44794  42.774  12.372   7.327
 3423POPC   NC344795  37.137  40.051   5.357
 3423POPC   PO444796  37.850  40.089   5.450
 3423POPC   GL144797  37.766  39.975   5.848
 3423POPC   GL244798  37.446  39.921   5.781
 3423POPC   C1A44799  37.950  39.878   6.223
 3423POPC   D2A44800  37.811  39.797   6.634
 3423POPC   C3A44801  37.946  40.008   6.997
 3423POPC   C4A44802  37.767  39.991   7.372
 3423POPC   C1B44803  37.266  40.117   6.165
 3423POPC   C2B44804  37.188  40.017   6.559
 3423POPC   C3B44805  37.424  40.049   6.908
 3423POPC   C4B44806  37.270  39.999   7.298
 3424POPC   NC344807  24.894  22.645   5.333
 3424POPC   PO444808  25.444  23.003   5.314
 3424POPC   GL144809  25.375  22.969   5.744
 3424POPC   GL244810  25.122  22.708   5.795
 3424POPC   C1A44811  25.510  22.820   6.156
 3424POPC   D2A44812  25.603  22.659   6.568
 3424POPC   C3A44813  25.466  22.897   6.956
 3424POPC   C4A44814  25.360  22.636   7.299
 3424POPC   C1B44815  24.991  22.936   6.170
 3424POPC   C2B44816  25.161  22.962   6.548
 3424POPC   C3B44817  24.983  22.838   6.928
 3424POPC   C4B44818  25.068  23.091   7.284
 3425POPC   NC344819  25.175  24.338   5.182
 3425POPC   PO444820  25.103  24.955   5.389
 3425POPC   GL144821  25.306  24.614   5.611
 3425POPC   GL244822  25.020  24.414   5.664
 3425POPC   C1A44823  25.436  24.375   6.003
 3425POPC   D2A44824  25.585  24.401   6.441
 3425POPC   C3A44825  25.433  24.711   6.727
 3425POPC   C4A44826  25.425  24.579   7.135
 3425POPC   C1B44827  24.915  24.256   6.065
 3425POPC   C2B44828  25.066  24.437   6.476
 3425POPC   C3B44829  24.999  24.369   6.925
 3425POPC   C4B44830  25.038  24.355   7.384
 3426POPC   NC344831  16.344  42.666   5.153
 3426POPC   PO444832  15.998  43.200   5.372
 3426POPC   GL144833  15.832  43.131   5.730
 3426POPC   GL244834  15.638  43.442   5.712
 3426POPC   C1A44835  15.997  42.952   6.114
 3426POPC   D2A44836  16.140  43.147   6.509
 3426POPC   C3A44837  16.013  42.912   6.869
 3426POPC   C4A44838  15.935  43.026   7.309
 3426POPC   C1B44839  15.795  43.425   6.145
 3426POPC   C2B44840  15.747  43.484   6.550
 3426POPC   C3B44841  15.871  43.397   6.923
 3426POPC   C4B44842  15.657  43.485   7.272
 3427POPC   NC344843  33.127  28.127   5.227
 3427POPC   PO444844  32.903  28.576   5.663
 3427POPC   GL144845  33.224  28.359   5.841
 3427POPC   GL244846  33.192  28.048   5.771
 3427POPC   C1A44847  33.237  28.455   6.247
 3427POPC   D2A44848  32.949  28.601   6.530
 3427POPC   C3A44849  33.069  28.710   6.910
 3427POPC   C4A44850  32.869  28.686   7.293
 3427POPC   C1B44851  32.981  28.027   6.211
 3427POPC   C2B44852  33.093  28.114   6.643
 3427POPC   C3B44853  33.004  28.222   7.061
 3427POPC   C4B44854  33.322  28.161   7.338
 3428POPC   NC344855  40.118  13.194   5.595
 3428POPC   PO444856  39.709  12.655   5.589
 3428POPC   GL144857  39.953  12.562   5.955
 3428POPC   GL244858  40.242  12.744   5.866
 3428POPC   C1A44859  39.858  12.665   6.395
 3428POPC   D2A44860  39.912  13.074   6.618
 3428POPC   C3A44861  39.789  12.950   7.004
 3428POPC   C4A44862  40.069  12.609   7.159
 3428POPC   C1B44863  40.290  12.887   6.265
 3428POPC   C2B44864  40.559  12.824   6.606
 3428POPC   C3B44865  40.512  12.880   7.035
 3428POPC   C4B44866  40.200  13.127   7.207
 3429POPC   NC344867  24.252  34.861   5.612
 3429POPC   PO444868  24.884  34.512   5.630
 3429POPC   GL144869  24.695  34.667   5.906
 3429POPC   GL244870  24.395  34.500   5.935
 3429POPC   C1A44871  24.849  34.904   6.229
 3429POPC   D2A44872  24.854  34.734   6.662
 3429POPC   C3A44873  24.806  34.542   7.073
 3429POPC   C4A44874  24.403  34.416   7.258
 3429POPC   C1B44875  24.379  34.703   6.322
 3429POPC   C2B44876  24.185  34.882   6.648
 3429POPC   C3B44877  24.333  34.864   7.052
 3429POPC   C4B44878  24.114  34.889   7.473
 3430POPC   NC344879  41.112  15.189   5.472
 3430POPC   PO444880  40.537  15.063   5.401
 3430POPC   GL144881  40.633  14.968   5.847
 3430POPC   GL244882  40.977  14.852   5.844
 3430POPC   C1A44883  40.476  15.091   6.300
 3430POPC   D2A44884  40.396  15.329   6.689
 3430POPC   C3A44885  40.555  15.160   7.049
 3430POPC   C4A44886  40.543  15.298   7.473
 3430POPC   C1B44887  40.878  14.782   6.279
 3430POPC   C2B44888  40.857  14.907   6.712
 3430POPC   C3B44889  40.861  14.788   7.151
 3430POPC   C4B44890  40.914  14.944   7.550
 3431POPC   NC344891  31.819  35.261   5.444
 3431POPC   PO444892  32.495  35.504   5.458
 3431POPC   GL144893  32.203  35.448   5.781
 3431POPC   GL244894  31.929  35.713   5.760
 3431POPC   C1A44895  32.101  35.240   6.178
 3431POPC   D2A44896  32.231  35.022   6.564
 3431POPC   C3A44897  32.180  35.168   6.961
 3431POPC   C4A44898  32.541  35.133   7.200
 3431POPC   C1B44899  32.130  35.762   6.183
 3431POPC   C2B44900  32.363  35.584   6.489
 3431POPC   C3B44901  32.369  35.642   6.883
 3431POPC   C4B44902  32.312  35.556   7.308
 3432POPC   NC344903   7.015   4.675   5.373
 3432POPC   PO444904   7.278   4.127   5.160
 3432POPC   GL144905   7.169   4.237   5.703
 3432POPC   GL244906   7.000   3.951   5.916
 3432POPC   C1A44907   7.443   4.414   6.126
 3432POPC   D2A44908   7.733   4.514   6.528
 3432POPC   C3A44909   7.529   4.592   6.904
 3432POPC   C4A44910   7.554   4.379   7.299
 3432POPC   C1B44911   6.977   4.265   6.223
 3432POPC   C2B44912   6.940   4.419   6.652
 3432POPC   C3B44913   7.076   4.343   7.074
 3432POPC   C4B44914   7.015   3.997   7.365
 3433POPC   NC344915  38.014  44.818   5.424
 3433POPC   PO444916  37.281  44.990   5.449
 3433POPC   GL144917  37.497  44.878   5.844
 3433POPC   GL244918  37.802   0.044   5.801
 3433POPC   C1A44919  37.673  44.668   6.237
 3433POPC   D2A44920  37.778  44.297   6.525
 3433POPC   C3A44921  37.686  44.431   6.947
 3433POPC   C4A44922  37.461  44.779   7.159
 3433POPC   C1B44923  38.111  44.912   6.113
 3433POPC   C2B44924  38.065  44.793   6.572
 3433POPC   C3B44925  37.955  44.870   7.035
 3433POPC   C4B44926  37.832  44.862   7.509
 3434POPC   NC344927  20.624  38.904   5.580
 3434POPC   PO444928  20.638  38.283   5.302
 3434POPC   GL144929  20.654  38.392   5.761
 3434POPC   GL244930  20.994  38.260   5.805
 3434POPC   C1A44931  20.468  38.593   6.178
 3434POPC   D2A44932  20.417  38.847   6.582
 3434POPC   C3A44933  20.482  38.617   6.961
 3434POPC   C4A44934  20.654  38.630   7.366
 3434POPC   C1B44935  20.977  38.497   6.183
 3434POPC   C2B44936  20.885  38.608   6.599
 3434POPC   C3B44937  20.912  38.344   6.959
 3434POPC   C4B44938  20.913  38.199   7.386
 3435POPC   NC344939  32.447  18.659   5.472
 3435POPC   PO444940  32.006  18.059   5.360
 3435POPC   GL144941  32.196  18.230   5.720
 3435POPC   GL244942  31.993  18.515   5.794
 3435POPC   C1A44943  32.174  18.060   6.159
 3435POPC   D2A44944  31.988  18.208   6.581
 3435POPC   C3A44945  32.279  18.120   6.910
 3435POPC   C4A44946  32.290  17.900   7.262
 3435POPC   C1B44947  32.078  18.550   6.209
 3435POPC   C2B44948  32.456  18.411   6.495
 3435POPC   C3B44949  32.522  18.553   6.947
 3435POPC   C4B44950  32.409  18.405   7.376
 3436POPC   NC344951  43.965  23.165   5.292
 3436POPC   PO444952  43.652  22.513   5.355
 3436POPC   GL144953  43.707  22.866   5.673
 3436POPC   GL244954  44.044  23.007   5.773
 3436POPC   C1A44955  43.644  23.043   6.111
 3436POPC   D2A44956  43.922  23.019   6.477
 3436POPC   C3A44957  43.775  22.992   6.892
 3436POPC   C4A44958  43.978  22.981   7.273
 3436POPC   C1B44959  44.223  22.655   5.985
 3436POPC   C2B44960  44.241  22.595   6.429
 3436POPC   C3B44961  44.195  22.671   6.890
 3436POPC   C4B44962  44.212  22.513   7.312
 3437POPC   NC344963   4.626   6.105   5.568
 3437POPC   PO444964   5.174   5.712   5.511
 3437POPC   GL144965   5.075   5.629   5.922
 3437POPC   GL244966   4.950   5.983   5.964
 3437POPC   C1A44967   4.999   5.656   6.379
 3437POPC   D2A44968   5.058   6.017   6.677
 3437POPC   C3A44969   4.902   5.943   7.107
 3437POPC   C4A44970   5.125   5.699   7.401
 3437POPC   C1B44971   5.336   6.028   6.203
 3437POPC   C2B44972   5.560   6.307   6.485
 3437POPC   C3B44973   5.404   6.373   6.904
 3437POPC   C4B44974   5.361   6.135   7.297
 3438POPC   NC344975   9.491  44.396   5.421
 3438POPC   PO444976  10.111  44.747   5.616
 3438POPC   GL144977   9.684  44.773   5.849
 3438POPC   GL244978   9.556  44.432   5.912
 3438POPC   C1A44979   9.452  44.746   6.282
 3438POPC   D2A44980   9.495  44.520   6.701
 3438POPC   C3A44981   9.675  44.755   7.049
 3438POPC   C4A44982  10.072  44.943   7.210
 3438POPC   C1B44983   9.942  44.239   6.110
 3438POPC   C2B44984  10.141  44.282   6.538
 3438POPC   C3B44985   9.972  44.221   6.957
 3438POPC   C4B44986   9.893  44.415   7.345
 3439POPC   NC344987   3.755  14.503   5.405
 3439POPC   PO444988   3.269  14.044   5.474
 3439POPC   GL144989   3.374  14.379   5.739
 3439POPC   GL244990   3.190  14.698   5.710
 3439POPC   C1A44991   3.668  14.495   6.073
 3439POPC   D2A44992   3.804  14.274   6.405
 3439POPC   C3A44993   3.667  14.333   6.780
 3439POPC   C4A44994   3.772  14.365   7.168
 3439POPC   C1B44995   3.170  14.588   6.158
 3439POPC   C2B44996   3.341  14.662   6.563
 3439POPC   C3B44997   3.256  14.546   6.994
 3439POPC   C4B44998   3.253  14.162   7.179
 3440POPC   NC344999  33.383  44.564   5.538
 3440POPC   PO445000  32.758  44.817   5.550
 3440POPC   GL145001  32.933  44.557   5.868
 3440POPC   GL245002  32.625  44.351   5.861
 3440POPC   C1A45003  33.161  44.561   6.310
 3440POPC   D2A45004  33.392  44.445   6.715
 3440POPC   C3A45005  33.138  44.416   7.074
 3440POPC   C4A45006  32.902  44.822   7.176
 3440POPC   C1B45007  32.644  44.587   6.279
 3440POPC   C2B45008  32.803  44.499   6.694
 3440POPC   C3B45009  32.619  44.384   7.082
 3440POPC   C4B45010  32.642  44.480   7.493
 3441POPC   NC345011  43.008  18.850   5.347
 3441POPC   PO445012  43.623  18.773   5.433
 3441POPC   GL145013  43.307  18.702   5.798
 3441POPC   GL245014  42.966  18.886   5.887
 3441POPC   C1A45015  43.349  18.748   6.269
 3441POPC   D2A45016  43.431  18.629   6.698
 3441POPC   C3A45017  43.455  18.913   7.056
 3441POPC   C4A45018  43.131  18.903   7.333
 3441POPC   C1B45019  42.860  18.933   6.355
 3441POPC   C2B45020  43.009  18.924   6.801
 3441POPC   C3B45021  42.831  19.234   7.130
 3441POPC   C4B45022  42.804  19.158   7.598
 3442POPC   NC345023  34.009   3.029   5.560
 3442POPC   PO445024  33.362   2.933   5.731
 3442POPC   GL145025  33.554   2.559   5.966
 3442POPC   GL245026  33.891   2.486   5.777
 3442POPC   C1A45027  33.568   2.592   6.430
 3442POPC   D2A45028  33.841   2.845   6.636
 3442POPC   C3A45029  33.953   2.719   7.015
 3442POPC   C4A45030  33.647   2.831   7.286
 3442POPC   C1B45031  34.024   2.538   6.211
 3442POPC   C2B45032  34.102   2.335   6.636
 3442POPC   C3B45033  34.254   2.303   7.095
 3442POPC   C4B45034  34.209   2.651   7.481
 3443POPC   NC345035  11.590  44.108   5.470
 3443POPC   PO445036  10.918  44.161   5.546
 3443POPC   GL145037  11.100  43.854   5.855
 3443POPC   GL245038  11.482  43.799   5.862
 3443POPC   C1A45039  11.206  43.930   6.292
 3443POPC   D2A45040  11.166  44.212   6.643
 3443POPC   C3A45041  11.298  44.125   7.053
 3443POPC   C4A45042  11.053  43.772   7.183
 3443POPC   C1B45043  11.713  43.917   6.228
 3443POPC   C2B45044  11.600  43.941   6.665
 3443POPC   C3B45045  11.756  43.833   7.068
 3443POPC   C4B45046  11.716  43.737   7.505
 3444POPC   NC345047  41.075  26.204   5.495
 3444POPC   PO445048  40.463  25.911   5.403
 3444POPC   GL145049  40.665  26.044   5.770
 3444POPC   GL245050  40.685  26.415   5.788
 3444POPC   C1A45051  40.928  25.834   6.067
 3444POPC   D2A45052  40.987  25.921   6.509
 3444POPC   C3A45053  40.798  25.767   6.902
 3444POPC   C4A45054  40.878  25.964   7.317
 3444POPC   C1B45055  40.726  26.287   6.222
 3444POPC   C2B45056  40.526  26.195   6.623
 3444POPC   C3B45057  40.591  26.299   7.056
 3444POPC   C4B45058  40.430  26.261   7.486
 3445POPC   NC345059  14.397  24.976   5.463
 3445POPC   PO445060  13.980  25.438   5.276
 3445POPC   GL145061  14.252  25.435   5.689
 3445POPC   GL245062  14.541  25.252   5.851
 3445POPC   C1A45063  14.151  25.396   6.140
 3445POPC   D2A45064  14.292  25.136   6.479
 3445POPC   C3A45065  14.063  25.182   6.869
 3445POPC   C4A45066  14.041  25.458   7.215
 3445POPC   C1B45067  14.687  25.432   6.199
 3445POPC   C2B45068  14.766  25.363   6.603
 3445POPC   C3B45069  14.581  25.165   6.943
 3445POPC   C4B45070  14.570  25.294   7.357
 3446POPC   NC345071  18.770  44.603   5.585
 3446POPC   PO445072  19.464  44.544   5.568
 3446POPC   GL145073  19.191  44.522   5.895
 3446POPC   GL245074  19.018  44.843   5.959
 3446POPC   C1A45075  19.212  44.320   6.279
 3446POPC   D2A45076  19.101  44.460   6.689
 3446POPC   C3A45077  19.348  44.472   7.012
 3446POPC   C4A45078  19.328  44.885   7.167
 3446POPC   C1B45079  18.773  44.590   6.252
 3446POPC   C2B45080  18.606  44.594   6.650
 3446POPC   C3B45081  18.779  44.672   7.071
 3446POPC   C4B45082  18.882  44.669   7.491
 3447POPC   NC345083  17.418  14.897   5.323
 3447POPC   PO445084  17.651  15.450   5.564
 3447POPC   GL145085  17.627  15.068   5.805
 3447POPC   GL245086  17.280  14.881   5.830
 3447POPC   C1A45087  17.937  15.047   6.149
 3447POPC   D2A45088  17.875  14.931   6.590
 3447POPC   C3A45089  17.737  15.214   6.951
 3447POPC   C4A45090  17.663  15.270   7.428
 3447POPC   C1B45091  17.272  15.210   6.165
 3447POPC   C2B45092  17.312  15.197   6.624
 3447POPC   C3B45093  17.211  15.289   7.055
 3447POPC   C4B45094  17.155  15.147   7.456
 3448POPC   NC345095  12.230  29.649   5.575
 3448POPC   PO445096  12.275  30.322   5.510
 3448POPC   GL145097  11.984  30.064   5.778
 3448POPC   GL245098  12.300  30.000   5.937
 3448POPC   C1A45099  11.901  29.820   6.211
 3448POPC   D2A45100  12.010  29.682   6.651
 3448POPC   C3A45101  12.032  29.929   7.043
 3448POPC   C4A45102  11.909  29.838   7.452
 3448POPC   C1B45103  12.102  30.300   6.208
 3448POPC   C2B45104  12.185  30.188   6.605
 3448POPC   C3B45105  12.459  29.906   6.772
 3448POPC   C4B45106  12.510  29.937   7.225
 3449POPC   NC345107  21.250  13.150   5.420
 3449POPC   PO445108  21.084  12.494   5.228
 3449POPC   GL145109  21.066  12.689   5.655
 3449POPC   GL245110  20.838  12.538   5.911
 3449POPC   C1A45111  21.286  12.800   6.066
 3449POPC   D2A45112  21.434  13.061   6.428
 3449POPC   C3A45113  21.374  13.037   6.890
 3449POPC   C4A45114  21.632  12.832   7.213
 3449POPC   C1B45115  20.879  12.670   6.358
 3449POPC   C2B45116  21.195  12.628   6.678
 3449POPC   C3B45117  21.249  12.448   7.114
 3449POPC   C4B45118  21.605  12.360   7.418
 3450POPC   NC345119  32.336  15.279   5.447
 3450POPC   PO445120  32.874  14.852   5.501
 3450POPC   GL145121  32.525  14.987   5.836
 3450POPC   GL245122  32.141  15.153   5.879
 3450POPC   C1A45123  32.413  15.093   6.281
 3450POPC   D2A45124  32.605  15.346   6.594
 3450POPC   C3A45125  32.478  15.169   6.967
 3450POPC   C4A45126  32.524  15.334   7.365
 3450POPC   C1B45127  31.914  15.325   6.231
 3450POPC   C2B45128  32.097  15.352   6.614
 3450POPC   C3B45129  31.981  15.285   7.008
 3450POPC   C4B45130  31.591  15.411   7.143
 3451POPC   NC345131  43.283  41.968   5.400
 3451POPC   PO445132  42.608  42.083   5.329
 3451POPC   GL145133  42.928  42.300   5.617
 3451POPC   GL245134  42.880  42.563   5.858
 3451POPC   C1A45135  43.150  42.183   6.035
 3451POPC   D2A45136  43.383  42.200   6.425
 3451POPC   C3A45137  43.142  42.107   6.808
 3451POPC   C4A45138  43.205  42.162   7.232
 3451POPC   C1B45139  43.128  42.663   6.243
 3451POPC   C2B45140  43.227  42.610   6.677
 3451POPC   C3B45141  43.206  42.671   7.097
 3451POPC   C4B45142  42.967  42.574   7.448
 3452POPC   NC345143   1.646  21.525   5.630
 3452POPC   PO445144   1.014  21.323   5.302
 3452POPC   GL145145   1.085  21.205   5.755
 3452POPC   GL245146   1.227  21.537   5.916
 3452POPC   C1A45147   1.180  21.129   6.199
 3452POPC   D2A45148   1.325  21.448   6.522
 3452POPC   C3A45149   1.267  21.244   6.933
 3452POPC   C4A45150   1.201  21.191   7.378
 3452POPC   C1B45151   1.550  21.783   6.201
 3452POPC   C2B45152   1.513  21.961   6.591
 3452POPC   C3B45153   1.474  21.708   6.960
 3452POPC   C4B45154   1.329  21.672   7.359
 3453POPC   NC345155   6.911   3.005   5.391
 3453POPC   PO445156   6.295   2.628   5.457
 3453POPC   GL145157   6.468   2.581   5.879
 3453POPC   GL245158   6.751   2.792   5.863
 3453POPC   C1A45159   6.502   2.704   6.332
 3453POPC   D2A45160   6.352   2.948   6.697
 3453POPC   C3A45161   6.498   2.824   7.084
 3453POPC   C4A45162   6.622   3.122   7.374
 3453POPC   C1B45163   6.977   2.542   6.191
 3453POPC   C2B45164   6.939   2.664   6.628
 3453POPC   C3B45165   6.899   2.474   7.025
 3453POPC   C4B45166   6.861   2.668   7.434
 3454POPC   NC345167  11.002  44.710   5.398
 3454POPC   PO445168  11.681  44.550   5.510
 3454POPC   GL145169  11.384  44.659   5.788
 3454POPC   GL245170  11.327  44.321   5.883
 3454POPC   C1A45171  11.395  44.806   6.210
 3454POPC   D2A45172  11.477  44.587   6.566
 3454POPC   C3A45173  11.451  44.844   6.913
 3454POPC   C4A45174  11.508  44.587   7.261
 3454POPC   C1B45175  11.043  44.441   6.206
 3454POPC   C2B45176  10.976  44.712   6.557
 3454POPC   C3B45177  11.042  44.570   6.981
 3454POPC   C4B45178  11.059  44.442   7.446
 3455POPC   NC345179  41.677  24.678   5.443
 3455POPC   PO445180  41.577  23.988   5.526
 3455POPC   GL145181  41.580  24.328   5.836
 3455POPC   GL245182  41.679  24.692   5.941
 3455POPC   C1A45183  41.637  24.293   6.258
 3455POPC   D2A45184  41.822  24.493   6.551
 3455POPC   C3A45185  41.532  24.436   6.863
 3455POPC   C4A45186  41.656  24.141   7.201
 3455POPC   C1B45187  41.351  24.755   6.258
 3455POPC   C2B45188  41.237  24.963   6.639
 3455POPC   C3B45189  41.428  24.960   7.041
 3455POPC   C4B45190  41.532  24.645   7.315
 3456POPC   NC345191  11.036  35.518   5.257
 3456POPC   PO445192  11.343  34.888   5.293
 3456POPC   GL145193  11.215  35.081   5.704
 3456POPC   GL245194  11.211  35.462   5.750
 3456POPC   C1A45195  11.395  35.164   6.128
 3456POPC   D2A45196  11.454  35.350   6.566
 3456POPC   C3A45197  11.183  35.164   6.889
 3456POPC   C4A45198  11.289  34.868   7.233
 3456POPC   C1B45199  11.194  35.630   6.185
 3456POPC   C2B45200  11.184  35.801   6.622
 3456POPC   C3B45201  11.358  35.700   7.037
 3456POPC   C4B45202  11.376  35.811   7.496
 3457POPC   NC345203  35.968  41.299   5.433
 3457POPC   PO445204  36.380  41.921   5.483
 3457POPC   GL145205  36.083  41.691   5.750
 3457POPC   GL245206  36.305  41.423   5.820
 3457POPC   C1A45207  35.923  41.513   6.160
 3457POPC   D2A45208  35.721  41.441   6.588
 3457POPC   C3A45209  35.968  41.417   6.936
 3457POPC   C4A45210  35.990  41.113   7.248
 3457POPC   C1B45211  36.402  41.781   6.130
 3457POPC   C2B45212  36.529  41.789   6.546
 3457POPC   C3B45213  36.332  41.842   6.947
 3457POPC   C4B45214  36.262  41.603   7.301
 3458POPC   NC345215  21.936  44.905   5.558
 3458POPC   PO445216  22.589  44.822   5.520
 3458POPC   GL145217  22.448  44.484   5.820
 3458POPC   GL245218  22.099  44.498   5.833
 3458POPC   C1A45219  22.392  44.519   6.260
 3458POPC   D2A45220  22.259  44.836   6.554
 3458POPC   C3A45221  22.367  44.647   6.913
 3458POPC   C4A45222  22.363  44.700   7.324
 3458POPC   C1B45223  21.898  44.624   6.227
 3458POPC   C2B45224  21.878  44.468   6.677
 3458POPC   C3B45225  21.887  44.594   7.097
 3458POPC   C4B45226  21.971   0.002   6.980
 3459POPC   NC345227  22.007  20.805   5.377
 3459POPC   PO445228  22.462  20.310   5.348
 3459POPC   GL145229  22.398  20.629   5.702
 3459POPC   GL245230  22.073  20.655   5.840
 3459POPC   C1A45231  22.416  20.503   6.174
 3459POPC   D2A45232  22.541  20.712   6.558
 3459POPC   C3A45233  22.317  20.597   6.923
 3459POPC   C4A45234  22.288  20.781   7.311
 3459POPC   C1B45235  21.905  20.414   6.149
 3459POPC   C2B45236  21.964  20.515   6.556
 3459POPC   C3B45237  21.892  20.310   6.942
 3459POPC   C4B45238  21.882  20.480   7.328
 3460POPC   NC345239   4.960  25.579   5.394
 3460POPC   PO445240   5.288  25.057   5.401
 3460POPC   GL145241   5.263  25.357   5.754
 3460POPC   GL245242   5.496  25.182   5.910
 3460POPC   C1A45243   5.032  25.410   6.174
 3460POPC   D2A45244   4.944  25.137   6.585
 3460POPC   C3A45245   4.973  25.345   7.004
 3460POPC   C4A45246   4.845  25.572   7.355
 3460POPC   C1B45247   5.297  24.963   6.218
 3460POPC   C2B45248   5.431  24.827   6.587
 3460POPC   C3B45249   5.318  24.972   6.963
 3460POPC   C4B45250   5.282  24.816   7.351
 3461POPC   NC345251   2.026   3.897   5.405
 3461POPC   PO445252   1.896   3.280   5.521
 3461POPC   GL145253   1.876   3.572   5.823
 3461POPC   GL245254   1.636   3.789   5.738
 3461POPC   C1A45255   1.797   3.491   6.252
 3461POPC   D2A45256   1.945   3.562   6.667
 3461POPC   C3A45257   1.874   3.308   7.017
 3461POPC   C4A45258   1.968   3.274   7.462
 3461POPC   C1B45259   1.645   3.997   6.128
 3461POPC   C2B45260   1.572   3.883   6.545
 3461POPC   C3B45261   1.798   3.979   6.934
 3461POPC   C4B45262   1.819   3.731   7.310
 3462POPC   NC345263  30.138  10.047   5.401
 3462POPC   PO445264  29.497   9.760   5.385
 3462POPC   GL145265  29.734   9.688   5.778
 3462POPC   GL245266  30.071   9.492   5.753
 3462POPC   C1A45267  29.586   9.640   6.214
 3462POPC   D2A45268  29.619   9.816   6.636
 3462POPC   C3A45269  29.703   9.498   6.950
 3462POPC   C4A45270  29.847   9.666   7.325
 3462POPC   C1B45271  30.103   9.710   6.159
 3462POPC   C2B45272  30.078   9.610   6.605
 3462POPC   C3B45273  30.309   9.570   7.004
 3462POPC   C4B45274  30.297   9.516   7.453
 3463POPC   NC345275  33.537  12.600   5.526
 3463POPC   PO445276  33.908  13.174   5.374
 3463POPC   GL145277  33.914  12.890   5.780
 3463POPC   GL245278  33.589  12.877   5.932
 3463POPC   C1A45279  33.999  12.770   6.251
 3463POPC   D2A45280  34.124  12.858   6.700
 3463POPC   C3A45281  33.872  12.780   7.090
 3463POPC   C4A45282  33.864  13.039   7.489
 3463POPC   C1B45283  33.643  13.147   6.237
 3463POPC   C2B45284  33.623  12.983   6.629
 3463POPC   C3B45285  33.492  13.120   7.001
 3463POPC   C4B45286  33.388  12.890   7.358
 3464POPC   NC345287  10.402  31.901   5.535
 3464POPC   PO445288  10.406  32.566   5.582
 3464POPC   GL145289  10.676  32.266   5.794
 3464POPC   GL245290  10.385  32.161   5.976
 3464POPC   C1A45291  10.809  31.982   6.154
 3464POPC   D2A45292  10.624  32.148   6.538
 3464POPC   C3A45293  10.853  32.291   6.889
 3464POPC   C4A45294  10.690  32.079   7.226
 3464POPC   C1B45295  10.357  32.514   6.234
 3464POPC   C2B45296  10.180  32.452   6.606
 3464POPC   C3B45297  10.310  32.334   6.985
 3464POPC   C4B45298  10.548  32.567   7.270
 3465POPC   NC345299  14.585  21.005   5.525
 3465POPC   PO445300  14.180  20.449   5.465
 3465POPC   GL145301  14.352  20.622   5.888
 3465POPC   GL245302  14.684  20.777   5.964
 3465POPC   C1A45303  14.339  20.561   6.349
 3465POPC   D2A45304  14.127  20.358   6.713
 3465POPC   C3A45305  14.315  20.542   7.066
 3465POPC   C4A45306  14.738  20.563   7.146
 3465POPC   C1B45307  14.461  21.051   6.235
 3465POPC   C2B45308  14.411  20.958   6.661
 3465POPC   C3B45309  14.705  21.044   6.942
 3465POPC   C4B45310  14.919  21.020   7.308
 3466POPC   NC345311  18.923   2.987   5.403
 3466POPC   PO445312  18.945   2.424   5.118
 3466POPC   GL145313  18.920   2.469   5.668
 3466POPC   GL245314  18.838   2.774   5.844
 3466POPC   C1A45315  19.119   2.524   6.144
 3466POPC   D2A45316  19.150   2.770   6.533
 3466POPC   C3A45317  19.237   2.591   6.931
 3466POPC   C4A45318  18.934   2.605   7.205
 3466POPC   C1B45319  18.965   3.073   6.145
 3466POPC   C2B45320  18.817   3.148   6.565
 3466POPC   C3B45321  19.034   3.071   6.954
 3466POPC   C4B45322  19.346   3.007   7.253
 3467POPC   NC345323  31.996  33.443   5.051
 3467POPC   PO445324  32.196  32.970   5.529
 3467POPC   GL145325  32.311  33.220   5.886
 3467POPC   GL245326  32.616  32.984   5.971
 3467POPC   C1A45327  32.454  33.364   6.278
 3467POPC   D2A45328  32.307  33.236   6.662
 3467POPC   C3A45329  32.524  33.242   7.044
 3467POPC   C4A45330  32.296  33.135   7.415
 3467POPC   C1B45331  32.220  32.865   6.224
 3467POPC   C2B45332  31.941  32.902   6.573
 3467POPC   C3B45333  32.128  32.883   6.992
 3467POPC   C4B45334  31.865  32.785   7.336
 3468POPC   NC345335  26.897  18.943   5.393
 3468POPC   PO445336  27.345  19.350   5.716
 3468POPC   GL145337  26.992  19.130   5.865
 3468POPC   GL245338  27.191  18.829   5.886
 3468POPC   C1A45339  26.726  19.084   6.231
 3468POPC   D2A45340  26.526  19.257   6.616
 3468POPC   C3A45341  26.688  19.100   7.012
 3468POPC   C4A45342  26.963  19.242   7.337
 3468POPC   C1B45343  27.269  19.033   6.307
 3468POPC   C2B45344  27.054  18.969   6.688
 3468POPC   C3B45345  27.071  18.748   7.094
 3468POPC   C4B45346  27.095  18.796   7.532
 3469POPC   NC345347   3.948  44.211   5.524
 3469POPC   PO445348   4.414  43.725   5.501
 3469POPC   GL145349   4.413  43.910   5.861
 3469POPC   GL245350   4.069  43.843   5.885
 3469POPC   C1A45351   4.348  44.089   6.260
 3469POPC   D2A45352   4.536  44.048   6.642
 3469POPC   C3A45353   4.316  44.240   6.974
 3469POPC   C4A45354   4.545  44.126   7.314
 3469POPC   C1B45355   4.059  43.646   6.279
 3469POPC   C2B45356   4.039  43.818   6.701
 3469POPC   C3B45357   4.152  43.759   7.122
 3469POPC   C4B45358   4.082  44.021   7.505
 3470POPC   NC345359  31.410  42.952   5.132
 3470POPC   PO445360  31.676  43.458   5.497
 3470POPC   GL145361  31.477  43.271   5.860
 3470POPC   GL245362  31.257  43.019   5.654
 3470POPC   C1A45363  31.535  43.263   6.306
 3470POPC   D2A45364  31.801  42.961   6.527
 3470POPC   C3A45365  31.803  42.942   6.990
 3470POPC   C4A45366  31.449  43.150   7.252
 3470POPC   C1B45367  31.147  42.951   6.092
 3470POPC   C2B45368  31.160  42.786   6.517
 3470POPC   C3B45369  31.329  42.728   6.927
 3470POPC   C4B45370  31.099  42.780   7.289
 3471POPC   NC345371  39.542  22.389   5.444
 3471POPC   PO445372  39.166  21.847   5.482
 3471POPC   GL145373  39.304  22.098   5.802
 3471POPC   GL245374  39.005  22.263   5.931
 3471POPC   C1A45375  39.409  22.138   6.236
 3471POPC   D2A45376  39.180  22.157   6.627
 3471POPC   C3A45377  39.417  22.272   6.964
 3471POPC   C4A45378  39.398  22.113   7.350
 3471POPC   C1B45379  39.064  22.522   6.285
 3471POPC   C2B45380  39.227  22.664   6.681
 3471POPC   C3B45381  38.973  22.493   7.036
 3471POPC   C4B45382  38.849  22.640   7.458
 3472POPC   NC345383   7.862  27.418   5.483
 3472POPC   PO445384   7.993  28.053   5.674
 3472POPC   GL145385   8.140  27.673   5.860
 3472POPC   GL245386   8.484  27.699   5.717
 3472POPC   C1A45387   8.126  27.413   6.269
 3472POPC   D2A45388   7.959  27.524   6.702
 3472POPC   C3A45389   8.037  27.474   7.150
 3472POPC   C4A45390   7.983  27.733   7.520
 3472POPC   C1B45391   8.564  27.653   6.151
 3472POPC   C2B45392   8.441  27.710   6.578
 3472POPC   C3B45393   8.526  27.592   6.975
 3472POPC   C4B45394   8.488  27.650   7.406
 3473POPC   NC345395   3.300  12.273   5.539
 3473POPC   PO445396   2.603  12.147   5.495
 3473POPC   GL145397   2.700  11.989   5.902
 3473POPC   GL245398   3.058  11.998   5.915
 3473POPC   C1A45399   2.621  12.036   6.345
 3473POPC   D2A45400   2.749  11.821   6.723
 3473POPC   C3A45401   2.579  11.984   7.117
 3473POPC   C4A45402   2.779  11.923   7.528
 3473POPC   C1B45403   3.088  11.768   6.314
 3473POPC   C2B45404   3.284  11.882   6.709
 3473POPC   C3B45405   3.091  12.029   7.082
 3473POPC   C4B45406   2.993  11.630   7.148
 3474POPC   NC345407   8.567   5.932   5.506
 3474POPC   PO445408   8.060   5.455   5.530
 3474POPC   GL145409   8.131   5.881   5.755
 3474POPC   GL245410   8.351   5.687   5.980
 3474POPC   C1A45411   8.235   6.135   6.164
 3474POPC   D2A45412   8.282   5.835   6.520
 3474POPC   C3A45413   8.482   5.887   6.918
 3474POPC   C4A45414   8.373   6.112   7.260
 3474POPC   C1B45415   7.903   5.743   6.175
 3474POPC   C2B45416   7.753   5.569   6.540
 3474POPC   C3B45417   7.955   5.673   6.885
 3474POPC   C4B45418   7.890   5.884   7.256
 3475POPC   NC345419  23.955   4.150   5.622
 3475POPC   PO445420  23.249   4.395   5.427
 3475POPC   GL145421  23.468   4.370   5.842
 3475POPC   GL245422  23.535   4.046   6.021
 3475POPC   C1A45423  23.446   4.551   6.273
 3475POPC   D2A45424  23.636   4.554   6.696
 3475POPC   C3A45425  23.404   4.463   7.077
 3475POPC   C4A45426  23.544   4.039   7.255
 3475POPC   C1B45427  23.882   4.231   6.276
 3475POPC   C2B45428  24.152   4.135   6.631
 3475POPC   C3B45429  24.031   4.111   7.059
 3475POPC   C4B45430  23.913   4.508   7.144
 3476POPC   NC345431  20.150  16.196   5.207
 3476POPC   PO445432  19.508  16.076   5.546
 3476POPC   GL145433  19.783  16.111   5.882
 3476POPC   GL245434  20.107  16.127   5.719
 3476POPC   C1A45435  19.719  15.973   6.290
 3476POPC   D2A45436  19.502  15.743   6.624
 3476POPC   C3A45437  19.712  15.896   6.932
 3476POPC   C4A45438  19.745  15.803   7.316
 3476POPC   C1B45439  20.244  16.119   6.154
 3476POPC   C2B45440  20.131  16.154   6.592
 3476POPC   C3B45441  19.851  16.386   6.850
 3476POPC   C4B45442  19.665  16.313   7.252
 3477POPC   NC345443  33.384  20.442   5.050
 3477POPC   PO445444  32.831  20.518   5.445
 3477POPC   GL145445  32.980  20.624   5.871
 3477POPC   GL245446  33.295  20.772   5.868
 3477POPC   C1A45447  33.069  20.334   6.222
 3477POPC   D2A45448  32.874  20.175   6.602
 3477POPC   C3A45449  32.771  20.343   7.008
 3477POPC   C4A45450  32.854  20.580   7.353
 3477POPC   C1B45451  33.158  20.822   6.311
 3477POPC   C2B45452  33.069  20.673   6.718
 3477POPC   C3B45453  33.289  20.741   7.099
 3477POPC   C4B45454  33.299  20.753   7.550
 3478POPC   NC345455  38.021  18.444   5.638
 3478POPC   PO445456  37.597  18.948   5.408
 3478POPC   GL145457  37.634  19.085   5.815
 3478POPC   GL245458  37.928  18.900   5.868
 3478POPC   C1A45459  37.490  19.238   6.200
 3478POPC   D2A45460  37.626  19.082   6.573
 3478POPC   C3A45461  37.682  19.340   6.893
 3478POPC   C4A45462  37.662  19.170   7.308
 3478POPC   C1B45463  38.015  19.195   6.199
 3478POPC   C2B45464  38.154  19.095   6.605
 3478POPC   C3B45465  38.007  18.946   6.991
 3478POPC   C4B45466  38.237  19.171   7.324
 3479POPC   NC345467  10.024   7.876   5.489
 3479POPC   PO445468   9.625   8.373   5.472
 3479POPC   GL145469   9.793   8.220   5.793
 3479POPC   GL245470   9.569   7.904   5.746
 3479POPC   C1A45471   9.825   8.436   6.178
 3479POPC   D2A45472   9.643   8.425   6.578
 3479POPC   C3A45473   9.883   8.261   6.899
 3479POPC   C4A45474   9.819   8.441   7.261
 3479POPC   C1B45475   9.546   7.999   6.172
 3479POPC   C2B45476   9.586   7.897   6.584
 3479POPC   C3B45477   9.356   8.077   6.891
 3479POPC   C4B45478   9.584   7.999   7.221
 3480POPC   NC345479  25.225  27.685   5.483
 3480POPC   PO445480  24.841  27.076   5.606
 3480POPC   GL145481  24.974  27.446   5.868
 3480POPC   GL245482  25.344  27.474   5.933
 3480POPC   C1A45483  25.036  27.803   6.176
 3480POPC   D2A45484  25.165  27.755   6.605
 3480POPC   C3A45485  25.055  27.402   6.815
 3480POPC   C4A45486  25.051  27.289   7.204
 3480POPC   C1B45487  25.605  27.570   6.267
 3480POPC   C2B45488  25.589  27.509   6.703
 3480POPC   C3B45489  25.422  27.658   7.100
 3480POPC   C4B45490  25.558  27.928   7.441
 3481POPC   NC345491  24.474   3.119   5.311
 3481POPC   PO445492  24.702   3.765   5.355
 3481POPC   GL145493  24.701   3.521   5.783
 3481POPC   GL245494  24.650   3.128   5.864
 3481POPC   C1A45495  24.599   3.451   6.241
 3481POPC   D2A45496  24.665   3.246   6.661
 3481POPC   C3A45497  24.876   3.583   6.872
 3481POPC   C4A45498  24.946   3.777   7.244
 3481POPC   C1B45499  24.354   3.026   6.276
 3481POPC   C2B45500  24.152   3.263   6.581
 3481POPC   C3B45501  24.252   3.297   7.003
 3481POPC   C4B45502  24.635   3.320   7.258
 3482POPC   NC345503  17.320  30.382   5.482
 3482POPC   PO445504  17.748  30.858   5.317
 3482POPC   GL145505  17.521  30.829   5.770
 3482POPC   GL245506  17.438  30.532   5.955
 3482POPC   C1A45507  17.359  30.899   6.259
 3482POPC   D2A45508  17.407  30.499   6.557
 3482POPC   C3A45509  17.403  30.638   7.008
 3482POPC   C4A45510  17.308  30.885   7.373
 3482POPC   C1B45511  17.807  30.622   6.252
 3482POPC   C2B45512  17.848  30.707   6.737
 3482POPC   C3B45513  17.863  30.475   7.169
 3482POPC   C4B45514  17.799  30.650   7.605
 3483POPC   NC345515  30.995  42.161   5.370
 3483POPC   PO445516  30.439  42.371   5.276
 3483POPC   GL145517  30.619  42.380   5.682
 3483POPC   GL245518  30.840  42.676   5.656
 3483POPC   C1A45519  30.617  42.186   6.117
 3483POPC   D2A45520  30.781  41.992   6.509
 3483POPC   C3A45521  30.671  42.078   6.948
 3483POPC   C4A45522  30.696  41.994   7.432
 3483POPC   C1B45523  30.714  42.685   6.099
 3483POPC   C2B45524  30.677  42.518   6.506
 3483POPC   C3B45525  30.832  42.583   6.894
 3483POPC   C4B45526  30.711  42.469   7.288
 3484POPC   NC345527  32.791  24.856   5.378
 3484POPC   PO445528  33.037  24.230   5.517
 3484POPC   GL145529  32.861  24.312   5.892
 3484POPC   GL245530  33.002  24.660   5.837
 3484POPC   C1A45531  32.982  24.189   6.331
 3484POPC   D2A45532  33.140  24.249   6.772
 3484POPC   C3A45533  32.895  24.475   7.112
 3484POPC   C4A45534  32.700  24.923   7.154
 3484POPC   C1B45535  33.272  24.589   6.192
 3484POPC   C2B45536  33.212  24.749   6.597
 3484POPC   C3B45537  33.382  24.706   6.990
 3484POPC   C4B45538  33.439  24.348   7.182
 3485POPC   NC345539  18.049  31.953   5.324
 3485POPC   PO445540  18.236  32.510   5.404
 3485POPC   GL145541  18.463  32.245   5.643
 3485POPC   GL245542  18.559  32.543   5.842
 3485POPC   C1A45543  18.428  31.997   6.022
 3485POPC   D2A45544  18.193  31.946   6.419
 3485POPC   C3A45545  18.347  31.923   6.836
 3485POPC   C4A45546  18.478  32.128   7.240
 3485POPC   C1B45547  18.337  32.450   6.218
 3485POPC   C2B45548  18.329  32.399   6.654
 3485POPC   C3B45549  18.456  32.596   7.027
 3485POPC   C4B45550  18.442  32.616   7.457
 3486POPC   NC345551  13.271   6.104   5.297
 3486POPC   PO445552  12.735   5.685   5.148
 3486POPC   GL145553  12.780   5.910   5.578
 3486POPC   GL245554  13.122   5.827   5.713
 3486POPC   C1A45555  12.797   6.045   6.035
 3486POPC   D2A45556  12.887   5.839   6.440
 3486POPC   C3A45557  12.938   6.021   6.860
 3486POPC   C4A45558  12.877   5.858   7.288
 3486POPC   C1B45559  13.233   5.608   6.101
 3486POPC   C2B45560  13.305   5.564   6.548
 3486POPC   C3B45561  13.033   5.538   6.895
 3486POPC   C4B45562  13.206   5.480   7.242
 3487POPC   NC345563  20.388  37.938   5.476
 3487POPC   PO445564  19.792  37.608   5.504
 3487POPC   GL145565  19.837  37.668   5.898
 3487POPC   GL245566  20.201  37.629   5.886
 3487POPC   C1A45567  19.657  37.690   6.306
 3487POPC   D2A45568  19.746  37.910   6.675
 3487POPC   C3A45569  19.621  37.666   7.029
 3487POPC   C4A45570  19.655  37.848   7.412
 3487POPC   C1B45571  20.148  37.893   6.237
 3487POPC   C2B45572  20.220  37.705   6.615
 3487POPC   C3B45573  20.129  37.789   7.023
 3487POPC   C4B45574  20.365  37.595   7.300
 3488POPC   NC345575   2.610  28.015   5.415
 3488POPC   PO445576   3.160  28.281   5.391
 3488POPC   GL145577   2.890  28.438   5.742
 3488POPC   GL245578   2.821  28.818   5.687
 3488POPC   C1A45579   2.754  28.375   6.192
 3488POPC   D2A45580   2.945  28.267   6.599
 3488POPC   C3A45581   2.765  28.289   7.006
 3488POPC   C4A45582   2.915  28.179   7.390
 3488POPC   C1B45583   2.968  28.842   6.106
 3488POPC   C2B45584   2.854  28.812   6.542
 3488POPC   C3B45585   2.996  28.883   6.955
 3488POPC   C4B45586   2.872  28.676   7.323
 3489POPC   NC345587  33.426  34.759   5.582
 3489POPC   PO445588  32.754  34.538   5.463
 3489POPC   GL145589  32.936  34.656   5.822
 3489POPC   GL245590  33.229  34.456   5.939
 3489POPC   C1A45591  32.956  34.810   6.215
 3489POPC   D2A45592  33.079  34.806   6.629
 3489POPC   C3A45593  32.679  34.790   6.857
 3489POPC   C4A45594  32.636  34.637   7.267
 3489POPC   C1B45595  32.985  34.298   6.308
 3489POPC   C2B45596  32.908  34.350   6.776
 3489POPC   C3B45597  33.136  34.562   7.145
 3489POPC   C4B45598  33.491  34.865   7.245
 3490POPC   NC345599   2.283  14.979   5.404
 3490POPC   PO445600   1.827  15.413   5.484
 3490POPC   GL145601   1.976  15.148   5.799
 3490POPC   GL245602   2.333  15.173   5.875
 3490POPC   C1A45603   1.883  15.113   6.228
 3490POPC   D2A45604   1.773  15.359   6.569
 3490POPC   C3A45605   1.820  15.155   7.001
 3490POPC   C4A45606   1.898  15.245   7.434
 3490POPC   C1B45607   2.388  15.066   6.326
 3490POPC   C2B45608   2.234  15.150   6.738
 3490POPC   C3B45609   2.324  15.278   7.172
 3490POPC   C4B45610   2.358  15.076   7.596
 3491POPC   NC345611   2.245   5.452   5.427
 3491POPC   PO445612   1.856   4.956   5.319
 3491POPC   GL145613   2.087   4.999   5.716
 3491POPC   GL245614   1.989   5.297   5.829
 3491POPC   C1A45615   2.185   5.030   6.193
 3491POPC   D2A45616   2.020   5.277   6.548
 3491POPC   C3A45617   2.044   5.031   6.934
 3491POPC   C4A45618   1.861   4.994   7.357
 3491POPC   C1B45619   2.249   5.539   6.144
 3491POPC   C2B45620   2.464   5.574   6.555
 3491POPC   C3B45621   2.250   5.593   6.933
 3491POPC   C4B45622   2.133   5.391   7.281
 3492POPC   NC345623  33.003   0.200   5.477
 3492POPC   PO445624  33.206   0.796   5.580
 3492POPC   GL145625  32.860   0.586   5.850
 3492POPC   GL245626  32.692   0.249   5.856
 3492POPC   C1A45627  32.883   0.452   6.308
 3492POPC   D2A45628  33.253   0.391   6.594
 3492POPC   C3A45629  33.227   0.665   6.955
 3492POPC   C4A45630  33.181   0.796   7.356
 3492POPC   C1B45631  32.974  44.996   6.131
 3492POPC   C2B45632  32.906  44.983   6.569
 3492POPC   C3B45633  32.810   0.320   6.859
 3492POPC   C4B45634  32.924   0.366   7.307
 3493POPC   NC345635  31.779  44.157   5.596
 3493POPC   PO445636  32.415  43.880   5.483
 3493POPC   GL145637  32.274  43.938   5.873
 3493POPC   GL245638  32.346  43.602   5.950
 3493POPC   C1A45639  32.350  44.170   6.248
 3493POPC   D2A45640  32.548  44.066   6.631
 3493POPC   C3A45641  32.260  44.050   6.968
 3493POPC   C4A45642  32.086  43.735   7.179
 3493POPC   C1B45643  32.546  43.694   6.275
 3493POPC   C2B45644  32.491  43.466   6.573
 3493POPC   C3B45645  32.533  43.626   6.931
 3493POPC   C4B45646  32.562  43.615   7.336
 3494POPC   NC345647  18.891  20.001   5.452
 3494POPC   PO445648  19.211  19.446   5.664
 3494POPC   GL145649  18.950  19.672   5.868
 3494POPC   GL245650  19.140  20.006   5.880
 3494POPC   C1A45651  18.896  19.764   6.292
 3494POPC   D2A45652  19.241  19.803   6.586
 3494POPC   C3A45653  19.286  19.455   6.836
 3494POPC   C4A45654  19.186  19.492   7.250
 3494POPC   C1B45655  19.150  20.213   6.270
 3494POPC   C2B45656  18.852  20.140   6.644
 3494POPC   C3B45657  18.900  19.872   7.022
 3494POPC   C4B45658  19.141  19.968   7.431
 3495POPC   NC345659  10.287  11.685   5.505
 3495POPC   PO445660  10.855  12.147   5.408
 3495POPC   GL145661  10.751  11.919   5.778
 3495POPC   GL245662  10.414  12.009   5.905
 3495POPC   C1A45663  10.839  11.849   6.218
 3495POPC   D2A45664  10.566  12.111   6.495
 3495POPC   C3A45665  10.645  12.220   6.886
 3495POPC   C4A45666  10.405  12.163   7.268
 3495POPC   C1B45667  10.351  11.724   6.231
 3495POPC   C2B45668  10.568  11.618   6.618
 3495POPC   C3B45669  10.443  11.748   6.975
 3495POPC   C4B45670  10.535  11.680   7.388
 3496POPC   NC345671   6.333  43.031   5.601
 3496POPC   PO445672   5.690  43.319   5.409
 3496POPC   GL145673   5.783  43.055   5.734
 3496POPC   GL245674   5.479  43.175   5.872
 3496POPC   C1A45675   5.947  43.052   6.153
 3496POPC   D2A45676   5.944  43.201   6.569
 3496POPC   C3A45677   6.085  42.962   6.919
 3496POPC   C4A45678   5.975  43.207   7.247
 3496POPC   C1B45679   5.469  42.823   6.113
 3496POPC   C2B45680   5.643  42.775   6.512
 3496POPC   C3B45681   5.561  42.980   6.922
 3496POPC   C4B45682   5.478  43.128   7.360
 3497POPC   NC345683  18.091  30.506   5.240
 3497POPC   PO445684  18.471  30.898   5.544
 3497POPC   GL145685  18.321  30.744   5.929
 3497POPC   GL245686  18.124  30.468   5.790
 3497POPC   C1A45687  18.591  30.649   6.301
 3497POPC   D2A45688  18.572  30.685   6.730
 3497POPC   C3A45689  18.285  30.909   6.951
 3497POPC   C4A45690  18.265  30.774   7.340
 3497POPC   C1B45691  18.228  30.294   6.214
 3497POPC   C2B45692  18.162  30.317   6.677
 3497POPC   C3B45693  18.354  30.335   7.100
 3497POPC   C4B45694  18.196  30.330   7.554
 3498POPC   NC345695  17.009  42.266   5.315
 3498POPC   PO445696  16.429  42.548   5.595
 3498POPC   GL145697  16.810  42.422   5.795
 3498POPC   GL245698  16.809  42.105   5.807
 3498POPC   C1A45699  16.923  42.312   6.229
 3498POPC   D2A45700  16.783  42.085   6.598
 3498POPC   C3A45701  16.751  42.298   6.983
 3498POPC   C4A45702  16.956  42.593   7.229
 3498POPC   C1B45703  16.471  42.094   6.173
 3498POPC   C2B45704  16.270  42.012   6.599
 3498POPC   C3B45705  16.364  41.956   7.035
 3498POPC   C4B45706  16.445  42.218   7.396
 3499POPC   NC345707  40.450  25.465   5.242
 3499POPC   PO445708  40.896  24.991   5.422
 3499POPC   GL145709  40.822  25.237   5.812
 3499POPC   GL245710  40.559  25.529   5.779
 3499POPC   C1A45711  40.920  25.108   6.234
 3499POPC   D2A45712  40.995  25.407   6.563
 3499POPC   C3A45713  40.921  25.250   6.960
 3499POPC   C4A45714  40.910  25.459   7.355
 3499POPC   C1B45715  40.585  25.506   6.248
 3499POPC   C2B45716  40.503  25.283   6.649
 3499POPC   C3B45717  40.407  25.322   7.104
 3499POPC   C4B45718  40.473  25.230   7.566
 3500POPC   NC345719  38.052  24.536   5.271
 3500POPC   PO445720  37.567  24.736   5.607
 3500POPC   GL145721  37.807  24.515   5.870
 3500POPC   GL245722  37.586  24.261   5.962
 3500POPC   C1A45723  37.743  24.629   6.294
 3500POPC   D2A45724  37.889  24.604   6.682
 3500POPC   C3A45725  37.659  24.786   7.003
 3500POPC   C4A45726  37.942  24.659   7.300
 3500POPC   C1B45727  37.421  24.187   6.365
 3500POPC   C2B45728  37.484  24.294   6.744
 3500POPC   C3B45729  37.740  24.255   7.038
 3500POPC   C4B45730  37.465  24.433   7.328
 3501POPC   NC345731  28.365   4.383   5.410
 3501POPC   PO445732  28.197   3.676   5.297
 3501POPC   GL145733  28.277   4.016   5.741
 3501POPC   GL245734  28.163   4.391   5.866
 3501POPC   C1A45735  28.494   4.138   6.163
 3501POPC   D2A45736  28.664   3.971   6.567
 3501POPC   C3A45737  28.417   4.039   6.918
 3501POPC   C4A45738  28.418   4.393   7.191
 3501POPC   C1B45739  28.079   4.495   6.313
 3501POPC   C2B45740  28.079   4.421   6.772
 3501POPC   C3B45741  28.017   4.679   7.143
 3501POPC   C4B45742  28.099   4.531   7.580
 3502POPC   NC345743   8.333  33.193   5.399
 3502POPC   PO445744   8.026  32.547   5.402
 3502POPC   GL145745   8.211  32.726   5.796
 3502POPC   GL245746   8.415  33.015   5.862
 3502POPC   C1A45747   8.165  32.756   6.257
 3502POPC   D2A45748   8.219  32.571   6.671
 3502POPC   C3A45749   8.002  32.857   6.893
 3502POPC   C4A45750   7.795  32.861   7.261
 3502POPC   C1B45751   8.524  33.176   6.238
 3502POPC   C2B45752   8.483  33.028   6.645
 3502POPC   C3B45753   8.488  32.867   7.046
 3502POPC   C4B45754   8.280  32.940   7.420
 3503POPC   NC345755  27.221  28.634   5.479
 3503POPC   PO445756  27.604  28.068   5.332
 3503POPC   GL145757  27.716  28.362   5.776
 3503POPC   GL245758  27.444  28.581   5.951
 3503POPC   C1A45759  27.761  28.263   6.235
 3503POPC   D2A45760  27.494  28.383   6.570
 3503POPC   C3A45761  27.680  28.378   6.958
 3503POPC   C4A45762  27.555  28.394   7.350
 3503POPC   C1B45763  27.176  28.709   6.254
 3503POPC   C2B45764  27.090  28.671   6.673
 3503POPC   C3B45765  27.294  28.759   7.090
 3503POPC   C4B45766  27.190  28.711   7.560
 3504POPC   NC345767   0.232  14.840   5.167
 3504POPC   PO445768   0.572  14.199   5.429
 3504POPC   GL145769   0.448  14.309   5.824
 3504POPC   GL245770   0.168  14.495   5.717
 3504POPC   C1A45771   0.601  14.447   6.228
 3504POPC   D2A45772   0.393  14.289   6.589
 3504POPC   C3A45773   0.553  14.338   7.019
 3504POPC   C4A45774   0.825  14.154   7.351
 3504POPC   C1B45775   0.110  14.581   6.154
 3504POPC   C2B45776   0.060  14.691   6.573
 3504POPC   C3B45777   0.017  14.410   6.914
 3504POPC   C4B45778   0.111  14.344   7.321
 3505POPC   NC345779  35.536  36.877   5.360
 3505POPC   PO445780  34.991  36.562   5.612
 3505POPC   GL145781  35.289  36.754   5.927
 3505POPC   GL245782  35.652  36.821   5.872
 3505POPC   C1A45783  35.243  36.796   6.383
 3505POPC   D2A45784  35.086  36.673   6.764
 3505POPC   C3A45785  35.224  36.815   7.133
 3505POPC   C4A45786  34.886  37.110   7.174
 3505POPC   C1B45787  35.693  36.997   6.316
 3505POPC   C2B45788  35.578  36.980   6.779
 3505POPC   C3B45789  35.684  36.978   7.233
 3505POPC   C4B45790  35.601  36.819   7.660
 3506POPC   NC345791   9.566  42.677   5.096
 3506POPC   PO445792  10.038  42.242   5.375
 3506POPC   GL145793   9.730  42.309   5.743
 3506POPC   GL245794   9.762  42.584   5.996
 3506POPC   C1A45795   9.680  42.086   6.158
 3506POPC   D2A45796   9.947  42.006   6.535
 3506POPC   C3A45797   9.838  42.266   6.897
 3506POPC   C4A45798  10.159  42.518   7.088
 3506POPC   C1B45799   9.349  42.471   6.235
 3506POPC   C2B45800   9.314  42.341   6.651
 3506POPC   C3B45801   9.483  42.700   6.878
 3506POPC   C4B45802   9.689  42.642   7.237
 3507POPC   NC345803  33.494  13.591   5.656
 3507POPC   PO445804  32.997  13.532   5.168
 3507POPC   GL145805  32.975  13.726   5.602
 3507POPC   GL245806  32.993  13.406   5.766
 3507POPC   C1A45807  32.957  13.833   6.071
 3507POPC   D2A45808  33.048  13.861   6.547
 3507POPC   C3A45809  32.722  13.831   6.882
 3507POPC   C4A45810  32.876  13.814   7.307
 3507POPC   C1B45811  33.174  13.358   6.205
 3507POPC   C2B45812  33.429  13.485   6.590
 3507POPC   C3B45813  33.291  13.632   6.995
 3507POPC   C4B45814  33.097  13.340   7.273
 3508POPC   NC345815   3.620  34.331   5.356
 3508POPC   PO445816   3.391  34.959   5.445
 3508POPC   GL145817   3.407  34.759   5.824
 3508POPC   GL245818   3.704  34.589   5.791
 3508POPC   C1A45819   3.521  34.728   6.268
 3508POPC   D2A45820   3.459  34.789   6.704
 3508POPC   C3A45821   3.333  34.447   6.953
 3508POPC   C4A45822   3.464  34.474   7.394
 3508POPC   C1B45823   3.884  34.391   6.136
 3508POPC   C2B45824   3.787  34.359   6.546
 3508POPC   C3B45825   3.844  34.497   6.944
 3508POPC   C4B45826   3.947  34.261   7.279
 3509POPC   NC345827  25.492  25.200   5.338
 3509POPC   PO445828  26.124  25.166   5.419
 3509POPC   GL145829  26.130  25.180   5.846
 3509POPC   GL245830  26.160  24.827   5.870
 3509POPC   C1A45831  25.955  25.398   6.199
 3509POPC   D2A45832  26.102  25.688   6.497
 3509POPC   C3A45833  25.963  25.698   6.905
 3509POPC   C4A45834  26.204  25.495   7.201
 3509POPC   C1B45835  26.168  24.938   6.303
 3509POPC   C2B45836  25.867  25.051   6.614
 3509POPC   C3B45837  25.869  24.833   6.998
 3509POPC   C4B45838  26.245  24.674   7.203
 3510POPC   NC345839   1.025  44.935   5.414
 3510POPC   PO445840   1.192  44.322   5.598
 3510POPC   GL145841   1.195  44.732   5.846
 3510POPC   GL245842   0.917  44.977   5.925
 3510POPC   C1A45843   1.327  44.744   6.261
 3510POPC   D2A45844   1.422  44.388   6.521
 3510POPC   C3A45845   1.398  44.512   6.928
 3510POPC   C4A45846   1.205  44.344   7.269
 3510POPC   C1B45847   0.897  44.991   6.379
 3510POPC   C2B45848   1.167  44.948   6.723
 3510POPC   C3B45849   1.025  44.813   7.117
 3510POPC   C4B45850   0.673  44.951   7.279
 3511POPC   NC345851  10.923  37.614   5.336
 3511POPC   PO445852  10.347  37.388   5.526
 3511POPC   GL145853  10.620  37.662   5.766
 3511POPC   GL245854  10.922  37.843   5.869
 3511POPC   C1A45855  10.526  37.779   6.168
 3511POPC   D2A45856  10.481  37.876   6.596
 3511POPC   C3A45857  10.279  37.576   6.897
 3511POPC   C4A45858  10.201  37.583   7.374
 3511POPC   C1B45859  11.026  37.842   6.354
 3511POPC   C2B45860  10.904  37.735   6.819
 3511POPC   C3B45861  10.649  37.777   7.200
 3511POPC   C4B45862  10.720  37.741   7.648
 3512POPC   NC345863  11.590  16.427   5.518
 3512POPC   PO445864  11.082  16.719   5.213
 3512POPC   GL145865  11.210  16.876   5.668
 3512POPC   GL245866  11.557  16.823   5.847
 3512POPC   C1A45867  11.150  16.759   6.148
 3512POPC   D2A45868  11.332  16.758   6.598
 3512POPC   C3A45869  11.130  16.718   7.029
 3512POPC   C4A45870  10.867  17.036   7.245
 3512POPC   C1B45871  11.747  16.588   6.219
 3512POPC   C2B45872  11.811  16.615   6.672
 3512POPC   C3B45873  11.648  16.795   7.031
 3512POPC   C4B45874  11.575  16.493   7.323
 3513POPC   NC345875  36.605  37.460   5.555
 3513POPC   PO445876  36.801  36.778   5.478
 3513POPC   GL145877  37.025  36.920   5.829
 3513POPC   GL245878  36.972  37.259   5.830
 3513POPC   C1A45879  36.954  36.874   6.240
 3513POPC   D2A45880  37.098  36.783   6.640
 3513POPC   C3A45881  36.842  36.559   6.922
 3513POPC   C4A45882  37.036  36.779   7.255
 3513POPC   C1B45883  36.925  37.473   6.200
 3513POPC   C2B45884  36.891  37.272   6.568
 3513POPC   C3B45885  37.107  37.231   6.921
 3513POPC   C4B45886  36.955  37.343   7.278
 3514POPC   NC345887  28.575  28.932   5.400
 3514POPC   PO445888  28.151  29.423   5.381
 3514POPC   GL145889  28.220  29.156   5.742
 3514POPC   GL245890  27.989  29.239   5.987
 3514POPC   C1A45891  28.455  28.965   6.085
 3514POPC   D2A45892  28.557  28.861   6.508
 3514POPC   C3A45893  28.320  28.854   6.883
 3514POPC   C4A45894  28.429  29.028   7.270
 3514POPC   C1B45895  28.090  29.127   6.406
 3514POPC   C2B45896  28.325  29.311   6.670
 3514POPC   C3B45897  28.214  29.424   7.043
 3514POPC   C4B45898  27.980  29.295   7.414
 3515POPC   NC345899  18.508  39.956   5.484
 3515POPC   PO445900  18.009  40.425   5.353
 3515POPC   GL145901  18.127  40.231   5.753
 3515POPC   GL245902  17.880  40.082   5.971
 3515POPC   C1A45903  18.379  40.135   6.138
 3515POPC   D2A45904  18.608  40.249   6.522
 3515POPC   C3A45905  18.574  39.967   6.888
 3515POPC   C4A45906  18.297  39.745   7.183
 3515POPC   C1B45907  17.951  40.112   6.422
 3515POPC   C2B45908  18.142  40.278   6.794
 3515POPC   C3B45909  18.048  40.219   7.220
 3515POPC   C4B45910  18.178  40.046   7.611
 3516POPC   NC345911   4.018  25.243   5.392
 3516POPC   PO445912   4.522  25.698   5.356
 3516POPC   GL145913   4.387  25.713   5.793
 3516POPC   GL245914   4.062  25.589   5.814
 3516POPC   C1A45915   4.496  25.513   6.207
 3516POPC   D2A45916   4.582  25.526   6.665
 3516POPC   C3A45917   4.513  25.147   6.937
 3516POPC   C4A45918   4.411  25.281   7.352
 3516POPC   C1B45919   4.042  25.266   6.109
 3516POPC   C2B45920   4.130  25.287   6.556
 3516POPC   C3B45921   4.048  25.347   7.002
 3516POPC   C4B45922   3.962  25.013   7.303
 3517POPC   NC345923  18.238   9.289   5.304
 3517POPC   PO445924  17.983   8.684   5.395
 3517POPC   GL145925  17.990   8.767   5.814
 3517POPC   GL245926  18.008   9.120   5.762
 3517POPC   C1A45927  18.282   8.871   6.155
 3517POPC   D2A45928  18.265   8.696   6.549
 3517POPC   C3A45929  18.587   8.694   6.858
 3517POPC   C4A45930  18.386   8.863   7.220
 3517POPC   C1B45931  18.000   9.285   6.176
 3517POPC   C2B45932  18.038   9.161   6.605
 3517POPC   C3B45933  18.210   9.287   6.998
 3517POPC   C4B45934  18.053   9.551   7.291
 3518POPC   NC345935  33.930  39.872   5.404
 3518POPC   PO445936  33.523  40.476   5.462
 3518POPC   GL145937  33.640  40.100   5.757
 3518POPC   GL245938  33.415  39.784   5.794
 3518POPC   C1A45939  33.859  39.768   6.036
 3518POPC   D2A45940  33.870  39.697   6.494
 3518POPC   C3A45941  33.892  39.937   6.895
 3518POPC   C4A45942  33.696  39.802   7.288
 3518POPC   C1B45943  33.474  39.994   6.245
 3518POPC   C2B45944  33.246  40.087   6.608
 3518POPC   C3B45945  33.435  40.117   6.982
 3518POPC   C4B45946  33.411  40.328   7.351
 3519POPC   NC345947  27.953  43.290   5.139
 3519POPC   PO445948  28.304  42.931   5.574
 3519POPC   GL145949  28.275  43.133   5.910
 3519POPC   GL245950  28.067  43.394   5.814
 3519POPC   C1A45951  28.414  43.091   6.330
 3519POPC   D2A45952  28.251  43.223   6.705
 3519POPC   C3A45953  28.349  43.087   7.102
 3519POPC   C4A45954  28.416  43.083   7.536
 3519POPC   C1B45955  27.958  43.337   6.272
 3519POPC   C2B45956  27.803  43.448   6.679
 3519POPC   C3B45957  27.951  43.376   7.102
 3519POPC   C4B45958  28.003  43.414   7.533
 3520POPC   NC345959  22.614  19.211   5.027
 3520POPC   PO445960  23.130  18.762   5.333
 3520POPC   GL145961  22.939  18.823   5.736
 3520POPC   GL245962  22.862  19.182   5.806
 3520POPC   C1A45963  23.070  18.689   6.147
 3520POPC   D2A45964  23.037  18.864   6.549
 3520POPC   C3A45965  23.069  18.616   6.918
 3520POPC   C4A45966  23.081  18.696   7.318
 3520POPC   C1B45967  22.647  19.002   6.177
 3520POPC   C2B45968  22.574  19.140   6.581
 3520POPC   C3B45969  22.778  19.066   6.984
 3520POPC   C4B45970  22.687  19.202   7.399
 3521POPC   NC345971  38.321  40.068   5.470
 3521POPC   PO445972  38.983  40.221   5.498
 3521POPC   GL145973  38.718  40.082   5.887
 3521POPC   GL245974  38.390  39.875   5.927
 3521POPC   C1A45975  38.469  40.234   6.262
 3521POPC   D2A45976  38.283  40.016   6.588
 3521POPC   C3A45977  38.509  39.955   6.948
 3521POPC   C4A45978  38.331  40.047   7.358
 3521POPC   C1B45979  38.564  39.650   6.257
 3521POPC   C2B45980  38.447  39.458   6.632
 3521POPC   C3B45981  38.190  39.574   6.953
 3521POPC   C4B45982  38.382  39.546   7.331
 3522POPC   NC345983  30.416  33.768   5.420
 3522POPC   PO445984  31.012  33.575   5.417
 3522POPC   GL145985  30.821  33.808   5.764
 3522POPC   GL245986  30.858  33.531   5.988
 3522POPC   C1A45987  30.563  33.897   6.165
 3522POPC   D2A45988  30.651  33.561   6.485
 3522POPC   C3A45989  30.576  33.721   6.919
 3522POPC   C4A45990  30.471  33.495   7.296
 3522POPC   C1B45991  31.074  33.843   6.223
 3522POPC   C2B45992  30.951  33.949   6.624
 3522POPC   C3B45993  31.143  33.820   6.971
 3522POPC   C4B45994  30.947  33.683   7.310
 3523POPC   NC345995  19.387  21.920   5.578
 3523POPC   PO445996  19.003  21.348   5.424
 3523POPC   GL145997  19.056  21.236   5.840
 3523POPC   GL245998  19.298  21.507   5.890
 3523POPC   C1A45999  18.906  21.338   6.269
 3523POPC   D2A46000  18.972  21.100   6.670
 3523POPC   C3A46001  18.811  21.241   7.058
 3523POPC   C4A46002  18.753  21.647   7.214
 3523POPC   C1B46003  19.403  21.286   6.275
 3523POPC   C2B46004  19.354  21.431   6.726
 3523POPC   C3B46005  19.380  21.262   7.150
 3523POPC   C4B46006  19.587  21.394   7.553
 3524POPC   NC346007  24.159   3.398   5.626
 3524POPC   PO446008  23.636   3.799   5.588
 3524POPC   GL146009  23.484   3.456   5.779
 3524POPC   GL246010  23.781   3.470   5.983
 3524POPC   C1A46011  23.386   3.156   6.098
 3524POPC   D2A46012  23.634   3.307   6.498
 3524POPC   C3A46013  23.440   3.570   6.852
 3524POPC   C4A46014  23.432   3.473   7.297
 3524POPC   C1B46015  23.975   3.693   6.333
 3524POPC   C2B46016  23.933   3.687   6.771
 3524POPC   C3B46017  23.898   3.625   7.182
 3524POPC   C4B46018  23.823   3.750   7.588
 3525POPC   NC346019  27.524  42.273   5.432
 3525POPC   PO446020  27.365  42.918   5.570
 3525POPC   GL146021  27.553  42.596   5.843
 3525POPC   GL246022  27.255  42.407   5.959
 3525POPC   C1A46023  27.642  42.448   6.287
 3525POPC   D2A46024  27.433  42.315   6.657
 3525POPC   C3A46025  27.670  42.213   7.021
 3525POPC   C4A46026  27.926  42.434   7.314
 3525POPC   C1B46027  27.286  42.820   6.225
 3525POPC   C2B46028  27.478  42.860   6.625
 3525POPC   C3B46029  27.371  42.652   7.026
 3525POPC   C4B46030  27.158  42.232   7.086
 3526POPC   NC346031   6.842  15.149   5.414
 3526POPC   PO446032   6.201  15.355   5.456
 3526POPC   GL146033   6.456  15.250   5.780
 3526POPC   GL246034   6.533  14.918   5.801
 3526POPC   C1A46035   6.467  15.239   6.236
 3526POPC   D2A46036   6.787  15.390   6.517
 3526POPC   C3A46037   6.641  15.336   6.936
 3526POPC   C4A46038   6.846  15.242   7.304
 3526POPC   C1B46039   6.688  14.774   6.210
 3526POPC   C2B46040   6.611  14.909   6.633
 3526POPC   C3B46041   6.723  14.807   7.059
 3526POPC   C4B46042   6.510  14.883   7.485
 3527POPC   NC346043  40.986  23.253   5.427
 3527POPC   PO446044  40.524  22.786   5.444
 3527POPC   GL146045  40.663  23.056   5.775
 3527POPC   GL246046  40.986  22.982   5.876
 3527POPC   C1A46047  40.584  23.063   6.230
 3527POPC   D2A46048  40.625  22.779   6.605
 3527POPC   C3A46049  40.768  22.876   7.002
 3527POPC   C4A46050  40.603  23.023   7.375
 3527POPC   C1B46051  41.044  22.852   6.320
 3527POPC   C2B46052  41.142  23.068   6.722
 3527POPC   C3B46053  41.197  23.095   7.189
 3527POPC   C4B46054  41.476  22.902   7.530
 3528POPC   NC346055  38.229  13.863   5.411
 3528POPC   PO446056  38.748  13.665   5.486
 3528POPC   GL146057  38.470  13.648   5.884
 3528POPC   GL246058  38.134  13.785   5.899
 3528POPC   C1A46059  38.269  13.430   6.249
 3528POPC   D2A46060  38.191  13.135   6.618
 3528POPC   C3A46061  38.226  13.327   7.000
 3528POPC   C4A46062  38.457  13.697   7.146
 3528POPC   C1B46063  38.135  13.934   6.321
 3528POPC   C2B46064  38.130  13.940   6.761
 3528POPC   C3B46065  38.054  13.995   7.183
 3528POPC   C4B46066  38.341  14.003   7.553
 3529POPC   NC346067   8.831  28.917   5.342
 3529POPC   PO446068   9.227  29.398   5.420
 3529POPC   GL146069   9.036  29.292   5.797
 3529POPC   GL246070   9.088  28.945   5.860
 3529POPC   C1A46071   8.997  29.443   6.205
 3529POPC   D2A46072   9.129  29.082   6.425
 3529POPC   C3A46073   8.981  29.081   6.810
 3529POPC   C4A46074   9.090  29.088   7.217
 3529POPC   C1B46075   8.714  29.025   6.110
 3529POPC   C2B46076   8.544  29.037   6.494
 3529POPC   C3B46077   8.525  29.323   6.828
 3529POPC   C4B46078   8.584  29.049   7.173
 3530POPC   NC346079   9.347   2.249   5.415
 3530POPC   PO446080   8.763   2.002   5.375
 3530POPC   GL146081   8.829   2.116   5.765
 3530POPC   GL246082   8.929   1.779   5.903
 3530POPC   C1A46083   8.639   2.112   6.179
 3530POPC   D2A46084   8.674   1.858   6.559
 3530POPC   C3A46085   8.674   2.132   6.911
 3530POPC   C4A46086   8.864   2.373   7.231
 3530POPC   C1B46087   9.193   2.101   6.122
 3530POPC   C2B46088   9.156   2.237   6.549
 3530POPC   C3B46089   9.251   2.156   6.967
 3530POPC   C4B46090   9.376   2.361   7.328
 3531POPC   NC346091  30.135  11.791   5.417
 3531POPC   PO446092  29.711  11.177   5.424
 3531POPC   GL146093  29.951  11.381   5.746
 3531POPC   GL246094  29.772  11.701   5.776
 3531POPC   C1A46095  30.136  11.167   6.132
 3531POPC   D2A46096  29.962  11.123   6.542
 3531POPC   C3A46097  30.205  10.918   6.879
 3531POPC   C4A46098  30.223  11.013   7.315
 3531POPC   C1B46099  30.000  11.647   6.180
 3531POPC   C2B46100  30.213  11.620   6.598
 3531POPC   C3B46101  30.071  11.395   6.949
 3531POPC   C4B46102  29.810  11.476   7.267
 3532POPC   NC346103  20.899   2.922   5.596
 3532POPC   PO446104  21.566   2.681   5.521
 3532POPC   GL146105  21.362   2.571   5.861
 3532POPC   GL246106  21.222   2.890   5.988
 3532POPC   C1A46107  21.498   2.574   6.292
 3532POPC   D2A46108  21.454   2.854   6.625
 3532POPC   C3A46109  21.510   2.687   7.020
 3532POPC   C4A46110  21.605   2.854   7.401
 3532POPC   C1B46111  20.959   2.574   6.184
 3532POPC   C2B46112  21.074   2.424   6.572
 3532POPC   C3B46113  21.011   2.564   6.976
 3532POPC   C4B46114  21.114   2.616   7.403
 3533POPC   NC346115  32.142   6.191   5.302
 3533POPC   PO446116  31.867   5.646   5.357
 3533POPC   GL146117  32.140   5.668   5.719
 3533POPC   GL246118  32.297   6.015   5.747
 3533POPC   C1A46119  32.394   5.680   6.109
 3533POPC   D2A46120  32.477   5.881   6.490
 3533POPC   C3A46121  32.269   5.767   6.873
 3533POPC   C4A46122  32.197   5.688   7.313
 3533POPC   C1B46123  32.414   6.239   6.113
 3533POPC   C2B46124  32.460   6.398   6.513
 3533POPC   C3B46125  32.580   6.221   6.878
 3533POPC   C4B46126  32.359   6.168   7.215
 3534POPC   NC346127  35.871  14.199   5.134
 3534POPC   PO446128  36.285  13.966   5.634
 3534POPC   GL146129  35.919  14.258   5.776
 3534POPC   GL246130  35.809  14.622   5.676
 3534POPC   C1A46131  35.914  14.118   6.200
 3534POPC   D2A46132  36.206  14.194   6.541
 3534POPC   C3A46133  36.035  14.300   6.926
 3534POPC   C4A46134  36.102  14.178   7.351
 3534POPC   C1B46135  36.009  14.634   6.113
 3534POPC   C2B46136  36.130  14.752   6.548
 3534POPC   C3B46137  35.905  14.798   6.936
 3534POPC   C4B46138  36.142  14.682   7.311
 3535POPC   NC346139  43.400  42.763   5.633
 3535POPC   PO446140  43.938  43.138   5.370
 3535POPC   GL146141  44.105  43.102   5.806
 3535POPC   GL246142  43.827  42.995   5.979
 3535POPC   C1A46143  44.272  42.946   6.241
 3535POPC   D2A46144  44.209  43.173   6.644
 3535POPC   C3A46145  44.315  43.012   7.005
 3535POPC   C4A46146  44.039  42.694   7.151
 3535POPC   C1B46147  43.988  43.383   6.222
 3535POPC   C2B46148  44.067  43.673   6.585
 3535POPC   C3B46149  44.055  43.559   7.006
 3535POPC   C4B46150  43.963  43.202   7.299
 3536POPC   NC346151  23.218  25.145   5.371
 3536POPC   PO446152  22.893  25.733   5.288
 3536POPC   GL146153  23.158  25.611   5.709
 3536POPC   GL246154  23.108  25.230   5.862
 3536POPC   C1A46155  23.197  25.582   6.194
 3536POPC   D2A46156  23.165  25.200   6.493
 3536POPC   C3A46157  23.054  25.214   6.951
 3536POPC   C4A46158  23.236  25.440   7.311
 3536POPC   C1B46159  22.796  24.999   6.158
 3536POPC   C2B46160  22.534  25.010   6.562
 3536POPC   C3B46161  22.538  25.026   7.035
 3536POPC   C4B46162  22.722  25.173   7.431
 3537POPC   NC346163  42.841  23.551   5.433
 3537POPC   PO446164  43.273  24.079   5.460
 3537POPC   GL146165  43.242  23.845   5.833
 3537POPC   GL246166  42.906  23.916   5.796
 3537POPC   C1A46167  43.346  23.486   6.152
 3537POPC   D2A46168  43.456  23.301   6.581
 3537POPC   C3A46169  43.396  23.649   6.891
 3537POPC   C4A46170  43.280  23.823   7.291
 3537POPC   C1B46171  42.874  23.715   6.186
 3537POPC   C2B46172  42.991  23.532   6.578
 3537POPC   C3B46173  42.872  23.623   7.003
 3537POPC   C4B46174  42.767  23.816   7.391
 3538POPC   NC346175  31.253  35.968   5.433
 3538POPC   PO446176  31.856  36.201   5.521
 3538POPC   GL146177  31.597  36.211   5.853
 3538POPC   GL246178  31.363  36.431   5.701
 3538POPC   C1A46179  31.498  36.055   6.280
 3538POPC   D2A46180  31.627  35.887   6.674
 3538POPC   C3A46181  31.395  35.858   7.040
 3538POPC   C4A46182  31.042  36.087   7.113
 3538POPC   C1B46183  31.347  36.540   6.155
 3538POPC   C2B46184  31.218  36.387   6.569
 3538POPC   C3B46185  31.361  36.472   6.977
 3538POPC   C4B46186  31.502  36.592   7.372
 3539POPC   NC346187  13.767  33.955   5.506
 3539POPC   PO446188  13.570  33.453   5.239
 3539POPC   GL146189  13.473  33.613   5.738
 3539POPC   GL246190  13.812  33.674   5.919
 3539POPC   C1A46191  13.421  33.815   6.201
 3539POPC   D2A46192  13.376  33.817   6.660
 3539POPC   C3A46193  13.357  34.120   6.987
 3539POPC   C4A46194  13.300  33.831   7.336
 3539POPC   C1B46195  13.915  33.966   6.270
 3539POPC   C2B46196  13.823  34.075   6.705
 3539POPC   C3B46197  13.743  33.799   7.053
 3539POPC   C4B46198  13.932  33.564   7.374
 3540POPC   NC346199  25.021  38.062   5.644
 3540POPC   PO446200  25.332  38.629   5.643
 3540POPC   GL146201  25.068  38.604   5.998
 3540POPC   GL246202  24.875  38.317   6.128
 3540POPC   C1A46203  25.255  38.645   6.411
 3540POPC   D2A46204  25.635  38.639   6.668
 3540POPC   C3A46205  25.528  38.616   7.088
 3540POPC   C4A46206  25.098  38.575   7.227
 3540POPC   C1B46207  25.299  38.143   6.235
 3540POPC   C2B46208  25.559  38.104   6.596
 3540POPC   C3B46209  25.322  38.174   6.956
 3540POPC   C4B46210  25.388  38.145   7.381
 3541POPC   NC346211  12.880   1.256   5.244
 3541POPC   PO446212  12.997   1.738   5.509
 3541POPC   GL146213  12.880   1.394   5.838
 3541POPC   GL246214  12.784   1.036   5.771
 3541POPC   C1A46215  12.842   1.311   6.332
 3541POPC   D2A46216  12.784   1.457   6.793
 3541POPC   C3A46217  12.908   1.385   7.233
 3541POPC   C4A46218  12.738   1.584   7.625
 3541POPC   C1B46219  12.600   0.872   6.203
 3541POPC   C2B46220  12.673   0.928   6.689
 3541POPC   C3B46221  12.539   1.031   7.120
 3541POPC   C4B46222  12.641   1.009   7.587
 3542POPC   NC346223  29.488  28.536   5.492
 3542POPC   PO446224  30.067  28.176   5.439
 3542POPC   GL146225  29.931  28.455   5.783
 3542POPC   GL246226  29.671  28.236   5.845
 3542POPC   C1A46227  29.918  28.428   6.257
 3542POPC   D2A46228  30.165  28.368   6.624
 3542POPC   C3A46229  29.881  28.522   6.911
 3542POPC   C4A46230  29.692  28.475   7.283
 3542POPC   C1B46231  29.472  28.186   6.212
 3542POPC   C2B46232  29.465  28.381   6.610
 3542POPC   C3B46233  29.501  28.121   6.959
 3542POPC   C4B46234  29.586  27.982   7.388
 3543POPC   NC346235  43.307  12.446   5.008
 3543POPC   PO446236  42.899  12.887   5.423
 3543POPC   GL146237  42.983  12.917   5.800
 3543POPC   GL246238  42.922  13.261   5.815
 3543POPC   C1A46239  43.097  12.732   6.152
 3543POPC   D2A46240  43.253  12.730   6.566
 3543POPC   C3A46241  43.101  12.488   6.894
 3543POPC   C4A46242  43.220  12.605   7.310
 3543POPC   C1B46243  43.117  13.233   6.226
 3543POPC   C2B46244  42.967  13.153   6.631
 3543POPC   C3B46245  43.146  13.039   7.023
 3543POPC   C4B46246  43.148  13.191   7.454
 3544POPC   NC346247  31.852  20.939   5.394
 3544POPC   PO446248  32.422  21.402   5.407
 3544POPC   GL146249  32.427  21.278   5.797
 3544POPC   GL246250  32.221  21.002   5.762
 3544POPC   C1A46251  32.218  21.425   6.186
 3544POPC   D2A46252  32.128  21.556   6.618
 3544POPC   C3A46253  32.479  21.439   6.868
 3544POPC   C4A46254  32.500  21.371   7.281
 3544POPC   C1B46255  32.281  20.918   6.195
 3544POPC   C2B46256  32.263  21.068   6.612
 3544POPC   C3B46257  32.125  21.097   7.065
 3544POPC   C4B46258  32.080  21.221   7.534
 3545POPC   NC346259  30.533  30.503   5.263
 3545POPC   PO446260  30.949  30.151   5.704
 3545POPC   GL146261  30.750  30.603   5.776
 3545POPC   GL246262  30.386  30.732   5.848
 3545POPC   C1A46263  30.777  30.844   6.154
 3545POPC   D2A46264  30.776  30.697   6.587
 3545POPC   C3A46265  31.030  30.842   6.889
 3545POPC   C4A46266  31.099  30.868   7.286
 3545POPC   C1B46267  30.400  30.523   6.274
 3545POPC   C2B46268  30.310  30.546   6.745
 3545POPC   C3B46269  30.561  30.587   7.150
 3545POPC   C4B46270  30.385  30.587   7.579
 3546POPC   NC346271  35.847  31.226   5.128
 3546POPC   PO446272  35.303  31.652   5.307
 3546POPC   GL146273  35.278  31.513   5.781
 3546POPC   GL246274  35.567  31.282   5.929
 3546POPC   C1A46275  35.203  31.359   6.246
 3546POPC   D2A46276  35.539  31.188   6.508
 3546POPC   C3A46277  35.331  31.190   6.883
 3546POPC   C4A46278  35.309  31.469   7.199
 3546POPC   C1B46279  35.602  31.665   6.193
 3546POPC   C2B46280  35.489  31.684   6.625
 3546POPC   C3B46281  35.736  31.573   6.975
 3546POPC   C4B46282  35.697  31.698   7.400
 3547POPC   NC346283  26.308  20.075   5.460
 3547POPC   PO446284  25.769  19.616   5.205
 3547POPC   GL146285  25.790  19.690   5.716
 3547POPC   GL246286  26.023  19.933   5.929
 3547POPC   C1A46287  25.753  19.588   6.169
 3547POPC   D2A46288  25.858  19.856   6.499
 3547POPC   C3A46289  26.005  19.683   6.874
 3547POPC   C4A46290  25.889  19.914   7.246
 3547POPC   C1B46291  26.271  19.639   6.275
 3547POPC   C2B46292  26.536  19.782   6.644
 3547POPC   C3B46293  26.390  20.021   7.016
 3547POPC   C4B46294  26.074  20.350   7.000
 3548POPC   NC346295  37.864  42.873   5.482
 3548POPC   PO446296  37.587  43.490   5.305
 3548POPC   GL146297  37.728  43.331   5.733
 3548POPC   GL246298  37.589  43.023   5.861
 3548POPC   C1A46299  37.841  43.326   6.204
 3548POPC   D2A46300  37.931  43.099   6.619
 3548POPC   C3A46301  37.843  43.307   6.983
 3548POPC   C4A46302  37.699  43.199   7.354
 3548POPC   C1B46303  37.688  42.824   6.235
 3548POPC   C2B46304  37.552  42.696   6.618
 3548POPC   C3B46305  37.472  42.864   6.994
 3548POPC   C4B46306  37.196  42.648   7.272
 3549POPC   NC346307  15.271  12.367   5.283
 3549POPC   PO446308  15.240  11.657   5.310
 3549POPC   GL146309  15.133  11.819   5.711
 3549POPC   GL246310  15.274  12.162   5.756
 3549POPC   C1A46311  15.103  11.830   6.166
 3549POPC   D2A46312  14.921  11.983   6.566
 3549POPC   C3A46313  15.092  11.868   6.991
 3549POPC   C4A46314  14.842  11.897   7.374
 3549POPC   C1B46315  15.131  12.349   6.164
 3549POPC   C2B46316  15.196  12.473   6.591
 3549POPC   C3B46317  15.028  12.384   6.975
 3549POPC   C4B46318  15.204  12.276   7.383
 3550POPC   NC346319   6.233  30.692   5.344
 3550POPC   PO446320   5.569  30.429   5.372
 3550POPC   GL146321   5.757  30.589   5.723
 3550POPC   GL246322   5.579  30.888   5.736
 3550POPC   C1A46323   5.905  30.559   6.146
 3550POPC   D2A46324   6.017  30.752   6.534
 3550POPC   C3A46325   5.756  30.605   6.829
 3550POPC   C4A46326   5.803  30.509   7.216
 3550POPC   C1B46327   5.684  31.013   6.160
 3550POPC   C2B46328   5.559  31.083   6.584
 3550POPC   C3B46329   5.715  31.092   6.998
 3550POPC   C4B46330   5.527  30.902   7.341
 3551POPC   NC346331   5.722  13.005   5.366
 3551POPC   PO446332   5.924  12.427   5.300
 3551POPC   GL146333   5.887  12.652   5.721
 3551POPC   GL246334   5.923  13.026   5.832
 3551POPC   C1A46335   5.851  12.628   6.179
 3551POPC   D2A46336   5.647  12.489   6.559
 3551POPC   C3A46337   5.839  12.597   6.959
 3551POPC   C4A46338   5.870  12.423   7.384
 3551POPC   C1B46339   5.566  13.056   6.077
 3551POPC   C2B46340   5.542  13.009   6.512
 3551POPC   C3B46341   5.443  13.005   6.959
 3551POPC   C4B46342   5.710  12.931   7.340
 3552POPC   NC346343  39.856  13.877   4.981
 3552POPC   PO446344  39.678  13.654   5.607
 3552POPC   GL146345  40.020  13.769   5.881
 3552POPC   GL246346  40.347  13.769   5.730
 3552POPC   C1A46347  40.060  13.693   6.318
 3552POPC   D2A46348  39.853  13.848   6.693
 3552POPC   C3A46349  39.963  13.545   6.996
 3552POPC   C4A46350  39.797  13.398   7.379
 3552POPC   C1B46351  40.486  13.506   6.089
 3552POPC   C2B46352  40.443  13.335   6.494
 3552POPC   C3B46353  40.572  13.400   6.896
 3552POPC   C4B46354  40.400  13.588   7.234
 3553POPC   NC346355  21.635  38.825   5.483
 3553POPC   PO446356  21.086  39.177   5.315
 3553POPC   GL146357  21.166  39.214   5.757
 3553POPC   GL246358  21.536  39.301   5.823
 3553POPC   C1A46359  21.147  39.368   6.188
 3553POPC   D2A46360  21.393  39.229   6.551
 3553POPC   C3A46361  21.237  39.346   6.949
 3553POPC   C4A46362  21.262  39.089   7.275
 3553POPC   C1B46363  21.799  39.068   6.148
 3553POPC   C2B46364  21.923  39.004   6.583
 3553POPC   C3B46365  21.727  39.161   6.968
 3553POPC   C4B46366  21.766  39.616   7.088
 3554POPC   NC346367  14.683  18.895   5.261
 3554POPC   PO446368  14.547  19.569   5.101
 3554POPC   GL146369  14.415  19.242   5.492
 3554POPC   GL246370  14.533  19.346   5.801
 3554POPC   C1A46371  14.309  18.925   5.934
 3554POPC   D2A46372  14.097  18.742   6.373
 3554POPC   C3A46373  14.371  18.818   6.762
 3554POPC   C4A46374  14.310  19.008   7.158
 3554POPC   C1B46375  14.799  19.230   6.124
 3554POPC   C2B46376  14.690  19.141   6.533
 3554POPC   C3B46377  14.772  19.189   6.965
 3554POPC   C4B46378  14.736  19.176   7.393
 3555POPC   NC346379   2.828  14.175   5.587
 3555POPC   PO446380   2.696  14.813   5.524
 3555POPC   GL146381   2.717  14.572   5.900
 3555POPC   GL246382   2.766  14.899   6.032
 3555POPC   C1A46383   2.814  14.206   6.234
 3555POPC   D2A46384   2.985  14.226   6.670
 3555POPC   C3A46385   2.736  14.385   7.016
 3555POPC   C4A46386   2.470  14.289   7.400
 3555POPC   C1B46387   2.734  14.665   6.415
 3555POPC   C2B46388   2.459  14.702   6.698
 3555POPC   C3B46389   2.639  14.923   6.983
 3555POPC   C4B46390   2.649  14.757   7.353
 3556POPC   NC346391  34.241  23.683   5.407
 3556POPC   PO446392  34.749  23.946   5.096
 3556POPC   GL146393  34.772  23.596   5.596
 3556POPC   GL246394  34.486  23.468   5.794
 3556POPC   C1A46395  34.856  23.705   6.108
 3556POPC   D2A46396  34.834  23.563   6.607
 3556POPC   C3A46397  34.794  23.767   7.069
 3556POPC   C4A46398  34.417  24.012   7.195
 3556POPC   C1B46399  34.390  23.522   6.226
 3556POPC   C2B46400  34.374  23.340   6.612
 3556POPC   C3B46401  34.364  23.537   6.960
 3556POPC   C4B46402  34.310  23.382   7.324
 3557POPC   NC346403   1.476  11.064   5.476
 3557POPC   PO446404   0.837  11.067   5.576
 3557POPC   GL146405   1.030  11.229   5.940
 3557POPC   GL246406   1.337  11.195   5.930
 3557POPC   C1A46407   1.072  11.187   6.408
 3557POPC   D2A46408   0.854  11.338   6.758
 3557POPC   C3A46409   0.990  11.383   7.139
 3557POPC   C4A46410   1.392  11.509   7.118
 3557POPC   C1B46411   1.562  11.317   6.233
 3557POPC   C2B46412   1.567  11.227   6.633
 3557POPC   C3B46413   1.295  11.055   6.877
 3557POPC   C4B46414   1.575  11.025   7.185
 3558POPC   NC346415  30.068  14.529   5.440
 3558POPC   PO446416  29.587  14.096   5.363
 3558POPC   GL146417  29.724  14.296   5.760
 3558POPC   GL246418  29.776  14.672   5.840
 3558POPC   C1A46419  29.740  14.290   6.198
 3558POPC   D2A46420  30.045  14.155   6.484
 3558POPC   C3A46421  30.021  14.268   6.919
 3558POPC   C4A46422  29.669  14.332   7.182
 3558POPC   C1B46423  30.070  14.723   6.204
 3558POPC   C2B46424  30.251  14.664   6.629
 3558POPC   C3B46425  30.095  14.751   7.055
 3558POPC   C4B46426  30.186  14.516   7.417
 3559POPC   NC346427   9.902  23.093   5.199
 3559POPC   PO446428   9.440  22.629   5.346
 3559POPC   GL146429   9.485  22.841   5.759
 3559POPC   GL246430   9.506  23.220   5.808
 3559POPC   C1A46431   9.678  22.836   6.160
 3559POPC   D2A46432   9.889  22.940   6.526
 3559POPC   C3A46433   9.637  22.778   6.819
 3559POPC   C4A46434   9.501  22.852   7.180
 3559POPC   C1B46435   9.510  23.315   6.270
 3559POPC   C2B46436   9.576  23.293   6.725
 3559POPC   C3B46437   9.884  23.213   7.078
 3559POPC   C4B46438  10.133  23.369   7.463
 3560POPC   NC346439  43.494  13.917   5.083
 3560POPC   PO446440  43.740  13.419   5.522
 3560POPC   GL146441  43.878  13.650   5.878
 3560POPC   GL246442  43.772  13.937   5.741
 3560POPC   C1A46443  44.018  13.744   6.301
 3560POPC   D2A46444  43.877  13.536   6.679
 3560POPC   C3A46445  44.053  13.578   7.065
 3560POPC   C4A46446  44.410  13.327   7.130
 3560POPC   C1B46447  43.561  13.962   6.132
 3560POPC   C2B46448  43.591  13.933   6.536
 3560POPC   C3B46449  43.579  13.865   6.955
 3560POPC   C4B46450  43.658  13.956   7.337
 3561POPC   NC346451  17.855  23.016   5.332
 3561POPC   PO446452  17.275  22.849   5.526
 3561POPC   GL146453  17.494  23.029   5.813
 3561POPC   GL246454  17.640  22.721   5.872
 3561POPC   C1A46455  17.355  23.175   6.219
 3561POPC   D2A46456  17.359  23.370   6.607
 3561POPC   C3A46457  17.314  23.183   7.004
 3561POPC   C4A46458  17.643  23.292   7.206
 3561POPC   C1B46459  17.431  22.667   6.240
 3561POPC   C2B46460  17.393  22.846   6.629
 3561POPC   C3B46461  17.414  22.656   7.032
 3561POPC   C4B46462  17.238  22.649   7.415
 3562POPC   NC346463  18.797  19.240   5.530
 3562POPC   PO446464  19.083  18.707   5.506
 3562POPC   GL146465  19.243  18.948   5.820
 3562POPC   GL246466  18.979  19.107   5.981
 3562POPC   C1A46467  19.347  18.841   6.236
 3562POPC   D2A46468  19.498  18.959   6.691
 3562POPC   C3A46469  19.201  18.983   7.043
 3562POPC   C4A46470  18.786  18.964   7.193
 3562POPC   C1B46471  19.158  19.304   6.339
 3562POPC   C2B46472  18.884  19.178   6.666
 3562POPC   C3B46473  18.629  19.386   6.941
 3562POPC   C4B46474  18.707  19.507   7.347
 3563POPC   NC346475   5.046  39.132   5.282
 3563POPC   PO446476   4.818  39.625   5.650
 3563POPC   GL146477   5.168  39.494   5.874
 3563POPC   GL246478   5.266  39.145   5.759
 3563POPC   C1A46479   5.186  39.415   6.322
 3563POPC   D2A46480   4.954  39.288   6.671
 3563POPC   C3A46481   5.031  39.474   7.047
 3563POPC   C4A46482   5.031  39.350   7.464
 3563POPC   C1B46483   5.460  39.023   6.148
 3563POPC   C2B46484   5.352  38.932   6.606
 3563POPC   C3B46485   5.250  38.998   7.073
 3563POPC   C4B46486   5.507  39.141   7.437
 3564POPC   NC346487   1.752  31.718   4.977
 3564POPC   PO446488   2.235  31.511   5.409
 3564POPC   GL146489   2.055  31.497   5.831
 3564POPC   GL246490   2.365  31.687   5.906
 3564POPC   C1A46491   1.860  31.312   6.277
 3564POPC   D2A46492   1.980  31.013   6.638
 3564POPC   C3A46493   2.049  31.194   7.062
 3564POPC   C4A46494   1.921  31.612   7.226
 3564POPC   C1B46495   2.326  31.444   6.262
 3564POPC   C2B46496   2.205  31.476   6.677
 3564POPC   C3B46497   2.384  31.639   7.047
 3564POPC   C4B46498   2.318  31.765   7.488
 3565POPC   NC346499   3.973   1.393   5.524
 3565POPC   PO446500   4.438   1.072   5.226
 3565POPC   GL146501   4.440   1.083   5.675
 3565POPC   GL246502   4.484   1.428   5.719
 3565POPC   C1A46503   4.438   1.005   6.136
 3565POPC   D2A46504   4.241   1.182   6.523
 3565POPC   C3A46505   4.378   1.077   6.926
 3565POPC   C4A46506   4.153   0.879   7.237
 3565POPC   C1B46507   4.246   1.494   6.116
 3565POPC   C2B46508   4.048   1.675   6.493
 3565POPC   C3B46509   4.239   1.618   6.886
 3565POPC   C4B46510   4.322   1.421   7.278
 3566POPC   NC346511  35.754  38.356   5.671
 3566POPC   PO446512  36.274  38.202   5.308
 3566POPC   GL146513  36.200  38.238   5.856
 3566POPC   GL246514  35.983  37.920   5.878
 3566POPC   C1A46515  36.424  38.416   6.262
 3566POPC   D2A46516  36.517  38.592   6.698
 3566POPC   C3A46517  36.128  38.718   6.907
 3566POPC   C4A46518  35.894  38.545   7.237
 3566POPC   C1B46519  36.158  37.971   6.296
 3566POPC   C2B46520  36.071  38.198   6.706
 3566POPC   C3B46521  35.915  38.031   7.106
 3566POPC   C4B46522  36.065  38.156   7.514
 3567POPC   NC346523  18.412  17.868   5.375
 3567POPC   PO446524  18.315  17.210   5.426
 3567POPC   GL146525  18.194  17.343   5.830
 3567POPC   GL246526  18.335  17.673   5.865
 3567POPC   C1A46527  18.301  17.342   6.274
 3567POPC   D2A46528  18.511  17.235   6.654
 3567POPC   C3A46529  18.275  17.354   7.017
 3567POPC   C4A46530  18.241  17.290   7.444
 3567POPC   C1B46531  18.459  17.824   6.299
 3567POPC   C2B46532  18.524  17.750   6.745
 3567POPC   C3B46533  18.279  17.858   7.088
 3567POPC   C4B46534  18.250  17.938   7.531
 3568POPC   NC346535  11.571  32.847   5.464
 3568POPC   PO446536  11.054  33.314   5.437
 3568POPC   GL146537  11.283  33.176   5.773
 3568POPC   GL246538  11.224  32.829   5.846
 3568POPC   C1A46539  11.211  33.232   6.196
 3568POPC   D2A46540  10.965  33.159   6.543
 3568POPC   C3A46541  11.286  33.170   6.853
 3568POPC   C4A46542  11.224  33.185   7.292
 3568POPC   C1B46543  11.447  32.758   6.222
 3568POPC   C2B46544  11.217  32.715   6.613
 3568POPC   C3B46545  11.270  32.706   7.047
 3568POPC   C4B46546  11.455  32.728   7.446
 3569POPC   NC346547  37.621  26.075   5.249
 3569POPC   PO446548  38.037  25.612   5.532
 3569POPC   GL146549  37.843  26.003   5.734
 3569POPC   GL246550  37.497  26.204   5.734
 3569POPC   C1A46551  37.786  26.100   6.164
 3569POPC   D2A46552  37.620  25.955   6.537
 3569POPC   C3A46553  37.773  26.060   6.932
 3569POPC   C4A46554  37.781  25.869   7.328
 3569POPC   C1B46555  37.387  26.422   6.136
 3569POPC   C2B46556  37.558  26.470   6.563
 3569POPC   C3B46557  37.365  26.352   6.919
 3569POPC   C4B46558  37.309  26.024   7.180
 3570POPC   NC346559  31.603  42.129   5.667
 3570POPC   PO446560  31.242  42.573   5.331
 3570POPC   GL146561  31.308  42.530   5.799
 3570POPC   GL246562  31.111  42.256   5.855
 3570POPC   C1A46563  31.537  42.590   6.218
 3570POPC   D2A46564  31.703  42.481   6.646
 3570POPC   C3A46565  31.613  42.213   6.985
 3570POPC   C4A46566  31.507  42.443   7.334
 3570POPC   C1B46567  31.095  42.333   6.272
 3570POPC   C2B46568  31.187  42.281   6.702
 3570POPC   C3B46569  31.115  42.208   7.142
 3570POPC   C4B46570  31.086  42.312   7.609
 3571POPC   NC346571  27.131  26.381   5.440
 3571POPC   PO446572  26.784  25.758   5.504
 3571POPC   GL146573  26.798  26.150   5.758
 3571POPC   GL246574  27.108  26.071   5.888
 3571POPC   C1A46575  26.778  26.349   6.163
 3571POPC   D2A46576  26.804  26.144   6.566
 3571POPC   C3A46577  26.786  26.243   6.976
 3571POPC   C4A46578  26.800  26.102   7.401
 3571POPC   C1B46579  26.796  25.809   6.169
 3571POPC   C2B46580  26.709  25.639   6.606
 3571POPC   C3B46581  26.739  25.686   7.073
 3571POPC   C4B46582  27.003  25.553   7.442
 3572POPC   NC346583  28.125   1.441   5.044
 3572POPC   PO446584  28.553   0.994   5.402
 3572POPC   GL146585  28.426   1.218   5.751
 3572POPC   GL246586  28.198   1.015   5.796
 3572POPC   C1A46587  28.390   1.492   6.122
 3572POPC   D2A46588  28.446   1.652   6.543
 3572POPC   C3A46589  28.216   1.386   6.823
 3572POPC   C4A46590  28.279   1.315   7.237
 3572POPC   C1B46591  28.140   1.042   6.208
 3572POPC   C2B46592  28.298   0.939   6.604
 3572POPC   C3B46593  28.276   0.828   7.051
 3572POPC   C4B46594  28.012   0.941   7.430
 3573POPC   NC346595  32.441   4.703   5.364
 3573POPC   PO446596  32.094   4.116   5.425
 3573POPC   GL146597  32.152   4.319   5.779
 3573POPC   GL246598  32.073   4.005   5.946
 3573POPC   C1A46599  32.265   4.371   6.200
 3573POPC   D2A46600  32.149   4.075   6.509
 3573POPC   C3A46601  32.122   4.286   6.898
 3573POPC   C4A46602  32.084   4.440   7.297
 3573POPC   C1B46603  32.480   3.903   6.120
 3573POPC   C2B46604  32.657   3.953   6.510
 3573POPC   C3B46605  32.473   3.905   6.889
 3573POPC   C4B46606  32.483   4.114   7.262
 3574POPC   NC346607  23.251  30.422   5.516
 3574POPC   PO446608  22.648  30.375   5.764
 3574POPC   GL146609  22.845  30.668   6.021
 3574POPC   GL246610  23.154  30.560   5.991
 3574POPC   C1A46611  22.723  30.766   6.428
 3574POPC   D2A46612  22.517  30.470   6.698
 3574POPC   C3A46613  22.556  30.669   7.071
 3574POPC   C4A46614  22.759  30.772   7.432
 3574POPC   C1B46615  23.366  30.266   6.247
 3574POPC   C2B46616  23.552  30.378   6.630
 3574POPC   C3B46617  23.248  30.484   6.952
 3574POPC   C4B46618  23.229  30.588   7.404
 3575POPC   NC346619  18.677  18.491   5.518
 3575POPC   PO446620  18.100  18.214   5.367
 3575POPC   GL146621  18.306  18.191   5.764
 3575POPC   GL246622  18.616  18.115   5.880
 3575POPC   C1A46623  18.142  18.226   6.168
 3575POPC   D2A46624  17.930  18.128   6.554
 3575POPC   C3A46625  17.968  18.465   6.826
 3575POPC   C4A46626  18.088  18.316   7.216
 3575POPC   C1B46627  18.626  18.306   6.293
 3575POPC   C2B46628  18.425  18.240   6.692
 3575POPC   C3B46629  18.598  18.259   7.092
 3575POPC   C4B46630  18.516  18.374   7.499
 3576POPC   NC346631  16.126  39.479   5.093
 3576POPC   PO446632  16.082  39.081   5.595
 3576POPC   GL146633  16.003  39.139   5.960
 3576POPC   GL246634  15.778  39.372   5.936
 3576POPC   C1A46635  16.217  39.326   6.305
 3576POPC   D2A46636  16.002  39.431   6.681
 3576POPC   C3A46637  16.180  39.284   7.061
 3576POPC   C4A46638  16.258  39.574   7.374
 3576POPC   C1B46639  15.647  39.214   6.323
 3576POPC   C2B46640  15.480  39.274   6.711
 3576POPC   C3B46641  15.696  39.091   7.023
 3576POPC   C4B46642  15.614  38.875   7.391
 3577POPC   NC346643  42.084  37.067   5.412
 3577POPC   PO446644  41.399  36.888   5.308
 3577POPC   GL146645  41.520  36.882   5.732
 3577POPC   GL246646  41.497  36.520   5.711
 3577POPC   C1A46647  41.405  37.022   6.179
 3577POPC   D2A46648  41.313  37.042   6.600
 3577POPC   C3A46649  41.556  37.145   6.924
 3577POPC   C4A46650  41.340  37.021   7.255
 3577POPC   C1B46651  41.478  36.520   6.117
 3577POPC   C2B46652  41.632  36.655   6.486
 3577POPC   C3B46653  41.486  36.634   6.890
 3577POPC   C4B46654  41.694  36.648   7.278
 3578POPC   NC346655  36.664  14.130   5.417
 3578POPC   PO446656  36.883  14.757   5.505
 3578POPC   GL146657  37.156  14.680   5.830
 3578POPC   GL246658  37.070  14.318   5.800
 3578POPC   C1A46659  37.279  14.487   6.225
 3578POPC   D2A46660  37.233  14.305   6.638
 3578POPC   C3A46661  37.225  14.548   7.005
 3578POPC   C4A46662  36.920  14.559   7.336
 3578POPC   C1B46663  36.772  14.422   6.178
 3578POPC   C2B46664  36.718  14.435   6.664
 3578POPC   C3B46665  36.557  14.264   7.085
 3578POPC   C4B46666  36.567  14.198   7.562
 3579POPC   NC346667  28.601   3.691   5.536
 3579POPC   PO446668  28.983   3.162   5.509
 3579POPC   GL146669  28.890   3.411   5.832
 3579POPC   GL246670  29.106   3.662   5.686
 3579POPC   C1A46671  28.897   3.732   6.156
 3579POPC   D2A46672  29.084   3.601   6.529
 3579POPC   C3A46673  29.036   3.737   6.945
 3579POPC   C4A46674  29.026   3.369   7.198
 3579POPC   C1B46675  29.375   3.435   6.005
 3579POPC   C2B46676  29.563   3.426   6.406
 3579POPC   C3B46677  29.517   3.713   6.746
 3579POPC   C4B46678  29.532   3.554   7.146
 3580POPC   NC346679  24.341  29.212   5.407
 3580POPC   PO446680  24.880  29.383   5.635
 3580POPC   GL146681  24.545  29.267   5.953
 3580POPC   GL246682  24.203  29.403   5.905
 3580POPC   C1A46683  24.529  29.153   6.422
 3580POPC   D2A46684  24.675  28.860   6.790
 3580POPC   C3A46685  24.757  29.096   7.183
 3580POPC   C4A46686  24.507  29.265   7.534
 3580POPC   C1B46687  24.090  29.037   6.182
 3580POPC   C2B46688  24.163  28.851   6.606
 3580POPC   C3B46689  24.251  29.054   7.004
 3580POPC   C4B46690  24.077  29.026   7.404
 3581POPC   NC346691   2.103   4.534   5.338
 3581POPC   PO446692   1.594   4.128   5.360
 3581POPC   GL146693   1.872   4.265   5.717
 3581POPC   GL246694   1.763   4.592   5.744
 3581POPC   C1A46695   2.138   4.137   6.059
 3581POPC   D2A46696   2.034   4.095   6.483
 3581POPC   C3A46697   2.290   4.196   6.830
 3581POPC   C4A46698   2.204   4.166   7.259
 3581POPC   C1B46699   1.931   4.585   6.173
 3581POPC   C2B46700   2.086   4.630   6.594
 3581POPC   C3B46701   1.907   4.522   7.014
 3581POPC   C4B46702   1.924   4.516   7.484
 3582POPC   NC346703  38.275  32.946   5.358
 3582POPC   PO446704  38.404  33.540   5.367
 3582POPC   GL146705  38.467  33.294   5.777
 3582POPC   GL246706  38.254  33.004   5.846
 3582POPC   C1A46707  38.556  33.152   6.233
 3582POPC   D2A46708  38.646  33.240   6.694
 3582POPC   C3A46709  38.573  32.958   7.051
 3582POPC   C4A46710  38.812  32.605   7.211
 3582POPC   C1B46711  38.118  32.815   6.203
 3582POPC   C2B46712  38.259  32.877   6.604
 3582POPC   C3B46713  38.134  32.690   6.953
 3582POPC   C4B46714  38.151  32.910   7.368
 3583POPC   NC346715  39.383  15.079   5.517
 3583POPC   PO446716  38.885  15.416   5.480
 3583POPC   GL146717  38.960  15.228   5.870
 3583POPC   GL246718  39.010  14.882   5.814
 3583POPC   C1A46719  39.051  15.425   6.272
 3583POPC   D2A46720  38.846  15.655   6.630
 3583POPC   C3A46721  39.079  15.486   6.963
 3583POPC   C4A46722  39.433  15.214   7.085
 3583POPC   C1B46723  39.230  14.876   6.206
 3583POPC   C2B46724  39.321  14.943   6.647
 3583POPC   C3B46725  38.977  14.981   6.943
 3583POPC   C4B46726  38.905  15.103   7.357
 3584POPC   NC346727  22.852  14.782   5.654
 3584POPC   PO446728  22.904  14.197   5.408
 3584POPC   GL146729  22.958  14.279   5.856
 3584POPC   GL246730  23.243  14.546   5.924
 3584POPC   C1A46731  22.846  14.134   6.284
 3584POPC   D2A46732  23.073  14.243   6.647
 3584POPC   C3A46733  23.094  14.013   7.026
 3584POPC   C4A46734  22.875  14.180   7.378
 3584POPC   C1B46735  22.948  14.616   6.285
 3584POPC   C2B46736  22.672  14.634   6.632
 3584POPC   C3B46737  22.744  14.753   7.061
 3584POPC   C4B46738  22.973  14.670   7.440
 3585POPC   NC346739  19.814  19.413   5.169
 3585POPC   PO446740  19.940  18.807   5.420
 3585POPC   GL146741  19.759  18.908   5.826
 3585POPC   GL246742  20.068  19.073   5.921
 3585POPC   C1A46743  19.722  19.147   6.263
 3585POPC   D2A46744  20.021  19.118   6.560
 3585POPC   C3A46745  19.901  19.340   6.909
 3585POPC   C4A46746  19.611  19.247   7.206
 3585POPC   C1B46747  19.980  18.695   6.220
 3585POPC   C2B46748  19.930  18.592   6.653
 3585POPC   C3B46749  20.040  18.568   7.081
 3585POPC   C4B46750  19.642  18.701   7.236
 3586POPC   NC346751   3.125   1.368   5.254
 3586POPC   PO446752   2.626   0.939   5.510
 3586POPC   GL146753   2.797   1.277   5.721
 3586POPC   GL246754   3.111   1.129   5.739
 3586POPC   C1A46755   2.710   1.396   6.153
 3586POPC   D2A46756   2.647   1.162   6.551
 3586POPC   C3A46757   2.720   1.368   6.954
 3586POPC   C4A46758   2.547   1.600   7.293
 3586POPC   C1B46759   2.912   0.934   6.121
 3586POPC   C2B46760   3.051   0.833   6.546
 3586POPC   C3B46761   2.886   0.859   6.952
 3586POPC   C4B46762   2.868   1.062   7.333
 3587POPC   NC346763  32.662  11.773   5.428
 3587POPC   PO446764  33.138  12.320   5.507
 3587POPC   GL146765  32.917  12.099   5.801
 3587POPC   GL246766  32.789  12.393   5.899
 3587POPC   C1A46767  33.103  11.970   6.193
 3587POPC   D2A46768  33.269  12.135   6.589
 3587POPC   C3A46769  33.123  11.978   7.000
 3587POPC   C4A46770  33.014  11.996   7.452
 3587POPC   C1B46771  32.853  12.387   6.312
 3587POPC   C2B46772  32.734  12.171   6.668
 3587POPC   C3B46773  32.699  12.295   7.086
 3587POPC   C4B46774  32.677  12.344   7.566
 3588POPC   NC346775  41.035  42.052   5.622
 3588POPC   PO446776  40.442  42.248   5.489
 3588POPC   GL146777  40.656  42.338   5.859
 3588POPC   GL246778  40.649  42.691   5.795
 3588POPC   C1A46779  40.867  42.188   6.265
 3588POPC   D2A46780  40.959  41.970   6.689
 3588POPC   C3A46781  40.908  42.158   7.112
 3588POPC   C4A46782  40.768  42.393   7.467
 3588POPC   C1B46783  40.715  42.697   6.227
 3588POPC   C2B46784  40.726  42.502   6.642
 3588POPC   C3B46785  40.833  42.671   7.039
 3588POPC   C4B46786  40.542  42.824   7.351
 3589POPC   NC346787  31.403  25.573   5.379
 3589POPC   PO446788  31.640  24.977   5.477
 3589POPC   GL146789  31.466  25.268   5.792
 3589POPC   GL246790  31.075  25.343   5.753
 3589POPC   C1A46791  31.608  25.291   6.217
 3589POPC   D2A46792  31.847  25.289   6.603
 3589POPC   C3A46793  31.673  25.170   6.978
 3589POPC   C4A46794  31.666  25.429   7.313
 3589POPC   C1B46795  31.155  25.555   6.149
 3589POPC   C2B46796  31.412  25.632   6.548
 3589POPC   C3B46797  31.290  25.564   6.970
 3589POPC   C4B46798  31.019  25.370   7.289
 3590POPC   NC346799  11.448  20.028   5.365
 3590POPC   PO446800  10.821  19.784   5.415
 3590POPC   GL146801  10.981  19.850   5.812
 3590POPC   GL246802  11.340  19.784   5.821
 3590POPC   C1A46803  10.949  19.706   6.228
 3590POPC   D2A46804  10.816  19.789   6.636
 3590POPC   C3A46805  11.076  19.960   6.927
 3590POPC   C4A46806  11.106  19.612   7.173
 3590POPC   C1B46807  11.455  19.758   6.265
 3590POPC   C2B46808  11.556  19.930   6.691
 3590POPC   C3B46809  11.593  19.774   7.120
 3590POPC   C4B46810  11.743  19.455   7.435
 3591POPC   NC346811  23.104  26.134   5.472
 3591POPC   PO446812  22.680  25.734   5.791
 3591POPC   GL146813  22.924  26.056   5.941
 3591POPC   GL246814  22.659  26.253   5.760
 3591POPC   C1A46815  23.215  26.079   6.306
 3591POPC   D2A46816  23.296  25.755   6.683
 3591POPC   C3A46817  23.110  25.888   7.105
 3591POPC   C4A46818  23.268  25.890   7.547
 3591POPC   C1B46819  22.528  26.288   6.163
 3591POPC   C2B46820  22.776  26.256   6.518
 3591POPC   C3B46821  22.684  26.147   6.930
 3591POPC   C4B46822  22.617  26.378   7.271
 3592POPC   NC346823   6.120   8.264   5.750
 3592POPC   PO446824   5.591   7.912   5.439
 3592POPC   GL146825   5.698   7.987   5.865
 3592POPC   GL246826   5.646   8.358   5.916
 3592POPC   C1A46827   5.662   8.032   6.318
 3592POPC   D2A46828   5.985   8.178   6.620
 3592POPC   C3A46829   5.867   8.202   7.041
 3592POPC   C4A46830   5.958   8.060   7.449
 3592POPC   C1B46831   5.761   8.550   6.289
 3592POPC   C2B46832   5.679   8.697   6.693
 3592POPC   C3B46833   5.630   8.763   7.136
 3592POPC   C4B46834   5.601   8.462   7.445
 3593POPC   NC346835  19.422  41.784   5.657
 3593POPC   PO446836  19.881  41.471   5.267
 3593POPC   GL146837  20.099  41.413   5.720
 3593POPC   GL246838  20.219  41.740   5.965
 3593POPC   C1A46839  19.933  41.355   6.148
 3593POPC   D2A46840  19.708  41.444   6.549
 3593POPC   C3A46841  19.928  41.375   6.949
 3593POPC   C4A46842  19.567  41.418   7.212
 3593POPC   C1B46843  19.830  41.850   6.264
 3593POPC   C2B46844  19.592  41.988   6.623
 3593POPC   C3B46845  19.790  41.920   7.007
 3593POPC   C4B46846  19.692  41.874   7.417
 3594POPC   NC346847  15.608  39.059   5.504
 3594POPC   PO446848  14.983  39.335   5.611
 3594POPC   GL146849  15.275  39.462   5.876
 3594POPC   GL246850  15.347  39.111   5.923
 3594POPC   C1A46851  15.183  39.460   6.312
 3594POPC   D2A46852  14.950  39.221   6.617
 3594POPC   C3A46853  15.025  39.387   6.996
 3594POPC   C4A46854  15.397  39.478   7.181
 3594POPC   C1B46855  15.130  38.927   6.218
 3594POPC   C2B46856  15.283  38.816   6.600
 3594POPC   C3B46857  15.214  38.912   7.053
 3594POPC   C4B46858  14.919  39.061   7.389
 3595POPC   NC346859   7.161  34.589   5.259
 3595POPC   PO446860   7.583  34.974   5.576
 3595POPC   GL146861   7.328  34.699   5.765
 3595POPC   GL246862   7.435  34.365   5.703
 3595POPC   C1A46863   7.255  34.666   6.186
 3595POPC   D2A46864   7.148  34.851   6.557
 3595POPC   C3A46865   7.350  34.681   6.894
 3595POPC   C4A46866   7.153  34.762   7.271
 3595POPC   C1B46867   7.591  34.275   6.135
 3595POPC   C2B46868   7.631  34.166   6.570
 3595POPC   C3B46869   7.725  34.310   6.996
 3595POPC   C4B46870   7.448  34.322   7.349
 3596POPC   NC346871   3.945   9.939   5.292
 3596POPC   PO446872   3.924   9.322   5.546
 3596POPC   GL146873   3.724   9.558   5.862
 3596POPC   GL246874   3.839   9.880   5.789
 3596POPC   C1A46875   3.434   9.578   6.239
 3596POPC   D2A46876   3.185   9.732   6.598
 3596POPC   C3A46877   3.265   9.536   7.009
 3596POPC   C4A46878   3.383   9.789   7.354
 3596POPC   C1B46879   3.796   9.959   6.222
 3596POPC   C2B46880   3.905   9.890   6.619
 3596POPC   C3B46881   3.581   9.951   6.907
 3596POPC   C4B46882   3.546  10.267   7.211
 3597POPC   NC346883  33.347  28.787   5.582
 3597POPC   PO446884  34.032  29.057   5.354
 3597POPC   GL146885  33.987  29.190   5.808
 3597POPC   GL246886  33.652  29.383   5.819
 3597POPC   C1A46887  33.811  29.068   6.214
 3597POPC   D2A46888  33.612  29.162   6.614
 3597POPC   C3A46889  33.768  28.923   7.004
 3597POPC   C4A46890  33.977  28.868   7.440
 3597POPC   C1B46891  33.639  29.571   6.258
 3597POPC   C2B46892  33.512  29.671   6.681
 3597POPC   C3B46893  33.755  29.483   6.993
 3597POPC   C4B46894  33.716  29.290   7.364
 3598POPC   NC346895  29.741   7.653   5.330
 3598POPC   PO446896  30.175   7.143   5.406
 3598POPC   GL146897  29.875   7.160   5.722
 3598POPC   GL246898  29.869   7.489   5.793
 3598POPC   C1A46899  29.786   7.128   6.163
 3598POPC   D2A46900  29.859   7.353   6.537
 3598POPC   C3A46901  29.781   7.159   6.901
 3598POPC   C4A46902  29.649   7.386   7.262
 3598POPC   C1B46903  29.909   7.700   6.154
 3598POPC   C2B46904  30.121   7.788   6.547
 3598POPC   C3B46905  30.010   7.666   6.942
 3598POPC   C4B46906  29.989   7.768   7.377
 3599POPC   NC346907   4.038  40.842   5.486
 3599POPC   PO446908   4.678  40.548   5.292
 3599POPC   GL146909   4.539  40.605   5.725
 3599POPC   GL246910   4.678  40.947   5.749
 3599POPC   C1A46911   4.277  40.612   6.126
 3599POPC   D2A46912   4.155  40.434   6.551
 3599POPC   C3A46913   4.285  40.659   6.880
 3599POPC   C4A46914   4.349  40.664   7.270
 3599POPC   C1B46915   4.601  41.036   6.177
 3599POPC   C2B46916   4.287  41.012   6.513
 3599POPC   C3B46917   4.371  41.234   6.903
 3599POPC   C4B46918   4.639  41.115   7.247
 3600POPC   NC346919  42.641  17.997   5.153
 3600POPC   PO446920  42.161  18.125   5.655
 3600POPC   GL146921  42.401  18.344   5.972
 3600POPC   GL246922  42.467  18.701   5.951
 3600POPC   C1A46923  42.492  18.197   6.360
 3600POPC   D2A46924  42.227  18.192   6.701
 3600POPC   C3A46925  42.403  18.219   7.103
 3600POPC   C4A46926  42.796  18.098   7.199
 3600POPC   C1B46927  42.411  18.697   6.403
 3600POPC   C2B46928  42.662  18.514   6.736
 3600POPC   C3B46929  42.687  18.659   7.141
 3600POPC   C4B46930  42.457  18.828   7.430
 3601POPC   NC346931  24.619  24.107   5.421
 3601POPC   PO446932  24.437  24.777   5.342
 3601POPC   GL146933  24.560  24.626   5.700
 3601POPC   GL246934  24.259  24.523   5.802
 3601POPC   C1A46935  24.631  24.662   6.137
 3601POPC   D2A46936  24.573  24.379   6.476
 3601POPC   C3A46937  24.541  24.613   6.848
 3601POPC   C4A46938  24.578  24.479   7.271
 3601POPC   C1B46939  24.136  24.520   6.233
 3601POPC   C2B46940  24.099  24.329   6.646
 3601POPC   C3B46941  24.093  24.492   7.055
 3601POPC   C4B46942  24.140  24.566   7.483
 3602POPC   NC346943  40.129  37.301   5.505
 3602POPC   PO446944  40.303  37.928   5.690
 3602POPC   GL146945  39.909  37.748   5.901
 3602POPC   GL246946  39.928  37.438   6.028
 3602POPC   C1A46947  39.721  37.764   6.362
 3602POPC   D2A46948  39.798  37.552   6.782
 3602POPC   C3A46949  39.588  37.737   7.162
 3602POPC   C4A46950  39.561  38.073   7.475
 3602POPC   C1B46951  40.220  37.753   6.294
 3602POPC   C2B46952  40.112  37.991   6.654
 3602POPC   C3B46953  40.105  37.885   7.085
 3602POPC   C4B46954  40.056  37.472   7.227
 3603POPC   NC346955  33.888  40.626   5.216
 3603POPC   PO446956  34.187  41.104   5.656
 3603POPC   GL146957  34.007  40.906   5.939
 3603POPC   GL246958  33.886  40.564   5.860
 3603POPC   C1A46959  33.924  40.942   6.322
 3603POPC   D2A46960  33.735  40.947   6.654
 3603POPC   C3A46961  33.958  40.993   6.996
 3603POPC   C4A46962  34.114  41.058   7.367
 3603POPC   C1B46963  33.547  40.553   6.206
 3603POPC   C2B46964  33.388  40.583   6.643
 3603POPC   C3B46965  33.690  40.551   6.981
 3603POPC   C4B46966  33.750  40.730   7.367
 3604POPC   NC346967  33.596   0.541   5.546
 3604POPC   PO446968  34.120   0.104   5.326
 3604POPC   GL146969  33.933   0.223   5.741
 3604POPC   GL246970  34.066   0.511   5.883
 3604POPC   C1A46971  33.712   0.271   6.161
 3604POPC   D2A46972  33.903   0.300   6.560
 3604POPC   C3A46973  33.726   0.538   6.891
 3604POPC   C4A46974  33.621   0.547   7.333
 3604POPC   C1B46975  34.139   0.809   6.207
 3604POPC   C2B46976  34.126   0.907   6.654
 3604POPC   C3B46977  34.059   0.858   7.100
 3604POPC   C4B46978  34.035   0.767   7.576
 3605POPC   NC346979  38.777   5.230   5.518
 3605POPC   PO446980  38.317   4.718   5.394
 3605POPC   GL146981  38.417   4.985   5.826
 3605POPC   GL246982  38.717   4.841   5.883
 3605POPC   C1A46983  38.325   5.233   6.292
 3605POPC   D2A46984  38.225   5.143   6.762
 3605POPC   C3A46985  38.340   5.219   7.201
 3605POPC   C4A46986  38.720   5.328   7.481
 3605POPC   C1B46987  38.803   5.092   6.220
 3605POPC   C2B46988  38.704   5.251   6.622
 3605POPC   C3B46989  38.764   5.089   7.004
 3605POPC   C4B46990  38.682   4.842   7.386
 3606POPC   NC346991  22.659  16.081   5.511
 3606POPC   PO446992  23.076  15.538   5.401
 3606POPC   GL146993  22.932  15.750   5.769
 3606POPC   GL246994  23.212  15.916   5.816
 3606POPC   C1A46995  22.781  15.976   6.150
 3606POPC   D2A46996  22.606  15.845   6.564
 3606POPC   C3A46997  22.674  16.055   6.938
 3606POPC   C4A46998  22.903  15.873   7.257
 3606POPC   C1B46999  23.299  15.969   6.235
 3606POPC   C2B47000  23.049  16.198   6.527
 3606POPC   C3B47001  23.108  16.337   6.912
 3606POPC   C4B47002  23.107  16.333   7.301
 3607POPC   NC347003  16.914  22.561   5.460
 3607POPC   PO447004  17.490  22.126   5.440
 3607POPC   GL147005  17.584  22.214   5.870
 3607POPC   GL247006  17.574  21.921   5.987
 3607POPC   C1A47007  17.864  22.377   6.214
 3607POPC   D2A47008  17.721  22.459   6.648
 3607POPC   C3A47009  17.674  22.179   7.005
 3607POPC   C4A47010  17.610  22.316   7.481
 3607POPC   C1B47011  17.565  22.009   6.417
 3607POPC   C2B47012  17.343  21.846   6.763
 3607POPC   C3B47013  17.214  22.043   7.131
 3607POPC   C4B47014  17.283  21.951   7.579
 3608POPC   NC347015   2.234  35.053   5.635
 3608POPC   PO447016   1.829  35.616   5.523
 3608POPC   GL147017   1.894  35.725   5.895
 3608POPC   GL247018   1.952  35.338   5.959
 3608POPC   C1A47019   1.948  35.716   6.292
 3608POPC   D2A47020   1.908  35.365   6.504
 3608POPC   C3A47021   1.994  35.489   6.916
 3608POPC   C4A47022   2.054  35.492   7.354
 3608POPC   C1B47023   1.681  35.036   6.157
 3608POPC   C2B47024   1.498  35.018   6.551
 3608POPC   C3B47025   1.718  35.053   6.893
 3608POPC   C4B47026   1.939  34.938   7.258
 3609POPC   NC347027  25.573   7.278   5.511
 3609POPC   PO447028  24.934   7.606   5.311
 3609POPC   GL147029  25.180   7.636   5.736
 3609POPC   GL247030  25.162   7.302   5.891
 3609POPC   C1A47031  25.151   7.712   6.209
 3609POPC   D2A47032  25.437   7.721   6.579
 3609POPC   C3A47033  25.379   7.542   6.990
 3609POPC   C4A47034  25.237   7.760   7.358
 3609POPC   C1B47035  25.302   7.254   6.338
 3609POPC   C2B47036  25.181   7.141   6.734
 3609POPC   C3B47037  25.350   7.021   7.113
 3609POPC   C4B47038  25.443   7.270   7.473
 3610POPC   NC347039  38.711  43.405   5.477
 3610POPC   PO447040  38.335  44.033   5.366
 3610POPC   GL147041  38.409  43.776   5.712
 3610POPC   GL247042  38.487  44.051   5.927
 3610POPC   C1A47043  38.324  43.617   6.140
 3610POPC   D2A47044  38.264  43.860   6.517
 3610POPC   C3A47045  38.269  43.580   6.888
 3610POPC   C4A47046  38.442  43.633   7.279
 3610POPC   C1B47047  38.615  44.219   6.326
 3610POPC   C2B47048  38.852  44.106   6.688
 3610POPC   C3B47049  38.560  44.047   7.001
 3610POPC   C4B47050  38.613  44.277   7.349
 3611POPC   NC347051  16.385  13.646   5.484
 3611POPC   PO447052  15.692  13.481   5.515
 3611POPC   GL147053  15.992  13.684   5.832
 3611POPC   GL247054  16.256  13.425   5.925
 3611POPC   C1A47055  15.893  13.637   6.278
 3611POPC   D2A47056  15.708  13.353   6.564
 3611POPC   C3A47057  15.653  13.575   6.939
 3611POPC   C4A47058  15.867  13.938   7.082
 3611POPC   C1B47059  16.253  13.276   6.338
 3611POPC   C2B47060  16.189  13.426   6.737
 3611POPC   C3B47061  16.059  13.336   7.122
 3611POPC   C4B47062  16.124  13.241   7.581
 3612POPC   NC347063  19.762   1.461   5.067
 3612POPC   PO447064  20.234   0.984   5.333
 3612POPC   GL147065  20.176   1.243   5.712
 3612POPC   GL247066  19.829   1.395   5.775
 3612POPC   C1A47067  20.164   1.229   6.187
 3612POPC   D2A47068  20.033   0.952   6.557
 3612POPC   C3A47069  19.925   1.078   6.991
 3612POPC   C4A47070  19.772   1.192   7.420
 3612POPC   C1B47071  19.645   1.366   6.198
 3612POPC   C2B47072  19.796   1.432   6.639
 3612POPC   C3B47073  19.642   1.532   7.085
 3612POPC   C4B47074  19.760   1.680   7.531
 3613POPC   NC347075  30.202  10.984   5.499
 3613POPC   PO447076  30.709  10.620   5.166
 3613POPC   GL147077  30.667  10.758   5.625
 3613POPC   GL247078  30.817  10.501   5.829
 3613POPC   C1A47079  30.537  10.816   6.107
 3613POPC   D2A47080  30.667  10.548   6.493
 3613POPC   C3A47081  30.658  10.686   6.936
 3613POPC   C4A47082  30.389  10.532   7.284
 3613POPC   C1B47083  31.051  10.358   6.191
 3613POPC   C2B47084  30.951  10.101   6.558
 3613POPC   C3B47085  30.764  10.186   6.935
 3613POPC   C4B47086  30.865  10.326   7.326
 3614POPC   NC347087  24.642   7.280   5.502
 3614POPC   PO447088  24.351   7.882   5.362
 3614POPC   GL147089  24.336   7.649   5.721
 3614POPC   GL247090  24.685   7.735   5.748
 3614POPC   C1A47091  24.197   7.440   6.124
 3614POPC   D2A47092  24.094   7.431   6.571
 3614POPC   C3A47093  24.354   7.662   6.851
 3614POPC   C4A47094  24.442   7.467   7.243
 3614POPC   C1B47095  24.707   7.490   6.112
 3614POPC   C2B47096  24.664   7.358   6.542
 3614POPC   C3B47097  24.863   7.555   6.900
 3614POPC   C4B47098  24.959   7.351   7.269
 3615POPC   NC347099  38.260  14.777   5.372
 3615POPC   PO447100  38.577  14.221   5.343
 3615POPC   GL147101  38.511  14.134   5.760
 3615POPC   GL247102  38.202  14.271   5.737
 3615POPC   C1A47103  38.625  14.045   6.206
 3615POPC   D2A47104  38.556  14.276   6.583
 3615POPC   C3A47105  38.496  14.184   7.014
 3615POPC   C4A47106  38.531  14.435   7.411
 3615POPC   C1B47107  38.254  14.400   6.167
 3615POPC   C2B47108  38.065  14.425   6.597
 3615POPC   C3B47109  38.109  14.498   7.068
 3615POPC   C4B47110  37.979  14.365   7.509
 3616POPC   NC347111  32.597  35.031   5.484
 3616POPC   PO447112  31.986  34.797   5.524
 3616POPC   GL147113  32.373  34.677   5.788
 3616POPC   GL247114  32.486  34.925   6.022
 3616POPC   C1A47115  32.462  34.361   6.117
 3616POPC   D2A47116  32.153  34.239   6.461
 3616POPC   C3A47117  32.243  34.434   6.890
 3616POPC   C4A47118  32.303  34.250   7.324
 3616POPC   C1B47119  32.080  34.700   6.205
 3616POPC   C2B47120  31.828  34.614   6.599
 3616POPC   C3B47121  31.783  34.804   7.015
 3616POPC   C4B47122  32.139  34.755   7.294
 3617POPC   NC347123  28.259  32.529   5.534
 3617POPC   PO447124  28.766  33.024   5.398
 3617POPC   GL147125  28.529  32.920   5.797
 3617POPC   GL247126  28.174  33.047   5.712
 3617POPC   C1A47127  28.510  33.013   6.274
 3617POPC   D2A47128  28.668  32.929   6.723
 3617POPC   C3A47129  28.458  32.973   7.150
 3617POPC   C4A47130  28.228  33.209   7.464
 3617POPC   C1B47131  28.067  32.849   6.093
 3617POPC   C2B47132  28.056  32.862   6.540
 3617POPC   C3B47133  28.022  32.790   6.982
 3617POPC   C4B47134  28.068  32.741   7.426
 3618POPC   NC347135   9.152  14.643   5.485
 3618POPC   PO447136   8.554  14.248   5.357
 3618POPC   GL147137   8.879  14.225   5.710
 3618POPC   GL247138   9.104  13.935   5.673
 3618POPC   C1A47139   9.052  14.382   6.136
 3618POPC   D2A47140   8.944  14.706   6.454
 3618POPC   C3A47141   8.896  14.570   6.894
 3618POPC   C4A47142   9.205  14.423   7.185
 3618POPC   C1B47143   8.973  13.883   6.091
 3618POPC   C2B47144   8.996  13.987   6.513
 3618POPC   C3B47145   8.769  14.021   6.903
 3618POPC   C4B47146   8.765  14.185   7.316
 3619POPC   NC347147   6.381  12.380   5.397
 3619POPC   PO447148   6.624  11.712   5.288
 3619POPC   GL147149   6.670  11.942   5.743
 3619POPC   GL247150   6.601  12.305   5.861
 3619POPC   C1A47151   6.968  11.942   6.116
 3619POPC   D2A47152   7.100  12.020   6.561
 3619POPC   C3A47153   6.749  12.125   6.842
 3619POPC   C4A47154   6.600  11.967   7.241
 3619POPC   C1B47155   6.616  12.349   6.337
 3619POPC   C2B47156   6.539  12.591   6.744
 3619POPC   C3B47157   6.324  12.384   7.112
 3619POPC   C4B47158   6.333  12.302   7.544
 3620POPC   NC347159  39.573  21.634   5.432
 3620POPC   PO447160  39.539  21.031   5.428
 3620POPC   GL147161  39.160  21.151   5.728
 3620POPC   GL247162  38.950  21.483   5.797
 3620POPC   C1A47163  39.006  21.159   6.179
 3620POPC   D2A47164  38.870  21.168   6.597
 3620POPC   C3A47165  39.091  21.143   6.993
 3620POPC   C4A47166  39.407  21.296   7.278
 3620POPC   C1B47167  39.218  21.652   6.153
 3620POPC   C2B47168  39.422  21.703   6.576
 3620POPC   C3B47169  39.258  21.751   6.994
 3620POPC   C4B47170  38.987  21.569   7.291
 3621POPC   NC347171   4.683  26.792   5.381
 3621POPC   PO447172   3.956  26.521   5.326
 3621POPC   GL147173   4.206  26.671   5.702
 3621POPC   GL247174   4.550  26.714   5.865
 3621POPC   C1A47175   4.130  26.781   6.132
 3621POPC   D2A47176   4.254  26.917   6.538
 3621POPC   C3A47177   4.150  26.627   6.839
 3621POPC   C4A47178   4.108  26.659   7.273
 3621POPC   C1B47179   4.659  26.738   6.265
 3621POPC   C2B47180   4.639  26.593   6.674
 3621POPC   C3B47181   4.603  26.733   7.072
 3621POPC   C4B47182   4.581  26.536   7.460
 3622POPC   NC347183   7.789   7.863   5.549
 3622POPC   PO447184   8.178   7.232   5.488
 3622POPC   GL147185   8.294   7.399   5.856
 3622POPC   GL247186   8.276   7.733   5.737
 3622POPC   C1A47187   8.203   7.270   6.262
 3622POPC   D2A47188   8.435   7.085   6.574
 3622POPC   C3A47189   8.282   7.217   6.935
 3622POPC   C4A47190   8.482   7.281   7.306
 3622POPC   C1B47191   8.323   7.792   6.190
 3622POPC   C2B47192   8.332   7.632   6.615
 3622POPC   C3B47193   8.412   7.728   7.044
 3622POPC   C4B47194   8.202   7.790   7.433
 3623POPC   NC347195  22.772   6.988   5.229
 3623POPC   PO447196  23.091   6.469   5.432
 3623POPC   GL147197  22.848   6.600   5.786
 3623POPC   GL247198  23.008   6.904   5.702
 3623POPC   C1A47199  22.885   6.523   6.258
 3623POPC   D2A47200  22.935   6.625   6.708
 3623POPC   C3A47201  22.720   6.582   7.097
 3623POPC   C4A47202  22.916   6.461   7.502
 3623POPC   C1B47203  23.193   6.881   6.084
 3623POPC   C2B47204  23.045   7.064   6.447
 3623POPC   C3B47205  23.010   7.124   6.837
 3623POPC   C4B47206  23.084   6.935   7.207
 3624POPC   NC347207  30.151  18.925   5.422
 3624POPC   PO447208  29.488  19.040   5.393
 3624POPC   GL147209  29.827  19.154   5.735
 3624POPC   GL247210  30.180  19.317   5.764
 3624POPC   C1A47211  29.997  19.025   6.157
 3624POPC   D2A47212  30.239  19.035   6.553
 3624POPC   C3A47213  30.091  18.852   6.920
 3624POPC   C4A47214  30.142  18.639   7.300
 3624POPC   C1B47215  30.280  19.454   6.195
 3624POPC   C2B47216  29.977  19.463   6.544
 3624POPC   C3B47217  30.076  19.436   6.970
 3624POPC   C4B47218  29.973  19.175   7.286
 3625POPC   NC347219  19.686  34.430   5.417
 3625POPC   PO447220  20.043  35.003   5.413
 3625POPC   GL147221  19.985  34.710   5.773
 3625POPC   GL247222  19.966  34.388   5.805
 3625POPC   C1A47223  19.762  34.655   6.183
 3625POPC   D2A47224  19.694  34.839   6.549
 3625POPC   C3A47225  19.860  34.606   6.899
 3625POPC   C4A47226  19.646  34.480   7.271
 3625POPC   C1B47227  19.816  34.152   6.112
 3625POPC   C2B47228  19.818  34.246   6.533
 3625POPC   C3B47229  19.729  34.055   6.927
 3625POPC   C4B47230  19.924  34.045   7.300
 3626POPC   NC347231  26.088  35.858   5.412
 3626POPC   PO447232  26.488  36.311   5.322
 3626POPC   GL147233  26.300  36.140   5.791
 3626POPC   GL247234  25.964  36.312   5.915
 3626POPC   C1A47235  26.142  35.930   6.216
 3626POPC   D2A47236  26.285  35.975   6.669
 3626POPC   C3A47237  25.986  35.870   7.002
 3626POPC   C4A47238  25.862  35.996   7.428
 3626POPC   C1B47239  26.040  36.396   6.392
 3626POPC   C2B47240  26.009  36.405   6.843
 3626POPC   C3B47241  25.817  36.463   7.243
 3626POPC   C4B47242  25.705  36.450   7.716
 3627POPC   NC347243  19.697  30.616   5.372
 3627POPC   PO447244  20.084  31.071   5.090
 3627POPC   GL147245  20.120  30.786   5.611
 3627POPC   GL247246  19.824  30.716   5.847
 3627POPC   C1A47247  20.188  30.891   6.124
 3627POPC   D2A47248  20.022  30.729   6.514
 3627POPC   C3A47249  20.022  30.733   6.969
 3627POPC   C4A47250  19.625  30.845   7.223
 3627POPC   C1B47251  19.899  30.366   6.176
 3627POPC   C2B47252  19.669  30.229   6.583
 3627POPC   C3B47253  19.801  30.249   7.051
 3627POPC   C4B47254  19.928  30.503   7.434
 3628POPC   NC347255   6.641  25.494   5.470
 3628POPC   PO447256   6.645  24.854   5.276
 3628POPC   GL147257   6.753  25.100   5.767
 3628POPC   GL247258   6.545  25.427   5.944
 3628POPC   C1A47259   6.938  25.317   6.205
 3628POPC   D2A47260   6.816  25.576   6.605
 3628POPC   C3A47261   6.945  25.450   7.045
 3628POPC   C4A47262   6.677  25.238   7.409
 3628POPC   C1B47263   6.427  25.156   6.249
 3628POPC   C2B47264   6.282  25.331   6.602
 3628POPC   C3B47265   6.443  25.434   6.971
 3628POPC   C4B47266   6.281  25.601   7.307
 3629POPC   NC347267  31.789  19.272   5.402
 3629POPC   PO447268  31.353  18.814   5.428
 3629POPC   GL147269  31.435  19.023   5.773
 3629POPC   GL247270  31.728  18.959   5.848
 3629POPC   C1A47271  31.340  19.225   6.151
 3629POPC   D2A47272  31.395  19.279   6.564
 3629POPC   C3A47273  31.084  19.242   6.868
 3629POPC   C4A47274  31.332  19.133   7.222
 3629POPC   C1B47275  31.856  19.034   6.261
 3629POPC   C2B47276  31.897  19.207   6.686
 3629POPC   C3B47277  31.831  19.050   7.090
 3629POPC   C4B47278  31.612  18.718   7.307
 3630POPC   NC347279  18.861  42.373   5.400
 3630POPC   PO447280  19.408  42.039   5.254
 3630POPC   GL147281  19.238  42.242   5.720
 3630POPC   GL247282  19.397  42.123   6.049
 3630POPC   C1A47283  18.891  42.242   6.092
 3630POPC   D2A47284  18.780  42.464   6.502
 3630POPC   C3A47285  19.050  42.303   6.869
 3630POPC   C4A47286  18.980  42.243   7.323
 3630POPC   C1B47287  19.290  42.433   6.383
 3630POPC   C2B47288  19.155  42.773   6.681
 3630POPC   C3B47289  19.317  42.768   7.106
 3630POPC   C4B47290  19.267  42.573   7.556
 3631POPC   NC347291  28.310   9.849   5.608
 3631POPC   PO447292  28.568   9.549   5.082
 3631POPC   GL147293  28.423   9.371   5.554
 3631POPC   GL247294  28.061   9.349   5.663
 3631POPC   C1A47295  28.477   9.458   6.069
 3631POPC   D2A47296  28.612   9.672   6.500
 3631POPC   C3A47297  28.392   9.942   6.816
 3631POPC   C4A47298  28.395   9.777   7.239
 3631POPC   C1B47299  27.960   9.295   6.116
 3631POPC   C2B47300  28.116   9.461   6.524
 3631POPC   C3B47301  28.014   9.593   6.946
 3631POPC   C4B47302  27.912   9.366   7.307
 3632POPC   NC347303  21.726  44.062   5.495
 3632POPC   PO447304  21.134  43.701   5.328
 3632POPC   GL147305  21.342  43.767   5.796
 3632POPC   GL247306  21.475  44.086   5.929
 3632POPC   C1A47307  21.411  43.744   6.298
 3632POPC   D2A47308  21.128  43.640   6.688
 3632POPC   C3A47309  21.021  43.756   7.151
 3632POPC   C4A47310  20.910  43.851   7.605
 3632POPC   C1B47311  21.674  44.180   6.300
 3632POPC   C2B47312  21.696  43.970   6.682
 3632POPC   C3B47313  21.510  43.864   7.078
 3632POPC   C4B47314  21.420  43.783   7.554
 3633POPC   NC347315   7.989  20.860   5.422
 3633POPC   PO447316   8.500  20.369   5.478
 3633POPC   GL147317   8.129  20.444   5.816
 3633POPC   GL247318   7.906  20.728   5.904
 3633POPC   C1A47319   8.116  20.416   6.267
 3633POPC   D2A47320   8.492  20.377   6.507
 3633POPC   C3A47321   8.436  20.285   6.959
 3633POPC   C4A47322   8.104  20.271   7.275
 3633POPC   C1B47323   8.312  20.858   6.027
 3633POPC   C2B47324   8.312  20.872   6.457
 3633POPC   C3B47325   8.116  20.698   6.796
 3633POPC   C4B47326   8.297  20.815   7.157
 3634POPC   NC347327  40.726  13.997   5.459
 3634POPC   PO447328  40.496  13.365   5.395
 3634POPC   GL147329  40.835  13.534   5.721
 3634POPC   GL247330  40.827  13.870   5.926
 3634POPC   C1A47331  41.048  13.473   6.124
 3634POPC   D2A47332  40.848  13.685   6.482
 3634POPC   C3A47333  41.064  13.602   6.878
 3634POPC   C4A47334  40.913  13.611   7.293
 3634POPC   C1B47335  40.487  14.017   6.180
 3634POPC   C2B47336  40.406  13.938   6.610
 3634POPC   C3B47337  40.661  13.944   6.969
 3634POPC   C4B47338  40.573  14.013   7.409
 3635POPC   NC347339  37.783   2.217   5.482
 3635POPC   PO447340  37.552   1.542   5.382
 3635POPC   GL147341  37.615   1.788   5.734
 3635POPC   GL247342  37.938   1.708   5.790
 3635POPC   C1A47343  37.564   1.975   6.165
 3635POPC   D2A47344  37.698   1.816   6.604
 3635POPC   C3A47345  37.522   2.033   6.968
 3635POPC   C4A47346  37.496   1.984   7.425
 3635POPC   C1B47347  38.058   1.898   6.175
 3635POPC   C2B47348  37.961   2.236   6.497
 3635POPC   C3B47349  38.039   2.127   6.922
 3635POPC   C4B47350  37.957   1.722   7.147
 3636POPC   NC347351  40.573  35.536   5.503
 3636POPC   PO447352  41.133  35.253   5.371
 3636POPC   GL147353  40.939  35.092   5.785
 3636POPC   GL247354  40.594  35.241   5.928
 3636POPC   C1A47355  41.011  35.253   6.217
 3636POPC   D2A47356  40.666  35.187   6.490
 3636POPC   C3A47357  40.816  35.262   6.912
 3636POPC   C4A47358  40.732  35.175   7.332
 3636POPC   C1B47359  40.635  35.635   6.228
 3636POPC   C2B47360  40.536  35.633   6.696
 3636POPC   C3B47361  40.676  35.719   7.107
 3636POPC   C4B47362  40.710  35.644   7.543
 3637POPC   NC347363  26.512  25.378   5.539
 3637POPC   PO447364  27.110  25.034   5.521
 3637POPC   GL147365  26.895  25.236   5.855
 3637POPC   GL247366  26.629  25.024   5.931
 3637POPC   C1A47367  27.033  25.352   6.245
 3637POPC   D2A47368  26.947  25.131   6.598
 3637POPC   C3A47369  27.046  25.255   7.010
 3637POPC   C4A47370  26.956  24.949   7.329
 3637POPC   C1B47371  26.490  25.339   6.242
 3637POPC   C2B47372  26.348  25.272   6.682
 3637POPC   C3B47373  26.520  25.100   7.063
 3637POPC   C4B47374  26.584  25.285   7.464
 3638POPC   NC347375   1.760  14.127   5.450
 3638POPC   PO447376   1.906  14.752   5.240
 3638POPC   GL147377   1.873  14.646   5.700
 3638POPC   GL247378   2.211  14.683   5.849
 3638POPC   C1A47379   1.837  14.602   6.189
 3638POPC   D2A47380   1.913  14.756   6.637
 3638POPC   C3A47381   1.693  14.476   6.926
 3638POPC   C4A47382   1.763  14.049   7.041
 3638POPC   C1B47383   2.332  14.436   6.217
 3638POPC   C2B47384   2.428  14.203   6.606
 3638POPC   C3B47385   2.204  14.347   6.978
 3638POPC   C4B47386   2.156  14.773   7.177
 3639POPC   NC347387  41.327   7.752   5.458
 3639POPC   PO447388  41.615   7.048   5.465
 3639POPC   GL147389  41.643   7.388   5.794
 3639POPC   GL247390  41.375   7.509   5.907
 3639POPC   C1A47391  41.728   7.330   6.230
 3639POPC   D2A47392  41.420   7.307   6.548
 3639POPC   C3A47393  41.589   7.229   6.929
 3639POPC   C4A47394  41.448   6.971   7.210
 3639POPC   C1B47395  41.441   7.741   6.246
 3639POPC   C2B47396  41.696   7.724   6.648
 3639POPC   C3B47397  41.468   7.707   7.047
 3639POPC   C4B47398  41.317   7.433   7.328
 3640POPC   NC347399  30.716   5.276   5.573
 3640POPC   PO447400  30.654   4.642   5.573
 3640POPC   GL147401  30.928   4.820   5.856
 3640POPC   GL247402  30.611   4.942   6.013
 3640POPC   C1A47403  31.039   4.962   6.290
 3640POPC   D2A47404  30.898   5.239   6.649
 3640POPC   C3A47405  30.544   5.047   6.821
 3640POPC   C4A47406  30.450   4.878   7.217
 3640POPC   C1B47407  30.521   5.305   6.285
 3640POPC   C2B47408  30.394   5.524   6.693
 3640POPC   C3B47409  30.276   5.374   7.116
 3640POPC   C4B47410  30.516   5.265   7.517
 3641POPC   NC347411  10.206  31.222   5.466
 3641POPC   PO447412  10.791  31.647   5.502
 3641POPC   GL147413  10.625  31.350   5.774
 3641POPC   GL247414  10.343  31.530   5.895
 3641POPC   C1A47415  10.752  31.425   6.190
 3641POPC   D2A47416  10.770  31.623   6.566
 3641POPC   C3A47417  10.448  31.498   6.818
 3641POPC   C4A47418  10.449  31.373   7.268
 3641POPC   C1B47419  10.345  31.757   6.296
 3641POPC   C2B47420  10.155  31.910   6.686
 3641POPC   C3B47421  10.258  31.828   7.131
 3641POPC   C4B47422  10.072  31.617   7.490
 3642POPC   NC347423  42.633  13.615   5.320
 3642POPC   PO447424  42.009  13.604   5.430
 3642POPC   GL147425  42.210  13.705   5.852
 3642POPC   GL247426  42.567  13.643   5.848
 3642POPC   C1A47427  42.189  13.605   6.320
 3642POPC   D2A47428  41.966  13.370   6.654
 3642POPC   C3A47429  42.175  13.482   7.005
 3642POPC   C4A47430  42.432  13.808   7.193
 3642POPC   C1B47431  42.681  13.499   6.263
 3642POPC   C2B47432  42.705  13.598   6.710
 3642POPC   C3B47433  42.681  13.304   7.045
 3642POPC   C4B47434  42.405  13.244   7.388
 3643POPC   NC347435  17.084  44.809   5.331
 3643POPC   PO447436  17.746  44.670   5.479
 3643POPC   GL147437  17.554  44.809   5.829
 3643POPC   GL247438  17.197  44.736   5.835
 3643POPC   C1A47439  17.488  44.718   6.253
 3643POPC   D2A47440  17.259  44.681   6.604
 3643POPC   C3A47441  17.526  44.757   6.941
 3643POPC   C4A47442  17.803  44.516   7.171
 3643POPC   C1B47443  17.067  44.410   6.155
 3643POPC   C2B47444  16.997  44.224   6.557
 3643POPC   C3B47445  17.038  44.383   6.986
 3643POPC   C4B47446  17.307  44.541   7.353
 3644POPC   NC347447  25.456   2.499   5.277
 3644POPC   PO447448  24.773   2.768   5.340
 3644POPC   GL147449  25.184   2.719   5.674
 3644POPC   GL247450  25.517   2.486   5.786
 3644POPC   C1A47451  25.392   2.864   6.085
 3644POPC   D2A47452  25.300   2.744   6.520
 3644POPC   C3A47453  25.420   2.849   6.943
 3644POPC   C4A47454  25.314   2.765   7.354
 3644POPC   C1B47455  25.639   2.321   6.237
 3644POPC   C2B47456  25.688   2.443   6.702
 3644POPC   C3B47457  25.659   2.396   7.174
 3644POPC   C4B47458  25.558   2.380   7.649
 3645POPC   NC347459  21.878  35.738   5.140
 3645POPC   PO447460  22.232  36.251   5.533
 3645POPC   GL147461  22.237  36.209   5.941
 3645POPC   GL247462  21.888  36.349   5.949
 3645POPC   C1A47463  22.202  36.387   6.349
 3645POPC   D2A47464  22.039  36.097   6.628
 3645POPC   C3A47465  22.189  36.096   7.035
 3645POPC   C4A47466  22.330  36.000   7.440
 3645POPC   C1B47467  21.630  36.302   6.326
 3645POPC   C2B47468  21.595  36.259   6.797
 3645POPC   C3B47469  21.727  35.935   7.057
 3645POPC   C4B47470  21.846  36.146   7.423
 3646POPC   NC347471  37.719  18.533   5.198
 3646POPC   PO447472  37.831  18.001   5.634
 3646POPC   GL147473  37.574  18.267   5.892
 3646POPC   GL247474  37.457  18.598   5.773
 3646POPC   C1A47475  37.630  18.200   6.344
 3646POPC   D2A47476  38.011  18.275   6.590
 3646POPC   C3A47477  37.943  18.341   7.025
 3646POPC   C4A47478  37.868  17.949   7.253
 3646POPC   C1B47479  37.579  18.703   6.225
 3646POPC   C2B47480  37.571  18.566   6.701
 3646POPC   C3B47481  37.430  18.238   7.011
 3646POPC   C4B47482  37.086  18.143   7.327
 3647POPC   NC347483  38.775  42.059   5.551
 3647POPC   PO447484  38.161  42.429   5.454
 3647POPC   GL147485  38.408  42.337   5.852
 3647POPC   GL247486  38.781  42.284   6.002
 3647POPC   C1A47487  38.428  42.501   6.271
 3647POPC   D2A47488  38.571  42.372   6.649
 3647POPC   C3A47489  38.408  42.507   6.999
 3647POPC   C4A47490  38.655  42.329   7.250
 3647POPC   C1B47491  38.586  42.016   6.278
 3647POPC   C2B47492  38.685  41.850   6.669
 3647POPC   C3B47493  38.828  41.859   7.067
 3647POPC   C4B47494  38.619  41.879   7.454
 3648POPC   NC347495  17.675  18.053   5.277
 3648POPC   PO447496  17.454  18.687   5.373
 3648POPC   GL147497  17.619  18.348   5.695
 3648POPC   GL247498  17.383  18.039   5.708
 3648POPC   C1A47499  17.623  18.167   6.146
 3648POPC   D2A47500  17.413  18.217   6.582
 3648POPC   C3A47501  17.587  18.198   7.027
 3648POPC   C4A47502  17.420  18.422   7.380
 3648POPC   C1B47503  17.389  17.719   6.063
 3648POPC   C2B47504  17.502  17.708   6.505
 3648POPC   C3B47505  17.333  17.775   6.925
 3648POPC   C4B47506  17.451  17.783   7.360
 3649POPC   NC347507  44.856  28.296   5.584
 3649POPC   PO447508  44.247  28.665   5.504
 3649POPC   GL147509  44.439  28.455   5.848
 3649POPC   GL247510  44.430  28.095   5.779
 3649POPC   C1A47511  44.710  28.419   6.227
 3649POPC   D2A47512  44.658  28.252   6.660
 3649POPC   C3A47513  44.923  28.436   6.948
 3649POPC   C4A47514  44.819  28.779   7.179
 3649POPC   C1B47515  44.326  28.075   6.202
 3649POPC   C2B47516  44.400  27.811   6.575
 3649POPC   C3B47517  44.340  27.949   6.988
 3649POPC   C4B47518  44.459  28.346   7.152
 3650POPC   NC347519  31.921  22.843   5.517
 3650POPC   PO447520  32.106  23.476   5.265
 3650POPC   GL147521  32.277  23.262   5.664
 3650POPC   GL247522  32.393  22.897   5.737
 3650POPC   C1A47523  32.131  23.157   6.102
 3650POPC   D2A47524  32.256  23.293   6.527
 3650POPC   C3A47525  32.176  23.096   6.928
 3650POPC   C4A47526  31.903  22.980   7.266
 3650POPC   C1B47527  32.561  22.919   6.196
 3650POPC   C2B47528  32.630  22.964   6.675
 3650POPC   C3B47529  32.577  22.863   7.160
 3650POPC   C4B47530  32.631  22.920   7.634
 3651POPC   NC347531  39.246  20.689   5.441
 3651POPC   PO447532  39.333  20.069   5.463
 3651POPC   GL147533  39.112  20.277   5.835
 3651POPC   GL247534  39.379  20.522   5.906
 3651POPC   C1A47535  39.026  20.469   6.263
 3651POPC   D2A47536  39.126  20.720   6.620
 3651POPC   C3A47537  39.146  20.570   7.028
 3651POPC   C4A47538  39.109  20.807   7.392
 3651POPC   C1B47539  39.420  20.869   6.215
 3651POPC   C2B47540  39.457  21.105   6.631
 3651POPC   C3B47541  39.549  20.884   7.037
 3651POPC   C4B47542  39.597  20.891   7.524
 3652POPC   NC347543  38.074  29.347   5.458
 3652POPC   PO447544  37.411  29.283   5.453
 3652POPC   GL147545  37.683  29.281   5.812
 3652POPC   GL247546  37.920  29.602   5.872
 3652POPC   C1A47547  37.491  29.093   6.171
 3652POPC   D2A47548  37.676  28.933   6.528
 3652POPC   C3A47549  37.795  29.130   6.854
 3652POPC   C4A47550  37.802  29.052   7.248
 3652POPC   C1B47551  37.960  29.377   6.295
 3652POPC   C2B47552  38.101  29.513   6.721
 3652POPC   C3B47553  38.058  29.521   7.171
 3652POPC   C4B47554  37.999  29.671   7.643
 3653POPC   NC347555  35.075  17.012   5.147
 3653POPC   PO447556  35.681  16.695   5.322
 3653POPC   GL147557  35.454  16.786   5.720
 3653POPC   GL247558  35.488  16.449   5.892
 3653POPC   C1A47559  35.235  16.818   6.148
 3653POPC   D2A47560  35.402  16.849   6.565
 3653POPC   C3A47561  35.275  16.887   6.991
 3653POPC   C4A47562  35.460  16.880   7.409
 3653POPC   C1B47563  35.583  16.380   6.338
 3653POPC   C2B47564  35.772  16.531   6.689
 3653POPC   C3B47565  35.565  16.494   7.091
 3653POPC   C4B47566  35.489  16.396   7.518
 3654POPC   NC347567  26.957  20.399   5.252
 3654POPC   PO447568  27.614  20.409   5.586
 3654POPC   GL147569  27.581  20.453   6.003
 3654POPC   GL247570  27.833  20.719   6.029
 3654POPC   C1A47571  27.329  20.330   6.368
 3654POPC   D2A47572  27.078  20.514   6.719
 3654POPC   C3A47573  27.305  20.665   7.091
 3654POPC   C4A47574  27.458  21.059   7.320
 3654POPC   C1B47575  27.574  20.782   6.408
 3654POPC   C2B47576  27.622  20.964   6.817
 3654POPC   C3B47577  27.822  20.751   7.143
 3654POPC   C4B47578  27.696  20.335   7.178
 3655POPC   NC347579   7.642  23.884   5.424
 3655POPC   PO447580   7.570  24.577   5.414
 3655POPC   GL147581   7.596  24.501   5.825
 3655POPC   GL247582   7.290  24.678   5.888
 3655POPC   C1A47583   7.679  24.634   6.231
 3655POPC   D2A47584   7.404  24.633   6.578
 3655POPC   C3A47585   7.511  24.302   6.863
 3655POPC   C4A47586   7.539  24.435   7.233
 3655POPC   C1B47587   7.144  24.354   6.190
 3655POPC   C2B47588   7.030  24.264   6.641
 3655POPC   C3B47589   7.061  24.543   7.019
 3655POPC   C4B47590   7.009  24.854   7.362
 3656POPC   NC347591  14.732  17.702   5.490
 3656POPC   PO447592  14.101  17.672   5.357
 3656POPC   GL147593  14.281  17.699   5.751
 3656POPC   GL247594  14.451  17.356   5.764
 3656POPC   C1A47595  14.230  17.599   6.180
 3656POPC   D2A47596  14.097  17.361   6.516
 3656POPC   C3A47597  14.278  17.473   6.906
 3656POPC   C4A47598  14.330  17.531   7.345
 3656POPC   C1B47599  14.361  17.091   6.139
 3656POPC   C2B47600  14.502  17.070   6.575
 3656POPC   C3B47601  14.564  17.066   7.021
 3656POPC   C4B47602  14.524  17.032   7.469
 3657POPC   NC347603   7.524   8.172   5.231
 3657POPC   PO447604   6.981   8.261   5.542
 3657POPC   GL147605   7.260   8.395   5.864
 3657POPC   GL247606   7.529   8.130   5.886
 3657POPC   C1A47607   7.457   8.411   6.295
 3657POPC   D2A47608   7.677   8.369   6.692
 3657POPC   C3A47609   7.449   8.429   7.057
 3657POPC   C4A47610   7.046   8.597   7.102
 3657POPC   C1B47611   7.411   7.890   6.281
 3657POPC   C2B47612   7.455   7.767   6.743
 3657POPC   C3B47613   7.480   7.758   7.222
 3657POPC   C4B47614   7.710   7.891   7.617
 3658POPC   NC347615  27.575  16.318   5.548
 3658POPC   PO447616  27.653  17.019   5.462
 3658POPC   GL147617  27.798  16.822   5.855
 3658POPC   GL247618  28.008  16.529   5.808
 3658POPC   C1A47619  27.578  16.721   6.252
 3658POPC   D2A47620  27.258  16.628   6.564
 3658POPC   C3A47621  27.392  16.765   6.951
 3658POPC   C4A47622  27.577  16.669   7.342
 3658POPC   C1B47623  28.043  16.527   6.230
 3658POPC   C2B47624  27.991  16.703   6.611
 3658POPC   C3B47625  27.983  16.542   7.017
 3658POPC   C4B47626  28.157  16.438   7.402
 3659POPC   NC347627  29.633  43.357   5.368
 3659POPC   PO447628  29.998  42.807   5.463
 3659POPC   GL147629  30.003  43.208   5.697
 3659POPC   GL247630  30.261  43.456   5.589
 3659POPC   C1A47631  29.845  43.289   6.087
 3659POPC   D2A47632  29.787  43.036   6.403
 3659POPC   C3A47633  29.875  43.167   6.809
 3659POPC   C4A47634  30.010  43.064   7.196
 3659POPC   C1B47635  30.336  43.488   6.028
 3659POPC   C2B47636  30.249  43.364   6.472
 3659POPC   C3B47637  30.388  43.305   6.915
 3659POPC   C4B47638  30.307  43.460   7.356
 3660POPC   NC347639  34.104  31.280   5.641
 3660POPC   PO447640  33.691  31.712   5.506
 3660POPC   GL147641  33.685  31.487   5.919
 3660POPC   GL247642  33.660  31.127   5.885
 3660POPC   C1A47643  33.913  31.520   6.352
 3660POPC   D2A47644  34.156  31.344   6.718
 3660POPC   C3A47645  34.049  31.571   7.107
 3660POPC   C4A47646  33.650  31.524   7.357
 3660POPC   C1B47647  33.761  31.056   6.239
 3660POPC   C2B47648  33.509  31.225   6.521
 3660POPC   C3B47649  33.615  31.300   6.914
 3660POPC   C4B47650  33.924  31.085   7.194
 3661POPC   NC347651  22.301  43.643   5.088
 3661POPC   PO447652  21.972  43.061   5.172
 3661POPC   GL147653  21.994  43.102   5.655
 3661POPC   GL247654  22.331  43.003   5.718
 3661POPC   C1A47655  22.024  43.215   6.140
 3661POPC   D2A47656  21.873  43.072   6.547
 3661POPC   C3A47657  22.025  43.227   6.967
 3661POPC   C4A47658  21.884  43.162   7.385
 3661POPC   C1B47659  22.491  42.999   6.132
 3661POPC   C2B47660  22.364  43.092   6.548
 3661POPC   C3B47661  22.518  43.069   6.964
 3661POPC   C4B47662  22.410  43.167   7.366
 3662POPC   NC347663  26.070   5.009   5.047
 3662POPC   PO447664  26.180   5.696   5.296
 3662POPC   GL147665  26.197   5.379   5.691
 3662POPC   GL247666  26.011   5.044   5.715
 3662POPC   C1A47667  26.085   5.447   6.158
 3662POPC   D2A47668  25.864   5.362   6.589
 3662POPC   C3A47669  26.153   5.337   6.989
 3662POPC   C4A47670  26.601   5.436   7.171
 3662POPC   C1B47671  26.117   4.940   6.174
 3662POPC   C2B47672  25.957   4.850   6.623
 3662POPC   C3B47673  26.122   4.706   7.018
 3662POPC   C4B47674  26.044   4.906   7.430
 3663POPC   NC347675  12.765  30.969   5.515
 3663POPC   PO447676  13.016  31.597   5.278
 3663POPC   GL147677  12.983  31.435   5.704
 3663POPC   GL247678  12.823  31.729   5.805
 3663POPC   C1A47679  12.983  31.433   6.197
 3663POPC   D2A47680  12.982  31.219   6.630
 3663POPC   C3A47681  12.683  31.266   6.970
 3663POPC   C4A47682  12.675  31.267   7.428
 3663POPC   C1B47683  12.614  31.819   6.201
 3663POPC   C2B47684  12.743  31.741   6.588
 3663POPC   C3B47685  13.085  31.733   6.828
 3663POPC   C4B47686  12.905  31.676   7.205
 3664POPC   NC347687  15.507   0.458   5.334
 3664POPC   PO447688  14.900   0.656   5.534
 3664POPC   GL147689  15.198   0.584   5.848
 3664POPC   GL247690  15.308   0.281   5.788
 3664POPC   C1A47691  15.153   0.467   6.279
 3664POPC   D2A47692  15.316   0.702   6.598
 3664POPC   C3A47693  15.133   0.568   6.950
 3664POPC   C4A47694  14.918   0.282   7.171
 3664POPC   C1B47695  15.544   0.159   6.149
 3664POPC   C2B47696  15.518   0.232   6.604
 3664POPC   C3B47697  15.529   0.273   7.056
 3664POPC   C4B47698  15.513   0.257   7.532
 3665POPC   NC347699  18.670  36.273   5.406
 3665POPC   PO447700  19.286  36.478   5.366
 3665POPC   GL147701  19.009  36.365   5.779
 3665POPC   GL247702  18.829  36.020   5.843
 3665POPC   C1A47703  19.069  36.258   6.222
 3665POPC   D2A47704  18.942  36.058   6.612
 3665POPC   C3A47705  19.073  36.170   7.010
 3665POPC   C4A47706  19.443  36.010   7.201
 3665POPC   C1B47707  18.590  36.083   6.240
 3665POPC   C2B47708  18.443  36.033   6.668
 3665POPC   C3B47709  18.540  36.157   7.115
 3665POPC   C4B47710  18.552  35.946   7.545
 3666POPC   NC347711   3.356  32.469   5.477
 3666POPC   PO447712   2.698  32.262   5.538
 3666POPC   GL147713   2.983  32.193   5.922
 3666POPC   GL247714   2.696  32.102   6.006
 3666POPC   C1A47715   2.933  32.109   6.442
 3666POPC   D2A47716   2.773  32.420   6.747
 3666POPC   C3A47717   2.664  32.268   7.150
 3666POPC   C4A47718   2.966  32.280   7.439
 3666POPC   C1B47719   2.574  32.440   6.255
 3666POPC   C2B47720   2.282  32.498   6.593
 3666POPC   C3B47721   2.267  32.572   7.054
 3666POPC   C4B47722   2.513  32.635   7.496
 3667POPC   NC347723  29.093  19.256   5.520
 3667POPC   PO447724  28.536  19.154   5.216
 3667POPC   GL147725  28.780  18.841   5.598
 3667POPC   GL247726  29.168  18.818   5.735
 3667POPC   C1A47727  28.830  18.693   6.076
 3667POPC   D2A47728  29.168  18.798   6.358
 3667POPC   C3A47729  29.249  18.787   6.781
 3667POPC   C4A47730  29.075  18.985   7.148
 3667POPC   C1B47731  29.461  19.069   6.061
 3667POPC   C2B47732  29.607  19.088   6.496
 3667POPC   C3B47733  29.593  19.189   6.920
 3667POPC   C4B47734  29.606  18.837   7.151
 3668POPC   NC347735   4.351  39.519   5.518
 3668POPC   PO447736   4.333  38.823   5.302
 3668POPC   GL147737   4.333  38.995   5.756
 3668POPC   GL247738   4.021  39.164   5.847
 3668POPC   C1A47739   4.415  39.293   6.152
 3668POPC   D2A47740   4.458  39.495   6.589
 3668POPC   C3A47741   4.506  39.182   6.924
 3668POPC   C4A47742   4.537  39.171   7.361
 3668POPC   C1B47743   4.033  38.951   6.275
 3668POPC   C2B47744   4.017  38.946   6.744
 3668POPC   C3B47745   4.037  39.219   7.137
 3668POPC   C4B47746   4.176  39.518   7.468
 3669POPC   NC347747   3.903  38.676   5.223
 3669POPC   PO447748   3.365  38.505   5.567
 3669POPC   GL147749   3.492  38.426   5.989
 3669POPC   GL247750   3.576  38.745   6.192
 3669POPC   C1A47751   3.291  38.379   6.374
 3669POPC   D2A47752   3.362  38.685   6.691
 3669POPC   C3A47753   3.302  38.481   7.066
 3669POPC   C4A47754   3.422  38.061   7.176
 3669POPC   C1B47755   3.815  38.432   6.399
 3669POPC   C2B47756   3.736  38.260   6.797
 3669POPC   C3B47757   3.815  38.379   7.215
 3669POPC   C4B47758   3.867  38.652   7.549
 3670POPC   NC347759   9.983  24.657   5.499
 3670POPC   PO447760   9.651  24.155   5.219
 3670POPC   GL147761   9.636  24.274   5.728
 3670POPC   GL247762   9.709  24.626   5.913
 3670POPC   C1A47763   9.514  24.285   6.223
 3670POPC   D2A47764   9.639  24.441   6.652
 3670POPC   C3A47765   9.765  24.193   7.046
 3670POPC   C4A47766   9.994  24.197   7.440
 3670POPC   C1B47767   9.570  24.834   6.302
 3670POPC   C2B47768   9.783  24.934   6.713
 3670POPC   C3B47769   9.707  24.707   7.091
 3670POPC   C4B47770   9.308  24.475   7.058
 3671POPC   NC347771   8.061  30.107   5.261
 3671POPC   PO447772   8.362  29.512   5.431
 3671POPC   GL147773   8.214  29.867   5.720
 3671POPC   GL247774   7.865  30.017   5.748
 3671POPC   C1A47775   8.335  30.129   6.098
 3671POPC   D2A47776   8.340  30.184   6.559
 3671POPC   C3A47777   8.437  29.839   6.847
 3671POPC   C4A47778   8.395  29.952   7.252
 3671POPC   C1B47779   7.823  30.014   6.221
 3671POPC   C2B47780   7.814  30.150   6.697
 3671POPC   C3B47781   7.859  30.040   7.137
 3671POPC   C4B47782   7.880  30.241   7.578
 3672POPC   NC347783  21.537  13.985   4.949
 3672POPC   PO447784  21.578  13.502   5.419
 3672POPC   GL147785  21.324  13.720   5.772
 3672POPC   GL247786  21.669  13.696   5.923
 3672POPC   C1A47787  21.148  13.960   6.161
 3672POPC   D2A47788  21.302  13.962   6.608
 3672POPC   C3A47789  21.144  13.728   6.949
 3672POPC   C4A47790  21.367  13.429   7.202
 3672POPC   C1B47791  21.457  13.560   6.288
 3672POPC   C2B47792  21.555  13.487   6.705
 3672POPC   C3B47793  21.771  13.696   7.012
 3672POPC   C4B47794  21.587  14.070   7.155
 3673POPC   NC347795  30.881  24.264   5.366
 3673POPC   PO447796  30.620  24.836   5.395
 3673POPC   GL147797  30.725  24.633   5.780
 3673POPC   GL247798  30.433  24.485   5.768
 3673POPC   C1A47799  30.815  24.525   6.250
 3673POPC   D2A47800  30.784  24.733   6.692
 3673POPC   C3A47801  30.745  24.416   7.059
 3673POPC   C4A47802  30.401  24.138   7.203
 3673POPC   C1B47803  30.355  24.696   6.145
 3673POPC   C2B47804  30.349  24.506   6.544
 3673POPC   C3B47805  30.287  24.597   6.957
 3673POPC   C4B47806  30.336  24.951   7.221
 3674POPC   NC347807  41.238  18.943   5.506
 3674POPC   PO447808  41.726  19.330   5.679
 3674POPC   GL147809  41.542  18.954   5.925
 3674POPC   GL247810  41.197  19.058   6.012
 3674POPC   C1A47811  41.512  18.726   6.323
 3674POPC   D2A47812  41.506  18.885   6.752
 3674POPC   C3A47813  41.748  18.784   7.117
 3674POPC   C4A47814  41.945  19.018   7.441
 3674POPC   C1B47815  41.368  19.225   6.391
 3674POPC   C2B47816  41.305  19.367   6.834
 3674POPC   C3B47817  41.249  19.570   7.252
 3674POPC   C4B47818  41.054  19.854   7.595
 3675POPC   NC347819   1.276  37.542   5.451
 3675POPC   PO447820   0.956  38.162   5.209
 3675POPC   GL147821   1.012  37.993   5.707
 3675POPC   GL247822   1.003  37.650   5.846
 3675POPC   C1A47823   1.194  38.014   6.151
 3675POPC   D2A47824   1.120  37.928   6.594
 3675POPC   C3A47825   1.412  38.091   6.865
 3675POPC   C4A47826   1.394  37.914   7.254
 3675POPC   C1B47827   1.051  37.528   6.263
 3675POPC   C2B47828   1.099  37.427   6.692
 3675POPC   C3B47829   1.042  37.544   7.115
 3675POPC   C4B47830   1.381  37.409   7.352
 3676POPC   NC347831  13.119  15.513   5.120
 3676POPC   PO447832  12.943  14.945   5.379
 3676POPC   GL147833  12.849  15.169   5.763
 3676POPC   GL247834  13.145  15.214   5.955
 3676POPC   C1A47835  12.748  15.435   6.163
 3676POPC   D2A47836  12.825  15.305   6.577
 3676POPC   C3A47837  12.691  15.497   6.957
 3676POPC   C4A47838  12.883  15.356   7.345
 3676POPC   C1B47839  12.922  14.889   6.196
 3676POPC   C2B47840  12.691  14.800   6.572
 3676POPC   C3B47841  12.839  14.978   6.971
 3676POPC   C4B47842  13.077  14.860   7.321
 3677POPC   NC347843   5.081  32.468   5.555
 3677POPC   PO447844   4.934  31.869   5.501
 3677POPC   GL147845   4.862  32.158   5.896
 3677POPC   GL247846   4.730  32.541   5.926
 3677POPC   C1A47847   5.083  32.350   6.242
 3677POPC   D2A47848   5.259  32.422   6.653
 3677POPC   C3A47849   5.038  32.191   6.999
 3677POPC   C4A47850   5.100  32.171   7.447
 3677POPC   C1B47851   4.588  32.497   6.333
 3677POPC   C2B47852   4.797  32.585   6.745
 3677POPC   C3B47853   4.858  32.597   7.239
 3677POPC   C4B47854   4.810  32.505   7.696
 3678POPC   NC347855  14.375  16.878   5.488
 3678POPC   PO447856  14.866  16.408   5.485
 3678POPC   GL147857  14.631  16.619   5.872
 3678POPC   GL247858  14.247  16.613   5.940
 3678POPC   C1A47859  14.639  16.631   6.355
 3678POPC   D2A47860  14.823  16.689   6.783
 3678POPC   C3A47861  14.600  16.562   7.198
 3678POPC   C4A47862  14.757  16.591   7.639
 3678POPC   C1B47863  14.140  16.683   6.393
 3678POPC   C2B47864  14.276  16.668   6.813
 3678POPC   C3B47865  14.140  16.789   7.220
 3678POPC   C4B47866  13.821  16.663   7.498
 3679POPC   NC347867  10.794  24.681   5.540
 3679POPC   PO447868  10.252  24.313   5.680
 3679POPC   GL147869  10.238  24.638   5.956
 3679POPC   GL247870  10.585  24.666   6.006
 3679POPC   C1A47871  10.054  24.648   6.376
 3679POPC   D2A47872  10.138  24.572   6.837
 3679POPC   C3A47873  10.369  24.273   7.094
 3679POPC   C4A47874  10.513  24.261   7.543
 3679POPC   C1B47875  10.563  24.623   6.472
 3679POPC   C2B47876  10.733  24.817   6.846
 3679POPC   C3B47877  10.950  25.012   7.181
 3679POPC   C4B47878  11.009  24.742   7.550
 3680POPC   NC347879   1.091  19.932   5.481
 3680POPC   PO447880   1.637  19.471   5.437
 3680POPC   GL147881   1.377  19.610   5.782
 3680POPC   GL247882   0.989  19.567   5.873
 3680POPC   C1A47883   1.371  19.737   6.189
 3680POPC   D2A47884   1.095  19.622   6.503
 3680POPC   C3A47885   1.260  19.871   6.832
 3680POPC   C4A47886   1.180  19.992   7.223
 3680POPC   C1B47887   0.908  19.980   6.126
 3680POPC   C2B47888   1.034  20.203   6.527
 3680POPC   C3B47889   0.843  20.224   6.943
 3680POPC   C4B47890   0.786  20.309   7.403
 3681POPC   NC347891  34.822  15.535   5.606
 3681POPC   PO447892  34.834  16.163   5.306
 3681POPC   GL147893  34.598  16.005   5.747
 3681POPC   GL247894  34.666  15.729   6.027
 3681POPC   C1A47895  34.576  16.174   6.202
 3681POPC   D2A47896  34.758  16.087   6.631
 3681POPC   C3A47897  34.563  16.135   7.060
 3681POPC   C4A47898  34.638  16.309   7.476
 3681POPC   C1B47899  34.304  15.725   6.326
 3681POPC   C2B47900  34.231  15.795   6.787
 3681POPC   C3B47901  34.440  15.652   7.160
 3681POPC   C4B47902  34.889  15.568   7.080
 3682POPC   NC347903  26.365   2.623   5.395
 3682POPC   PO447904  25.768   2.854   5.397
 3682POPC   GL147905  25.960   2.789   5.795
 3682POPC   GL247906  26.279   2.939   5.828
 3682POPC   C1A47907  25.862   2.780   6.252
 3682POPC   D2A47908  25.757   3.037   6.607
 3682POPC   C3A47909  25.911   2.848   7.010
 3682POPC   C4A47910  25.838   2.783   7.465
 3682POPC   C1B47911  26.327   2.598   6.128
 3682POPC   C2B47912  26.174   2.418   6.516
 3682POPC   C3B47913  26.316   2.535   6.926
 3682POPC   C4B47914  26.325   2.832   7.306
 3683POPC   NC347915  37.931  33.587   5.270
 3683POPC   PO447916  37.487  33.992   5.543
 3683POPC   GL147917  37.514  33.667   5.829
 3683POPC   GL247918  37.764  33.823   5.971
 3683POPC   C1A47919  37.493  33.463   6.228
 3683POPC   D2A47920  37.401  33.661   6.632
 3683POPC   C3A47921  37.551  33.470   7.015
 3683POPC   C4A47922  37.503  33.754   7.311
 3683POPC   C1B47923  37.850  33.768   6.387
 3683POPC   C2B47924  37.921  33.765   6.821
 3683POPC   C3B47925  37.998  33.789   7.246
 3683POPC   C4B47926  37.858  33.762   7.691
 3684POPC   NC347927   7.184  38.552   5.428
 3684POPC   PO447928   7.634  38.157   5.316
 3684POPC   GL147929   7.482  38.324   5.768
 3684POPC   GL247930   7.486  38.712   5.805
 3684POPC   C1A47931   7.302  38.427   6.195
 3684POPC   D2A47932   7.589  38.356   6.527
 3684POPC   C3A47933   7.570  38.496   6.933
 3684POPC   C4A47934   7.710  38.303   7.329
 3684POPC   C1B47935   7.661  38.799   6.212
 3684POPC   C2B47936   7.479  38.901   6.585
 3684POPC   C3B47937   7.635  39.017   6.959
 3684POPC   C4B47938   7.852  38.777   7.257
 3685POPC   NC347939   2.155  38.822   5.390
 3685POPC   PO447940   1.904  38.211   5.175
 3685POPC   GL147941   1.954  38.363   5.592
 3685POPC   GL247942   2.287  38.459   5.734
 3685POPC   C1A47943   1.876  38.335   6.038
 3685POPC   D2A47944   1.891  38.260   6.501
 3685POPC   C3A47945   1.725  38.570   6.803
 3685POPC   C4A47946   1.884  38.726   7.209
 3685POPC   C1B47947   2.361  38.382   6.195
 3685POPC   C2B47948   2.397  38.197   6.614
 3685POPC   C3B47949   2.162  38.324   6.979
 3685POPC   C4B47950   2.249  38.393   7.402
 3686POPC   NC347951  19.442  41.575   5.166
 3686POPC   PO447952  18.955  41.754   5.617
 3686POPC   GL147953  19.047  41.439   5.920
 3686POPC   GL247954  19.425  41.390   5.997
 3686POPC   C1A47955  19.019  41.178   6.295
 3686POPC   D2A47956  19.222  41.079   6.675
 3686POPC   C3A47957  19.072  41.380   6.974
 3686POPC   C4A47958  19.082  41.439   7.414
 3686POPC   C1B47959  19.275  41.684   6.315
 3686POPC   C2B47960  19.109  41.817   6.704
 3686POPC   C3B47961  19.251  41.842   7.137
 3686POPC   C4B47962  19.233  41.910   7.609
 3687POPC   NC347963  40.948  13.269   5.314
 3687POPC   PO447964  40.440  12.752   5.403
 3687POPC   GL147965  40.715  12.952   5.691
 3687POPC   GL247966  40.934  12.685   5.782
 3687POPC   C1A47967  40.747  13.056   6.150
 3687POPC   D2A47968  40.964  13.184   6.555
 3687POPC   C3A47969  40.969  13.107   7.038
 3687POPC   C4A47970  40.655  13.194   7.396
 3687POPC   C1B47971  40.965  12.597   6.251
 3687POPC   C2B47972  41.040  12.698   6.693
 3687POPC   C3B47973  40.962  12.554   7.081
 3687POPC   C4B47974  40.887  12.743   7.442
 3688POPC   NC347975   5.591  29.192   5.338
 3688POPC   PO447976   6.071  28.762   5.280
 3688POPC   GL147977   5.796  28.839   5.689
 3688POPC   GL247978   5.820  29.181   5.808
 3688POPC   C1A47979   5.771  28.825   6.173
 3688POPC   D2A47980   6.080  28.853   6.547
 3688POPC   C3A47981   5.912  28.919   6.977
 3688POPC   C4A47982   5.903  29.163   7.365
 3688POPC   C1B47983   6.054  29.265   6.211
 3688POPC   C2B47984   5.875  29.328   6.628
 3688POPC   C3B47985   5.592  29.354   6.986
 3688POPC   C4B47986   5.586  29.631   7.306
 3689POPC   NC347987  33.857  23.101   5.688
 3689POPC   PO447988  33.385  22.628   5.490
 3689POPC   GL147989  33.529  22.783   5.872
 3689POPC   GL247990  33.380  23.127   5.840
 3689POPC   C1A47991  33.819  22.856   6.258
 3689POPC   D2A47992  34.070  22.929   6.632
 3689POPC   C3A47993  33.882  22.771   7.015
 3689POPC   C4A47994  34.067  22.508   7.318
 3689POPC   C1B47995  33.451  23.206   6.252
 3689POPC   C2B47996  33.595  23.098   6.664
 3689POPC   C3B47997  33.448  23.057   7.084
 3689POPC   C4B47998  33.483  23.094   7.555
 3690POPC   NC347999  17.692  34.970   5.397
 3690POPC   PO448000  17.229  35.382   5.345
 3690POPC   GL148001  17.512  35.318   5.775
 3690POPC   GL248002  17.895  35.414   5.806
 3690POPC   C1A48003  17.505  35.200   6.262
 3690POPC   D2A48004  17.717  35.055   6.686
 3690POPC   C3A48005  17.558  35.213   7.087
 3690POPC   C4A48006  17.396  35.114   7.504
 3690POPC   C1B48007  17.856  35.554   6.248
 3690POPC   C2B48008  17.594  35.553   6.656
 3690POPC   C3B48009  17.698  35.716   7.086
 3690POPC   C4B48010  17.763  35.502   7.477
 3691POPC   NC348011  44.289   6.904   5.478
 3691POPC   PO448012  43.858   6.340   5.425
 3691POPC   GL148013  43.874   6.436   5.842
 3691POPC   GL248014  43.692   6.747   5.897
 3691POPC   C1A48015  43.697   6.364   6.253
 3691POPC   D2A48016  43.817   6.513   6.663
 3691POPC   C3A48017  43.604   6.439   7.064
 3691POPC   C4A48018  43.901   6.336   7.368
 3691POPC   C1B48019  44.022   6.755   6.222
 3691POPC   C2B48020  44.140   6.918   6.626
 3691POPC   C3B48021  44.009   6.805   7.059
 3691POPC   C4B48022  43.742   6.808   7.410
 3692POPC   NC348023   6.870   1.425   5.404
 3692POPC   PO448024   6.447   0.923   5.281
 3692POPC   GL148025   6.514   1.099   5.716
 3692POPC   GL248026   6.849   1.173   5.832
 3692POPC   C1A48027   6.520   1.019   6.196
 3692POPC   D2A48028   6.458   1.230   6.624
 3692POPC   C3A48029   6.622   1.017   7.007
 3692POPC   C4A48030   6.470   1.016   7.447
 3692POPC   C1B48031   6.803   1.485   6.119
 3692POPC   C2B48032   6.803   1.616   6.534
 3692POPC   C3B48033   6.684   1.617   6.949
 3692POPC   C4B48034   6.771   1.410   7.308
 3693POPC   NC348035  17.446   7.126   5.502
 3693POPC   PO448036  17.688   7.771   5.355
 3693POPC   GL148037  17.709   7.559   5.785
 3693POPC   GL248038  17.446   7.333   5.980
 3693POPC   C1A48039  17.864   7.441   6.210
 3693POPC   D2A48040  17.571   7.452   6.593
 3693POPC   C3A48041  17.722   7.283   7.016
 3693POPC   C4A48042  17.730   7.234   7.489
 3693POPC   C1B48043  17.093   7.171   6.273
 3693POPC   C2B48044  16.924   7.302   6.638
 3693POPC   C3B48045  17.137   7.393   7.003
 3693POPC   C4B48046  17.279   7.154   7.305
 3694POPC   NC348047  10.646  25.405   5.455
 3694POPC   PO448048  10.397  24.806   5.357
 3694POPC   GL148049  10.339  25.099   5.738
 3694POPC   GL248050  10.648  25.172   5.917
 3694POPC   C1A48051  10.287  25.492   6.044
 3694POPC   D2A48052  10.557  25.464   6.435
 3694POPC   C3A48053  10.452  25.507   6.877
 3694POPC   C4A48054  10.590  25.351   7.266
 3694POPC   C1B48055  10.362  25.041   6.253
 3694POPC   C2B48056  10.303  25.038   6.682
 3694POPC   C3B48057  10.225  25.006   7.103
 3694POPC   C4B48058  10.516  24.743   7.321
 3695POPC   NC348059  35.778  24.200   5.464
 3695POPC   PO448060  35.790  24.880   5.495
 3695POPC   GL148061  35.941  24.601   5.807
 3695POPC   GL248062  36.293  24.733   5.839
 3695POPC   C1A48063  35.905  24.403   6.224
 3695POPC   D2A48064  36.169  24.387   6.614
 3695POPC   C3A48065  36.071  24.409   7.027
 3695POPC   C4A48066  35.813  24.758   7.093
 3695POPC   C1B48067  36.441  24.442   6.182
 3695POPC   C2B48068  36.577  24.111   6.518
 3695POPC   C3B48069  36.552  24.060   6.975
 3695POPC   C4B48070  36.434  24.225   7.361
 3696POPC   NC348071  28.108  33.509   5.408
 3696POPC   PO448072  28.510  33.981   5.504
 3696POPC   GL148073  28.368  33.810   5.844
 3696POPC   GL248074  28.479  33.460   5.769
 3696POPC   C1A48075  28.308  33.851   6.279
 3696POPC   D2A48076  28.158  33.762   6.675
 3696POPC   C3A48077  28.350  33.866   7.036
 3696POPC   C4A48078  28.283  34.153   7.401
 3696POPC   C1B48079  28.665  33.497   6.168
 3696POPC   C2B48080  28.544  33.428   6.577
 3696POPC   C3B48081  28.644  33.411   6.992
 3696POPC   C4B48082  28.585  33.586   7.393
 3697POPC   NC348083  11.800   5.135   5.484
 3697POPC   PO448084  12.366   5.372   5.460
 3697POPC   GL148085  12.244   5.108   5.764
 3697POPC   GL248086  12.046   5.410   5.875
 3697POPC   C1A48087  12.065   5.009   6.182
 3697POPC   D2A48088  12.053   5.256   6.554
 3697POPC   C3A48089  12.071   5.011   6.949
 3697POPC   C4A48090  12.456   4.941   7.177
 3697POPC   C1B48091  11.749   5.541   6.194
 3697POPC   C2B48092  11.562   5.451   6.601
 3697POPC   C3B48093  11.778   5.426   6.970
 3697POPC   C4B48094  11.753   5.208   7.319
 3698POPC   NC348095  26.331  33.972   5.323
 3698POPC   PO448096  25.686  33.847   5.482
 3698POPC   GL148097  25.965  34.093   5.744
 3698POPC   GL248098  25.695  34.126   5.965
 3698POPC   C1A48099  26.145  34.154   6.195
 3698POPC   D2A48100  26.194  33.904   6.595
 3698POPC   C3A48101  26.172  34.032   7.034
 3698POPC   C4A48102  26.208  33.865   7.446
 3698POPC   C1B48103  25.695  33.943   6.395
 3698POPC   C2B48104  25.696  33.911   6.870
 3698POPC   C3B48105  25.796  33.627   7.236
 3698POPC   C4B48106  25.888  33.520   7.671
 3699POPC   NC348107   9.485   5.919   5.586
 3699POPC   PO448108   8.840   5.495   5.514
 3699POPC   GL148109   8.866   5.730   5.911
 3699POPC   GL248110   8.742   6.091   5.968
 3699POPC   C1A48111   8.763   5.732   6.358
 3699POPC   D2A48112   8.931   5.988   6.704
 3699POPC   C3A48113   9.016   5.727   7.084
 3699POPC   C4A48114   8.715   5.678   7.436
 3699POPC   C1B48115   9.150   6.046   6.224
 3699POPC   C2B48116   9.426   6.091   6.591
 3699POPC   C3B48117   9.274   6.197   7.026
 3699POPC   C4B48118   8.897   6.180   7.290
 3700POPC   NC348119  34.471  28.901   5.443
 3700POPC   PO448120  34.960  29.382   5.536
 3700POPC   GL148121  34.597  29.274   5.794
 3700POPC   GL248122  34.773  28.962   5.831
 3700POPC   C1A48123  34.348  29.221   6.201
 3700POPC   D2A48124  34.097  29.335   6.585
 3700POPC   C3A48125  34.226  29.241   7.018
 3700POPC   C4A48126  34.463  29.005   7.298
 3700POPC   C1B48127  34.787  28.792   6.184
 3700POPC   C2B48128  34.561  28.864   6.538
 3700POPC   C3B48129  34.741  28.872   6.914
 3700POPC   C4B48130  34.966  28.904   7.287
 3701POPC   NC348131  25.988  18.146   5.617
 3701POPC   PO448132  26.285  18.699   5.374
 3701POPC   GL148133  26.246  18.559   5.782
 3701POPC   GL248134  25.936  18.708   5.890
 3701POPC   C1A48135  26.356  18.429   6.187
 3701POPC   D2A48136  26.236  18.285   6.581
 3701POPC   C3A48137  26.088  18.567   6.875
 3701POPC   C4A48138  26.189  18.358   7.252
 3701POPC   C1B48139  25.830  18.385   6.212
 3701POPC   C2B48140  25.783  18.052   6.510
 3701POPC   C3B48141  25.723  18.189   6.915
 3701POPC   C4B48142  25.753  18.099   7.322
 3702POPC   NC348143   0.074  13.913   5.485
 3702POPC   PO448144   0.354  13.307   5.390
 3702POPC   GL148145   0.528  13.491   5.778
 3702POPC   GL248146   0.238  13.625   5.884
 3702POPC   C1A48147   0.607  13.584   6.249
 3702POPC   D2A48148   0.783  13.923   6.560
 3702POPC   C3A48149   0.769  13.760   7.003
 3702POPC   C4A48150   0.450  13.488   7.223
 3702POPC   C1B48151   0.198  13.947   6.185
 3702POPC   C2B48152   0.260  13.783   6.582
 3702POPC   C3B48153   0.284  13.917   6.960
 3702POPC   C4B48154  44.945  13.909   7.127
 3703POPC   NC348155  37.450  38.611   5.132
 3703POPC   PO448156  37.857  38.178   5.493
 3703POPC   GL148157  37.590  38.347   5.864
 3703POPC   GL248158  37.376  38.669   5.801
 3703POPC   C1A48159  37.522  38.374   6.338
 3703POPC   D2A48160  37.514  38.436   6.772
 3703POPC   C3A48161  37.775  38.209   7.061
 3703POPC   C4A48162  37.364  38.275   7.270
 3703POPC   C1B48163  37.683  38.791   6.125
 3703POPC   C2B48164  37.804  38.799   6.527
 3703POPC   C3B48165  37.925  38.707   6.918
 3703POPC   C4B48166  37.671  38.667   7.245
 3704POPC   NC348167  20.273  35.556   5.625
 3704POPC   PO448168  20.672  35.093   5.282
 3704POPC   GL148169  20.727  35.270   5.713
 3704POPC   GL248170  20.464  35.161   5.921
 3704POPC   C1A48171  20.775  35.494   6.144
 3704POPC   D2A48172  20.659  35.562   6.604
 3704POPC   C3A48173  20.578  35.277   6.959
 3704POPC   C4A48174  20.635  35.592   7.286
 3704POPC   C1B48175  20.258  35.450   6.290
 3704POPC   C2B48176  20.064  35.553   6.726
 3704POPC   C3B48177  20.147  35.471   7.154
 3704POPC   C4B48178  20.242  35.419   7.563
 3705POPC   NC348179  19.038  40.572   5.526
 3705POPC   PO448180  19.470  41.042   5.295
 3705POPC   GL148181  19.221  40.988   5.749
 3705POPC   GL248182  18.901  40.906   5.891
 3705POPC   C1A48183  19.246  40.686   6.168
 3705POPC   D2A48184  19.474  40.519   6.541
 3705POPC   C3A48185  19.347  40.640   6.947
 3705POPC   C4A48186  19.272  40.972   7.211
 3705POPC   C1B48187  18.760  40.691   6.262
 3705POPC   C2B48188  18.953  40.617   6.622
 3705POPC   C3B48189  18.831  40.710   7.015
 3705POPC   C4B48190  18.766  41.066   7.250
 3706POPC   NC348191  18.139  40.777   5.049
 3706POPC   PO448192  18.519  40.987   5.600
 3706POPC   GL148193  18.386  40.950   5.987
 3706POPC   GL248194  18.382  40.615   5.947
 3706POPC   C1A48195  18.486  41.097   6.373
 3706POPC   D2A48196  18.641  41.137   6.764
 3706POPC   C3A48197  18.285  41.161   7.053
 3706POPC   C4A48198  18.078  40.998   7.386
 3706POPC   C1B48199  18.244  40.596   6.356
 3706POPC   C2B48200  18.155  40.808   6.708
 3706POPC   C3B48201  18.321  40.661   7.093
 3706POPC   C4B48202  18.535  40.341   7.262
 3707POPC   NC348203  39.492  44.029   5.481
 3707POPC   PO448204  38.931  43.815   5.590
 3707POPC   GL148205  39.174  44.042   5.869
 3707POPC   GL248206  38.969  44.255   5.988
 3707POPC   C1A48207  39.307  43.994   6.287
 3707POPC   D2A48208  39.223  43.716   6.606
 3707POPC   C3A48209  39.332  43.923   6.953
 3707POPC   C4A48210  39.110  44.194   7.206
 3707POPC   C1B48211  38.843  43.792   6.224
 3707POPC   C2B48212  38.709  43.635   6.638
 3707POPC   C3B48213  38.907  43.676   7.054
 3707POPC   C4B48214  38.880  43.809   7.492
 3708POPC   NC348215  23.310  37.150   5.522
 3708POPC   PO448216  23.163  36.512   5.420
 3708POPC   GL148217  22.986  36.711   5.793
 3708POPC   GL248218  22.709  36.525   5.983
 3708POPC   C1A48219  23.090  36.862   6.220
 3708POPC   D2A48220  22.829  36.912   6.592
 3708POPC   C3A48221  22.947  37.161   6.964
 3708POPC   C4A48222  22.739  37.156   7.362
 3708POPC   C1B48223  23.129  36.351   6.135
 3708POPC   C2B48224  23.297  36.430   6.547
 3708POPC   C3B48225  23.099  36.580   6.937
 3708POPC   C4B48226  23.266  36.846   7.243
 3709POPC   NC348227  40.069   2.673   5.429
 3709POPC   PO448228  39.634   3.222   5.469
 3709POPC   GL148229  39.929   2.994   5.789
 3709POPC   GL248230  39.855   2.601   5.881
 3709POPC   C1A48231  40.209   2.902   6.151
 3709POPC   D2A48232  40.248   2.657   6.561
 3709POPC   C3A48233  40.167   2.879   6.935
 3709POPC   C4A48234  40.192   2.798   7.338
 3709POPC   C1B48235  39.789   2.645   6.327
 3709POPC   C2B48236  39.807   2.425   6.731
 3709POPC   C3B48237  39.785   2.531   7.157
 3709POPC   C4B48238  39.703   2.939   7.251
 3710POPC   NC348239  40.832   2.469   5.449
 3710POPC   PO448240  40.408   3.024   5.378
 3710POPC   GL148241  40.557   2.780   5.775
 3710POPC   GL248242  40.937   2.697   5.874
 3710POPC   C1A48243  40.578   2.545   6.195
 3710POPC   D2A48244  40.876   2.669   6.543
 3710POPC   C3A48245  40.663   2.676   6.916
 3710POPC   C4A48246  40.653   2.951   7.255
 3710POPC   C1B48247  41.215   2.831   6.193
 3710POPC   C2B48248  41.422   2.764   6.586
 3710POPC   C3B48249  41.246   2.887   7.003
 3710POPC   C4B48250  41.029   2.613   7.282
 3711POPC   NC348251  43.405   6.386   5.394
 3711POPC   PO448252  43.045   5.762   5.351
 3711POPC   GL148253  43.151   5.808   5.785
 3711POPC   GL248254  42.930   5.534   5.914
 3711POPC   C1A48255  43.270   6.086   6.164
 3711POPC   D2A48256  43.297   5.836   6.534
 3711POPC   C3A48257  43.399   5.965   6.958
 3711POPC   C4A48258  43.219   6.012   7.356
 3711POPC   C1B48259  42.801   5.890   6.170
 3711POPC   C2B48260  42.840   6.011   6.595
 3711POPC   C3B48261  42.933   5.760   6.958
 3711POPC   C4B48262  42.710   6.042   7.175
 3712POPC   NC348263  37.168  37.039   5.362
 3712POPC   PO448264  37.512  36.503   5.361
 3712POPC   GL148265  37.538  36.862   5.714
 3712POPC   GL248266  37.477  37.257   5.723
 3712POPC   C1A48267  37.852  37.061   6.004
 3712POPC   D2A48268  38.033  37.036   6.414
 3712POPC   C3A48269  37.982  36.997   6.878
 3712POPC   C4A48270  37.865  36.892   7.314
 3712POPC   C1B48271  37.358  37.184   6.162
 3712POPC   C2B48272  37.516  37.108   6.580
 3712POPC   C3B48273  37.487  36.929   6.991
 3712POPC   C4B48274  37.397  37.113   7.391
 3713POPC   NC348275  33.336  24.042   5.180
 3713POPC   PO448276  33.608  23.473   5.519
 3713POPC   GL148277  33.862  23.669   5.800
 3713POPC   GL248278  33.572  23.620   6.008
 3713POPC   C1A48279  33.871  23.996   6.153
 3713POPC   D2A48280  33.523  24.150   6.428
 3713POPC   C3A48281  33.616  24.017   6.845
 3713POPC   C4A48282  33.945  23.813   7.077
 3713POPC   C1B48283  33.887  23.446   6.268
 3713POPC   C2B48284  33.912  23.510   6.670
 3713POPC   C3B48285  33.917  23.281   7.024
 3713POPC   C4B48286  33.799  23.455   7.392
 3714POPC   NC348287  23.888  42.789   5.461
 3714POPC   PO448288  23.418  42.324   5.463
 3714POPC   GL148289  23.663  42.325   5.816
 3714POPC   GL248290  23.594  42.679   5.851
 3714POPC   C1A48291  23.644  42.173   6.250
 3714POPC   D2A48292  23.510  42.327   6.634
 3714POPC   C3A48293  23.605  42.054   6.944
 3714POPC   C4A48294  23.492  42.191   7.347
 3714POPC   C1B48295  23.884  42.621   6.201
 3714POPC   C2B48296  23.999  42.413   6.619
 3714POPC   C3B48297  23.905  42.424   7.097
 3714POPC   C4B48298  24.078  42.393   7.538
 3715POPC   NC348299  22.903   0.136   5.450
 3715POPC   PO448300  22.893   0.796   5.462
 3715POPC   GL148301  22.887   0.527   5.809
 3715POPC   GL248302  23.229   0.375   5.838
 3715POPC   C1A48303  22.938   0.491   6.249
 3715POPC   D2A48304  23.133   0.432   6.636
 3715POPC   C3A48305  22.865   0.557   6.963
 3715POPC   C4A48306  22.908   0.765   7.348
 3715POPC   C1B48307  23.373   0.157   6.230
 3715POPC   C2B48308  23.223  44.946   6.646
 3715POPC   C3B48309  23.249   0.165   7.071
 3715POPC   C4B48310  22.897   0.212   7.354
 3716POPC   NC348311  38.561  12.362   5.514
 3716POPC   PO448312  38.284  11.731   5.518
 3716POPC   GL148313  38.356  11.993   5.851
 3716POPC   GL248314  38.688  12.039   5.945
 3716POPC   C1A48315  38.326  11.960   6.305
 3716POPC   D2A48316  38.110  11.810   6.666
 3716POPC   C3A48317  38.235  11.900   7.090
 3716POPC   C4A48318  38.594  11.810   7.339
 3716POPC   C1B48319  38.823  12.047   6.385
 3716POPC   C2B48320  38.709  12.011   6.830
 3716POPC   C3B48321  38.583  12.326   7.152
 3716POPC   C4B48322  38.611  12.528   7.573
 3717POPC   NC348323  31.968  28.083   5.409
 3717POPC   PO448324  32.627  28.323   5.248
 3717POPC   GL148325  32.405  28.379   5.693
 3717POPC   GL248326  32.115  28.537   5.759
 3717POPC   C1A48327  32.460  28.443   6.180
 3717POPC   D2A48328  32.610  28.231   6.594
 3717POPC   C3A48329  32.533  28.417   7.009
 3717POPC   C4A48330  32.473  28.403   7.469
 3717POPC   C1B48331  31.931  28.483   6.208
 3717POPC   C2B48332  32.138  28.391   6.617
 3717POPC   C3B48333  32.098  28.154   7.026
 3717POPC   C4B48334  31.983  28.412   7.391
 3718POPC   NC348335  21.330   5.496   5.424
 3718POPC   PO448336  21.603   6.155   5.250
 3718POPC   GL148337  21.583   5.929   5.683
 3718POPC   GL248338  21.252   5.818   5.824
 3718POPC   C1A48339  21.641   6.015   6.140
 3718POPC   D2A48340  21.461   5.903   6.553
 3718POPC   C3A48341  21.627   6.069   6.937
 3718POPC   C4A48342  21.545   5.870   7.323
 3718POPC   C1B48343  20.907   5.701   6.118
 3718POPC   C2B48344  20.940   5.746   6.524
 3718POPC   C3B48345  20.822   5.769   6.928
 3718POPC   C4B48346  21.042   5.717   7.304
 3719POPC   NC348347  19.221  29.193   5.656
 3719POPC   PO448348  19.854  29.145   5.446
 3719POPC   GL148349  19.861  29.293   5.829
 3719POPC   GL248350  20.051  29.009   5.888
 3719POPC   C1A48351  19.980  29.373   6.256
 3719POPC   D2A48352  20.143  29.357   6.663
 3719POPC   C3A48353  19.777  29.305   6.873
 3719POPC   C4A48354  19.674  29.273   7.259
 3719POPC   C1B48355  19.761  28.905   6.207
 3719POPC   C2B48356  19.923  28.866   6.615
 3719POPC   C3B48357  19.720  28.805   7.009
 3719POPC   C4B48358  19.805  28.779   7.409
 3720POPC   NC348359  30.611   6.971   5.466
 3720POPC   PO448360  30.399   6.413   5.319
 3720POPC   GL148361  30.596   6.480   5.781
 3720POPC   GL248362  30.715   6.792   5.924
 3720POPC   C1A48363  30.579   6.442   6.277
 3720POPC   D2A48364  30.636   6.625   6.679
 3720POPC   C3A48365  30.605   6.415   7.038
 3720POPC   C4A48366  30.832   6.554   7.353
 3720POPC   C1B48367  30.662   6.997   6.337
 3720POPC   C2B48368  30.798   7.110   6.766
 3720POPC   C3B48369  30.679   6.999   7.169
 3720POPC   C4B48370  30.492   7.053   7.557
 3721POPC   NC348371  17.716  38.654   5.451
 3721POPC   PO448372  17.057  38.865   5.542
 3721POPC   GL148373  17.358  38.725   5.829
 3721POPC   GL248374  17.454  38.398   5.887
 3721POPC   C1A48375  17.574  38.775   6.216
 3721POPC   D2A48376  17.751  38.899   6.598
 3721POPC   C3A48377  17.513  38.741   6.952
 3721POPC   C4A48378  17.767  38.547   7.233
 3721POPC   C1B48379  17.288  38.131   6.208
 3721POPC   C2B48380  17.459  38.027   6.613
 3721POPC   C3B48381  17.473  38.205   7.017
 3721POPC   C4B48382  17.616  38.119   7.469
 3722POPC   NC348383  21.241  20.208   5.615
 3722POPC   PO448384  21.554  20.829   5.445
 3722POPC   GL148385  21.530  20.679   5.850
 3722POPC   GL248386  21.171  20.659   5.886
 3722POPC   C1A48387  21.463  20.621   6.285
 3722POPC   D2A48388  21.465  20.396   6.630
 3722POPC   C3A48389  21.496  20.634   6.981
 3722POPC   C4A48390  21.393  20.634   7.361
 3722POPC   C1B48391  20.967  20.574   6.325
 3722POPC   C2B48392  21.118  20.810   6.684
 3722POPC   C3B48393  21.062  20.968   7.114
 3722POPC   C4B48394  21.091  20.933   7.593
 3723POPC   NC348395  24.794   0.673   5.396
 3723POPC   PO448396  25.431   0.391   5.309
 3723POPC   GL148397  25.225   0.307   5.699
 3723POPC   GL248398  25.165   0.649   5.774
 3723POPC   C1A48399  25.082   0.222   6.116
 3723POPC   D2A48400  25.142   0.446   6.505
 3723POPC   C3A48401  24.981   0.382   6.916
 3723POPC   C4A48402  25.124   0.487   7.332
 3723POPC   C1B48403  25.268   0.839   6.175
 3723POPC   C2B48404  25.465   0.834   6.594
 3723POPC   C3B48405  25.229   0.870   7.000
 3723POPC   C4B48406  25.529   0.845   7.344
 3724POPC   NC348407  30.110  13.449   5.485
 3724POPC   PO448408  29.482  13.407   5.462
 3724POPC   GL148409  29.699  13.676   5.748
 3724POPC   GL248410  29.449  13.871   5.862
 3724POPC   C1A48411  30.032  13.847   6.046
 3724POPC   D2A48412  30.247  13.665   6.441
 3724POPC   C3A48413  30.093  13.775   6.840
 3724POPC   C4A48414  29.883  13.791   7.234
 3724POPC   C1B48415  29.591  13.810   6.292
 3724POPC   C2B48416  29.619  13.953   6.730
 3724POPC   C3B48417  29.411  13.799   7.086
 3724POPC   C4B48418  29.447  13.810   7.550
 3725POPC   NC348419  21.669  14.014   5.534
 3725POPC   PO448420  21.199  14.233   5.135
 3725POPC   GL148421  21.185  14.282   5.647
 3725POPC   GL248422  21.446  14.274   5.924
 3725POPC   C1A48423  21.001  14.479   6.047
 3725POPC   D2A48424  20.971  14.360   6.476
 3725POPC   C3A48425  21.222  14.400   6.851
 3725POPC   C4A48426  21.320  14.484   7.251
 3725POPC   C1B48427  21.666  14.053   6.263
 3725POPC   C2B48428  21.807  14.156   6.673
 3725POPC   C3B48429  21.726  14.520   6.896
 3725POPC   C4B48430  21.837  14.516   7.307
 3726POPC   NC348431  12.656  30.512   5.303
 3726POPC   PO448432  13.213  30.963   5.557
 3726POPC   GL148433  12.978  30.688   5.876
 3726POPC   GL248434  12.700  30.473   5.803
 3726POPC   C1A48435  12.856  30.728   6.288
 3726POPC   D2A48436  13.137  30.717   6.605
 3726POPC   C3A48437  13.030  30.688   7.006
 3726POPC   C4A48438  13.075  31.043   7.267
 3726POPC   C1B48439  12.642  30.270   6.206
 3726POPC   C2B48440  12.762  30.296   6.627
 3726POPC   C3B48441  12.517  30.396   6.967
 3726POPC   C4B48442  12.578  30.729   7.226
 3727POPC   NC348443   7.691  37.779   5.053
 3727POPC   PO448444   7.199  37.277   5.176
 3727POPC   GL148445   7.227  37.410   5.726
 3727POPC   GL248446   7.431  37.782   5.779
 3727POPC   C1A48447   7.561  37.451   6.119
 3727POPC   D2A48448   7.708  37.671   6.513
 3727POPC   C3A48449   7.652  37.550   6.951
 3727POPC   C4A48450   7.570  37.727   7.394
 3727POPC   C1B48451   7.394  37.935   6.182
 3727POPC   C2B48452   7.246  37.961   6.597
 3727POPC   C3B48453   7.400  38.026   7.011
 3727POPC   C4B48454   7.207  38.152   7.399
 3728POPC   NC348455   3.765   4.540   5.320
 3728POPC   PO448456   3.263   4.044   5.508
 3728POPC   GL148457   3.593   4.240   5.759
 3728POPC   GL248458   3.839   4.025   5.977
 3728POPC   C1A48459   3.540   4.368   6.182
 3728POPC   D2A48460   3.759   4.144   6.503
 3728POPC   C3A48461   3.556   4.205   6.869
 3728POPC   C4A48462   3.640   4.393   7.239
 3728POPC   C1B48463   3.438   3.862   6.157
 3728POPC   C2B48464   3.137   3.866   6.505
 3728POPC   C3B48465   3.203   3.859   6.947
 3728POPC   C4B48466   3.250   4.096   7.314
 3729POPC   NC348467  12.246  14.069   5.377
 3729POPC   PO448468  12.093  14.759   5.444
 3729POPC   GL148469  11.946  14.377   5.679
 3729POPC   GL248470  12.255  14.310   5.828
 3729POPC   C1A48471  11.822  14.135   6.064
 3729POPC   D2A48472  11.883  14.232   6.507
 3729POPC   C3A48473  11.718  14.457   6.875
 3729POPC   C4A48474  11.756  14.356   7.333
 3729POPC   C1B48475  12.118  14.605   6.157
 3729POPC   C2B48476  12.075  14.743   6.598
 3729POPC   C3B48477  12.221  14.604   7.034
 3729POPC   C4B48478  12.566  14.728   7.318
 3730POPC   NC348479  43.266  40.021   5.345
 3730POPC   PO448480  43.560  39.435   5.521
 3730POPC   GL148481  43.307  39.726   5.765
 3730POPC   GL248482  43.342  40.149   5.831
 3730POPC   C1A48483  43.054  39.798   6.108
 3730POPC   D2A48484  43.236  39.901   6.481
 3730POPC   C3A48485  43.011  39.867   6.853
 3730POPC   C4A48486  43.106  39.923   7.271
 3730POPC   C1B48487  43.072  40.306   6.172
 3730POPC   C2B48488  42.780  40.208   6.519
 3730POPC   C3B48489  42.781  40.320   6.970
 3730POPC   C4B48490  42.722  40.721   7.197
 3731POPC   NC348491  36.543  34.572   5.425
 3731POPC   PO448492  37.138  34.357   5.269
 3731POPC   GL148493  36.999  34.494   5.698
 3731POPC   GL248494  37.176  34.796   5.799
 3731POPC   C1A48495  36.726  34.674   6.062
 3731POPC   D2A48496  36.686  34.436   6.461
 3731POPC   C3A48497  36.789  34.582   6.871
 3731POPC   C4A48498  36.791  34.679   7.311
 3731POPC   C1B48499  37.182  34.560   6.217
 3731POPC   C2B48500  37.313  34.537   6.651
 3731POPC   C3B48501  37.273  34.589   7.069
 3731POPC   C4B48502  37.243  34.276   7.362
 3732POPC   NC348503  20.607  34.040   5.437
 3732POPC   PO448504  20.783  33.396   5.359
 3732POPC   GL148505  20.841  33.672   5.753
 3732POPC   GL248506  20.783  34.050   5.897
 3732POPC   C1A48507  20.894  33.668   6.200
 3732POPC   D2A48508  20.657  33.627   6.562
 3732POPC   C3A48509  20.754  33.801   6.924
 3732POPC   C4A48510  21.020  33.658   7.224
 3732POPC   C1B48511  20.620  34.102   6.316
 3732POPC   C2B48512  20.316  34.030   6.656
 3732POPC   C3B48513  20.402  34.158   7.082
 3732POPC   C4B48514  20.773  34.088   7.353
 3733POPC   NC348515  27.196  25.493   5.529
 3733POPC   PO448516  27.822  25.322   5.388
 3733POPC   GL148517  27.747  25.237   5.840
 3733POPC   GL248518  27.400  25.132   5.928
 3733POPC   C1A48519  27.670  25.428   6.251
 3733POPC   D2A48520  27.401  25.425   6.610
 3733POPC   C3A48521  27.629  25.604   6.940
 3733POPC   C4A48522  27.507  25.615   7.326
 3733POPC   C1B48523  27.440  24.975   6.369
 3733POPC   C2B48524  27.796  25.128   6.660
 3733POPC   C3B48525  27.788  25.130   7.097
 3733POPC   C4B48526  27.480  24.888   7.332
 3734POPC   NC348527   6.829  18.044   5.393
 3734POPC   PO448528   6.669  18.679   5.278
 3734POPC   GL148529   6.689  18.461   5.677
 3734POPC   GL248530   6.468  18.654   5.820
 3734POPC   C1A48531   6.635  18.168   6.048
 3734POPC   D2A48532   6.491  18.115   6.513
 3734POPC   C3A48533   6.706  18.201   6.921
 3734POPC   C4A48534   6.662  18.075   7.349
 3734POPC   C1B48535   6.701  18.643   6.191
 3734POPC   C2B48536   6.827  18.585   6.592
 3734POPC   C3B48537   6.717  18.714   6.985
 3734POPC   C4B48538   6.815  18.580   7.367
 3735POPC   NC348539  36.169  16.518   5.283
 3735POPC   PO448540  36.260  17.080   5.652
 3735POPC   GL148541  35.962  16.763   5.784
 3735POPC   GL248542  35.982  16.409   5.746
 3735POPC   C1A48543  35.776  16.824   6.192
 3735POPC   D2A48544  35.863  17.083   6.579
 3735POPC   C3A48545  35.831  16.930   7.004
 3735POPC   C4A48546  35.907  17.135   7.390
 3735POPC   C1B48547  36.308  16.514   6.054
 3735POPC   C2B48548  36.212  16.669   6.453
 3735POPC   C3B48549  36.340  16.637   6.869
 3735POPC   C4B48550  36.317  16.889   7.227
 3736POPC   NC348551  37.941   5.708   5.248
 3736POPC   PO448552  38.623   5.669   5.444
 3736POPC   GL148553  38.490   5.823   5.835
 3736POPC   GL248554  38.358   5.500   5.867
 3736POPC   C1A48555  38.606   5.763   6.290
 3736POPC   D2A48556  38.532   6.047   6.650
 3736POPC   C3A48557  38.771   6.013   7.017
 3736POPC   C4A48558  38.839   5.889   7.432
 3736POPC   C1B48559  38.108   5.690   6.197
 3736POPC   C2B48560  38.169   5.651   6.621
 3736POPC   C3B48561  38.467   5.616   6.936
 3736POPC   C4B48562  38.376   5.696   7.378
 3737POPC   NC348563  32.987  26.359   5.277
 3737POPC   PO448564  33.351  25.867   5.087
 3737POPC   GL148565  32.946  26.011   5.616
 3737POPC   GL248566  32.813  26.342   5.785
 3737POPC   C1A48567  32.972  25.846   6.079
 3737POPC   D2A48568  33.252  25.869   6.467
 3737POPC   C3A48569  33.152  25.686   6.890
 3737POPC   C4A48570  32.911  25.797   7.251
 3737POPC   C1B48571  33.131  26.322   6.127
 3737POPC   C2B48572  33.235  26.422   6.560
 3737POPC   C3B48573  33.410  26.390   6.971
 3737POPC   C4B48574  33.124  26.249   7.287
 3738POPC   NC348575   8.504  25.180   5.129
 3738POPC   PO448576   7.886  25.496   5.440
 3738POPC   GL148577   8.057  25.238   5.763
 3738POPC   GL248578   8.372  25.138   5.639
 3738POPC   C1A48579   7.932  25.108   6.209
 3738POPC   D2A48580   7.737  25.038   6.637
 3738POPC   C3A48581   7.939  25.208   7.017
 3738POPC   C4A48582   7.999  25.077   7.463
 3738POPC   C1B48583   8.440  25.078   6.083
 3738POPC   C2B48584   8.579  25.027   6.518
 3738POPC   C3B48585   8.410  25.011   6.924
 3738POPC   C4B48586   8.377  25.341   7.234
 3739POPC   NC348587   9.519  38.179   5.544
 3739POPC   PO448588  10.113  38.359   5.470
 3739POPC   GL148589   9.909  38.398   5.823
 3739POPC   GL248590   9.599  38.563   5.910
 3739POPC   C1A48591  10.034  38.298   6.199
 3739POPC   D2A48592   9.770  38.384   6.517
 3739POPC   C3A48593   9.899  38.425   6.934
 3739POPC   C4A48594   9.639  38.583   7.266
 3739POPC   C1B48595   9.876  38.780   6.177
 3739POPC   C2B48596  10.056  38.808   6.568
 3739POPC   C3B48597   9.931  38.921   6.928
 3739POPC   C4B48598  10.055  38.874   7.297
 3740POPC   NC348599   1.425  21.485   5.176
 3740POPC   PO448600   2.038  21.296   5.475
 3740POPC   GL148601   2.215  21.333   5.903
 3740POPC   GL248602   1.971  21.570   6.022
 3740POPC   C1A48603   2.179  21.312   6.391
 3740POPC   D2A48604   1.860  21.571   6.581
 3740POPC   C3A48605   1.979  21.619   6.985
 3740POPC   C4A48606   2.186  21.355   7.279
 3740POPC   C1B48607   1.688  21.240   6.214
 3740POPC   C2B48608   1.548  20.998   6.555
 3740POPC   C3B48609   1.766  21.154   6.881
 3740POPC   C4B48610   1.683  21.311   7.278
 3741POPC   NC348611  28.741  30.920   5.222
 3741POPC   PO448612  29.306  30.500   5.355
 3741POPC   GL148613  29.240  30.684   5.772
 3741POPC   GL248614  29.426  30.435   5.872
 3741POPC   C1A48615  29.081  30.900   6.155
 3741POPC   D2A48616  29.214  30.950   6.590
 3741POPC   C3A48617  28.974  30.773   6.948
 3741POPC   C4A48618  29.045  30.899   7.378
 3741POPC   C1B48619  29.404  30.545   6.292
 3741POPC   C2B48620  29.294  30.422   6.671
 3741POPC   C3B48621  29.404  30.538   7.048
 3741POPC   C4B48622  29.502  30.322   7.375
 3742POPC   NC348623   5.127  23.820   5.396
 3742POPC   PO448624   4.414  23.780   5.317
 3742POPC   GL148625   4.709  23.704   5.764
 3742POPC   GL248626   5.081  23.635   5.847
 3742POPC   C1A48627   4.880  23.783   6.265
 3742POPC   D2A48628   5.125  23.957   6.642
 3742POPC   C3A48629   4.905  23.876   7.070
 3742POPC   C4A48630   4.916  23.590   7.467
 3742POPC   C1B48631   5.363  23.613   6.219
 3742POPC   C2B48632   5.458  23.517   6.642
 3742POPC   C3B48633   5.377  23.697   7.018
 3742POPC   C4B48634   5.387  23.556   7.390
 3743POPC   NC348635   7.590  28.227   5.501
 3743POPC   PO448636   7.070  28.532   5.686
 3743POPC   GL148637   7.343  28.307   5.949
 3743POPC   GL248638   7.179  28.018   5.816
 3743POPC   C1A48639   7.446  28.141   6.365
 3743POPC   D2A48640   7.614  28.407   6.696
 3743POPC   C3A48641   7.569  28.474   7.115
 3743POPC   C4A48642   7.788  28.181   7.366
 3743POPC   C1B48643   7.195  27.731   6.167
 3743POPC   C2B48644   7.065  27.747   6.577
 3743POPC   C3B48645   7.288  28.010   6.858
 3743POPC   C4B48646   7.287  28.083   7.290
 3744POPC   NC348647   0.673  35.467   5.284
 3744POPC   PO448648   0.159  35.096   5.498
 3744POPC   GL148649   0.265  35.341   5.839
 3744POPC   GL248650   0.607  35.413   5.786
 3744POPC   C1A48651   0.145  35.393   6.293
 3744POPC   D2A48652   0.566  35.341   6.512
 3744POPC   C3A48653   0.601  35.236   6.952
 3744POPC   C4A48654   0.198  35.170   7.156
 3744POPC   C1B48655   0.487  35.706   6.097
 3744POPC   C2B48656   0.385  35.811   6.503
 3744POPC   C3B48657   0.310  35.649   6.908
 3744POPC   C4B48658   0.611  35.750   7.242
 3745POPC   NC348659  13.339  16.792   5.443
 3745POPC   PO448660  13.930  16.889   5.394
 3745POPC   GL148661  13.742  16.820   5.783
 3745POPC   GL248662  13.487  17.094   5.837
 3745POPC   C1A48663  13.719  16.532   6.138
 3745POPC   D2A48664  13.554  16.623   6.543
 3745POPC   C3A48665  13.603  16.589   6.998
 3745POPC   C4A48666  13.323  16.517   7.354
 3745POPC   C1B48667  13.274  16.829   6.125
 3745POPC   C2B48668  13.120  16.878   6.517
 3745POPC   C3B48669  13.284  17.019   6.888
 3745POPC   C4B48670  13.078  17.127   7.246
 3746POPC   NC348671  19.065  27.385   5.323
 3746POPC   PO448672  18.837  27.938   5.403
 3746POPC   GL148673  18.881  27.657   5.773
 3746POPC   GL248674  18.880  27.280   5.804
 3746POPC   C1A48675  18.717  27.676   6.217
 3746POPC   D2A48676  18.632  27.575   6.659
 3746POPC   C3A48677  18.939  27.738   6.974
 3746POPC   C4A48678  18.854  27.559   7.356
 3746POPC   C1B48679  19.133  27.349   6.160
 3746POPC   C2B48680  19.188  27.538   6.554
 3746POPC   C3B48681  19.230  27.344   6.946
 3746POPC   C4B48682  19.233  27.236   7.350
 3747POPC   NC348683  26.815  27.201   5.554
 3747POPC   PO448684  26.637  26.492   5.377
 3747POPC   GL148685  26.661  26.742   5.763
 3747POPC   GL248686  26.999  26.805   5.826
 3747POPC   C1A48687  26.638  26.838   6.215
 3747POPC   D2A48688  26.926  26.671   6.539
 3747POPC   C3A48689  26.829  26.778   6.956
 3747POPC   C4A48690  26.742  26.602   7.327
 3747POPC   C1B48691  27.128  27.039   6.223
 3747POPC   C2B48692  27.251  27.057   6.681
 3747POPC   C3B48693  27.296  26.943   7.126
 3747POPC   C4B48694  26.999  26.993   7.472
 3748POPC   NC348695  23.065  33.396   5.578
 3748POPC   PO448696  22.755  32.750   5.560
 3748POPC   GL148697  22.937  32.977   5.879
 3748POPC   GL248698  22.761  33.297   5.973
 3748POPC   C1A48699  22.863  32.880   6.307
 3748POPC   D2A48700  23.003  32.620   6.606
 3748POPC   C3A48701  23.114  32.819   7.003
 3748POPC   C4A48702  22.927  32.901   7.466
 3748POPC   C1B48703  23.176  33.258   6.231
 3748POPC   C2B48704  23.152  33.222   6.684
 3748POPC   C3B48705  22.903  33.251   7.094
 3748POPC   C4B48706  23.057  33.400   7.508
 3749POPC   NC348707  22.291  39.399   5.322
 3749POPC   PO448708  22.160  38.769   5.191
 3749POPC   GL148709  22.287  39.048   5.669
 3749POPC   GL248710  22.108  39.339   5.824
 3749POPC   C1A48711  22.320  39.001   6.162
 3749POPC   D2A48712  22.466  39.164   6.582
 3749POPC   C3A48713  22.275  39.014   6.956
 3749POPC   C4A48714  22.128  39.268   7.270
 3749POPC   C1B48715  22.194  39.500   6.276
 3749POPC   C2B48716  22.106  39.719   6.702
 3749POPC   C3B48717  22.315  39.742   7.113
 3749POPC   C4B48718  22.579  39.407   7.118
 3750POPC   NC348719  31.721  23.739   5.379
 3750POPC   PO448720  31.615  23.163   5.659
 3750POPC   GL148721  31.523  23.572   5.848
 3750POPC   GL248722  31.569  23.929   5.819
 3750POPC   C1A48723  31.668  23.679   6.271
 3750POPC   D2A48724  31.805  23.537   6.678
 3750POPC   C3A48725  31.444  23.505   6.943
 3750POPC   C4A48726  31.273  23.733   7.297
 3750POPC   C1B48727  31.374  24.092   6.196
 3750POPC   C2B48728  31.371  23.932   6.618
 3750POPC   C3B48729  31.652  23.970   6.956
 3750POPC   C4B48730  31.612  24.280   7.255
 3751POPC   NC348731  31.841  24.544   5.369
 3751POPC   PO448732  31.307  24.068   5.365
 3751POPC   GL148733  31.440  24.399   5.683
 3751POPC   GL248734  31.129  24.327   5.826
 3751POPC   C1A48735  31.643  24.536   6.120
 3751POPC   D2A48736  31.616  24.389   6.569
 3751POPC   C3A48737  31.726  24.654   6.925
 3751POPC   C4A48738  31.910  24.722   7.320
 3751POPC   C1B48739  31.200  24.751   6.010
 3751POPC   C2B48740  31.266  24.772   6.481
 3751POPC   C3B48741  31.228  24.534   6.905
 3751POPC   C4B48742  31.169  24.551   7.372
 3752POPC   NC348743   5.640  26.932   5.634
 3752POPC   PO448744   5.121  26.677   5.228
 3752POPC   GL148745   5.104  26.770   5.712
 3752POPC   GL248746   4.938  27.055   5.871
 3752POPC   C1A48747   5.134  26.578   6.140
 3752POPC   D2A48748   5.107  26.768   6.533
 3752POPC   C3A48749   5.163  26.679   6.929
 3752POPC   C4A48750   5.021  27.034   7.115
 3752POPC   C1B48751   5.318  27.066   6.188
 3752POPC   C2B48752   5.469  27.135   6.646
 3752POPC   C3B48753   5.552  27.019   7.078
 3752POPC   C4B48754   5.432  26.696   7.376
 3753POPC   NC348755  28.594  37.292   5.323
 3753POPC   PO448756  28.303  37.960   5.315
 3753POPC   GL148757  28.252  37.768   5.747
 3753POPC   GL248758  28.088  37.469   5.770
 3753POPC   C1A48759  28.121  37.776   6.207
 3753POPC   D2A48760  28.290  37.695   6.630
 3753POPC   C3A48761  28.291  37.911   7.048
 3753POPC   C4A48762  28.538  38.009   7.444
 3753POPC   C1B48763  28.234  37.274   6.175
 3753POPC   C2B48764  28.160  37.208   6.618
 3753POPC   C3B48765  28.071  37.419   7.031
 3753POPC   C4B48766  28.365  37.519   7.391
 3754POPC   NC348767  39.839  30.979   5.405
 3754POPC   PO448768  40.241  30.430   5.479
 3754POPC   GL148769  40.063  30.573   5.856
 3754POPC   GL248770  40.076  30.900   5.841
 3754POPC   C1A48771  40.071  30.685   6.296
 3754POPC   D2A48772  39.866  30.703   6.671
 3754POPC   C3A48773  40.223  30.802   6.872
 3754POPC   C4A48774  40.411  30.646   7.208
 3754POPC   C1B48775  39.702  31.009   6.118
 3754POPC   C2B48776  39.645  31.147   6.561
 3754POPC   C3B48777  39.711  31.061   7.014
 3754POPC   C4B48778  40.018  30.967   7.299
 3755POPC   NC348779  38.027  20.141   5.551
 3755POPC   PO448780  38.677  20.525   5.456
 3755POPC   GL148781  38.558  20.671   5.843
 3755POPC   GL248782  38.250  20.540   5.787
 3755POPC   C1A48783  38.623  20.813   6.251
 3755POPC   D2A48784  38.636  20.575   6.608
 3755POPC   C3A48785  38.714  20.787   6.955
 3755POPC   C4A48786  38.611  20.647   7.358
 3755POPC   C1B48787  38.170  20.532   6.200
 3755POPC   C2B48788  38.127  20.622   6.608
 3755POPC   C3B48789  38.225  20.397   6.964
 3755POPC   C4B48790  38.145  20.473   7.376
 3756POPC   NC348791  27.924  15.110   5.132
 3756POPC   PO448792  27.366  15.412   5.277
 3756POPC   GL148793  27.524  15.236   5.705
 3756POPC   GL248794  27.875  15.143   5.710
 3756POPC   C1A48795  27.400  15.131   6.170
 3756POPC   D2A48796  27.282  14.906   6.557
 3756POPC   C3A48797  27.363  15.096   6.967
 3756POPC   C4A48798  27.136  15.067   7.336
 3756POPC   C1B48799  27.846  15.366   6.128
 3756POPC   C2B48800  27.691  15.336   6.612
 3756POPC   C3B48801  27.854  15.332   7.079
 3756POPC   C4B48802  27.970  15.498   7.541
 3757POPC   NC348803  43.960  22.166   5.342
 3757POPC   PO448804  44.563  22.186   5.548
 3757POPC   GL148805  44.172  22.155   5.821
 3757POPC   GL248806  43.829  22.360   5.811
 3757POPC   C1A48807  44.055  22.147   6.251
 3757POPC   D2A48808  43.934  21.958   6.633
 3757POPC   C3A48809  44.044  22.152   7.012
 3757POPC   C4A48810  43.889  22.098   7.456
 3757POPC   C1B48811  43.771  22.570   6.214
 3757POPC   C2B48812  43.800  22.470   6.652
 3757POPC   C3B48813  43.643  22.503   7.067
 3757POPC   C4B48814  43.407  22.203   7.339
 3758POPC   NC348815   1.887  28.721   5.460
 3758POPC   PO448816   2.176  28.139   5.497
 3758POPC   GL148817   2.054  28.337   5.885
 3758POPC   GL248818   1.858  28.648   5.963
 3758POPC   C1A48819   2.216  28.352   6.284
 3758POPC   D2A48820   2.456  28.442   6.635
 3758POPC   C3A48821   2.253  28.340   7.033
 3758POPC   C4A48822   2.098  28.097   7.386
 3758POPC   C1B48823   1.684  28.351   6.264
 3758POPC   C2B48824   1.872  28.215   6.662
 3758POPC   C3B48825   1.680  28.133   7.059
 3758POPC   C4B48826   1.456  28.511   7.127
 3759POPC   NC348827  28.491   5.281   5.013
 3759POPC   PO448828  28.385   5.063   5.581
 3759POPC   GL148829  28.243   5.089   5.939
 3759POPC   GL248830  28.090   5.388   5.934
 3759POPC   C1A48831  28.411   4.989   6.325
 3759POPC   D2A48832  28.496   4.667   6.617
 3759POPC   C3A48833  28.489   4.880   7.024
 3759POPC   C4A48834  28.315   4.981   7.435
 3759POPC   C1B48835  28.428   5.504   6.215
 3759POPC   C2B48836  28.515   5.460   6.665
 3759POPC   C3B48837  28.412   5.537   7.099
 3759POPC   C4B48838  28.485   5.472   7.547
 3760POPC   NC348839  38.064  35.512   5.191
 3760POPC   PO448840  37.491  35.250   5.368
 3760POPC   GL148841  37.356  35.358   5.769
 3760POPC   GL248842  37.533  35.123   5.957
 3760POPC   C1A48843  37.365  35.567   6.177
 3760POPC   D2A48844  37.231  35.428   6.588
 3760POPC   C3A48845  37.420  35.535   6.991
 3760POPC   C4A48846  37.306  35.404   7.424
 3760POPC   C1B48847  37.701  35.158   6.355
 3760POPC   C2B48848  37.492  35.000   6.706
 3760POPC   C3B48849  37.519  35.058   7.113
 3760POPC   C4B48850  37.932  35.113   7.227
 3761POPC   NC348851  33.527  30.358   5.559
 3761POPC   PO448852  33.916  30.897   5.495
 3761POPC   GL148853  33.933  30.684   5.893
 3761POPC   GL248854  33.608  30.594   5.999
 3761POPC   C1A48855  33.993  30.619   6.352
 3761POPC   D2A48856  33.903  30.891   6.709
 3761POPC   C3A48857  33.886  30.596   7.018
 3761POPC   C4A48858  34.169  30.259   6.967
 3761POPC   C1B48859  33.328  30.819   6.269
 3761POPC   C2B48860  33.409  30.763   6.709
 3761POPC   C3B48861  33.451  30.856   7.130
 3761POPC   C4B48862  33.409  30.442   7.229
 3762POPC   NC348863  25.554  40.212   5.377
 3762POPC   PO448864  25.274  39.633   5.592
 3762POPC   GL148865  25.325  39.850   5.951
 3762POPC   GL248866  25.313  40.189   5.826
 3762POPC   C1A48867  25.050  40.014   6.260
 3762POPC   D2A48868  24.797  40.077   6.611
 3762POPC   C3A48869  25.040  39.934   6.952
 3762POPC   C4A48870  25.474  40.037   6.998
 3762POPC   C1B48871  25.291  40.467   6.178
 3762POPC   C2B48872  25.271  40.344   6.603
 3762POPC   C3B48873  25.381  40.568   6.945
 3762POPC   C4B48874  25.425  40.409   7.357
 3763POPC   NC348875  19.461  21.376   5.326
 3763POPC   PO448876  20.008  21.153   5.429
 3763POPC   GL148877  19.798  21.372   5.742
 3763POPC   GL248878  19.581  21.083   5.828
 3763POPC   C1A48879  19.845  21.530   6.169
 3763POPC   D2A48880  19.814  21.271   6.576
 3763POPC   C3A48881  19.844  21.586   6.882
 3763POPC   C4A48882  19.970  21.669   7.293
 3763POPC   C1B48883  19.965  21.049   6.112
 3763POPC   C2B48884  20.183  20.919   6.489
 3763POPC   C3B48885  20.142  20.842   6.944
 3763POPC   C4B48886  19.903  21.147   7.214
 3764POPC   NC348887   6.776  39.670   5.065
 3764POPC   PO448888   6.763  40.272   5.420
 3764POPC   GL148889   6.706  40.017   5.770
 3764POPC   GL248890   6.487  39.750   5.718
 3764POPC   C1A48891   6.716  40.121   6.185
 3764POPC   D2A48892   6.866  40.116   6.597
 3764POPC   C3A48893   6.635  40.389   6.856
 3764POPC   C4A48894   6.707  40.268   7.302
 3764POPC   C1B48895   6.349  39.788   6.165
 3764POPC   C2B48896   6.348  40.029   6.574
 3764POPC   C3B48897   6.436  39.917   7.006
 3764POPC   C4B48898   6.298  39.694   7.370
 3765POPC   NC348899  34.854  43.086   5.408
 3765POPC   PO448900  34.308  42.824   5.480
 3765POPC   GL148901  34.549  43.022   5.834
 3765POPC   GL248902  34.865  42.838   5.861
 3765POPC   C1A48903  34.817  43.321   6.089
 3765POPC   D2A48904  34.922  43.495   6.501
 3765POPC   C3A48905  34.810  43.228   6.863
 3765POPC   C4A48906  34.488  43.246   7.209
 3765POPC   C1B48907  34.739  42.854   6.307
 3765POPC   C2B48908  34.544  42.723   6.689
 3765POPC   C3B48909  34.735  42.628   7.081
 3765POPC   C4B48910  34.573  42.787   7.447
 3766POPC   NC348911  24.805  28.354   5.494
 3766POPC   PO448912  25.341  28.306   5.299
 3766POPC   GL148913  25.275  28.186   5.751
 3766POPC   GL248914  25.515  27.955   5.886
 3766POPC   C1A48915  25.132  28.347   6.186
 3766POPC   D2A48916  25.139  28.249   6.659
 3766POPC   C3A48917  25.068  28.522   6.997
 3766POPC   C4A48918  25.110  28.462   7.449
 3766POPC   C1B48919  25.500  28.045   6.349
 3766POPC   C2B48920  25.600  28.031   6.798
 3766POPC   C3B48921  25.532  28.326   7.133
 3766POPC   C4B48922  25.694  28.418   7.552
 3767POPC   NC348923  20.770  39.785   5.469
 3767POPC   PO448924  20.400  40.319   5.711
 3767POPC   GL148925  20.592  40.000   5.903
 3767POPC   GL248926  20.407  39.698   5.854
 3767POPC   C1A48927  20.552  40.087   6.324
 3767POPC   D2A48928  20.548  40.375   6.635
 3767POPC   C3A48929  20.642  40.100   6.979
 3767POPC   C4A48930  20.396  39.904   7.257
 3767POPC   C1B48931  20.658  39.601   6.245
 3767POPC   C2B48932  20.653  39.693   6.660
 3767POPC   C3B48933  20.724  39.500   7.025
 3767POPC   C4B48934  20.840  39.635   7.395
 3768POPC   NC348935  38.505  34.818   5.452
 3768POPC   PO448936  38.834  34.324   5.162
 3768POPC   GL148937  38.466  34.324   5.609
 3768POPC   GL248938  38.311  34.581   5.853
 3768POPC   C1A48939  38.485  34.260   6.168
 3768POPC   D2A48940  38.480  34.524   6.553
 3768POPC   C3A48941  38.668  34.389   6.955
 3768POPC   C4A48942  38.707  34.720   7.263
 3768POPC   C1B48943  38.149  34.839   6.204
 3768POPC   C2B48944  38.247  35.028   6.598
 3768POPC   C3B48945  38.296  34.795   6.970
 3768POPC   C4B48946  38.218  34.568   7.354
 3769POPC   NC348947  41.046  43.320   5.467
 3769POPC   PO448948  40.424  43.207   5.519
 3769POPC   GL148949  40.680  43.192   5.892
 3769POPC   GL248950  40.918  43.445   5.942
 3769POPC   C1A48951  40.625  43.207   6.320
 3769POPC   D2A48952  40.483  42.942   6.606
 3769POPC   C3A48953  40.578  43.090   6.938
 3769POPC   C4A48954  40.658  43.332   7.249
 3769POPC   C1B48955  40.896  43.628   6.353
 3769POPC   C2B48956  40.871  43.471   6.762
 3769POPC   C3B48957  41.117  43.477   7.110
 3769POPC   C4B48958  41.091  43.390   7.554
 3770POPC   NC348959   4.936   9.802   5.274
 3770POPC   PO448960   5.531   9.590   5.339
 3770POPC   GL148961   5.201   9.600   5.679
 3770POPC   GL248962   4.896   9.408   5.664
 3770POPC   C1A48963   5.081   9.709   6.083
 3770POPC   D2A48964   5.212   9.863   6.496
 3770POPC   C3A48965   4.911   9.900   6.819
 3770POPC   C4A48966   4.998   9.818   7.240
 3770POPC   C1B48967   4.736   9.336   6.112
 3770POPC   C2B48968   4.865   9.428   6.570
 3770POPC   C3B48969   4.679   9.471   7.015
 3770POPC   C4B48970   4.654   9.508   7.477
 3771POPC   NC348971   8.326  41.400   5.494
 3771POPC   PO448972   8.145  42.098   5.507
 3771POPC   GL148973   7.965  41.831   5.825
 3771POPC   GL248974   7.865  41.490   5.735
 3771POPC   C1A48975   8.161  41.569   6.170
 3771POPC   D2A48976   8.376  41.618   6.570
 3771POPC   C3A48977   8.259  41.483   7.004
 3771POPC   C4A48978   8.316  41.631   7.459
 3771POPC   C1B48979   7.722  41.290   6.152
 3771POPC   C2B48980   7.966  41.241   6.549
 3771POPC   C3B48981   7.921  41.095   6.982
 3771POPC   C4B48982   7.791  41.331   7.313
 3772POPC   NC348983  26.287  22.192   5.431
 3772POPC   PO448984  25.577  22.022   5.456
 3772POPC   GL148985  25.883  22.132   5.750
 3772POPC   GL248986  26.078  21.791   5.759
 3772POPC   C1A48987  25.923  22.428   6.137
 3772POPC   D2A48988  25.981  22.283   6.595
 3772POPC   C3A48989  26.250  22.362   6.963
 3772POPC   C4A48990  26.109  22.477   7.398
 3772POPC   C1B48991  25.974  21.915   6.190
 3772POPC   C2B48992  26.060  21.756   6.576
 3772POPC   C3B48993  26.126  21.881   6.987
 3772POPC   C4B48994  26.491  21.934   7.245
 3773POPC   NC348995   6.274   4.463   5.500
 3773POPC   PO448996   6.661   3.987   5.537
 3773POPC   GL148997   6.534   4.200   5.896
 3773POPC   GL248998   6.715   4.486   5.793
 3773POPC   C1A48999   6.523   4.086   6.340
 3773POPC   D2A49000   6.514   3.865   6.716
 3773POPC   C3A49001   6.575   4.196   7.006
 3773POPC   C4A49002   6.564   4.212   7.456
 3773POPC   C1B49003   6.680   4.689   6.198
 3773POPC   C2B49004   6.451   4.577   6.571
 3773POPC   C3B49005   6.378   4.672   6.997
 3773POPC   C4B49006   6.798   4.794   7.128
 3774POPC   NC349007  27.612  13.204   5.357
 3774POPC   PO449008  27.521  13.892   5.419
 3774POPC   GL149009  27.730  13.668   5.807
 3774POPC   GL249010  27.851  13.333   5.969
 3774POPC   C1A49011  27.922  13.753   6.244
 3774POPC   D2A49012  27.681  13.825   6.644
 3774POPC   C3A49013  27.655  13.754   7.107
 3774POPC   C4A49014  27.355  14.039   7.306
 3774POPC   C1B49015  27.691  13.319   6.395
 3774POPC   C2B49016  27.619  13.316   6.826
 3774POPC   C3B49017  27.728  13.221   7.229
 3774POPC   C4B49018  27.600  13.360   7.636
 3775POPC   NC349019  27.962  44.917   5.421
 3775POPC   PO449020  27.451  44.479   5.344
 3775POPC   GL149021  27.630  44.594   5.743
 3775POPC   GL249022  27.919  44.391   5.749
 3775POPC   C1A49023  27.629  44.838   6.149
 3775POPC   D2A49024  27.755  44.748   6.587
 3775POPC   C3A49025  27.492  44.788   6.984
 3775POPC   C4A49026  27.700  44.787   7.443
 3775POPC   C1B49027  27.779  44.338   6.180
 3775POPC   C2B49028  28.012  44.297   6.564
 3775POPC   C3B49029  27.801  44.379   6.975
 3775POPC   C4B49030  27.773  44.286   7.420
 3776POPC   NC349031  26.011   3.260   5.492
 3776POPC   PO449032  26.473   3.731   5.660
 3776POPC   GL149033  26.190   3.446   5.952
 3776POPC   GL249034  25.840   3.271   5.970
 3776POPC   C1A49035  26.233   3.119   6.294
 3776POPC   D2A49036  26.257   3.135   6.727
 3776POPC   C3A49037  26.295   3.555   6.737
 3776POPC   C4A49038  26.224   3.755   7.115
 3776POPC   C1B49039  25.784   3.598   6.299
 3776POPC   C2B49040  25.827   3.752   6.734
 3776POPC   C3B49041  25.882   3.378   7.003
 3776POPC   C4B49042  25.603   3.207   7.281
 3777POPC   NC349043  14.899   7.337   5.234
 3777POPC   PO449044  15.099   7.839   5.652
 3777POPC   GL149045  15.105   7.412   5.722
 3777POPC   GL249046  15.432   7.219   5.742
 3777POPC   C1A49047  14.977   7.363   6.137
 3777POPC   D2A49048  15.115   7.481   6.542
 3777POPC   C3A49049  14.892   7.377   6.879
 3777POPC   C4A49050  15.031   7.507   7.249
 3777POPC   C1B49051  15.487   7.363   6.201
 3777POPC   C2B49052  15.579   7.723   6.515
 3777POPC   C3B49053  15.392   7.760   6.946
 3777POPC   C4B49054  15.555   7.495   7.255
 3778POPC   NC349055  22.880  31.377   5.304
 3778POPC   PO449056  23.056  30.835   5.529
 3778POPC   GL149057  22.883  31.180   5.808
 3778POPC   GL249058  22.877  31.555   5.809
 3778POPC   C1A49059  22.719  31.246   6.198
 3778POPC   D2A49060  22.785  31.473   6.554
 3778POPC   C3A49061  22.721  31.172   6.852
 3778POPC   C4A49062  22.784  31.245   7.273
 3778POPC   C1B49063  23.170  31.532   6.154
 3778POPC   C2B49064  23.275  31.675   6.601
 3778POPC   C3B49065  23.165  31.516   7.007
 3778POPC   C4B49066  23.313  31.611   7.445
 3779POPC   NC349067  37.964  30.251   5.453
 3779POPC   PO449068  37.319  30.096   5.276
 3779POPC   GL149069  37.498  30.033   5.678
 3779POPC   GL249070  37.423  29.716   5.758
 3779POPC   C1A49071  37.706  30.049   6.094
 3779POPC   D2A49072  37.858  29.893   6.482
 3779POPC   C3A49073  37.708  30.116   6.853
 3779POPC   C4A49074  37.807  29.972   7.245
 3779POPC   C1B49075  37.507  29.599   6.166
 3779POPC   C2B49076  37.528  29.455   6.556
 3779POPC   C3B49077  37.623  29.612   6.920
 3779POPC   C4B49078  37.597  29.496   7.345
 3780POPC   NC349079  22.736  25.355   5.539
 3780POPC   PO449080  22.159  25.498   5.278
 3780POPC   GL149081  22.261  25.469   5.785
 3780POPC   GL249082  22.312  25.105   5.932
 3780POPC   C1A49083  22.124  25.475   6.268
 3780POPC   D2A49084  22.285  25.450   6.734
 3780POPC   C3A49085  22.182  25.444   7.200
 3780POPC   C4A49086  21.826  25.413   7.506
 3780POPC   C1B49087  22.069  24.955   6.328
 3780POPC   C2B49088  22.065  24.981   6.796
 3780POPC   C3B49089  22.029  24.951   7.232
 3780POPC   C4B49090  22.234  25.105   7.620
 3781POPC   NC349091   0.623  39.959   5.579
 3781POPC   PO449092   1.262  39.795   5.534
 3781POPC   GL149093   1.070  40.060   5.827
 3781POPC   GL249094   0.832  39.811   6.000
 3781POPC   C1A49095   1.183  40.104   6.262
 3781POPC   D2A49096   1.253  39.915   6.661
 3781POPC   C3A49097   1.192  40.236   6.984
 3781POPC   C4A49098   1.310  40.141   7.389
 3781POPC   C1B49099   0.840  39.742   6.424
 3781POPC   C2B49100   0.775  40.027   6.766
 3781POPC   C3B49101   0.925  39.839   7.146
 3781POPC   C4B49102   0.755  39.774   7.543
 3782POPC   NC349103   2.333  18.851   5.531
 3782POPC   PO449104   1.709  18.641   5.500
 3782POPC   GL149105   1.848  18.909   5.845
 3782POPC   GL249106   2.088  19.201   5.851
 3782POPC   C1A49107   1.680  18.934   6.244
 3782POPC   D2A49108   1.770  18.793   6.653
 3782POPC   C3A49109   2.171  18.942   6.830
 3782POPC   C4A49110   2.152  18.811   7.231
 3782POPC   C1B49111   2.137  19.144   6.317
 3782POPC   C2B49112   1.838  19.289   6.658
 3782POPC   C3B49113   1.764  19.138   7.102
 3782POPC   C4B49114   2.027  19.202   7.512
 3783POPC   NC349115  18.758  10.123   5.491
 3783POPC   PO449116  18.309  10.622   5.594
 3783POPC   GL149117  18.114  10.439   5.924
 3783POPC   GL249118  17.969  10.144   5.843
 3783POPC   C1A49119  18.270  10.440   6.324
 3783POPC   D2A49120  18.499  10.747   6.548
 3783POPC   C3A49121  18.527  10.668   6.975
 3783POPC   C4A49122  18.350  10.287   7.192
 3783POPC   C1B49123  17.777  10.234   6.247
 3783POPC   C2B49124  17.840  10.537   6.567
 3783POPC   C3B49125  18.021  10.601   6.949
 3783POPC   C4B49126  17.875  10.433   7.331
 3784POPC   NC349127  12.205  36.863   5.275
 3784POPC   PO449128  11.622  36.555   5.619
 3784POPC   GL149129  12.005  36.775   5.811
 3784POPC   GL249130  12.356  36.966   5.770
 3784POPC   C1A49131  12.147  36.871   6.232
 3784POPC   D2A49132  12.016  36.956   6.633
 3784POPC   C3A49133  12.168  36.700   6.959
 3784POPC   C4A49134  12.195  36.908   7.361
 3784POPC   C1B49135  12.505  37.228   6.134
 3784POPC   C2B49136  12.440  37.218   6.572
 3784POPC   C3B49137  12.554  37.001   6.945
 3784POPC   C4B49138  12.613  37.252   7.270
 3785POPC   NC349139   0.164  42.550   5.295
 3785POPC   PO449140  44.547  42.345   5.405
 3785POPC   GL149141  44.830  42.267   5.720
 3785POPC   GL249142  44.886  42.625   5.719
 3785POPC   C1A49143  44.808  42.100   6.159
 3785POPC   D2A49144  44.728  41.875   6.548
 3785POPC   C3A49145  44.641  42.081   6.965
 3785POPC   C4A49146  44.550  42.076   7.420
 3785POPC   C1B49147  44.671  42.577   6.087
 3785POPC   C2B49148  44.709  42.466   6.506
 3785POPC   C3B49149  44.453  42.554   6.845
 3785POPC   C4B49150  44.524  42.542   7.266
 3786POPC   NC349151   8.752  27.328   5.491
 3786POPC   PO449152   9.288  26.898   5.356
 3786POPC   GL149153   8.921  26.821   5.641
 3786POPC   GL249154   9.013  27.076   5.850
 3786POPC   C1A49155   8.839  26.699   6.126
 3786POPC   D2A49156   8.678  26.438   6.459
 3786POPC   C3A49157   8.581  26.708   6.795
 3786POPC   C4A49158   8.580  26.679   7.231
 3786POPC   C1B49159   8.825  27.200   6.240
 3786POPC   C2B49160   8.879  27.146   6.698
 3786POPC   C3B49161   9.217  27.100   7.032
 3786POPC   C4B49162   9.161  27.140   7.495
 3787POPC   NC349163  39.454  28.471   5.345
 3787POPC   PO449164  38.925  28.295   5.772
 3787POPC   GL149165  39.248  28.538   5.857
 3787POPC   GL249166  39.472  28.225   5.783
 3787POPC   C1A49167  39.039  28.811   6.184
 3787POPC   D2A49168  38.794  28.877   6.612
 3787POPC   C3A49169  39.044  28.723   6.990
 3787POPC   C4A49170  39.186  28.297   7.107
 3787POPC   C1B49171  39.510  28.072   6.192
 3787POPC   C2B49172  39.333  28.074   6.591
 3787POPC   C3B49173  39.572  27.975   6.923
 3787POPC   C4B49174  39.805  27.948   7.280
 3788POPC   NC349175  27.664   2.315   5.317
 3788POPC   PO449176  27.466   3.005   5.412
 3788POPC   GL149177  27.609   2.704   5.741
 3788POPC   GL249178  27.588   2.927   6.016
 3788POPC   C1A49179  27.808   2.502   6.137
 3788POPC   D2A49180  27.605   2.627   6.533
 3788POPC   C3A49181  27.707   2.998   6.709
 3788POPC   C4A49182  27.688   2.884   7.135
 3788POPC   C1B49183  27.251   2.860   6.269
 3788POPC   C2B49184  27.061   2.780   6.623
 3788POPC   C3B49185  27.186   2.854   7.030
 3788POPC   C4B49186  27.297   2.843   7.455
 3789POPC   NC349187  34.851  27.908   5.651
 3789POPC   PO449188  34.670  28.463   5.271
 3789POPC   GL149189  34.757  28.446   5.731
 3789POPC   GL249190  34.400  28.515   5.782
 3789POPC   C1A49191  34.608  28.299   6.180
 3789POPC   D2A49192  34.393  28.368   6.558
 3789POPC   C3A49193  34.634  28.205   6.900
 3789POPC   C4A49194  34.830  28.433   7.177
 3789POPC   C1B49195  34.235  28.707   6.158
 3789POPC   C2B49196  34.046  28.780   6.569
 3789POPC   C3B49197  34.238  28.709   6.951
 3789POPC   C4B49198  34.345  28.521   7.338
 3790POPC   NC349199  41.750  42.691   5.318
 3790POPC   PO449200  41.484  42.070   5.494
 3790POPC   GL149201  41.413  42.247   5.909
 3790POPC   GL249202  41.144  42.508   5.904
 3790POPC   C1A49203  41.518  42.164   6.326
 3790POPC   D2A49204  41.658  42.227   6.747
 3790POPC   C3A49205  41.405  42.042   7.047
 3790POPC   C4A49206  41.468  42.136   7.476
 3790POPC   C1B49207  41.202  42.576   6.350
 3790POPC   C2B49208  41.201  42.446   6.773
 3790POPC   C3B49209  41.361  42.536   7.171
 3790POPC   C4B49210  41.817  42.515   7.186
 3791POPC   NC349211  28.035  28.096   5.499
 3791POPC   PO449212  28.493  28.495   5.234
 3791POPC   GL149213  28.544  28.500   5.693
 3791POPC   GL249214  28.216  28.570   5.845
 3791POPC   C1A49215  28.573  28.193   6.026
 3791POPC   D2A49216  28.603  28.070   6.478
 3791POPC   C3A49217  28.556  28.405   6.776
 3791POPC   C4A49218  28.608  28.551   7.201
 3791POPC   C1B49219  28.252  28.468   6.321
 3791POPC   C2B49220  28.100  28.182   6.667
 3791POPC   C3B49221  28.172  28.249   7.107
 3791POPC   C4B49222  28.058  28.634   7.285
 3792POPC   NC349223  22.452  25.856   5.393
 3792POPC   PO449224  21.855  26.189   5.457
 3792POPC   GL149225  22.053  26.339   5.843
 3792POPC   GL249226  22.214  26.002   5.852
 3792POPC   C1A49227  22.075  26.495   6.288
 3792POPC   D2A49228  22.234  26.197   6.592
 3792POPC   C3A49229  22.189  26.291   7.018
 3792POPC   C4A49230  22.305  25.954   7.299
 3792POPC   C1B49231  21.909  25.965   6.191
 3792POPC   C2B49232  21.754  25.747   6.560
 3792POPC   C3B49233  21.946  25.837   6.923
 3792POPC   C4B49234  21.807  25.870   7.313
 3793POPC   NC349235   6.650  19.808   5.325
 3793POPC   PO449236   7.242  19.817   5.435
 3793POPC   GL149237   6.921  19.887   5.783
 3793POPC   GL249238   6.674  19.615   5.821
 3793POPC   C1A49239   6.821  19.853   6.240
 3793POPC   D2A49240   6.971  19.827   6.648
 3793POPC   C3A49241   6.709  19.810   6.995
 3793POPC   C4A49242   6.756  19.974   7.403
 3793POPC   C1B49243   6.407  19.516   6.199
 3793POPC   C2B49244   6.354  19.619   6.646
 3793POPC   C3B49245   6.219  19.634   7.064
 3793POPC   C4B49246   6.263  20.015   7.261
 3794POPC   NC349247   3.874  35.046   5.379
 3794POPC   PO449248   4.482  35.460   5.411
 3794POPC   GL149249   4.291  35.249   5.732
 3794POPC   GL249250   4.561  35.017   5.822
 3794POPC   C1A49251   4.040  35.431   6.051
 3794POPC   D2A49252   4.024  35.379   6.469
 3794POPC   C3A49253   4.086  35.694   6.764
 3794POPC   C4A49254   4.247  35.460   7.098
 3794POPC   C1B49255   4.465  35.176   6.243
 3794POPC   C2B49256   4.528  35.348   6.663
 3794POPC   C3B49257   4.695  35.227   7.070
 3794POPC   C4B49258   4.712  35.280   7.507
 3795POPC   NC349259   5.238  30.789   5.331
 3795POPC   PO449260   5.138  30.147   5.479
 3795POPC   GL149261   5.185  30.517   5.752
 3795POPC   GL249262   4.878  30.736   5.750
 3795POPC   C1A49263   5.236  30.767   6.125
 3795POPC   D2A49264   5.066  30.903   6.525
 3795POPC   C3A49265   5.255  30.777   6.920
 3795POPC   C4A49266   5.300  30.449   7.229
 3795POPC   C1B49267   4.757  31.022   6.104
 3795POPC   C2B49268   4.592  31.118   6.534
 3795POPC   C3B49269   4.790  31.044   6.928
 3795POPC   C4B49270   4.829  30.672   7.204
 3796POPC   NC349271  40.295  29.988   5.610
 3796POPC   PO449272  39.759  29.561   5.599
 3796POPC   GL149273  39.969  29.751   5.938
 3796POPC   GL249274  39.925  30.095   5.971
 3796POPC   C1A49275  40.336  29.712   6.234
 3796POPC   D2A49276  40.419  29.884   6.663
 3796POPC   C3A49277  40.259  29.641   6.987
 3796POPC   C4A49278  39.833  29.770   7.110
 3796POPC   C1B49279  39.772  30.255   6.380
 3796POPC   C2B49280  39.790  30.238   6.859
 3796POPC   C3B49281  40.191  30.193   7.075
 3796POPC   C4B49282  40.368  30.252   7.506
 3797POPC   NC349283  14.812  16.056   5.165
 3797POPC   PO449284  15.374  15.996   5.527
 3797POPC   GL149285  15.271  16.176   5.887
 3797POPC   GL249286  15.264  15.895   6.057
 3797POPC   C1A49287  15.455  16.318   6.283
 3797POPC   D2A49288  15.441  15.999   6.561
 3797POPC   C3A49289  15.241  16.042   6.911
 3797POPC   C4A49290  15.371  16.001   7.297
 3797POPC   C1B49291  14.975  15.694   6.328
 3797POPC   C2B49292  14.911  15.700   6.769
 3797POPC   C3B49293  14.916  15.644   7.221
 3797POPC   C4B49294  14.621  15.594   7.625
 3798POPC   NC349295  31.780  37.289   5.265
 3798POPC   PO449296  31.439  37.914   5.445
 3798POPC   GL149297  31.548  37.739   5.846
 3798POPC   GL249298  31.682  37.450   5.782
 3798POPC   C1A49299  31.360  37.497   6.186
 3798POPC   D2A49300  31.182  37.375   6.551
 3798POPC   C3A49301  31.418  37.388   6.897
 3798POPC   C4A49302  31.315  37.706   7.157
 3798POPC   C1B49303  31.861  37.445   6.188
 3798POPC   C2B49304  31.667  37.679   6.557
 3798POPC   C3B49305  31.819  37.792   6.997
 3798POPC   C4B49306  31.980  37.717   7.421
 3799POPC   NC349307  15.395  37.480   5.527
 3799POPC   PO449308  14.884  37.907   5.543
 3799POPC   GL149309  15.223  37.864   5.842
 3799POPC   GL249310  15.140  37.520   5.962
 3799POPC   C1A49311  15.348  37.856   6.297
 3799POPC   D2A49312  15.128  37.810   6.696
 3799POPC   C3A49313  15.346  37.746   7.051
 3799POPC   C4A49314  15.580  37.992   7.325
 3799POPC   C1B49315  14.870  37.543   6.316
 3799POPC   C2B49316  14.839  37.355   6.724
 3799POPC   C3B49317  14.886  37.486   7.156
 3799POPC   C4B49318  15.061  37.266   7.546
 3800POPC   NC349319  39.912  40.935   5.034
 3800POPC   PO449320  40.253  40.708   5.565
 3800POPC   GL149321  40.092  40.782   5.907
 3800POPC   GL249322  40.060  41.115   5.855
 3800POPC   C1A49323  39.862  40.663   6.224
 3800POPC   D2A49324  39.758  40.876   6.564
 3800POPC   C3A49325  39.791  40.614   6.875
 3800POPC   C4A49326  40.033  40.725   7.186
 3800POPC   C1B49327  40.150  41.113   6.290
 3800POPC   C2B49328  40.058  41.311   6.651
 3800POPC   C3B49329  40.224  41.287   7.069
 3800POPC   C4B49330  40.217  41.083   7.472
 3801POPC   NC349331  23.314   8.325   5.412
 3801POPC   PO449332  22.687   8.174   5.302
 3801POPC   GL149333  22.788   8.270   5.753
 3801POPC   GL249334  23.108   8.131   5.859
 3801POPC   C1A49335  22.754   8.233   6.232
 3801POPC   D2A49336  22.750   7.982   6.628
 3801POPC   C3A49337  22.876   8.234   7.013
 3801POPC   C4A49338  22.853   8.649   7.295
 3801POPC   C1B49339  23.220   7.942   6.256
 3801POPC   C2B49340  23.343   8.059   6.692
 3801POPC   C3B49341  23.339   8.060   7.149
 3801POPC   C4B49342  23.108   8.233   7.467
 3802POPC   NC349343  18.137  15.536   5.596
 3802POPC   PO449344  18.326  14.902   5.577
 3802POPC   GL149345  18.405  15.227   5.884
 3802POPC   GL249346  18.552  15.028   6.054
 3802POPC   C1A49347  18.295  15.427   6.284
 3802POPC   D2A49348  18.194  15.324   6.709
 3802POPC   C3A49349  18.489  15.422   7.032
 3802POPC   C4A49350  18.478  15.540   7.501
 3802POPC   C1B49351  18.324  14.780   6.364
 3802POPC   C2B49352  18.353  14.829   6.811
 3802POPC   C3B49353  18.158  15.042   7.174
 3802POPC   C4B49354  17.969  14.816   7.511
 3803POPC   NC349355  13.272  43.788   5.370
 3803POPC   PO449356  13.683  44.294   5.421
 3803POPC   GL149357  13.769  43.980   5.722
 3803POPC   GL249358  13.437  43.937   5.873
 3803POPC   C1A49359  13.905  44.012   6.152
 3803POPC   D2A49360  13.673  44.012   6.553
 3803POPC   C3A49361  13.772  44.200   6.974
 3803POPC   C4A49362  13.777  43.996   7.384
 3803POPC   C1B49363  13.186  43.950   6.264
 3803POPC   C2B49364  13.233  43.788   6.685
 3803POPC   C3B49365  13.569  43.716   6.991
 3803POPC   C4B49366  13.417  43.640   7.394
 3804POPC   NC349367  10.664   2.403   5.445
 3804POPC   PO449368  10.759   3.070   5.382
 3804POPC   GL149369  10.562   2.829   5.726
 3804POPC   GL249370  10.218   2.801   5.745
 3804POPC   C1A49371  10.660   2.774   6.185
 3804POPC   D2A49372  10.721   3.024   6.576
 3804POPC   C3A49373  10.800   2.864   6.998
 3804POPC   C4A49374  10.757   2.788   7.432
 3804POPC   C1B49375  10.166   2.667   6.184
 3804POPC   C2B49376  10.307   2.706   6.659
 3804POPC   C3B49377  10.315   2.597   7.127
 3804POPC   C4B49378  10.281   2.721   7.587
 3805POPC   NC349379  41.038  30.524   5.651
 3805POPC   PO449380  41.745  30.541   5.472
 3805POPC   GL149381  41.546  30.345   5.812
 3805POPC   GL249382  41.441  30.618   5.950
 3805POPC   C1A49383  41.687  30.306   6.261
 3805POPC   D2A49384  41.674  30.562   6.599
 3805POPC   C3A49385  41.699  30.464   7.009
 3805POPC   C4A49386  41.646  30.913   7.116
 3805POPC   C1B49387  41.240  30.654   6.303
 3805POPC   C2B49388  41.290  30.920   6.604
 3805POPC   C3B49389  41.211  30.714   6.923
 3805POPC   C4B49390  41.285  30.558   7.278
 3806POPC   NC349391   0.791  44.127   5.444
 3806POPC   PO449392   0.539  44.748   5.269
 3806POPC   GL149393   0.406  44.531   5.585
 3806POPC   GL249394   0.708  44.529   5.759
 3806POPC   C1A49395   0.263  44.544   6.006
 3806POPC   D2A49396   0.395  44.542   6.435
 3806POPC   C3A49397   0.088  44.549   6.750
 3806POPC   C4A49398   0.156  44.542   7.184
 3806POPC   C1B49399   0.867  44.514   6.182
 3806POPC   C2B49400   0.914  44.516   6.617
 3806POPC   C3B49401   0.620  44.522   6.929
 3806POPC   C4B49402   0.726  44.442   7.331
 3807POPC   NC349403   0.607  41.658   5.383
 3807POPC   PO449404   0.466  41.038   5.211
 3807POPC   GL149405   0.394  41.301   5.674
 3807POPC   GL249406   0.155  41.601   5.673
 3807POPC   C1A49407   0.590  41.578   6.047
 3807POPC   D2A49408   0.701  41.782   6.466
 3807POPC   C3A49409   0.527  41.677   6.863
 3807POPC   C4A49410   0.473  41.862   7.289
 3807POPC   C1B49411   0.124  41.721   6.117
 3807POPC   C2B49412   0.235  42.005   6.476
 3807POPC   C3B49413   0.151  42.043   6.917
 3807POPC   C4B49414  44.967  41.812   7.264
 3808POPC   NC349415  14.364  13.591   5.316
 3808POPC   PO449416  14.234  14.277   5.448
 3808POPC   GL149417  14.392  13.889   5.739
 3808POPC   GL249418  14.352  13.479   5.804
 3808POPC   C1A49419  14.450  13.781   6.193
 3808POPC   D2A49420  14.538  13.929   6.592
 3808POPC   C3A49421  14.426  13.762   6.993
 3808POPC   C4A49422  14.326  13.595   7.370
 3808POPC   C1B49423  14.316  13.263   6.210
 3808POPC   C2B49424  14.341  13.428   6.618
 3808POPC   C3B49425  14.520  13.259   7.006
 3808POPC   C4B49426  14.386  13.088   7.396
 3809POPC   NC349427   2.903  13.400   5.304
 3809POPC   PO449428   2.485  13.836   5.558
 3809POPC   GL149429   2.785  13.682   5.825
 3809POPC   GL249430   2.818  13.336   5.830
 3809POPC   C1A49431   2.712  13.682   6.267
 3809POPC   D2A49432   2.921  13.701   6.645
 3809POPC   C3A49433   2.643  13.854   6.930
 3809POPC   C4A49434   2.812  13.948   7.272
 3809POPC   C1B49435   2.545  13.208   6.211
 3809POPC   C2B49436   2.554  13.214   6.638
 3809POPC   C3B49437   2.747  13.351   7.003
 3809POPC   C4B49438   2.612  13.495   7.386
 3810POPC   NC349439  16.091  43.656   5.313
 3810POPC   PO449440  15.627  44.030   5.566
 3810POPC   GL149441  15.887  43.866   5.870
 3810POPC   GL249442  16.145  43.573   5.817
 3810POPC   C1A49443  15.711  43.916   6.264
 3810POPC   D2A49444  15.906  43.963   6.630
 3810POPC   C3A49445  15.609  43.851   6.904
 3810POPC   C4A49446  15.718  43.994   7.283
 3810POPC   C1B49447  16.226  43.740   6.260
 3810POPC   C2B49448  16.300  43.656   6.732
 3810POPC   C3B49449  16.171  43.713   7.175
 3810POPC   C4B49450  16.071  43.462   7.559
 3811POPC   NC349451   4.966  14.878   5.615
 3811POPC   PO449452   5.020  14.164   5.484
 3811POPC   GL149453   4.983  14.405   5.840
 3811POPC   GL249454   5.282  14.572   5.923
 3811POPC   C1A49455   4.832  14.560   6.234
 3811POPC   D2A49456   4.815  14.315   6.611
 3811POPC   C3A49457   4.919  14.415   7.027
 3811POPC   C4A49458   4.842  14.606   7.373
 3811POPC   C1B49459   5.336  14.425   6.321
 3811POPC   C2B49460   5.325  14.468   6.748
 3811POPC   C3B49461   5.397  14.155   7.078
 3811POPC   C4B49462   5.206  14.233   7.434
 3812POPC   NC349463   3.271  25.590   5.458
 3812POPC   PO449464   3.617  25.016   5.443
 3812POPC   GL149465   3.611  25.290   5.776
 3812POPC   GL249466   3.264  25.246   5.844
 3812POPC   C1A49467   3.553  25.319   6.240
 3812POPC   D2A49468   3.638  25.426   6.639
 3812POPC   C3A49469   3.616  25.114   6.919
 3812POPC   C4A49470   3.582  25.368   7.261
 3812POPC   C1B49471   3.097  25.545   6.171
 3812POPC   C2B49472   3.072  25.444   6.612
 3812POPC   C3B49473   3.124  25.228   7.018
 3812POPC   C4B49474   3.130  25.272   7.479
 3813POPC   NC349475  31.398  41.207   5.412
 3813POPC   PO449476  31.262  41.834   5.543
 3813POPC   GL149477  31.585  41.587   5.758
 3813POPC   GL249478  31.529  41.243   5.905
 3813POPC   C1A49479  31.603  41.681   6.210
 3813POPC   D2A49480  31.277  41.808   6.525
 3813POPC   C3A49481  31.381  41.754   6.970
 3813POPC   C4A49482  31.792  41.726   7.182
 3813POPC   C1B49483  31.806  41.224   6.289
 3813POPC   C2B49484  31.779  41.433   6.718
 3813POPC   C3B49485  31.559  41.267   7.098
 3813POPC   C4B49486  31.675  41.199   7.532
 3814POPC   NC349487  10.448  44.268   5.513
 3814POPC   PO449488  10.593  44.831   5.234
 3814POPC   GL149489  10.615  44.695   5.720
 3814POPC   GL249490  10.903  44.784   5.885
 3814POPC   C1A49491  10.528  44.547   6.159
 3814POPC   D2A49492  10.441  44.745   6.555
 3814POPC   C3A49493  10.382  44.553   6.989
 3814POPC   C4A49494  10.411  44.626   7.451
 3814POPC   C1B49495  10.767   0.029   6.189
 3814POPC   C2B49496  10.739   0.191   6.574
 3814POPC   C3B49497  10.705  44.965   6.928
 3814POPC   C4B49498  10.831  44.864   7.313
 3815POPC   NC349499  10.696  41.223   5.500
 3815POPC   PO449500  10.135  41.578   5.281
 3815POPC   GL149501  10.314  41.548   5.672
 3815POPC   GL249502  10.523  41.852   5.724
 3815POPC   C1A49503  10.404  41.474   6.113
 3815POPC   D2A49504  10.191  41.309   6.470
 3815POPC   C3A49505  10.414  41.228   6.864
 3815POPC   C4A49506  10.185  41.251   7.248
 3815POPC   C1B49507  10.666  41.924   6.161
 3815POPC   C2B49508  10.580  41.723   6.586
 3815POPC   C3B49509  10.746  41.753   7.022
 3815POPC   C4B49510  10.762  41.350   7.250
 3816POPC   NC349511  39.290  41.406   5.394
 3816POPC   PO449512  39.176  42.065   5.309
 3816POPC   GL149513  39.199  41.872   5.778
 3816POPC   GL249514  39.257  41.528   5.876
 3816POPC   C1A49515  39.069  41.820   6.248
 3816POPC   D2A49516  39.199  41.920   6.683
 3816POPC   C3A49517  39.285  41.621   7.043
 3816POPC   C4A49518  39.055  41.481   7.412
 3816POPC   C1B49519  39.246  41.320   6.262
 3816POPC   C2B49520  39.014  41.427   6.616
 3816POPC   C3B49521  38.980  41.191   6.955
 3816POPC   C4B49522  39.279  41.038   7.245
 3817POPC   NC349523  24.265   8.633   5.410
 3817POPC   PO449524  24.163   9.276   5.192
 3817POPC   GL149525  24.447   9.141   5.576
 3817POPC   GL249526  24.534   8.832   5.786
 3817POPC   C1A49527  24.416   9.258   6.057
 3817POPC   D2A49528  24.450   9.388   6.535
 3817POPC   C3A49529  24.276   9.155   6.914
 3817POPC   C4A49530  24.455   8.903   7.268
 3817POPC   C1B49531  24.237   8.809   6.141
 3817POPC   C2B49532  24.363   8.849   6.507
 3817POPC   C3B49533  24.375   8.607   6.851
 3817POPC   C4B49534  24.014   8.710   7.087
 3818POPC   NC349535  25.927  41.729   5.503
 3818POPC   PO449536  26.392  41.347   5.627
 3818POPC   GL149537  26.134  41.487   5.916
 3818POPC   GL249538  26.265  41.786   5.901
 3818POPC   C1A49539  25.913  41.670   6.276
 3818POPC   D2A49540  25.765  41.575   6.688
 3818POPC   C3A49541  25.935  41.724   7.070
 3818POPC   C4A49542  25.899  41.355   7.282
 3818POPC   C1B49543  26.402  41.938   6.220
 3818POPC   C2B49544  26.225  41.895   6.589
 3818POPC   C3B49545  26.408  41.893   6.935
 3818POPC   C4B49546  26.412  41.739   7.304
 3819POPC   NC349547   8.511  30.574   5.537
 3819POPC   PO449548   9.045  30.921   5.307
 3819POPC   GL149549   9.202  30.906   5.738
 3819POPC   GL249550   8.933  30.706   5.822
 3819POPC   C1A49551   9.155  30.994   6.173
 3819POPC   D2A49552   9.213  30.752   6.541
 3819POPC   C3A49553   9.035  30.853   6.924
 3819POPC   C4A49554   9.026  30.860   7.379
 3819POPC   C1B49555   9.005  30.473   6.170
 3819POPC   C2B49556   8.801  30.442   6.568
 3819POPC   C3B49557   8.742  30.228   6.936
 3819POPC   C4B49558   8.865  30.326   7.332
 3820POPC   NC349559   5.743   4.612   5.173
 3820POPC   PO449560   5.992   4.090   5.349
 3820POPC   GL149561   5.964   4.198   5.821
 3820POPC   GL249562   5.600   4.269   5.922
 3820POPC   C1A49563   6.125   4.375   6.216
 3820POPC   D2A49564   6.128   4.201   6.660
 3820POPC   C3A49565   5.803   4.290   6.945
 3820POPC   C4A49566   5.567   4.373   7.295
 3820POPC   C1B49567   5.664   4.585   6.256
 3820POPC   C2B49568   5.935   4.694   6.612
 3820POPC   C3B49569   5.842   4.805   7.024
 3820POPC   C4B49570   5.435   4.840   7.216
 3821POPC   NC349571  31.089  33.147   5.238
 3821POPC   PO449572  30.488  32.865   5.333
 3821POPC   GL149573  30.676  33.154   5.650
 3821POPC   GL249574  31.044  33.136   5.729
 3821POPC   C1A49575  30.513  33.181   6.091
 3821POPC   D2A49576  30.451  32.982   6.479
 3821POPC   C3A49577  30.501  33.199   6.865
 3821POPC   C4A49578  30.430  32.942   7.233
 3821POPC   C1B49579  31.051  33.047   6.145
 3821POPC   C2B49580  30.934  33.100   6.560
 3821POPC   C3B49581  30.905  32.887   6.950
 3821POPC   C4B49582  30.876  33.175   7.269
 3822POPC   NC349583   5.515  12.168   5.478
 3822POPC   PO449584   6.172  12.035   5.614
 3822POPC   GL149585   5.994  11.841   5.938
 3822POPC   GL249586   5.658  11.769   5.820
 3822POPC   C1A49587   6.087  12.159   6.248
 3822POPC   D2A49588   6.146  12.294   6.645
 3822POPC   C3A49589   6.153  11.934   6.928
 3822POPC   C4A49590   6.067  11.920   7.357
 3822POPC   C1B49591   5.569  12.049   6.186
 3822POPC   C2B49592   5.758  11.988   6.588
 3822POPC   C3B49593   5.656  12.106   7.000
 3822POPC   C4B49594   5.281  11.889   7.133
 3823POPC   NC349595   7.449  32.802   5.374
 3823POPC   PO449596   7.835  33.401   5.447
 3823POPC   GL149597   7.710  33.067   5.741
 3823POPC   GL249598   7.318  33.064   5.813
 3823POPC   C1A49599   7.670  33.015   6.181
 3823POPC   D2A49600   7.471  33.309   6.463
 3823POPC   C3A49601   7.622  33.191   6.868
 3823POPC   C4A49602   7.472  33.234   7.275
 3823POPC   C1B49603   7.232  32.787   6.213
 3823POPC   C2B49604   7.208  32.921   6.663
 3823POPC   C3B49605   7.303  32.762   7.094
 3823POPC   C4B49606   7.025  32.776   7.463
 3824POPC   NC349607  41.641   2.233   5.373
 3824POPC   PO449608  41.031   1.917   5.450
 3824POPC   GL149609  41.296   2.177   5.769
 3824POPC   GL249610  41.655   2.044   5.843
 3824POPC   C1A49611  41.455   2.366   6.180
 3824POPC   D2A49612  41.362   2.192   6.576
 3824POPC   C3A49613  41.428   2.391   6.943
 3824POPC   C4A49614  41.327   2.170   7.307
 3824POPC   C1B49615  41.778   1.717   6.140
 3824POPC   C2B49616  41.917   1.783   6.552
 3824POPC   C3B49617  41.733   1.969   6.940
 3824POPC   C4B49618  41.689   1.776   7.341
 3825POPC   NC349619  22.189  19.800   5.380
 3825POPC   PO449620  21.571  19.835   5.555
 3825POPC   GL149621  21.909  19.882   5.835
 3825POPC   GL249622  22.129  19.594   5.859
 3825POPC   C1A49623  22.198  19.993   6.179
 3825POPC   D2A49624  22.354  20.175   6.564
 3825POPC   C3A49625  22.208  19.910   6.846
 3825POPC   C4A49626  22.054  19.867   7.209
 3825POPC   C1B49627  22.486  19.517   6.187
 3825POPC   C2B49628  22.603  19.653   6.635
 3825POPC   C3B49629  22.488  19.539   7.074
 3825POPC   C4B49630  22.435  19.638   7.542
 3826POPC   NC349631  37.689   9.550   5.336
 3826POPC   PO449632  37.313  10.038   5.401
 3826POPC   GL149633  37.554   9.865   5.756
 3826POPC   GL249634  37.396   9.591   5.929
 3826POPC   C1A49635  37.749   9.927   6.191
 3826POPC   D2A49636  37.572   9.943   6.651
 3826POPC   C3A49637  37.769   9.902   7.080
 3826POPC   C4A49638  37.799   9.678   7.493
 3826POPC   C1B49639  37.500   9.509   6.348
 3826POPC   C2B49640  37.772   9.453   6.707
 3826POPC   C3B49641  37.575   9.418   7.097
 3826POPC   C4B49642  37.272   9.704   7.316
 3827POPC   NC349643  25.169   6.453   5.699
 3827POPC   PO449644  25.312   5.987   5.169
 3827POPC   GL149645  25.281   5.910   5.653
 3827POPC   GL249646  25.496   6.087   5.902
 3827POPC   C1A49647  25.124   5.810   6.108
 3827POPC   D2A49648  25.054   5.644   6.542
 3827POPC   C3A49649  25.321   5.497   6.892
 3827POPC   C4A49650  25.289   5.532   7.340
 3827POPC   C1B49651  25.344   6.231   6.306
 3827POPC   C2B49652  25.181   6.105   6.697
 3827POPC   C3B49653  25.360   5.968   7.081
 3827POPC   C4B49654  25.244   6.055   7.534
 3828POPC   NC349655  11.680  14.888   5.275
 3828POPC   PO449656  11.126  15.310   5.372
 3828POPC   GL149657  11.146  15.083   5.716
 3828POPC   GL249658  10.815  15.036   5.800
 3828POPC   C1A49659  11.365  14.871   6.040
 3828POPC   D2A49660  11.504  15.040   6.427
 3828POPC   C3A49661  11.398  15.094   6.844
 3828POPC   C4A49662  11.567  15.282   7.255
 3828POPC   C1B49663  10.930  15.076   6.205
 3828POPC   C2B49664  10.778  14.907   6.553
 3828POPC   C3B49665  10.863  15.162   6.858
 3828POPC   C4B49666  11.085  15.116   7.232
 3829POPC   NC349667  30.882  36.889   5.316
 3829POPC   PO449668  30.267  36.703   5.389
 3829POPC   GL149669  30.546  36.758   5.725
 3829POPC   GL249670  30.399  36.513   5.936
 3829POPC   C1A49671  30.665  37.065   6.043
 3829POPC   D2A49672  30.756  37.009   6.526
 3829POPC   C3A49673  30.532  37.123   6.926
 3829POPC   C4A49674  30.777  37.153   7.299
 3829POPC   C1B49675  30.363  36.764   6.287
 3829POPC   C2B49676  30.172  36.863   6.645
 3829POPC   C3B49677  30.355  36.651   6.975
 3829POPC   C4B49678  30.542  36.722   7.353
 3830POPC   NC349679  18.734  33.723   5.447
 3830POPC   PO449680  19.346  34.112   5.289
 3830POPC   GL149681  19.271  33.938   5.696
 3830POPC   GL249682  18.930  33.936   5.862
 3830POPC   C1A49683  19.359  33.915   6.143
 3830POPC   D2A49684  19.362  33.971   6.578
 3830POPC   C3A49685  19.187  33.788   6.940
 3830POPC   C4A49686  19.284  34.097   7.255
 3830POPC   C1B49687  18.897  34.154   6.285
 3830POPC   C2B49688  18.949  34.222   6.754
 3830POPC   C3B49689  18.772  34.045   7.135
 3830POPC   C4B49690  18.430  34.012   7.435
 3831POPC   NC349691  16.389  19.397   5.091
 3831POPC   PO449692  16.836  19.856   5.378
 3831POPC   GL149693  16.864  19.720   5.761
 3831POPC   GL249694  16.870  19.374   5.701
 3831POPC   C1A49695  16.618  19.726   6.138
 3831POPC   D2A49696  16.502  19.920   6.527
 3831POPC   C3A49697  16.738  19.962   6.876
 3831POPC   C4A49698  16.679  19.803   7.252
 3831POPC   C1B49699  17.019  19.421   6.129
 3831POPC   C2B49700  16.903  19.564   6.545
 3831POPC   C3B49701  17.062  19.570   6.967
 3831POPC   C4B49702  17.329  19.562   7.331
 3832POPC   NC349703  30.458   9.246   5.505
 3832POPC   PO449704  30.991   8.858   5.480
 3832POPC   GL149705  30.825   9.053   5.887
 3832POPC   GL249706  30.454   8.985   5.951
 3832POPC   C1A49707  30.905   9.110   6.360
 3832POPC   D2A49708  31.129   9.129   6.746
 3832POPC   C3A49709  30.948   8.856   7.052
 3832POPC   C4A49710  30.503   8.655   7.041
 3832POPC   C1B49711  30.461   9.355   6.163
 3832POPC   C2B49712  30.559   9.474   6.543
 3832POPC   C3B49713  30.638   9.197   6.854
 3832POPC   C4B49714  30.528   9.096   7.284
 3833POPC   NC349715   8.414  39.051   5.637
 3833POPC   PO449716   8.008  39.459   5.322
 3833POPC   GL149717   8.094  39.429   5.768
 3833POPC   GL249718   7.908  39.101   5.782
 3833POPC   C1A49719   8.383  39.396   6.178
 3833POPC   D2A49720   8.728  39.378   6.485
 3833POPC   C3A49721   8.491  39.441   6.842
 3833POPC   C4A49722   8.371  39.442   7.267
 3833POPC   C1B49723   7.881  39.259   6.190
 3833POPC   C2B49724   7.963  39.165   6.580
 3833POPC   C3B49725   7.991  39.383   6.936
 3833POPC   C4B49726   7.885  39.293   7.309
 3834POPC   NC349727  37.391   5.733   5.642
 3834POPC   PO449728  37.769   6.156   5.258
 3834POPC   GL149729  37.826   5.987   5.727
 3834POPC   GL249730  37.857   5.615   5.775
 3834POPC   C1A49731  37.659   5.964   6.211
 3834POPC   D2A49732  37.488   5.725   6.620
 3834POPC   C3A49733  37.595   5.843   7.060
 3834POPC   C4A49734  38.055   5.957   7.092
 3834POPC   C1B49735  37.644   5.454   6.190
 3834POPC   C2B49736  37.789   5.287   6.579
 3834POPC   C3B49737  37.913   5.447   7.034
 3834POPC   C4B49738  37.873   5.637   7.484
 3835POPC   NC349739   3.115  30.244   5.457
 3835POPC   PO449740   3.715  29.843   5.627
 3835POPC   GL149741   3.732  30.153   5.929
 3835POPC   GL249742   3.419  30.221   5.864
 3835POPC   C1A49743   3.681  30.130   6.384
 3835POPC   D2A49744   3.447  29.707   6.519
 3835POPC   C3A49745   3.485  29.572   6.921
 3835POPC   C4A49746   3.727  29.785   7.222
 3835POPC   C1B49747   3.224  30.030   6.197
 3835POPC   C2B49748   3.234  30.163   6.652
 3835POPC   C3B49749   3.050  29.963   7.003
 3835POPC   C4B49750   3.199  29.724   7.314
 3836POPC   NC349751   4.568  41.856   5.345
 3836POPC   PO449752   4.226  41.271   5.525
 3836POPC   GL149753   4.434  41.422   5.837
 3836POPC   GL249754   4.384  41.763   5.817
 3836POPC   C1A49755   4.284  41.449   6.250
 3836POPC   D2A49756   3.978  41.635   6.537
 3836POPC   C3A49757   3.932  41.515   6.976
 3836POPC   C4A49758   4.208  41.491   7.350
 3836POPC   C1B49759   4.482  41.916   6.230
 3836POPC   C2B49760   4.507  41.701   6.629
 3836POPC   C3B49761   4.461  41.790   7.033
 3836POPC   C4B49762   4.454  42.037   7.410
 3837POPC   NC349763  32.062  30.392   5.434
 3837POPC   PO449764  32.420  30.931   5.466
 3837POPC   GL149765  32.407  30.623   5.794
 3837POPC   GL249766  32.074  30.615   5.875
 3837POPC   C1A49767  32.396  30.466   6.218
 3837POPC   D2A49768  32.591  30.436   6.601
 3837POPC   C3A49769  32.429  30.638   6.938
 3837POPC   C4A49770  32.350  30.480   7.328
 3837POPC   C1B49771  32.077  30.918   6.148
 3837POPC   C2B49772  31.894  30.981   6.522
 3837POPC   C3B49773  31.859  31.038   6.938
 3837POPC   C4B49774  32.140  30.960   7.226
 3838POPC   NC349775   1.192  15.836   5.471
 3838POPC   PO449776   1.614  16.383   5.607
 3838POPC   GL149777   1.284  16.180   5.821
 3838POPC   GL249778   0.963  16.279   5.773
 3838POPC   C1A49779   1.218  15.932   6.185
 3838POPC   D2A49780   1.328  15.740   6.551
 3838POPC   C3A49781   1.252  15.906   6.988
 3838POPC   C4A49782   1.592  15.922   7.302
 3838POPC   C1B49783   0.774  16.174   6.176
 3838POPC   C2B49784   0.869  16.027   6.609
 3838POPC   C3B49785   0.876  16.271   7.005
 3838POPC   C4B49786   1.160  16.315   7.357
 3839POPC   NC349787  30.517  35.684   5.259
 3839POPC   PO449788  30.451  35.166   5.753
 3839POPC   GL149789  30.688  35.540   5.898
 3839POPC   GL249790  30.947  35.663   5.715
 3839POPC   C1A49791  30.793  35.522   6.347
 3839POPC   D2A49792  30.904  35.148   6.594
 3839POPC   C3A49793  30.690  35.114   6.984
 3839POPC   C4A49794  30.921  35.212   7.351
 3839POPC   C1B49795  31.011  35.929   6.113
 3839POPC   C2B49796  31.030  35.916   6.585
 3839POPC   C3B49797  30.942  35.606   6.914
 3839POPC   C4B49798  30.716  35.734   7.265
 3840POPC   NC349799  18.874  32.064   5.374
 3840POPC   PO449800  19.237  31.454   5.458
 3840POPC   GL149801  19.087  31.607   5.835
 3840POPC   GL249802  18.782  31.749   5.768
 3840POPC   C1A49803  19.181  31.410   6.238
 3840POPC   D2A49804  19.327  31.155   6.567
 3840POPC   C3A49805  19.328  31.387   6.936
 3840POPC   C4A49806  19.061  31.410   7.268
 3840POPC   C1B49807  18.721  31.627   6.212
 3840POPC   C2B49808  18.893  31.636   6.651
 3840POPC   C3B49809  18.723  31.708   7.066
 3840POPC   C4B49810  18.761  31.756   7.522
 3841POPC   NC349811  40.884  34.079   5.510
 3841POPC   PO449812  40.487  33.492   5.355
 3841POPC   GL149813  40.599  33.724   5.810
 3841POPC   GL249814  40.856  34.002   5.996
 3841POPC   C1A49815  40.743  33.589   6.238
 3841POPC   D2A49816  40.620  33.857   6.566
 3841POPC   C3A49817  40.820  33.809   6.951
 3841POPC   C4A49818  40.594  33.890   7.309
 3841POPC   C1B49819  41.183  34.274   6.200
 3841POPC   C2B49820  41.094  34.423   6.598
 3841POPC   C3B49821  40.809  34.340   6.910
 3841POPC   C4B49822  41.014  34.177   7.273
 3842POPC   NC349823  38.746   4.493   5.480
 3842POPC   PO449824  38.107   4.135   5.269
 3842POPC   GL149825  38.366   4.170   5.654
 3842POPC   GL249826  38.352   4.483   5.843
 3842POPC   C1A49827  38.398   4.074   6.117
 3842POPC   D2A49828  38.576   3.925   6.479
 3842POPC   C3A49829  38.583   4.179   6.836
 3842POPC   C4A49830  38.754   4.148   7.249
 3842POPC   C1B49831  38.550   4.550   6.265
 3842POPC   C2B49832  38.438   4.703   6.646
 3842POPC   C3B49833  38.318   4.733   7.061
 3842POPC   C4B49834  38.344   4.457   7.418
 3843POPC   NC349835  26.006  19.123   5.408
 3843POPC   PO449836  26.632  19.318   5.500
 3843POPC   GL149837  26.389  19.050   5.814
 3843POPC   GL249838  26.065  19.247   5.896
 3843POPC   C1A49839  26.218  18.948   6.263
 3843POPC   D2A49840  25.997  19.248   6.557
 3843POPC   C3A49841  26.105  19.159   6.979
 3843POPC   C4A49842  26.312  18.860   7.235
 3843POPC   C1B49843  25.710  19.092   6.154
 3843POPC   C2B49844  25.478  19.279   6.493
 3843POPC   C3B49845  25.547  19.211   6.917
 3843POPC   C4B49846  25.721  19.421   7.234
 3844POPC   NC349847  27.353   4.238   5.368
 3844POPC   PO449848  27.926   4.605   5.414
 3844POPC   GL149849  27.670   4.308   5.753
 3844POPC   GL249850  27.388   4.021   5.818
 3844POPC   C1A49851  27.558   4.398   6.181
 3844POPC   D2A49852  27.626   4.614   6.581
 3844POPC   C3A49853  27.610   4.412   6.970
 3844POPC   C4A49854  27.618   4.510   7.381
 3844POPC   C1B49855  27.462   3.854   6.210
 3844POPC   C2B49856  27.446   4.099   6.581
 3844POPC   C3B49857  27.161   4.209   6.888
 3844POPC   C4B49858  27.367   4.076   7.288
 3845POPC   NC349859  24.678  16.932   5.517
 3845POPC   PO449860  24.682  17.572   5.551
 3845POPC   GL149861  24.333  17.480   5.818
 3845POPC   GL249862  24.344  17.123   5.888
 3845POPC   C1A49863  24.314  17.546   6.249
 3845POPC   D2A49864  24.395  17.755   6.644
 3845POPC   C3A49865  24.699  17.820   6.971
 3845POPC   C4A49866  24.592  17.681   7.382
 3845POPC   C1B49867  24.670  17.146   6.208
 3845POPC   C2B49868  24.816  17.324   6.609
 3845POPC   C3B49869  24.650  17.310   7.009
 3845POPC   C4B49870  24.427  17.224   7.390
 3846POPC   NC349871  32.047  25.078   5.648
 3846POPC   PO449872  32.585  25.347   5.435
 3846POPC   GL149873  32.325  25.476   5.839
 3846POPC   GL249874  31.955  25.529   5.867
 3846POPC   C1A49875  32.228  25.251   6.256
 3846POPC   D2A49876  32.413  25.124   6.652
 3846POPC   C3A49877  32.202  25.178   7.046
 3846POPC   C4A49878  32.291  25.023   7.452
 3846POPC   C1B49879  31.994  25.699   6.289
 3846POPC   C2B49880  32.226  25.614   6.685
 3846POPC   C3B49881  32.089  25.662   7.116
 3846POPC   C4B49882  32.090  25.519   7.571
 3847POPC   NC349883  30.144  24.812   5.490
 3847POPC   PO449884  30.065  24.125   5.363
 3847POPC   GL149885  30.007  24.207   5.810
 3847POPC   GL249886  29.923  24.558   5.872
 3847POPC   C1A49887  29.984  24.273   6.285
 3847POPC   D2A49888  29.826  24.470   6.681
 3847POPC   C3A49889  29.888  24.289   7.083
 3847POPC   C4A49890  30.096  24.486   7.442
 3847POPC   C1B49891  29.878  24.792   6.273
 3847POPC   C2B49892  29.783  24.988   6.672
 3847POPC   C3B49893  29.854  24.820   7.092
 3847POPC   C4B49894  29.649  24.771   7.479
 3848POPC   NC349895  16.826  21.709   5.091
 3848POPC   PO449896  16.513  22.208   5.430
 3848POPC   GL149897  16.708  22.189   5.834
 3848POPC   GL249898  17.066  22.113   5.749
 3848POPC   C1A49899  16.658  22.374   6.260
 3848POPC   D2A49900  16.549  22.376   6.718
 3848POPC   C3A49901  16.701  22.006   6.961
 3848POPC   C4A49902  16.836  21.730   7.287
 3848POPC   C1B49903  17.156  22.239   6.172
 3848POPC   C2B49904  17.146  22.367   6.622
 3848POPC   C3B49905  16.947  22.463   7.020
 3848POPC   C4B49906  16.866  22.272   7.400
 3849POPC   NC349907  20.660  17.788   5.445
 3849POPC   PO449908  20.263  17.255   5.525
 3849POPC   GL149909  20.580  17.443   5.855
 3849POPC   GL249910  20.845  17.722   5.911
 3849POPC   C1A49911  20.696  17.469   6.308
 3849POPC   D2A49912  20.681  17.594   6.755
 3849POPC   C3A49913  20.826  17.294   7.044
 3849POPC   C4A49914  21.060  17.005   7.307
 3849POPC   C1B49915  20.910  17.947   6.324
 3849POPC   C2B49916  20.842  18.178   6.693
 3849POPC   C3B49917  20.905  18.091   7.092
 3849POPC   C4B49918  20.730  17.756   7.303
 3850POPC   NC349919  44.175  42.138   5.543
 3850POPC   PO449920  43.554  42.345   5.523
 3850POPC   GL149921  43.868  42.500   5.811
 3850POPC   GL249922  44.240  42.588   5.811
 3850POPC   C1A49923  43.872  42.476   6.249
 3850POPC   D2A49924  43.959  42.561   6.660
 3850POPC   C3A49925  43.634  42.383   6.927
 3850POPC   C4A49926  43.647  42.416   7.336
 3850POPC   C1B49927  44.311  42.242   6.152
 3850POPC   C2B49928  44.307  42.153   6.571
 3850POPC   C3B49929  44.141  42.200   7.006
 3850POPC   C4B49930  43.894  41.968   7.229
 3851POPC   NC349931   8.349  28.298   5.523
 3851POPC   PO449932   7.743  28.727   5.442
 3851POPC   GL149933   7.911  28.526   5.827
 3851POPC   GL249934   8.284  28.420   6.001
 3851POPC   C1A49935   7.847  28.436   6.239
 3851POPC   D2A49936   8.111  28.571   6.554
 3851POPC   C3A49937   8.087  28.467   7.001
 3851POPC   C4A49938   8.418  28.565   7.307
 3851POPC   C1B49939   8.165  28.043   6.289
 3851POPC   C2B49940   7.979  28.033   6.697
 3851POPC   C3B49941   8.179  27.968   7.103
 3851POPC   C4B49942   8.270  28.139   7.543
 3852POPC   NC349943  33.900  41.701   5.365
 3852POPC   PO449944  33.873  41.076   5.230
 3852POPC   GL149945  33.769  41.370   5.696
 3852POPC   GL249946  34.052  41.582   5.842
 3852POPC   C1A49947  33.704  41.377   6.146
 3852POPC   D2A49948  33.621  41.598   6.514
 3852POPC   C3A49949  33.838  41.428   6.785
 3852POPC   C4A49950  34.023  41.495   7.145
 3852POPC   C1B49951  34.176  41.776   6.258
 3852POPC   C2B49952  34.239  41.749   6.741
 3852POPC   C3B49953  34.339  41.872   7.194
 3852POPC   C4B49954  34.096  41.984   7.574
 3853POPC   NC349955  28.496   6.811   5.483
 3853POPC   PO449956  28.018   6.354   5.468
 3853POPC   GL149957  28.239   6.500   5.820
 3853POPC   GL249958  28.200   6.864   5.904
 3853POPC   C1A49959  28.285   6.419   6.246
 3853POPC   D2A49960  28.454   6.493   6.612
 3853POPC   C3A49961  28.200   6.555   6.907
 3853POPC   C4A49962  28.296   6.463   7.284
 3853POPC   C1B49963  28.368   6.960   6.328
 3853POPC   C2B49964  28.457   6.991   6.781
 3853POPC   C3B49965  28.369   6.981   7.233
 3853POPC   C4B49966  28.524   6.813   7.632
 3854POPC   NC349967  10.016  10.261   5.510
 3854POPC   PO449968   9.369  10.572   5.434
 3854POPC   GL149969   9.535  10.544   5.816
 3854POPC   GL249970   9.451  10.867   5.934
 3854POPC   C1A49971   9.653  10.430   6.246
 3854POPC   D2A49972   9.368  10.416   6.602
 3854POPC   C3A49973   9.449  10.253   7.013
 3854POPC   C4A49974   9.839  10.310   7.225
 3854POPC   C1B49975   9.896  10.853   6.018
 3854POPC   C2B49976   9.979  10.825   6.446
 3854POPC   C3B49977   9.977  10.660   6.866
 3854POPC   C4B49978  10.014  10.837   7.269
 3855POPC   NC349979  29.047  26.174   5.427
 3855POPC   PO449980  29.134  25.522   5.460
 3855POPC   GL149981  29.156  25.843   5.808
 3855POPC   GL249982  29.472  25.897   5.981
 3855POPC   C1A49983  29.050  26.082   6.207
 3855POPC   D2A49984  29.298  25.988   6.574
 3855POPC   C3A49985  29.145  25.978   7.009
 3855POPC   C4A49986  29.314  25.999   7.427
 3855POPC   C1B49987  29.459  26.362   6.157
 3855POPC   C2B49988  29.181  26.510   6.504
 3855POPC   C3B49989  29.330  26.454   6.942
 3855POPC   C4B49990  29.407  26.531   7.392
 3856POPC   NC349991   0.674  39.900   5.086
 3856POPC   PO449992   0.311  40.307   5.582
 3856POPC   GL149993   0.342  40.079   5.961
 3856POPC   GL249994   0.055  39.921   6.015
 3856POPC   C1A49995   0.415  40.004   6.380
 3856POPC   D2A49996   0.421  39.649   6.693
 3856POPC   C3A49997   0.412  39.837   7.056
 3856POPC   C4A49998   0.547  40.157   7.285
 3856POPC   C1B49999   0.032  40.352   6.251
 3856POPC   C2B50000   0.086  40.459   6.701
 3856POPC   C3B50001   0.091  40.209   7.083
 3856POPC   C4B50002   0.112  40.242   7.536
 3857POPC   NC350003  27.696  17.972   5.420
 3857POPC   PO450004  27.158  18.284   5.630
 3857POPC   GL150005  27.507  18.402   5.891
 3857POPC   GL250006  27.785  18.168   5.879
 3857POPC   C1A50007  27.408  18.529   6.301
 3857POPC   D2A50008  27.205  18.250   6.546
 3857POPC   C3A50009  27.344  18.303   6.943
 3857POPC   C4A50010  27.494  17.992   7.200
 3857POPC   C1B50011  27.912  18.425   6.220
 3857POPC   C2B50012  27.825  18.404   6.666
 3857POPC   C3B50013  27.902  18.354   7.090
 3857POPC   C4B50014  28.021  17.959   7.236
 3858POPC   NC350015   1.205  42.630   5.458
 3858POPC   PO450016   0.929  42.025   5.327
 3858POPC   GL150017   0.921  42.283   5.687
 3858POPC   GL250018   1.303  42.217   5.756
 3858POPC   C1A50019   0.994  42.488   6.069
 3858POPC   D2A50020   1.132  42.546   6.467
 3858POPC   C3A50021   0.925  42.617   6.869
 3858POPC   C4A50022   1.053  42.371   7.187
 3858POPC   C1B50023   1.494  42.330   6.144
 3858POPC   C2B50024   1.599  42.341   6.581
 3858POPC   C3B50025   1.563  42.309   7.013
 3858POPC   C4B50026   1.765  42.455   7.377
 3859POPC   NC350027   2.610   0.516   5.339
 3859POPC   PO450028   3.265   0.440   5.243
 3859POPC   GL150029   3.144   0.578   5.701
 3859POPC   GL250030   2.792   0.550   5.804
 3859POPC   C1A50031   3.129   0.485   6.182
 3859POPC   D2A50032   2.913   0.278   6.557
 3859POPC   C3A50033   3.021   0.351   7.003
 3859POPC   C4A50034   2.841   0.200   7.392
 3859POPC   C1B50035   2.509   0.613   6.134
 3859POPC   C2B50036   2.549   0.662   6.551
 3859POPC   C3B50037   2.536   0.464   6.933
 3859POPC   C4B50038   2.537   0.639   7.312
 3860POPC   NC350039   0.461  43.259   5.680
 3860POPC   PO450040   0.821  42.818   5.302
 3860POPC   GL150041   0.616  42.777   5.752
 3860POPC   GL250042   0.259  42.884   5.942
 3860POPC   C1A50043   0.652  42.810   6.226
 3860POPC   D2A50044   0.879  43.010   6.548
 3860POPC   C3A50045   0.627  43.110   6.869
 3860POPC   C4A50046   0.318  42.823   7.068
 3860POPC   C1B50047   0.318  43.204   6.299
 3860POPC   C2B50048   0.157  43.222   6.694
 3860POPC   C3B50049   0.204  43.304   7.104
 3860POPC   C4B50050   0.159  43.153   7.515
 3861POPC   NC350051  40.259  19.035   5.327
 3861POPC   PO450052  40.852  19.041   5.288
 3861POPC   GL150053  40.759  18.948   5.734
 3861POPC   GL250054  40.787  18.608   5.756
 3861POPC   C1A50055  40.657  19.001   6.209
 3861POPC   D2A50056  40.528  19.098   6.688
 3861POPC   C3A50057  40.829  19.248   7.029
 3861POPC   C4A50058  40.942  19.001   7.465
 3861POPC   C1B50059  41.012  18.623   6.166
 3861POPC   C2B50060  41.017  18.872   6.565
 3861POPC   C3B50061  41.094  18.831   7.018
 3861POPC   C4B50062  41.399  19.093   7.290
 3862POPC   NC350063   5.656  40.465   5.498
 3862POPC   PO450064   5.506  41.141   5.501
 3862POPC   GL150065   5.778  40.900   5.850
 3862POPC   GL250066   5.827  40.551   5.949
 3862POPC   C1A50067   5.886  40.904   6.303
 3862POPC   D2A50068   5.738  40.759   6.722
 3862POPC   C3A50069   5.858  40.993   7.094
 3862POPC   C4A50070   6.189  41.217   7.315
 3862POPC   C1B50071   5.713  40.341   6.318
 3862POPC   C2B50072   5.480  40.248   6.668
 3862POPC   C3B50073   5.543  40.305   7.088
 3862POPC   C4B50074   5.774  40.545   7.309
 3863POPC   NC350075  19.868  29.615   5.408
 3863POPC   PO450076  19.988  30.285   5.520
 3863POPC   GL150077  19.917  29.973   5.816
 3863POPC   GL250078  20.146  29.719   5.916
 3863POPC   C1A50079  19.642  29.731   6.059
 3863POPC   D2A50080  19.582  29.625   6.493
 3863POPC   C3A50081  19.847  29.802   6.805
 3863POPC   C4A50082  19.707  29.773   7.236
 3863POPC   C1B50083  20.048  29.903   6.340
 3863POPC   C2B50084  20.179  30.247   6.677
 3863POPC   C3B50085  20.290  30.284   7.140
 3863POPC   C4B50086  20.088  30.016   7.477
 3864POPC   NC350087   5.351   0.380   5.512
 3864POPC   PO450088   4.784   0.703   5.595
 3864POPC   GL150089   5.090   0.687   5.905
 3864POPC   GL250090   5.059   0.347   5.965
 3864POPC   C1A50091   5.112   0.686   6.358
 3864POPC   D2A50092   4.945   0.405   6.669
 3864POPC   C3A50093   5.109   0.576   7.037
 3864POPC   C4A50094   5.071   0.517   7.444
 3864POPC   C1B50095   5.289   0.193   6.329
 3864POPC   C2B50096   5.423   0.253   6.768
 3864POPC   C3B50097   5.336   0.130   7.214
 3864POPC   C4B50098   5.376   0.056   7.700
 3865POPC   NC350099  12.038  38.011   5.546
 3865POPC   PO450100  12.227  37.325   5.414
 3865POPC   GL150101  12.241  37.502   5.797
 3865POPC   GL250102  12.009  37.284   5.955
 3865POPC   C1A50103  12.289  37.774   6.166
 3865POPC   D2A50104  12.094  37.883   6.578
 3865POPC   C3A50105  12.262  38.039   6.984
 3865POPC   C4A50106  12.059  37.834   7.355
 3865POPC   C1B50107  11.994  37.408   6.356
 3865POPC   C2B50108  11.901  37.447   6.768
 3865POPC   C3B50109  12.109  37.370   7.135
 3865POPC   C4B50110  11.902  37.369   7.526
 3866POPC   NC350111  11.896  42.385   5.309
 3866POPC   PO450112  12.319  41.933   5.264
 3866POPC   GL150113  11.954  42.005   5.632
 3866POPC   GL250114  11.953  42.366   5.815
 3866POPC   C1A50115  11.893  41.969   6.117
 3866POPC   D2A50116  11.844  42.154   6.543
 3866POPC   C3A50117  12.165  42.052   6.860
 3866POPC   C4A50118  12.255  42.151   7.295
 3866POPC   C1B50119  12.117  42.553   6.218
 3866POPC   C2B50120  12.339  42.747   6.588
 3866POPC   C3B50121  12.176  42.570   6.999
 3866POPC   C4B50122  11.776  42.319   7.079
 3867POPC   NC350123  26.543  18.315   5.318
 3867POPC   PO450124  27.082  18.570   5.184
 3867POPC   GL150125  26.772  18.581   5.691
 3867POPC   GL250126  26.679  18.253   5.824
 3867POPC   C1A50127  26.850  18.588   6.189
 3867POPC   D2A50128  26.584  18.718   6.572
 3867POPC   C3A50129  26.613  18.551   6.979
 3867POPC   C4A50130  26.666  18.513   7.418
 3867POPC   C1B50131  26.758  18.073   6.242
 3867POPC   C2B50132  26.728  18.166   6.682
 3867POPC   C3B50133  26.603  18.044   7.101
 3867POPC   C4B50134  26.815  17.893   7.461
 3868POPC   NC350135  18.097  28.804   5.369
 3868POPC   PO450136  18.253  28.125   5.400
 3868POPC   GL150137  18.321  28.250   5.822
 3868POPC   GL250138  18.347  28.600   5.781
 3868POPC   C1A50139  18.125  28.272   6.253
 3868POPC   D2A50140  18.273  28.115   6.651
 3868POPC   C3A50141  18.076  28.177   7.049
 3868POPC   C4A50142  18.340  28.200   7.426
 3868POPC   C1B50143  18.392  28.703   6.230
 3868POPC   C2B50144  18.165  28.632   6.630
 3868POPC   C3B50145  18.242  28.667   7.068
 3868POPC   C4B50146  17.970  28.961   7.251
 3869POPC   NC350147  20.401  15.258   5.443
 3869POPC   PO450148  20.985  14.996   5.344
 3869POPC   GL150149  20.807  15.144   5.782
 3869POPC   GL250150  20.537  15.388   5.908
 3869POPC   C1A50151  20.849  15.042   6.231
 3869POPC   D2A50152  20.679  14.958   6.674
 3869POPC   C3A50153  20.771  15.283   7.012
 3869POPC   C4A50154  20.701  15.635   7.307
 3869POPC   C1B50155  20.323  15.095   6.173
 3869POPC   C2B50156  20.145  15.082   6.565
 3869POPC   C3B50157  20.265  15.087   6.972
 3869POPC   C4B50158  20.332  15.254   7.357
 3870POPC   NC350159   5.974  41.133   5.443
 3870POPC   PO450160   5.931  41.838   5.516
 3870POPC   GL150161   5.927  41.482   5.849
 3870POPC   GL250162   5.609  41.350   6.010
 3870POPC   C1A50163   6.092  41.395   6.269
 3870POPC   D2A50164   6.025  41.223   6.669
 3870POPC   C3A50165   5.975  41.510   6.943
 3870POPC   C4A50166   5.992  41.705   7.301
 3870POPC   C1B50167   5.408  41.686   6.255
 3870POPC   C2B50168   5.378  41.933   6.659
 3870POPC   C3B50169   5.553  41.789   7.053
 3870POPC   C4B50170   5.534  41.801   7.535
 3871POPC   NC350171  33.382  42.156   5.371
 3871POPC   PO450172  32.892  42.531   5.290
 3871POPC   GL150173  33.117  42.475   5.731
 3871POPC   GL250174  33.372  42.288   5.891
 3871POPC   C1A50175  33.114  42.636   6.174
 3871POPC   D2A50176  33.065  42.464   6.603
 3871POPC   C3A50177  32.948  42.699   6.946
 3871POPC   C4A50178  32.947  42.623   7.359
 3871POPC   C1B50179  33.185  42.095   6.258
 3871POPC   C2B50180  33.343  42.036   6.677
 3871POPC   C3B50181  33.236  42.132   7.101
 3871POPC   C4B50182  33.156  41.782   7.357
 3872POPC   NC350183   4.997  40.953   5.323
 3872POPC   PO450184   5.239  40.307   5.316
 3872POPC   GL150185   5.056  40.594   5.659
 3872POPC   GL250186   5.281  40.792   5.793
 3872POPC   C1A50187   4.907  40.619   6.111
 3872POPC   D2A50188   4.649  40.592   6.512
 3872POPC   C3A50189   4.802  40.619   6.974
 3872POPC   C4A50190   5.066  40.383   7.257
 3872POPC   C1B50191   5.405  40.728   6.224
 3872POPC   C2B50192   5.231  40.710   6.646
 3872POPC   C3B50193   5.350  40.794   7.080
 3872POPC   C4B50194   5.152  41.061   7.373
 3873POPC   NC350195  30.991  20.602   5.458
 3873POPC   PO450196  30.538  20.991   5.448
 3873POPC   GL150197  30.574  20.672   5.817
 3873POPC   GL250198  30.610  20.309   5.703
 3873POPC   C1A50199  30.734  20.585   6.276
 3873POPC   D2A50200  30.988  20.500   6.703
 3873POPC   C3A50201  30.835  20.699   7.117
 3873POPC   C4A50202  31.155  20.834   7.448
 3873POPC   C1B50203  30.499  20.141   6.122
 3873POPC   C2B50204  30.622  20.170   6.575
 3873POPC   C3B50205  30.450  20.288   6.994
 3873POPC   C4B50206  30.249  20.682   7.179
 3874POPC   NC350207  34.623  36.831   5.680
 3874POPC   PO450208  34.595  37.478   5.551
 3874POPC   GL150209  34.583  37.254   5.963
 3874POPC   GL250210  34.343  36.921   6.077
 3874POPC   C1A50211  34.757  37.102   6.340
 3874POPC   D2A50212  34.446  37.024   6.648
 3874POPC   C3A50213  34.582  36.677   6.843
 3874POPC   C4A50214  34.782  36.596   7.212
 3874POPC   C1B50215  34.121  37.261   6.210
 3874POPC   C2B50216  34.095  37.416   6.605
 3874POPC   C3B50217  34.346  37.379   7.024
 3874POPC   C4B50218  34.397  36.945   7.234
 3875POPC   NC350219  22.350  14.413   5.284
 3875POPC   PO450220  21.700  14.486   5.551
 3875POPC   GL150221  21.951  14.355   5.855
 3875POPC   GL250222  22.304  14.395   5.782
 3875POPC   C1A50223  21.921  14.489   6.277
 3875POPC   D2A50224  22.141  14.725   6.573
 3875POPC   C3A50225  22.241  14.535   6.922
 3875POPC   C4A50226  22.313  14.673   7.310
 3875POPC   C1B50227  22.430  14.448   6.195
 3875POPC   C2B50228  22.393  14.182   6.543
 3875POPC   C3B50229  22.615  14.186   6.908
 3875POPC   C4B50230  22.370  14.171   7.258
 3876POPC   NC350231  33.472  23.049   5.327
 3876POPC   PO450232  32.734  23.015   5.351
 3876POPC   GL150233  32.871  23.074   5.784
 3876POPC   GL250234  33.018  22.785   5.955
 3876POPC   C1A50235  32.953  23.226   6.207
 3876POPC   D2A50236  33.103  23.124   6.614
 3876POPC   C3A50237  32.939  23.261   6.985
 3876POPC   C4A50238  33.006  23.067   7.344
 3876POPC   C1B50239  33.301  22.733   6.306
 3876POPC   C2B50240  33.314  22.614   6.688
 3876POPC   C3B50241  33.040  22.692   6.981
 3876POPC   C4B50242  33.304  22.638   7.314
 3877POPC   NC350243  11.534  39.063   5.495
 3877POPC   PO450244  10.979  39.411   5.544
 3877POPC   GL150245  11.268  39.286   5.878
 3877POPC   GL250246  11.284  38.920   5.906
 3877POPC   C1A50247  11.573  39.283   6.231
 3877POPC   D2A50248  11.691  39.327   6.685
 3877POPC   C3A50249  11.294  39.413   6.911
 3877POPC   C4A50250  11.113  39.827   6.915
 3877POPC   C1B50251  11.359  38.821   6.313
 3877POPC   C2B50252  11.152  38.927   6.680
 3877POPC   C3B50253  11.404  38.908   7.034
 3877POPC   C4B50254  11.330  39.029   7.440
 3878POPC   NC350255   8.140  39.828   5.097
 3878POPC   PO450256   8.497  40.264   5.426
 3878POPC   GL150257   8.326  40.214   5.832
 3878POPC   GL250258   8.641  40.356   5.930
 3878POPC   C1A50259   8.073  40.049   6.212
 3878POPC   D2A50260   8.079  39.709   6.542
 3878POPC   C3A50261   8.171  39.868   6.975
 3878POPC   C4A50262   8.009  39.843   7.398
 3878POPC   C1B50263   8.372  40.472   6.277
 3878POPC   C2B50264   8.327  40.317   6.716
 3878POPC   C3B50265   8.573  40.462   7.087
 3878POPC   C4B50266   8.388  40.188   7.355
 3879POPC   NC350267   0.395  15.560   5.304
 3879POPC   PO450268   0.360  14.957   5.590
 3879POPC   GL150269   0.419  15.144   5.940
 3879POPC   GL250270   0.342  15.482   5.866
 3879POPC   C1A50271   0.453  14.968   6.332
 3879POPC   D2A50272   0.291  15.145   6.672
 3879POPC   C3A50273   0.453  15.204   7.031
 3879POPC   C4A50274   0.277  14.816   7.137
 3879POPC   C1B50275   0.356  15.516   6.334
 3879POPC   C2B50276   0.184  15.624   6.777
 3879POPC   C3B50277   0.212  15.627   7.258
 3879POPC   C4B50278   0.327  15.780   7.704
 3880POPC   NC350279   8.040  16.284   5.354
 3880POPC   PO450280   8.550  15.948   5.594
 3880POPC   GL150281   8.247  16.140   5.848
 3880POPC   GL250282   7.888  16.182   5.860
 3880POPC   C1A50283   8.283  16.183   6.261
 3880POPC   D2A50284   8.406  16.275   6.663
 3880POPC   C3A50285   8.088  16.177   6.962
 3880POPC   C4A50286   8.241  16.049   7.335
 3880POPC   C1B50287   7.930  15.831   6.160
 3880POPC   C2B50288   8.114  15.828   6.586
 3880POPC   C3B50289   7.996  15.675   7.012
 3880POPC   C4B50290   7.939  15.689   7.497
 3881POPC   NC350291  24.890  13.644   5.404
 3881POPC   PO450292  24.452  13.165   5.484
 3881POPC   GL150293  24.681  13.367   5.868
 3881POPC   GL250294  24.857  13.691   5.906
 3881POPC   C1A50295  24.610  13.529   6.318
 3881POPC   D2A50296  24.280  13.589   6.654
 3881POPC   C3A50297  24.324  13.376   7.047
 3881POPC   C4A50298  24.701  13.530   7.204
 3881POPC   C1B50299  24.664  14.014   6.164
 3881POPC   C2B50300  24.546  14.027   6.571
 3881POPC   C3B50301  24.637  14.197   6.960
 3881POPC   C4B50302  24.439  14.123   7.296
 3882POPC   NC350303  26.119  17.305   5.388
 3882POPC   PO450304  26.400  17.934   5.542
 3882POPC   GL150305  26.056  17.654   5.763
 3882POPC   GL250306  25.845  17.868   6.010
 3882POPC   C1A50307  25.905  17.370   6.091
 3882POPC   D2A50308  25.961  17.551   6.495
 3882POPC   C3A50309  25.983  17.351   6.898
 3882POPC   C4A50310  26.202  17.376   7.278
 3882POPC   C1B50311  26.253  17.898   6.206
 3882POPC   C2B50312  26.405  17.789   6.597
 3882POPC   C3B50313  26.140  17.854   6.951
 3882POPC   C4B50314  26.196  17.871   7.390
 3883POPC   NC350315  27.148  14.046   5.629
 3883POPC   PO450316  26.575  13.671   5.655
 3883POPC   GL150317  26.830  13.431   5.951
 3883POPC   GL250318  27.149  13.611   5.904
 3883POPC   C1A50319  26.811  13.377   6.419
 3883POPC   D2A50320  26.543  13.352   6.772
 3883POPC   C3A50321  26.743  13.441   7.121
 3883POPC   C4A50322  26.906  13.822   7.205
 3883POPC   C1B50323  27.242  13.702   6.354
 3883POPC   C2B50324  27.165  13.550   6.791
 3883POPC   C3B50325  27.255  13.439   7.222
 3883POPC   C4B50326  27.170  13.637   7.630
 3884POPC   NC350327  42.884  38.424   5.493
 3884POPC   PO450328  43.535  38.438   5.439
 3884POPC   GL150329  43.276  38.645   5.801
 3884POPC   GL250330  42.931  38.557   5.974
 3884POPC   C1A50331  43.320  38.641   6.267
 3884POPC   D2A50332  43.067  38.497   6.636
 3884POPC   C3A50333  43.045  38.489   7.114
 3884POPC   C4A50334  43.291  38.543   7.497
 3884POPC   C1B50335  42.776  38.221   6.266
 3884POPC   C2B50336  42.793  38.014   6.685
 3884POPC   C3B50337  42.726  38.037   7.139
 3884POPC   C4B50338  42.743  37.962   7.593
 3885POPC   NC350339  11.211  38.104   5.549
 3885POPC   PO450340  11.583  38.614   5.550
 3885POPC   GL150341  11.367  38.419   5.907
 3885POPC   GL250342  10.975  38.452   5.874
 3885POPC   C1A50343  11.261  38.304   6.299
 3885POPC   D2A50344  11.357  38.445   6.706
 3885POPC   C3A50345  11.256  38.090   6.955
 3885POPC   C4A50346  11.449  38.098   7.339
 3885POPC   C1B50347  10.883  38.646   6.290
 3885POPC   C2B50348  10.843  38.492   6.730
 3885POPC   C3B50349  11.071  38.529   7.151
 3885POPC   C4B50350  11.062  38.583   7.620
 3886POPC   NC350351  22.451  22.648   5.461
 3886POPC   PO450352  22.227  21.986   5.390
 3886POPC   GL150353  22.207  22.161   5.809
 3886POPC   GL250354  21.948  21.962   5.997
 3886POPC   C1A50355  22.437  22.192   6.210
 3886POPC   D2A50356  22.452  22.064   6.662
 3886POPC   C3A50357  22.283  22.334   6.995
 3886POPC   C4A50358  22.212  22.374   7.467
 3886POPC   C1B50359  21.941  22.188   6.412
 3886POPC   C2B50360  21.796  22.259   6.842
 3886POPC   C3B50361  21.880  22.003   7.171
 3886POPC   C4B50362  22.290  21.866   7.285
 3887POPC   NC350363   0.958  13.916   5.456
 3887POPC   PO450364   1.007  13.252   5.445
 3887POPC   GL150365   1.039  13.482   5.852
 3887POPC   GL250366   0.931  13.834   5.956
 3887POPC   C1A50367   1.114  13.425   6.290
 3887POPC   D2A50368   1.177  13.606   6.690
 3887POPC   C3A50369   1.111  13.345   7.009
 3887POPC   C4A50370   0.995  13.203   7.399
 3887POPC   C1B50371   1.256  13.921   6.275
 3887POPC   C2B50372   1.322  14.103   6.705
 3887POPC   C3B50373   1.256  13.916   7.128
 3887POPC   C4B50374   1.354  13.574   7.409
 3888POPC   NC350375  33.769  35.557   5.410
 3888POPC   PO450376  34.193  35.054   5.537
 3888POPC   GL150377  33.925  35.270   5.826
 3888POPC   GL250378  34.075  35.573   5.845
 3888POPC   C1A50379  33.624  35.298   6.189
 3888POPC   D2A50380  33.398  35.494   6.563
 3888POPC   C3A50381  33.456  35.277   6.932
 3888POPC   C4A50382  33.500  35.409   7.330
 3888POPC   C1B50383  34.095  35.525   6.271
 3888POPC   C2B50384  33.897  35.384   6.654
 3888POPC   C3B50385  33.835  35.642   7.015
 3888POPC   C4B50386  33.927  35.613   7.487
 3889POPC   NC350387   9.139  13.049   5.501
 3889POPC   PO450388   8.521  12.837   5.406
 3889POPC   GL150389   8.765  12.895   5.791
 3889POPC   GL250390   9.011  12.603   5.838
 3889POPC   C1A50391   9.030  13.041   6.171
 3889POPC   D2A50392   9.123  12.762   6.527
 3889POPC   C3A50393   9.045  12.938   6.947
 3889POPC   C4A50394   9.004  13.305   7.202
 3889POPC   C1B50395   8.731  12.637   6.218
 3889POPC   C2B50396   8.717  12.475   6.655
 3889POPC   C3B50397   8.931  12.448   7.055
 3889POPC   C4B50398   9.350  12.591   7.201
 3890POPC   NC350399  31.367  22.199   5.069
 3890POPC   PO450400  30.938  21.966   5.486
 3890POPC   GL150401  31.268  22.049   5.870
 3890POPC   GL250402  31.636  22.182   5.830
 3890POPC   C1A50403  31.341  22.138   6.362
 3890POPC   D2A50404  31.533  22.376   6.756
 3890POPC   C3A50405  31.374  22.362   7.211
 3890POPC   C4A50406  31.090  22.155   7.519
 3890POPC   C1B50407  31.841  22.139   6.269
 3890POPC   C2B50408  31.783  21.938   6.697
 3890POPC   C3B50409  31.804  22.091   7.133
 3890POPC   C4B50410  31.618  22.090   7.594
 3891POPC   NC350411  31.505  16.090   5.415
 3891POPC   PO450412  31.735  15.490   5.606
 3891POPC   GL150413  31.451  15.718   5.897
 3891POPC   GL250414  31.378  16.103   5.941
 3891POPC   C1A50415  31.536  15.719   6.336
 3891POPC   D2A50416  31.745  15.710   6.746
 3891POPC   C3A50417  31.528  15.922   7.085
 3891POPC   C4A50418  31.730  16.245   7.321
 3891POPC   C1B50419  31.213  16.302   6.366
 3891POPC   C2B50420  31.243  16.333   6.849
 3891POPC   C3B50421  31.220  16.313   7.312
 3891POPC   C4B50422  31.171  16.334   7.785
 3892POPC   NC350423  14.316  28.125   5.516
 3892POPC   PO450424  14.256  28.733   5.567
 3892POPC   GL150425  14.279  28.517   5.917
 3892POPC   GL250426  14.630  28.387   5.904
 3892POPC   C1A50427  14.385  28.609   6.332
 3892POPC   D2A50428  14.760  28.480   6.484
 3892POPC   C3A50429  14.717  28.417   6.897
 3892POPC   C4A50430  14.303  28.558   7.073
 3892POPC   C1B50431  14.457  28.104   6.237
 3892POPC   C2B50432  14.291  28.206   6.653
 3892POPC   C3B50433  14.382  28.036   7.048
 3892POPC   C4B50434  14.577  28.093   7.452
 3893POPC   NC350435  17.609  41.547   5.404
 3893POPC   PO450436  17.986  41.796   5.847
 3893POPC   GL150437  17.662  41.565   6.035
 3893POPC   GL250438  17.441  41.368   5.876
 3893POPC   C1A50439  17.548  41.474   6.438
 3893POPC   D2A50440  17.583  41.593   6.853
 3893POPC   C3A50441  17.708  41.286   7.165
 3893POPC   C4A50442  17.860  41.432   7.581
 3893POPC   C1B50443  17.122  41.316   6.202
 3893POPC   C2B50444  17.171  41.195   6.640
 3893POPC   C3B50445  17.169  41.347   7.066
 3893POPC   C4B50446  17.387  41.655   7.344
 3894POPC   NC350447  10.970  10.908   5.539
 3894POPC   PO450448  10.357  10.527   5.290
 3894POPC   GL150449  10.433  10.433   5.736
 3894POPC   GL250450  10.716  10.555   5.852
 3894POPC   C1A50451  10.213  10.444   6.137
 3894POPC   D2A50452  10.370  10.504   6.558
 3894POPC   C3A50453  10.250  10.225   6.858
 3894POPC   C4A50454  10.331  10.417   7.257
 3894POPC   C1B50455  10.726  10.310   6.256
 3894POPC   C2B50456  10.684   9.986   6.597
 3894POPC   C3B50457  10.712  10.098   7.048
 3894POPC   C4B50458  10.825  10.508   7.286
 3895POPC   NC350459  10.231   9.387   5.517
 3895POPC   PO450460   9.623   9.036   5.245
 3895POPC   GL150461   9.614   8.869   5.649
 3895POPC   GL250462   9.919   9.041   5.815
 3895POPC   C1A50463   9.504   8.825   6.072
 3895POPC   D2A50464   9.780   8.919   6.414
 3895POPC   C3A50465   9.647   8.972   6.821
 3895POPC   C4A50466   9.681   8.953   7.251
 3895POPC   C1B50467  10.054   9.304   6.193
 3895POPC   C2B50468  10.170   9.205   6.635
 3895POPC   C3B50469  10.047   9.270   7.059
 3895POPC   C4B50470  10.082   9.443   7.464
 3896POPC   NC350471   9.333  28.090   5.594
 3896POPC   PO450472   8.908  28.478   5.195
 3896POPC   GL150473   8.902  28.450   5.702
 3896POPC   GL250474   8.772  28.124   5.825
 3896POPC   C1A50475   8.960  28.561   6.198
 3896POPC   D2A50476   8.968  28.387   6.671
 3896POPC   C3A50477   8.883  28.642   7.057
 3896POPC   C4A50478   8.833  28.779   7.505
 3896POPC   C1B50479   8.671  28.136   6.290
 3896POPC   C2B50480   8.469  28.209   6.704
 3896POPC   C3B50481   8.651  28.170   7.096
 3896POPC   C4B50482   9.106  28.214   7.198
 3897POPC   NC350483  33.167   2.495   5.642
 3897POPC   PO450484  32.967   3.036   5.281
 3897POPC   GL150485  32.840   2.948   5.763
 3897POPC   GL250486  32.696   2.631   5.849
 3897POPC   C1A50487  32.975   2.835   6.226
 3897POPC   D2A50488  33.213   2.954   6.576
 3897POPC   C3A50489  33.291   2.660   6.906
 3897POPC   C4A50490  33.119   2.827   7.276
 3897POPC   C1B50491  32.667   2.451   6.299
 3897POPC   C2B50492  32.776   2.669   6.703
 3897POPC   C3B50493  32.770   2.490   7.109
 3897POPC   C4B50494  32.797   2.557   7.573
 3898POPC   NC350495  42.376   0.265   5.229
 3898POPC   PO450496  42.298   0.924   5.354
 3898POPC   GL150497  42.390   0.577   5.618
 3898POPC   GL250498  42.493   0.767   5.850
 3898POPC   C1A50499  42.374   0.289   5.990
 3898POPC   D2A50500  42.553   0.428   6.410
 3898POPC   C3A50501  42.367   0.519   6.807
 3898POPC   C4A50502  42.540   0.269   7.128
 3898POPC   C1B50503  42.189   0.728   6.199
 3898POPC   C2B50504  42.018   0.838   6.589
 3898POPC   C3B50505  41.984   0.864   7.034
 3898POPC   C4B50506  42.137   0.537   7.281
 3899POPC   NC350507  15.756  40.281   5.470
 3899POPC   PO450508  15.728  39.556   5.373
 3899POPC   GL150509  15.755  39.841   5.762
 3899POPC   GL250510  15.480  39.984   5.828
 3899POPC   C1A50511  15.951  39.796   6.209
 3899POPC   D2A50512  16.105  40.055   6.555
 3899POPC   C3A50513  15.966  39.907   6.960
 3899POPC   C4A50514  16.123  40.065   7.332
 3899POPC   C1B50515  15.662  40.217   6.195
 3899POPC   C2B50516  15.601  40.106   6.626
 3899POPC   C3B50517  15.651  40.338   6.993
 3899POPC   C4B50518  15.644  40.186   7.399
 3900POPC   NC350519  34.914  10.765   5.468
 3900POPC   PO450520  34.438  10.395   5.402
 3900POPC   GL150521  34.693  10.418   5.802
 3900POPC   GL250522  34.575  10.746   5.845
 3900POPC   C1A50523  34.814  10.579   6.252
 3900POPC   D2A50524  34.559  10.496   6.615
 3900POPC   C3A50525  34.659  10.359   7.036
 3900POPC   C4A50526  34.757  10.723   7.263
 3900POPC   C1B50527  34.298  10.684   6.199
 3900POPC   C2B50528  34.068  10.619   6.582
 3900POPC   C3B50529  34.246  10.719   6.965
 3900POPC   C4B50530  34.182  10.607   7.324
 3901POPC   NC350531   9.867   4.623   5.101
 3901POPC   PO450532   9.679   5.242   5.276
 3901POPC   GL150533   9.561   5.139   5.768
 3901POPC   GL250534   9.852   5.207   5.990
 3901POPC   C1A50535   9.405   5.175   6.226
 3901POPC   D2A50536   9.398   4.927   6.610
 3901POPC   C3A50537   9.615   4.970   6.965
 3901POPC   C4A50538   9.551   5.354   7.169
 3901POPC   C1B50539   9.904   5.021   6.360
 3901POPC   C2B50540   9.999   4.696   6.615
 3901POPC   C3B50541  10.133   4.923   6.952
 3901POPC   C4B50542   9.992   5.107   7.326
 3902POPC   NC350543   3.814   3.787   5.540
 3902POPC   PO450544   3.782   3.267   5.151
 3902POPC   GL150545   3.589   3.244   5.642
 3902POPC   GL250546   3.346   3.534   5.738
 3902POPC   C1A50547   3.650   3.364   6.125
 3902POPC   D2A50548   3.883   3.663   6.361
 3902POPC   C3A50549   3.787   3.721   6.814
 3902POPC   C4A50550   3.729   3.866   7.239
 3902POPC   C1B50551   3.169   3.415   6.182
 3902POPC   C2B50552   3.385   3.421   6.628
 3902POPC   C3B50553   3.434   3.443   7.124
 3902POPC   C4B50554   3.213   3.276   7.519
 3903POPC   NC350555   3.024  39.402   5.205
 3903POPC   PO450556   2.556  38.968   5.216
 3903POPC   GL150557   2.863  39.119   5.639
 3903POPC   GL250558   2.837  39.476   5.765
 3903POPC   C1A50559   2.862  39.128   6.175
 3903POPC   D2A50560   2.588  39.098   6.580
 3903POPC   C3A50561   2.620  39.292   7.037
 3903POPC   C4A50562   2.694  39.221   7.507
 3903POPC   C1B50563   2.651  39.583   6.194
 3903POPC   C2B50564   2.801  39.575   6.635
 3903POPC   C3B50565   3.022  39.610   7.063
 3903POPC   C4B50566   2.887  39.717   7.495
 3904POPC   NC350567   8.552  12.383   5.308
 3904POPC   PO450568   9.112  12.107   5.552
 3904POPC   GL150569   8.958  12.053   5.933
 3904POPC   GL250570   8.651  11.842   5.902
 3904POPC   C1A50571   9.050  12.255   6.309
 3904POPC   D2A50572   9.051  12.080   6.700
 3904POPC   C3A50573   9.137  11.853   7.041
 3904POPC   C4A50574   9.130  12.113   7.407
 3904POPC   C1B50575   8.720  11.846   6.353
 3904POPC   C2B50576   8.519  11.981   6.752
 3904POPC   C3B50577   8.654  12.021   7.187
 3904POPC   C4B50578   8.669  12.333   7.511
 3905POPC   NC350579  41.370   1.640   5.303
 3905POPC   PO450580  41.647   1.097   5.466
 3905POPC   GL150581  41.612   1.343   5.833
 3905POPC   GL250582  41.371   1.630   5.805
 3905POPC   C1A50583  41.481   1.307   6.275
 3905POPC   D2A50584  41.131   1.222   6.550
 3905POPC   C3A50585  41.245   1.190   6.982
 3905POPC   C4A50586  41.633   1.165   7.244
 3905POPC   C1B50587  41.290   1.807   6.230
 3905POPC   C2B50588  41.422   1.672   6.637
 3905POPC   C3B50589  41.270   1.722   7.042
 3905POPC   C4B50590  41.273   1.475   7.416
 3906POPC   NC350591  21.196  21.147   5.493
 3906POPC   PO450592  21.661  21.597   5.454
 3906POPC   GL150593  21.588  21.327   5.806
 3906POPC   GL250594  21.839  21.108   5.769
 3906POPC   C1A50595  21.395  21.180   6.208
 3906POPC   D2A50596  21.259  21.347   6.610
 3906POPC   C3A50597  21.471  21.239   6.979
 3906POPC   C4A50598  21.318  21.341   7.393
 3906POPC   C1B50599  21.845  20.943   6.190
 3906POPC   C2B50600  21.678  20.933   6.610
 3906POPC   C3B50601  21.909  20.952   6.989
 3906POPC   C4B50602  21.715  21.005   7.373
 3907POPC   NC350603  19.604  12.595   5.390
 3907POPC   PO450604  19.640  13.165   5.701
 3907POPC   GL150605  19.987  13.065   5.941
 3907POPC   GL250606  20.065  12.805   5.779
 3907POPC   C1A50607  20.014  12.955   6.383
 3907POPC   D2A50608  19.685  12.938   6.708
 3907POPC   C3A50609  19.834  12.970   7.123
 3907POPC   C4A50610  19.877  13.286   7.440
 3907POPC   C1B50611  19.766  12.607   6.102
 3907POPC   C2B50612  19.826  12.468   6.545
 3907POPC   C3B50613  19.687  12.487   6.968
 3907POPC   C4B50614  19.892  12.518   7.385
 3908POPC   NC350615  44.857   4.503   5.528
 3908POPC   PO450616  44.708   5.063   5.327
 3908POPC   GL150617  44.791   4.980   5.734
 3908POPC   GL250618  44.497   4.789   5.799
 3908POPC   C1A50619  44.900   4.821   6.155
 3908POPC   D2A50620   0.038   5.018   6.548
 3908POPC   C3A50621  44.832   5.076   6.936
 3908POPC   C4A50622  44.858   5.129   7.357
 3908POPC   C1B50623  44.519   5.140   6.132
 3908POPC   C2B50624  44.490   4.992   6.564
 3908POPC   C3B50625  44.341   4.877   6.974
 3908POPC   C4B50626  44.444   4.835   7.402
 3909POPC   NC350627  17.778  29.737   5.536
 3909POPC   PO450628  17.123  29.945   5.419
 3909POPC   GL150629  17.366  29.984   5.793
 3909POPC   GL250630  17.708  30.166   5.765
 3909POPC   C1A50631  17.265  30.122   6.181
 3909POPC   D2A50632  17.370  29.806   6.457
 3909POPC   C3A50633  17.255  29.860   6.878
 3909POPC   C4A50634  17.068  30.234   7.025
 3909POPC   C1B50635  17.762  30.095   6.205
 3909POPC   C2B50636  17.838  29.919   6.614
 3909POPC   C3B50637  17.738  29.989   7.043
 3909POPC   C4B50638  17.689  29.656   7.308
 3910POPC   NC350639  19.450  18.435   5.465
 3910POPC   PO450640  18.862  18.000   5.442
 3910POPC   GL150641  19.106  18.227   5.790
 3910POPC   GL250642  18.962  18.527   5.967
 3910POPC   C1A50643  19.115  18.108   6.246
 3910POPC   D2A50644  18.933  18.142   6.673
 3910POPC   C3A50645  19.008  17.950   7.057
 3910POPC   C4A50646  18.718  17.810   7.362
 3910POPC   C1B50647  18.872  18.751   6.355
 3910POPC   C2B50648  18.842  18.651   6.769
 3910POPC   C3B50649  19.053  18.489   7.072
 3910POPC   C4B50650  19.152  18.659   7.458
 3911POPC   NC350651  30.661   1.462   5.601
 3911POPC   PO450652  30.877   0.837   5.385
 3911POPC   GL150653  30.968   1.014   5.766
 3911POPC   GL250654  31.140   1.327   5.663
 3911POPC   C1A50655  30.763   0.939   6.183
 3911POPC   D2A50656  30.885   1.138   6.574
 3911POPC   C3A50657  30.655   1.223   6.937
 3911POPC   C4A50658  30.449   0.880   7.144
 3911POPC   C1B50659  31.129   1.348   6.140
 3911POPC   C2B50660  31.296   1.410   6.597
 3911POPC   C3B50661  31.102   1.555   6.980
 3911POPC   C4B50662  30.892   1.335   7.374
 3912POPC   NC350663  16.070  38.179   5.391
 3912POPC   PO450664  15.586  38.596   5.389
 3912POPC   GL150665  15.727  38.700   5.836
 3912POPC   GL250666  16.084  38.586   5.833
 3912POPC   C1A50667  15.729  38.703   6.307
 3912POPC   D2A50668  16.026  38.449   6.591
 3912POPC   C3A50669  15.935  38.228   7.000
 3912POPC   C4A50670  15.891  38.416   7.398
 3912POPC   C1B50671  16.226  38.782   6.228
 3912POPC   C2B50672  16.211  38.930   6.654
 3912POPC   C3B50673  16.077  38.763   7.057
 3912POPC   C4B50674  16.106  38.891   7.497
 3913POPC   NC350675  39.398   9.974   5.425
 3913POPC   PO450676  38.910   9.479   5.386
 3913POPC   GL150677  39.195   9.593   5.773
 3913POPC   GL250678  39.544   9.765   5.851
 3913POPC   C1A50679  39.296   9.532   6.234
 3913POPC   D2A50680  39.118   9.745   6.602
 3913POPC   C3A50681  39.187   9.509   6.978
 3913POPC   C4A50682  39.050   9.361   7.397
 3913POPC   C1B50683  39.330  10.037   6.173
 3913POPC   C2B50684  39.354  10.216   6.595
 3913POPC   C3B50685  39.357  10.006   6.981
 3913POPC   C4B50686  39.614   9.966   7.308
 3914POPC   NC350687  35.658  35.898   5.520
 3914POPC   PO450688  35.164  36.001   5.118
 3914POPC   GL150689  35.345  36.228   5.697
 3914POPC   GL250690  35.514  36.016   5.986
 3914POPC   C1A50691  35.177  36.320   6.188
 3914POPC   D2A50692  35.388  36.309   6.606
 3914POPC   C3A50693  35.170  36.231   7.022
 3914POPC   C4A50694  35.261  35.863   7.338
 3914POPC   C1B50695  35.680  36.430   6.185
 3914POPC   C2B50696  35.840  36.572   6.592
 3914POPC   C3B50697  35.668  36.494   6.996
 3914POPC   C4B50698  35.633  36.021   7.039
 3915POPC   NC350699   7.085  17.128   5.704
 3915POPC   PO450700   7.707  17.273   5.379
 3915POPC   GL150701   7.423  17.511   5.650
 3915POPC   GL250702   7.532  17.305   5.871
 3915POPC   C1A50703   7.358  17.767   6.082
 3915POPC   D2A50704   7.445  17.953   6.526
 3915POPC   C3A50705   7.148  17.886   6.867
 3915POPC   C4A50706   7.202  17.702   7.273
 3915POPC   C1B50707   7.747  17.436   6.230
 3915POPC   C2B50708   7.847  17.607   6.596
 3915POPC   C3B50709   7.590  17.579   6.957
 3915POPC   C4B50710   7.583  17.335   7.333
 3916POPC   NC350711  37.119  24.868   5.490
 3916POPC   PO450712  37.201  24.232   5.190
 3916POPC   GL150713  37.132  24.406   5.700
 3916POPC   GL250714  36.813  24.604   5.809
 3916POPC   C1A50715  37.202  24.605   6.153
 3916POPC   D2A50716  37.324  24.762   6.586
 3916POPC   C3A50717  37.121  24.631   6.984
 3916POPC   C4A50718  36.940  24.330   7.287
 3916POPC   C1B50719  36.739  24.872   6.188
 3916POPC   C2B50720  36.761  24.622   6.575
 3916POPC   C3B50721  36.586  24.566   6.982
 3916POPC   C4B50722  36.718  24.814   7.307
 3917POPC   NC350723  33.295   7.202   5.655
 3917POPC   PO450724  32.803   7.423   5.218
 3917POPC   GL150725  32.828   7.705   5.637
 3917POPC   GL250726  33.120   7.720   5.863
 3917POPC   C1A50727  32.646   7.603   6.086
 3917POPC   D2A50728  32.673   7.308   6.485
 3917POPC   C3A50729  32.702   7.493   6.918
 3917POPC   C4A50730  32.795   7.608   7.337
 3917POPC   C1B50731  33.116   7.470   6.262
 3917POPC   C2B50732  33.168   7.314   6.700
 3917POPC   C3B50733  33.226   7.518   7.097
 3917POPC   C4B50734  33.225   7.473   7.563
 3918POPC   NC350735  21.137  33.234   5.635
 3918POPC   PO450736  21.780  32.951   5.466
 3918POPC   GL150737  21.530  32.735   5.825
 3918POPC   GL250738  21.142  32.717   5.806
 3918POPC   C1A50739  21.472  32.912   6.258
 3918POPC   D2A50740  21.484  33.061   6.725
 3918POPC   C3A50741  21.588  32.820   7.147
 3918POPC   C4A50742  21.599  33.089   7.560
 3918POPC   C1B50743  20.966  32.876   6.209
 3918POPC   C2B50744  21.047  33.224   6.453
 3918POPC   C3B50745  20.997  33.268   6.883
 3918POPC   C4B50746  21.222  33.172   7.230
 3919POPC   NC350747  20.990  28.942   5.591
 3919POPC   PO450748  21.524  29.339   5.472
 3919POPC   GL150749  21.392  29.155   5.857
 3919POPC   GL250750  21.443  28.783   5.812
 3919POPC   C1A50751  21.188  29.011   6.254
 3919POPC   D2A50752  20.960  28.924   6.638
 3919POPC   C3A50753  21.210  28.999   6.981
 3919POPC   C4A50754  21.394  29.063   7.363
 3919POPC   C1B50755  21.655  28.811   6.221
 3919POPC   C2B50756  21.664  28.995   6.650
 3919POPC   C3B50757  21.690  28.770   7.064
 3919POPC   C4B50758  21.754  28.791   7.577
 3920POPC   NC350759   6.229   6.494   5.150
 3920POPC   PO450760   5.821   6.928   5.525
 3920POPC   GL150761   6.038   6.610   5.787
 3920POPC   GL250762   5.761   6.484   5.986
 3920POPC   C1A50763   6.222   6.393   6.190
 3920POPC   D2A50764   6.381   6.382   6.622
 3920POPC   C3A50765   6.225   6.503   7.033
 3920POPC   C4A50766   6.242   6.933   7.167
 3920POPC   C1B50767   5.980   6.850   6.250
 3920POPC   C2B50768   5.979   6.967   6.704
 3920POPC   C3B50769   5.767   6.814   7.072
 3920POPC   C4B50770   5.749   6.435   7.294
 3921POPC   NC350771  16.238  12.129   5.191
 3921POPC   PO450772  15.619  12.077   5.368
 3921POPC   GL150773  15.972  12.094   5.677
 3921POPC   GL250774  15.976  11.821   5.914
 3921POPC   C1A50775  16.047  12.254   6.140
 3921POPC   D2A50776  15.932  11.930   6.448
 3921POPC   C3A50777  15.942  11.900   6.872
 3921POPC   C4A50778  16.037  12.160   7.179
 3921POPC   C1B50779  15.582  12.022   6.117
 3921POPC   C2B50780  15.429  12.011   6.549
 3921POPC   C3B50781  15.508  12.185   6.961
 3921POPC   C4B50782  15.614  11.958   7.334
 3922POPC   NC350783  34.291  30.620   5.476
 3922POPC   PO450784  34.903  30.312   5.651
 3922POPC   GL150785  34.606  30.591   5.916
 3922POPC   GL250786  34.394  30.912   5.895
 3922POPC   C1A50787  34.766  30.868   6.229
 3922POPC   D2A50788  35.084  30.937   6.504
 3922POPC   C3A50789  34.880  30.933   6.897
 3922POPC   C4A50790  34.781  30.709   7.247
 3922POPC   C1B50791  34.271  31.043   6.282
 3922POPC   C2B50792  34.430  30.875   6.624
 3922POPC   C3B50793  34.348  30.844   7.002
 3922POPC   C4B50794  34.298  30.624   7.347
 3923POPC   NC350795  21.067  41.313   5.600
 3923POPC   PO450796  21.467  41.818   5.479
 3923POPC   GL150797  21.334  41.659   5.881
 3923POPC   GL250798  21.484  41.314   5.910
 3923POPC   C1A50799  21.432  41.664   6.306
 3923POPC   D2A50800  21.718  41.484   6.578
 3923POPC   C3A50801  21.470  41.421   6.929
 3923POPC   C4A50802  21.305  41.694   7.232
 3923POPC   C1B50803  21.240  41.147   6.265
 3923POPC   C2B50804  21.000  41.190   6.640
 3923POPC   C3B50805  20.975  41.331   7.053
 3923POPC   C4B50806  21.230  41.129   7.299
 3924POPC   NC350807  19.253  25.485   5.544
 3924POPC   PO450808  18.863  24.912   5.438
 3924POPC   GL150809  19.051  25.123   5.849
 3924POPC   GL250810  18.950  25.490   5.957
 3924POPC   C1A50811  19.262  25.212   6.283
 3924POPC   D2A50812  19.250  25.451   6.646
 3924POPC   C3A50813  19.268  25.178   6.978
 3924POPC   C4A50814  19.151  25.086   7.386
 3924POPC   C1B50815  18.770  25.233   6.263
 3924POPC   C2B50816  18.865  25.091   6.658
 3924POPC   C3B50817  18.781  25.200   7.081
 3924POPC   C4B50818  18.937  25.543   7.332
 3925POPC   NC350819  17.251  40.616   5.481
 3925POPC   PO450820  16.697  40.877   5.309
 3925POPC   GL150821  16.702  40.855   5.741
 3925POPC   GL250822  16.481  40.561   5.738
 3925POPC   C1A50823  16.725  40.963   6.203
 3925POPC   D2A50824  16.933  40.745   6.558
 3925POPC   C3A50825  16.858  40.918   6.967
 3925POPC   C4A50826  16.483  40.874   7.171
 3925POPC   C1B50827  16.664  40.452   6.143
 3925POPC   C2B50828  16.564  40.346   6.555
 3925POPC   C3B50829  16.771  40.406   6.941
 3925POPC   C4B50830  16.590  40.410   7.326
 3926POPC   NC350831  37.094  20.816   5.421
 3926POPC   PO450832  36.645  20.354   5.566
 3926POPC   GL150833  36.905  20.602   5.821
 3926POPC   GL250834  37.335  20.537   5.722
 3926POPC   C1A50835  36.809  20.674   6.228
 3926POPC   D2A50836  36.776  20.779   6.646
 3926POPC   C3A50837  36.864  20.451   6.937
 3926POPC   C4A50838  36.738  20.723   7.223
 3926POPC   C1B50839  37.298  20.564   6.132
 3926POPC   C2B50840  37.196  20.489   6.539
 3926POPC   C3B50841  37.271  20.730   6.930
 3926POPC   C4B50842  37.214  20.501   7.317
 3927POPC   NC350843  12.213  15.925   5.219
 3927POPC   PO450844  12.547  16.490   5.470
 3927POPC   GL150845  12.292  16.150   5.717
 3927POPC   GL250846  12.111  15.808   5.707
 3927POPC   C1A50847  12.015  16.140   6.094
 3927POPC   D2A50848  12.016  15.943   6.509
 3927POPC   C3A50849  12.007  16.179   6.894
 3927POPC   C4A50850  11.837  16.052   7.265
 3927POPC   C1B50851  12.234  15.635   6.139
 3927POPC   C2B50852  12.452  15.682   6.535
 3927POPC   C3B50853  12.203  15.630   6.917
 3927POPC   C4B50854  12.361  15.692   7.326
 3928POPC   NC350855  27.275  11.734   5.484
 3928POPC   PO450856  26.672  12.072   5.447
 3928POPC   GL150857  26.763  12.030   5.839
 3928POPC   GL250858  26.490  12.278   5.901
 3928POPC   C1A50859  26.855  12.004   6.265
 3928POPC   D2A50860  26.725  11.749   6.614
 3928POPC   C3A50861  27.045  11.848   6.923
 3928POPC   C4A50862  26.863  12.091   7.218
 3928POPC   C1B50863  26.570  12.448   6.290
 3928POPC   C2B50864  26.704  12.261   6.700
 3928POPC   C3B50865  26.577  12.470   7.071
 3928POPC   C4B50866  26.573  12.395   7.544
 3929POPC   NC350867   5.388  16.110   5.630
 3929POPC   PO450868   4.851  16.251   5.319
 3929POPC   GL150869   4.906  16.179   5.781
 3929POPC   GL250870   4.901  15.828   5.695
 3929POPC   C1A50871   4.976  16.132   6.268
 3929POPC   D2A50872   4.770  15.826   6.596
 3929POPC   C3A50873   4.922  15.794   7.029
 3929POPC   C4A50874   4.896  16.073   7.384
 3929POPC   C1B50875   4.869  15.673   6.110
 3929POPC   C2B50876   5.126  15.462   6.445
 3929POPC   C3B50877   5.374  15.505   6.817
 3929POPC   C4B50878   5.319  15.522   7.260
 3930POPC   NC350879   5.238  17.071   5.641
 3930POPC   PO450880   5.486  17.660   5.452
 3930POPC   GL150881   5.112  17.567   5.753
 3930POPC   GL250882   4.761  17.676   5.693
 3930POPC   C1A50883   5.050  17.425   6.187
 3930POPC   D2A50884   5.308  17.391   6.555
 3930POPC   C3A50885   5.118  17.496   6.968
 3930POPC   C4A50886   5.237  17.429   7.426
 3930POPC   C1B50887   4.929  17.906   6.095
 3930POPC   C2B50888   5.118  17.897   6.512
 3930POPC   C3B50889   5.159  18.016   6.939
 3930POPC   C4B50890   4.799  17.931   7.172
 3931POPC   NC350891   0.255  16.215   5.450
 3931POPC   PO450892   0.751  15.854   5.385
 3931POPC   GL150893   0.580  15.935   5.745
 3931POPC   GL250894   0.844  15.743   5.884
 3931POPC   C1A50895   0.282  15.972   6.077
 3931POPC   D2A50896   0.377  16.011   6.485
 3931POPC   C3A50897   0.199  16.130   6.833
 3931POPC   C4A50898   0.424  16.083   7.200
 3931POPC   C1B50899   0.859  15.438   6.203
 3931POPC   C2B50900   0.812  15.494   6.626
 3931POPC   C3B50901   0.688  15.696   6.991
 3931POPC   C4B50902   0.723  15.616   7.431
 3932POPC   NC350903  43.157   1.640   5.357
 3932POPC   PO450904  42.900   2.283   5.516
 3932POPC   GL150905  42.957   2.016   5.867
 3932POPC   GL250906  43.308   1.881   5.793
 3932POPC   C1A50907  42.864   2.038   6.328
 3932POPC   D2A50908  42.789   2.058   6.767
 3932POPC   C3A50909  43.040   2.176   7.079
 3932POPC   C4A50910  42.859   1.889   7.345
 3932POPC   C1B50911  43.229   1.729   6.211
 3932POPC   C2B50912  43.269   1.881   6.659
 3932POPC   C3B50913  43.215   1.671   7.072
 3932POPC   C4B50914  43.304   1.716   7.564
 3933POPC   NC350915   7.744   7.086   5.567
 3933POPC   PO450916   7.436   7.694   5.308
 3933POPC   GL150917   7.441   7.589   5.792
 3933POPC   GL250918   7.792   7.480   5.878
 3933POPC   C1A50919   7.405   7.342   6.188
 3933POPC   D2A50920   7.449   7.103   6.579
 3933POPC   C3A50921   7.444   7.299   6.978
 3933POPC   C4A50922   7.196   7.260   7.369
 3933POPC   C1B50923   7.842   7.628   6.266
 3933POPC   C2B50924   7.851   7.430   6.637
 3933POPC   C3B50925   7.912   7.571   7.027
 3933POPC   C4B50926   7.986   7.344   7.340
 3934POPC   NC350927  40.660   4.229   5.505
 3934POPC   PO450928  41.304   4.232   5.608
 3934POPC   GL150929  40.955   4.211   5.911
 3934POPC   GL250930  40.662   3.926   5.906
 3934POPC   C1A50931  40.837   4.501   6.217
 3934POPC   D2A50932  41.003   4.652   6.616
 3934POPC   C3A50933  40.768   4.537   6.994
 3934POPC   C4A50934  40.769   4.262   7.373
 3934POPC   C1B50935  40.875   3.918   6.313
 3934POPC   C2B50936  40.763   4.193   6.615
 3934POPC   C3B50937  40.497   4.098   6.923
 3934POPC   C4B50938  40.588   3.799   7.275
 3935POPC   NC350939  14.324   8.891   5.367
 3935POPC   PO450940  14.904   8.737   5.471
 3935POPC   GL150941  14.755   9.009   5.846
 3935POPC   GL250942  14.384   9.116   5.837
 3935POPC   C1A50943  14.675   9.013   6.301
 3935POPC   D2A50944  14.331   9.165   6.575
 3935POPC   C3A50945  14.447   9.032   6.995
 3935POPC   C4A50946  14.491   9.067   7.428
 3935POPC   C1B50947  14.254   8.794   6.163
 3935POPC   C2B50948  14.426   8.665   6.593
 3935POPC   C3B50949  14.164   8.605   6.983
 3935POPC   C4B50950  14.038   8.853   7.355
 3936POPC   NC350951  38.709  18.480   5.335
 3936POPC   PO450952  39.488  18.327   5.433
 3936POPC   GL150953  39.279  18.358   5.861
 3936POPC   GL250954  38.975  18.256   5.746
 3936POPC   C1A50955  39.330  18.347   6.348
 3936POPC   D2A50956  39.359  18.534   6.789
 3936POPC   C3A50957  39.406  18.232   7.162
 3936POPC   C4A50958  39.424  18.127   7.619
 3936POPC   C1B50959  39.078  17.963   6.096
 3936POPC   C2B50960  39.042  17.920   6.509
 3936POPC   C3B50961  38.893  17.735   6.861
 3936POPC   C4B50962  39.012  17.913   7.245
 3937POPC   NC350963   1.397  36.596   4.992
 3937POPC   PO450964   1.274  36.244   5.560
 3937POPC   GL150965   1.195  36.086   5.945
 3937POPC   GL250966   0.934  35.848   5.906
 3937POPC   C1A50967   1.194  36.104   6.343
 3937POPC   D2A50968   1.241  35.958   6.715
 3937POPC   C3A50969   1.028  36.171   6.999
 3937POPC   C4A50970   1.350  36.150   7.280
 3937POPC   C1B50971   0.919  35.687   6.350
 3937POPC   C2B50972   0.821  35.714   6.790
 3937POPC   C3B50973   1.100  35.692   7.188
 3937POPC   C4B50974   0.959  35.692   7.669
 3938POPC   NC350975  28.655  25.403   5.349
 3938POPC   PO450976  28.224  25.015   5.696
 3938POPC   GL150977  28.465  25.289   5.977
 3938POPC   GL250978  28.468  25.606   5.808
 3938POPC   C1A50979  28.544  25.349   6.443
 3938POPC   D2A50980  28.305  25.149   6.800
 3938POPC   C3A50981  28.410  25.132   7.241
 3938POPC   C4A50982  28.290  25.050   7.668
 3938POPC   C1B50983  28.144  25.639   6.172
 3938POPC   C2B50984  28.062  25.609   6.634
 3938POPC   C3B50985  28.174  25.582   7.089
 3938POPC   C4B50986  28.407  25.557   7.525
 3939POPC   NC350987  25.289  26.968   5.490
 3939POPC   PO450988  25.039  26.382   5.457
 3939POPC   GL150989  25.042  26.660   5.867
 3939POPC   GL250990  25.238  26.984   5.976
 3939POPC   C1A50991  25.048  26.709   6.329
 3939POPC   D2A50992  24.797  26.627   6.639
 3939POPC   C3A50993  24.990  26.873   6.910
 3939POPC   C4A50994  25.160  26.799   7.268
 3939POPC   C1B50995  25.236  27.198   6.383
 3939POPC   C2B50996  25.451  27.033   6.767
 3939POPC   C3B50997  25.568  27.175   7.164
 3939POPC   C4B50998  25.380  27.130   7.578
 3940POPC   NC350999  35.706  31.524   5.519
 3940POPC   PO451000  36.252  31.458   5.085
 3940POPC   GL151001  36.213  31.614   5.572
 3940POPC   GL251002  36.356  31.921   5.754
 3940POPC   C1A51003  36.114  31.526   6.048
 3940POPC   D2A51004  35.994  31.517   6.509
 3940POPC   C3A51005  36.097  31.234   6.868
 3940POPC   C4A51006  36.067  31.365   7.324
 3940POPC   C1B51007  36.525  31.800   6.210
 3940POPC   C2B51008  36.522  31.545   6.620
 3940POPC   C3B51009  36.401  31.646   7.065
 3940POPC   C4B51010  36.358  31.717   7.539
 3941POPC   NC351011  16.248  20.893   5.132
 3941POPC   PO451012  15.820  20.436   5.357
 3941POPC   GL151013  16.014  20.600   5.710
 3941POPC   GL251014  16.154  20.281   5.773
 3941POPC   C1A51015  16.120  20.688   6.149
 3941POPC   D2A51016  16.052  20.930   6.504
 3941POPC   C3A51017  16.136  20.805   6.918
 3941POPC   C4A51018  16.110  20.520   7.256
 3941POPC   C1B51019  15.808  20.296   6.076
 3941POPC   C2B51020  15.760  20.481   6.452
 3941POPC   C3B51021  15.826  20.386   6.847
 3941POPC   C4B51022  15.737  20.153   7.196
 3942POPC   NC351023  42.474  14.600   5.397
 3942POPC   PO451024  41.869  14.367   5.343
 3942POPC   GL151025  42.138  14.216   5.720
 3942POPC   GL251026  42.378  14.450   5.881
 3942POPC   C1A51027  42.125  14.118   6.191
 3942POPC   D2A51028  42.163  14.376   6.584
 3942POPC   C3A51029  42.466  14.237   6.883
 3942POPC   C4A51030  42.550  14.369   7.290
 3942POPC   C1B51031  42.228  14.727   6.201
 3942POPC   C2B51032  42.265  14.910   6.599
 3942POPC   C3B51033  42.379  14.774   7.023
 3942POPC   C4B51034  42.239  14.725   7.464
 3943POPC   NC351035  21.218   0.601   5.582
 3943POPC   PO451036  21.585   0.088   5.293
 3943POPC   GL151037  21.548   0.217   5.757
 3943POPC   GL251038  21.351  44.970   5.875
 3943POPC   C1A51039  21.559   0.348   6.251
 3943POPC   D2A51040  21.578   0.302   6.762
 3943POPC   C3A51041  21.534   0.612   7.126
 3943POPC   C4A51042  21.695   0.701   7.584
 3943POPC   C1B51043  21.086   0.060   6.224
 3943POPC   C2B51044  21.093   0.134   6.641
 3943POPC   C3B51045  21.091   0.268   7.052
 3943POPC   C4B51046  20.978   0.067   7.411
 3944POPC   NC351047  27.359  34.049   5.556
 3944POPC   PO451048  26.772  34.088   5.326
 3944POPC   GL151049  26.884  33.897   5.707
 3944POPC   GL251050  26.943  34.207   5.799
 3944POPC   C1A51051  27.097  33.871   6.146
 3944POPC   D2A51052  27.018  34.039   6.553
 3944POPC   C3A51053  26.668  33.906   6.857
 3944POPC   C4A51054  26.623  33.605   7.247
 3944POPC   C1B51055  26.638  34.297   6.105
 3944POPC   C2B51056  26.520  34.317   6.551
 3944POPC   C3B51057  26.504  34.412   6.989
 3944POPC   C4B51058  26.647  34.133   7.336
 3945POPC   NC351059  37.934  36.405   5.508
 3945POPC   PO451060  37.651  35.783   5.500
 3945POPC   GL151061  37.729  36.049   5.824
 3945POPC   GL251062  37.534  36.345   5.849
 3945POPC   C1A51063  37.722  36.080   6.267
 3945POPC   D2A51064  37.492  35.889   6.598
 3945POPC   C3A51065  37.613  36.009   7.012
 3945POPC   C4A51066  37.364  35.902   7.369
 3945POPC   C1B51067  37.740  36.589   6.178
 3945POPC   C2B51068  37.594  36.599   6.598
 3945POPC   C3B51069  37.366  36.456   6.963
 3945POPC   C4B51070  37.529  36.397   7.357
 3946POPC   NC351071  14.697   4.906   5.450
 3946POPC   PO451072  14.197   5.379   5.365
 3946POPC   GL151073  14.133   5.372   5.827
 3946POPC   GL251074  14.380   5.105   5.849
 3946POPC   C1A51075  14.205   5.320   6.294
 3946POPC   D2A51076  14.072   5.142   6.716
 3946POPC   C3A51077  14.237   5.210   7.144
 3946POPC   C4A51078  14.289   4.828   7.444
 3946POPC   C1B51079  14.705   5.343   6.118
 3946POPC   C2B51080  14.800   5.418   6.562
 3946POPC   C3B51081  14.663   5.116   6.888
 3946POPC   C4B51082  14.762   4.944   7.303
 3947POPC   NC351083  28.333   0.542   5.385
 3947POPC   PO451084  28.701   0.016   5.547
 3947POPC   GL151085  28.546   0.318   5.810
 3947POPC   GL251086  28.227   0.221   5.768
 3947POPC   C1A51087  28.400   0.565   6.171
 3947POPC   D2A51088  28.514   0.491   6.609
 3947POPC   C3A51089  28.392   0.284   6.986
 3947POPC   C4A51090  28.403   0.391   7.387
 3947POPC   C1B51091  28.065   0.169   6.154
 3947POPC   C2B51092  28.146   0.088   6.572
 3947POPC   C3B51093  27.927   0.049   6.981
 3947POPC   C4B51094  28.158  44.944   7.337
 3948POPC   NC351095  44.897  19.476   5.490
 3948POPC   PO451096   0.664  19.694   5.494
 3948POPC   GL151097   0.452  19.547   5.824
 3948POPC   GL251098   0.185  19.786   5.824
 3948POPC   C1A51099   0.589  19.571   6.238
 3948POPC   D2A51100   0.648  19.864   6.570
 3948POPC   C3A51101   0.787  19.690   6.948
 3948POPC   C4A51102   0.536  19.909   7.215
 3948POPC   C1B51103   0.308  20.043   6.201
 3948POPC   C2B51104   0.160  20.061   6.644
 3948POPC   C3B51105   0.049  19.980   7.083
 3948POPC   C4B51106   0.091  19.754   7.480
 3949POPC   NC351107   2.757  26.448   5.435
 3949POPC   PO451108   3.252  26.928   5.232
 3949POPC   GL151109   2.892  26.967   5.667
 3949POPC   GL251110   2.834  26.704   5.864
 3949POPC   C1A51111   2.630  27.046   6.126
 3949POPC   D2A51112   2.807  26.961   6.543
 3949POPC   C3A51113   2.591  26.988   6.917
 3949POPC   C4A51114   2.689  27.003   7.332
 3949POPC   C1B51115   3.011  26.595   6.245
 3949POPC   C2B51116   2.812  26.440   6.635
 3949POPC   C3B51117   2.795  26.552   7.062
 3949POPC   C4B51118   3.104  26.651   7.345
 3950POPC   NC351119   8.197  10.207   5.492
 3950POPC   PO451120   7.854  10.716   5.550
 3950POPC   GL151121   8.077  10.502   5.885
 3950POPC   GL251122   7.904  10.161   5.926
 3950POPC   C1A51123   8.449  10.530   6.170
 3950POPC   D2A51124   8.429  10.715   6.588
 3950POPC   C3A51125   8.595  10.504   6.959
 3950POPC   C4A51126   8.519  10.490   7.405
 3950POPC   C1B51127   7.992  10.375   6.365
 3950POPC   C2B51128   8.056  10.436   6.811
 3950POPC   C3B51129   8.040  10.295   7.222
 3950POPC   C4B51130   8.105  10.190   7.637
 3951POPC   NC351131  39.632  30.008   5.530
 3951POPC   PO451132  38.978  29.781   5.291
 3951POPC   GL151133  39.135  29.930   5.734
 3951POPC   GL251134  39.368  29.730   5.876
 3951POPC   C1A51135  39.245  30.107   6.197
 3951POPC   D2A51136  39.420  29.955   6.629
 3951POPC   C3A51137  39.236  30.171   7.001
 3951POPC   C4A51138  39.358  30.159   7.445
 3951POPC   C1B51139  39.344  29.576   6.269
 3951POPC   C2B51140  39.597  29.364   6.588
 3951POPC   C3B51141  39.493  29.418   6.994
 3951POPC   C4B51142  39.297  29.713   7.229
 3952POPC   NC351143  44.661   7.801   5.389
 3952POPC   PO451144  44.532   8.435   5.486
 3952POPC   GL151145  44.718   8.171   5.803
 3952POPC   GL251146  44.902   7.865   5.895
 3952POPC   C1A51147  44.534   8.164   6.203
 3952POPC   D2A51148  44.645   8.168   6.632
 3952POPC   C3A51149  44.456   8.440   6.937
 3952POPC   C4A51150  44.469   8.341   7.363
 3952POPC   C1B51151  44.776   7.734   6.345
 3952POPC   C2B51152  44.944   7.778   6.761
 3952POPC   C3B51153  44.930   7.777   7.209
 3952POPC   C4B51154  44.850   8.070   7.556
 3953POPC   NC351155   2.486  11.692   5.518
 3953POPC   PO451156   2.935  11.205   5.449
 3953POPC   GL151157   2.977  11.139   5.867
 3953POPC   GL251158   2.915  11.496   5.907
 3953POPC   C1A51159   2.910  11.149   6.315
 3953POPC   D2A51160   3.081  11.379   6.686
 3953POPC   C3A51161   2.956  11.124   7.047
 3953POPC   C4A51162   2.833  10.914   7.426
 3953POPC   C1B51163   2.591  11.536   6.233
 3953POPC   C2B51164   2.571  11.328   6.657
 3953POPC   C3B51165   2.533  11.445   7.075
 3953POPC   C4B51166   2.345  11.639   7.410
 3954POPC   NC351167  38.275  37.998   5.414
 3954POPC   PO451168  38.797  37.579   5.520
 3954POPC   GL151169  38.444  37.666   5.811
 3954POPC   GL251170  38.577  38.011   5.847
 3954POPC   C1A51171  38.261  37.494   6.216
 3954POPC   D2A51172  38.580  37.398   6.515
 3954POPC   C3A51173  38.460  37.519   6.906
 3954POPC   C4A51174  38.108  37.559   7.122
 3954POPC   C1B51175  38.333  37.987   6.222
 3954POPC   C2B51176  38.172  37.883   6.652
 3954POPC   C3B51177  38.279  38.054   7.067
 3954POPC   C4B51178  38.549  37.885   7.372
 3955POPC   NC351179  38.764   2.111   5.472
 3955POPC   PO451180  38.134   1.910   5.385
 3955POPC   GL151181  38.434   1.867   5.795
 3955POPC   GL251182  38.650   2.135   5.957
 3955POPC   C1A51183  38.545   1.719   6.238
 3955POPC   D2A51184  38.301   1.794   6.629
 3955POPC   C3A51185  38.488   1.820   7.068
 3955POPC   C4A51186  38.508   1.851   7.560
 3955POPC   C1B51187  38.428   2.221   6.312
 3955POPC   C2B51188  38.416   2.433   6.699
 3955POPC   C3B51189  38.513   2.343   7.126
 3955POPC   C4B51190  38.632   2.346   7.573
 3956POPC   NC351191  41.053  36.357   5.503
 3956POPC   PO451192  40.431  35.994   5.537
 3956POPC   GL151193  40.756  36.080   5.806
 3956POPC   GL251194  40.671  36.429   5.896
 3956POPC   C1A51195  40.984  36.150   6.180
 3956POPC   D2A51196  40.797  36.064   6.572
 3956POPC   C3A51197  40.956  36.210   6.914
 3956POPC   C4A51198  41.042  36.031   7.269
 3956POPC   C1B51199  40.456  36.201   6.205
 3956POPC   C2B51200  40.285  36.038   6.559
 3956POPC   C3B51201  40.403  36.135   6.959
 3956POPC   C4B51202  40.634  36.343   7.283
 3957POPC   NC351203  21.843  25.698   5.549
 3957POPC   PO451204  21.218  25.836   5.317
 3957POPC   GL151205  21.391  25.874   5.745
 3957POPC   GL251206  21.531  26.217   5.844
 3957POPC   C1A51207  21.401  25.894   6.201
 3957POPC   D2A51208  21.261  26.038   6.615
 3957POPC   C3A51209  21.408  25.914   7.022
 3957POPC   C4A51210  21.402  26.181   7.437
 3957POPC   C1B51211  21.576  26.373   6.261
 3957POPC   C2B51212  21.734  26.257   6.657
 3957POPC   C3B51213  21.694  26.366   7.079
 3957POPC   C4B51214  21.910  26.329   7.479
 3958POPC   NC351215  19.936  26.085   5.275
 3958POPC   PO451216  19.382  25.717   5.150
 3958POPC   GL151217  19.648  25.811   5.578
 3958POPC   GL251218  20.009  25.735   5.667
 3958POPC   C1A51219  19.779  26.050   5.988
 3958POPC   D2A51220  19.945  26.119   6.438
 3958POPC   C3A51221  19.687  26.227   6.827
 3958POPC   C4A51222  19.774  26.375   7.251
 3958POPC   C1B51223  20.009  25.605   6.136
 3958POPC   C2B51224  20.233  25.520   6.530
 3958POPC   C3B51225  20.158  25.518   6.927
 3958POPC   C4B51226  19.948  25.872   7.131
 3959POPC   NC351227  24.917  16.258   5.522
 3959POPC   PO451228  25.396  15.790   5.432
 3959POPC   GL151229  25.161  15.860   5.786
 3959POPC   GL251230  25.457  15.892   5.927
 3959POPC   C1A51231  25.080  15.863   6.239
 3959POPC   D2A51232  25.138  16.140   6.590
 3959POPC   C3A51233  24.952  16.038   6.958
 3959POPC   C4A51234  25.212  15.871   7.276
 3959POPC   C1B51235  25.737  15.909   6.216
 3959POPC   C2B51236  25.834  16.073   6.588
 3959POPC   C3B51237  25.577  16.178   6.906
 3959POPC   C4B51238  25.725  16.414   7.283
 3960POPC   NC351239   2.941  34.829   5.379
 3960POPC   PO451240   2.902  34.190   5.431
 3960POPC   GL151241   2.950  34.496   5.790
 3960POPC   GL251242   2.591  34.561   5.698
 3960POPC   C1A51243   3.041  34.518   6.304
 3960POPC   D2A51244   2.935  34.718   6.752
 3960POPC   C3A51245   3.030  34.738   7.234
 3960POPC   C4A51246   3.011  34.579   7.657
 3960POPC   C1B51247   2.604  34.335   6.113
 3960POPC   C2B51248   2.495  34.498   6.534
 3960POPC   C3B51249   2.613  34.372   6.952
 3960POPC   C4B51250   2.561  34.410   7.376
 3961POPC   NC351251  29.165  13.103   5.338
 3961POPC   PO451252  29.170  12.450   5.251
 3961POPC   GL151253  29.076  12.730   5.673
 3961POPC   GL251254  29.361  12.922   5.777
 3961POPC   C1A51255  28.957  12.965   6.100
 3961POPC   D2A51256  28.976  12.802   6.530
 3961POPC   C3A51257  28.892  13.026   6.921
 3961POPC   C4A51258  29.006  12.869   7.328
 3961POPC   C1B51259  29.440  12.807   6.208
 3961POPC   C2B51260  29.403  12.528   6.560
 3961POPC   C3B51261  29.326  12.739   6.925
 3961POPC   C4B51262  29.504  12.818   7.317
 3962POPC   NC351263  17.093   2.825   5.096
 3962POPC   PO451264  16.660   2.420   5.319
 3962POPC   GL151265  16.601   2.511   5.828
 3962POPC   GL251266  16.681   2.831   5.938
 3962POPC   C1A51267  16.861   2.464   6.274
 3962POPC   D2A51268  17.070   2.680   6.678
 3962POPC   C3A51269  16.811   2.749   7.068
 3962POPC   C4A51270  16.521   2.427   7.219
 3962POPC   C1B51271  16.401   2.693   6.281
 3962POPC   C2B51272  16.408   2.587   6.746
 3962POPC   C3B51273  16.280   2.866   7.127
 3962POPC   C4B51274  16.574   3.078   7.456
 3963POPC   NC351275   1.470  43.201   5.517
 3963POPC   PO451276   0.900  43.367   5.639
 3963POPC   GL151277   1.155  43.119   5.932
 3963POPC   GL251278   1.376  42.820   5.904
 3963POPC   C1A51279   1.276  43.218   6.340
 3963POPC   D2A51280   1.352  43.387   6.730
 3963POPC   C3A51281   1.117  43.205   7.062
 3963POPC   C4A51282   0.916  43.441   7.382
 3963POPC   C1B51283   1.566  42.801   6.314
 3963POPC   C2B51284   1.405  42.860   6.744
 3963POPC   C3B51285   1.380  42.765   7.172
 3963POPC   C4B51286   1.367  42.690   7.597
 3964POPC   NC351287  13.884  32.302   5.447
 3964POPC   PO451288  13.236  32.568   5.330
 3964POPC   GL151289  13.483  32.465   5.746
 3964POPC   GL251290  13.594  32.109   5.837
 3964POPC   C1A51291  13.436  32.395   6.226
 3964POPC   D2A51292  13.548  32.447   6.671
 3964POPC   C3A51293  13.765  32.155   6.929
 3964POPC   C4A51294  13.787  31.955   7.343
 3964POPC   C1B51295  13.929  32.257   6.151
 3964POPC   C2B51296  14.075  32.388   6.581
 3964POPC   C3B51297  14.268  32.203   6.957
 3964POPC   C4B51298  14.202  32.254   7.407
 3965POPC   NC351299   0.406   9.597   5.226
 3965POPC   PO451300   0.148   9.835   5.752
 3965POPC   GL151301   0.547   9.823   5.890
 3965POPC   GL251302   0.666  10.185   5.903
 3965POPC   C1A51303   0.571   9.615   6.294
 3965POPC   D2A51304   0.742   9.752   6.655
 3965POPC   C3A51305   0.615   9.818   7.089
 3965POPC   C4A51306   0.529   9.597   7.480
 3965POPC   C1B51307   0.579  10.128   6.352
 3965POPC   C2B51308   0.268   9.975   6.691
 3965POPC   C3B51309   0.118  10.047   7.133
 3965POPC   C4B51310  44.798   9.929   7.473
 3966POPC   NC351311  24.483  23.838   4.807
 3966POPC   PO451312  24.210  23.830   5.437
 3966POPC   GL151313  24.437  23.841   5.815
 3966POPC   GL251314  24.750  23.665   5.683
 3966POPC   C1A51315  24.397  23.927   6.258
 3966POPC   D2A51316  24.610  23.869   6.657
 3966POPC   C3A51317  24.373  23.845   7.034
 3966POPC   C4A51318  24.209  24.091   7.332
 3966POPC   C1B51319  24.860  23.714   6.119
 3966POPC   C2B51320  24.919  23.424   6.455
 3966POPC   C3B51321  24.845  23.368   6.888
 3966POPC   C4B51322  24.708  23.520   7.271
 3967POPC   NC351323   6.134  44.891   5.127
 3967POPC   PO451324   6.091  44.233   5.468
 3967POPC   GL151325   5.839  44.466   5.826
 3967POPC   GL251326   5.983  44.803   6.001
 3967POPC   C1A51327   5.703  44.502   6.270
 3967POPC   D2A51328   5.726  44.935   6.455
 3967POPC   C3A51329   5.793  44.947   6.922
 3967POPC   C4A51330   5.736  44.862   7.372
 3967POPC   C1B51331   6.220  44.566   6.291
 3967POPC   C2B51332   6.110  44.607   6.707
 3967POPC   C3B51333   6.028  44.520   7.118
 3967POPC   C4B51334   6.236  44.209   7.337
 3968POPC   NC351335  24.254   5.201   5.402
 3968POPC   PO451336  24.231   4.545   5.486
 3968POPC   GL151337  24.232   4.925   5.845
 3968POPC   GL251338  24.528   5.158   5.895
 3968POPC   C1A51339  24.148   5.193   6.273
 3968POPC   D2A51340  24.385   5.451   6.617
 3968POPC   C3A51341  24.386   5.294   7.052
 3968POPC   C4A51342  24.233   4.898   7.209
 3968POPC   C1B51343  24.526   4.859   6.276
 3968POPC   C2B51344  24.501   4.889   6.751
 3968POPC   C3B51345  24.719   4.820   7.179
 3968POPC   C4B51346  24.875   4.816   7.633
 3969POPC   NC351347   8.029  35.034   5.553
 3969POPC   PO451348   8.440  34.494   5.387
 3969POPC   GL151349   8.262  34.467   5.823
 3969POPC   GL251350   7.908  34.559   5.768
 3969POPC   C1A51351   8.102  34.291   6.254
 3969POPC   D2A51352   8.115  34.093   6.698
 3969POPC   C3A51353   8.296  34.347   7.063
 3969POPC   C4A51354   8.513  34.763   7.178
 3969POPC   C1B51355   7.772  34.763   6.151
 3969POPC   C2B51356   7.743  34.667   6.559
 3969POPC   C3B51357   7.894  34.824   6.941
 3969POPC   C4B51358   7.665  34.767   7.288
 3970POPC   NC351359  28.779  17.672   4.987
 3970POPC   PO451360  29.144  17.506   5.517
 3970POPC   GL151361  29.009  17.735   5.854
 3970POPC   GL251362  29.297  17.923   5.887
 3970POPC   C1A51363  28.919  17.563   6.266
 3970POPC   D2A51364  28.727  17.712   6.641
 3970POPC   C3A51365  28.807  17.410   6.977
 3970POPC   C4A51366  28.883  17.525   7.421
 3970POPC   C1B51367  29.395  17.774   6.287
 3970POPC   C2B51368  29.266  17.524   6.657
 3970POPC   C3B51369  29.290  17.529   7.098
 3970POPC   C4B51370  29.358  17.298   7.490
 3971POPC   NC351371  20.416   0.531   5.240
 3971POPC   PO451372  20.878   0.164   5.618
 3971POPC   GL151373  20.732   0.532   5.815
 3971POPC   GL251374  20.437   0.731   5.736
 3971POPC   C1A51375  20.791   0.520   6.226
 3971POPC   D2A51376  20.604   0.198   6.426
 3971POPC   C3A51377  20.615   0.288   6.843
 3971POPC   C4A51378  20.531   0.225   7.272
 3971POPC   C1B51379  20.292   0.664   6.178
 3971POPC   C2B51380  20.179   0.464   6.590
 3971POPC   C3B51381  20.289   0.639   7.006
 3971POPC   C4B51382  20.725   0.708   7.178
 3972POPC   NC351383  13.571  26.395   5.227
 3972POPC   PO451384  13.534  27.000   5.420
 3972POPC   GL151385  13.379  26.789   5.803
 3972POPC   GL251386  13.506  26.440   5.857
 3972POPC   C1A51387  13.411  26.830   6.282
 3972POPC   D2A51388  13.413  26.645   6.733
 3972POPC   C3A51389  13.223  26.881   7.112
 3972POPC   C4A51390  13.195  27.086   7.529
 3972POPC   C1B51391  13.696  26.398   6.313
 3972POPC   C2B51392  13.964  26.685   6.581
 3972POPC   C3B51393  13.937  27.027   6.882
 3972POPC   C4B51394  13.729  26.846   7.202
 3973POPC   NC351395  10.925   9.209   5.582
 3973POPC   PO451396  10.376   8.930   5.530
 3973POPC   GL151397  10.645   8.898   5.870
 3973POPC   GL251398  10.495   9.216   5.964
 3973POPC   C1A51399  10.789   8.978   6.291
 3973POPC   D2A51400  10.544   8.868   6.632
 3973POPC   C3A51401  10.589   8.991   7.036
 3973POPC   C4A51402  10.951   9.176   7.219
 3973POPC   C1B51403  10.258   8.828   6.192
 3973POPC   C2B51404  10.138   8.579   6.567
 3973POPC   C3B51405  10.104   8.755   6.970
 3973POPC   C4B51406  10.148   8.854   7.412
 3974POPC   NC351407  28.951  30.111   5.366
 3974POPC   PO451408  29.537  29.746   5.353
 3974POPC   GL151409  29.288  29.682   5.752
 3974POPC   GL251410  29.134  30.007   5.849
 3974POPC   C1A51411  29.248  29.665   6.217
 3974POPC   D2A51412  29.114  29.951   6.542
 3974POPC   C3A51413  29.034  29.744   6.947
 3974POPC   C4A51414  28.902  29.904   7.344
 3974POPC   C1B51415  28.959  30.372   6.089
 3974POPC   C2B51416  28.834  30.486   6.513
 3974POPC   C3B51417  28.874  30.251   6.924
 3974POPC   C4B51418  28.997  30.397   7.329
 3975POPC   NC351419  30.447  26.980   5.401
 3975POPC   PO451420  31.104  26.693   5.363
 3975POPC   GL151421  30.773  26.706   5.706
 3975POPC   GL251422  30.680  27.040   5.854
 3975POPC   C1A51423  30.640  26.573   6.118
 3975POPC   D2A51424  30.422  26.581   6.520
 3975POPC   C3A51425  30.694  26.419   6.875
 3975POPC   C4A51426  30.731  26.540   7.306
 3975POPC   C1B51427  30.433  27.041   6.247
 3975POPC   C2B51428  30.554  27.094   6.690
 3975POPC   C3B51429  30.793  26.968   7.051
 3975POPC   C4B51430  30.836  27.122   7.480
 3976POPC   NC351431  26.402   1.097   5.529
 3976POPC   PO451432  25.729   1.332   5.386
 3976POPC   GL151433  25.996   1.319   5.780
 3976POPC   GL251434  26.028   0.970   5.830
 3976POPC   C1A51435  26.194   1.404   6.207
 3976POPC   D2A51436  26.379   1.371   6.617
 3976POPC   C3A51437  26.076   1.367   6.938
 3976POPC   C4A51438  25.952   1.164   7.374
 3976POPC   C1B51439  26.208   0.888   6.222
 3976POPC   C2B51440  26.092   0.941   6.650
 3976POPC   C3B51441  26.402   0.981   7.005
 3976POPC   C4B51442  26.376   0.862   7.430
 3977POPC   NC351443  38.838  16.331   5.463
 3977POPC   PO451444  38.402  16.782   5.194
 3977POPC   GL151445  38.488  16.787   5.673
 3977POPC   GL251446  38.242  17.001   5.900
 3977POPC   C1A51447  38.612  16.690   6.119
 3977POPC   D2A51448  38.403  16.830   6.521
 3977POPC   C3A51449  38.400  16.580   6.897
 3977POPC   C4A51450  38.712  16.575   7.193
 3977POPC   C1B51451  38.027  17.123   6.327
 3977POPC   C2B51452  38.048  17.043   6.837
 3977POPC   C3B51453  38.185  16.881   7.275
 3977POPC   C4B51454  38.303  17.031   7.735
 3978POPC   NC351455  17.730  21.741   5.517
 3978POPC   PO451456  17.583  21.110   5.464
 3978POPC   GL151457  17.587  21.173   5.879
 3978POPC   GL251458  17.426  21.460   5.838
 3978POPC   C1A51459  17.737  21.129   6.289
 3978POPC   D2A51460  18.026  21.286   6.651
 3978POPC   C3A51461  17.895  21.051   7.030
 3978POPC   C4A51462  17.468  21.102   7.180
 3978POPC   C1B51463  17.404  21.530   6.295
 3978POPC   C2B51464  17.533  21.363   6.689
 3978POPC   C3B51465  17.694  21.538   7.042
 3978POPC   C4B51466  17.331  21.576   7.261
 3979POPC   NC351467   1.904  27.025   5.606
 3979POPC   PO451468   2.444  26.786   5.334
 3979POPC   GL151469   2.327  26.731   5.774
 3979POPC   GL251470   2.373  26.384   5.786
 3979POPC   C1A51471   2.030  26.596   6.148
 3979POPC   D2A51472   1.889  26.605   6.606
 3979POPC   C3A51473   2.030  26.987   6.805
 3979POPC   C4A51474   1.871  27.171   7.140
 3979POPC   C1B51475   2.526  26.473   6.197
 3979POPC   C2B51476   2.384  26.700   6.544
 3979POPC   C3B51477   2.281  26.576   6.977
 3979POPC   C4B51478   1.858  26.612   7.144
 3980POPC   NC351479  42.800   7.771   5.476
 3980POPC   PO451480  43.428   7.617   5.542
 3980POPC   GL151481  43.113   7.568   5.848
 3980POPC   GL251482  42.885   7.285   5.864
 3980POPC   C1A51483  43.144   7.509   6.282
 3980POPC   D2A51484  43.100   7.136   6.536
 3980POPC   C3A51485  43.197   7.287   6.932
 3980POPC   C4A51486  43.169   7.667   7.149
 3980POPC   C1B51487  42.640   7.578   6.147
 3980POPC   C2B51488  42.738   7.709   6.569
 3980POPC   C3B51489  42.713   7.504   6.956
 3980POPC   C4B51490  42.672   7.694   7.356
 3981POPC   NC351491  10.530  39.598   5.507
 3981POPC   PO451492  10.272  38.989   5.548
 3981POPC   GL151493  10.517  39.201   5.861
 3981POPC   GL251494  10.773  38.948   5.853
 3981POPC   C1A51495  10.476  39.366   6.307
 3981POPC   D2A51496  10.220  39.299   6.675
 3981POPC   C3A51497  10.372  39.218   7.082
 3981POPC   C4A51498  10.598  39.435   7.397
 3981POPC   C1B51499  10.938  39.153   6.237
 3981POPC   C2B51500  10.946  39.534   6.495
 3981POPC   C3B51501  10.749  39.483   6.882
 3981POPC   C4B51502  10.902  39.111   7.114
 3982POPC   NC351503   0.159  12.224   5.368
 3982POPC   PO451504   0.781  11.948   5.371
 3982POPC   GL151505   0.540  12.135   5.694
 3982POPC   GL251506   0.755  12.403   5.787
 3982POPC   C1A51507   0.474  12.078   6.148
 3982POPC   D2A51508   0.372  12.362   6.510
 3982POPC   C3A51509   0.504  12.199   6.891
 3982POPC   C4A51510   0.272  12.056   7.234
 3982POPC   C1B51511   0.791  12.473   6.236
 3982POPC   C2B51512   0.938  12.291   6.630
 3982POPC   C3B51513   0.941  12.331   7.096
 3982POPC   C4B51514   0.713  12.211   7.463
 3983POPC   NC351515  18.239  13.524   5.413
 3983POPC   PO451516  18.580  14.147   5.569
 3983POPC   GL151517  18.368  13.879   5.912
 3983POPC   GL251518  18.367  13.503   5.900
 3983POPC   C1A51519  18.433  13.800   6.385
 3983POPC   D2A51520  18.623  13.836   6.802
 3983POPC   C3A51521  18.315  13.793   7.119
 3983POPC   C4A51522  18.068  13.678   7.464
 3983POPC   C1B51523  18.166  13.383   6.271
 3983POPC   C2B51524  18.138  13.498   6.720
 3983POPC   C3B51525  18.070  13.290   7.127
 3983POPC   C4B51526  17.773  13.238   7.481
 3984POPC   NC351527  41.933  30.080   5.612
 3984POPC   PO451528  42.515  29.682   5.475
 3984POPC   GL151529  42.313  29.840   5.836
 3984POPC   GL251530  42.009  29.611   5.831
 3984POPC   C1A51531  42.357  30.045   6.269
 3984POPC   D2A51532  42.419  30.044   6.740
 3984POPC   C3A51533  42.182  30.167   7.107
 3984POPC   C4A51534  42.368  30.290   7.486
 3984POPC   C1B51535  42.281  29.517   6.219
 3984POPC   C2B51536  42.203  29.596   6.644
 3984POPC   C3B51537  42.322  29.658   7.083
 3984POPC   C4B51538  42.259  29.788   7.525
 3985POPC   NC351539   4.822  21.129   5.408
 3985POPC   PO451540   5.331  21.582   5.161
 3985POPC   GL151541   5.141  21.535   5.601
 3985POPC   GL251542   5.435  21.391   5.726
 3985POPC   C1A51543   4.935  21.392   6.038
 3985POPC   D2A51544   5.016  21.178   6.453
 3985POPC   C3A51545   4.904  21.344   6.847
 3985POPC   C4A51546   4.956  21.139   7.168
 3985POPC   C1B51547   5.434  21.234   6.130
 3985POPC   C2B51548   5.482  21.434   6.536
 3985POPC   C3B51549   5.384  21.516   6.945
 3985POPC   C4B51550   5.378  21.367   7.343
 3986POPC   NC351551  19.062   6.966   5.514
 3986POPC   PO451552  18.812   6.407   5.552
 3986POPC   GL151553  18.795   6.592   5.938
 3986POPC   GL251554  18.603   6.888   5.964
 3986POPC   C1A51555  19.173   6.690   6.168
 3986POPC   D2A51556  19.390   6.812   6.544
 3986POPC   C3A51557  19.162   6.819   6.904
 3986POPC   C4A51558  19.112   6.778   7.327
 3986POPC   C1B51559  18.724   6.841   6.406
 3986POPC   C2B51560  18.907   6.472   6.627
 3986POPC   C3B51561  18.858   6.371   7.069
 3986POPC   C4B51562  18.825   6.396   7.534
 3987POPC   NC351563  18.682  16.906   5.414
 3987POPC   PO451564  18.058  16.614   5.436
 3987POPC   GL151565  18.256  16.812   5.772
 3987POPC   GL251566  18.568  16.668   5.871
 3987POPC   C1A51567  18.074  16.898   6.177
 3987POPC   D2A51568  17.936  17.104   6.559
 3987POPC   C3A51569  18.141  16.890   6.876
 3987POPC   C4A51570  18.046  16.855   7.271
 3987POPC   C1B51571  18.710  16.913   6.224
 3987POPC   C2B51572  18.606  16.735   6.621
 3987POPC   C3B51573  18.362  16.427   6.829
 3987POPC   C4B51574  18.351  16.442   7.251
 3988POPC   NC351575  26.604  37.194   5.423
 3988POPC   PO451576  26.454  36.616   5.747
 3988POPC   GL151577  26.681  36.963   5.888
 3988POPC   GL251578  26.993  36.778   5.949
 3988POPC   C1A51579  26.821  37.135   6.282
 3988POPC   D2A51580  26.898  36.973   6.700
 3988POPC   C3A51581  26.664  37.101   7.066
 3988POPC   C4A51582  26.547  36.715   7.259
 3988POPC   C1B51583  26.983  36.586   6.360
 3988POPC   C2B51584  27.105  36.381   6.745
 3988POPC   C3B51585  26.998  36.597   7.069
 3988POPC   C4B51586  27.123  36.973   7.218
 3989POPC   NC351587  41.545  39.522   5.497
 3989POPC   PO451588  42.074  39.211   5.421
 3989POPC   GL151589  41.812  39.196   5.807
 3989POPC   GL251590  41.411  39.145   5.820
 3989POPC   C1A51591  41.743  39.226   6.251
 3989POPC   D2A51592  41.537  39.298   6.628
 3989POPC   C3A51593  41.691  39.059   6.951
 3989POPC   C4A51594  41.490  39.103   7.300
 3989POPC   C1B51595  41.245  39.457   6.138
 3989POPC   C2B51596  41.129  39.629   6.561
 3989POPC   C3B51597  41.206  39.490   7.007
 3989POPC   C4B51598  41.180  39.532   7.466
 3990POPC   NC351599  20.422  30.177   5.657
 3990POPC   PO451600  20.358  29.567   5.469
 3990POPC   GL151601  20.644  29.782   5.854
 3990POPC   GL251602  20.927  30.002   5.793
 3990POPC   C1A51603  20.554  29.979   6.267
 3990POPC   D2A51604  20.422  29.804   6.669
 3990POPC   C3A51605  20.614  29.936   7.006
 3990POPC   C4A51606  20.555  29.831   7.404
 3990POPC   C1B51607  21.059  30.061   6.204
 3990POPC   C2B51608  20.954  29.856   6.585
 3990POPC   C3B51609  21.088  30.057   6.939
 3990POPC   C4B51610  21.037  29.936   7.324
 3991POPC   NC351611  42.056   1.323   5.367
 3991POPC   PO451612  42.729   1.431   5.383
 3991POPC   GL151613  42.459   1.290   5.717
 3991POPC   GL251614  42.148   1.465   5.855
 3991POPC   C1A51615  42.468   1.154   6.146
 3991POPC   D2A51616  42.542   0.941   6.536
 3991POPC   C3A51617  42.416   1.123   6.937
 3991POPC   C4A51618  42.505   1.073   7.391
 3991POPC   C1B51619  41.983   1.246   6.241
 3991POPC   C2B51620  41.816   1.299   6.674
 3991POPC   C3B51621  42.010   1.507   7.007
 3991POPC   C4B51622  42.088   1.359   7.410
 3992POPC   NC351623  23.131  42.691   5.525
 3992POPC   PO451624  22.461  42.346   5.520
 3992POPC   GL151625  22.702  42.083   5.864
 3992POPC   GL251626  23.093  42.044   5.809
 3992POPC   C1A51627  22.806  42.115   6.316
 3992POPC   D2A51628  23.025  42.454   6.573
 3992POPC   C3A51629  22.904  42.515   7.013
 3992POPC   C4A51630  22.553  42.671   7.270
 3992POPC   C1B51631  23.242  41.858   6.217
 3992POPC   C2B51632  23.159  41.936   6.671
 3992POPC   C3B51633  23.167  41.840   7.107
 3992POPC   C4B51634  22.970  42.113   7.374
 3993POPC   NC351635  19.290  10.968   5.453
 3993POPC   PO451636  18.899  11.414   5.579
 3993POPC   GL151637  19.165  11.292   5.923
 3993POPC   GL251638  19.411  11.539   5.765
 3993POPC   C1A51639  19.013  11.165   6.370
 3993POPC   D2A51640  18.844  11.042   6.795
 3993POPC   C3A51641  19.006  10.905   7.210
 3993POPC   C4A51642  18.855  10.932   7.699
 3993POPC   C1B51643  19.449  11.627   6.206
 3993POPC   C2B51644  19.420  11.387   6.603
 3993POPC   C3B51645  19.204  11.374   7.017
 3993POPC   C4B51646  19.426  11.580   7.360
 3994POPC   NC351647  14.907  35.886   5.464
 3994POPC   PO451648  15.305  36.378   5.119
 3994POPC   GL151649  15.270  36.224   5.606
 3994POPC   GL251650  15.501  36.022   5.797
 3994POPC   C1A51651  15.067  36.139   6.048
 3994POPC   D2A51652  14.796  36.179   6.421
 3994POPC   C3A51653  14.943  36.228   6.839
 3994POPC   C4A51654  14.886  36.326   7.273
 3994POPC   C1B51655  15.577  36.175   6.246
 3994POPC   C2B51656  15.429  36.161   6.700
 3994POPC   C3B51657  15.369  36.067   7.165
 3994POPC   C4B51658  15.509  35.767   7.529
 3995POPC   NC351659  42.769  41.651   5.199
 3995POPC   PO451660  43.352  41.443   5.522
 3995POPC   GL151661  43.309  41.333   5.904
 3995POPC   GL251662  43.586  41.173   6.007
 3995POPC   C1A51663  43.065  41.118   6.164
 3995POPC   D2A51664  42.944  41.178   6.581
 3995POPC   C3A51665  43.063  41.559   6.781
 3995POPC   C4A51666  42.961  41.705   7.178
 3995POPC   C1B51667  43.429  41.342   6.420
 3995POPC   C2B51668  43.471  41.220   6.848
 3995POPC   C3B51669  43.513  41.201   7.328
 3995POPC   C4B51670  43.479  41.477   7.758
 3996POPC   NC351671  12.582  39.221   5.068
 3996POPC   PO451672  13.025  39.306   5.581
 3996POPC   GL151673  12.929  39.200   5.995
 3996POPC   GL251674  12.700  39.466   6.084
 3996POPC   C1A51675  12.667  39.009   6.305
 3996POPC   D2A51676  12.829  38.813   6.659
 3996POPC   C3A51677  12.778  39.028   7.061
 3996POPC   C4A51678  12.792  39.174   7.502
 3996POPC   C1B51679  13.061  39.533   6.368
 3996POPC   C2B51680  13.079  39.646   6.811
 3996POPC   C3B51681  12.807  39.549   7.131
 3996POPC   C4B51682  12.442  39.575   7.372
 3997POPC   NC351683  41.767  10.098   5.489
 3997POPC   PO451684  41.496   9.518   5.472
 3997POPC   GL151685  41.647   9.441   5.902
 3997POPC   GL251686  41.847   9.725   5.828
 3997POPC   C1A51687  41.589   9.513   6.374
 3997POPC   D2A51688  41.346   9.911   6.527
 3997POPC   C3A51689  41.225   9.858   6.941
 3997POPC   C4A51690  41.360   9.645   7.321
 3997POPC   C1B51691  41.716   9.951   6.171
 3997POPC   C2B51692  41.862   9.930   6.588
 3997POPC   C3B51693  41.754   9.840   7.023
 3997POPC   C4B51694  41.521  10.150   7.271
 3998POPC   NC351695  19.912   3.067   5.520
 3998POPC   PO451696  19.308   2.745   5.520
 3998POPC   GL151697  19.623   2.767   5.848
 3998POPC   GL251698  19.994   2.743   5.895
 3998POPC   C1A51699  19.555   2.904   6.237
 3998POPC   D2A51700  19.586   3.063   6.637
 3998POPC   C3A51701  19.739   2.847   6.971
 3998POPC   C4A51702  19.847   2.977   7.407
 3998POPC   C1B51703  19.980   2.613   6.321
 3998POPC   C2B51704  20.103   2.550   6.751
 3998POPC   C3B51705  20.103   2.550   7.219
 3998POPC   C4B51706  20.236   2.613   7.664
 3999POPC   NC351707  23.632  21.702   5.644
 3999POPC   PO451708  23.884  21.070   5.556
 3999POPC   GL151709  23.965  21.321   5.935
 3999POPC   GL251710  23.853  21.665   6.109
 3999POPC   C1A51711  24.014  21.238   6.369
 3999POPC   D2A51712  23.766  21.469   6.662
 3999POPC   C3A51713  23.725  21.343   7.099
 3999POPC   C4A51714  23.932  21.557   7.444
 3999POPC   C1B51715  23.491  21.395   6.205
 3999POPC   C2B51716  23.234  21.453   6.535
 3999POPC   C3B51717  23.341  21.622   6.911
 3999POPC   C4B51718  23.513  21.779   7.270
 4000POPC   NC351719  40.857   3.267   5.315
 4000POPC   PO451720  40.450   3.793   5.377
 4000POPC   GL151721  40.579   3.442   5.711
 4000POPC   GL251722  40.894   3.226   5.823
 4000POPC   C1A51723  40.566   3.497   6.185
 4000POPC   D2A51724  40.876   3.418   6.535
 4000POPC   C3A51725  40.870   3.749   6.828
 4000POPC   C4A51726  41.094   3.900   7.185
 4000POPC   C1B51727  40.730   3.029   6.204
 4000POPC   C2B51728  40.452   3.121   6.563
 4000POPC   C3B51729  40.501   3.343   6.949
 4000POPC   C4B51730  40.912   3.357   7.139
 4001POPC   NC351731  37.531  31.228   5.547
 4001POPC   PO451732  37.995  30.672   5.648
 4001POPC   GL151733  37.863  30.508   5.989
 4001POPC   GL251734  37.488  30.491   5.932
 4001POPC   C1A51735  37.974  30.611   6.413
 4001POPC   D2A51736  37.912  30.993   6.686
 4001POPC   C3A51737  37.924  30.842   7.107
 4001POPC   C4A51738  38.078  30.405   7.168
 4001POPC   C1B51739  37.538  30.847   6.237
 4001POPC   C2B51740  37.387  30.896   6.662
 4001POPC   C3B51741  37.478  31.108   7.041
 4001POPC   C4B51742  37.462  30.975   7.492
 4002POPC   NC351743   2.888  41.115   5.456
 4002POPC   PO451744   3.003  40.463   5.418
 4002POPC   GL151745   2.925  40.521   5.838
 4002POPC   GL251746   2.812  40.867   5.932
 4002POPC   C1A51747   2.800  40.473   6.259
 4002POPC   D2A51748   2.578  40.542   6.635
 4002POPC   C3A51749   2.730  40.875   6.915
 4002POPC   C4A51750   2.894  40.745   7.306
 4002POPC   C1B51751   2.884  40.976   6.405
 4002POPC   C2B51752   3.031  41.287   6.721
 4002POPC   C3B51753   3.025  41.284   7.166
 4002POPC   C4B51754   2.629  41.181   7.370
 4003POPC   NC351755   0.651   2.386   5.491
 4003POPC   PO451756   0.335   1.808   5.395
 4003POPC   GL151757   0.441   1.999   5.789
 4003POPC   GL251758   0.249   2.299   5.842
 4003POPC   C1A51759   0.295   1.934   6.231
 4003POPC   D2A51760   0.166   1.979   6.687
 4003POPC   C3A51761   0.413   1.851   7.039
 4003POPC   C4A51762   0.287   1.693   7.415
 4003POPC   C1B51763   0.617   2.368   6.142
 4003POPC   C2B51764   0.749   2.487   6.559
 4003POPC   C3B51765   0.698   2.344   7.017
 4003POPC   C4B51766   0.862   2.424   7.435
 4004POPC   NC351767  31.709  13.500   5.447
 4004POPC   PO451768  31.143  13.865   5.235
 4004POPC   GL151769  31.377  13.836   5.665
 4004POPC   GL251770  31.324  13.491   5.802
 4004POPC   C1A51771  31.638  13.763   6.088
 4004POPC   D2A51772  31.433  13.700   6.487
 4004POPC   C3A51773  31.632  13.799   6.887
 4004POPC   C4A51774  31.644  13.933   7.315
 4004POPC   C1B51775  31.141  13.360   6.190
 4004POPC   C2B51776  31.239  13.226   6.597
 4004POPC   C3B51777  31.146  13.553   6.885
 4004POPC   C4B51778  31.284  13.573   7.279
 4005POPC   NC351779   9.030  16.404   5.277
 4005POPC   PO451780   8.624  16.898   5.625
 4005POPC   GL151781   8.918  16.698   5.940
 4005POPC   GL251782   9.125  16.390   5.823
 4005POPC   C1A51783   8.851  16.628   6.385
 4005POPC   D2A51784   8.829  16.624   6.829
 4005POPC   C3A51785   9.055  16.912   7.063
 4005POPC   C4A51786   9.290  17.256   7.165
 4005POPC   C1B51787   9.298  16.406   6.258
 4005POPC   C2B51788   9.328  16.592   6.698
 4005POPC   C3B51789   9.221  16.424   7.113
 4005POPC   C4B51790   8.870  16.518   7.376
 4006POPC   NC351791  43.437  38.980   5.427
 4006POPC   PO451792  42.894  39.148   5.162
 4006POPC   GL151793  43.008  39.141   5.689
 4006POPC   GL251794  43.325  39.180   5.884
 4006POPC   C1A51795  42.966  39.036   6.195
 4006POPC   D2A51796  43.089  39.212   6.641
 4006POPC   C3A51797  43.149  38.995   7.060
 4006POPC   C4A51798  42.829  38.868   7.375
 4006POPC   C1B51799  43.386  39.425   6.260
 4006POPC   C2B51800  43.520  39.499   6.683
 4006POPC   C3B51801  43.343  39.504   7.083
 4006POPC   C4B51802  43.036  39.438   7.413
 4007POPC   NC351803  32.042  12.557   5.426
 4007POPC   PO451804  32.387  13.045   5.457
 4007POPC   GL151805  32.189  12.898   5.809
 4007POPC   GL251806  32.348  12.607   5.832
 4007POPC   C1A51807  32.041  12.879   6.224
 4007POPC   D2A51808  32.240  13.040   6.609
 4007POPC   C3A51809  32.056  13.041   7.013
 4007POPC   C4A51810  32.045  12.824   7.361
 4007POPC   C1B51811  32.273  12.411   6.219
 4007POPC   C2B51812  32.034  12.523   6.582
 4007POPC   C3B51813  32.197  12.545   6.954
 4007POPC   C4B51814  32.243  12.356   7.315
 4008POPC   NC351815   7.042  11.869   5.413
 4008POPC   PO451816   6.982  12.592   5.432
 4008POPC   GL151817   7.115  12.298   5.776
 4008POPC   GL251818   7.387  12.060   5.755
 4008POPC   C1A51819   7.351  12.308   6.194
 4008POPC   D2A51820   7.649  12.331   6.519
 4008POPC   C3A51821   7.407  12.278   6.909
 4008POPC   C4A51822   7.137  12.044   7.194
 4008POPC   C1B51823   7.594  11.849   6.119
 4008POPC   C2B51824   7.572  11.822   6.543
 4008POPC   C3B51825   7.483  11.724   6.930
 4008POPC   C4B51826   7.635  11.886   7.286
 4009POPC   NC351827  11.288  21.645   5.343
 4009POPC   PO451828  11.542  21.118   5.461
 4009POPC   GL151829  11.271  21.302   5.766
 4009POPC   GL251830  11.191  20.992   5.945
 4009POPC   C1A51831  11.140  21.453   6.197
 4009POPC   D2A51832  11.073  21.257   6.636
 4009POPC   C3A51833  10.969  21.539   6.989
 4009POPC   C4A51834  11.152  21.537   7.403
 4009POPC   C1B51835  11.548  21.153   6.213
 4009POPC   C2B51836  11.676  21.116   6.681
 4009POPC   C3B51837  11.546  21.204   7.139
 4009POPC   C4B51838  11.559  21.283   7.597
 4010POPC   NC351839  39.295  40.428   5.224
 4010POPC   PO451840  39.620  39.937   5.498
 4010POPC   GL151841  39.631  40.177   5.867
 4010POPC   GL251842  39.280  40.108   5.959
 4010POPC   C1A51843  39.618  40.183   6.330
 4010POPC   D2A51844  39.302  39.970   6.597
 4010POPC   C3A51845  39.293  40.091   7.031
 4010POPC   C4A51846  39.530  40.059   7.412
 4010POPC   C1B51847  39.078  39.747   6.185
 4010POPC   C2B51848  38.997  39.505   6.546
 4010POPC   C3B51849  38.966  39.676   6.949
 4010POPC   C4B51850  38.823  39.853   7.336
 4011POPC   NC351851  18.693  43.812   5.302
 4011POPC   PO451852  19.302  43.607   5.311
 4011POPC   GL151853  19.109  43.836   5.683
 4011POPC   GL251854  19.373  44.034   5.830
 4011POPC   C1A51855  18.907  43.921   6.120
 4011POPC   D2A51856  18.832  44.072   6.582
 4011POPC   C3A51857  18.799  43.787   7.003
 4011POPC   C4A51858  18.516  43.785   7.381
 4011POPC   C1B51859  19.370  43.677   6.136
 4011POPC   C2B51860  19.139  43.680   6.530
 4011POPC   C3B51861  19.272  43.948   6.890
 4011POPC   C4B51862  19.245  43.780   7.306
 4012POPC   NC351863  13.987  43.386   5.505
 4012POPC   PO451864  13.407  43.111   5.339
 4012POPC   GL151865  13.566  43.068   5.742
 4012POPC   GL251866  13.520  43.434   5.774
 4012POPC   C1A51867  13.750  43.113   6.178
 4012POPC   D2A51868  14.024  43.156   6.561
 4012POPC   C3A51869  13.775  43.050   6.944
 4012POPC   C4A51870  13.701  43.219   7.344
 4012POPC   C1B51871  13.354  43.465   6.195
 4012POPC   C2B51872  13.510  43.349   6.604
 4012POPC   C3B51873  13.306  43.278   7.002
 4012POPC   C4B51874  13.057  43.273   7.358
 4013POPC   NC351875  27.084  44.734   5.432
 4013POPC   PO451876  26.491  44.646   5.568
 4013POPC   GL151877  26.769  44.848   5.853
 4013POPC   GL251878  26.895   0.159   5.686
 4013POPC   C1A51879  26.901  44.734   6.299
 4013POPC   D2A51880  26.663  44.765   6.705
 4013POPC   C3A51881  26.770  44.536   7.096
 4013POPC   C4A51882  26.767  44.656   7.552
 4013POPC   C1B51883  27.033   0.231   6.106
 4013POPC   C2B51884  27.265   0.083   6.483
 4013POPC   C3B51885  27.042   0.101   6.863
 4013POPC   C4B51886  27.048  44.942   7.247
 4014POPC   NC351887  19.826   5.476   5.362
 4014POPC   PO451888  20.042   6.120   5.426
 4014POPC   GL151889  19.979   5.921   5.815
 4014POPC   GL251890  19.728   5.657   5.826
 4014POPC   C1A51891  19.979   5.838   6.267
 4014POPC   D2A51892  19.887   5.591   6.648
 4014POPC   C3A51893  19.912   5.810   7.070
 4014POPC   C4A51894  20.078   5.654   7.479
 4014POPC   C1B51895  19.487   5.938   6.074
 4014POPC   C2B51896  19.266   5.810   6.447
 4014POPC   C3B51897  19.444   5.768   6.826
 4014POPC   C4B51898  19.387   5.845   7.219
 4015POPC   NC351899  44.442  29.195   5.441
 4015POPC   PO451900  44.877  28.679   5.321
 4015POPC   GL151901  44.774  28.837   5.725
 4015POPC   GL251902  44.944  29.150   5.741
 4015POPC   C1A51903  44.723  28.944   6.179
 4015POPC   D2A51904  44.799  28.886   6.640
 4015POPC   C3A51905  44.613  29.168   6.943
 4015POPC   C4A51906  44.444  29.054   7.357
 4015POPC   C1B51907  44.826  29.450   6.090
 4015POPC   C2B51908  44.730  29.474   6.519
 4015POPC   C3B51909  44.823  29.625   6.917
 4015POPC   C4B51910  44.879  29.424   7.280
 4016POPC   NC351911  25.213   8.704   5.443
 4016POPC   PO451912  25.505   9.226   5.268
 4016POPC   GL151913  25.286   9.189   5.710
 4016POPC   GL251914  24.917   9.195   5.849
 4016POPC   C1A51915  25.285   8.995   6.148
 4016POPC   D2A51916  25.236   9.198   6.558
 4016POPC   C3A51917  25.381   8.974   6.908
 4016POPC   C4A51918  25.358   8.805   7.313
 4016POPC   C1B51919  24.802   9.057   6.310
 4016POPC   C2B51920  24.755   8.994   6.784
 4016POPC   C3B51921  24.937   9.024   7.181
 4016POPC   C4B51922  25.266   9.319   7.351
 4017POPC   NC351923  35.382  25.655   5.193
 4017POPC   PO451924  35.325  26.261   5.465
 4017POPC   GL151925  35.241  26.018   5.823
 4017POPC   GL251926  35.454  26.267   6.010
 4017POPC   C1A51927  35.459  25.787   6.193
 4017POPC   D2A51928  35.674  25.846   6.608
 4017POPC   C3A51929  35.478  25.700   7.017
 4017POPC   C4A51930  35.726  25.607   7.413
 4017POPC   C1B51931  35.103  26.135   6.307
 4017POPC   C2B51932  35.036  25.930   6.723
 4017POPC   C3B51933  35.183  26.105   7.129
 4017POPC   C4B51934  35.572  26.110   7.402
 4018POPC   NC351935   6.501  21.573   5.421
 4018POPC   PO451936   6.859  20.927   5.433
 4018POPC   GL151937   6.640  21.184   5.775
 4018POPC   GL251938   6.780  21.550   5.838
 4018POPC   C1A51939   6.749  21.247   6.235
 4018POPC   D2A51940   7.064  21.164   6.505
 4018POPC   C3A51941   6.884  21.301   6.888
 4018POPC   C4A51942   6.574  21.286   7.202
 4018POPC   C1B51943   6.574  21.742   6.185
 4018POPC   C2B51944   6.462  21.588   6.610
 4018POPC   C3B51945   6.324  21.728   7.025
 4018POPC   C4B51946   6.279  21.754   7.512
 4019POPC   NC351947  11.727  10.457   5.133
 4019POPC   PO451948  11.143  10.417   5.501
 4019POPC   GL151949  11.210  10.658   5.906
 4019POPC   GL251950  11.002  10.948   6.044
 4019POPC   C1A51951  11.208  10.479   6.291
 4019POPC   D2A51952  11.136  10.286   6.682
 4019POPC   C3A51953  11.487  10.333   6.966
 4019POPC   C4A51954  11.306  10.345   7.347
 4019POPC   C1B51955  11.418  10.955   6.273
 4019POPC   C2B51956  11.416  10.752   6.668
 4019POPC   C3B51957  11.227  10.776   7.061
 4019POPC   C4B51958  10.981  11.022   7.311
 4020POPC   NC351959  35.653  21.165   5.392
 4020POPC   PO451960  35.011  21.518   5.407
 4020POPC   GL151961  35.170  21.348   5.819
 4020POPC   GL251962  35.560  21.317   5.878
 4020POPC   C1A51963  35.245  21.310   6.288
 4020POPC   D2A51964  35.465  21.454   6.681
 4020POPC   C3A51965  35.205  21.379   7.058
 4020POPC   C4A51966  35.224  21.425   7.535
 4020POPC   C1B51967  35.785  21.116   6.250
 4020POPC   C2B51968  35.707  20.958   6.664
 4020POPC   C3B51969  35.618  21.070   7.098
 4020POPC   C4B51970  35.684  21.164   7.561
 4021POPC   NC351971  42.614  26.087   5.208
 4021POPC   PO451972  43.211  26.086   5.549
 4021POPC   GL151973  43.203  25.979   5.929
 4021POPC   GL251974  42.987  25.702   5.916
 4021POPC   C1A51975  43.073  26.021   6.342
 4021POPC   D2A51976  43.317  26.180   6.671
 4021POPC   C3A51977  43.205  26.031   7.081
 4021POPC   C4A51978  43.359  25.970   7.495
 4021POPC   C1B51979  42.679  25.692   6.203
 4021POPC   C2B51980  42.681  25.796   6.614
 4021POPC   C3B51981  42.740  25.727   7.020
 4021POPC   C4B51982  42.932  25.594   7.365
 4022POPC   NC351983   8.237  37.512   5.297
 4022POPC   PO451984   7.586  37.496   5.403
 4022POPC   GL151985   7.924  37.541   5.751
 4022POPC   GL251986   8.162  37.854   5.816
 4022POPC   C1A51987   8.110  37.531   6.205
 4022POPC   D2A51988   8.424  37.515   6.564
 4022POPC   C3A51989   8.204  37.539   6.963
 4022POPC   C4A51990   8.007  37.895   7.172
 4022POPC   C1B51991   8.416  37.986   6.216
 4022POPC   C2B51992   8.328  38.048   6.690
 4022POPC   C3B51993   8.525  37.944   7.106
 4022POPC   C4B51994   8.571  38.012   7.566
 4023POPC   NC351995  23.337   5.340   5.114
 4023POPC   PO451996  22.900   4.892   5.291
 4023POPC   GL151997  22.867   4.938   5.767
 4023POPC   GL251998  22.956   5.284   5.818
 4023POPC   C1A51999  22.716   5.087   6.226
 4023POPC   D2A52000  22.725   5.277   6.682
 4023POPC   C3A52001  22.679   5.130   7.135
 4023POPC   C4A52002  22.568   5.404   7.530
 4023POPC   C1B52003  23.223   5.125   6.205
 4023POPC   C2B52004  23.237   5.161   6.690
 4023POPC   C3B52005  23.234   5.015   7.127
 4023POPC   C4B52006  23.387   4.810   7.555
 4024POPC   NC352007   8.599  13.811   5.516
 4024POPC   PO452008   9.220  13.503   5.406
 4024POPC   GL152009   9.148  13.446   5.839
 4024POPC   GL252010   8.806  13.447   5.918
 4024POPC   C1A52011   9.297  13.498   6.256
 4024POPC   D2A52012   9.189  13.327   6.644
 4024POPC   C3A52013   9.180  13.688   6.891
 4024POPC   C4A52014   9.209  13.894   7.265
 4024POPC   C1B52015   8.774  13.512   6.378
 4024POPC   C2B52016   8.722  13.482   6.813
 4024POPC   C3B52017   8.638  13.640   7.240
 4024POPC   C4B52018   8.675  13.368   7.647
 4025POPC   NC352019   0.658  19.177   5.509
 4025POPC   PO452020   0.050  18.994   5.490
 4025POPC   GL152021   0.214  19.087   5.896
 4025POPC   GL252022   0.560  18.964   5.957
 4025POPC   C1A52023   0.312  19.135   6.361
 4025POPC   D2A52024   0.460  18.929   6.744
 4025POPC   C3A52025   0.309  19.095   7.134
 4025POPC   C4A52026   0.107  19.126   7.530
 4025POPC   C1B52027   0.826  19.110   6.337
 4025POPC   C2B52028   0.958  18.978   6.781
 4025POPC   C3B52029   0.817  19.138   7.197
 4025POPC   C4B52030   0.595  19.001   7.603
 4026POPC   NC352031  32.625  31.694   5.451
 4026POPC   PO452032  31.953  31.584   5.510
 4026POPC   GL152033  32.049  31.364   5.893
 4026POPC   GL252034  32.411  31.332   5.883
 4026POPC   C1A52035  32.157  31.389   6.351
 4026POPC   D2A52036  32.468  31.544   6.640
 4026POPC   C3A52037  32.332  31.459   7.072
 4026POPC   C4A52038  31.948  31.477   7.250
 4026POPC   C1B52039  32.351  31.766   6.086
 4026POPC   C2B52040  32.481  32.044   6.422
 4026POPC   C3B52041  32.421  32.073   6.864
 4026POPC   C4B52042  32.390  31.918   7.271
 4027POPC   NC352043   6.154  34.102   5.681
 4027POPC   PO452044   5.961  33.564   5.325
 4027POPC   GL152045   5.947  33.651   5.758
 4027POPC   GL252046   5.620  33.742   5.711
 4027POPC   C1A52047   5.805  33.900   6.179
 4027POPC   D2A52048   5.536  34.057   6.508
 4027POPC   C3A52049   5.606  33.906   6.918
 4027POPC   C4A52050   5.962  33.826   7.225
 4027POPC   C1B52051   5.660  33.428   6.094
 4027POPC   C2B52052   5.675  33.525   6.531
 4027POPC   C3B52053   5.829  33.442   6.941
 4027POPC   C4B52054   5.761  33.377   7.406
 4028POPC   NC352055   5.877  19.513   5.234
 4028POPC   PO452056   5.840  18.856   5.355
 4028POPC   GL152057   5.871  19.013   5.762
 4028POPC   GL252058   5.939  18.675   5.846
 4028POPC   C1A52059   5.844  19.225   6.162
 4028POPC   D2A52060   6.058  19.221   6.544
 4028POPC   C3A52061   5.872  19.290   6.925
 4028POPC   C4A52062   5.897  19.150   7.316
 4028POPC   C1B52063   5.771  18.730   6.276
 4028POPC   C2B52064   5.805  18.791   6.737
 4028POPC   C3B52065   5.844  18.648   7.179
 4028POPC   C4B52066   6.037  18.753   7.605
 4029POPC   NC352067   1.750  28.012   5.638
 4029POPC   PO452068   1.650  27.393   5.653
 4029POPC   GL152069   1.867  27.627   5.940
 4029POPC   GL252070   2.190  27.761   5.827
 4029POPC   C1A52071   1.959  27.895   6.261
 4029POPC   D2A52072   2.119  27.697   6.583
 4029POPC   C3A52073   2.117  27.862   6.930
 4029POPC   C4A52074   1.912  27.665   7.218
 4029POPC   C1B52075   2.334  27.480   6.151
 4029POPC   C2B52076   2.505  27.369   6.574
 4029POPC   C3B52077   2.327  27.407   7.002
 4029POPC   C4B52078   2.266  27.337   7.441
 4030POPC   NC352079  25.075  41.085   5.462
 4030POPC   PO452080  24.964  40.310   5.458
 4030POPC   GL152081  25.012  40.642   5.747
 4030POPC   GL252082  25.381  40.715   5.711
 4030POPC   C1A52083  24.951  40.884   6.151
 4030POPC   D2A52084  25.216  40.914   6.537
 4030POPC   C3A52085  25.021  40.976   6.915
 4030POPC   C4A52086  25.090  40.780   7.296
 4030POPC   C1B52087  25.446  40.980   6.094
 4030POPC   C2B52088  25.710  41.056   6.506
 4030POPC   C3B52089  25.551  41.082   6.947
 4030POPC   C4B52090  25.413  41.166   7.389
 4031POPC   NC352091  22.769   4.470   5.401
 4031POPC   PO452092  22.718   3.774   5.448
 4031POPC   GL152093  22.814   4.057   5.797
 4031POPC   GL252094  22.617   4.380   5.866
 4031POPC   C1A52095  22.813   4.097   6.253
 4031POPC   D2A52096  23.126   4.237   6.569
 4031POPC   C3A52097  23.090   4.062   6.985
 4031POPC   C4A52098  22.826   4.110   7.331
 4031POPC   C1B52099  22.947   4.581   6.110
 4031POPC   C2B52100  22.983   4.735   6.520
 4031POPC   C3B52101  22.840   4.547   6.904
 4031POPC   C4B52102  22.944   4.641   7.302
 4032POPC   NC352103  11.603   4.163   5.436
 4032POPC   PO452104  10.925   4.333   5.481
 4032POPC   GL152105  11.064   4.254   5.877
 4032POPC   GL252106  11.340   4.445   5.840
 4032POPC   C1A52107  11.149   4.197   6.320
 4032POPC   D2A52108  11.219   3.917   6.649
 4032POPC   C3A52109  11.313   4.128   7.018
 4032POPC   C4A52110  11.364   4.348   7.410
 4032POPC   C1B52111  11.172   4.696   6.206
 4032POPC   C2B52112  11.263   4.599   6.661
 4032POPC   C3B52113  11.610   4.542   7.001
 4032POPC   C4B52114  11.860   4.436   7.384
 4033POPC   NC352115  25.776   5.924   5.323
 4033POPC   PO452116  26.343   6.096   5.712
 4033POPC   GL152117  25.992   5.938   5.914
 4033POPC   GL252118  25.787   5.674   5.765
 4033POPC   C1A52119  26.014   5.921   6.362
 4033POPC   D2A52120  26.287   5.665   6.613
 4033POPC   C3A52121  26.360   5.845   7.015
 4033POPC   C4A52122  26.176   5.952   7.394
 4033POPC   C1B52123  25.601   5.659   6.176
 4033POPC   C2B52124  25.571   5.807   6.576
 4033POPC   C3B52125  25.832   5.770   6.934
 4033POPC   C4B52126  25.747   5.707   7.359
 4034POPC   NC352127   7.658   9.506   5.247
 4034POPC   PO452128   7.101   9.968   5.412
 4034POPC   GL152129   7.401   9.770   5.711
 4034POPC   GL252130   7.434   9.414   5.752
 4034POPC   C1A52131   7.457   9.770   6.158
 4034POPC   D2A52132   7.228   9.878   6.538
 4034POPC   C3A52133   7.410   9.759   6.910
 4034POPC   C4A52134   7.245   9.854   7.292
 4034POPC   C1B52135   7.614   9.295   6.190
 4034POPC   C2B52136   7.741   9.531   6.560
 4034POPC   C3B52137   7.774   9.365   6.955
 4034POPC   C4B52138   7.619   9.521   7.314
 4035POPC   NC352139  17.129  20.999   5.432
 4035POPC   PO452140  17.522  20.394   5.433
 4035POPC   GL152141  17.590  20.628   5.849
 4035POPC   GL252142  17.266  20.775   5.885
 4035POPC   C1A52143  17.526  20.664   6.318
 4035POPC   D2A52144  17.481  20.837   6.739
 4035POPC   C3A52145  17.589  20.592   7.102
 4035POPC   C4A52146  17.859  20.453   7.407
 4035POPC   C1B52147  16.975  20.663   6.237
 4035POPC   C2B52148  16.877  20.364   6.584
 4035POPC   C3B52149  17.060  20.359   6.999
 4035POPC   C4B52150  17.103  20.760   7.175
 4036POPC   NC352151  33.625  40.918   5.589
 4036POPC   PO452152  32.951  40.800   5.428
 4036POPC   GL152153  32.828  40.676   5.829
 4036POPC   GL252154  33.150  40.761   5.978
 4036POPC   C1A52155  32.726  40.782   6.253
 4036POPC   D2A52156  32.845  41.018   6.595
 4036POPC   C3A52157  32.831  40.877   7.021
 4036POPC   C4A52158  32.858  40.765   7.468
 4036POPC   C1B52159  33.309  41.047   6.348
 4036POPC   C2B52160  33.290  41.089   6.828
 4036POPC   C3B52161  33.297  40.830   7.199
 4036POPC   C4B52162  33.356  40.918   7.651
 4037POPC   NC352163  33.057  40.353   5.481
 4037POPC   PO452164  32.887  39.705   5.495
 4037POPC   GL152165  32.930  39.947   5.870
 4037POPC   GL252166  33.174  40.234   5.939
 4037POPC   C1A52167  33.034  39.757   6.272
 4037POPC   D2A52168  32.921  39.665   6.698
 4037POPC   C3A52169  32.978  39.923   7.015
 4037POPC   C4A52170  33.188  39.859   7.359
 4037POPC   C1B52171  32.909  40.302   6.265
 4037POPC   C2B52172  32.886  40.500   6.648
 4037POPC   C3B52173  33.040  40.426   7.022
 4037POPC   C4B52174  32.871  40.269   7.383
 4038POPC   NC352175   6.694   9.668   5.370
 4038POPC   PO452176   6.326  10.187   5.446
 4038POPC   GL152177   6.609   9.995   5.774
 4038POPC   GL252178   6.533   9.658   5.844
 4038POPC   C1A52179   6.907   9.849   6.137
 4038POPC   D2A52180   6.807   9.574   6.542
 4038POPC   C3A52181   6.898   9.670   6.974
 4038POPC   C4A52182   6.770   9.930   7.408
 4038POPC   C1B52183   6.412   9.804   6.257
 4038POPC   C2B52184   6.263   9.610   6.654
 4038POPC   C3B52185   6.410   9.726   7.071
 4038POPC   C4B52186   6.502   9.499   7.444
 4039POPC   NC352187  34.355  38.979   5.552
 4039POPC   PO452188  34.639  39.505   5.380
 4039POPC   GL152189  34.629  39.324   5.805
 4039POPC   GL252190  34.802  39.621   5.863
 4039POPC   C1A52191  34.515  39.040   6.210
 4039POPC   D2A52192  34.425  38.879   6.653
 4039POPC   C3A52193  34.373  39.166   7.023
 4039POPC   C4A52194  34.354  39.019   7.455
 4039POPC   C1B52195  34.579  39.557   6.250
 4039POPC   C2B52196  34.670  39.375   6.640
 4039POPC   C3B52197  34.818  39.486   7.052
 4039POPC   C4B52198  34.556  39.502   7.445
 4040POPC   NC352199  44.795  36.520   5.340
 4040POPC   PO452200  44.428  36.017   5.461
 4040POPC   GL152201  44.627  36.145   5.826
 4040POPC   GL252202  44.838  35.843   5.813
 4040POPC   C1A52203  44.601  36.181   6.275
 4040POPC   D2A52204  44.402  35.972   6.635
 4040POPC   C3A52205  44.558  36.247   6.917
 4040POPC   C4A52206  44.708  36.349   7.324
 4040POPC   C1B52207   0.036  35.946   6.174
 4040POPC   C2B52208  44.916  35.981   6.619
 4040POPC   C3B52209  44.891  35.901   7.034
 4040POPC   C4B52210   0.160  35.971   7.303
 4041POPC   NC352211  25.252  12.256   5.277
 4041POPC   PO452212  25.861  12.004   5.295
 4041POPC   GL152213  25.547  11.933   5.666
 4041POPC   GL252214  25.331  12.243   5.778
 4041POPC   C1A52215  25.440  11.883   6.145
 4041POPC   D2A52216  25.233  11.856   6.564
 4041POPC   C3A52217  25.416  11.887   6.998
 4041POPC   C4A52218  25.123  11.973   7.322
 4041POPC   C1B52219  25.412  12.407   6.199
 4041POPC   C2B52220  25.435  12.317   6.641
 4041POPC   C3B52221  25.169  12.364   6.992
 4041POPC   C4B52222  25.240  12.447   7.433
 4042POPC   NC352223  24.556  20.115   5.191
 4042POPC   PO452224  24.670  20.626   5.607
 4042POPC   GL152225  24.420  20.467   5.900
 4042POPC   GL252226  24.718  20.402   6.090
 4042POPC   C1A52227  24.295  20.626   6.273
 4042POPC   D2A52228  24.321  20.867   6.619
 4042POPC   C3A52229  24.316  20.599   6.960
 4042POPC   C4A52230  24.387  20.651   7.380
 4042POPC   C1B52231  24.801  20.731   6.367
 4042POPC   C2B52232  24.803  20.682   6.805
 4042POPC   C3B52233  24.797  20.439   7.170
 4042POPC   C4B52234  24.869  20.609   7.654
 4043POPC   NC352235  30.338   4.315   5.455
 4043POPC   PO452236  29.707   4.091   5.221
 4043POPC   GL152237  29.870   4.198   5.678
 4043POPC   GL252238  30.027   4.520   5.783
 4043POPC   C1A52239  29.766   4.276   6.144
 4043POPC   D2A52240  29.681   4.190   6.594
 4043POPC   C3A52241  29.705   4.498   6.915
 4043POPC   C4A52242  29.741   4.472   7.383
 4043POPC   C1B52243  30.188   4.635   6.156
 4043POPC   C2B52244  29.970   4.647   6.488
 4043POPC   C3B52245  30.158   4.703   6.853
 4043POPC   C4B52246  30.185   4.381   7.158
 4044POPC   NC352247   4.077  22.474   5.397
 4044POPC   PO452248   3.920  23.161   5.350
 4044POPC   GL152249   4.037  23.104   5.801
 4044POPC   GL252250   4.371  22.991   5.852
 4044POPC   C1A52251   4.042  23.052   6.244
 4044POPC   D2A52252   4.098  22.875   6.635
 4044POPC   C3A52253   4.387  22.924   6.955
 4044POPC   C4A52254   4.105  23.018   7.266
 4044POPC   C1B52255   4.467  23.337   6.159
 4044POPC   C2B52256   4.569  23.241   6.564
 4044POPC   C3B52257   4.539  23.421   6.948
 4044POPC   C4B52258   4.545  23.257   7.351
 4045POPC   NC352259  13.297  36.779   5.541
 4045POPC   PO452260  12.662  36.918   5.368
 4045POPC   GL152261  12.899  37.065   5.736
 4045POPC   GL252262  12.847  36.770   5.884
 4045POPC   C1A52263  13.021  37.201   6.145
 4045POPC   D2A52264  12.913  37.038   6.549
 4045POPC   C3A52265  12.968  37.276   6.924
 4045POPC   C4A52266  13.172  37.171   7.340
 4045POPC   C1B52267  13.162  36.727   6.198
 4045POPC   C2B52268  13.317  36.721   6.585
 4045POPC   C3B52269  13.276  36.858   6.964
 4045POPC   C4B52270  12.934  36.746   7.234
 4046POPC   NC352271  43.967  39.443   5.318
 4046POPC   PO452272  43.738  40.147   5.337
 4046POPC   GL152273  43.783  39.910   5.708
 4046POPC   GL252274  44.085  39.796   5.711
 4046POPC   C1A52275  43.630  39.859   6.138
 4046POPC   D2A52276  43.749  39.952   6.546
 4046POPC   C3A52277  43.523  39.982   6.914
 4046POPC   C4A52278  43.719  40.191   7.248
 4046POPC   C1B52279  44.142  39.919   6.170
 4046POPC   C2B52280  44.227  40.090   6.606
 4046POPC   C3B52281  44.196  40.022   7.076
 4046POPC   C4B52282  44.280  39.893   7.513
 4047POPC   NC352283  12.100  20.072   5.523
 4047POPC   PO452284  11.650  19.570   5.399
 4047POPC   GL152285  11.872  19.713   5.865
 4047POPC   GL252286  12.246  19.840   5.951
 4047POPC   C1A52287  11.895  19.995   6.283
 4047POPC   D2A52288  12.155  20.048   6.596
 4047POPC   C3A52289  12.073  19.775   6.899
 4047POPC   C4A52290  12.116  19.786   7.309
 4047POPC   C1B52291  12.196  19.584   6.347
 4047POPC   C2B52292  12.378  19.400   6.736
 4047POPC   C3B52293  12.542  19.603   7.121
 4047POPC   C4B52294  12.522  19.655   7.619
 4048POPC   NC352295   6.828   8.684   5.485
 4048POPC   PO452296   6.613   9.229   5.449
 4048POPC   GL152297   6.474   8.947   5.768
 4048POPC   GL252298   6.335   9.209   5.912
 4048POPC   C1A52299   6.651   8.844   6.163
 4048POPC   D2A52300   6.889   9.062   6.470
 4048POPC   C3A52301   6.843   9.027   6.921
 4048POPC   C4A52302   6.559   8.732   7.159
 4048POPC   C1B52303   6.492   9.307   6.258
 4048POPC   C2B52304   6.418   9.108   6.631
 4048POPC   C3B52305   6.392   9.219   7.032
 4048POPC   C4B52306   6.205   9.080   7.401
 4049POPC   NC352307  24.153  35.237   5.157
 4049POPC   PO452308  24.608  34.852   5.325
 4049POPC   GL152309  24.629  35.155   5.787
 4049POPC   GL252310  24.590  35.528   5.886
 4049POPC   C1A52311  24.413  35.196   6.210
 4049POPC   D2A52312  24.586  35.160   6.578
 4049POPC   C3A52313  24.342  35.323   6.870
 4049POPC   C4A52314  24.405  35.304   7.300
 4049POPC   C1B52315  24.865  35.477   6.233
 4049POPC   C2B52316  24.857  35.564   6.673
 4049POPC   C3B52317  24.827  35.279   7.020
 4049POPC   C4B52318  24.854  35.646   7.232
 4050POPC   NC352319  27.722   9.110   5.315
 4050POPC   PO452320  27.316   8.638   5.505
 4050POPC   GL152321  27.586   8.880   5.775
 4050POPC   GL252322  27.556   9.247   5.794
 4050POPC   C1A52323  27.706   8.778   6.194
 4050POPC   D2A52324  27.945   8.955   6.529
 4050POPC   C3A52325  27.995   8.712   6.873
 4050POPC   C4A52326  27.948   8.867   7.226
 4050POPC   C1B52327  27.336   9.122   6.171
 4050POPC   C2B52328  27.454   9.009   6.628
 4050POPC   C3B52329  27.463   8.943   7.067
 4050POPC   C4B52330  27.559   9.040   7.507
 4051POPC   NC352331  21.637  42.212   5.302
 4051POPC   PO452332  21.373  42.740   5.472
 4051POPC   GL152333  21.404  42.356   5.736
 4051POPC   GL252334  21.147  42.140   5.794
 4051POPC   C1A52335  21.553  42.168   6.130
 4051POPC   D2A52336  21.376  42.130   6.555
 4051POPC   C3A52337  21.633  42.371   6.845
 4051POPC   C4A52338  21.609  42.362   7.269
 4051POPC   C1B52339  21.102  42.490   6.132
 4051POPC   C2B52340  21.031  42.528   6.574
 4051POPC   C3B52341  21.174  42.603   6.983
 4051POPC   C4B52342  20.971  42.643   7.360
 4052POPC   NC352343  34.690   2.463   5.359
 4052POPC   PO452344  34.473   1.910   5.343
 4052POPC   GL152345  34.494   2.180   5.723
 4052POPC   GL252346  34.864   2.276   5.802
 4052POPC   C1A52347  34.424   2.204   6.167
 4052POPC   D2A52348  34.712   1.992   6.460
 4052POPC   C3A52349  34.465   1.800   6.785
 4052POPC   C4A52350  34.463   1.832   7.227
 4052POPC   C1B52351  34.844   2.481   6.215
 4052POPC   C2B52352  34.663   2.480   6.648
 4052POPC   C3B52353  34.760   2.193   6.952
 4052POPC   C4B52354  35.146   2.199   7.146
 4053POPC   NC352355  33.468  16.795   5.633
 4053POPC   PO452356  33.863  16.401   5.274
 4053POPC   GL152357  33.914  16.522   5.738
 4053POPC   GL252358  33.936  16.888   5.846
 4053POPC   C1A52359  33.798  16.511   6.189
 4053POPC   D2A52360  33.700  16.536   6.621
 4053POPC   C3A52361  33.946  16.767   6.936
 4053POPC   C4A52362  34.328  16.596   7.156
 4053POPC   C1B52363  33.663  17.008   6.204
 4053POPC   C2B52364  33.748  17.145   6.597
 4053POPC   C3B52365  33.556  17.269   6.960
 4053POPC   C4B52366  33.543  16.984   7.239
 4054POPC   NC352367  21.810  14.933   5.687
 4054POPC   PO452368  22.444  14.853   5.443
 4054POPC   GL152369  22.355  15.134   5.807
 4054POPC   GL252370  22.067  15.384   5.705
 4054POPC   C1A52371  22.407  15.053   6.287
 4054POPC   D2A52372  22.620  15.153   6.702
 4054POPC   C3A52373  22.364  15.133   7.080
 4054POPC   C4A52374  21.961  14.975   7.011
 4054POPC   C1B52375  22.097  15.445   6.146
 4054POPC   C2B52376  22.231  15.477   6.577
 4054POPC   C3B52377  22.019  15.503   6.957
 4054POPC   C4B52378  21.860  15.397   7.326
 4055POPC   NC352379   8.085  43.611   5.326
 4055POPC   PO452380   8.414  44.125   5.521
 4055POPC   GL152381   8.150  43.856   5.816
 4055POPC   GL252382   7.999  43.536   5.829
 4055POPC   C1A52383   8.049  43.876   6.265
 4055POPC   D2A52384   8.092  44.257   6.510
 4055POPC   C3A52385   8.176  44.268   6.960
 4055POPC   C4A52386   8.099  44.047   7.339
 4055POPC   C1B52387   8.367  43.517   6.144
 4055POPC   C2B52388   8.514  43.714   6.528
 4055POPC   C3B52389   8.307  43.776   6.906
 4055POPC   C4B52390   8.271  43.560   7.277
 4056POPC   NC352391  13.222  30.063   5.565
 4056POPC   PO452392  12.885  29.751   5.040
 4056POPC   GL152393  12.840  29.659   5.566
 4056POPC   GL252394  13.146  29.603   5.792
 4056POPC   C1A52395  12.763  29.769   6.064
 4056POPC   D2A52396  13.037  29.820   6.464
 4056POPC   C3A52397  12.936  29.877   6.903
 4056POPC   C4A52398  12.937  30.230   7.216
 4056POPC   C1B52399  13.388  29.585   6.165
 4056POPC   C2B52400  13.331  29.400   6.584
 4056POPC   C3B52401  13.361  29.578   6.987
 4056POPC   C4B52402  13.204  29.793   7.312
 4057POPC   NC352403  43.360  24.542   5.439
 4057POPC   PO452404  42.799  24.910   5.328
 4057POPC   GL152405  42.991  24.804   5.731
 4057POPC   GL252406  42.973  24.426   5.768
 4057POPC   C1A52407  43.010  24.733   6.186
 4057POPC   D2A52408  42.909  24.494   6.586
 4057POPC   C3A52409  42.977  24.717   7.001
 4057POPC   C4A52410  42.836  24.717   7.437
 4057POPC   C1B52411  43.084  24.216   6.165
 4057POPC   C2B52412  43.224  23.979   6.501
 4057POPC   C3B52413  43.084  24.090   6.907
 4057POPC   C4B52414  43.303  24.360   7.184
 4058POPC   NC352415  43.554  18.311   5.370
 4058POPC   PO452416  44.233  18.511   5.176
 4058POPC   GL152417  44.014  18.513   5.663
 4058POPC   GL252418  44.298  18.435   5.895
 4058POPC   C1A52419  43.869  18.230   6.077
 4058POPC   D2A52420  43.554  18.165   6.427
 4058POPC   C3A52421  43.711  18.178   6.848
 4058POPC   C4A52422  43.787  18.214   7.271
 4058POPC   C1B52423  44.299  18.351   6.357
 4058POPC   C2B52424  44.238  18.305   6.833
 4058POPC   C3B52425  44.262  18.488   7.264
 4058POPC   C4B52426  44.068  18.388   7.670
 4059POPC   NC352427   6.943  30.560   5.419
 4059POPC   PO452428   6.474  31.088   5.362
 4059POPC   GL152429   6.582  30.756   5.737
 4059POPC   GL252430   6.294  30.512   5.815
 4059POPC   C1A52431   6.891  30.603   6.114
 4059POPC   D2A52432   7.067  30.774   6.536
 4059POPC   C3A52433   6.973  30.556   6.942
 4059POPC   C4A52434   6.662  30.550   7.285
 4059POPC   C1B52435   6.404  30.644   6.213
 4059POPC   C2B52436   6.593  30.511   6.581
 4059POPC   C3B52437   6.300  30.537   6.930
 4059POPC   C4B52438   6.144  30.872   7.155
 4060POPC   NC352439   2.426  34.080   5.351
 4060POPC   PO452440   2.665  33.497   5.534
 4060POPC   GL152441   2.673  33.896   5.794
 4060POPC   GL252442   3.009  34.010   5.912
 4060POPC   C1A52443   2.524  33.822   6.199
 4060POPC   D2A52444   2.678  33.475   6.489
 4060POPC   C3A52445   2.673  33.570   6.941
 4060POPC   C4A52446   2.626  33.930   7.206
 4060POPC   C1B52447   2.980  33.971   6.318
 4060POPC   C2B52448   2.975  34.136   6.676
 4060POPC   C3B52449   3.100  33.980   7.024
 4060POPC   C4B52450   3.039  34.212   7.319
 4061POPC   NC352451  30.791  26.350   5.332
 4061POPC   PO452452  30.955  25.694   5.352
 4061POPC   GL152453  30.701  25.820   5.713
 4061POPC   GL252454  30.504  26.129   5.702
 4061POPC   C1A52455  30.785  25.970   6.153
 4061POPC   D2A52456  30.915  25.802   6.571
 4061POPC   C3A52457  30.638  25.897   6.922
 4061POPC   C4A52458  30.675  26.028   7.349
 4061POPC   C1B52459  30.320  26.178   6.087
 4061POPC   C2B52460  30.383  26.052   6.491
 4061POPC   C3B52461  30.204  26.221   6.833
 4061POPC   C4B52462  30.253  26.299   7.243
 4062POPC   NC352463  39.032   0.121   5.606
 4062POPC   PO452464  39.250  44.429   5.446
 4062POPC   GL152465  39.414  44.514   5.818
 4062POPC   GL252466  39.395  44.854   5.863
 4062POPC   C1A52467  39.348  44.513   6.266
 4062POPC   D2A52468  39.342  44.347   6.678
 4062POPC   C3A52469  39.212  44.651   6.971
 4062POPC   C4A52470  38.997  44.667   7.360
 4062POPC   C1B52471  39.082  44.956   6.219
 4062POPC   C2B52472  39.039   0.042   6.652
 4062POPC   C3B52473  38.915   0.066   7.053
 4062POPC   C4B52474  39.224   0.170   7.369
 4063POPC   NC352475  21.112  15.428   5.453
 4063POPC   PO452476  21.406  16.066   5.435
 4063POPC   GL152477  21.246  16.020   5.846
 4063POPC   GL252478  21.391  15.690   5.874
 4063POPC   C1A52479  21.250  15.982   6.315
 4063POPC   D2A52480  21.255  15.659   6.646
 4063POPC   C3A52481  21.135  15.811   7.038
 4063POPC   C4A52482  21.255  16.226   7.103
 4063POPC   C1B52483  21.646  15.660   6.270
 4063POPC   C2B52484  21.748  15.834   6.685
 4063POPC   C3B52485  21.661  15.852   7.153
 4063POPC   C4B52486  21.564  15.710   7.598
 4064POPC   NC352487   7.239  20.724   5.229
 4064POPC   PO452488   6.740  20.340   5.399
 4064POPC   GL152489   6.669  20.624   5.779
 4064POPC   GL252490   6.965  20.756   5.938
 4064POPC   C1A52491   6.510  20.826   6.147
 4064POPC   D2A52492   6.694  20.778   6.540
 4064POPC   C3A52493   6.400  20.673   6.857
 4064POPC   C4A52494   6.192  20.959   7.130
 4064POPC   C1B52495   6.730  20.364   6.177
 4064POPC   C2B52496   6.683  20.244   6.582
 4064POPC   C3B52497   6.908  20.288   6.937
 4064POPC   C4B52498   6.653  20.429   7.229
 4065POPC   NC352499  33.395  11.941   5.604
 4065POPC   PO452500  33.981  12.301   5.560
 4065POPC   GL152501  33.680  12.268   5.919
 4065POPC   GL252502  33.328  12.391   5.973
 4065POPC   C1A52503  33.715  12.056   6.339
 4065POPC   D2A52504  34.007  11.971   6.710
 4065POPC   C3A52505  34.105  12.266   7.073
 4065POPC   C4A52506  33.913  12.155   7.471
 4065POPC   C1B52507  33.553  12.551   6.320
 4065POPC   C2B52508  33.788  12.453   6.674
 4065POPC   C3B52509  33.615  12.192   6.988
 4065POPC   C4B52510  33.354  12.348   7.292
 4066POPC   NC352511  34.860  21.052   5.471
 4066POPC   PO452512  34.500  20.365   5.549
 4066POPC   GL152513  34.496  20.527   5.935
 4066POPC   GL252514  34.613  20.839   5.858
 4066POPC   C1A52515  34.417  20.677   6.313
 4066POPC   D2A52516  34.576  20.621   6.686
 4066POPC   C3A52517  34.235  20.586   6.924
 4066POPC   C4A52518  34.154  20.688   7.330
 4066POPC   C1B52519  34.798  21.058   6.176
 4066POPC   C2B52520  34.676  21.130   6.588
 4066POPC   C3B52521  34.513  21.003   7.026
 4066POPC   C4B52522  34.623  20.859   7.436
 4067POPC   NC352523  17.334  15.728   5.384
 4067POPC   PO452524  17.976  15.984   5.546
 4067POPC   GL152525  17.568  15.913   5.813
 4067POPC   GL252526  17.423  16.244   5.946
 4067POPC   C1A52527  17.377  15.827   6.230
 4067POPC   D2A52528  17.622  16.104   6.536
 4067POPC   C3A52529  17.543  16.047   6.961
 4067POPC   C4A52530  17.546  15.661   7.136
 4067POPC   C1B52531  17.193  16.279   6.342
 4067POPC   C2B52532  17.074  16.004   6.705
 4067POPC   C3B52533  17.087  15.904   7.172
 4067POPC   C4B52534  17.125  16.132   7.574
 4068POPC   NC352535  44.633  24.577   5.489
 4068POPC   PO452536  44.147  24.196   5.622
 4068POPC   GL152537  44.492  24.347   5.927
 4068POPC   GL252538  44.904  24.340   5.850
 4068POPC   C1A52539  44.543  24.355   6.353
 4068POPC   D2A52540  44.325  24.342   6.721
 4068POPC   C3A52541  44.407  24.696   6.963
 4068POPC   C4A52542  44.772  24.875   7.113
 4068POPC   C1B52543   0.048  24.229   6.265
 4068POPC   C2B52544   0.066  24.406   6.674
 4068POPC   C3B52545  44.810  24.356   7.014
 4068POPC   C4B52546  44.939  24.169   7.360
 4069POPC   NC352547  15.015  18.525   5.540
 4069POPC   PO452548  14.963  19.224   5.445
 4069POPC   GL152549  15.174  19.059   5.837
 4069POPC   GL252550  15.134  18.745   5.955
 4069POPC   C1A52551  15.264  19.070   6.305
 4069POPC   D2A52552  15.139  19.374   6.631
 4069POPC   C3A52553  15.398  19.310   6.963
 4069POPC   C4A52554  15.218  19.023   7.215
 4069POPC   C1B52555  14.871  18.715   6.296
 4069POPC   C2B52556  14.897  18.719   6.743
 4069POPC   C3B52557  14.790  18.711   7.185
 4069POPC   C4B52558  15.028  18.753   7.599
 4070POPC   NC352559   9.347  26.548   5.683
 4070POPC   PO452560   9.944  26.744   5.424
 4070POPC   GL152561   9.807  26.731   5.847
 4070POPC   GL252562   9.536  26.970   5.906
 4070POPC   C1A52563   9.743  26.685   6.289
 4070POPC   D2A52564   9.699  26.884   6.672
 4070POPC   C3A52565  10.055  26.765   6.969
 4070POPC   C4A52566  10.161  26.352   7.191
 4070POPC   C1B52567   9.275  26.903   6.271
 4070POPC   C2B52568   9.125  26.701   6.614
 4070POPC   C3B52569   9.396  26.559   6.901
 4070POPC   C4B52570   9.599  26.738   7.186
 4071POPC   NC352571  43.892  36.702   5.288
 4071POPC   PO452572  43.800  37.364   5.454
 4071POPC   GL152573  43.958  37.029   5.710
 4071POPC   GL252574  43.666  36.811   5.809
 4071POPC   C1A52575  44.090  36.854   6.094
 4071POPC   D2A52576  44.011  36.931   6.522
 4071POPC   C3A52577  43.730  36.790   6.855
 4071POPC   C4A52578  43.909  36.842   7.267
 4071POPC   C1B52579  43.679  37.159   6.167
 4071POPC   C2B52580  43.627  37.260   6.636
 4071POPC   C3B52581  43.523  37.197   7.101
 4071POPC   C4B52582  43.742  37.361   7.499
 4072POPC   NC352583  31.692   5.225   5.358
 4072POPC   PO452584  31.336   4.765   5.490
 4072POPC   GL152585  31.461   4.970   5.840
 4072POPC   GL252586  31.777   5.141   5.859
 4072POPC   C1A52587  31.558   4.887   6.259
 4072POPC   D2A52588  31.725   4.925   6.672
 4072POPC   C3A52589  31.396   4.923   7.000
 4072POPC   C4A52590  30.956   4.997   7.141
 4072POPC   C1B52591  31.961   5.376   6.200
 4072POPC   C2B52592  32.047   5.340   6.662
 4072POPC   C3B52593  31.807   5.292   7.065
 4072POPC   C4B52594  31.343   5.408   7.140
 4073POPC   NC352595  17.115  23.290   5.459
 4073POPC   PO452596  16.581  22.899   5.360
 4073POPC   GL152597  16.785  22.968   5.727
 4073POPC   GL252598  16.531  22.690   5.850
 4073POPC   C1A52599  16.933  22.843   6.137
 4073POPC   D2A52600  16.660  22.826   6.493
 4073POPC   C3A52601  16.909  22.920   6.808
 4073POPC   C4A52602  16.876  22.956   7.212
 4073POPC   C1B52603  16.470  23.100   6.086
 4073POPC   C2B52604  16.355  23.268   6.479
 4073POPC   C3B52605  16.424  23.265   6.915
 4073POPC   C4B52606  16.349  23.103   7.274
 4074POPC   NC352607  21.710  37.310   5.242
 4074POPC   PO452608  21.495  37.951   5.366
 4074POPC   GL152609  21.498  37.926   5.814
 4074POPC   GL252610  21.178  37.772   5.830
 4074POPC   C1A52611  21.569  37.748   6.252
 4074POPC   D2A52612  21.410  37.612   6.669
 4074POPC   C3A52613  21.626  37.654   7.106
 4074POPC   C4A52614  21.566  37.454   7.556
 4074POPC   C1B52615  21.128  38.000   6.222
 4074POPC   C2B52616  20.989  37.934   6.637
 4074POPC   C3B52617  21.172  37.902   7.040
 4074POPC   C4B52618  21.352  37.929   7.469
 4075POPC   NC352619   2.981  16.757   5.396
 4075POPC   PO452620   2.381  16.999   5.429
 4075POPC   GL152621   2.628  16.805   5.777
 4075POPC   GL252622   2.874  16.490   5.815
 4075POPC   C1A52623   2.701  16.926   6.192
 4075POPC   D2A52624   2.461  16.815   6.547
 4075POPC   C3A52625   2.604  16.549   6.845
 4075POPC   C4A52626   2.629  16.843   7.158
 4075POPC   C1B52627   2.820  16.444   6.266
 4075POPC   C2B52628   3.022  16.699   6.575
 4075POPC   C3B52629   3.102  16.865   6.958
 4075POPC   C4B52630   2.986  16.477   7.187
 4076POPC   NC352631   1.481  19.039   5.497
 4076POPC   PO452632   0.825  18.733   5.490
 4076POPC   GL152633   1.061  18.978   5.805
 4076POPC   GL252634   1.331  18.728   5.889
 4076POPC   C1A52635   1.276  19.229   6.126
 4076POPC   D2A52636   1.365  19.172   6.571
 4076POPC   C3A52637   1.238  19.377   6.966
 4076POPC   C4A52638   1.416  19.385   7.383
 4076POPC   C1B52639   1.189  18.750   6.322
 4076POPC   C2B52640   1.316  18.567   6.708
 4076POPC   C3B52641   1.543  18.611   7.090
 4076POPC   C4B52642   1.277  18.914   7.217
 4077POPC   NC352643  22.440   0.768   5.586
 4077POPC   PO452644  22.080   0.300   5.767
 4077POPC   GL152645  22.096   0.688   5.951
 4077POPC   GL252646  22.438   0.651   6.085
 4077POPC   C1A52647  21.968   0.764   6.343
 4077POPC   D2A52648  22.041   0.371   6.539
 4077POPC   C3A52649  22.116   0.498   6.920
 4077POPC   C4A52650  21.960   0.386   7.297
 4077POPC   C1B52651  22.488   0.252   6.288
 4077POPC   C2B52652  22.669   0.153   6.671
 4077POPC   C3B52653  22.471   0.147   7.069
 4077POPC   C4B52654  22.462   0.508   7.309
 4078POPC   NC352655  26.097  36.537   5.463
 4078POPC   PO452656  26.109  37.228   5.204
 4078POPC   GL152657  26.153  37.055   5.643
 4078POPC   GL252658  25.859  36.868   5.759
 4078POPC   C1A52659  26.155  37.037   6.125
 4078POPC   D2A52660  26.394  36.809   6.435
 4078POPC   C3A52661  26.250  36.866   6.848
 4078POPC   C4A52662  26.093  36.891   7.248
 4078POPC   C1B52663  25.742  36.728   6.185
 4078POPC   C2B52664  25.613  36.680   6.616
 4078POPC   C3B52665  25.644  36.949   7.000
 4078POPC   C4B52666  25.641  36.886   7.445
 4079POPC   NC352667  16.245  17.970   5.423
 4079POPC   PO452668  15.882  18.512   5.545
 4079POPC   GL152669  16.087  18.239   5.844
 4079POPC   GL252670  15.932  17.902   5.864
 4079POPC   C1A52671  16.323  18.275   6.228
 4079POPC   D2A52672  16.294  18.095   6.627
 4079POPC   C3A52673  16.130  18.208   7.011
 4079POPC   C4A52674  16.074  18.580   7.168
 4079POPC   C1B52675  15.889  18.025   6.302
 4079POPC   C2B52676  15.773  17.912   6.739
 4079POPC   C3B52677  15.612  18.156   7.106
 4079POPC   C4B52678  15.722  18.205   7.562
 4080POPC   NC352679  33.715  24.855   5.359
 4080POPC   PO452680  33.810  24.173   5.376
 4080POPC   GL152681  33.693  24.473   5.733
 4080POPC   GL252682  33.511  24.812   5.808
 4080POPC   C1A52683  33.788  24.530   6.178
 4080POPC   D2A52684  34.011  24.386   6.530
 4080POPC   C3A52685  33.850  24.475   6.911
 4080POPC   C4A52686  33.956  24.266   7.284
 4080POPC   C1B52687  33.656  25.026   6.189
 4080POPC   C2B52688  33.702  24.890   6.605
 4080POPC   C3B52689  33.830  24.975   7.014
 4080POPC   C4B52690  33.607  25.003   7.409
 4081POPC   NC352691   1.309  41.751   5.438
 4081POPC   PO452692   0.893  41.281   5.513
 4081POPC   GL152693   1.058  41.464   5.846
 4081POPC   GL252694   0.990  41.812   5.858
 4081POPC   C1A52695   1.224  41.513   6.254
 4081POPC   D2A52696   1.118  41.601   6.678
 4081POPC   C3A52697   1.389  41.511   7.025
 4081POPC   C4A52698   1.291  41.204   7.338
 4081POPC   C1B52699   1.110  42.024   6.273
 4081POPC   C2B52700   1.140  42.103   6.732
 4081POPC   C3B52701   0.978  41.877   7.108
 4081POPC   C4B52702   0.872  42.032   7.544
 4082POPC   NC352703   7.716   1.183   5.366
 4082POPC   PO452704   7.111   0.905   5.483
 4082POPC   GL152705   7.356   1.149   5.755
 4082POPC   GL252706   7.683   1.082   5.859
 4082POPC   C1A52707   7.288   1.288   6.165
 4082POPC   D2A52708   7.270   1.091   6.558
 4082POPC   C3A52709   7.099   1.319   6.876
 4082POPC   C4A52710   7.214   1.161   7.248
 4082POPC   C1B52711   7.806   1.343   6.194
 4082POPC   C2B52712   7.616   1.468   6.564
 4082POPC   C3B52713   7.611   1.314   6.960
 4082POPC   C4B52714   7.636   1.458   7.362
 4083POPC   NC352715   5.352  24.605   5.378
 4083POPC   PO452716   4.899  24.157   5.598
 4083POPC   GL152717   5.091  24.419   5.940
 4083POPC   GL252718   5.394  24.619   5.874
 4083POPC   C1A52719   5.102  24.457   6.408
 4083POPC   D2A52720   4.835  24.370   6.785
 4083POPC   C3A52721   4.865  24.682   7.102
 4083POPC   C4A52722   4.856  24.590   7.568
 4083POPC   C1B52723   5.556  24.303   6.169
 4083POPC   C2B52724   5.568  24.317   6.614
 4083POPC   C3B52725   5.331  24.447   6.944
 4083POPC   C4B52726   5.155  24.277   7.289
 4084POPC   NC352727   1.615  23.094   5.492
 4084POPC   PO452728   2.186  22.691   5.380
 4084POPC   GL152729   2.049  22.924   5.713
 4084POPC   GL252730   1.872  22.656   5.824
 4084POPC   C1A52731   1.995  23.031   6.146
 4084POPC   D2A52732   2.079  23.152   6.556
 4084POPC   C3A52733   1.856  22.982   6.878
 4084POPC   C4A52734   2.122  23.130   7.223
 4084POPC   C1B52735   2.212  22.550   6.125
 4084POPC   C2B52736   2.126  22.624   6.568
 4084POPC   C3B52737   2.141  22.604   7.025
 4084POPC   C4B52738   2.300  22.719   7.472
 4085POPC   NC352739  14.310  35.704   5.275
 4085POPC   PO452740  14.589  36.316   5.428
 4085POPC   GL152741  14.334  36.168   5.728
 4085POPC   GL252742  14.602  35.967   5.855
 4085POPC   C1A52743  14.339  36.259   6.167
 4085POPC   D2A52744  14.396  36.521   6.520
 4085POPC   C3A52745  14.437  36.273   6.919
 4085POPC   C4A52746  14.324  36.092   7.304
 4085POPC   C1B52747  14.514  35.789   6.259
 4085POPC   C2B52748  14.567  35.821   6.708
 4085POPC   C3B52749  14.743  35.845   7.129
 4085POPC   C4B52750  14.681  35.917   7.596
 4086POPC   NC352751  13.041  40.096   5.320
 4086POPC   PO452752  12.560  39.615   5.305
 4086POPC   GL152753  12.674  39.876   5.743
 4086POPC   GL252754  12.904  40.194   5.807
 4086POPC   C1A52755  12.771  39.956   6.235
 4086POPC   D2A52756  12.600  39.788   6.652
 4086POPC   C3A52757  12.620  40.027   7.055
 4086POPC   C4A52758  12.776  39.954   7.498
 4086POPC   C1B52759  13.124  40.352   6.182
 4086POPC   C2B52760  13.065  40.458   6.610
 4086POPC   C3B52761  13.033  40.327   7.031
 4086POPC   C4B52762  13.283  40.223   7.354
 4087POPC   NC352763  38.832  24.306   5.484
 4087POPC   PO452764  39.282  24.710   5.475
 4087POPC   GL152765  39.095  24.593   5.838
 4087POPC   GL252766  39.016  24.228   5.947
 4087POPC   C1A52767  39.287  24.584   6.221
 4087POPC   D2A52768  39.179  24.425   6.615
 4087POPC   C3A52769  39.210  24.663   6.993
 4087POPC   C4A52770  38.815  24.669   7.201
 4087POPC   C1B52771  39.335  24.050   6.230
 4087POPC   C2B52772  39.493  24.024   6.639
 4087POPC   C3B52773  39.472  24.199   6.982
 4087POPC   C4B52774  39.031  24.162   7.072
 4088POPC   NC352775   8.217  26.484   5.527
 4088POPC   PO452776   8.329  27.123   5.528
 4088POPC   GL152777   8.443  26.829   5.862
 4088POPC   GL252778   8.421  26.454   5.972
 4088POPC   C1A52779   8.386  26.871   6.309
 4088POPC   D2A52780   8.035  26.990   6.548
 4088POPC   C3A52781   8.286  27.153   6.833
 4088POPC   C4A52782   8.404  27.145   7.239
 4088POPC   C1B52783   8.035  26.522   6.202
 4088POPC   C2B52784   8.113  26.494   6.634
 4088POPC   C3B52785   8.103  26.701   7.025
 4088POPC   C4B52786   7.875  26.556   7.348
 4089POPC   NC352787   3.745   8.916   5.430
 4089POPC   PO452788   3.070   8.849   5.443
 4089POPC   GL152789   3.393   8.857   5.820
 4089POPC   GL252790   3.774   8.975   5.930
 4089POPC   C1A52791   3.395   9.017   6.259
 4089POPC   D2A52792   3.620   8.925   6.624
 4089POPC   C3A52793   3.366   8.894   6.987
 4089POPC   C4A52794   3.424   8.968   7.412
 4089POPC   C1B52795   3.862   9.289   6.267
 4089POPC   C2B52796   3.706   9.423   6.684
 4089POPC   C3B52797   3.760   9.223   7.093
 4089POPC   C4B52798   3.727   9.364   7.545
 4090POPC   NC352799   7.492   0.675   5.601
 4090POPC   PO452800   7.516   0.055   5.376
 4090POPC   GL152801   7.719   0.211   5.804
 4090POPC   GL252802   7.734   0.529   6.008
 4090POPC   C1A52803   7.506   0.143   6.239
 4090POPC   D2A52804   7.199   0.386   6.519
 4090POPC   C3A52805   7.051   0.151   6.870
 4090POPC   C4A52806   7.231   0.283   7.210
 4090POPC   C1B52807   7.665   0.856   6.296
 4090POPC   C2B52808   7.883   1.009   6.626
 4090POPC   C3B52809   7.606   0.805   6.885
 4090POPC   C4B52810   7.461   0.719   7.271
 4091POPC   NC352811   9.899  28.907   5.479
 4091POPC   PO452812  10.047  29.665   5.498
 4091POPC   GL152813   9.779  29.351   5.748
 4091POPC   GL252814   9.921  29.114   5.981
 4091POPC   C1A52815   9.470  29.296   6.091
 4091POPC   D2A52816   9.644  29.121   6.478
 4091POPC   C3A52817   9.486  29.018   6.883
 4091POPC   C4A52818   9.560  29.116   7.325
 4091POPC   C1B52819  10.050  28.833   6.313
 4091POPC   C2B52820   9.891  28.700   6.690
 4091POPC   C3B52821   9.908  28.816   7.111
 4091POPC   C4B52822   9.908  28.867   7.583
 4092POPC   NC352823  16.668  12.706   5.674
 4092POPC   PO452824  16.691  12.236   5.138
 4092POPC   GL152825  16.689  12.066   5.613
 4092POPC   GL252826  16.991  11.993   5.853
 4092POPC   C1A52827  16.510  12.020   6.080
 4092POPC   D2A52828  16.410  11.854   6.528
 4092POPC   C3A52829  16.463  11.998   6.950
 4092POPC   C4A52830  16.492  12.040   7.404
 4092POPC   C1B52831  16.969  12.270   6.206
 4092POPC   C2B52832  16.799  12.222   6.622
 4092POPC   C3B52833  16.983  12.150   7.047
 4092POPC   C4B52834  17.001  12.051   7.494
 4093POPC   NC352835  43.795   1.383   5.260
 4093POPC   PO452836  43.905   0.771   5.468
 4093POPC   GL152837  43.789   1.141   5.739
 4093POPC   GL252838  43.645   1.487   5.738
 4093POPC   C1A52839  43.963   1.246   6.136
 4093POPC   D2A52840  44.127   1.155   6.546
 4093POPC   C3A52841  43.935   0.948   6.889
 4093POPC   C4A52842  43.908   1.115   7.301
 4093POPC   C1B52843  43.717   1.690   6.138
 4093POPC   C2B52844  43.828   1.583   6.520
 4093POPC   C3B52845  43.930   1.471   6.910
 4093POPC   C4B52846  43.675   1.571   7.225
 4094POPC   NC352847  10.417  19.689   5.202
 4094POPC   PO452848  10.562  19.028   5.332
 4094POPC   GL152849  10.563  19.149   5.791
 4094POPC   GL252850  10.489  18.818   5.917
 4094POPC   C1A52851  10.634  19.266   6.230
 4094POPC   D2A52852  10.574  19.011   6.620
 4094POPC   C3A52853  10.723  19.200   7.013
 4094POPC   C4A52854  10.423  19.241   7.338
 4094POPC   C1B52855  10.216  18.953   6.212
 4094POPC   C2B52856  10.052  18.815   6.573
 4094POPC   C3B52857  10.161  18.981   6.973
 4094POPC   C4B52858  10.174  18.778   7.343
 4095POPC   NC352859  13.924  14.605   5.601
 4095POPC   PO452860  14.508  14.736   5.339
 4095POPC   GL152861  14.424  14.575   5.814
 4095POPC   GL252862  14.157  14.315   5.944
 4095POPC   C1A52863  14.552  14.376   6.226
 4095POPC   D2A52864  14.380  14.407   6.629
 4095POPC   C3A52865  14.619  14.463   6.974
 4095POPC   C4A52866  14.468  14.622   7.342
 4095POPC   C1B52867  14.073  14.094   6.333
 4095POPC   C2B52868  14.052  14.016   6.781
 4095POPC   C3B52869  14.181  14.218   7.180
 4095POPC   C4B52870  14.267  14.118   7.653
 4096POPC   NC352871   4.096   5.344   5.511
 4096POPC   PO452872   4.649   4.923   5.408
 4096POPC   GL152873   4.492   5.073   5.787
 4096POPC   GL252874   4.154   4.933   5.852
 4096POPC   C1A52875   4.721   5.223   6.129
 4096POPC   D2A52876   4.821   5.170   6.564
 4096POPC   C3A52877   4.508   5.107   6.920
 4096POPC   C4A52878   4.244   5.034   7.320
 4096POPC   C1B52879   4.366   4.860   6.266
 4096POPC   C2B52880   4.169   4.791   6.685
 4096POPC   C3B52881   3.871   4.816   7.069
 4096POPC   C4B52882   3.842   4.718   7.561
 4097POPC   NC352883  15.977  36.675   5.416
 4097POPC   PO452884  15.831  37.313   5.549
 4097POPC   GL152885  15.763  36.969   5.893
 4097POPC   GL252886  15.795  36.563   5.888
 4097POPC   C1A52887  15.741  37.058   6.342
 4097POPC   D2A52888  15.953  37.284   6.686
 4097POPC   C3A52889  15.931  36.991   7.032
 4097POPC   C4A52890  15.716  36.537   7.045
 4097POPC   C1B52891  16.085  36.671   6.218
 4097POPC   C2B52892  16.058  36.639   6.671
 4097POPC   C3B52893  16.223  36.578   7.108
 4097POPC   C4B52894  16.357  36.596   7.543
 4098POPC   NC352895  44.226  28.224   5.337
 4098POPC   PO452896  43.522  28.390   5.314
 4098POPC   GL152897  43.590  28.376   5.756
 4098POPC   GL252898  43.939  28.335   5.772
 4098POPC   C1A52899  43.680  28.632   6.143
 4098POPC   D2A52900  43.910  28.787   6.502
 4098POPC   C3A52901  43.656  28.746   6.861
 4098POPC   C4A52902  43.578  28.535   7.244
 4098POPC   C1B52903  43.801  28.135   6.156
 4098POPC   C2B52904  43.975  28.145   6.566
 4098POPC   C3B52905  44.009  28.373   6.899
 4098POPC   C4B52906  43.954  28.187   7.256
 4099POPC   NC352907   8.764  21.558   5.388
 4099POPC   PO452908   9.219  21.060   5.545
 4099POPC   GL152909   9.041  21.400   5.792
 4099POPC   GL252910   8.794  21.150   5.883
 4099POPC   C1A52911   8.812  21.587   6.156
 4099POPC   D2A52912   8.743  21.488   6.591
 4099POPC   C3A52913   8.630  21.234   6.963
 4099POPC   C4A52914   8.608  21.465   7.355
 4099POPC   C1B52915   9.110  21.111   6.271
 4099POPC   C2B52916   9.134  21.205   6.746
 4099POPC   C3B52917   9.026  21.572   7.029
 4099POPC   C4B52918   9.084  21.693   7.476
 4100POPC   NC352919  18.716  37.790   5.166
 4100POPC   PO452920  18.152  37.622   5.499
 4100POPC   GL152921  18.294  37.682   5.895
 4100POPC   GL252922  18.506  37.976   5.808
 4100POPC   C1A52923  18.211  37.565   6.350
 4100POPC   D2A52924  18.208  37.328   6.769
 4100POPC   C3A52925  18.075  37.523   7.169
 4100POPC   C4A52926  18.335  37.439   7.526
 4100POPC   C1B52927  18.270  38.094   6.195
 4100POPC   C2B52928  18.226  38.009   6.598
 4100POPC   C3B52929  18.414  37.783   6.910
 4100POPC   C4B52930  18.436  37.909   7.331
 4101POPC   NC352931   1.670   7.047   5.579
 4101POPC   PO452932   1.270   7.420   5.197
 4101POPC   GL152933   1.203   7.375   5.659
 4101POPC   GL252934   1.508   7.533   5.793
 4101POPC   C1A52935   1.197   7.343   6.134
 4101POPC   D2A52936   1.262   7.508   6.546
 4101POPC   C3A52937   1.098   7.310   6.892
 4101POPC   C4A52938   1.162   7.495   7.262
 4101POPC   C1B52939   1.513   7.802   6.171
 4101POPC   C2B52940   1.677   7.811   6.601
 4101POPC   C3B52941   1.610   7.515   6.947
 4101POPC   C4B52942   1.642   7.509   7.429
 4102POPC   NC352943  10.498  38.621   5.416
 4102POPC   PO452944  10.773  38.044   5.413
 4102POPC   GL152945  10.510  38.199   5.795
 4102POPC   GL252946  10.387  38.563   5.891
 4102POPC   C1A52947  10.558  38.270   6.255
 4102POPC   D2A52948  10.328  38.378   6.607
 4102POPC   C3A52949  10.461  38.225   6.991
 4102POPC   C4A52950  10.252  38.411   7.311
 4102POPC   C1B52951  10.413  38.850   6.216
 4102POPC   C2B52952  10.586  38.943   6.609
 4102POPC   C3B52953  10.437  38.742   6.953
 4102POPC   C4B52954  10.640  38.734   7.319
 4103POPC   NC352955   3.999  12.181   5.592
 4103POPC   PO452956   4.371  11.864   5.205
 4103POPC   GL152957   4.489  11.985   5.686
 4103POPC   GL252958   4.321  12.225   5.960
 4103POPC   C1A52959   4.602  11.861   6.144
 4103POPC   D2A52960   4.312  12.076   6.454
 4103POPC   C3A52961   4.381  12.076   6.875
 4103POPC   C4A52962   4.335  12.095   7.337
 4103POPC   C1B52963   3.925  12.329   6.250
 4103POPC   C2B52964   3.920  12.636   6.560
 4103POPC   C3B52965   4.008  12.433   6.935
 4103POPC   C4B52966   3.936  12.398   7.341
 4104POPC   NC352967   4.855  43.647   5.457
 4104POPC   PO452968   5.324  44.105   5.339
 4104POPC   GL152969   4.997  44.087   5.708
 4104POPC   GL252970   5.111  44.417   5.763
 4104POPC   C1A52971   4.840  43.938   6.160
 4104POPC   D2A52972   4.922  43.699   6.571
 4104POPC   C3A52973   4.885  43.890   7.003
 4104POPC   C4A52974   4.977  43.874   7.478
 4104POPC   C1B52975   5.264  44.212   6.138
 4104POPC   C2B52976   5.088  44.230   6.556
 4104POPC   C3B52977   5.396  44.079   6.840
 4104POPC   C4B52978   5.370  43.745   7.150
 4105POPC   NC352979  42.679  36.537   5.395
 4105POPC   PO452980  42.577  37.173   5.549
 4105POPC   GL152981  42.329  36.866   5.800
 4105POPC   GL252982  41.994  36.713   5.792
 4105POPC   C1A52983  42.286  36.791   6.219
 4105POPC   D2A52984  42.359  37.004   6.582
 4105POPC   C3A52985  42.633  36.809   6.870
 4105POPC   C4A52986  42.395  36.683   7.225
 4105POPC   C1B52987  41.896  37.062   6.061
 4105POPC   C2B52988  41.844  37.105   6.499
 4105POPC   C3B52989  41.980  36.869   6.887
 4105POPC   C4B52990  42.282  37.157   7.082
 4106POPC   NC352991   6.816  34.850   5.722
 4106POPC   PO452992   6.493  34.306   5.452
 4106POPC   GL152993   6.634  34.385   5.867
 4106POPC   GL252994   6.936  34.349   5.725
 4106POPC   C1A52995   6.737  34.561   6.304
 4106POPC   D2A52996   6.634  34.988   6.498
 4106POPC   C3A52997   6.367  34.941   6.885
 4106POPC   C4A52998   6.515  34.718   7.264
 4106POPC   C1B52999   7.073  34.183   6.125
 4106POPC   C2B53000   7.135  34.326   6.554
 4106POPC   C3B53001   6.872  34.499   6.878
 4106POPC   C4B53002   6.950  34.298   7.267
 4107POPC   NC353003  20.476  14.486   5.001
 4107POPC   PO453004  20.444  14.058   5.531
 4107POPC   GL153005  20.572  14.346   5.817
 4107POPC   GL253006  20.384  14.685   5.829
 4107POPC   C1A53007  20.551  14.202   6.227
 4107POPC   D2A53008  20.444  14.088   6.631
 4107POPC   C3A53009  20.692  14.317   6.891
 4107POPC   C4A53010  20.904  14.145   7.187
 4107POPC   C1B53011  20.216  14.591   6.267
 4107POPC   C2B53012  20.284  14.614   6.729
 4107POPC   C3B53013  20.402  14.636   7.163
 4107POPC   C4B53014  20.835  14.642   7.284
 4108POPC   NC353015  40.317  17.362   5.491
 4108POPC   PO453016  39.621  17.340   5.520
 4108POPC   GL153017  39.893  17.342   5.862
 4108POPC   GL253018  39.966  17.682   5.926
 4108POPC   C1A53019  39.791  17.360   6.299
 4108POPC   D2A53020  39.861  17.145   6.670
 4108POPC   C3A53021  39.781  17.440   6.969
 4108POPC   C4A53022  40.057  17.713   7.172
 4108POPC   C1B53023  40.277  17.493   6.231
 4108POPC   C2B53024  40.248  17.468   6.702
 4108POPC   C3B53025  40.526  17.545   7.047
 4108POPC   C4B53026  40.499  17.721   7.447
 4109POPC   NC353027  41.922  15.706   5.481
 4109POPC   PO453028  41.909  16.265   5.170
 4109POPC   GL153029  41.636  16.117   5.581
 4109POPC   GL253030  41.389  15.897   5.754
 4109POPC   C1A53031  41.762  16.031   6.060
 4109POPC   D2A53032  41.563  16.131   6.463
 4109POPC   C3A53033  41.675  16.016   6.900
 4109POPC   C4A53034  41.489  16.107   7.309
 4109POPC   C1B53035  41.265  15.816   6.177
 4109POPC   C2B53036  41.334  15.670   6.597
 4109POPC   C3B53037  41.215  15.777   7.016
 4109POPC   C4B53038  41.480  15.595   7.337
 4110POPC   NC353039  35.954  42.086   5.447
 4110POPC   PO453040  36.045  42.730   5.465
 4110POPC   GL153041  36.234  42.561   5.848
 4110POPC   GL253042  36.203  42.212   5.857
 4110POPC   C1A53043  36.264  42.395   6.304
 4110POPC   D2A53044  36.465  42.274   6.664
 4110POPC   C3A53045  36.198  42.357   6.996
 4110POPC   C4A53046  36.056  42.724   7.168
 4110POPC   C1B53047  35.895  42.052   6.124
 4110POPC   C2B53048  35.998  41.882   6.513
 4110POPC   C3B53049  35.788  41.889   6.884
 4110POPC   C4B53050  35.926  42.011   7.252
 4111POPC   NC353051  32.252  25.670   5.360
 4111POPC   PO453052  32.536  26.275   5.351
 4111POPC   GL153053  32.415  26.000   5.720
 4111POPC   GL253054  32.071  26.046   5.840
 4111POPC   C1A53055  32.452  25.907   6.166
 4111POPC   D2A53056  32.307  26.102   6.550
 4111POPC   C3A53057  32.509  25.968   6.952
 4111POPC   C4A53058  32.403  25.932   7.390
 4111POPC   C1B53059  32.113  26.451   6.105
 4111POPC   C2B53060  32.051  26.546   6.577
 4111POPC   C3B53061  32.157  26.344   7.003
 4111POPC   C4B53062  31.972  26.247   7.426
 4112POPC   NC353063   9.360  35.231   5.572
 4112POPC   PO453064   8.646  35.428   5.509
 4112POPC   GL153065   8.945  35.397   5.872
 4112POPC   GL253066   9.268  35.574   5.945
 4112POPC   C1A53067   9.042  35.112   6.214
 4112POPC   D2A53068   9.134  35.114   6.659
 4112POPC   C3A53069   8.780  35.165   6.930
 4112POPC   C4A53070   8.860  35.294   7.339
 4112POPC   C1B53071   9.118  35.598   6.387
 4112POPC   C2B53072   9.040  35.601   6.849
 4112POPC   C3B53073   9.326  35.396   7.151
 4112POPC   C4B53074   9.410  35.456   7.604
 4113POPC   NC353075  24.982  37.064   5.684
 4113POPC   PO453076  25.194  37.652   5.479
 4113POPC   GL153077  25.370  37.466   5.856
 4113POPC   GL253078  25.066  37.433   6.006
 4113POPC   C1A53079  25.397  37.607   6.328
 4113POPC   D2A53080  25.239  37.708   6.746
 4113POPC   C3A53081  25.605  37.756   7.079
 4113POPC   C4A53082  25.684  37.781   7.554
 4113POPC   C1B53083  24.890  37.806   6.225
 4113POPC   C2B53084  24.781  37.997   6.612
 4113POPC   C3B53085  24.867  37.930   7.054
 4113POPC   C4B53086  25.135  37.724   7.262
 4114POPC   NC353087  12.607  28.194   5.506
 4114POPC   PO453088  11.996  28.489   5.622
 4114POPC   GL153089  12.319  28.402   5.890
 4114POPC   GL253090  12.547  28.706   5.913
 4114POPC   C1A53091  12.263  28.127   6.254
 4114POPC   D2A53092  12.343  28.194   6.694
 4114POPC   C3A53093  12.220  28.389   7.095
 4114POPC   C4A53094  12.244  28.326   7.555
 4114POPC   C1B53095  12.341  28.625   6.338
 4114POPC   C2B53096  12.111  28.717   6.697
 4114POPC   C3B53097  11.894  28.801   7.093
 4114POPC   C4B53098  12.057  28.955   7.486
 4115POPC   NC353099  14.990   1.010   5.249
 4115POPC   PO453100  15.601   1.344   5.347
 4115POPC   GL153101  15.289   1.410   5.685
 4115POPC   GL253102  15.116   1.090   5.764
 4115POPC   C1A53103  15.131   1.429   6.155
 4115POPC   D2A53104  15.133   1.192   6.545
 4115POPC   C3A53105  15.018   1.416   6.921
 4115POPC   C4A53106  15.135   1.212   7.294
 4115POPC   C1B53107  14.919   0.919   6.159
 4115POPC   C2B53108  14.817   0.759   6.573
 4115POPC   C3B53109  14.813   0.954   6.972
 4115POPC   C4B53110  14.851   0.758   7.358
 4116POPC   NC353111   9.183  18.832   5.308
 4116POPC   PO453112   8.560  19.079   5.128
 4116POPC   GL153113   8.835  19.054   5.592
 4116POPC   GL253114   8.697  19.257   5.862
 4116POPC   C1A53115   9.064  18.913   6.011
 4116POPC   D2A53116   8.960  18.720   6.437
 4116POPC   C3A53117   9.158  18.911   6.796
 4116POPC   C4A53118   9.150  18.927   7.237
 4116POPC   C1B53119   8.616  19.070   6.261
 4116POPC   C2B53120   8.674  19.061   6.706
 4116POPC   C3B53121   8.833  19.258   7.041
 4116POPC   C4B53122   8.871  19.241   7.535
 4117POPC   NC353123  34.901  31.447   5.284
 4117POPC   PO453124  34.441  31.057   5.427
 4117POPC   GL153125  34.587  31.397   5.726
 4117POPC   GL253126  34.850  31.247   5.888
 4117POPC   C1A53127  34.477  31.492   6.180
 4117POPC   D2A53128  34.730  31.317   6.512
 4117POPC   C3A53129  34.619  31.370   6.934
 4117POPC   C4A53130  34.403  31.246   7.304
 4117POPC   C1B53131  34.901  31.715   6.045
 4117POPC   C2B53132  35.002  31.801   6.484
 4117POPC   C3B53133  35.014  31.765   6.929
 4117POPC   C4B53134  34.839  31.575   7.339
 4118POPC   NC353135  29.484  30.955   5.427
 4118POPC   PO453136  30.080  30.580   5.455
 4118POPC   GL153137  29.935  30.488   5.860
 4118POPC   GL253138  29.780  30.810   5.824
 4118POPC   C1A53139  29.904  30.617   6.322
 4118POPC   D2A53140  29.784  30.408   6.736
 4118POPC   C3A53141  29.965  30.471   7.153
 4118POPC   C4A53142  30.133  30.862   7.244
 4118POPC   C1B53143  29.593  31.027   6.150
 4118POPC   C2B53144  29.687  31.231   6.551
 4118POPC   C3B53145  29.607  31.128   7.000
 4118POPC   C4B53146  29.632  30.840   7.377
 4119POPC   NC353147  41.218  38.789   5.306
 4119POPC   PO453148  41.733  38.430   5.462
 4119POPC   GL153149  41.524  38.373   5.846
 4119POPC   GL253150  41.244  38.625   5.789
 4119POPC   C1A53151  41.600  38.344   6.305
 4119POPC   D2A53152  41.653  38.639   6.658
 4119POPC   C3A53153  41.608  38.454   7.075
 4119POPC   C4A53154  41.693  38.018   7.226
 4119POPC   C1B53155  41.339  38.770   6.179
 4119POPC   C2B53156  41.158  38.645   6.531
 4119POPC   C3B53157  41.240  38.807   6.941
 4119POPC   C4B53158  41.234  38.678   7.382
 4120POPC   NC353159  16.717  25.106   5.240
 4120POPC   PO453160  16.551  24.533   5.643
 4120POPC   GL153161  16.782  24.476   5.986
 4120POPC   GL253162  16.989  24.728   5.892
 4120POPC   C1A53163  16.900  24.142   6.243
 4120POPC   D2A53164  16.962  23.895   6.591
 4120POPC   C3A53165  17.115  24.189   6.858
 4120POPC   C4A53166  16.792  24.425   7.095
 4120POPC   C1B53167  17.062  24.779   6.332
 4120POPC   C2B53168  17.087  24.687   6.758
 4120POPC   C3B53169  17.055  24.870   7.170
 4120POPC   C4B53170  17.191  24.912   7.602
 4121POPC   NC353171  25.241  11.033   5.285
 4121POPC   PO453172  25.327  10.442   5.538
 4121POPC   GL153173  25.358  10.630   5.927
 4121POPC   GL253174  25.626  10.874   5.910
 4121POPC   C1A53175  25.226  10.490   6.332
 4121POPC   D2A53176  25.436  10.209   6.567
 4121POPC   C3A53177  25.381  10.336   6.965
 4121POPC   C4A53178  25.295  10.650   7.254
 4121POPC   C1B53179  25.443  10.944   6.334
 4121POPC   C2B53180  25.409  10.825   6.768
 4121POPC   C3B53181  25.508  11.102   7.128
 4121POPC   C4B53182  25.345  11.091   7.546
 4122POPC   NC353183  40.616  40.423   5.527
 4122POPC   PO453184  40.922  40.935   5.516
 4122POPC   GL153185  40.898  40.926   5.933
 4122POPC   GL253186  40.593  40.801   5.941
 4122POPC   C1A53187  40.923  40.603   6.276
 4122POPC   D2A53188  40.945  40.739   6.688
 4122POPC   C3A53189  40.974  40.510   7.051
 4122POPC   C4A53190  40.994  40.655   7.500
 4122POPC   C1B53191  40.393  40.662   6.310
 4122POPC   C2B53192  40.311  40.853   6.716
 4122POPC   C3B53193  40.523  40.854   7.105
 4122POPC   C4B53194  40.545  40.502   7.301
 4123POPC   NC353195   7.798  13.725   5.427
 4123POPC   PO453196   7.224  13.253   5.609
 4123POPC   GL153197   7.363  13.494   5.953
 4123POPC   GL253198   7.593  13.762   5.886
 4123POPC   C1A53199   7.517  13.670   6.375
 4123POPC   D2A53200   7.814  13.468   6.639
 4123POPC   C3A53201   7.638  13.438   7.039
 4123POPC   C4A53202   7.217  13.337   7.127
 4123POPC   C1B53203   7.203  13.950   6.079
 4123POPC   C2B53204   7.089  13.947   6.527
 4123POPC   C3B53205   7.346  13.868   6.886
 4123POPC   C4B53206   7.293  14.112   7.241
 4124POPC   NC353207  25.604  13.180   4.960
 4124POPC   PO453208  25.447  12.660   5.401
 4124POPC   GL153209  25.260  12.772   5.796
 4124POPC   GL253210  25.020  13.008   5.701
 4124POPC   C1A53211  25.388  12.920   6.222
 4124POPC   D2A53212  25.151  12.748   6.598
 4124POPC   C3A53213  25.258  12.865   7.033
 4124POPC   C4A53214  25.448  12.898   7.419
 4124POPC   C1B53215  24.901  12.997   6.171
 4124POPC   C2B53216  25.072  13.262   6.507
 4124POPC   C3B53217  25.130  13.353   6.935
 4124POPC   C4B53218  25.101  13.264   7.380
 4125POPC   NC353219  36.269  23.139   5.519
 4125POPC   PO453220  35.655  23.110   5.434
 4125POPC   GL153221  35.909  22.902   5.776
 4125POPC   GL253222  36.174  22.637   5.688
 4125POPC   C1A53223  36.049  23.111   6.163
 4125POPC   D2A53224  36.011  22.987   6.564
 4125POPC   C3A53225  36.209  23.249   6.857
 4125POPC   C4A53226  36.478  23.063   7.182
 4125POPC   C1B53227  36.055  22.554   6.124
 4125POPC   C2B53228  36.226  22.511   6.534
 4125POPC   C3B53229  36.419  22.612   6.922
 4125POPC   C4B53230  36.255  22.441   7.279
 4126POPC   NC353231  12.409  44.190   5.546
 4126POPC   PO453232  11.852  43.733   5.485
 4126POPC   GL153233  12.054  43.861   5.822
 4126POPC   GL253234  11.943  44.187   5.847
 4126POPC   C1A53235  12.187  43.670   6.193
 4126POPC   D2A53236  12.071  43.770   6.606
 4126POPC   C3A53237  12.255  43.611   6.953
 4126POPC   C4A53238  12.201  43.768   7.340
 4126POPC   C1B53239  12.147  44.182   6.269
 4126POPC   C2B53240  11.960  44.311   6.649
 4126POPC   C3B53241  12.073  44.255   7.081
 4126POPC   C4B53242  11.810  44.217   7.445
 4127POPC   NC353243   8.594  30.826   5.116
 4127POPC   PO453244   8.066  30.458   5.560
 4127POPC   GL153245   8.011  30.795   5.815
 4127POPC   GL253246   8.324  30.919   5.836
 4127POPC   C1A53247   8.032  30.927   6.244
 4127POPC   D2A53248   8.001  30.575   6.474
 4127POPC   C3A53249   8.035  30.630   6.893
 4127POPC   C4A53250   8.198  30.418   7.207
 4127POPC   C1B53251   8.473  30.657   6.198
 4127POPC   C2B53252   8.442  30.793   6.624
 4127POPC   C3B53253   8.577  30.694   7.025
 4127POPC   C4B53254   8.538  30.763   7.445
 4128POPC   NC353255   4.917   6.893   5.682
 4128POPC   PO453256   4.301   6.882   5.324
 4128POPC   GL153257   4.222   6.837   5.781
 4128POPC   GL253258   4.013   7.097   5.851
 4128POPC   C1A53259   4.338   6.738   6.240
 4128POPC   D2A53260   4.226   6.423   6.586
 4128POPC   C3A53261   4.487   6.347   6.960
 4128POPC   C4A53262   4.537   6.684   7.283
 4128POPC   C1B53263   3.807   7.002   6.197
 4128POPC   C2B53264   4.046   7.044   6.550
 4128POPC   C3B53265   4.229   6.820   6.904
 4128POPC   C4B53266   4.159   7.001   7.330
 4129POPC   NC353267  39.739  29.078   5.540
 4129POPC   PO453268  40.070  29.507   5.131
 4129POPC   GL153269  40.215  29.374   5.659
 4129POPC   GL253270  40.194  29.012   5.755
 4129POPC   C1A53271  40.024  29.294   6.141
 4129POPC   D2A53272  40.155  29.359   6.577
 4129POPC   C3A53273  39.942  29.233   6.960
 4129POPC   C4A53274  39.949  29.330   7.401
 4129POPC   C1B53275  40.112  28.795   6.159
 4129POPC   C2B53276  39.919  28.896   6.529
 4129POPC   C3B53277  40.038  28.738   6.926
 4129POPC   C4B53278  39.957  28.818   7.341
 4130POPC   NC353279  14.736   6.638   5.502
 4130POPC   PO453280  14.380   6.113   5.543
 4130POPC   GL153281  14.203   6.508   5.771
 4130POPC   GL253282  14.324   6.858   5.836
 4130POPC   C1A53283  14.267   6.574   6.249
 4130POPC   D2A53284  14.122   6.369   6.610
 4130POPC   C3A53285  14.395   6.468   6.955
 4130POPC   C4A53286  14.519   6.287   7.360
 4130POPC   C1B53287  14.620   6.952   6.174
 4130POPC   C2B53288  14.688   6.754   6.548
 4130POPC   C3B53289  14.637   6.917   6.944
 4130POPC   C4B53290  14.571   6.794   7.352
 4131POPC   NC353291   5.749  21.628   5.391
 4131POPC   PO453292   6.224  21.198   5.393
 4131POPC   GL153293   6.100  21.424   5.751
 4131POPC   GL253294   6.158  21.745   5.861
 4131POPC   C1A53295   6.255  21.317   6.161
 4131POPC   D2A53296   6.246  21.084   6.546
 4131POPC   C3A53297   5.884  21.227   6.808
 4131POPC   C4A53298   5.967  21.428   7.205
 4131POPC   C1B53299   5.844  21.620   6.195
 4131POPC   C2B53300   5.919  21.743   6.636
 4131POPC   C3B53301   5.751  21.870   7.034
 4131POPC   C4B53302   5.673  21.759   7.454
 4132POPC   NC353303  23.751  18.525   5.118
 4132POPC   PO453304  23.912  18.046   5.556
 4132POPC   GL153305  23.938  18.321   5.905
 4132POPC   GL253306  24.101  18.689   5.834
 4132POPC   C1A53307  23.596  18.259   6.226
 4132POPC   D2A53308  23.370  18.429   6.564
 4132POPC   C3A53309  23.413  18.182   6.947
 4132POPC   C4A53310  23.690  17.899   7.211
 4132POPC   C1B53311  23.860  18.703   6.222
 4132POPC   C2B53312  23.888  18.464   6.598
 4132POPC   C3B53313  23.877  18.385   7.020
 4132POPC   C4B53314  23.991  18.423   7.416
 4133POPC   NC353315   6.282   3.724   5.386
 4133POPC   PO453316   5.588   3.308   5.373
 4133POPC   GL153317   5.642   3.393   5.817
 4133POPC   GL253318   5.693   3.763   5.847
 4133POPC   C1A53319   5.793   3.470   6.252
 4133POPC   D2A53320   6.163   3.558   6.492
 4133POPC   C3A53321   6.108   3.396   6.901
 4133POPC   C4A53322   5.768   3.432   7.195
 4133POPC   C1B53323   5.807   3.969   6.291
 4133POPC   C2B53324   5.793   3.813   6.738
 4133POPC   C3B53325   6.106   3.882   7.090
 4133POPC   C4B53326   6.181   3.915   7.552
 4134POPC   NC353327  20.362  19.000   5.482
 4134POPC   PO453328  21.033  19.019   5.346
 4134POPC   GL153329  20.772  19.001   5.787
 4134POPC   GL253330  20.579  19.213   5.905
 4134POPC   C1A53331  20.932  19.006   6.242
 4134POPC   D2A53332  21.000  19.182   6.652
 4134POPC   C3A53333  20.877  18.963   7.013
 4134POPC   C4A53334  20.839  19.177   7.393
 4134POPC   C1B53335  20.450  18.889   6.194
 4134POPC   C2B53336  20.518  19.014   6.606
 4134POPC   C3B53337  20.413  19.218   6.996
 4134POPC   C4B53338  20.394  18.925   7.320
 4135POPC   NC353339  26.163   6.492   5.591
 4135POPC   PO453340  25.542   6.331   5.461
 4135POPC   GL153341  25.711   6.540   5.817
 4135POPC   GL253342  25.857   6.883   5.751
 4135POPC   C1A53343  25.812   6.429   6.246
 4135POPC   D2A53344  25.679   6.316   6.689
 4135POPC   C3A53345  26.016   6.262   6.983
 4135POPC   C4A53346  26.051   6.432   7.387
 4135POPC   C1B53347  25.935   6.947   6.206
 4135POPC   C2B53348  26.006   6.773   6.634
 4135POPC   C3B53349  25.780   6.736   7.015
 4135POPC   C4B53350  25.694   6.830   7.458
 4136POPC   NC353351  42.695  34.091   5.573
 4136POPC   PO453352  42.040  33.904   5.457
 4136POPC   GL153353  42.259  34.017   5.822
 4136POPC   GL253354  42.405  33.682   5.873
 4136POPC   C1A53355  42.358  34.222   6.216
 4136POPC   D2A53356  42.071  34.170   6.579
 4136POPC   C3A53357  42.139  34.068   7.015
 4136POPC   C4A53358  42.312  34.099   7.436
 4136POPC   C1B53359  42.175  33.753   6.264
 4136POPC   C2B53360  42.190  33.656   6.681
 4136POPC   C3B53361  41.936  33.584   7.032
 4136POPC   C4B53362  42.020  33.678   7.476
 4137POPC   NC353363  20.018  24.210   5.239
 4137POPC   PO453364  19.675  24.806   5.295
 4137POPC   GL153365  19.755  24.611   5.703
 4137POPC   GL253366  20.070  24.468   5.720
 4137POPC   C1A53367  19.675  24.468   6.123
 4137POPC   D2A53368  19.783  24.605   6.538
 4137POPC   C3A53369  19.563  24.512   6.966
 4137POPC   C4A53370  19.794  24.542   7.374
 4137POPC   C1B53371  20.215  24.576   6.141
 4137POPC   C2B53372  20.289  24.439   6.555
 4137POPC   C3B53373  20.078  24.494   6.939
 4137POPC   C4B53374  20.249  24.369   7.311
 4138POPC   NC353375  24.017   2.437   5.387
 4138POPC   PO453376  24.237   2.935   5.664
 4138POPC   GL153377  24.347   2.553   5.832
 4138POPC   GL253378  24.702   2.602   5.834
 4138POPC   C1A53379  24.345   2.295   6.226
 4138POPC   D2A53380  24.343   2.380   6.665
 4138POPC   C3A53381  24.382   2.802   6.798
 4138POPC   C4A53382  24.391   2.859   7.227
 4138POPC   C1B53383  24.702   2.674   6.239
 4138POPC   C2B53384  24.821   2.563   6.601
 4138POPC   C3B53385  24.890   2.812   6.913
 4138POPC   C4B53386  24.833   2.601   7.251
 4139POPC   NC353387  37.247   1.402   5.701
 4139POPC   PO453388  37.792   1.010   5.418
 4139POPC   GL153389  37.709   1.201   5.782
 4139POPC   GL253390  37.435   0.952   5.841
 4139POPC   C1A53391  37.730   1.470   6.154
 4139POPC   D2A53392  37.961   1.403   6.480
 4139POPC   C3A53393  37.753   1.322   6.828
 4139POPC   C4A53394  37.925   1.171   7.172
 4139POPC   C1B53395  37.444   1.099   6.312
 4139POPC   C2B53396  37.256   1.212   6.694
 4139POPC   C3B53397  37.311   1.207   7.124
 4139POPC   C4B53398  37.448   1.575   7.153
 4140POPC   NC353399  13.391  12.224   5.429
 4140POPC   PO453400  12.676  12.164   5.461
 4140POPC   GL153401  12.848  11.959   5.849
 4140POPC   GL253402  13.226  11.958   5.847
 4140POPC   C1A53403  12.708  11.911   6.298
 4140POPC   D2A53404  12.815  11.895   6.775
 4140POPC   C3A53405  12.893  12.101   7.151
 4140POPC   C4A53406  12.663  12.386   7.359
 4140POPC   C1B53407  13.155  11.664   6.204
 4140POPC   C2B53408  13.259  11.681   6.647
 4140POPC   C3B53409  13.156  11.658   7.102
 4140POPC   C4B53410  13.312  11.947   7.440
 4141POPC   NC353411   8.000  21.615   5.476
 4141POPC   PO453412   8.479  21.167   5.393
 4141POPC   GL153413   8.410  21.473   5.757
 4141POPC   GL253414   8.111  21.273   5.830
 4141POPC   C1A53415   8.286  21.595   6.199
 4141POPC   D2A53416   8.247  21.357   6.618
 4141POPC   C3A53417   8.172  21.534   7.034
 4141POPC   C4A53418   7.756  21.637   7.119
 4141POPC   C1B53419   7.945  21.156   6.222
 4141POPC   C2B53420   7.767  21.116   6.625
 4141POPC   C3B53421   7.873  21.113   7.052
 4141POPC   C4B53422   8.040  21.149   7.466
 4142POPC   NC353423  31.326  27.137   5.391
 4142POPC   PO453424  31.984  26.860   5.500
 4142POPC   GL153425  31.758  26.794   5.874
 4142POPC   GL253426  31.397  26.754   5.799
 4142POPC   C1A53427  31.616  26.652   6.277
 4142POPC   D2A53428  31.569  26.769   6.692
 4142POPC   C3A53429  31.662  26.462   7.004
 4142POPC   C4A53430  31.669  26.733   7.355
 4142POPC   C1B53431  31.109  26.819   6.169
 4142POPC   C2B53432  31.025  26.757   6.632
 4142POPC   C3B53433  31.192  26.652   7.060
 4142POPC   C4B53434  31.175  26.734   7.509
 4143POPC   NC353435   4.692  30.117   5.400
 4143POPC   PO453436   4.133  29.802   5.272
 4143POPC   GL153437   4.249  29.888   5.702
 4143POPC   GL253438   4.505  29.629   5.739
 4143POPC   C1A53439   4.138  29.922   6.157
 4143POPC   D2A53440   3.982  29.747   6.546
 4143POPC   C3A53441   4.088  29.995   6.885
 4143POPC   C4A53442   4.233  29.873   7.262
 4143POPC   C1B53443   4.651  29.856   6.135
 4143POPC   C2B53444   4.531  30.057   6.551
 4143POPC   C3B53445   4.626  29.877   6.956
 4143POPC   C4B53446   4.705  29.653   7.306
 4144POPC   NC353447  39.847   5.852   5.446
 4144POPC   PO453448  40.328   6.265   5.521
 4144POPC   GL153449  40.110   6.027   5.853
 4144POPC   GL253450  40.105   5.655   5.835
 4144POPC   C1A53451  39.895   5.958   6.254
 4144POPC   D2A53452  39.664   6.153   6.596
 4144POPC   C3A53453  39.861   6.120   7.003
 4144POPC   C4A53454  39.842   6.224   7.455
 4144POPC   C1B53455  40.171   5.511   6.225
 4144POPC   C2B53456  40.000   5.554   6.609
 4144POPC   C3B53457  39.979   5.464   7.030
 4144POPC   C4B53458  39.798   5.731   7.311
 4145POPC   NC353459  44.863  22.687   5.422
 4145POPC   PO453460  44.413  23.162   5.390
 4145POPC   GL153461  44.571  23.008   5.770
 4145POPC   GL253462  44.902  23.075   5.806
 4145POPC   C1A53463  44.642  22.869   6.202
 4145POPC   D2A53464  44.483  23.002   6.580
 4145POPC   C3A53465  44.676  22.830   6.918
 4145POPC   C4A53466  44.488  22.942   7.276
 4145POPC   C1B53467   0.002  23.241   6.185
 4145POPC   C2B53468  44.996  23.093   6.585
 4145POPC   C3B53469  44.874  23.301   6.943
 4145POPC   C4B53470  44.885  23.260   7.345
 4146POPC   NC353471  31.993   1.718   5.495
 4146POPC   PO453472  32.532   2.137   5.230
 4146POPC   GL153473  32.351   2.037   5.747
 4146POPC   GL253474  32.294   2.327   5.914
 4146POPC   C1A53475  32.341   1.849   6.198
 4146POPC   D2A53476  32.043   1.850   6.569
 4146POPC   C3A53477  32.100   1.691   7.000
 4146POPC   C4A53478  32.072   1.888   7.392
 4146POPC   C1B53479  32.167   2.312   6.344
 4146POPC   C2B53480  32.404   2.265   6.715
 4146POPC   C3B53481  32.542   2.019   7.051
 4146POPC   C4B53482  32.426   2.246   7.427
 4147POPC   NC353483  29.349   3.040   5.300
 4147POPC   PO453484  28.902   2.536   5.389
 4147POPC   GL153485  29.059   2.586   5.806
 4147POPC   GL253486  28.961   2.894   5.931
 4147POPC   C1A53487  28.946   2.473   6.229
 4147POPC   D2A53488  29.177   2.512   6.621
 4147POPC   C3A53489  29.079   2.603   7.062
 4147POPC   C4A53490  29.060   2.915   7.423
 4147POPC   C1B53491  29.379   2.901   6.136
 4147POPC   C2B53492  29.558   2.889   6.564
 4147POPC   C3B53493  29.437   3.007   6.985
 4147POPC   C4B53494  29.600   3.111   7.366
 4148POPC   NC353495   6.978  42.532   5.609
 4148POPC   PO453496   6.308  42.549   5.530
 4148POPC   GL153497   6.541  42.613   5.884
 4148POPC   GL253498   6.718  42.283   5.977
 4148POPC   C1A53499   6.517  42.676   6.315
 4148POPC   D2A53500   6.822  42.534   6.618
 4148POPC   C3A53501   6.653  42.313   6.977
 4148POPC   C4A53502   6.745  42.434   7.376
 4148POPC   C1B53503   6.432  42.077   6.282
 4148POPC   C2B53504   6.405  41.772   6.632
 4148POPC   C3B53505   6.453  41.826   7.081
 4148POPC   C4B53506   6.309  42.140   7.371
 4149POPC   NC353507  23.596  12.761   5.321
 4149POPC   PO453508  23.910  12.374   5.766
 4149POPC   GL153509  23.730  12.830   5.841
 4149POPC   GL253510  23.534  13.129   5.690
 4149POPC   C1A53511  23.881  13.112   6.195
 4149POPC   D2A53512  24.077  13.124   6.627
 4149POPC   C3A53513  23.990  12.936   7.033
 4149POPC   C4A53514  23.760  12.777   7.402
 4149POPC   C1B53515  23.426  13.309   6.091
 4149POPC   C2B53516  23.466  13.154   6.536
 4149POPC   C3B53517  23.449  13.091   6.988
 4149POPC   C4B53518  23.284  12.922   7.353
 4150POPC   NC353519  37.957  28.596   5.392
 4150POPC   PO453520  37.282  28.492   5.477
 4150POPC   GL153521  37.628  28.427   5.786
 4150POPC   GL253522  37.928  28.186   5.823
 4150POPC   C1A53523  37.615  28.558   6.200
 4150POPC   D2A53524  37.586  28.419   6.633
 4150POPC   C3A53525  37.426  28.719   6.927
 4150POPC   C4A53526  37.506  28.590   7.313
 4150POPC   C1B53527  38.070  28.340   6.227
 4150POPC   C2B53528  38.064  28.593   6.585
 4150POPC   C3B53529  37.938  28.635   7.000
 4150POPC   C4B53530  37.935  28.336   7.339
 4151POPC   NC353531  30.447  42.821   5.347
 4151POPC   PO453532  30.779  43.421   5.348
 4151POPC   GL153533  30.777  43.201   5.756
 4151POPC   GL253534  30.476  43.028   5.798
 4151POPC   C1A53535  30.697  43.186   6.219
 4151POPC   D2A53536  30.705  43.012   6.604
 4151POPC   C3A53537  30.944  43.142   6.938
 4151POPC   C4A53538  30.727  43.165   7.308
 4151POPC   C1B53539  30.232  42.928   6.152
 4151POPC   C2B53540  30.233  42.848   6.590
 4151POPC   C3B53541  30.397  42.803   6.991
 4151POPC   C4B53542  30.386  42.813   7.400
 4152POPC   NC353543  21.984  35.123   5.512
 4152POPC   PO453544  21.574  34.662   5.287
 4152POPC   GL153545  21.321  34.642   5.689
 4152POPC   GL253546  21.536  34.356   5.865
 4152POPC   C1A53547  21.233  34.660   6.139
 4152POPC   D2A53548  21.465  34.495   6.504
 4152POPC   C3A53549  21.298  34.584   6.907
 4152POPC   C4A53550  21.331  34.880   7.221
 4152POPC   C1B53551  21.658  34.062   6.189
 4152POPC   C2B53552  21.564  34.005   6.625
 4152POPC   C3B53553  21.714  34.239   6.959
 4152POPC   C4B53554  21.603  34.441   7.306
 4153POPC   NC353555  18.696  28.376   5.415
 4153POPC   PO453556  19.277  28.802   5.387
 4153POPC   GL153557  19.188  28.543   5.767
 4153POPC   GL253558  18.835  28.514   5.909
 4153POPC   C1A53559  19.368  28.484   6.198
 4153POPC   D2A53560  19.430  28.700   6.609
 4153POPC   C3A53561  19.269  28.503   7.019
 4153POPC   C4A53562  19.260  28.075   7.238
 4153POPC   C1B53563  18.649  28.226   6.237
 4153POPC   C2B53564  18.778  28.118   6.672
 4153POPC   C3B53565  18.779  28.261   7.114
 4153POPC   C4B53566  18.826  28.072   7.526
 4154POPC   NC353567  32.560  13.516   5.385
 4154POPC   PO453568  31.919  13.928   5.496
 4154POPC   GL153569  32.165  13.635   5.721
 4154POPC   GL253570  32.484  13.763   5.846
 4154POPC   C1A53571  32.107  13.380   6.103
 4154POPC   D2A53572  31.905  13.488   6.514
 4154POPC   C3A53573  32.122  13.538   6.899
 4154POPC   C4A53574  32.014  13.553   7.342
 4154POPC   C1B53575  32.162  13.879   6.214
 4154POPC   C2B53576  32.017  14.026   6.637
 4154POPC   C3B53577  32.092  14.009   7.103
 4154POPC   C4B53578  32.051  14.096   7.578
 4155POPC   NC353579  41.467  30.964   5.585
 4155POPC   PO453580  41.725  31.470   5.199
 4155POPC   GL153581  41.660  31.535   5.703
 4155POPC   GL253582  41.329  31.450   5.812
 4155POPC   C1A53583  41.680  31.526   6.212
 4155POPC   D2A53584  41.657  31.308   6.668
 4155POPC   C3A53585  41.615  31.482   7.116
 4155POPC   C4A53586  41.311  31.537   7.468
 4155POPC   C1B53587  41.208  31.349   6.265
 4155POPC   C2B53588  41.023  31.339   6.671
 4155POPC   C3B53589  41.197  31.206   7.043
 4155POPC   C4B53590  41.287  31.044   7.434
 4156POPC   NC353591   9.997  13.204   5.653
 4156POPC   PO453592   9.487  12.803   5.673
 4156POPC   GL153593   9.802  12.643   5.979
 4156POPC   GL253594   9.929  12.294   5.986
 4156POPC   C1A53595   9.824  12.716   6.437
 4156POPC   D2A53596   9.534  12.938   6.752
 4156POPC   C3A53597   9.693  12.999   7.145
 4156POPC   C4A53598  10.060  13.245   7.139
 4156POPC   C1B53599   9.561  12.285   6.280
 4156POPC   C2B53600   9.465  12.429   6.690
 4156POPC   C3B53601   9.816  12.544   6.933
 4156POPC   C4B53602   9.986  12.453   7.320
 4157POPC   NC353603   7.112   7.269   5.114
 4157POPC   PO453604   6.487   7.472   5.373
 4157POPC   GL153605   6.602   7.326   5.734
 4157POPC   GL253606   6.935   7.447   5.724
 4157POPC   C1A53607   6.532   7.389   6.146
 4157POPC   D2A53608   6.562   7.331   6.560
 4157POPC   C3A53609   6.255   7.379   6.876
 4157POPC   C4A53610   6.483   7.371   7.245
 4157POPC   C1B53611   6.967   7.656   6.129
 4157POPC   C2B53612   7.060   7.479   6.539
 4157POPC   C3B53613   6.929   7.341   6.928
 4157POPC   C4B53614   6.929   7.657   7.222
 4158POPC   NC353615  23.297  19.266   5.495
 4158POPC   PO453616  23.938  19.035   5.407
 4158POPC   GL153617  23.696  19.063   5.786
 4158POPC   GL253618  23.896  19.263   5.977
 4158POPC   C1A53619  23.461  19.078   6.189
 4158POPC   D2A53620  23.583  18.950   6.600
 4158POPC   C3A53621  23.330  19.055   6.946
 4158POPC   C4A53622  23.561  18.758   7.176
 4158POPC   C1B53623  24.087  19.110   6.397
 4158POPC   C2B53624  24.250  18.807   6.704
 4158POPC   C3B53625  24.062  18.868   7.084
 4158POPC   C4B53626  23.778  19.223   7.144
 4159POPC   NC353627  41.114  37.170   5.616
 4159POPC   PO453628  40.651  37.497   5.208
 4159POPC   GL153629  40.699  37.468   5.701
 4159POPC   GL253630  40.426  37.440   5.906
 4159POPC   C1A53631  40.839  37.662   6.133
 4159POPC   D2A53632  40.679  37.844   6.547
 4159POPC   C3A53633  40.925  37.866   6.927
 4159POPC   C4A53634  41.001  37.699   7.339
 4159POPC   C1B53635  40.396  37.284   6.331
 4159POPC   C2B53636  40.317  37.507   6.730
 4159POPC   C3B53637  40.543  37.573   7.070
 4159POPC   C4B53638  40.482  37.549   7.517
 4160POPC   NC353639  24.877  39.865   5.631
 4160POPC   PO453640  24.260  39.965   5.413
 4160POPC   GL153641  24.249  39.891   5.872
 4160POPC   GL253642  23.950  40.005   6.068
 4160POPC   C1A53643  24.547  39.810   6.223
 4160POPC   D2A53644  24.680  39.580   6.597
 4160POPC   C3A53645  24.500  39.826   6.951
 4160POPC   C4A53646  24.687  39.989   7.312
 4160POPC   C1B53647  24.272  40.254   6.265
 4160POPC   C2B53648  24.378  40.377   6.683
 4160POPC   C3B53649  24.350  40.334   7.124
 4160POPC   C4B53650  24.215  40.044   7.453
 4161POPC   NC353651  21.896  31.358   5.498
 4161POPC   PO453652  22.475  31.313   5.497
 4161POPC   GL153653  22.382  31.453   5.884
 4161POPC   GL253654  22.138  31.636   5.867
 4161POPC   C1A53655  22.284  31.505   6.330
 4161POPC   D2A53656  22.182  31.426   6.729
 4161POPC   C3A53657  22.457  31.572   7.023
 4161POPC   C4A53658  22.436  31.556   7.480
 4161POPC   C1B53659  21.925  31.871   6.153
 4161POPC   C2B53660  21.730  31.722   6.506
 4161POPC   C3B53661  21.887  31.801   6.886
 4161POPC   C4B53662  21.989  31.537   7.215
 4162POPC   NC353663  32.247   9.408   5.433
 4162POPC   PO453664  32.582   8.859   5.659
 4162POPC   GL153665  32.399   9.195   5.901
 4162POPC   GL253666  32.033   9.179   5.827
 4162POPC   C1A53667  32.324   9.048   6.347
 4162POPC   D2A53668  32.454   8.670   6.618
 4162POPC   C3A53669  32.566   8.767   7.058
 4162POPC   C4A53670  32.428   9.178   7.138
 4162POPC   C1B53671  31.812   8.989   6.166
 4162POPC   C2B53672  31.884   9.069   6.603
 4162POPC   C3B53673  32.015   8.907   6.988
 4162POPC   C4B53674  31.918   9.109   7.347
 4163POPC   NC353675  17.488  25.457   5.484
 4163POPC   PO453676  17.138  24.892   5.281
 4163POPC   GL153677  17.325  25.030   5.691
 4163POPC   GL253678  17.685  25.049   5.751
 4163POPC   C1A53679  17.294  25.228   6.078
 4163POPC   D2A53680  17.399  25.190   6.465
 4163POPC   C3A53681  17.378  25.489   6.776
 4163POPC   C4A53682  17.244  25.338   7.158
 4163POPC   C1B53683  17.830  25.128   6.172
 4163POPC   C2B53684  17.913  25.114   6.628
 4163POPC   C3B53685  17.791  25.327   7.032
 4163POPC   C4B53686  17.899  25.469   7.436
 4164POPC   NC353687  25.658  39.478   5.350
 4164POPC   PO453688  26.106  39.021   5.546
 4164POPC   GL153689  26.028  39.162   5.957
 4164POPC   GL253690  25.736  39.370   5.842
 4164POPC   C1A53691  26.241  39.092   6.374
 4164POPC   D2A53692  26.301  39.388   6.725
 4164POPC   C3A53693  26.278  39.163   7.075
 4164POPC   C4A53694  26.089  38.765   7.148
 4164POPC   C1B53695  25.609  39.477   6.228
 4164POPC   C2B53696  25.744  39.140   6.511
 4164POPC   C3B53697  25.725  39.088   6.946
 4164POPC   C4B53698  25.848  39.394   7.239
 4165POPC   NC353699  39.448   1.893   5.356
 4165POPC   PO453700  38.861   1.650   5.523
 4165POPC   GL153701  39.104   1.933   5.807
 4165POPC   GL253702  39.450   1.957   5.865
 4165POPC   C1A53703  39.049   2.021   6.249
 4165POPC   D2A53704  38.788   2.005   6.623
 4165POPC   C3A53705  39.012   1.837   6.966
 4165POPC   C4A53706  38.908   2.011   7.313
 4165POPC   C1B53707  39.539   2.185   6.276
 4165POPC   C2B53708  39.321   2.242   6.702
 4165POPC   C3B53709  39.395   2.203   7.165
 4165POPC   C4B53710  39.654   2.194   7.567
 4166POPC   NC353711  17.768  24.004   5.207
 4166POPC   PO453712  17.691  23.417   5.472
 4166POPC   GL153713  17.427  23.551   5.798
 4166POPC   GL253714  17.690  23.479   5.985
 4166POPC   C1A53715  17.312  23.719   6.228
 4166POPC   D2A53716  17.453  23.870   6.615
 4166POPC   C3A53717  17.291  23.710   6.992
 4166POPC   C4A53718  17.385  23.680   7.434
 4166POPC   C1B53719  17.818  23.558   6.360
 4166POPC   C2B53720  17.933  23.785   6.695
 4166POPC   C3B53721  17.744  23.922   7.044
 4166POPC   C4B53722  17.893  23.695   7.361
 4167POPC   NC353723  35.182  32.037   5.519
 4167POPC   PO453724  35.289  32.703   5.299
 4167POPC   GL153725  35.396  32.445   5.719
 4167POPC   GL253726  35.551  32.613   5.952
 4167POPC   C1A53727  35.404  32.164   6.163
 4167POPC   D2A53728  35.366  32.251   6.610
 4167POPC   C3A53729  35.564  32.065   6.956
 4167POPC   C4A53730  35.573  32.174   7.358
 4167POPC   C1B53731  35.758  32.505   6.297
 4167POPC   C2B53732  35.662  32.678   6.657
 4167POPC   C3B53733  35.485  32.576   7.046
 4167POPC   C4B53734  35.505  32.794   7.424
 4168POPC   NC353735  18.046  20.037   5.564
 4168POPC   PO453736  18.548  19.614   5.399
 4168POPC   GL153737  18.446  19.789   5.769
 4168POPC   GL253738  18.623  20.051   5.928
 4168POPC   C1A53739  18.412  19.623   6.160
 4168POPC   D2A53740  18.448  19.718   6.588
 4168POPC   C3A53741  18.026  19.674   6.784
 4168POPC   C4A53742  17.865  19.616   7.203
 4168POPC   C1B53743  18.263  20.152   6.174
 4168POPC   C2B53744  18.134  20.145   6.573
 4168POPC   C3B53745  18.409  20.108   6.891
 4168POPC   C4B53746  18.355  19.797   7.152
 4169POPC   NC353747  34.861  17.347   5.660
 4169POPC   PO453748  34.548  17.932   5.442
 4169POPC   GL153749  34.379  17.652   5.787
 4169POPC   GL253750  34.156  17.362   5.657
 4169POPC   C1A53751  34.504  17.634   6.227
 4169POPC   D2A53752  34.731  17.521   6.610
 4169POPC   C3A53753  34.550  17.564   7.014
 4169POPC   C4A53754  34.867  17.697   7.335
 4169POPC   C1B53755  34.091  17.315   6.124
 4169POPC   C2B53756  34.213  17.361   6.553
 4169POPC   C3B53757  34.082  17.275   6.956
 4169POPC   C4B53758  33.912  17.346   7.346
 4170POPC   NC353759  27.643  35.909   5.238
 4170POPC   PO453760  27.427  36.404   5.654
 4170POPC   GL153761  27.349  36.349   6.080
 4170POPC   GL253762  27.260  36.026   6.026
 4170POPC   C1A53763  27.488  36.101   6.466
 4170POPC   D2A53764  27.683  35.969   6.847
 4170POPC   C3A53765  27.589  36.244   7.179
 4170POPC   C4A53766  27.591  36.191   7.632
 4170POPC   C1B53767  27.119  35.736   6.331
 4170POPC   C2B53768  27.207  35.724   6.782
 4170POPC   C3B53769  27.250  35.868   7.206
 4170POPC   C4B53770  27.252  35.813   7.672
 4171POPC   NC353771  29.405  15.026   5.390
 4171POPC   PO453772  29.142  15.592   5.159
 4171POPC   GL153773  29.203  15.402   5.684
 4171POPC   GL253774  29.200  15.046   5.844
 4171POPC   C1A53775  29.275  15.383   6.191
 4171POPC   D2A53776  29.290  15.051   6.538
 4171POPC   C3A53777  29.211  15.144   6.990
 4171POPC   C4A53778  29.325  15.249   7.409
 4171POPC   C1B53779  28.921  14.873   6.166
 4171POPC   C2B53780  28.924  14.646   6.560
 4171POPC   C3B53781  28.829  14.794   6.963
 4171POPC   C4B53782  28.874  14.951   7.398
 4172POPC   NC353783  39.111  26.231   5.458
 4172POPC   PO453784  39.219  26.995   5.383
 4172POPC   GL153785  39.275  26.853   5.817
 4172POPC   GL253786  39.335  26.504   5.823
 4172POPC   C1A53787  39.084  26.730   6.258
 4172POPC   D2A53788  39.172  26.491   6.671
 4172POPC   C3A53789  39.127  26.638   7.122
 4172POPC   C4A53790  38.808  26.884   7.299
 4172POPC   C1B53791  39.579  26.641   6.184
 4172POPC   C2B53792  39.690  26.449   6.589
 4172POPC   C3B53793  39.548  26.356   7.036
 4172POPC   C4B53794  39.419  26.403   7.504
 4173POPC   NC353795  26.547  16.700   5.357
 4173POPC   PO453796  25.978  16.841   5.292
 4173POPC   GL153797  25.964  16.969   5.726
 4173POPC   GL253798  26.334  17.002   5.755
 4173POPC   C1A53799  25.984  16.816   6.155
 4173POPC   D2A53800  26.186  16.520   6.445
 4173POPC   C3A53801  26.052  16.526   6.875
 4173POPC   C4A53802  26.225  16.428   7.299
 4173POPC   C1B53803  26.374  17.160   6.159
 4173POPC   C2B53804  26.220  17.039   6.562
 4173POPC   C3B53805  26.349  16.970   6.985
 4173POPC   C4B53806  25.988  16.883   7.256
 4174POPC   NC353807  41.719  13.212   5.364
 4174POPC   PO453808  41.217  12.770   5.290
 4174POPC   GL153809  41.343  12.962   5.634
 4174POPC   GL253810  41.598  12.742   5.794
 4174POPC   C1A53811  41.247  12.988   6.066
 4174POPC   D2A53812  41.450  12.739   6.388
 4174POPC   C3A53813  41.812  12.874   6.646
 4174POPC   C4A53814  41.789  13.068   7.078
 4174POPC   C1B53815  41.811  12.460   6.112
 4174POPC   C2B53816  41.703  12.319   6.533
 4174POPC   C3B53817  41.501  12.525   6.870
 4174POPC   C4B53818  41.811  12.559   7.157
 4175POPC   NC353819  27.499  32.492   5.421
 4175POPC   PO453820  27.987  32.128   5.528
 4175POPC   GL153821  27.900  32.417   5.878
 4175POPC   GL253822  27.571  32.406   5.954
 4175POPC   C1A53823  27.887  32.425   6.351
 4175POPC   D2A53824  27.804  32.162   6.749
 4175POPC   C3A53825  27.966  32.318   7.171
 4175POPC   C4A53826  27.781  32.332   7.599
 4175POPC   C1B53827  27.441  32.164   6.323
 4175POPC   C2B53828  27.124  32.096   6.646
 4175POPC   C3B53829  27.046  32.060   7.094
 4175POPC   C4B53830  27.280  32.320   7.379
 4176POPC   NC353831  28.172  12.831   5.485
 4176POPC   PO453832  28.675  12.489   5.477
 4176POPC   GL153833  28.575  12.763   5.819
 4176POPC   GL253834  28.363  13.074   5.891
 4176POPC   C1A53835  28.538  12.684   6.242
 4176POPC   D2A53836  28.487  12.876   6.615
 4176POPC   C3A53837  28.564  12.568   6.881
 4176POPC   C4A53838  28.665  12.471   7.274
 4176POPC   C1B53839  28.089  12.983   6.271
 4176POPC   C2B53840  28.089  13.156   6.701
 4176POPC   C3B53841  28.275  13.004   7.094
 4176POPC   C4B53842  28.175  13.186   7.490
 4177POPC   NC353843   9.416  11.058   5.450
 4177POPC   PO453844   9.975  11.364   5.373
 4177POPC   GL153845   9.966  11.315   5.804
 4177POPC   GL253846   9.609  11.356   5.838
 4177POPC   C1A53847  10.132  11.278   6.227
 4177POPC   D2A53848  10.061  11.464   6.648
 4177POPC   C3A53849   9.828  11.145   6.893
 4177POPC   C4A53850   9.511  10.893   7.119
 4177POPC   C1B53851   9.622  11.238   6.261
 4177POPC   C2B53852   9.531  11.446   6.616
 4177POPC   C3B53853   9.573  11.566   7.040
 4177POPC   C4B53854   9.507  11.759   7.423
 4178POPC   NC353855   0.048  26.207   5.362
 4178POPC   PO453856   0.656  26.374   5.293
 4178POPC   GL153857   0.684  26.144   5.710
 4178POPC   GL253858   0.332  26.027   5.750
 4178POPC   C1A53859   0.638  25.983   6.155
 4178POPC   D2A53860   0.437  26.094   6.530
 4178POPC   C3A53861   0.497  25.834   6.866
 4178POPC   C4A53862   0.387  25.945   7.282
 4178POPC   C1B53863   0.093  25.953   6.132
 4178POPC   C2B53864  44.916  26.172   6.490
 4178POPC   C3B53865   0.055  26.133   6.923
 4178POPC   C4B53866  44.922  26.182   7.373
 4179POPC   NC353867  16.237   2.476   5.477
 4179POPC   PO453868  15.667   2.384   5.203
 4179POPC   GL153869  15.788   2.479   5.714
 4179POPC   GL253870  16.107   2.360   5.940
 4179POPC   C1A53871  15.888   2.789   6.097
 4179POPC   D2A53872  15.978   2.767   6.567
 4179POPC   C3A53873  15.760   2.766   6.974
 4179POPC   C4A53874  15.699   2.838   7.413
 4179POPC   C1B53875  15.846   2.326   6.295
 4179POPC   C2B53876  15.956   2.255   6.719
 4179POPC   C3B53877  16.027   2.355   7.150
 4179POPC   C4B53878  15.979   2.132   7.558
 4180POPC   NC353879  40.102  12.451   5.458
 4180POPC   PO453880  40.048  11.746   5.431
 4180POPC   GL153881  39.990  12.057   5.763
 4180POPC   GL253882  39.628  12.195   5.754
 4180POPC   C1A53883  40.188  12.023   6.152
 4180POPC   D2A53884  40.142  12.250   6.527
 4180POPC   C3A53885  40.234  11.996   6.852
 4180POPC   C4A53886  40.090  12.071   7.246
 4180POPC   C1B53887  39.695  12.190   6.183
 4180POPC   C2B53888  39.806  11.853   6.462
 4180POPC   C3B53889  39.732  11.944   6.853
 4180POPC   C4B53890  39.534  12.068   7.202
 4181POPC   NC353891  29.212  29.363   5.354
 4181POPC   PO453892  28.985  28.742   5.520
 4181POPC   GL153893  28.974  29.118   5.765
 4181POPC   GL253894  29.325  29.153   5.838
 4181POPC   C1A53895  28.831  29.339   6.159
 4181POPC   D2A53896  28.931  29.228   6.594
 4181POPC   C3A53897  28.729  29.333   6.969
 4181POPC   C4A53898  28.852  29.400   7.375
 4181POPC   C1B53899  29.374  29.178   6.305
 4181POPC   C2B53900  29.389  29.445   6.704
 4181POPC   C3B53901  29.294  29.333   7.138
 4181POPC   C4B53902  29.378  29.359   7.614
 4182POPC   NC353903  10.169  18.318   5.212
 4182POPC   PO453904  10.795  18.075   5.385
 4182POPC   GL153905  10.679  18.336   5.736
 4182POPC   GL253906  10.315  18.373   5.734
 4182POPC   C1A53907  10.584  18.292   6.179
 4182POPC   D2A53908  10.664  18.472   6.574
 4182POPC   C3A53909  10.632  18.098   6.835
 4182POPC   C4A53910  10.774  17.951   7.216
 4182POPC   C1B53911  10.108  18.463   6.142
 4182POPC   C2B53912  10.155  18.305   6.564
 4182POPC   C3B53913  10.293  18.484   6.922
 4182POPC   C4B53914  10.402  18.297   7.281
 4183POPC   NC353915  11.219  36.638   5.095
 4183POPC   PO453916  11.752  36.827   5.185
 4183POPC   GL153917  11.358  36.961   5.584
 4183POPC   GL253918  11.448  37.258   5.836
 4183POPC   C1A53919  11.199  36.890   6.052
 4183POPC   D2A53920  11.290  36.675   6.457
 4183POPC   C3A53921  11.056  36.901   6.773
 4183POPC   C4A53922  10.932  36.912   7.211
 4183POPC   C1B53923  11.643  37.049   6.230
 4183POPC   C2B53924  11.530  37.085   6.679
 4183POPC   C3B53925  11.651  37.087   7.121
 4183POPC   C4B53926  11.419  37.245   7.497
 4184POPC   NC353927   4.646  10.339   5.360
 4184POPC   PO453928   4.030  10.326   5.521
 4184POPC   GL153929   4.306  10.537   5.753
 4184POPC   GL253930   4.595  10.342   5.891
 4184POPC   C1A53931   4.254  10.716   6.144
 4184POPC   D2A53932   4.525  10.703   6.490
 4184POPC   C3A53933   4.307  10.710   6.890
 4184POPC   C4A53934   4.413  10.463   7.230
 4184POPC   C1B53935   4.272  10.192   6.159
 4184POPC   C2B53936   4.080  10.382   6.510
 4184POPC   C3B53937   4.006  10.290   6.933
 4184POPC   C4B53938   4.041  10.146   7.332
 4185POPC   NC353939  22.484  16.861   5.155
 4185POPC   PO453940  21.828  16.912   5.263
 4185POPC   GL153941  21.993  16.720   5.672
 4185POPC   GL253942  22.352  16.805   5.664
 4185POPC   C1A53943  22.096  16.662   6.133
 4185POPC   D2A53944  21.995  16.716   6.577
 4185POPC   C3A53945  22.199  16.628   6.966
 4185POPC   C4A53946  21.964  16.781   7.294
 4185POPC   C1B53947  22.466  17.033   6.020
 4185POPC   C2B53948  22.479  16.930   6.456
 4185POPC   C3B53949  22.398  17.084   6.868
 4185POPC   C4B53950  22.451  16.981   7.294
 4186POPC   NC353951  24.725  25.111   5.629
 4186POPC   PO453952  25.226  25.581   5.274
 4186POPC   GL153953  25.249  25.358   5.754
 4186POPC   GL253954  25.135  25.025   5.911
 4186POPC   C1A53955  25.423  25.353   6.190
 4186POPC   D2A53956  25.613  25.545   6.555
 4186POPC   C3A53957  25.586  25.334   6.959
 4186POPC   C4A53958  25.287  25.348   7.278
 4186POPC   C1B53959  24.997  24.963   6.363
 4186POPC   C2B53960  24.922  24.961   6.821
 4186POPC   C3B53961  25.045  24.873   7.256
 4186POPC   C4B53962  25.468  24.925   7.518
 4187POPC   NC353963  22.497  37.514   5.512
 4187POPC   PO453964  22.466  38.168   5.441
 4187POPC   GL153965  22.147  37.913   5.734
 4187POPC   GL253966  21.927  37.634   5.635
 4187POPC   C1A53967  22.039  37.941   6.208
 4187POPC   D2A53968  21.876  37.860   6.666
 4187POPC   C3A53969  22.192  37.848   7.015
 4187POPC   C4A53970  22.555  37.593   7.190
 4187POPC   C1B53971  21.901  37.394   6.057
 4187POPC   C2B53972  21.993  37.370   6.504
 4187POPC   C3B53973  22.173  37.336   6.926
 4187POPC   C4B53974  22.042  37.471   7.340
 4188POPC   NC353975  41.148  23.838   5.427
 4188POPC   PO453976  40.555  23.459   5.434
 4188POPC   GL153977  40.610  23.584   5.847
 4188POPC   GL253978  40.932  23.523   5.852
 4188POPC   C1A53979  40.771  23.836   6.222
 4188POPC   D2A53980  40.942  23.763   6.668
 4188POPC   C3A53981  40.678  23.925   7.017
 4188POPC   C4A53982  40.757  23.947   7.427
 4188POPC   C1B53983  40.975  23.376   6.286
 4188POPC   C2B53984  40.700  23.314   6.665
 4188POPC   C3B53985  40.802  23.422   7.086
 4188POPC   C4B53986  41.057  23.514   7.462
 4189POPC   NC353987  18.086  19.440   5.381
 4189POPC   PO453988  18.406  18.889   5.458
 4189POPC   GL153989  18.174  18.994   5.755
 4189POPC   GL253990  18.110  18.645   5.835
 4189POPC   C1A53991  18.074  19.159   6.138
 4189POPC   D2A53992  18.343  19.224   6.505
 4189POPC   C3A53993  18.128  19.177   6.898
 4189POPC   C4A53994  18.252  19.283   7.289
 4189POPC   C1B53995  18.411  18.743   6.134
 4189POPC   C2B53996  18.385  18.725   6.574
 4189POPC   C3B53997  18.368  18.724   7.022
 4189POPC   C4B53998  17.985  18.804   7.254
 4190POPC   NC353999  33.025  41.229   5.261
 4190POPC   PO454000  33.392  41.694   5.513
 4190POPC   GL154001  33.056  41.436   5.728
 4190POPC   GL254002  33.291  41.235   5.858
 4190POPC   C1A54003  32.819  41.274   6.125
 4190POPC   D2A54004  32.624  41.465   6.523
 4190POPC   C3A54005  32.756  41.377   6.953
 4190POPC   C4A54006  33.061  41.280   7.285
 4190POPC   C1B54007  33.222  41.573   6.193
 4190POPC   C2B54008  33.123  41.564   6.632
 4190POPC   C3B54009  33.400  41.560   6.994
 4190POPC   C4B54010  33.599  41.236   7.286
 4191POPC   NC354011  29.514   6.004   5.781
 4191POPC   PO454012  29.639   5.748   5.231
 4191POPC   GL154013  29.974   5.860   5.618
 4191POPC   GL254014  30.035   6.225   5.684
 4191POPC   C1A54015  30.057   5.746   6.107
 4191POPC   D2A54016  30.071   5.916   6.555
 4191POPC   C3A54017  29.756   5.939   6.907
 4191POPC   C4A54018  29.805   5.961   7.362
 4191POPC   C1B54019  30.114   6.281   6.158
 4191POPC   C2B54020  30.157   6.422   6.635
 4191POPC   C3B54021  30.143   6.225   7.070
 4191POPC   C4B54022  30.256   6.204   7.537
 4192POPC   NC354023  21.901   6.423   5.019
 4192POPC   PO454024  21.449   6.802   5.205
 4192POPC   GL154025  21.480   6.618   5.659
 4192POPC   GL254026  21.260   6.323   5.747
 4192POPC   C1A54027  21.410   6.608   6.137
 4192POPC   D2A54028  21.506   6.412   6.521
 4192POPC   C3A54029  21.435   6.595   6.905
 4192POPC   C4A54030  21.641   6.477   7.289
 4192POPC   C1B54031  21.149   6.166   6.192
 4192POPC   C2B54032  21.043   6.232   6.635
 4192POPC   C3B54033  21.132   6.176   7.050
 4192POPC   C4B54034  21.032   6.519   7.274
 4193POPC   NC354035   4.696  32.930   5.345
 4193POPC   PO454036   4.288  33.425   5.445
 4193POPC   GL154037   4.332  33.286   5.830
 4193POPC   GL254038   4.353  32.899   5.781
 4193POPC   C1A54039   4.117  33.383   6.211
 4193POPC   D2A54040   4.014  33.192   6.599
 4193POPC   C3A54041   4.236  33.347   6.984
 4193POPC   C4A54042   4.191  33.286   7.410
 4193POPC   C1B54043   4.435  32.973   6.231
 4193POPC   C2B54044   4.367  32.839   6.654
 4193POPC   C3B54045   4.567  32.961   7.023
 4193POPC   C4B54046   4.489  32.865   7.422
 4194POPC   NC354047   7.664  23.441   5.714
 4194POPC   PO454048   8.054  23.989   5.641
 4194POPC   GL154049   7.783  24.037   5.994
 4194POPC   GL254050   7.493  23.814   6.005
 4194POPC   C1A54051   7.555  24.128   6.393
 4194POPC   D2A54052   7.287  23.793   6.570
 4194POPC   C3A54053   7.225  23.656   6.995
 4194POPC   C4A54054   7.164  24.043   7.205
 4194POPC   C1B54055   7.742  23.641   6.367
 4194POPC   C2B54056   7.746  23.624   6.817
 4194POPC   C3B54057   7.652  23.879   7.171
 4194POPC   C4B54058   7.411  23.686   7.523
 4195POPC   NC354059  10.477  12.405   5.466
 4195POPC   PO454060  10.439  13.062   5.491
 4195POPC   GL154061  10.786  12.854   5.727
 4195POPC   GL254062  10.905  12.508   5.774
 4195POPC   C1A54063  10.885  12.845   6.170
 4195POPC   D2A54064  10.872  12.576   6.539
 4195POPC   C3A54065  10.722  12.874   6.821
 4195POPC   C4A54066  10.528  13.032   7.194
 4195POPC   C1B54067  10.585  12.442   6.114
 4195POPC   C2B54068  10.346  12.592   6.510
 4195POPC   C3B54069  10.330  12.600   6.976
 4195POPC   C4B54070  10.730  12.566   7.244
 4196POPC   NC354071  33.963  28.672   4.931
 4196POPC   PO454072  33.535  28.293   5.374
 4196POPC   GL154073  33.742  28.282   5.795
 4196POPC   GL254074  34.062  28.064   5.783
 4196POPC   C1A54075  33.740  28.531   6.199
 4196POPC   D2A54076  33.518  28.671   6.595
 4196POPC   C3A54077  33.501  28.401   6.926
 4196POPC   C4A54078  33.791  28.427   7.276
 4196POPC   C1B54079  34.044  28.100   6.226
 4196POPC   C2B54080  33.891  28.270   6.621
 4196POPC   C3B54081  34.128  28.209   6.977
 4196POPC   C4B54082  34.210  28.030   7.389
 4197POPC   NC354083  34.900   5.830   5.467
 4197POPC   PO454084  34.378   5.542   5.262
 4197POPC   GL154085  34.449   5.642   5.713
 4197POPC   GL254086  34.111   5.705   5.822
 4197POPC   C1A54087  34.523   5.820   6.171
 4197POPC   D2A54088  34.612   5.732   6.639
 4197POPC   C3A54089  34.846   6.060   6.962
 4197POPC   C4A54090  34.956   6.115   7.412
 4197POPC   C1B54091  34.019   6.008   6.168
 4197POPC   C2B54092  34.260   6.128   6.556
 4197POPC   C3B54093  34.361   5.988   6.977
 4197POPC   C4B54094  34.446   6.148   7.382
 4198POPC   NC354095  14.336  15.205   5.388
 4198POPC   PO454096  13.808  15.559   5.568
 4198POPC   GL154097  14.156  15.292   5.862
 4198POPC   GL254098  14.492  15.089   5.837
 4198POPC   C1A54099  14.200  14.945   6.223
 4198POPC   D2A54100  14.156  14.878   6.685
 4198POPC   C3A54101  14.104  15.268   6.986
 4198POPC   C4A54102  14.170  15.531   7.361
 4198POPC   C1B54103  14.605  15.280   6.215
 4198POPC   C2B54104  14.469  15.279   6.611
 4198POPC   C3B54105  14.548  15.001   6.964
 4198POPC   C4B54106  14.640  15.224   7.290
 4199POPC   NC354107   7.012  41.555   5.397
 4199POPC   PO454108   7.676  41.676   5.204
 4199POPC   GL154109   7.432  41.728   5.631
 4199POPC   GL254110   7.341  41.392   5.758
 4199POPC   C1A54111   7.507  41.782   6.083
 4199POPC   D2A54112   7.380  41.724   6.520
 4199POPC   C3A54113   7.684  41.599   6.842
 4199POPC   C4A54114   7.534  41.815   7.195
 4199POPC   C1B54115   7.169  41.406   6.168
 4199POPC   C2B54116   7.278  41.205   6.543
 4199POPC   C3B54117   7.410  41.179   6.957
 4199POPC   C4B54118   7.264  41.401   7.297
 4200POPC   NC354119   3.044  15.145   5.480
 4200POPC   PO454120   2.510  15.528   5.423
 4200POPC   GL154121   2.769  15.411   5.809
 4200POPC   GL254122   3.110  15.475   5.873
 4200POPC   C1A54123   2.775  15.425   6.255
 4200POPC   D2A54124   2.673  15.386   6.684
 4200POPC   C3A54125   2.894  15.481   7.032
 4200POPC   C4A54126   2.804  15.246   7.357
 4200POPC   C1B54127   3.208  15.104   6.121
 4200POPC   C2B54128   3.024  15.058   6.522
 4200POPC   C3B54129   3.143  15.039   6.940
 4200POPC   C4B54130   3.153  14.872   7.374
 4201POPC   NC354131   5.263  42.145   4.995
 4201POPC   PO454132   5.127  42.502   5.533
 4201POPC   GL154133   4.931  42.406   5.878
 4201POPC   GL254134   4.754  42.116   5.787
 4201POPC   C1A54135   5.067  42.543   6.270
 4201POPC   D2A54136   4.889  42.592   6.655
 4201POPC   C3A54137   5.185  42.588   6.916
 4201POPC   C4A54138   5.249  42.683   7.313
 4201POPC   C1B54139   4.988  42.027   6.194
 4201POPC   C2B54140   4.841  42.083   6.607
 4201POPC   C3B54141   4.951  41.993   7.021
 4201POPC   C4B54142   5.300  42.187   7.204
 4202POPC   NC354143   2.364   6.793   5.236
 4202POPC   PO454144   1.694   6.690   5.265
 4202POPC   GL154145   1.920   6.625   5.719
 4202POPC   GL254146   2.265   6.524   5.727
 4202POPC   C1A54147   1.854   6.551   6.173
 4202POPC   D2A54148   1.761   6.272   6.520
 4202POPC   C3A54149   1.687   6.532   6.878
 4202POPC   C4A54150   1.849   6.734   7.236
 4202POPC   C1B54151   2.371   6.507   6.188
 4202POPC   C2B54152   2.201   6.553   6.614
 4202POPC   C3B54153   2.230   6.463   7.046
 4202POPC   C4B54154   2.474   6.471   7.412
 4203POPC   NC354155  15.789   1.767   5.328
 4203POPC   PO454156  16.380   2.036   5.609
 4203POPC   GL154157  16.191   1.841   5.919
 4203POPC   GL254158  15.875   1.929   5.796
 4203POPC   C1A54159  15.979   1.849   6.310
 4203POPC   D2A54160  15.840   1.710   6.692
 4203POPC   C3A54161  15.921   1.862   7.086
 4203POPC   C4A54162  16.012   1.491   7.286
 4203POPC   C1B54163  15.578   1.695   6.034
 4203POPC   C2B54164  15.422   1.839   6.443
 4203POPC   C3B54165  15.495   2.056   6.864
 4203POPC   C4B54166  15.546   2.232   7.294
 4204POPC   NC354167   1.404  20.687   5.408
 4204POPC   PO454168   0.887  20.338   5.413
 4204POPC   GL154169   1.082  20.515   5.766
 4204POPC   GL254170   1.365  20.331   5.824
 4204POPC   C1A54171   0.918  20.537   6.170
 4204POPC   D2A54172   1.040  20.759   6.541
 4204POPC   C3A54173   1.235  20.561   6.906
 4204POPC   C4A54174   1.482  20.824   7.169
 4204POPC   C1B54175   1.428  20.634   6.189
 4204POPC   C2B54176   1.629  20.494   6.585
 4204POPC   C3B54177   1.762  20.439   7.024
 4204POPC   C4B54178   1.802  20.501   7.505
 4205POPC   NC354179  14.781  11.512   5.403
 4205POPC   PO454180  14.469  12.152   5.363
 4205POPC   GL154181  14.304  12.114   5.807
 4205POPC   GL254182  14.264  11.729   5.841
 4205POPC   C1A54183  14.423  12.228   6.240
 4205POPC   D2A54184  14.645  12.418   6.598
 4205POPC   C3A54185  14.599  12.135   6.946
 4205POPC   C4A54186  14.587  12.306   7.310
 4205POPC   C1B54187  14.128  11.777   6.249
 4205POPC   C2B54188  14.265  11.910   6.638
 4205POPC   C3B54189  14.104  12.027   7.042
 4205POPC   C4B54190  14.207  11.994   7.451
 4206POPC   NC354191  29.314  11.428   5.384
 4206POPC   PO454192  28.734  11.564   5.411
 4206POPC   GL154193  29.002  11.357   5.785
 4206POPC   GL254194  29.418  11.329   5.877
 4206POPC   C1A54195  29.052  11.220   6.204
 4206POPC   D2A54196  29.073  11.409   6.584
 4206POPC   C3A54197  29.072  11.126   6.913
 4206POPC   C4A54198  29.253  10.986   7.285
 4206POPC   C1B54199  29.538  11.458   6.338
 4206POPC   C2B54200  29.544  11.368   6.808
 4206POPC   C3B54201  29.314  11.489   7.202
 4206POPC   C4B54202  29.470  11.641   7.623
 4207POPC   NC354203  29.096  33.357   5.465
 4207POPC   PO454204  29.315  34.044   5.440
 4207POPC   GL154205  29.228  33.764   5.777
 4207POPC   GL254206  28.892  33.774   5.783
 4207POPC   C1A54207  29.181  33.621   6.203
 4207POPC   D2A54208  29.040  33.516   6.614
 4207POPC   C3A54209  29.315  33.643   6.945
 4207POPC   C4A54210  29.162  33.573   7.327
 4207POPC   C1B54211  28.803  33.994   6.182
 4207POPC   C2B54212  28.694  33.915   6.619
 4207POPC   C3B54213  28.849  33.870   7.028
 4207POPC   C4B54214  28.766  34.049   7.475
 4208POPC   NC354215   7.498  25.793   5.461
 4208POPC   PO454216   6.935  26.255   5.438
 4208POPC   GL154217   7.313  26.198   5.765
 4208POPC   GL254218   7.444  25.905   5.948
 4208POPC   C1A54219   7.523  26.369   6.147
 4208POPC   D2A54220   7.367  26.289   6.562
 4208POPC   C3A54221   7.562  26.440   6.956
 4208POPC   C4A54222   7.438  26.323   7.411
 4208POPC   C1B54223   7.220  25.748   6.302
 4208POPC   C2B54224   7.287  25.803   6.732
 4208POPC   C3B54225   7.525  25.945   7.072
 4208POPC   C4B54226   7.326  25.817   7.418
 4209POPC   NC354227   5.643  35.604   5.223
 4209POPC   PO454228   6.054  35.190   5.292
 4209POPC   GL154229   5.921  35.423   5.720
 4209POPC   GL254230   5.605  35.635   5.748
 4209POPC   C1A54231   5.965  35.356   6.199
 4209POPC   D2A54232   5.955  35.211   6.655
 4209POPC   C3A54233   5.975  35.514   7.019
 4209POPC   C4A54234   5.944  35.567   7.493
 4209POPC   C1B54235   5.452  35.454   6.114
 4209POPC   C2B54236   5.534  35.497   6.548
 4209POPC   C3B54237   5.497  35.235   6.902
 4209POPC   C4B54238   5.687  35.163   7.276
 4210POPC   NC354239   9.272  32.849   5.414
 4210POPC   PO454240   8.643  32.828   5.438
 4210POPC   GL154241   8.909  33.099   5.682
 4210POPC   GL254242   8.781  33.400   5.827
 4210POPC   C1A54243   9.114  32.989   6.078
 4210POPC   D2A54244   8.978  33.006   6.509
 4210POPC   C3A54245   9.189  32.973   6.898
 4210POPC   C4A54246   8.910  33.088   7.247
 4210POPC   C1B54247   8.967  33.455   6.257
 4210POPC   C2B54248   8.934  33.507   6.698
 4210POPC   C3B54249   8.633  33.404   6.984
 4210POPC   C4B54250   8.502  33.397   7.385
 4211POPC   NC354251  43.004  26.982   5.424
 4211POPC   PO454252  43.653  26.749   5.370
 4211POPC   GL154253  43.378  26.555   5.747
 4211POPC   GL254254  43.038  26.584   5.760
 4211POPC   C1A54255  43.275  26.458   6.186
 4211POPC   D2A54256  43.139  26.663   6.544
 4211POPC   C3A54257  43.197  26.569   6.976
 4211POPC   C4A54258  43.136  26.932   7.169
 4211POPC   C1B54259  42.888  26.878   6.076
 4211POPC   C2B54260  42.717  26.939   6.474
 4211POPC   C3B54261  42.749  26.816   6.873
 4211POPC   C4B54262  42.703  26.686   7.303
 4212POPC   NC354263  17.453  44.335   5.634
 4212POPC   PO454264  17.543  43.700   5.346
 4212POPC   GL154265  17.614  43.872   5.764
 4212POPC   GL254266  17.892  44.158   5.806
 4212POPC   C1A54267  17.388  43.942   6.161
 4212POPC   D2A54268  17.443  43.742   6.530
 4212POPC   C3A54269  17.287  43.922   6.869
 4212POPC   C4A54270  17.285  44.055   7.271
 4212POPC   C1B54271  17.772  44.287   6.247
 4212POPC   C2B54272  17.609  44.262   6.681
 4212POPC   C3B54273  17.742  44.031   7.072
 4212POPC   C4B54274  17.747  44.133   7.551
 4213POPC   NC354275  16.355  30.915   5.501
 4213POPC   PO454276  17.005  30.715   5.440
 4213POPC   GL154277  16.923  30.478   5.845
 4213POPC   GL254278  16.563  30.569   5.841
 4213POPC   C1A54279  16.946  30.519   6.312
 4213POPC   D2A54280  17.025  30.803   6.678
 4213POPC   C3A54281  16.884  30.709   7.099
 4213POPC   C4A54282  16.799  31.058   7.333
 4213POPC   C1B54283  16.466  30.718   6.260
 4213POPC   C2B54284  16.532  30.670   6.697
 4213POPC   C3B54285  16.376  30.795   7.088
 4213POPC   C4B54286  16.467  30.617   7.469
 4214POPC   NC354287  43.095  10.855   5.491
 4214POPC   PO454288  43.057  10.178   5.333
 4214POPC   GL154289  43.159  10.325   5.800
 4214POPC   GL254290  43.375  10.569   5.805
 4214POPC   C1A54291  43.099  10.507   6.242
 4214POPC   D2A54292  43.138  10.294   6.644
 4214POPC   C3A54293  42.972  10.476   7.028
 4214POPC   C4A54294  42.847  10.601   7.434
 4214POPC   C1B54295  43.600  10.643   6.148
 4214POPC   C2B54296  43.507  10.653   6.570
 4214POPC   C3B54297  43.441  10.602   6.975
 4214POPC   C4B54298  43.382  10.325   7.291
 4215POPC   NC354299  14.645  37.503   5.627
 4215POPC   PO454300  14.044  37.821   5.380
 4215POPC   GL154301  14.061  37.671   5.793
 4215POPC   GL254302  14.330  37.817   5.845
 4215POPC   C1A54303  14.169  37.546   6.233
 4215POPC   D2A54304  14.381  37.593   6.624
 4215POPC   C3A54305  14.133  37.468   6.987
 4215POPC   C4A54306  14.164  37.522   7.444
 4215POPC   C1B54307  14.035  38.044   6.133
 4215POPC   C2B54308  13.966  37.941   6.552
 4215POPC   C3B54309  14.182  38.056   6.900
 4215POPC   C4B54310  14.461  37.825   7.187
 4216POPC   NC354311  34.453  14.848   5.310
 4216POPC   PO454312  34.568  14.199   5.432
 4216POPC   GL154313  34.494  14.499   5.786
 4216POPC   GL254314  34.204  14.752   5.781
 4216POPC   C1A54315  34.549  14.418   6.229
 4216POPC   D2A54316  34.635  14.106   6.532
 4216POPC   C3A54317  34.479  14.259   6.899
 4216POPC   C4A54318  34.664  14.354   7.268
 4216POPC   C1B54319  34.271  14.871   6.207
 4216POPC   C2B54320  34.402  14.732   6.634
 4216POPC   C3B54321  34.349  14.745   7.105
 4216POPC   C4B54322  34.417  14.700   7.566
 4217POPC   NC354323  38.655  10.618   5.245
 4217POPC   PO454324  38.173  10.124   5.343
 4217POPC   GL154325  38.385  10.264   5.728
 4217POPC   GL254326  38.674  10.514   5.739
 4217POPC   C1A54327  38.362  10.427   6.172
 4217POPC   D2A54328  38.393  10.261   6.584
 4217POPC   C3A54329  38.480  10.520   6.915
 4217POPC   C4A54330  38.345  10.532   7.350
 4217POPC   C1B54331  38.815  10.189   6.000
 4217POPC   C2B54332  38.881  10.189   6.425
 4217POPC   C3B54333  38.876  10.143   6.863
 4217POPC   C4B54334  38.645  10.143   7.213
 4218POPC   NC354335  16.542  16.188   5.659
 4218POPC   PO454336  17.179  16.174   5.483
 4218POPC   GL154337  16.972  15.977   5.879
 4218POPC   GL254338  16.734  15.719   5.716
 4218POPC   C1A54339  16.720  16.116   6.292
 4218POPC   D2A54340  16.369  16.343   6.555
 4218POPC   C3A54341  16.419  16.459   7.014
 4218POPC   C4A54342  16.571  16.254   7.435
 4218POPC   C1B54343  16.439  15.698   6.097
 4218POPC   C2B54344  16.408  15.781   6.526
 4218POPC   C3B54345  16.572  15.961   6.897
 4218POPC   C4B54346  16.644  15.651   7.198
 4219POPC   NC354347  29.377   8.397   5.323
 4219POPC   PO454348  28.761   8.082   5.463
 4219POPC   GL154349  29.111   8.201   5.748
 4219POPC   GL254350  29.383   7.930   5.674
 4219POPC   C1A54351  29.124   8.351   6.186
 4219POPC   D2A54352  29.106   8.114   6.575
 4219POPC   C3A54353  29.191   8.271   6.990
 4219POPC   C4A54354  28.887   8.396   7.263
 4219POPC   C1B54355  29.494   8.002   6.121
 4219POPC   C2B54356  29.538   7.781   6.518
 4219POPC   C3B54357  29.518   7.830   6.965
 4219POPC   C4B54358  29.488   7.830   7.430
 4220POPC   NC354359  18.620  12.877   5.343
 4220POPC   PO454360  19.325  12.959   5.234
 4220POPC   GL154361  19.122  13.042   5.680
 4220POPC   GL254362  18.777  13.139   5.831
 4220POPC   C1A54363  19.227  12.830   6.100
 4220POPC   D2A54364  19.335  12.585   6.495
 4220POPC   C3A54365  19.233  12.755   6.922
 4220POPC   C4A54366  18.874  12.857   7.202
 4220POPC   C1B54367  18.676  13.330   6.254
 4220POPC   C2B54368  18.590  13.210   6.669
 4220POPC   C3B54369  18.568  13.330   7.084
 4220POPC   C4B54370  18.719  13.256   7.479
 4221POPC   NC354371  31.901  38.919   5.628
 4221POPC   PO454372  32.299  38.397   5.283
 4221POPC   GL154373  32.359  38.341   5.711
 4221POPC   GL254374  32.050  38.453   5.791
 4221POPC   C1A54375  32.324  38.228   6.160
 4221POPC   D2A54376  32.355  38.485   6.518
 4221POPC   C3A54377  32.347  38.391   6.914
 4221POPC   C4A54378  32.193  38.496   7.288
 4221POPC   C1B54379  32.227  38.754   6.125
 4221POPC   C2B54380  32.238  38.978   6.531
 4221POPC   C3B54381  32.125  38.881   6.944
 4221POPC   C4B54382  32.307  38.971   7.339
 4222POPC   NC354383  31.769  40.274   5.366
 4222POPC   PO454384  31.390  39.771   5.327
 4222POPC   GL154385  31.282  39.866   5.778
 4222POPC   GL254386  31.570  40.046   5.841
 4222POPC   C1A54387  31.143  39.934   6.248
 4222POPC   D2A54388  31.306  39.793   6.696
 4222POPC   C3A54389  31.144  39.911   7.133
 4222POPC   C4A54390  31.034  39.958   7.588
 4222POPC   C1B54391  31.625  39.809   6.249
 4222POPC   C2B54392  31.730  40.067   6.627
 4222POPC   C3B54393  31.618  40.173   7.068
 4222POPC   C4B54394  31.540  39.993   7.464
 4223POPC   NC354395   0.292  28.835   5.504
 4223POPC   PO454396   0.664  29.476   5.460
 4223POPC   GL154397   0.482  29.245   5.791
 4223POPC   GL254398   0.757  29.018   5.814
 4223POPC   C1A54399   0.218  29.126   6.157
 4223POPC   D2A54400   0.336  29.222   6.577
 4223POPC   C3A54401   0.143  29.117   6.951
 4223POPC   C4A54402   0.319  29.187   7.346
 4223POPC   C1B54403   0.668  28.932   6.228
 4223POPC   C2B54404   0.836  29.093   6.588
 4223POPC   C3B54405   0.674  28.976   6.973
 4223POPC   C4B54406   0.720  28.908   7.429
 4224POPC   NC354407   2.569  23.068   5.194
 4224POPC   PO454408   2.911  22.843   5.732
 4224POPC   GL154409   2.782  22.624   6.018
 4224POPC   GL254410   3.088  22.505   6.082
 4224POPC   C1A54411   2.637  22.743   6.396
 4224POPC   D2A54412   2.587  22.575   6.770
 4224POPC   C3A54413   2.540  22.907   7.002
 4224POPC   C4A54414   2.715  22.976   7.361
 4224POPC   C1B54415   3.250  22.305   6.411
 4224POPC   C2B54416   3.036  22.362   6.746
 4224POPC   C3B54417   2.991  22.556   7.140
 4224POPC   C4B54418   3.279  22.410   7.461
 4225POPC   NC354419   4.423   2.226   5.410
 4225POPC   PO454420   3.933   1.832   5.638
 4225POPC   GL154421   4.386   1.915   5.841
 4225POPC   GL254422   4.602   2.228   5.878
 4225POPC   C1A54423   4.444   1.954   6.302
 4225POPC   D2A54424   4.196   2.215   6.571
 4225POPC   C3A54425   3.983   2.078   6.926
 4225POPC   C4A54426   4.104   1.866   7.313
 4225POPC   C1B54427   4.723   2.404   6.276
 4225POPC   C2B54428   4.659   2.378   6.719
 4225POPC   C3B54429   4.479   2.086   7.005
 4225POPC   C4B54430   4.643   1.821   7.292
 4226POPC   NC354431  14.188  42.523   5.354
 4226POPC   PO454432  14.477  41.971   5.649
 4226POPC   GL154433  14.425  42.382   5.788
 4226POPC   GL254434  14.599  42.687   5.662
 4226POPC   C1A54435  14.134  42.540   6.076
 4226POPC   D2A54436  14.273  42.565   6.496
 4226POPC   C3A54437  14.086  42.347   6.824
 4226POPC   C4A54438  14.262  42.380   7.202
 4226POPC   C1B54439  14.590  42.765   6.119
 4226POPC   C2B54440  14.797  42.548   6.477
 4226POPC   C3B54441  14.666  42.542   6.892
 4226POPC   C4B54442  14.613  42.740   7.289
 4227POPC   NC354443  22.177  42.682   5.337
 4227POPC   PO454444  22.066  42.067   5.215
 4227POPC   GL154445  21.973  42.269   5.679
 4227POPC   GL254446  21.826  42.614   5.681
 4227POPC   C1A54447  22.151  42.215   6.140
 4227POPC   D2A54448  22.342  42.145   6.575
 4227POPC   C3A54449  22.126  42.233   6.987
 4227POPC   C4A54450  22.329  42.241   7.411
 4227POPC   C1B54451  22.035  42.707   6.057
 4227POPC   C2B54452  21.974  42.561   6.486
 4227POPC   C3B54453  22.113  42.729   6.872
 4227POPC   C4B54454  22.013  42.678   7.291
 4228POPC   NC354455  40.478   1.163   5.429
 4228POPC   PO454456  41.053   1.218   4.994
 4228POPC   GL154457  40.996   1.341   5.527
 4228POPC   GL254458  40.893   1.025   5.723
 4228POPC   C1A54459  41.036   1.374   6.063
 4228POPC   D2A54460  40.651   1.314   6.370
 4228POPC   C3A54461  40.713   1.264   6.837
 4228POPC   C4A54462  40.593   1.051   7.195
 4228POPC   C1B54463  40.872   0.890   6.177
 4228POPC   C2B54464  41.027   0.655   6.533
 4228POPC   C3B54465  40.937   0.756   6.943
 4228POPC   C4B54466  41.026   0.867   7.375
 4229POPC   NC354467  19.433   8.565   5.462
 4229POPC   PO454468  19.668   9.204   5.366
 4229POPC   GL154469  19.717   8.937   5.729
 4229POPC   GL254470  19.984   9.107   5.876
 4229POPC   C1A54471  19.621   8.618   6.082
 4229POPC   D2A54472  19.621   8.499   6.528
 4229POPC   C3A54473  19.585   8.815   6.816
 4229POPC   C4A54474  19.772   8.880   7.226
 4229POPC   C1B54475  19.951   8.927   6.306
 4229POPC   C2B54476  20.006   9.078   6.715
 4229POPC   C3B54477  20.240   9.010   7.085
 4229POPC   C4B54478  20.227   8.837   7.500
 4230POPC   NC354479  22.155  26.642   5.440
 4230POPC   PO454480  22.230  27.322   5.301
 4230POPC   GL154481  22.235  27.118   5.710
 4230POPC   GL254482  22.482  26.832   5.789
 4230POPC   C1A54483  22.061  27.004   6.108
 4230POPC   D2A54484  22.148  26.987   6.517
 4230POPC   C3A54485  21.964  26.715   6.796
 4230POPC   C4A54486  21.981  26.779   7.242
 4230POPC   C1B54487  22.535  26.782   6.242
 4230POPC   C2B54488  22.481  26.638   6.679
 4230POPC   C3B54489  22.468  26.843   7.061
 4230POPC   C4B54490  22.412  26.761   7.516
 4231POPC   NC354491  33.929  26.256   5.359
 4231POPC   PO454492  33.419  25.875   5.596
 4231POPC   GL154493  33.727  25.834   5.846
 4231POPC   GL254494  34.016  25.989   5.806
 4231POPC   C1A54495  33.610  26.112   6.173
 4231POPC   D2A54496  33.713  26.250   6.550
 4231POPC   C3A54497  33.644  25.906   6.814
 4231POPC   C4A54498  33.551  25.961   7.213
 4231POPC   C1B54499  34.103  26.128   6.235
 4231POPC   C2B54500  34.130  25.964   6.659
 4231POPC   C3B54501  34.040  26.118   7.100
 4231POPC   C4B54502  34.249  26.226   7.516
 4232POPC   NC354503  43.292  17.224   5.527
 4232POPC   PO454504  42.856  17.661   5.429
 4232POPC   GL154505  42.715  17.500   5.826
 4232POPC   GL254506  42.846  17.179   5.823
 4232POPC   C1A54507  42.636  17.360   6.260
 4232POPC   D2A54508  42.838  17.307   6.667
 4232POPC   C3A54509  42.796  17.628   6.980
 4232POPC   C4A54510  43.015  17.674   7.362
 4232POPC   C1B54511  43.150  17.281   6.192
 4232POPC   C2B54512  43.321  17.157   6.616
 4232POPC   C3B54513  43.252  17.364   7.024
 4232POPC   C4B54514  43.530  17.639   7.302
 4233POPC   NC354515  42.746  30.149   5.330
 4233POPC   PO454516  43.258  29.747   5.405
 4233POPC   GL154517  43.092  29.845   5.793
 4233POPC   GL254518  42.787  30.051   5.829
 4233POPC   C1A54519  42.874  29.627   6.124
 4233POPC   D2A54520  42.745  29.767   6.494
 4233POPC   C3A54521  42.831  29.681   6.933
 4233POPC   C4A54522  42.710  30.033   7.187
 4233POPC   C1B54523  43.030  30.125   6.224
 4233POPC   C2B54524  43.140  30.221   6.631
 4233POPC   C3B54525  43.230  30.003   6.969
 4233POPC   C4B54526  43.558  29.957   7.221
 4234POPC   NC354527   7.773  17.792   5.411
 4234POPC   PO454528   8.484  17.567   5.441
 4234POPC   GL154529   8.367  17.534   5.857
 4234POPC   GL254530   8.019  17.456   5.795
 4234POPC   C1A54531   8.422  17.519   6.311
 4234POPC   D2A54532   8.275  17.315   6.660
 4234POPC   C3A54533   8.146  17.543   7.020
 4234POPC   C4A54534   8.398  17.498   7.338
 4234POPC   C1B54535   8.137  17.129   6.124
 4234POPC   C2B54536   7.904  16.995   6.495
 4234POPC   C3B54537   7.853  17.142   6.907
 4234POPC   C4B54538   8.096  17.086   7.271
 4235POPC   NC354539  44.303  14.383   5.443
 4235POPC   PO454540  44.841  14.717   5.371
 4235POPC   GL154541  44.657  14.502   5.775
 4235POPC   GL254542  44.327  14.615   5.916
 4235POPC   C1A54543  44.739  14.213   6.128
 4235POPC   D2A54544  44.817  14.081   6.555
 4235POPC   C3A54545  44.516  14.297   6.817
 4235POPC   C4A54546  44.612  14.293   7.223
 4235POPC   C1B54547  44.598  14.731   6.293
 4235POPC   C2B54548  44.600  14.807   6.756
 4235POPC   C3B54549  44.762  14.781   7.176
 4235POPC   C4B54550  44.670  14.653   7.596
 4236POPC   NC354551  19.719   0.826   5.547
 4236POPC   PO454552  20.047   0.252   5.429
 4236POPC   GL154553  20.001   0.433   5.813
 4236POPC   GL254554  20.297   0.223   5.922
 4236POPC   C1A54555  19.782   0.602   6.208
 4236POPC   D2A54556  19.568   0.683   6.584
 4236POPC   C3A54557  19.789   0.597   6.937
 4236POPC   C4A54558  19.836   0.714   7.360
 4236POPC   C1B54559  19.918   0.104   6.194
 4236POPC   C2B54560  19.744   0.200   6.589
 4236POPC   C3B54561  19.771   0.090   7.018
 4236POPC   C4B54562  20.033   0.277   7.267
 4237POPC   NC354563  21.829  38.257   5.505
 4237POPC   PO454564  21.204  38.614   5.402
 4237POPC   GL154565  21.220  38.713   5.785
 4237POPC   GL254566  21.489  38.472   5.850
 4237POPC   C1A54567  21.323  38.875   6.166
 4237POPC   D2A54568  21.529  38.690   6.509
 4237POPC   C3A54569  21.307  38.784   6.866
 4237POPC   C4A54570  21.237  38.584   7.254
 4237POPC   C1B54571  21.618  38.266   6.219
 4237POPC   C2B54572  21.456  38.167   6.633
 4237POPC   C3B54573  21.611  38.162   7.054
 4237POPC   C4B54574  21.664  38.371   7.421
 4238POPC   NC354575  25.665  13.034   5.571
 4238POPC   PO454576  26.433  12.729   5.551
 4238POPC   GL154577  26.262  12.772   5.970
 4238POPC   GL254578  26.473  13.046   5.991
 4238POPC   C1A54579  25.911  12.905   6.296
 4238POPC   D2A54580  25.617  13.023   6.672
 4238POPC   C3A54581  25.823  12.904   7.053
 4238POPC   C4A54582  26.133  12.632   7.274
 4238POPC   C1B54583  26.402  12.979   6.430
 4238POPC   C2B54584  26.319  12.891   6.859
 4238POPC   C3B54585  26.249  13.189   7.192
 4238POPC   C4B54586  26.378  13.278   7.654
 4239POPC   NC354587  18.975  30.038   5.258
 4239POPC   PO454588  19.371  29.515   5.357
 4239POPC   GL154589  19.189  29.755   5.750
 4239POPC   GL254590  18.981  30.082   5.780
 4239POPC   C1A54591  19.172  29.860   6.211
 4239POPC   D2A54592  19.081  29.696   6.606
 4239POPC   C3A54593  19.335  29.885   6.911
 4239POPC   C4A54594  19.147  30.041   7.269
 4239POPC   C1B54595  19.024  30.344   6.197
 4239POPC   C2B54596  19.109  30.231   6.631
 4239POPC   C3B54597  18.864  30.404   7.025
 4239POPC   C4B54598  18.710  30.385   7.481
 4240POPC   NC354599   1.341   2.401   5.119
 4240POPC   PO454600   1.311   1.916   5.603
 4240POPC   GL154601   0.977   2.039   5.883
 4240POPC   GL254602   1.043   2.363   5.800
 4240POPC   C1A54603   1.015   1.989   6.334
 4240POPC   D2A54604   1.436   1.908   6.526
 4240POPC   C3A54605   1.382   1.719   6.892
 4240POPC   C4A54606   1.108   1.744   7.214
 4240POPC   C1B54607   1.351   2.322   6.149
 4240POPC   C2B54608   1.266   2.395   6.548
 4240POPC   C3B54609   1.181   2.202   6.919
 4240POPC   C4B54610   1.356   2.193   7.307
 4241POPC   NC354611   0.683  43.451   5.230
 4241POPC   PO454612   0.277  43.997   5.361
 4241POPC   GL154613   0.386  44.060   5.757
 4241POPC   GL254614   0.577  43.762   5.773
 4241POPC   C1A54615   0.543  44.141   6.120
 4241POPC   D2A54616   0.638  44.094   6.510
 4241POPC   C3A54617   0.346  44.097   6.811
 4241POPC   C4A54618   0.384  44.081   7.259
 4241POPC   C1B54619   0.664  43.622   6.207
 4241POPC   C2B54620   0.516  43.586   6.623
 4241POPC   C3B54621   0.582  43.651   7.044
 4241POPC   C4B54622   0.430  43.598   7.480
 4242POPC   NC354623  27.235  38.660   5.575
 4242POPC   PO454624  27.410  38.005   5.506
 4242POPC   GL154625  27.366  38.258   5.862
 4242POPC   GL254626  27.688  38.379   5.858
 4242POPC   C1A54627  27.392  38.493   6.262
 4242POPC   D2A54628  27.571  38.501   6.647
 4242POPC   C3A54629  27.400  38.597   6.999
 4242POPC   C4A54630  27.506  38.920   7.252
 4242POPC   C1B54631  27.823  38.198   6.264
 4242POPC   C2B54632  27.964  38.159   6.696
 4242POPC   C3B54633  27.949  38.428   7.081
 4242POPC   C4B54634  28.050  38.252   7.495
 4243POPC   NC354635  11.841  20.752   5.383
 4243POPC   PO454636  11.702  20.165   5.717
 4243POPC   GL154637  11.937  20.500   5.878
 4243POPC   GL254638  11.816  20.874   5.869
 4243POPC   C1A54639  12.218  20.412   6.226
 4243POPC   D2A54640  12.231  20.559   6.668
 4243POPC   C3A54641  12.107  20.322   7.036
 4243POPC   C4A54642  12.484  20.453   7.214
 4243POPC   C1B54643  11.908  20.803   6.310
 4243POPC   C2B54644  11.721  20.595   6.646
 4243POPC   C3B54645  11.809  20.759   7.059
 4243POPC   C4B54646  11.945  21.018   7.441
 4244POPC   NC354647  25.974   8.695   5.329
 4244POPC   PO454648  26.271   9.257   5.147
 4244POPC   GL154649  26.024   9.155   5.566
 4244POPC   GL254650  26.251   8.931   5.753
 4244POPC   C1A54651  25.763   9.075   5.985
 4244POPC   D2A54652  25.691   8.962   6.474
 4244POPC   C3A54653  25.930   9.049   6.855
 4244POPC   C4A54654  25.748   9.130   7.266
 4244POPC   C1B54655  26.141   8.808   6.198
 4244POPC   C2B54656  26.041   8.576   6.586
 4244POPC   C3B54657  26.232   8.559   6.986
 4244POPC   C4B54658  26.161   8.847   7.338
 4245POPC   NC354659  19.300   2.289   5.385
 4245POPC   PO454660  18.751   1.830   5.508
 4245POPC   GL154661  19.045   1.967   5.746
 4245POPC   GL254662  19.336   1.765   5.603
 4245POPC   C1A54663  18.962   2.034   6.187
 4245POPC   D2A54664  19.142   2.220   6.556
 4245POPC   C3A54665  18.930   2.145   6.944
 4245POPC   C4A54666  18.909   1.815   7.245
 4245POPC   C1B54667  19.450   1.850   6.030
 4245POPC   C2B54668  19.469   1.798   6.467
 4245POPC   C3B54669  19.380   1.913   6.882
 4245POPC   C4B54670  19.478   2.020   7.283
 4246POPC   NC354671   5.300  11.398   5.610
 4246POPC   PO454672   4.798  11.006   5.250
 4246POPC   GL154673   4.906  11.064   5.738
 4246POPC   GL254674   5.241  10.933   5.810
 4246POPC   C1A54675   4.899  11.365   6.158
 4246POPC   D2A54676   4.968  11.686   6.527
 4246POPC   C3A54677   4.953  11.510   6.961
 4246POPC   C4A54678   4.912  11.094   7.208
 4246POPC   C1B54679   5.308  11.060   6.230
 4246POPC   C2B54680   5.182  11.177   6.639
 4246POPC   C3B54681   5.385  11.224   7.039
 4246POPC   C4B54682   5.439  11.006   7.376
 4247POPC   NC354683  25.592   4.742   5.484
 4247POPC   PO454684  25.085   4.315   5.432
 4247POPC   GL154685  25.128   4.507   5.809
 4247POPC   GL254686  24.836   4.734   5.828
 4247POPC   C1A54687  25.254   4.326   6.190
 4247POPC   D2A54688  25.072   4.165   6.558
 4247POPC   C3A54689  25.376   4.114   6.894
 4247POPC   C4A54690  25.344   4.093   7.314
 4247POPC   C1B54691  25.068   4.816   6.231
 4247POPC   C2B54692  24.998   4.742   6.672
 4247POPC   C3B54693  24.964   4.416   6.995
 4247POPC   C4B54694  25.159   4.558   7.317
 4248POPC   NC354695   5.915  18.416   5.219
 4248POPC   PO454696   6.311  17.938   5.417
 4248POPC   GL154697   6.180  18.209   5.793
 4248POPC   GL254698   5.816  18.173   5.982
 4248POPC   C1A54699   6.196  18.412   6.206
 4248POPC   D2A54700   5.935  18.324   6.562
 4248POPC   C3A54701   6.203  18.383   6.888
 4248POPC   C4A54702   6.319  18.464   7.274
 4248POPC   C1B54703   6.065  17.894   6.300
 4248POPC   C2B54704   6.099  17.878   6.794
 4248POPC   C3B54705   5.859  18.095   7.164
 4248POPC   C4B54706   5.645  17.890   7.557
 4249POPC   NC354707  11.847  30.572   5.556
 4249POPC   PO454708  12.373  30.848   5.120
 4249POPC   GL154709  12.288  30.799   5.609
 4249POPC   GL254710  12.010  31.008   5.790
 4249POPC   C1A54711  12.351  30.730   6.078
 4249POPC   D2A54712  12.390  30.649   6.519
 4249POPC   C3A54713  12.258  30.975   6.794
 4249POPC   C4A54714  12.227  31.091   7.212
 4249POPC   C1B54715  11.835  30.831   6.179
 4249POPC   C2B54716  11.868  30.597   6.547
 4249POPC   C3B54717  11.900  30.627   6.979
 4249POPC   C4B54718  11.702  30.991   7.144
 4250POPC   NC354719  19.259  39.598   5.470
 4250POPC   PO454720  18.692  39.160   5.388
 4250POPC   GL154721  18.926  39.127   5.784
 4250POPC   GL254722  19.126  38.817   5.836
 4250POPC   C1A54723  19.136  39.295   6.162
 4250POPC   D2A54724  19.392  39.309   6.530
 4250POPC   C3A54725  19.146  39.221   6.924
 4250POPC   C4A54726  19.290  39.281   7.331
 4250POPC   C1B54727  18.877  38.829   6.194
 4250POPC   C2B54728  18.831  39.059   6.545
 4250POPC   C3B54729  18.728  38.852   6.886
 4250POPC   C4B54730  18.653  38.939   7.262
 4251POPC   NC354731   7.610  41.217   5.141
 4251POPC   PO454732   7.182  40.801   5.269
 4251POPC   GL154733   7.249  40.693   5.759
 4251POPC   GL254734   7.047  40.399   5.846
 4251POPC   C1A54735   7.432  40.829   6.196
 4251POPC   D2A54736   7.633  40.843   6.626
 4251POPC   C3A54737   7.582  40.678   7.046
 4251POPC   C4A54738   7.449  40.908   7.390
 4251POPC   C1B54739   7.097  40.457   6.278
 4251POPC   C2B54740   7.278  40.467   6.677
 4251POPC   C3B54741   7.078  40.575   7.060
 4251POPC   C4B54742   7.093  40.539   7.479
 4252POPC   NC354743  15.277  38.240   5.388
 4252POPC   PO454744  14.671  38.543   5.087
 4252POPC   GL154745  14.832  38.536   5.584
 4252POPC   GL254746  15.195  38.649   5.723
 4252POPC   C1A54747  14.878  38.496   6.078
 4252POPC   D2A54748  15.003  38.249   6.435
 4252POPC   C3A54749  15.067  38.425   6.849
 4252POPC   C4A54750  14.893  38.549   7.254
 4252POPC   C1B54751  15.381  38.371   6.081
 4252POPC   C2B54752  15.513  38.303   6.542
 4252POPC   C3B54753  15.598  38.577   6.905
 4252POPC   C4B54754  15.389  38.454   7.255
 4253POPC   NC354755   0.209  24.329   5.272
 4253POPC   PO454756   0.448  24.879   5.501
 4253POPC   GL154757   0.657  24.625   5.837
 4253POPC   GL254758   0.578  24.268   5.745
 4253POPC   C1A54759   0.856  24.787   6.243
 4253POPC   D2A54760   0.802  24.915   6.675
 4253POPC   C3A54761   0.604  24.672   7.007
 4253POPC   C4A54762   0.199  24.630   7.258
 4253POPC   C1B54763   0.535  24.076   6.183
 4253POPC   C2B54764   0.402  23.994   6.623
 4253POPC   C3B54765   0.392  24.188   7.062
 4253POPC   C4B54766   0.423  24.078   7.522
 4254POPC   NC354767  19.025  29.128   5.178
 4254POPC   PO454768  18.777  29.667   5.444
 4254POPC   GL154769  18.738  29.336   5.784
 4254POPC   GL254770  18.869  29.487   6.081
 4254POPC   C1A54771  18.803  28.992   6.146
 4254POPC   D2A54772  18.936  28.830   6.586
 4254POPC   C3A54773  18.848  28.906   7.053
 4254POPC   C4A54774  18.910  28.645   7.456
 4254POPC   C1B54775  19.190  29.260   6.376
 4254POPC   C2B54776  19.239  29.241   6.853
 4254POPC   C3B54777  19.222  29.509   7.243
 4254POPC   C4B54778  19.447  29.608   7.656
 4255POPC   NC354779  18.080  12.373   5.502
 4255POPC   PO454780  18.108  13.020   5.365
 4255POPC   GL154781  18.279  12.990   5.783
 4255POPC   GL254782  18.380  12.652   5.815
 4255POPC   C1A54783  18.371  12.922   6.244
 4255POPC   D2A54784  18.108  12.996   6.594
 4255POPC   C3A54785  18.128  12.746   6.903
 4255POPC   C4A54786  18.341  12.893   7.288
 4255POPC   C1B54787  18.238  12.430   6.213
 4255POPC   C2B54788  18.366  12.322   6.658
 4255POPC   C3B54789  18.518  12.489   7.066
 4255POPC   C4B54790  18.378  12.402   7.512
 4256POPC   NC354791  20.208  21.615   5.401
 4256POPC   PO454792  20.738  21.214   5.425
 4256POPC   GL154793  20.700  21.267   5.838
 4256POPC   GL254794  20.336  21.249   5.812
 4256POPC   C1A54795  20.897  21.449   6.228
 4256POPC   D2A54796  20.727  21.470   6.658
 4256POPC   C3A54797  20.896  21.478   7.085
 4256POPC   C4A54798  20.995  21.811   7.383
 4256POPC   C1B54799  20.363  21.397   6.197
 4256POPC   C2B54800  20.234  21.516   6.533
 4256POPC   C3B54801  20.273  21.322   6.884
 4256POPC   C4B54802  20.393  21.330   7.270
 4257POPC   NC354803  38.048  11.216   5.554
 4257POPC   PO454804  37.462  11.608   5.477
 4257POPC   GL154805  37.600  11.620   5.888
 4257POPC   GL254806  37.696  11.281   5.924
 4257POPC   C1A54807  37.426  11.491   6.293
 4257POPC   D2A54808  37.637  11.325   6.658
 4257POPC   C3A54809  37.752  11.545   6.956
 4257POPC   C4A54810  37.352  11.498   7.186
 4257POPC   C1B54811  37.783  11.020   6.301
 4257POPC   C2B54812  37.713  10.816   6.746
 4257POPC   C3B54813  37.677  11.058   7.138
 4257POPC   C4B54814  37.827  11.368   7.415
 4258POPC   NC354815  40.974  18.109   5.383
 4258POPC   PO454816  40.341  17.835   5.608
 4258POPC   GL154817  40.631  18.122   5.834
 4258POPC   GL254818  41.017  18.157   5.879
 4258POPC   C1A54819  40.658  18.249   6.260
 4258POPC   D2A54820  40.847  18.106   6.635
 4258POPC   C3A54821  40.890  18.287   7.042
 4258POPC   C4A54822  40.827  18.112   7.443
 4258POPC   C1B54823  41.217  18.168   6.289
 4258POPC   C2B54824  41.252  18.428   6.664
 4258POPC   C3B54825  41.390  18.441   7.094
 4258POPC   C4B54826  41.153  18.495   7.468
 4259POPC   NC354827  22.755  35.468   5.250
 4259POPC   PO454828  23.205  35.096   5.596
 4259POPC   GL154829  23.042  35.293   5.914
 4259POPC   GL254830  22.859  35.530   5.749
 4259POPC   C1A54831  23.028  35.140   6.315
 4259POPC   D2A54832  23.246  35.258   6.696
 4259POPC   C3A54833  23.329  35.127   7.090
 4259POPC   C4A54834  22.956  35.238   7.306
 4259POPC   C1B54835  22.644  35.505   6.144
 4259POPC   C2B54836  22.846  35.544   6.542
 4259POPC   C3B54837  22.966  35.634   6.961
 4259POPC   C4B54838  22.642  35.656   7.252
 4260POPC   NC354839  35.028  24.183   5.401
 4260POPC   PO454840  35.015  24.868   5.379
 4260POPC   GL154841  35.306  24.656   5.688
 4260POPC   GL254842  35.133  24.384   5.854
 4260POPC   C1A54843  35.441  24.664   6.146
 4260POPC   D2A54844  35.437  24.350   6.513
 4260POPC   C3A54845  35.375  24.479   6.953
 4260POPC   C4A54846  35.586  24.391   7.377
 4260POPC   C1B54847  35.011  24.199   6.244
 4260POPC   C2B54848  34.926  24.406   6.634
 4260POPC   C3B54849  34.852  24.299   7.045
 4260POPC   C4B54850  35.067  24.460   7.373
 4261POPC   NC354851  23.720  33.664   5.449
 4261POPC   PO454852  23.930  34.283   5.723
 4261POPC   GL154853  23.652  33.924   5.869
 4261POPC   GL254854  23.349  34.079   6.004
 4261POPC   C1A54855  23.502  33.636   6.211
 4261POPC   D2A54856  23.691  33.649   6.666
 4261POPC   C3A54857  23.656  33.700   7.124
 4261POPC   C4A54858  23.560  33.479   7.531
 4261POPC   C1B54859  23.724  34.060   6.330
 4261POPC   C2B54860  24.092  33.966   6.548
 4261POPC   C3B54861  23.984  34.077   6.946
 4261POPC   C4B54862  23.626  34.200   7.168
 4262POPC   NC354863   1.290  27.247   5.413
 4262POPC   PO454864   0.846  27.760   5.509
 4262POPC   GL154865   1.203  27.669   5.783
 4262POPC   GL254866   1.165  27.319   5.889
 4262POPC   C1A54867   1.393  27.669   6.203
 4262POPC   D2A54868   1.554  27.827   6.595
 4262POPC   C3A54869   1.531  27.532   6.920
 4262POPC   C4A54870   1.278  27.604   7.255
 4262POPC   C1B54871   1.010  27.217   6.280
 4262POPC   C2B54872   1.102  27.313   6.724
 4262POPC   C3B54873   0.879  27.284   7.108
 4262POPC   C4B54874   0.976  27.299   7.549
 4263POPC   NC354875  23.348  22.211   5.390
 4263POPC   PO454876  23.954  22.066   5.610
 4263POPC   GL154877  23.728  22.305   5.871
 4263POPC   GL254878  23.373  22.340   5.884
 4263POPC   C1A54879  23.824  22.232   6.284
 4263POPC   D2A54880  24.010  21.937   6.558
 4263POPC   C3A54881  24.035  22.195   6.911
 4263POPC   C4A54882  23.941  22.053   7.306
 4263POPC   C1B54883  23.382  21.986   6.175
 4263POPC   C2B54884  23.472  21.982   6.596
 4263POPC   C3B54885  23.389  22.190   6.991
 4263POPC   C4B54886  23.606  22.527   7.191
 4264POPC   NC354887  22.398   1.765   5.521
 4264POPC   PO454888  22.366   1.180   5.389
 4264POPC   GL154889  22.130   1.405   5.747
 4264POPC   GL254890  21.899   1.164   5.861
 4264POPC   C1A54891  22.003   1.556   6.184
 4264POPC   D2A54892  22.226   1.399   6.570
 4264POPC   C3A54893  22.074   1.495   6.980
 4264POPC   C4A54894  21.880   1.497   7.373
 4264POPC   C1B54895  22.290   1.130   6.139
 4264POPC   C2B54896  22.467   0.931   6.523
 4264POPC   C3B54897  22.447   0.912   6.980
 4264POPC   C4B54898  22.083   0.869   7.284
 4265POPC   NC354899  28.744   8.997   5.609
 4265POPC   PO454900  28.109   8.771   5.438
 4265POPC   GL154901  28.267   8.901   5.859
 4265POPC   GL254902  28.589   8.708   5.975
 4265POPC   C1A54903  28.382   9.021   6.289
 4265POPC   D2A54904  28.442   8.858   6.674
 4265POPC   C3A54905  28.324   9.147   6.992
 4265POPC   C4A54906  28.654   9.308   7.248
 4265POPC   C1B54907  28.650   8.475   6.366
 4265POPC   C2B54908  28.698   8.440   6.803
 4265POPC   C3B54909  28.457   8.661   7.170
 4265POPC   C4B54910  28.371   8.575   7.647
 4266POPC   NC354911  21.983   5.874   5.367
 4266POPC   PO454912  22.560   5.639   5.479
 4266POPC   GL154913  22.335   5.923   5.752
 4266POPC   GL254914  22.046   5.696   5.837
 4266POPC   C1A54915  22.165   6.123   6.136
 4266POPC   D2A54916  21.964   6.163   6.550
 4266POPC   C3A54917  22.145   5.996   6.947
 4266POPC   C4A54918  21.996   6.104   7.356
 4266POPC   C1B54919  21.889   5.565   6.228
 4266POPC   C2B54920  21.902   5.627   6.640
 4266POPC   C3B54921  21.805   5.550   7.029
 4266POPC   C4B54922  22.094   5.593   7.325
 4267POPC   NC354923  29.599  12.338   5.387
 4267POPC   PO454924  30.319  12.219   5.439
 4267POPC   GL154925  30.209  12.071   5.848
 4267POPC   GL254926  29.892  12.210   5.807
 4267POPC   C1A54927  30.151  12.099   6.305
 4267POPC   D2A54928  29.826  11.968   6.602
 4267POPC   C3A54929  29.990  11.900   7.028
 4267POPC   C4A54930  30.312  11.646   7.306
 4267POPC   C1B54931  29.762  12.390   6.212
 4267POPC   C2B54932  29.923  12.465   6.650
 4267POPC   C3B54933  29.671  12.348   7.022
 4267POPC   C4B54934  29.481  11.970   7.211
 4268POPC   NC354935   1.581  15.074   5.295
 4268POPC   PO454936   0.954  15.038   5.344
 4268POPC   GL154937   1.127  15.277   5.712
 4268POPC   GL254938   0.934  15.032   5.896
 4268POPC   C1A54939   1.365  15.385   6.119
 4268POPC   D2A54940   1.261  15.229   6.547
 4268POPC   C3A54941   1.407  15.424   6.929
 4268POPC   C4A54942   1.354  15.399   7.352
 4268POPC   C1B54943   0.943  14.889   6.309
 4268POPC   C2B54944   0.825  14.978   6.719
 4268POPC   C3B54945   0.957  15.229   7.048
 4268POPC   C4B54946   0.889  15.147   7.447
 4269POPC   NC354947  19.567  23.332   5.392
 4269POPC   PO454948  20.032  23.768   5.402
 4269POPC   GL154949  19.848  23.987   5.788
 4269POPC   GL254950  19.570  23.732   5.841
 4269POPC   C1A54951  19.971  24.049   6.245
 4269POPC   D2A54952  20.174  23.680   6.476
 4269POPC   C3A54953  20.070  23.633   6.910
 4269POPC   C4A54954  19.868  24.032   7.091
 4269POPC   C1B54955  19.660  23.644   6.267
 4269POPC   C2B54956  19.606  23.770   6.695
 4269POPC   C3B54957  19.602  23.544   7.091
 4269POPC   C4B54958  19.702  23.722   7.464
 4270POPC   NC354959  26.632   8.995   5.289
 4270POPC   PO454960  27.246   9.179   5.376
 4270POPC   GL154961  26.894   9.101   5.726
 4270POPC   GL254962  26.746   8.761   5.757
 4270POPC   C1A54963  26.652   9.068   6.146
 4270POPC   D2A54964  26.945   9.045   6.494
 4270POPC   C3A54965  27.027   9.233   6.913
 4270POPC   C4A54966  27.020   9.055   7.302
 4270POPC   C1B54967  26.585   8.559   6.153
 4270POPC   C2B54968  26.538   8.715   6.547
 4270POPC   C3B54969  26.577   8.962   6.885
 4270POPC   C4B54970  26.639   8.737   7.248
 4271POPC   NC354971  24.624   4.254   5.399
 4271POPC   PO454972  24.274   3.834   5.764
 4271POPC   GL154973  24.527   4.188   5.884
 4271POPC   GL254974  24.856   4.041   5.880
 4271POPC   C1A54975  24.743   4.415   6.208
 4271POPC   D2A54976  24.610   4.392   6.626
 4271POPC   C3A54977  24.426   4.429   7.038
 4271POPC   C4A54978  24.391   4.483   7.494
 4271POPC   C1B54979  24.666   3.937   6.322
 4271POPC   C2B54980  24.432   3.713   6.656
 4271POPC   C3B54981  24.417   3.767   7.105
 4271POPC   C4B54982  24.310   3.950   7.491
 4272POPC   NC354983  21.637  17.327   5.308
 4272POPC   PO454984  20.994  17.467   5.415
 4272POPC   GL154985  21.308  17.622   5.730
 4272POPC   GL254986  21.645  17.546   5.762
 4272POPC   C1A54987  21.323  17.689   6.184
 4272POPC   D2A54988  21.152  17.537   6.574
 4272POPC   C3A54989  21.167  17.676   6.992
 4272POPC   C4A54990  21.160  17.491   7.403
 4272POPC   C1B54991  21.840  17.672   6.129
 4272POPC   C2B54992  21.717  17.775   6.527
 4272POPC   C3B54993  21.799  17.610   6.892
 4272POPC   C4B54994  21.634  17.630   7.272
 4273POPC   NC354995  39.902  38.182   5.647
 4273POPC   PO454996  40.006  38.815   5.401
 4273POPC   GL154997  39.972  38.657   5.830
 4273POPC   GL254998  40.305  38.498   5.795
 4273POPC   C1A54999  39.783  38.503   6.245
 4273POPC   D2A55000  39.627  38.454   6.694
 4273POPC   C3A55001  39.883  38.364   7.061
 4273POPC   C4A55002  40.280  38.544   7.208
 4273POPC   C1B55003  40.275  38.363   6.238
 4273POPC   C2B55004  40.264  38.476   6.679
 4273POPC   C3B55005  40.507  38.178   6.931
 4273POPC   C4B55006  40.589  38.006   7.314
 4274POPC   NC355007  41.298  32.903   5.222
 4274POPC   PO455008  41.664  33.406   5.199
 4274POPC   GL155009  41.565  33.264   5.669
 4274POPC   GL255010  41.264  33.042   5.728
 4274POPC   C1A55011  41.625  33.011   6.094
 4274POPC   D2A55012  41.603  32.735   6.483
 4274POPC   C3A55013  41.472  32.821   6.918
 4274POPC   C4A55014  41.639  33.143   7.208
 4274POPC   C1B55015  41.148  32.818   6.111
 4274POPC   C2B55016  41.075  32.748   6.549
 4274POPC   C3B55017  40.955  32.984   6.908
 4274POPC   C4B55018  41.146  32.980   7.284
 4275POPC   NC355019  14.609  39.073   5.557
 4275POPC   PO455020  14.722  39.753   5.358
 4275POPC   GL155021  14.552  39.538   5.804
 4275POPC   GL255022  14.292  39.213   5.933
 4275POPC   C1A55023  14.664  39.368   6.226
 4275POPC   D2A55024  14.340  39.216   6.500
 4275POPC   C3A55025  14.281  39.213   6.923
 4275POPC   C4A55026  14.562  39.349   7.201
 4275POPC   C1B55027  14.568  38.879   6.214
 4275POPC   C2B55028  14.776  38.730   6.554
 4275POPC   C3B55029  14.712  38.920   6.947
 4275POPC   C4B55030  14.387  38.844   7.261
 4276POPC   NC355031  33.288  18.154   5.394
 4276POPC   PO455032  32.851  18.515   5.639
 4276POPC   GL155033  32.997  18.222   5.877
 4276POPC   GL255034  33.239  18.445   5.962
 4276POPC   C1A55035  32.845  18.076   6.270
 4276POPC   D2A55036  33.074  18.026   6.646
 4276POPC   C3A55037  32.823  17.972   7.021
 4276POPC   C4A55038  32.883  18.342   7.214
 4276POPC   C1B55039  33.228  18.438   6.340
 4276POPC   C2B55040  33.424  18.441   6.700
 4276POPC   C3B55041  33.384  18.313   7.091
 4276POPC   C4B55042  33.280  18.615   7.397
 4277POPC   NC355043   8.049  20.191   5.396
 4277POPC   PO455044   8.082  19.500   5.378
 4277POPC   GL155045   7.981  19.800   5.728
 4277POPC   GL255046   8.313  19.964   5.809
 4277POPC   C1A55047   7.956  19.907   6.188
 4277POPC   D2A55048   8.236  19.921   6.579
 4277POPC   C3A55049   8.075  19.789   7.020
 4277POPC   C4A55050   8.097  19.779   7.491
 4277POPC   C1B55051   8.386  19.596   6.098
 4277POPC   C2B55052   8.590  19.531   6.507
 4277POPC   C3B55053   8.590  19.716   6.906
 4277POPC   C4B55054   8.441  19.492   7.241
 4278POPC   NC355055  16.850  14.882   5.159
 4278POPC   PO455056  16.176  14.988   5.279
 4278POPC   GL155057  16.515  15.166   5.612
 4278POPC   GL255058  16.753  14.911   5.726
 4278POPC   C1A55059  16.771  15.329   6.016
 4278POPC   D2A55060  16.891  15.598   6.378
 4278POPC   C3A55061  16.780  15.399   6.783
 4278POPC   C4A55062  16.724  15.091   7.162
 4278POPC   C1B55063  16.797  14.868   6.212
 4278POPC   C2B55064  16.716  14.891   6.678
 4278POPC   C3B55065  16.980  14.660   6.997
 4278POPC   C4B55066  17.073  14.639   7.425
 4279POPC   NC355067  34.083  42.433   5.495
 4279POPC   PO455068  33.761  42.064   5.128
 4279POPC   GL155069  33.772  42.055   5.674
 4279POPC   GL255070  34.065  42.102   5.873
 4279POPC   C1A55071  33.665  41.913   6.117
 4279POPC   D2A55072  33.854  42.062   6.527
 4279POPC   C3A55073  33.775  41.919   6.937
 4279POPC   C4A55074  33.749  42.186   7.261
 4279POPC   C1B55075  33.833  42.400   6.122
 4279POPC   C2B55076  33.543  42.457   6.427
 4279POPC   C3B55077  33.588  42.499   6.884
 4279POPC   C4B55078  33.929  42.651   7.207
 4280POPC   NC355079   3.138  10.303   5.431
 4280POPC   PO455080   2.702   9.702   5.521
 4280POPC   GL155081   2.708   9.836   5.914
 4280POPC   GL255082   3.047   9.994   5.894
 4280POPC   C1A55083   2.709   9.669   6.331
 4280POPC   D2A55084   2.677   9.868   6.727
 4280POPC   C3A55085   2.429   9.637   7.007
 4280POPC   C4A55086   2.785   9.541   7.255
 4280POPC   C1B55087   2.941  10.134   6.315
 4280POPC   C2B55088   3.089  10.243   6.711
 4280POPC   C3B55089   3.025  10.061   7.102
 4280POPC   C4B55090   2.591  10.062   7.234
 4281POPC   NC355091   1.284  23.229   5.119
 4281POPC   PO455092   1.238  22.845   5.658
 4281POPC   GL155093   1.504  23.003   5.966
 4281POPC   GL255094   1.387  23.350   5.867
 4281POPC   C1A55095   1.567  22.881   6.374
 4281POPC   D2A55096   1.220  22.819   6.597
 4281POPC   C3A55097   1.312  22.990   6.965
 4281POPC   C4A55098   1.327  22.771   7.346
 4281POPC   C1B55099   1.226  23.300   6.270
 4281POPC   C2B55100   1.013  23.443   6.632
 4281POPC   C3B55101   0.848  23.268   7.014
 4281POPC   C4B55102   1.037  23.177   7.351
 4282POPC   NC355103  23.958  16.430   5.573
 4282POPC   PO455104  23.611  17.037   5.572
 4282POPC   GL155105  23.627  16.805   5.918
 4282POPC   GL255106  23.938  16.797   5.928
 4282POPC   C1A55107  23.558  16.979   6.280
 4282POPC   D2A55108  23.553  17.116   6.653
 4282POPC   C3A55109  23.876  16.934   6.854
 4282POPC   C4A55110  23.692  16.793   7.215
 4282POPC   C1B55111  23.916  16.601   6.328
 4282POPC   C2B55112  24.120  16.483   6.712
 4282POPC   C3B55113  24.077  16.493   7.173
 4282POPC   C4B55114  23.897  16.614   7.637
 4283POPC   NC355115  21.772  22.057   5.514
 4283POPC   PO455116  21.189  22.464   5.499
 4283POPC   GL155117  21.455  22.277   5.853
 4283POPC   GL255118  21.434  21.892   5.852
 4283POPC   C1A55119  21.435  22.236   6.316
 4283POPC   D2A55120  21.324  22.419   6.719
 4283POPC   C3A55121  21.357  22.231   7.135
 4283POPC   C4A55122  21.209  22.262   7.568
 4283POPC   C1B55123  21.521  21.712   6.244
 4283POPC   C2B55124  21.537  21.843   6.684
 4283POPC   C3B55125  21.440  21.735   7.100
 4283POPC   C4B55126  21.478  21.825   7.543
 4284POPC   NC355127  11.841  31.345   5.437
 4284POPC   PO455128  12.447  31.249   5.678
 4284POPC   GL155129  12.261  31.497   5.904
 4284POPC   GL255130  12.340  31.877   5.805
 4284POPC   C1A55131  12.113  31.256   6.279
 4284POPC   D2A55132  11.812  31.187   6.614
 4284POPC   C3A55133  11.989  31.457   6.923
 4284POPC   C4A55134  12.342  31.583   7.210
 4284POPC   C1B55135  12.042  31.866   6.136
 4284POPC   C2B55136  12.207  31.721   6.512
 4284POPC   C3B55137  12.229  31.928   6.874
 4284POPC   C4B55138  11.942  31.905   7.265
 4285POPC   NC355139  28.350  16.485   5.430
 4285POPC   PO455140  28.652  16.992   5.497
 4285POPC   GL155141  28.503  16.741   5.848
 4285POPC   GL255142  28.645  16.414   5.829
 4285POPC   C1A55143  28.422  16.889   6.251
 4285POPC   D2A55144  28.659  17.011   6.592
 4285POPC   C3A55145  28.435  16.781   6.867
 4285POPC   C4A55146  28.466  16.804   7.267
 4285POPC   C1B55147  28.518  16.369   6.240
 4285POPC   C2B55148  28.353  16.310   6.659
 4285POPC   C3B55149  28.523  16.295   7.086
 4285POPC   C4B55150  28.583  16.196   7.548
 4286POPC   NC355151  25.162  19.381   5.500
 4286POPC   PO455152  25.606  18.908   5.521
 4286POPC   GL155153  25.392  18.811   5.870
 4286POPC   GL255154  25.207  19.085   5.920
 4286POPC   C1A55155  25.394  18.705   6.279
 4286POPC   D2A55156  25.687  18.787   6.605
 4286POPC   C3A55157  25.523  18.672   7.003
 4286POPC   C4A55158  25.329  18.792   7.373
 4286POPC   C1B55159  25.048  19.079   6.306
 4286POPC   C2B55160  25.156  18.922   6.705
 4286POPC   C3B55161  25.064  19.125   7.080
 4286POPC   C4B55162  25.194  19.523   7.214
 4287POPC   NC355163   2.900  37.445   5.521
 4287POPC   PO455164   2.526  38.063   5.479
 4287POPC   GL155165   2.644  37.799   5.806
 4287POPC   GL255166   2.429  37.535   5.733
 4287POPC   C1A55167   2.855  37.605   6.156
 4287POPC   D2A55168   2.937  37.713   6.546
 4287POPC   C3A55169   2.644  37.784   6.836
 4287POPC   C4A55170   2.881  37.610   7.199
 4287POPC   C1B55171   2.452  37.303   6.105
 4287POPC   C2B55172   2.521  37.397   6.521
 4287POPC   C3B55173   2.567  37.292   6.945
 4287POPC   C4B55174   2.709  37.163   7.350
 4288POPC   NC355175  21.635  24.318   5.424
 4288POPC   PO455176  21.310  24.840   5.303
 4288POPC   GL155177  21.403  24.708   5.755
 4288POPC   GL255178  21.067  24.690   5.908
 4288POPC   C1A55179  21.490  24.548   6.213
 4288POPC   D2A55180  21.694  24.644   6.637
 4288POPC   C3A55181  21.439  24.552   7.034
 4288POPC   C4A55182  21.163  24.274   7.290
 4288POPC   C1B55183  21.222  24.996   6.230
 4288POPC   C2B55184  21.262  24.930   6.665
 4288POPC   C3B55185  21.022  24.924   7.020
 4288POPC   C4B55186  20.882  24.667   7.333
 4289POPC   NC355187   7.307  13.665   5.360
 4289POPC   PO455188   6.614  13.743   5.411
 4289POPC   GL155189   6.839  13.642   5.825
 4289POPC   GL255190   6.588  13.349   5.937
 4289POPC   C1A55191   6.941  13.532   6.267
 4289POPC   D2A55192   6.945  13.469   6.716
 4289POPC   C3A55193   6.874  13.750   7.083
 4289POPC   C4A55194   6.947  13.875   7.520
 4289POPC   C1B55195   6.446  13.726   6.148
 4289POPC   C2B55196   6.578  13.848   6.552
 4289POPC   C3B55197   6.424  13.590   6.867
 4289POPC   C4B55198   6.353  13.587   7.294
 4290POPC   NC355199   0.370  26.730   5.218
 4290POPC   PO455200   0.156  27.270   5.522
 4290POPC   GL155201   0.330  26.924   5.817
 4290POPC   GL255202   0.331  26.554   5.708
 4290POPC   C1A55203   0.425  26.939   6.275
 4290POPC   D2A55204   0.678  27.033   6.633
 4290POPC   C3A55205   0.520  26.922   6.998
 4290POPC   C4A55206   0.460  27.082   7.413
 4290POPC   C1B55207   0.287  26.431   6.157
 4290POPC   C2B55208   0.226  26.571   6.604
 4290POPC   C3B55209   0.467  26.410   6.961
 4290POPC   C4B55210   0.492  26.568   7.351
 4291POPC   NC355211  14.648  41.496   5.440
 4291POPC   PO455212  15.255  41.794   5.541
 4291POPC   GL155213  15.150  41.583   5.878
 4291POPC   GL255214  14.930  41.334   5.837
 4291POPC   C1A55215  15.134  41.625   6.284
 4291POPC   D2A55216  15.431  41.531   6.579
 4291POPC   C3A55217  15.375  41.749   6.930
 4291POPC   C4A55218  14.992  41.703   7.133
 4291POPC   C1B55219  14.876  41.177   6.271
 4291POPC   C2B55220  14.922  41.386   6.694
 4291POPC   C3B55221  15.215  41.269   7.015
 4291POPC   C4B55222  15.159  40.953   7.278
 4292POPC   NC355223   0.856  11.526   5.532
 4292POPC   PO455224   0.106  11.453   5.387
 4292POPC   GL155225   0.370  11.595   5.760
 4292POPC   GL255226   0.520  11.294   5.913
 4292POPC   C1A55227   0.248  11.605   6.215
 4292POPC   D2A55228   0.383  11.408   6.617
 4292POPC   C3A55229   0.424  11.262   7.038
 4292POPC   C4A55230   0.175  11.305   7.419
 4292POPC   C1B55231   0.728  11.506   6.244
 4292POPC   C2B55232   0.708  11.815   6.557
 4292POPC   C3B55233   0.603  11.727   6.993
 4292POPC   C4B55234   0.567  11.661   7.424
 4293POPC   NC355235   7.160  22.325   5.454
 4293POPC   PO455236   7.662  21.919   5.606
 4293POPC   GL155237   7.389  22.105   5.886
 4293POPC   GL255238   7.048  22.032   5.941
 4293POPC   C1A55239   7.398  22.050   6.326
 4293POPC   D2A55240   7.661  21.927   6.643
 4293POPC   C3A55241   7.371  21.923   6.979
 4293POPC   C4A55242   7.483  22.159   7.292
 4293POPC   C1B55243   6.882  22.141   6.343
 4293POPC   C2B55244   7.088  22.282   6.725
 4293POPC   C3B55245   7.006  22.226   7.181
 4293POPC   C4B55246   7.124  22.353   7.603
 4294POPC   NC355247  16.229  22.578   5.403
 4294POPC   PO455248  15.821  23.088   5.458
 4294POPC   GL155249  16.068  22.946   5.772
 4294POPC   GL255250  15.855  22.677   5.850
 4294POPC   C1A55251  15.965  23.070   6.203
 4294POPC   D2A55252  15.826  22.911   6.607
 4294POPC   C3A55253  15.922  23.136   7.007
 4294POPC   C4A55254  15.869  22.929   7.418
 4294POPC   C1B55255  16.118  22.568   6.194
 4294POPC   C2B55256  16.045  22.419   6.619
 4294POPC   C3B55257  16.137  22.663   6.999
 4294POPC   C4B55258  16.500  22.594   7.249
 4295POPC   NC355259  39.502  37.047   5.567
 4295POPC   PO455260  39.034  36.609   5.466
 4295POPC   GL155261  39.166  36.803   5.836
 4295POPC   GL255262  39.471  36.599   5.867
 4295POPC   C1A55263  39.416  36.949   6.242
 4295POPC   D2A55264  39.543  37.120   6.664
 4295POPC   C3A55265  39.339  36.877   6.979
 4295POPC   C4A55266  39.081  36.976   7.329
 4295POPC   C1B55267  39.100  36.522   6.218
 4295POPC   C2B55268  38.989  36.646   6.664
 4295POPC   C3B55269  39.005  36.497   7.094
 4295POPC   C4B55270  38.765  36.589   7.457
 4296POPC   NC355271  23.327  38.036   5.353
 4296POPC   PO455272  22.977  37.484   5.560
 4296POPC   GL155273  23.117  37.776   5.870
 4296POPC   GL255274  22.886  38.024   5.727
 4296POPC   C1A55275  23.048  37.704   6.336
 4296POPC   D2A55276  22.837  37.674   6.749
 4296POPC   C3A55277  23.076  37.655   7.127
 4296POPC   C4A55278  23.221  37.321   7.386
 4296POPC   C1B55279  22.870  38.142   6.157
 4296POPC   C2B55280  22.693  38.160   6.586
 4296POPC   C3B55281  22.699  38.088   7.040
 4296POPC   C4B55282  22.844  37.986   7.442
 4297POPC   NC355283  19.009  10.144   4.962
 4297POPC   PO455284  19.215   9.797   5.506
 4297POPC   GL155285  19.007   9.627   5.856
 4297POPC   GL255286  18.730   9.842   5.932
 4297POPC   C1A55287  19.008   9.472   6.299
 4297POPC   D2A55288  18.827   9.559   6.712
 4297POPC   C3A55289  19.162   9.485   7.014
 4297POPC   C4A55290  19.395   9.826   7.211
 4297POPC   C1B55291  18.516   9.994   6.311
 4297POPC   C2B55292  18.575  10.216   6.713
 4297POPC   C3B55293  18.819  10.118   7.100
 4297POPC   C4B55294  18.904  10.054   7.560
 4298POPC   NC355295  13.985   9.386   5.508
 4298POPC   PO455296  13.529   9.794   5.287
 4298POPC   GL155297  13.551   9.809   5.751
 4298POPC   GL255298  13.235   9.952   5.766
 4298POPC   C1A55299  13.674   9.697   6.201
 4298POPC   D2A55300  13.730   9.887   6.640
 4298POPC   C3A55301  13.818   9.686   7.051
 4298POPC   C4A55302  14.153   9.419   7.236
 4298POPC   C1B55303  13.143   9.793   6.155
 4298POPC   C2B55304  13.289   9.596   6.541
 4298POPC   C3B55305  13.314   9.431   6.954
 4298POPC   C4B55306  13.318   9.590   7.365
 4299POPC   NC355307   2.912  19.446   4.981
 4299POPC   PO455308   2.810  18.937   5.384
 4299POPC   GL155309   2.745  19.076   5.778
 4299POPC   GL255310   2.960  19.367   5.787
 4299POPC   C1A55311   2.585  18.890   6.169
 4299POPC   D2A55312   2.595  19.117   6.547
 4299POPC   C3A55313   2.841  19.027   6.877
 4299POPC   C4A55314   2.618  19.004   7.228
 4299POPC   C1B55315   3.023  19.155   6.200
 4299POPC   C2B55316   3.162  19.286   6.581
 4299POPC   C3B55317   3.136  19.456   6.986
 4299POPC   C4B55318   3.156  19.128   7.278
 4300POPC   NC355319   0.926  29.928   5.439
 4300POPC   PO455320   1.573  29.913   5.236
 4300POPC   GL155321   1.374  29.737   5.680
 4300POPC   GL255322   1.043  29.587   5.815
 4300POPC   C1A55323   1.382  29.800   6.161
 4300POPC   D2A55324   1.199  29.809   6.583
 4300POPC   C3A55325   1.311  30.093   6.911
 4300POPC   C4A55326   1.410  29.820   7.238
 4300POPC   C1B55327   0.845  29.587   6.244
 4300POPC   C2B55328   0.722  29.620   6.680
 4300POPC   C3B55329   0.904  29.822   7.078
 4300POPC   C4B55330   0.996  29.748   7.531
 4301POPC   NC355331  21.330  43.212   5.392
 4301POPC   PO455332  21.842  43.612   5.642
 4301POPC   GL155333  21.565  43.309   5.917
 4301POPC   GL255334  21.281  43.061   5.865
 4301POPC   C1A55335  21.436  43.249   6.365
 4301POPC   D2A55336  21.604  43.455   6.758
 4301POPC   C3A55337  21.457  43.371   7.192
 4301POPC   C4A55338  21.470  43.285   7.651
 4301POPC   C1B55339  21.531  42.790   6.129
 4301POPC   C2B55340  21.482  42.755   6.560
 4301POPC   C3B55341  21.614  42.896   6.968
 4301POPC   C4B55342  21.444  42.860   7.359
 4302POPC   NC355343   2.095  20.789   5.432
 4302POPC   PO455344   1.502  21.124   5.467
 4302POPC   GL155345   1.769  21.003   5.787
 4302POPC   GL255346   1.750  20.674   5.805
 4302POPC   C1A55347   2.084  20.894   6.119
 4302POPC   D2A55348   2.031  20.826   6.554
 4302POPC   C3A55349   2.254  20.969   6.916
 4302POPC   C4A55350   1.988  20.889   7.249
 4302POPC   C1B55351   1.905  20.416   6.138
 4302POPC   C2B55352   2.295  20.433   6.365
 4302POPC   C3B55353   2.266  20.440   6.795
 4302POPC   C4B55354   2.240  20.469   7.201
 4303POPC   NC355355  37.899  43.825   5.400
 4303POPC   PO455356  37.770  44.453   5.578
 4303POPC   GL155357  37.653  44.081   5.822
 4303POPC   GL255358  37.467  43.776   5.730
 4303POPC   C1A55359  37.811  43.857   6.195
 4303POPC   D2A55360  37.796  43.671   6.617
 4303POPC   C3A55361  37.955  43.982   6.933
 4303POPC   C4A55362  38.103  43.992   7.371
 4303POPC   C1B55363  37.380  43.576   6.122
 4303POPC   C2B55364  37.294  43.709   6.536
 4303POPC   C3B55365  37.433  43.871   6.935
 4303POPC   C4B55366  37.652  43.710   7.255
 4304POPC   NC355367  43.373  36.211   5.321
 4304POPC   PO455368  42.805  35.906   5.376
 4304POPC   GL155369  42.927  36.205   5.715
 4304POPC   GL255370  43.260  36.110   5.812
 4304POPC   C1A55371  43.029  36.358   6.170
 4304POPC   D2A55372  43.146  36.482   6.560
 4304POPC   C3A55373  42.908  36.352   6.898
 4304POPC   C4A55374  43.206  36.266   7.222
 4304POPC   C1B55375  42.950  35.862   6.117
 4304POPC   C2B55376  42.870  35.962   6.543
 4304POPC   C3B55377  43.021  35.865   6.971
 4304POPC   C4B55378  43.093  35.806   7.429
 4305POPC   NC355379  23.395   4.792   5.223
 4305POPC   PO455380  23.771   5.384   5.294
 4305POPC   GL155381  23.800   5.237   5.695
 4305POPC   GL255382  23.475   5.316   5.785
 4305POPC   C1A55383  23.745   4.941   6.032
 4305POPC   D2A55384  23.660   5.003   6.454
 4305POPC   C3A55385  23.932   4.989   6.807
 4305POPC   C4A55386  23.732   4.963   7.217
 4305POPC   C1B55387  23.659   5.459   6.172
 4305POPC   C2B55388  23.837   5.463   6.588
 4305POPC   C3B55389  23.631   5.391   6.980
 4305POPC   C4B55390  23.491   5.362   7.414
 4306POPC   NC355391  30.524  12.561   5.686
 4306POPC   PO455392  29.953  12.630   5.336
 4306POPC   GL155393  29.854  12.745   5.794
 4306POPC   GL255394  29.826  13.131   5.802
 4306POPC   C1A55395  29.946  12.865   6.260
 4306POPC   D2A55396  29.743  12.936   6.689
 4306POPC   C3A55397  29.957  12.793   7.093
 4306POPC   C4A55398  29.941  12.748   7.569
 4306POPC   C1B55399  29.866  13.375   6.190
 4306POPC   C2B55400  29.770  13.443   6.628
 4306POPC   C3B55401  29.992  13.312   7.015
 4306POPC   C4B55402  30.314  13.497   7.313
 4307POPC   NC355403  27.858  37.894   5.411
 4307POPC   PO455404  27.535  37.324   5.276
 4307POPC   GL155405  27.579  37.554   5.726
 4307POPC   GL255406  27.721  37.852   5.888
 4307POPC   C1A55407  27.665  37.462   6.192
 4307POPC   D2A55408  27.796  37.609   6.585
 4307POPC   C3A55409  27.598  37.633   6.981
 4307POPC   C4A55410  27.855  37.793   7.331
 4307POPC   C1B55411  27.406  37.915   6.213
 4307POPC   C2B55412  27.475  38.011   6.614
 4307POPC   C3B55413  27.551  38.124   7.028
 4307POPC   C4B55414  27.352  37.964   7.363
 4308POPC   NC355415  13.030  17.744   5.441
 4308POPC   PO455416  12.427  17.379   5.330
 4308POPC   GL155417  12.710  17.466   5.740
 4308POPC   GL255418  13.122  17.476   5.868
 4308POPC   C1A55419  12.762  17.601   6.171
 4308POPC   D2A55420  13.000  17.371   6.481
 4308POPC   C3A55421  12.890  17.468   6.875
 4308POPC   C4A55422  12.738  17.495   7.272
 4308POPC   C1B55423  13.265  17.723   6.240
 4308POPC   C2B55424  13.299  17.786   6.717
 4308POPC   C3B55425  13.316  17.562   7.141
 4308POPC   C4B55426  13.122  17.528   7.571
 4309POPC   NC355427  28.902   9.243   5.077
 4309POPC   PO455428  29.106   8.777   5.420
 4309POPC   GL155429  29.149   8.767   5.862
 4309POPC   GL255430  29.175   9.119   5.905
 4309POPC   C1A55431  28.980   8.855   6.290
 4309POPC   D2A55432  29.138   8.711   6.669
 4309POPC   C3A55433  28.976   8.865   7.056
 4309POPC   C4A55434  29.218   8.740   7.413
 4309POPC   C1B55435  29.173   9.332   6.300
 4309POPC   C2B55436  29.030   9.263   6.714
 4309POPC   C3B55437  29.205   9.342   7.113
 4309POPC   C4B55438  29.090   9.220   7.501
 4310POPC   NC355439   3.642  38.111   5.601
 4310POPC   PO455440   3.357  37.508   5.501
 4310POPC   GL155441   3.546  37.530   5.928
 4310POPC   GL255442   3.829  37.727   5.909
 4310POPC   C1A55443   3.490  37.873   6.263
 4310POPC   D2A55444   3.351  37.967   6.670
 4310POPC   C3A55445   3.299  37.606   6.885
 4310POPC   C4A55446   3.420  37.562   7.255
 4310POPC   C1B55447   3.928  37.600   6.313
 4310POPC   C2B55448   3.787  37.700   6.711
 4310POPC   C3B55449   3.857  37.835   7.103
 4310POPC   C4B55450   4.094  37.638   7.400
 4311POPC   NC355451  23.713  23.836   5.445
 4311POPC   PO455452  23.321  23.411   5.676
 4311POPC   GL155453  23.615  23.605   5.888
 4311POPC   GL255454  23.973  23.553   5.803
 4311POPC   C1A55455  23.495  23.755   6.236
 4311POPC   D2A55456  23.551  23.570   6.584
 4311POPC   C3A55457  23.371  23.774   6.897
 4311POPC   C4A55458  23.424  23.624   7.273
 4311POPC   C1B55459  23.991  23.595   6.239
 4311POPC   C2B55460  24.042  23.779   6.633
 4311POPC   C3B55461  23.880  23.613   6.994
 4311POPC   C4B55462  23.925  23.327   7.299
 4312POPC   NC355463   6.650  23.782   5.502
 4312POPC   PO455464   7.271  23.585   5.514
 4312POPC   GL155465   7.014  23.729   5.844
 4312POPC   GL255466   6.751  23.463   5.879
 4312POPC   C1A55467   6.877  23.849   6.233
 4312POPC   D2A55468   6.832  23.562   6.562
 4312POPC   C3A55469   6.765  23.831   6.876
 4312POPC   C4A55470   6.757  23.744   7.298
 4312POPC   C1B55471   6.458  23.458   6.228
 4312POPC   C2B55472   6.309  23.671   6.621
 4312POPC   C3B55473   6.304  23.700   7.074
 4312POPC   C4B55474   6.357  23.388   7.371
 4313POPC   NC355475  40.103   3.401   5.443
 4313POPC   PO455476  39.814   3.977   5.359
 4313POPC   GL155477  40.018   3.883   5.778
 4313POPC   GL255478  40.141   3.579   5.904
 4313POPC   C1A55479  39.979   3.859   6.274
 4313POPC   D2A55480  40.205   3.590   6.590
 4313POPC   C3A55481  40.142   3.722   7.032
 4313POPC   C4A55482  39.727   3.778   7.182
 4313POPC   C1B55483  39.909   3.326   6.173
 4313POPC   C2B55484  39.922   3.112   6.549
 4313POPC   C3B55485  39.866   3.304   6.938
 4313POPC   C4B55486  39.928   3.364   7.378
 4314POPC   NC355487  44.613  21.727   5.462
 4314POPC   PO455488  44.957  22.297   5.206
 4314POPC   GL155489  44.966  22.325   5.783
 4314POPC   GL255490  44.845  21.965   5.891
 4314POPC   C1A55491  44.639  22.338   6.184
 4314POPC   D2A55492  44.442  22.174   6.600
 4314POPC   C3A55493  44.580  22.307   7.017
 4314POPC   C4A55494  44.877  22.044   7.246
 4314POPC   C1B55495  44.475  21.828   6.145
 4314POPC   C2B55496  44.374  21.675   6.572
 4314POPC   C3B55497  44.446  21.817   6.989
 4314POPC   C4B55498  44.380  21.972   7.401
 4315POPC   NC355499  30.775  11.064   5.094
 4315POPC   PO455500  30.405  11.437   5.513
 4315POPC   GL155501  30.559  11.277   5.817
 4315POPC   GL255502  30.902  11.215   5.678
 4315POPC   C1A55503  30.542  11.478   6.223
 4315POPC   D2A55504  30.514  11.188   6.561
 4315POPC   C3A55505  30.588  11.292   6.996
 4315POPC   C4A55506  30.743  11.029   7.330
 4315POPC   C1B55507  30.932  11.154   6.133
 4315POPC   C2B55508  31.054  11.256   6.552
 4315POPC   C3B55509  31.062  11.033   6.917
 4315POPC   C4B55510  31.260  10.975   7.319
 4316POPC   NC355511   7.720  32.201   5.383
 4316POPC   PO455512   8.318  31.883   5.476
 4316POPC   GL155513   8.354  32.082   5.871
 4316POPC   GL255514   8.064  32.230   5.803
 4316POPC   C1A55515   8.321  32.210   6.322
 4316POPC   D2A55516   8.571  32.102   6.715
 4316POPC   C3A55517   8.499  32.321   7.080
 4316POPC   C4A55518   8.138  32.492   7.209
 4316POPC   C1B55519   7.936  31.920   6.120
 4316POPC   C2B55520   7.832  32.098   6.513
 4316POPC   C3B55521   8.074  32.075   6.873
 4316POPC   C4B55522   8.031  31.994   7.286
 4317POPC   NC355523  30.548   5.976   5.390
 4317POPC   PO455524  30.258   5.447   5.538
 4317POPC   GL155525  30.529   5.662   5.869
 4317POPC   GL255526  30.462   6.005   5.891
 4317POPC   C1A55527  30.627   5.804   6.323
 4317POPC   D2A55528  30.538   6.077   6.673
 4317POPC   C3A55529  30.515   5.860   7.079
 4317POPC   C4A55530  30.791   5.499   7.140
 4317POPC   C1B55531  30.897   6.124   6.041
 4317POPC   C2B55532  31.016   6.189   6.506
 4317POPC   C3B55533  31.081   6.342   6.936
 4317POPC   C4B55534  30.934   6.059   7.303
 4318POPC   NC355535  22.463  38.445   5.076
 4318POPC   PO455536  22.061  38.620   5.666
 4318POPC   GL155537  22.102  38.397   5.971
 4318POPC   GL255538  22.429  38.270   5.945
 4318POPC   C1A55539  22.073  38.535   6.376
 4318POPC   D2A55540  21.985  38.355   6.745
 4318POPC   C3A55541  21.793  38.638   6.973
 4318POPC   C4A55542  21.951  38.795   7.300
 4318POPC   C1B55543  22.572  38.549   6.230
 4318POPC   C2B55544  22.560  38.664   6.636
 4318POPC   C3B55545  22.422  38.529   7.031
 4318POPC   C4B55546  22.144  38.288   7.265
 4319POPC   NC355547  36.905  19.824   5.423
 4319POPC   PO455548  37.014  20.426   5.208
 4319POPC   GL155549  37.066  20.141   5.739
 4319POPC   GL255550  37.328  20.069   5.979
 4319POPC   C1A55551  36.861  20.108   6.175
 4319POPC   D2A55552  36.909  20.030   6.623
 4319POPC   C3A55553  36.589  20.034   6.942
 4319POPC   C4A55554  36.563  19.817   7.288
 4319POPC   C1B55555  37.212  19.683   6.229
 4319POPC   C2B55556  37.197  19.461   6.648
 4319POPC   C3B55557  36.964  19.661   6.993
 4319POPC   C4B55558  37.067  19.893   7.376
 4320POPC   NC355559  19.335  16.553   5.458
 4320POPC   PO455560  19.061  17.150   5.298
 4320POPC   GL155561  19.078  16.918   5.745
 4320POPC   GL255562  19.090  16.572   5.909
 4320POPC   C1A55563  19.270  16.945   6.171
 4320POPC   D2A55564  19.140  16.722   6.519
 4320POPC   C3A55565  19.007  17.010   6.796
 4320POPC   C4A55566  19.092  16.979   7.199
 4320POPC   C1B55567  18.838  16.411   6.256
 4320POPC   C2B55568  18.818  16.264   6.686
 4320POPC   C3B55569  18.877  16.537   7.029
 4320POPC   C4B55570  19.181  16.471   7.356
 4321POPC   NC355571  41.006  27.883   5.458
 4321POPC   PO455572  41.657  27.623   5.242
 4321POPC   GL155573  41.502  27.565   5.675
 4321POPC   GL255574  41.179  27.557   5.831
 4321POPC   C1A55575  41.610  27.609   6.122
 4321POPC   D2A55576  41.755  27.300   6.423
 4321POPC   C3A55577  41.892  27.371   6.822
 4321POPC   C4A55578  41.757  27.639   7.113
 4321POPC   C1B55579  41.117  27.777   6.220
 4321POPC   C2B55580  41.345  27.628   6.574
 4321POPC   C3B55581  41.261  27.583   6.978
 4321POPC   C4B55582  41.356  27.723   7.404
 4322POPC   NC355583  43.403   7.145   5.499
 4322POPC   PO455584  42.983   6.676   5.337
 4322POPC   GL155585  43.161   6.799   5.813
 4322POPC   GL255586  43.342   7.106   6.002
 4322POPC   C1A55587  43.253   6.668   6.280
 4322POPC   D2A55588  43.291   6.370   6.653
 4322POPC   C3A55589  43.046   6.429   7.084
 4322POPC   C4A55590  42.886   6.339   7.554
 4322POPC   C1B55591  43.610   7.043   6.380
 4322POPC   C2B55592  43.492   6.878   6.802
 4322POPC   C3B55593  43.284   6.871   7.220
 4322POPC   C4B55594  43.344   7.028   7.657
 4323POPC   NC355595  39.265  17.670   5.517
 4323POPC   PO455596  39.113  17.024   5.381
 4323POPC   GL155597  39.084  17.321   5.814
 4323POPC   GL255598  39.426  17.556   5.973
 4323POPC   C1A55599  39.033  17.465   6.249
 4323POPC   D2A55600  39.348  17.361   6.553
 4323POPC   C3A55601  39.270  17.361   6.984
 4323POPC   C4A55602  38.944  17.409   7.259
 4323POPC   C1B55603  39.532  17.820   6.363
 4323POPC   C2B55604  39.439  17.830   6.838
 4323POPC   C3B55605  39.519  17.738   7.306
 4323POPC   C4B55606  39.576  17.676   7.797
 4324POPC   NC355607  24.813  44.036   5.634
 4324POPC   PO455608  24.255  44.287   5.576
 4324POPC   GL155609  24.358  43.821   5.775
 4324POPC   GL255610  24.143  43.549   5.934
 4324POPC   C1A55611  24.560  43.715   6.192
 4324POPC   D2A55612  24.422  43.744   6.644
 4324POPC   C3A55613  24.581  43.917   7.027
 4324POPC   C4A55614  24.351  44.178   7.290
 4324POPC   C1B55615  24.033  43.739   6.280
 4324POPC   C2B55616  23.917  43.934   6.641
 4324POPC   C3B55617  24.056  43.834   7.022
 4324POPC   C4B55618  24.207  43.713   7.415
 4325POPC   NC355619  27.839  42.927   5.519
 4325POPC   PO455620  27.540  43.501   5.153
 4325POPC   GL155621  27.571  43.422   5.679
 4325POPC   GL255622  27.641  43.118   5.938
 4325POPC   C1A55623  27.479  43.530   6.169
 4325POPC   D2A55624  27.300  43.506   6.646
 4325POPC   C3A55625  27.473  43.211   6.992
 4325POPC   C4A55626  27.525  43.256   7.430
 4325POPC   C1B55627  27.949  42.824   6.146
 4325POPC   C2B55628  28.018  42.748   6.563
 4325POPC   C3B55629  27.879  42.857   6.980
 4325POPC   C4B55630  27.944  42.940   7.413
 4326POPC   NC355631  12.090  32.311   5.250
 4326POPC   PO455632  12.059  31.744   5.432
 4326POPC   GL155633  11.895  32.119   5.684
 4326POPC   GL255634  12.182  32.364   5.750
 4326POPC   C1A55635  11.770  32.310   6.097
 4326POPC   D2A55636  12.015  32.225   6.493
 4326POPC   C3A55637  11.860  32.259   6.902
 4326POPC   C4A55638  11.856  32.566   7.183
 4326POPC   C1B55639  12.253  32.539   6.146
 4326POPC   C2B55640  12.249  32.680   6.561
 4326POPC   C3B55641  12.327  32.475   6.954
 4326POPC   C4B55642  12.331  32.597   7.388
 4327POPC   NC355643  17.871  20.744   5.435
 4327POPC   PO455644  18.467  20.279   5.508
 4327POPC   GL155645  18.382  20.577   5.844
 4327POPC   GL255646  18.596  20.887   5.903
 4327POPC   C1A55647  18.076  20.654   6.167
 4327POPC   D2A55648  17.977  20.775   6.584
 4327POPC   C3A55649  18.107  20.564   6.942
 4327POPC   C4A55650  18.342  20.392   7.280
 4327POPC   C1B55651  18.621  20.931   6.352
 4327POPC   C2B55652  18.435  21.006   6.761
 4327POPC   C3B55653  18.409  20.905   7.212
 4327POPC   C4B55654  18.544  21.124   7.594
 4328POPC   NC355655  41.009   9.661   5.462
 4328POPC   PO455656  41.368  10.185   5.705
 4328POPC   GL155657  41.185   9.773   5.936
 4328POPC   GL255658  40.790   9.568   5.888
 4328POPC   C1A55659  40.903   9.784   6.300
 4328POPC   D2A55660  40.733  10.008   6.598
 4328POPC   C3A55661  40.705   9.874   6.998
 4328POPC   C4A55662  40.821   9.747   7.405
 4328POPC   C1B55663  40.664   9.329   6.255
 4328POPC   C2B55664  40.583   9.435   6.694
 4328POPC   C3B55665  40.438   9.482   7.140
 4328POPC   C4B55666  40.429   9.472   7.617
 4329POPC   NC355667  34.193  20.715   5.567
 4329POPC   PO455668  33.592  20.729   5.342
 4329POPC   GL155669  33.728  20.507   5.692
 4329POPC   GL255670  33.802  20.848   5.846
 4329POPC   C1A55671  33.924  20.370   6.085
 4329POPC   D2A55672  33.934  20.582   6.488
 4329POPC   C3A55673  33.658  20.397   6.811
 4329POPC   C4A55674  33.691  20.452   7.256
 4329POPC   C1B55675  33.639  21.009   6.216
 4329POPC   C2B55676  33.549  20.880   6.637
 4329POPC   C3B55677  33.804  20.856   6.955
 4329POPC   C4B55678  33.717  20.968   7.332
 4330POPC   NC355679   8.754  38.277   5.424
 4330POPC   PO455680   9.379  38.639   5.456
 4330POPC   GL155681   9.109  38.450   5.788
 4330POPC   GL255682   8.768  38.361   5.924
 4330POPC   C1A55683   9.145  38.514   6.229
 4330POPC   D2A55684   9.272  38.305   6.593
 4330POPC   C3A55685   9.148  38.547   6.940
 4330POPC   C4A55686   9.160  38.709   7.355
 4330POPC   C1B55687   8.613  38.485   6.356
 4330POPC   C2B55688   8.615  38.520   6.831
 4330POPC   C3B55689   8.777  38.367   7.234
 4330POPC   C4B55690   8.863  38.420   7.686
 4331POPC   NC355691  32.236  21.862   5.432
 4331POPC   PO455692  31.832  22.398   5.369
 4331POPC   GL155693  32.151  22.286   5.740
 4331POPC   GL255694  32.084  22.540   5.975
 4331POPC   C1A55695  32.324  22.043   6.152
 4331POPC   D2A55696  32.285  22.053   6.646
 4331POPC   C3A55697  32.288  21.877   7.103
 4331POPC   C4A55698  32.119  22.052   7.518
 4331POPC   C1B55699  32.309  22.508   6.372
 4331POPC   C2B55700  32.477  22.501   6.789
 4331POPC   C3B55701  32.329  22.400   7.202
 4331POPC   C4B55702  32.392  22.458   7.637
 4332POPC   NC355703  37.454  13.519   5.357
 4332POPC   PO455704  37.814  14.046   5.479
 4332POPC   GL155705  37.640  13.733   5.780
 4332POPC   GL255706  37.352  13.476   5.846
 4332POPC   C1A55707  37.735  13.612   6.185
 4332POPC   D2A55708  37.881  13.537   6.578
 4332POPC   C3A55709  37.685  13.718   6.923
 4332POPC   C4A55710  37.845  13.540   7.264
 4332POPC   C1B55711  37.360  13.263   6.231
 4332POPC   C2B55712  37.432  13.310   6.672
 4332POPC   C3B55713  37.205  13.531   6.959
 4332POPC   C4B55714  37.332  13.664   7.367
 4333POPC   NC355715  24.621  16.472   5.017
 4333POPC   PO455716  24.239  16.801   5.472
 4333POPC   GL155717  24.388  16.606   5.843
 4333POPC   GL255718  24.701  16.552   5.867
 4333POPC   C1A55719  24.424  16.691   6.293
 4333POPC   D2A55720  24.593  16.862   6.669
 4333POPC   C3A55721  24.356  16.880   7.035
 4333POPC   C4A55722  24.370  16.737   7.488
 4333POPC   C1B55723  24.776  16.291   6.226
 4333POPC   C2B55724  24.626  16.322   6.650
 4333POPC   C3B55725  24.711  16.510   7.068
 4333POPC   C4B55726  24.860  16.628   7.521
 4334POPC   NC355727  20.720  17.078   5.512
 4334POPC   PO455728  20.519  16.480   5.233
 4334POPC   GL155729  20.459  16.513   5.712
 4334POPC   GL255730  20.395  16.847   5.818
 4334POPC   C1A55731  20.592  16.535   6.183
 4334POPC   D2A55732  20.863  16.778   6.517
 4334POPC   C3A55733  20.945  16.617   6.965
 4334POPC   C4A55734  20.679  16.657   7.329
 4334POPC   C1B55735  20.272  17.112   6.177
 4334POPC   C2B55736  20.452  17.124   6.576
 4334POPC   C3B55737  20.532  16.904   6.904
 4334POPC   C4B55738  20.351  17.106   7.214
 4335POPC   NC355739  17.358  13.979   5.540
 4335POPC   PO455740  17.625  14.490   5.207
 4335POPC   GL155741  17.663  14.557   5.666
 4335POPC   GL255742  17.407  14.389   5.815
 4335POPC   C1A55743  17.666  14.619   6.167
 4335POPC   D2A55744  17.522  14.505   6.592
 4335POPC   C3A55745  17.757  14.632   6.977
 4335POPC   C4A55746  17.480  14.851   7.202
 4335POPC   C1B55747  17.474  14.093   6.181
 4335POPC   C2B55748  17.570  13.993   6.631
 4335POPC   C3B55749  17.400  14.216   7.021
 4335POPC   C4B55750  17.204  14.154   7.432
 4336POPC   NC355751   2.657   6.918   5.670
 4336POPC   PO455752   2.674   7.501   5.401
 4336POPC   GL155753   2.796   7.419   5.815
 4336POPC   GL255754   2.450   7.371   5.880
 4336POPC   C1A55755   2.848   7.407   6.262
 4336POPC   D2A55756   2.648   7.376   6.679
 4336POPC   C3A55757   2.901   7.309   7.054
 4336POPC   C4A55758   3.080   7.519   7.390
 4336POPC   C1B55759   2.526   7.783   6.068
 4336POPC   C2B55760   2.682   7.870   6.493
 4336POPC   C3B55761   2.591   7.804   6.956
 4336POPC   C4B55762   2.408   7.449   7.146
 4337POPC   NC355763  43.721  29.844   5.413
 4337POPC   PO455764  44.245  30.368   5.440
 4337POPC   GL155765  43.987  30.065   5.807
 4337POPC   GL255766  43.599  30.022   5.887
 4337POPC   C1A55767  43.907  29.820   6.250
 4337POPC   D2A55768  43.707  29.856   6.690
 4337POPC   C3A55769  43.935  29.662   7.038
 4337POPC   C4A55770  43.976  29.740   7.487
 4337POPC   C1B55771  43.569  30.206   6.312
 4337POPC   C2B55772  43.813  30.359   6.680
 4337POPC   C3B55773  43.979  30.184   7.063
 4337POPC   C4B55774  43.888  30.241   7.523
 4338POPC   NC355775  42.790   9.439   5.428
 4338POPC   PO455776  42.230   9.752   5.441
 4338POPC   GL155777  42.348   9.619   5.820
 4338POPC   GL255778  42.173   9.342   5.974
 4338POPC   C1A55779  42.210   9.821   6.194
 4338POPC   D2A55780  42.389  10.053   6.507
 4338POPC   C3A55781  42.257   9.969   6.896
 4338POPC   C4A55782  42.405   9.896   7.267
 4338POPC   C1B55783  42.513   9.438   6.288
 4338POPC   C2B55784  42.516   9.578   6.714
 4338POPC   C3B55785  42.222   9.458   7.023
 4338POPC   C4B55786  42.348   9.373   7.424
 4339POPC   NC355787   3.642  20.869   5.529
 4339POPC   PO455788   3.271  20.232   5.510
 4339POPC   GL155789   3.443  20.480   5.793
 4339POPC   GL255790   3.246  20.744   5.948
 4339POPC   C1A55791   3.666  20.493   6.175
 4339POPC   D2A55792   3.549  20.675   6.592
 4339POPC   C3A55793   3.702  20.484   6.977
 4339POPC   C4A55794   3.555  20.384   7.386
 4339POPC   C1B55795   3.578  20.992   6.191
 4339POPC   C2B55796   3.662  21.176   6.608
 4339POPC   C3B55797   3.590  21.004   7.034
 4339POPC   C4B55798   3.314  20.825   7.313
 4340POPC   NC355799  31.839  38.211   5.331
 4340POPC   PO455800  31.473  38.787   5.482
 4340POPC   GL155801  31.424  38.540   5.897
 4340POPC   GL255802  31.586  38.243   5.850
 4340POPC   C1A55803  31.317  38.312   6.333
 4340POPC   D2A55804  31.470  38.105   6.753
 4340POPC   C3A55805  31.357  38.225   7.198
 4340POPC   C4A55806  31.118  38.596   7.283
 4340POPC   C1B55807  31.816  38.447   6.236
 4340POPC   C2B55808  31.872  38.485   6.680
 4340POPC   C3B55809  31.706  38.591   7.064
 4340POPC   C4B55810  31.600  38.641   7.462
 4341POPC   NC355811  29.476  13.723   5.130
 4341POPC   PO455812  28.870  13.424   5.179
 4341POPC   GL155813  29.034  13.620   5.590
 4341POPC   GL255814  29.076  13.352   5.788
 4341POPC   C1A55815  29.019  13.751   6.092
 4341POPC   D2A55816  29.155  13.777   6.541
 4341POPC   C3A55817  29.032  13.534   6.873
 4341POPC   C4A55818  28.957  13.640   7.277
 4341POPC   C1B55819  29.347  13.336   6.154
 4341POPC   C2B55820  29.305  13.196   6.583
 4341POPC   C3B55821  29.451  13.249   7.017
 4341POPC   C4B55822  29.302  13.301   7.437
 4342POPC   NC355823  12.021  38.759   5.505
 4342POPC   PO455824  12.442  38.213   5.572
 4342POPC   GL155825  12.247  38.433   5.890
 4342POPC   GL255826  11.899  38.495   5.936
 4342POPC   C1A55827  12.228  38.291   6.304
 4342POPC   D2A55828  12.455  38.447   6.640
 4342POPC   C3A55829  12.347  38.778   6.890
 4342POPC   C4A55830  12.396  38.553   7.247
 4342POPC   C1B55831  11.754  38.489   6.363
 4342POPC   C2B55832  11.933  38.369   6.771
 4342POPC   C3B55833  11.927  38.319   7.239
 4342POPC   C4B55834  11.824  38.179   7.669
 4343POPC   NC355835   8.254  17.163   5.442
 4343POPC   PO455836   8.406  16.566   5.267
 4343POPC   GL155837   8.188  16.652   5.718
 4343POPC   GL255838   7.897  16.909   5.728
 4343POPC   C1A55839   8.364  16.675   6.197
 4343POPC   D2A55840   8.358  16.798   6.653
 4343POPC   C3A55841   8.410  16.592   7.080
 4343POPC   C4A55842   8.456  16.793   7.479
 4343POPC   C1B55843   7.864  16.642   6.107
 4343POPC   C2B55844   7.960  16.481   6.524
 4343POPC   C3B55845   7.924  16.648   6.943
 4343POPC   C4B55846   8.030  16.506   7.391
 4344POPC   NC355847  10.913  19.319   5.456
 4344POPC   PO455848  11.451  18.782   5.417
 4344POPC   GL155849  11.251  19.005   5.780
 4344POPC   GL255850  10.970  18.787   5.768
 4344POPC   C1A55851  11.217  19.264   6.206
 4344POPC   D2A55852  11.234  19.490   6.649
 4344POPC   C3A55853  11.424  19.265   7.020
 4344POPC   C4A55854  11.272  19.233   7.479
 4344POPC   C1B55855  10.913  18.822   6.236
 4344POPC   C2B55856  11.102  18.982   6.657
 4344POPC   C3B55857  11.103  18.849   7.101
 4344POPC   C4B55858  10.694  18.699   7.172
 4345POPC   NC355859  44.735   1.042   5.285
 4345POPC   PO455860  44.301   1.456   5.341
 4345POPC   GL155861  44.556   1.368   5.742
 4345POPC   GL255862  44.724   1.021   5.795
 4345POPC   C1A55863  44.486   1.252   6.193
 4345POPC   D2A55864  44.621   1.041   6.583
 4345POPC   C3A55865  44.419   1.199   6.964
 4345POPC   C4A55866  44.432   1.140   7.387
 4345POPC   C1B55867  44.975   1.067   6.193
 4345POPC   C2B55868   0.112   0.926   6.616
 4345POPC   C3B55869  44.946   1.101   7.024
 4345POPC   C4B55870   0.182   1.145   7.415
 4346POPC   NC355871   8.116  13.077   5.378
 4346POPC   PO455872   7.658  12.511   5.539
 4346POPC   GL155873   8.094  12.629   5.803
 4346POPC   GL255874   8.248  12.960   5.845
 4346POPC   C1A55875   8.221  12.725   6.285
 4346POPC   D2A55876   8.187  13.118   6.568
 4346POPC   C3A55877   8.008  13.083   6.989
 4346POPC   C4A55878   8.015  12.821   7.355
 4346POPC   C1B55879   8.515  13.119   6.165
 4346POPC   C2B55880   8.683  13.012   6.569
 4346POPC   C3B55881   8.508  12.847   6.945
 4346POPC   C4B55882   8.465  13.157   7.228
 4347POPC   NC355883  44.304  24.064   5.208
 4347POPC   PO455884  43.802  24.559   5.292
 4347POPC   GL155885  43.762  24.534   5.784
 4347POPC   GL255886  43.492  24.322   5.892
 4347POPC   C1A55887  43.681  24.726   6.226
 4347POPC   D2A55888  43.869  24.900   6.644
 4347POPC   C3A55889  43.901  24.584   6.999
 4347POPC   C4A55890  44.173  24.269   7.193
 4347POPC   C1B55891  43.775  24.208   6.254
 4347POPC   C2B55892  43.831  24.136   6.721
 4347POPC   C3B55893  43.708  24.043   7.149
 4347POPC   C4B55894  43.621  24.222   7.575
 4348POPC   NC355895   1.598  40.120   5.487
 4348POPC   PO455896   2.258  39.882   5.492
 4348POPC   GL155897   2.081  39.848   5.865
 4348POPC   GL255898   1.728  39.731   5.860
 4348POPC   C1A55899   2.138  39.706   6.262
 4348POPC   D2A55900   1.966  39.928   6.594
 4348POPC   C3A55901   2.132  40.094   6.960
 4348POPC   C4A55902   2.072  39.696   7.159
 4348POPC   C1B55903   1.726  40.092   6.168
 4348POPC   C2B55904   1.590  40.270   6.572
 4348POPC   C3B55905   1.642  40.047   6.981
 4348POPC   C4B55906   1.801  40.291   7.312
 4349POPC   NC355907  36.923  40.845   5.250
 4349POPC   PO455908  36.650  40.224   5.495
 4349POPC   GL155909  36.659  40.647   5.757
 4349POPC   GL255910  36.992  40.816   5.773
 4349POPC   C1A55911  36.716  40.848   6.190
 4349POPC   D2A55912  37.060  40.958   6.499
 4349POPC   C3A55913  36.922  41.006   6.898
 4349POPC   C4A55914  36.806  40.762   7.211
 4349POPC   C1B55915  37.178  40.623   6.137
 4349POPC   C2B55916  37.330  40.490   6.527
 4349POPC   C3B55917  37.205  40.544   6.943
 4349POPC   C4B55918  37.336  40.904   7.193
 4350POPC   NC355919  39.491  25.489   5.524
 4350POPC   PO455920  38.949  25.388   5.188
 4350POPC   GL155921  39.099  25.179   5.654
 4350POPC   GL255922  39.458  25.062   5.808
 4350POPC   C1A55923  39.072  25.167   6.116
 4350POPC   D2A55924  39.078  24.950   6.508
 4350POPC   C3A55925  38.918  25.084   6.896
 4350POPC   C4A55926  39.089  25.092   7.299
 4350POPC   C1B55927  39.584  25.377   6.138
 4350POPC   C2B55928  39.533  25.453   6.563
 4350POPC   C3B55929  39.385  25.329   6.944
 4350POPC   C4B55930  39.527  25.369   7.346
 4351POPC   NC355931   6.941  31.358   5.582
 4351POPC   PO455932   7.499  31.788   5.518
 4351POPC   GL155933   7.551  31.628   5.884
 4351POPC   GL255934   7.364  31.332   5.926
 4351POPC   C1A55935   7.463  31.783   6.284
 4351POPC   D2A55936   7.360  31.950   6.658
 4351POPC   C3A55937   7.580  31.858   7.021
 4351POPC   C4A55938   7.532  31.416   7.101
 4351POPC   C1B55939   7.090  31.410   6.298
 4351POPC   C2B55940   6.925  31.268   6.708
 4351POPC   C3B55941   7.036  31.297   7.147
 4351POPC   C4B55942   7.186  31.668   7.349
 4352POPC   NC355943  24.850  25.965   5.384
 4352POPC   PO455944  24.221  26.189   5.458
 4352POPC   GL155945  24.487  25.928   5.744
 4352POPC   GL255946  24.650  26.230   5.808
 4352POPC   C1A55947  24.592  25.853   6.187
 4352POPC   D2A55948  24.368  25.982   6.556
 4352POPC   C3A55949  24.473  25.814   6.955
 4352POPC   C4A55950  24.327  25.905   7.381
 4352POPC   C1B55951  24.779  26.311   6.216
 4352POPC   C2B55952  24.885  26.109   6.617
 4352POPC   C3B55953  24.713  26.276   7.008
 4352POPC   C4B55954  24.667  26.258   7.495
 4353POPC   NC355955   0.792  10.335   5.431
 4353POPC   PO455956   1.467  10.600   5.374
 4353POPC   GL155957   1.407  10.686   5.822
 4353POPC   GL255958   1.057  10.700   5.856
 4353POPC   C1A55959   1.350  10.803   6.277
 4353POPC   D2A55960   1.050  10.653   6.632
 4353POPC   C3A55961   1.200  10.602   7.098
 4353POPC   C4A55962   1.129  10.949   7.418
 4353POPC   C1B55963   1.120  10.348   6.122
 4353POPC   C2B55964   1.097  10.143   6.498
 4353POPC   C3B55965   0.923  10.195   6.893
 4353POPC   C4B55966   1.054  10.100   7.297
 4354POPC   NC355967  44.210  13.417   5.570
 4354POPC   PO455968  44.607  13.957   5.529
 4354POPC   GL155969  44.732  13.668   5.860
 4354POPC   GL255970  44.676  13.297   5.829
 4354POPC   C1A55971  44.771  13.598   6.306
 4354POPC   D2A55972  44.421  13.543   6.594
 4354POPC   C3A55973  44.497  13.799   6.904
 4354POPC   C4A55974  44.494  13.798   7.306
 4354POPC   C1B55975  44.572  13.111   6.232
 4354POPC   C2B55976  44.676  13.105   6.656
 4354POPC   C3B55977  44.871  13.426   6.914
 4354POPC   C4B55978  44.870  13.442   7.355
 4355POPC   NC355979  21.725  15.727   5.463
 4355POPC   PO455980  22.371  15.721   5.480
 4355POPC   GL155981  22.296  15.845   5.892
 4355POPC   GL255982  21.914  15.895   5.903
 4355POPC   C1A55983  22.167  15.932   6.331
 4355POPC   D2A55984  22.107  16.209   6.676
 4355POPC   C3A55985  22.171  15.996   7.066
 4355POPC   C4A55986  22.439  15.657   7.207
 4355POPC   C1B55987  21.730  16.193   6.238
 4355POPC   C2B55988  21.591  16.331   6.663
 4355POPC   C3B55989  21.779  16.344   7.070
 4355POPC   C4B55990  22.034  16.312   7.449
 4356POPC   NC355991  35.193  21.985   5.336
 4356POPC   PO455992  34.968  22.488   5.647
 4356POPC   GL155993  35.327  22.229   5.782
 4356POPC   GL255994  35.419  21.848   5.784
 4356POPC   C1A55995  35.508  22.293   6.176
 4356POPC   D2A55996  35.731  22.382   6.550
 4356POPC   C3A55997  35.480  22.423   6.934
 4356POPC   C4A55998  35.097  22.303   7.134
 4356POPC   C1B55999  35.496  21.771   6.231
 4356POPC   C2B56000  35.348  21.999   6.609
 4356POPC   C3B56001  35.388  21.880   7.027
 4356POPC   C4B56002  35.627  21.580   7.259
 4357POPC   NC356003  23.879   0.908   5.068
 4357POPC   PO456004  23.613   0.450   5.509
 4357POPC   GL156005  23.749   0.515   5.925
 4357POPC   GL256006  23.833   0.836   5.850
 4357POPC   C1A56007  23.859   0.342   6.342
 4357POPC   D2A56008  23.629   0.245   6.713
 4357POPC   C3A56009  23.815   0.216   7.120
 4357POPC   C4A56010  23.710   0.270   7.553
 4357POPC   C1B56011  23.721   0.916   6.284
 4357POPC   C2B56012  23.534   0.763   6.692
 4357POPC   C3B56013  23.504   0.653   7.164
 4357POPC   C4B56014  23.675   0.777   7.605
 4358POPC   NC356015  44.919  15.169   5.484
 4358POPC   PO456016  44.233  14.881   5.453
 4358POPC   GL156017  44.516  15.064   5.783
 4358POPC   GL256018  44.861  14.938   5.904
 4358POPC   C1A56019  44.477  15.240   6.203
 4358POPC   D2A56020  44.227  15.149   6.577
 4358POPC   C3A56021  44.409  15.216   7.007
 4358POPC   C4A56022  44.379  15.031   7.417
 4358POPC   C1B56023  44.981  15.142   6.246
 4358POPC   C2B56024  44.795  15.266   6.626
 4358POPC   C3B56025  44.918  15.260   7.043
 4358POPC   C4B56026  44.695  15.555   7.298
 4359POPC   NC356027  25.006  34.948   5.535
 4359POPC   PO456028  25.608  34.780   5.465
 4359POPC   GL156029  25.395  34.760   5.843
 4359POPC   GL256030  25.273  34.421   5.931
 4359POPC   C1A56031  25.351  34.781   6.272
 4359POPC   D2A56032  25.400  34.491   6.573
 4359POPC   C3A56033  25.303  34.696   6.924
 4359POPC   C4A56034  25.398  34.537   7.302
 4359POPC   C1B56035  24.980  34.400   6.266
 4359POPC   C2B56036  24.953  34.226   6.645
 4359POPC   C3B56037  25.217  34.177   6.980
 4359POPC   C4B56038  25.173  34.083   7.389
 4360POPC   NC356039  28.178  34.296   5.554
 4360POPC   PO456040  28.367  34.911   5.443
 4360POPC   GL156041  28.362  34.690   5.837
 4360POPC   GL256042  28.600  34.377   5.832
 4360POPC   C1A56043  28.241  34.827   6.242
 4360POPC   D2A56044  28.479  34.752   6.620
 4360POPC   C3A56045  28.261  34.745   6.989
 4360POPC   C4A56046  28.078  34.842   7.380
 4360POPC   C1B56047  28.445  34.353   6.254
 4360POPC   C2B56048  28.317  34.260   6.679
 4360POPC   C3B56049  28.590  34.324   7.029
 4360POPC   C4B56050  28.575  34.628   7.366
 4361POPC   NC356051  42.523  12.653   5.567
 4361POPC   PO456052  41.916  12.706   5.377
 4361POPC   GL156053  42.108  12.874   5.808
 4361POPC   GL256054  42.394  13.137   5.787
 4361POPC   C1A56055  42.124  13.101   6.231
 4361POPC   D2A56056  42.425  13.158   6.594
 4361POPC   C3A56057  42.254  12.971   6.950
 4361POPC   C4A56058  42.216  12.780   7.354
 4361POPC   C1B56059  42.639  12.998   6.160
 4361POPC   C2B56060  42.725  12.723   6.514
 4361POPC   C3B56061  42.686  12.742   6.942
 4361POPC   C4B56062  42.745  12.876   7.346
 4362POPC   NC356063  35.608  42.858   5.350
 4362POPC   PO456064  35.171  43.264   5.143
 4362POPC   GL156065  35.283  43.133   5.643
 4362POPC   GL256066  35.384  42.814   5.794
 4362POPC   C1A56067  35.326  43.205   6.098
 4362POPC   D2A56068  35.184  43.064   6.495
 4362POPC   C3A56069  35.371  43.260   6.809
 4362POPC   C4A56070  35.189  43.256   7.217
 4362POPC   C1B56071  35.223  42.672   6.180
 4362POPC   C2B56072  35.345  42.591   6.626
 4362POPC   C3B56073  35.274  42.793   7.012
 4362POPC   C4B56074  35.114  42.793   7.426
 4363POPC   NC356075  33.018   2.144   5.120
 4363POPC   PO456076  32.831   2.155   5.731
 4363POPC   GL156077  33.190   2.100   5.947
 4363POPC   GL256078  33.235   1.770   5.901
 4363POPC   C1A56079  33.170   2.318   6.307
 4363POPC   D2A56080  32.949   2.200   6.672
 4363POPC   C3A56081  33.159   2.156   7.036
 4363POPC   C4A56082  32.934   2.112   7.415
 4363POPC   C1B56083  33.050   1.805   6.345
 4363POPC   C2B56084  32.897   1.696   6.772
 4363POPC   C3B56085  33.034   1.684   7.182
 4363POPC   C4B56086  33.388   1.926   7.444
 4364POPC   NC356087  31.718  16.937   5.345
 4364POPC   PO456088  31.205  16.460   5.311
 4364POPC   GL156089  31.356  16.719   5.700
 4364POPC   GL256090  31.722  16.766   5.811
 4364POPC   C1A56091  31.414  16.745   6.191
 4364POPC   D2A56092  31.589  16.857   6.600
 4364POPC   C3A56093  31.345  17.000   6.970
 4364POPC   C4A56094  31.141  16.811   7.350
 4364POPC   C1B56095  31.876  17.059   6.151
 4364POPC   C2B56096  31.880  17.279   6.546
 4364POPC   C3B56097  31.860  17.110   6.960
 4364POPC   C4B56098  31.685  17.095   7.373
 4365POPC   NC356099  34.916  36.104   5.495
 4365POPC   PO456100  34.234  35.836   5.447
 4365POPC   GL156101  34.452  36.030   5.807
 4365POPC   GL256102  34.579  35.714   5.924
 4365POPC   C1A56103  34.608  36.323   6.178
 4365POPC   D2A56104  34.819  36.254   6.611
 4365POPC   C3A56105  34.564  36.177   6.998
 4365POPC   C4A56106  34.186  36.000   7.192
 4365POPC   C1B56107  34.891  35.909   6.189
 4365POPC   C2B56108  35.152  35.854   6.557
 4365POPC   C3B56109  34.947  35.773   6.946
 4365POPC   C4B56110  34.691  35.789   7.301
 4366POPC   NC356111   7.170  16.004   5.012
 4366POPC   PO456112   7.656  15.981   5.453
 4366POPC   GL156113   7.403  15.933   5.817
 4366POPC   GL256114   7.041  15.848   5.857
 4366POPC   C1A56115   7.433  15.822   6.244
 4366POPC   D2A56116   7.645  16.062   6.567
 4366POPC   C3A56117   7.558  15.942   6.995
 4366POPC   C4A56118   7.693  16.134   7.356
 4366POPC   C1B56119   6.937  15.915   6.314
 4366POPC   C2B56120   7.053  16.255   6.583
 4366POPC   C3B56121   6.906  16.316   6.993
 4366POPC   C4B56122   7.045  16.020   7.306
 4367POPC   NC356123  13.890   7.833   5.148
 4367POPC   PO456124  13.637   7.255   5.358
 4367POPC   GL156125  13.550   7.227   5.797
 4367POPC   GL256126  13.832   7.018   5.888
 4367POPC   C1A56127  13.545   7.516   6.153
 4367POPC   D2A56128  13.825   7.499   6.508
 4367POPC   C3A56129  13.614   7.567   6.905
 4367POPC   C4A56130  13.585   7.633   7.338
 4367POPC   C1B56131  13.637   7.036   6.299
 4367POPC   C2B56132  13.688   7.061   6.741
 4367POPC   C3B56133  13.665   7.126   7.175
 4367POPC   C4B56134  13.357   7.150   7.460
 4368POPC   NC356135   0.046   6.361   5.583
 4368POPC   PO456136  44.780   6.958   5.509
 4368POPC   GL156137  44.631   6.677   5.822
 4368POPC   GL256138  44.773   6.381   6.021
 4368POPC   C1A56139  44.528   6.805   6.225
 4368POPC   D2A56140  44.559   6.612   6.598
 4368POPC   C3A56141  44.668   6.908   6.892
 4368POPC   C4A56142  44.660   6.795   7.312
 4368POPC   C1B56143  44.345   6.319   6.196
 4368POPC   C2B56144  44.250   6.210   6.625
 4368POPC   C3B56145  44.329   6.398   7.058
 4368POPC   C4B56146  44.465   6.334   7.518
 4369POPC   NC356147  31.218   7.647   5.463
 4369POPC   PO456148  31.655   7.195   5.204
 4369POPC   GL156149  31.483   7.270   5.681
 4369POPC   GL256150  31.283   7.008   5.834
 4369POPC   C1A56151  31.377   7.505   6.099
 4369POPC   D2A56152  31.654   7.596   6.464
 4369POPC   C3A56153  31.501   7.711   6.865
 4369POPC   C4A56154  31.659   7.608   7.279
 4369POPC   C1B56155  31.155   7.091   6.250
 4369POPC   C2B56156  31.245   7.313   6.637
 4369POPC   C3B56157  31.210   7.355   7.089
 4369POPC   C4B56158  31.413   7.184   7.461
 4370POPC   NC356159  37.835  25.149   5.555
 4370POPC   PO456160  37.230  25.293   5.351
 4370POPC   GL156161  37.376  25.210   5.792
 4370POPC   GL256162  37.650  25.475   5.909
 4370POPC   C1A56163  37.336  25.146   6.238
 4370POPC   D2A56164  37.325  25.523   6.501
 4370POPC   C3A56165  37.569  25.574   6.881
 4370POPC   C4A56166  37.496  25.437   7.286
 4370POPC   C1B56167  37.850  25.159   6.197
 4370POPC   C2B56168  37.728  25.105   6.604
 4370POPC   C3B56169  37.952  25.237   6.952
 4370POPC   C4B56170  37.939  25.162   7.359
 4371POPC   NC356171  24.724  12.840   5.291
 4371POPC   PO456172  24.048  12.757   5.331
 4371POPC   GL156173  24.235  12.776   5.784
 4371POPC   GL256174  24.563  12.822   5.834
 4371POPC   C1A56175  24.359  12.567   6.210
 4371POPC   D2A56176  24.626  12.661   6.572
 4371POPC   C3A56177  24.469  12.624   7.007
 4371POPC   C4A56178  24.770  12.612   7.348
 4371POPC   C1B56179  24.404  13.073   6.218
 4371POPC   C2B56180  24.592  13.156   6.658
 4371POPC   C3B56181  24.746  13.041   7.067
 4371POPC   C4B56182  24.626  13.090   7.521
 4372POPC   NC356183  19.978  22.461   5.334
 4372POPC   PO456184  19.753  21.745   5.376
 4372POPC   GL156185  19.906  21.882   5.782
 4372POPC   GL256186  19.951  22.241   5.798
 4372POPC   C1A56187  19.691  22.038   6.179
 4372POPC   D2A56188  19.830  22.358   6.446
 4372POPC   C3A56189  19.872  22.196   6.846
 4372POPC   C4A56190  19.581  22.265   7.214
 4372POPC   C1B56191  20.226  22.423   6.100
 4372POPC   C2B56192  20.349  22.397   6.540
 4372POPC   C3B56193  20.379  22.327   6.990
 4372POPC   C4B56194  20.096  22.174   7.283
 4373POPC   NC356195  16.076  15.447   5.444
 4373POPC   PO456196  15.621  15.002   5.241
 4373POPC   GL156197  15.693  15.108   5.695
 4373POPC   GL256198  16.027  15.044   5.772
 4373POPC   C1A56199  15.708  15.036   6.168
 4373POPC   D2A56200  15.490  15.025   6.561
 4373POPC   C3A56201  15.717  15.190   6.879
 4373POPC   C4A56202  15.820  15.207   7.292
 4373POPC   C1B56203  16.326  15.073   6.088
 4373POPC   C2B56204  16.382  15.255   6.482
 4373POPC   C3B56205  16.272  15.182   6.924
 4373POPC   C4B56206  16.292  15.342   7.357
 4374POPC   NC356207  38.758  11.690   5.530
 4374POPC   PO456208  38.598  11.015   5.503
 4374POPC   GL156209  38.513  11.388   5.876
 4374POPC   GL256210  38.166  11.503   5.983
 4374POPC   C1A56211  38.486  11.485   6.387
 4374POPC   D2A56212  38.196  11.312   6.739
 4374POPC   C3A56213  38.304  11.377   7.195
 4374POPC   C4A56214  38.564  11.352   7.615
 4374POPC   C1B56215  38.274  11.062   6.193
 4374POPC   C2B56216  38.198  10.799   6.585
 4374POPC   C3B56217  38.156  10.901   7.057
 4374POPC   C4B56218  38.167  10.999   7.539
 4375POPC   NC356219   6.295  40.196   5.499
 4375POPC   PO456220   5.682  40.011   5.564
 4375POPC   GL156221   5.764  40.003   5.946
 4375POPC   GL256222   6.053  40.074   5.908
 4375POPC   C1A56223   5.889  39.863   6.367
 4375POPC   D2A56224   6.030  39.644   6.735
 4375POPC   C3A56225   5.884  39.873   7.079
 4375POPC   C4A56226   5.909  40.049   7.468
 4375POPC   C1B56227   6.215  40.306   6.167
 4375POPC   C2B56228   6.152  40.515   6.520
 4375POPC   C3B56229   5.996  40.326   6.843
 4375POPC   C4B56230   6.221  40.361   7.178
 4376POPC   NC356231  23.607  14.831   5.539
 4376POPC   PO456232  24.048  15.355   5.548
 4376POPC   GL156233  23.815  15.165   5.884
 4376POPC   GL256234  23.966  14.817   5.955
 4376POPC   C1A56235  23.622  15.355   6.266
 4376POPC   D2A56236  23.421  15.435   6.688
 4376POPC   C3A56237  23.630  15.340   7.078
 4376POPC   C4A56238  23.555  15.203   7.488
 4376POPC   C1B56239  23.684  14.848   6.304
 4376POPC   C2B56240  23.630  14.928   6.758
 4376POPC   C3B56241  23.892  14.889   7.136
 4376POPC   C4B56242  23.897  14.810   7.591
 4377POPC   NC356243  21.477   3.759   5.254
 4377POPC   PO456244  20.985   3.331   5.382
 4377POPC   GL156245  21.336   3.317   5.694
 4377POPC   GL256246  21.479   3.644   5.760
 4377POPC   C1A56247  21.511   3.284   6.134
 4377POPC   D2A56248  21.303   3.355   6.532
 4377POPC   C3A56249  21.511   3.323   6.927
 4377POPC   C4A56250  21.326   3.352   7.315
 4377POPC   C1B56251  21.397   3.792   6.198
 4377POPC   C2B56252  21.262   3.866   6.637
 4377POPC   C3B56253  21.442   3.836   7.073
 4377POPC   C4B56254  21.692   3.678   7.439
 4378POPC   NC356255   7.592   5.480   5.509
 4378POPC   PO456256   7.044   5.874   5.498
 4378POPC   GL156257   7.300   5.782   5.843
 4378POPC   GL256258   7.601   5.993   5.835
 4378POPC   C1A56259   7.421   5.499   6.165
 4378POPC   D2A56260   7.259   5.360   6.550
 4378POPC   C3A56261   7.438   5.522   6.953
 4378POPC   C4A56262   7.394   5.740   7.341
 4378POPC   C1B56263   7.488   6.026   6.286
 4378POPC   C2B56264   7.568   6.015   6.726
 4378POPC   C3B56265   7.327   6.246   7.010
 4378POPC   C4B56266   7.437   6.244   7.403
 4379POPC   NC356267  31.292   9.337   5.339
 4379POPC   PO456268  31.880   8.954   5.339
 4379POPC   GL156269  31.545   8.912   5.661
 4379POPC   GL256270  31.511   9.234   5.790
 4379POPC   C1A56271  31.309   8.824   6.067
 4379POPC   D2A56272  31.260   8.674   6.502
 4379POPC   C3A56273  31.512   8.803   6.838
 4379POPC   C4A56274  31.594   8.694   7.243
 4379POPC   C1B56275  31.401   9.320   6.199
 4379POPC   C2B56276  31.519   9.428   6.583
 4379POPC   C3B56277  31.350   9.532   6.963
 4379POPC   C4B56278  31.410   9.165   7.203
 4380POPC   NC356279  43.918  24.950   5.503
 4380POPC   PO456280  43.905  25.579   5.429
 4380POPC   GL156281  43.902  25.400   5.824
 4380POPC   GL256282  44.233  25.361   5.888
 4380POPC   C1A56283  43.766  25.256   6.241
 4380POPC   D2A56284  43.579  25.339   6.661
 4380POPC   C3A56285  43.805  25.257   7.059
 4380POPC   C4A56286  43.631  24.914   7.294
 4380POPC   C1B56287  44.135  25.622   6.242
 4380POPC   C2B56288  44.075  25.487   6.640
 4380POPC   C3B56289  44.146  25.668   7.013
 4380POPC   C4B56290  44.207  25.490   7.390
 4381POPC   NC356291  27.187   1.692   5.373
 4381POPC   PO456292  27.885   1.877   5.372
 4381POPC   GL156293  27.668   1.858   5.747
 4381POPC   GL256294  27.569   2.198   5.798
 4381POPC   C1A56295  27.591   1.893   6.194
 4381POPC   D2A56296  27.695   2.136   6.550
 4381POPC   C3A56297  27.628   1.953   6.960
 4381POPC   C4A56298  27.695   1.747   7.358
 4381POPC   C1B56299  27.344   2.347   6.168
 4381POPC   C2B56300  27.212   2.299   6.592
 4381POPC   C3B56301  27.347   2.368   7.029
 4381POPC   C4B56302  27.284   2.050   7.373
 4382POPC   NC356303  35.930  18.172   5.376
 4382POPC   PO456304  36.400  18.590   5.353
 4382POPC   GL156305  36.342  18.352   5.777
 4382POPC   GL256306  36.070  18.111   5.850
 4382POPC   C1A56307  36.137  18.472   6.198
 4382POPC   D2A56308  35.987  18.246   6.582
 4382POPC   C3A56309  36.111  18.383   6.986
 4382POPC   C4A56310  35.974  18.285   7.378
 4382POPC   C1B56311  36.246  17.949   6.231
 4382POPC   C2B56312  36.240  17.799   6.665
 4382POPC   C3B56313  36.243  17.905   7.107
 4382POPC   C4B56314  36.248  17.900   7.573
 4383POPC   NC356315  14.114  14.600   5.129
 4383POPC   PO456316  13.569  14.332   5.425
 4383POPC   GL156317  13.622  14.329   5.871
 4383POPC   GL256318  13.742  14.011   5.900
 4383POPC   C1A56319  13.819  14.567   6.242
 4383POPC   D2A56320  13.876  14.463   6.653
 4383POPC   C3A56321  13.648  14.578   7.003
 4383POPC   C4A56322  13.936  14.834   7.166
 4383POPC   C1B56323  13.564  14.140   6.326
 4383POPC   C2B56324  13.510  14.148   6.739
 4383POPC   C3B56325  13.677  14.086   7.120
 4383POPC   C4B56326  13.898  13.845   7.388
 4384POPC   NC356327  26.666  34.560   5.431
 4384POPC   PO456328  27.367  34.510   5.407
 4384POPC   GL156329  27.234  34.612   5.812
 4384POPC   GL256330  26.881  34.709   5.857
 4384POPC   C1A56331  27.116  34.438   6.216
 4384POPC   D2A56332  26.968  34.572   6.604
 4384POPC   C3A56333  26.998  34.335   6.950
 4384POPC   C4A56334  27.084  34.410   7.358
 4384POPC   C1B56335  26.754  34.857   6.243
 4384POPC   C2B56336  26.726  35.016   6.679
 4384POPC   C3B56337  26.872  34.807   7.065
 4384POPC   C4B56338  26.649  34.658   7.446
 4385POPC   NC356339  13.070   9.928   5.198
 4385POPC   PO456340  12.947   9.334   5.519
 4385POPC   GL156341  12.685   9.535   5.845
 4385POPC   GL256342  12.706   9.918   5.804
 4385POPC   C1A56343  12.610   9.673   6.265
 4385POPC   D2A56344  12.841   9.907   6.551
 4385POPC   C3A56345  12.797   9.914   6.981
 4385POPC   C4A56346  12.894   9.871   7.419
 4385POPC   C1B56347  12.563  10.173   6.179
 4385POPC   C2B56348  12.397  10.157   6.626
 4385POPC   C3B56349  12.540  10.351   7.025
 4385POPC   C4B56350  12.531  10.243   7.459
 4386POPC   NC356351   2.297  39.403   5.549
 4386POPC   PO456352   1.731  39.041   5.365
 4386POPC   GL156353   1.874  39.160   5.742
 4386POPC   GL256354   1.906  38.827   5.866
 4386POPC   C1A56355   1.831  39.289   6.163
 4386POPC   D2A56356   2.086  39.247   6.530
 4386POPC   C3A56357   1.845  39.083   6.844
 4386POPC   C4A56358   1.734  39.282   7.218
 4386POPC   C1B56359   1.908  38.775   6.321
 4386POPC   C2B56360   2.225  38.697   6.616
 4386POPC   C3B56361   2.324  38.876   6.991
 4386POPC   C4B56362   2.210  39.124   7.351
 4387POPC   NC356363   5.259  36.659   5.500
 4387POPC   PO456364   5.355  37.260   5.435
 4387POPC   GL156365   5.063  37.229   5.790
 4387POPC   GL256366   4.774  36.984   5.684
 4387POPC   C1A56367   5.217  37.170   6.231
 4387POPC   D2A56368   5.448  36.862   6.508
 4387POPC   C3A56369   5.249  36.803   6.933
 4387POPC   C4A56370   4.937  37.141   7.062
 4387POPC   C1B56371   4.813  36.827   6.119
 4387POPC   C2B56372   4.916  36.896   6.561
 4387POPC   C3B56373   4.746  36.693   6.935
 4387POPC   C4B56374   4.552  36.843   7.279
 4388POPC   NC356375   5.874  10.100   5.455
 4388POPC   PO456376   5.661  10.865   5.526
 4388POPC   GL156377   5.625  10.593   5.885
 4388POPC   GL256378   5.866  10.300   5.944
 4388POPC   C1A56379   5.771  10.766   6.260
 4388POPC   D2A56380   5.991  10.754   6.633
 4388POPC   C3A56381   5.703  10.816   6.945
 4388POPC   C4A56382   5.822  10.687   7.318
 4388POPC   C1B56383   5.612  10.274   6.349
 4388POPC   C2B56384   5.669  10.323   6.800
 4388POPC   C3B56385   6.074  10.394   7.007
 4388POPC   C4B56386   6.294  10.175   7.336
 4389POPC   NC356387   6.794  10.348   5.447
 4389POPC   PO456388   6.351  10.767   5.101
 4389POPC   GL156389   6.440  10.634   5.661
 4389POPC   GL256390   6.770  10.698   5.841
 4389POPC   C1A56391   6.368  10.731   6.150
 4389POPC   D2A56392   6.703  10.717   6.495
 4389POPC   C3A56393   6.560  10.670   6.913
 4389POPC   C4A56394   6.341  10.694   7.315
 4389POPC   C1B56395   6.707  10.326   6.156
 4389POPC   C2B56396   6.734  10.093   6.582
 4389POPC   C3B56397   6.947  10.180   6.993
 4389POPC   C4B56398   6.804  10.464   7.310
 4390POPC   NC356399  23.983   8.117   5.532
 4390POPC   PO456400  23.376   7.863   5.498
 4390POPC   GL156401  23.615   7.992   5.881
 4390POPC   GL256402  23.601   8.324   5.865
 4390POPC   C1A56403  23.938   8.175   6.218
 4390POPC   D2A56404  23.936   8.461   6.583
 4390POPC   C3A56405  23.743   8.305   6.975
 4390POPC   C4A56406  23.801   8.056   7.364
 4390POPC   C1B56407  23.463   8.383   6.288
 4390POPC   C2B56408  23.443   8.599   6.678
 4390POPC   C3B56409  23.331   8.593   7.117
 4390POPC   C4B56410  23.562   8.481   7.496
 4391POPC   NC356411   9.058  43.656   5.552
 4391POPC   PO456412   9.111  44.318   5.655
 4391POPC   GL156413   8.854  44.097   5.864
 4391POPC   GL256414   8.660  43.794   5.848
 4391POPC   C1A56415   8.943  43.909   6.262
 4391POPC   D2A56416   9.226  43.706   6.466
 4391POPC   C3A56417   9.083  43.605   6.849
 4391POPC   C4A56418   9.268  43.712   7.250
 4391POPC   C1B56419   8.490  44.107   6.192
 4391POPC   C2B56420   8.588  44.277   6.616
 4391POPC   C3B56421   8.687  44.128   7.022
 4391POPC   C4B56422   8.765  43.745   7.216
 4392POPC   NC356423  18.585  25.272   5.295
 4392POPC   PO456424  17.984  25.384   5.487
 4392POPC   GL156425  18.263  25.295   5.818
 4392POPC   GL256426  18.540  25.092   5.789
 4392POPC   C1A56427  18.283  25.331   6.245
 4392POPC   D2A56428  18.237  25.540   6.628
 4392POPC   C3A56429  18.294  25.279   6.980
 4392POPC   C4A56430  18.430  25.418   7.390
 4392POPC   C1B56431  18.516  24.823   6.148
 4392POPC   C2B56432  18.403  24.937   6.545
 4392POPC   C3B56433  18.511  24.802   6.935
 4392POPC   C4B56434  18.431  24.915   7.350
 4393POPC   NC356435  32.272  28.559   5.075
 4393POPC   PO456436  32.183  29.209   5.379
 4393POPC   GL156437  32.093  29.295   5.801
 4393POPC   GL256438  31.907  28.991   5.779
 4393POPC   C1A56439  32.215  29.429   6.245
 4393POPC   D2A56440  32.467  29.368   6.642
 4393POPC   C3A56441  32.203  29.249   7.002
 4393POPC   C4A56442  31.922  29.397   7.331
 4393POPC   C1B56443  32.161  28.924   6.143
 4393POPC   C2B56444  32.101  28.932   6.587
 4393POPC   C3B56445  32.108  28.740   7.000
 4393POPC   C4B56446  32.400  28.871   7.305
 4394POPC   NC356447  17.797   9.853   5.434
 4394POPC   PO456448  18.498   9.677   5.326
 4394POPC   GL156449  18.405   9.491   5.749
 4394POPC   GL256450  18.093   9.636   5.800
 4394POPC   C1A56451  18.483   9.477   6.211
 4394POPC   D2A56452  18.297   9.602   6.604
 4394POPC   C3A56453  18.431   9.779   6.988
 4394POPC   C4A56454  18.757   9.657   7.266
 4394POPC   C1B56455  18.036   9.803   6.219
 4394POPC   C2B56456  18.072  10.061   6.635
 4394POPC   C3B56457  17.949   9.996   7.067
 4394POPC   C4B56458  17.876   9.962   7.548
 4395POPC   NC356459   3.519   0.145   5.526
 4395POPC   PO456460   3.955   0.535   5.249
 4395POPC   GL156461   3.825   0.550   5.714
 4395POPC   GL256462   3.974   0.880   5.776
 4395POPC   C1A56463   3.647   0.384   6.158
 4395POPC   D2A56464   3.427   0.464   6.602
 4395POPC   C3A56465   3.516   0.301   7.037
 4395POPC   C4A56466   3.364   0.245   7.495
 4395POPC   C1B56467   4.001   0.751   6.220
 4395POPC   C2B56468   4.014   0.739   6.679
 4395POPC   C3B56469   3.703   0.771   7.009
 4395POPC   C4B56470   3.729   0.585   7.392
 4396POPC   NC356471  36.636  39.610   5.537
 4396POPC   PO456472  36.084  39.970   5.431
 4396POPC   GL156473  36.088  39.912   5.852
 4396POPC   GL256474  36.441  39.945   5.882
 4396POPC   C1A56475  35.879  39.806   6.226
 4396POPC   D2A56476  35.850  39.998   6.620
 4396POPC   C3A56477  35.805  39.781   7.005
 4396POPC   C4A56478  36.019  39.817   7.360
 4396POPC   C1B56479  36.302  40.112   6.278
 4396POPC   C2B56480  36.287  40.232   6.673
 4396POPC   C3B56481  36.359  40.045   7.052
 4396POPC   C4B56482  36.350  40.337   7.380
 4397POPC   NC356483  23.786  44.369   5.539
 4397POPC   PO456484  23.590  43.627   5.378
 4397POPC   GL156485  23.672  43.703   5.820
 4397POPC   GL256486  23.873  43.989   5.861
 4397POPC   C1A56487  23.508  43.877   6.217
 4397POPC   D2A56488  23.402  44.044   6.620
 4397POPC   C3A56489  23.531  43.830   6.980
 4397POPC   C4A56490  23.705  43.854   7.392
 4397POPC   C1B56491  23.883  44.279   6.228
 4397POPC   C2B56492  23.988  44.441   6.650
 4397POPC   C3B56493  23.847  44.299   7.069
 4397POPC   C4B56494  23.454  44.271   7.244
 4398POPC   NC356495   3.073  23.252   5.612
 4398POPC   PO456496   2.582  23.605   5.289
 4398POPC   GL156497   2.667  23.813   5.690
 4398POPC   GL256498   2.403  23.603   5.813
 4398POPC   C1A56499   2.828  23.914   6.141
 4398POPC   D2A56500   3.130  23.920   6.522
 4398POPC   C3A56501   2.885  23.851   6.913
 4398POPC   C4A56502   2.832  23.785   7.371
 4398POPC   C1B56503   2.624  23.407   6.168
 4398POPC   C2B56504   2.599  23.284   6.616
 4398POPC   C3B56505   2.700  23.392   7.045
 4398POPC   C4B56506   2.498  23.420   7.451
 4399POPC   NC356507  35.267  38.798   5.561
 4399POPC   PO456508  35.360  38.119   5.613
 4399POPC   GL156509  35.325  38.451   5.973
 4399POPC   GL256510  35.076  38.729   6.032
 4399POPC   C1A56511  35.371  38.482   6.450
 4399POPC   D2A56512  35.593  38.360   6.846
 4399POPC   C3A56513  35.425  38.338   7.275
 4399POPC   C4A56514  35.616  38.405   7.687
 4399POPC   C1B56515  35.456  38.921   6.198
 4399POPC   C2B56516  35.658  38.991   6.595
 4399POPC   C3B56517  35.560  38.870   7.013
 4399POPC   C4B56518  35.235  38.812   7.289
 4400POPC   NC356519  21.943   4.068   5.466
 4400POPC   PO456520  22.290   4.678   5.434
 4400POPC   GL156521  22.114   4.432   5.781
 4400POPC   GL256522  21.756   4.514   5.780
 4400POPC   C1A56523  22.247   4.218   6.194
 4400POPC   D2A56524  22.473   4.272   6.621
 4400POPC   C3A56525  22.232   4.174   7.022
 4400POPC   C4A56526  22.364   4.069   7.518
 4400POPC   C1B56527  21.936   4.674   6.172
 4400POPC   C2B56528  22.035   4.546   6.573
 4400POPC   C3B56529  21.860   4.644   6.952
 4400POPC   C4B56530  21.956   4.614   7.349
 4401POPC   NC356531  24.792  37.503   5.284
 4401POPC   PO456532  24.391  38.038   5.182
 4401POPC   GL156533  24.500  37.929   5.643
 4401POPC   GL256534  24.419  37.572   5.676
 4401POPC   C1A56535  24.375  37.909   6.112
 4401POPC   D2A56536  24.383  37.651   6.522
 4401POPC   C3A56537  24.351  37.910   6.900
 4401POPC   C4A56538  24.457  38.069   7.335
 4401POPC   C1B56539  24.571  37.419   6.085
 4401POPC   C2B56540  24.869  37.369   6.478
 4401POPC   C3B56541  24.760  37.470   6.889
 4401POPC   C4B56542  24.472  37.543   7.211
 4402POPC   NC356543  15.533   7.719   5.623
 4402POPC   PO456544  16.049   7.467   5.439
 4402POPC   GL156545  15.961   7.211   5.784
 4402POPC   GL256546  15.878   7.514   5.942
 4402POPC   C1A56547  16.136   7.155   6.218
 4402POPC   D2A56548  16.015   6.959   6.610
 4402POPC   C3A56549  16.103   7.129   7.038
 4402POPC   C4A56550  15.942   7.178   7.463
 4402POPC   C1B56551  16.207   7.730   6.159
 4402POPC   C2B56552  16.105   7.824   6.578
 4402POPC   C3B56553  15.932   7.595   6.898
 4402POPC   C4B56554  16.046   7.636   7.302
 4403POPC   NC356555  42.797  16.356   5.491
 4403POPC   PO456556  42.336  16.781   5.262
 4403POPC   GL156557  42.466  16.841   5.704
 4403POPC   GL256558  42.496  16.556   5.816
 4403POPC   C1A56559  42.374  16.870   6.171
 4403POPC   D2A56560  42.535  16.921   6.557
 4403POPC   C3A56561  42.362  16.740   6.934
 4403POPC   C4A56562  42.469  16.826   7.331
 4403POPC   C1B56563  42.624  16.405   6.176
 4403POPC   C2B56564  42.523  16.411   6.577
 4403POPC   C3B56565  42.680  16.331   6.974
 4403POPC   C4B56566  42.544  16.107   7.337
 4404POPC   NC356567   9.647  39.885   5.341
 4404POPC   PO456568  10.267  39.985   5.629
 4404POPC   GL156569   9.892  39.851   5.825
 4404POPC   GL256570   9.609  40.131   5.791
 4404POPC   C1A56571   9.819  39.705   6.259
 4404POPC   D2A56572   9.575  39.674   6.628
 4404POPC   C3A56573   9.730  39.885   6.969
 4404POPC   C4A56574   9.918  39.946   7.313
 4404POPC   C1B56575   9.831  40.231   6.152
 4404POPC   C2B56576   9.718  40.152   6.533
 4404POPC   C3B56577   9.549  40.348   6.891
 4404POPC   C4B56578   9.760  40.413   7.258
 4405POPC   NC356579   0.849  28.239   5.483
 4405POPC   PO456580   1.542  28.415   5.589
 4405POPC   GL156581   1.252  28.196   5.827
 4405POPC   GL256582   1.045  28.476   5.884
 4405POPC   C1A56583   1.168  28.128   6.253
 4405POPC   D2A56584   1.317  28.308   6.638
 4405POPC   C3A56585   1.164  28.053   6.946
 4405POPC   C4A56586   1.197  28.116   7.342
 4405POPC   C1B56587   1.066  28.633   6.284
 4405POPC   C2B56588   0.851  28.582   6.666
 4405POPC   C3B56589   0.945  28.548   7.088
 4405POPC   C4B56590   0.720  28.272   7.299
 4406POPC   NC356591  39.548  15.986   5.519
 4406POPC   PO456592  38.929  15.935   5.253
 4406POPC   GL156593  39.052  15.912   5.713
 4406POPC   GL256594  39.259  15.645   5.807
 4406POPC   C1A56595  38.985  15.950   6.202
 4406POPC   D2A56596  38.866  16.161   6.650
 4406POPC   C3A56597  39.075  16.012   7.041
 4406POPC   C4A56598  39.431  16.176   7.284
 4406POPC   C1B56599  39.474  15.748   6.206
 4406POPC   C2B56600  39.344  15.814   6.626
 4406POPC   C3B56601  39.539  15.730   7.022
 4406POPC   C4B56602  39.291  15.678   7.383
 4407POPC   NC356603   8.610   8.135   5.331
 4407POPC   PO456604   7.968   8.282   5.384
 4407POPC   GL156605   8.104   8.223   5.828
 4407POPC   GL256606   8.483   8.206   5.832
 4407POPC   C1A56607   7.940   8.158   6.270
 4407POPC   D2A56608   7.934   7.936   6.680
 4407POPC   C3A56609   7.890   8.104   7.116
 4407POPC   C4A56610   8.155   8.283   7.459
 4407POPC   C1B56611   8.646   8.181   6.256
 4407POPC   C2B56612   8.372   8.164   6.582
 4407POPC   C3B56613   8.386   8.242   7.002
 4407POPC   C4B56614   8.632   8.077   7.372
 4408POPC   NC356615   0.910  24.983   5.566
 4408POPC   PO456616   1.203  24.491   5.159
 4408POPC   GL156617   1.364  24.490   5.605
 4408POPC   GL256618   1.109  24.263   5.726
 4408POPC   C1A56619   1.354  24.656   6.063
 4408POPC   D2A56620   1.333  24.479   6.501
 4408POPC   C3A56621   1.146  24.602   6.911
 4408POPC   C4A56622   1.189  24.501   7.379
 4408POPC   C1B56623   0.986  24.300   6.156
 4408POPC   C2B56624   0.820  24.337   6.597
 4408POPC   C3B56625   0.964  24.135   6.996
 4408POPC   C4B56626   0.924  24.071   7.437
 4409POPC   NC356627  36.316  43.123   5.534
 4409POPC   PO456628  35.684  43.330   5.406
 4409POPC   GL156629  35.911  43.375   5.798
 4409POPC   GL256630  35.890  43.006   5.877
 4409POPC   C1A56631  36.074  43.466   6.245
 4409POPC   D2A56632  35.973  43.309   6.682
 4409POPC   C3A56633  36.212  43.203   7.067
 4409POPC   C4A56634  36.020  43.354   7.464
 4409POPC   C1B56635  36.221  42.922   6.214
 4409POPC   C2B56636  36.143  42.768   6.637
 4409POPC   C3B56637  35.747  42.852   6.795
 4409POPC   C4B56638  35.705  43.096   7.144
 4410POPC   NC356639  16.413  43.063   5.546
 4410POPC   PO456640  16.827  42.680   5.162
 4410POPC   GL156641  16.899  42.894   5.624
 4410POPC   GL256642  16.818  43.259   5.785
 4410POPC   C1A56643  16.833  42.834   6.128
 4410POPC   D2A56644  16.826  42.637   6.594
 4410POPC   C3A56645  16.582  42.802   6.943
 4410POPC   C4A56646  16.840  43.122   7.144
 4410POPC   C1B56647  16.599  43.358   6.211
 4410POPC   C2B56648  16.612  43.261   6.683
 4410POPC   C3B56649  16.348  43.241   7.078
 4410POPC   C4B56650  16.484  43.191   7.520
 4411POPC   NC356651  37.205  11.121   5.430
 4411POPC   PO456652  36.537  11.448   5.439
 4411POPC   GL156653  36.778  11.274   5.833
 4411POPC   GL256654  37.128  11.409   5.850
 4411POPC   C1A56655  36.900  11.302   6.314
 4411POPC   D2A56656  37.118  11.455   6.698
 4411POPC   C3A56657  36.844  11.336   7.006
 4411POPC   C4A56658  36.494  11.234   7.236
 4411POPC   C1B56659  37.280  11.047   6.095
 4411POPC   C2B56660  37.284  10.974   6.520
 4411POPC   C3B56661  37.208  10.968   6.961
 4411POPC   C4B56662  37.235  11.036   7.412
 4412POPC   NC356663  35.394  22.657   5.478
 4412POPC   PO456664  34.967  23.155   5.320
 4412POPC   GL156665  35.060  22.971   5.777
 4412POPC   GL256666  35.408  22.989   5.869
 4412POPC   C1A56667  35.121  22.765   6.235
 4412POPC   D2A56668  35.031  22.635   6.682
 4412POPC   C3A56669  35.169  22.910   7.001
 4412POPC   C4A56670  35.459  22.792   7.304
 4412POPC   C1B56671  35.624  22.807   6.199
 4412POPC   C2B56672  35.507  22.842   6.601
 4412POPC   C3B56673  35.661  23.060   6.930
 4412POPC   C4B56674  35.983  22.873   7.160
 4413POPC   NC356675  34.265  33.247   5.465
 4413POPC   PO456676  34.620  32.624   5.322
 4413POPC   GL156677  34.495  32.838   5.717
 4413POPC   GL256678  34.751  32.666   5.822
 4413POPC   C1A56679  34.654  33.062   6.129
 4413POPC   D2A56680  34.861  33.161   6.552
 4413POPC   C3A56681  34.634  33.077   6.960
 4413POPC   C4A56682  34.724  33.044   7.414
 4413POPC   C1B56683  34.538  32.573   6.192
 4413POPC   C2B56684  34.635  32.681   6.613
 4413POPC   C3B56685  34.543  32.556   7.057
 4413POPC   C4B56686  34.703  32.417   7.480
 4414POPC   NC356687  27.020  35.495   5.434
 4414POPC   PO456688  26.545  35.048   5.491
 4414POPC   GL156689  26.837  35.212   5.823
 4414POPC   GL256690  27.184  35.102   5.710
 4414POPC   C1A56691  26.780  35.358   6.251
 4414POPC   D2A56692  26.624  35.547   6.640
 4414POPC   C3A56693  26.812  35.420   7.024
 4414POPC   C4A56694  26.784  35.163   7.399
 4414POPC   C1B56695  27.247  35.090   6.158
 4414POPC   C2B56696  27.170  35.260   6.573
 4414POPC   C3B56697  27.258  35.150   6.999
 4414POPC   C4B56698  27.228  35.392   7.366
 4415POPC   NC356699  42.104   4.964   5.459
 4415POPC   PO456700  42.591   5.379   5.496
 4415POPC   GL156701  42.344   5.173   5.855
 4415POPC   GL256702  42.001   5.327   5.803
 4415POPC   C1A56703  42.175   4.904   6.191
 4415POPC   D2A56704  42.055   4.789   6.642
 4415POPC   C3A56705  42.390   4.820   6.930
 4415POPC   C4A56706  42.398   5.083   7.274
 4415POPC   C1B56707  42.018   5.490   6.204
 4415POPC   C2B56708  42.098   5.315   6.617
 4415POPC   C3B56709  42.032   5.467   7.035
 4415POPC   C4B56710  42.083   5.426   7.497
 4416POPC   NC356711  36.465  13.475   5.484
 4416POPC   PO456712  37.065  13.916   5.296
 4416POPC   GL156713  36.900  13.688   5.709
 4416POPC   GL256714  36.750  13.940   5.905
 4416POPC   C1A56715  36.907  13.520   6.182
 4416POPC   D2A56716  36.909  13.172   6.500
 4416POPC   C3A56717  36.739  13.267   6.924
 4416POPC   C4A56718  36.961  13.304   7.342
 4416POPC   C1B56719  37.048  13.998   6.264
 4416POPC   C2B56720  36.914  13.898   6.714
 4416POPC   C3B56721  36.766  13.763   7.142
 4416POPC   C4B56722  36.674  13.671   7.588
 4417POPC   NC356723  16.699   3.725   5.376
 4417POPC   PO456724  16.888   3.090   5.416
 4417POPC   GL156725  16.684   3.320   5.779
 4417POPC   GL256726  16.600   3.671   5.859
 4417POPC   C1A56727  16.626   3.278   6.229
 4417POPC   D2A56728  16.676   3.014   6.598
 4417POPC   C3A56729  16.609   3.230   6.968
 4417POPC   C4A56730  16.926   3.397   7.185
 4417POPC   C1B56731  16.619   3.807   6.276
 4417POPC   C2B56732  16.715   3.640   6.674
 4417POPC   C3B56733  16.798   3.867   7.042
 4417POPC   C4B56734  16.779   4.124   7.374
 4418POPC   NC356735  40.838  33.311   5.627
 4418POPC   PO456736  40.828  32.820   5.228
 4418POPC   GL156737  40.771  32.797   5.727
 4418POPC   GL256738  40.520  32.522   5.782
 4418POPC   C1A56739  40.705  33.049   6.183
 4418POPC   D2A56740  40.459  33.262   6.500
 4418POPC   C3A56741  40.450  33.186   6.942
 4418POPC   C4A56742  40.736  33.373   7.209
 4418POPC   C1B56743  40.699  32.557   6.219
 4418POPC   C2B56744  40.566  32.758   6.651
 4418POPC   C3B56745  40.627  32.645   7.116
 4418POPC   C4B56746  40.820  32.710   7.550
 4419POPC   NC356747  30.317  18.040   5.544
 4419POPC   PO456748  29.667  17.973   5.516
 4419POPC   GL156749  29.904  18.114   5.878
 4419POPC   GL256750  30.062  18.439   5.803
 4419POPC   C1A56751  30.211  18.181   6.238
 4419POPC   D2A56752  30.410  18.161   6.672
 4419POPC   C3A56753  30.135  18.109   7.049
 4419POPC   C4A56754  30.167  18.179   7.496
 4419POPC   C1B56755  29.758  18.570   6.104
 4419POPC   C2B56756  29.865  18.595   6.537
 4419POPC   C3B56757  29.746  18.413   6.936
 4419POPC   C4B56758  29.700  18.395   7.409
 4420POPC   NC356759   9.336  23.889   5.411
 4420POPC   PO456760   8.880  23.439   5.520
 4420POPC   GL156761   8.971  23.722   5.876
 4420POPC   GL256762   9.271  23.934   5.925
 4420POPC   C1A56763   8.721  23.704   6.246
 4420POPC   D2A56764   8.749  23.414   6.601
 4420POPC   C3A56765   8.682  23.602   6.993
 4420POPC   C4A56766   9.010  23.546   7.270
 4420POPC   C1B56767   9.214  23.753   6.355
 4420POPC   C2B56768   9.176  23.708   6.814
 4420POPC   C3B56769   9.284  23.989   7.198
 4420POPC   C4B56770   9.120  24.225   7.569
 4421POPC   NC356771   1.524  44.005   5.495
 4421POPC   PO456772   0.998  43.774   5.230
 4421POPC   GL156773   1.088  43.831   5.716
 4421POPC   GL256774   1.323  43.604   5.834
 4421POPC   C1A56775   1.027  43.980   6.160
 4421POPC   D2A56776   0.998  43.754   6.583
 4421POPC   C3A56777   0.924  44.054   6.931
 4421POPC   C4A56778   0.876  43.948   7.355
 4421POPC   C1B56779   1.431  43.701   6.282
 4421POPC   C2B56780   1.458  43.894   6.703
 4421POPC   C3B56781   1.286  43.723   7.111
 4421POPC   C4B56782   1.344  43.853   7.529
 4422POPC   NC356783   1.262   9.531   5.367
 4422POPC   PO456784   0.745   9.930   5.206
 4422POPC   GL156785   1.006   9.907   5.621
 4422POPC   GL256786   1.262  10.187   5.649
 4422POPC   C1A56787   1.005   9.819   6.095
 4422POPC   D2A56788   1.241   9.642   6.458
 4422POPC   C3A56789   1.139   9.642   6.913
 4422POPC   C4A56790   1.201   9.374   7.204
 4422POPC   C1B56791   1.491   9.966   6.002
 4422POPC   C2B56792   1.629   9.989   6.462
 4422POPC   C3B56793   1.443  10.037   6.870
 4422POPC   C4B56794   1.493   9.834   7.247
 4423POPC   NC356795  15.188  29.638   5.607
 4423POPC   PO456796  15.185  29.001   5.592
 4423POPC   GL156797  15.266  29.224   5.929
 4423POPC   GL256798  15.587  29.408   5.872
 4423POPC   C1A56799  15.025  29.365   6.283
 4423POPC   D2A56800  14.874  29.585   6.649
 4423POPC   C3A56801  14.983  29.325   6.993
 4423POPC   C4A56802  15.342  29.285   7.210
 4423POPC   C1B56803  15.539  29.334   6.330
 4423POPC   C2B56804  15.383  29.132   6.691
 4423POPC   C3B56805  15.613  28.915   7.016
 4423POPC   C4B56806  15.482  28.870   7.450
 4424POPC   NC356807   8.141  14.175   5.150
 4424POPC   PO456808   8.221  13.542   5.387
 4424POPC   GL156809   8.293  13.470   5.801
 4424POPC   GL256810   8.116  13.760   5.836
 4424POPC   C1A56811   8.259  13.549   6.263
 4424POPC   D2A56812   8.346  13.825   6.594
 4424POPC   C3A56813   8.243  13.549   6.901
 4424POPC   C4A56814   8.101  13.539   7.258
 4424POPC   C1B56815   7.993  13.980   6.177
 4424POPC   C2B56816   7.833  14.044   6.543
 4424POPC   C3B56817   7.869  13.890   6.896
 4424POPC   C4B56818   7.791  13.950   7.266
 4425POPC   NC356819  20.147   4.520   5.584
 4425POPC   PO456820  19.629   4.154   5.281
 4425POPC   GL156821  19.817   3.929   5.760
 4425POPC   GL256822  20.104   4.087   5.864
 4425POPC   C1A56823  19.816   3.940   6.254
 4425POPC   D2A56824  19.718   4.300   6.557
 4425POPC   C3A56825  19.681   4.225   6.997
 4425POPC   C4A56826  19.491   4.382   7.361
 4425POPC   C1B56827  20.150   4.350   6.261
 4425POPC   C2B56828  20.285   4.241   6.693
 4425POPC   C3B56829  20.190   4.211   7.127
 4425POPC   C4B56830  19.984   4.475   7.339
 4426POPC   NC356831   9.858  41.855   5.528
 4426POPC   PO456832   9.505  41.327   5.411
 4426POPC   GL156833   9.754  41.415   5.795
 4426POPC   GL256834  10.003  41.183   5.913
 4426POPC   C1A56835   9.855  41.600   6.201
 4426POPC   D2A56836   9.601  41.627   6.585
 4426POPC   C3A56837   9.786  41.752   6.984
 4426POPC   C4A56838   9.523  42.002   7.242
 4426POPC   C1B56839   9.718  41.111   6.270
 4426POPC   C2B56840   9.757  41.158   6.712
 4426POPC   C3B56841   9.662  41.271   7.140
 4426POPC   C4B56842   9.698  41.215   7.592
 4427POPC   NC356843   9.682   6.937   5.447
 4427POPC   PO456844   9.832   6.260   5.581
 4427POPC   GL156845   9.766   6.616   5.856
 4427POPC   GL256846   9.978   6.952   5.846
 4427POPC   C1A56847   9.531   6.585   6.244
 4427POPC   D2A56848   9.707   6.514   6.622
 4427POPC   C3A56849   9.545   6.621   6.993
 4427POPC   C4A56850   9.694   6.335   7.305
 4427POPC   C1B56851  10.048   6.726   6.257
 4427POPC   C2B56852  10.005   6.910   6.678
 4427POPC   C3B56853  10.034   6.717   7.074
 4427POPC   C4B56854   9.783   6.828   7.407
 4428POPC   NC356855  26.273  20.855   5.482
 4428POPC   PO456856  25.879  20.279   5.547
 4428POPC   GL156857  25.917  20.669   5.798
 4428POPC   GL256858  25.581  20.776   5.828
 4428POPC   C1A56859  26.162  20.827   6.159
 4428POPC   D2A56860  26.218  20.649   6.590
 4428POPC   C3A56861  26.213  20.876   6.976
 4428POPC   C4A56862  26.195  20.717   7.367
 4428POPC   C1B56863  25.677  20.637   6.254
 4428POPC   C2B56864  25.732  20.815   6.660
 4428POPC   C3B56865  25.717  20.722   7.086
 4428POPC   C4B56866  25.762  20.424   7.392
 4429POPC   NC356867  42.599  40.491   5.314
 4429POPC   PO456868  42.456  39.825   5.319
 4429POPC   GL156869  42.353  40.005   5.750
 4429POPC   GL256870  42.041  40.189   5.787
 4429POPC   C1A56871  42.508  39.921   6.198
 4429POPC   D2A56872  42.339  39.954   6.651
 4429POPC   C3A56873  42.496  39.922   7.099
 4429POPC   C4A56874  42.303  40.125   7.478
 4429POPC   C1B56875  42.005  40.089   6.254
 4429POPC   C2B56876  41.877  40.189   6.698
 4429POPC   C3B56877  41.962  39.960   7.113
 4429POPC   C4B56878  41.813  39.989   7.601
 4430POPC   NC356879  20.765  44.022   5.238
 4430POPC   PO456880  20.183  43.708   5.214
 4430POPC   GL156881  20.425  43.799   5.642
 4430POPC   GL256882  20.799  43.775   5.709
 4430POPC   C1A56883  20.482  43.802   6.116
 4430POPC   D2A56884  20.717  43.969   6.487
 4430POPC   C3A56885  20.541  43.927   6.891
 4430POPC   C4A56886  20.658  44.129   7.254
 4430POPC   C1B56887  20.954  43.628   6.134
 4430POPC   C2B56888  20.693  43.463   6.479
 4430POPC   C3B56889  20.689  43.414   6.925
 4430POPC   C4B56890  20.545  43.605   7.325
 4431POPC   NC356891  35.045  18.574   5.616
 4431POPC   PO456892  35.484  18.199   5.211
 4431POPC   GL156893  35.543  18.287   5.705
 4431POPC   GL256894  35.473  18.618   5.897
 4431POPC   C1A56895  35.678  18.238   6.158
 4431POPC   D2A56896  35.631  18.606   6.427
 4431POPC   C3A56897  35.627  18.549   6.876
 4431POPC   C4A56898  35.474  18.257   7.184
 4431POPC   C1B56899  35.191  18.369   6.224
 4431POPC   C2B56900  35.124  18.308   6.663
 4431POPC   C3B56901  35.113  18.606   6.951
 4431POPC   C4B56902  35.216  18.644   7.398
 4432POPC   NC356903  31.353   0.062   5.604
 4432POPC   PO456904  31.652   0.605   5.299
 4432POPC   GL156905  31.586   0.493   5.768
 4432POPC   GL256906  31.202   0.536   5.779
 4432POPC   C1A56907  31.702   0.609   6.238
 4432POPC   D2A56908  31.871   0.833   6.629
 4432POPC   C3A56909  31.802   0.627   7.062
 4432POPC   C4A56910  31.557   0.241   7.253
 4432POPC   C1B56911  31.256   0.342   6.207
 4432POPC   C2B56912  31.414   0.364   6.647
 4432POPC   C3B56913  31.293   0.580   7.024
 4432POPC   C4B56914  31.120   0.720   7.420
 4433POPC   NC356915  21.167  29.640   5.531
 4433POPC   PO456916  21.464  30.202   5.327
 4433POPC   GL156917  21.434  30.189   5.790
 4433POPC   GL256918  21.458  29.838   5.906
 4433POPC   C1A56919  21.547  30.254   6.243
 4433POPC   D2A56920  21.449  29.935   6.564
 4433POPC   C3A56921  21.552  29.868   7.001
 4433POPC   C4A56922  21.532  30.051   7.409
 4433POPC   C1B56923  21.258  29.581   6.227
 4433POPC   C2B56924  21.247  29.387   6.617
 4433POPC   C3B56925  21.129  29.545   7.004
 4433POPC   C4B56926  21.340  29.563   7.440
 4434POPC   NC356927  43.044  28.628   5.292
 4434POPC   PO456928  42.568  28.169   5.299
 4434POPC   GL156929  42.722  28.426   5.682
 4434POPC   GL256930  43.056  28.344   5.741
 4434POPC   C1A56931  42.800  28.606   6.113
 4434POPC   D2A56932  42.941  28.395   6.504
 4434POPC   C3A56933  43.170  28.577   6.853
 4434POPC   C4A56934  43.104  28.341   7.223
 4434POPC   C1B56935  43.277  28.261   6.134
 4434POPC   C2B56936  43.491  28.350   6.519
 4434POPC   C3B56937  43.535  28.168   6.883
 4434POPC   C4B56938  43.484  28.013   7.259
 4435POPC   NC356939  19.985  13.389   5.516
 4435POPC   PO456940  19.466  13.865   5.458
 4435POPC   GL156941  19.801  13.779   5.786
 4435POPC   GL256942  19.568  13.593   5.965
 4435POPC   C1A56943  20.007  13.504   6.163
 4435POPC   D2A56944  20.032  13.413   6.596
 4435POPC   C3A56945  20.106  13.760   6.843
 4435POPC   C4A56946  20.022  13.730   7.259
 4435POPC   C1B56947  19.589  13.281   6.323
 4435POPC   C2B56948  19.484  13.404   6.682
 4435POPC   C3B56949  19.679  13.464   7.000
 4435POPC   C4B56950  19.477  13.637   7.351
 4436POPC   NC356951  36.585  31.303   5.375
 4436POPC   PO456952  37.151  31.651   5.477
 4436POPC   GL156953  37.061  31.439   5.832
 4436POPC   GL256954  36.710  31.528   5.822
 4436POPC   C1A56955  37.122  31.432   6.296
 4436POPC   D2A56956  37.059  31.299   6.759
 4436POPC   C3A56957  36.887  31.555   7.117
 4436POPC   C4A56958  36.833  31.565   7.578
 4436POPC   C1B56959  36.541  31.236   6.136
 4436POPC   C2B56960  36.473  31.021   6.540
 4436POPC   C3B56961  36.596  31.138   6.960
 4436POPC   C4B56962  36.536  31.201   7.384
 4437POPC   NC356963  23.002  28.604   5.418
 4437POPC   PO456964  22.703  28.062   5.461
 4437POPC   GL156965  22.888  28.118   5.817
 4437POPC   GL256966  23.010  28.427   5.883
 4437POPC   C1A56967  22.946  28.019   6.241
 4437POPC   D2A56968  22.824  28.231   6.595
 4437POPC   C3A56969  22.761  28.000   6.957
 4437POPC   C4A56970  23.000  28.208   7.278
 4437POPC   C1B56971  22.765  28.582   6.209
 4437POPC   C2B56972  22.631  28.696   6.644
 4437POPC   C3B56973  22.765  28.622   7.080
 4437POPC   C4B56974  23.069  28.829   7.342
 4438POPC   NC356975  37.736  10.273   5.435
 4438POPC   PO456976  37.650  10.959   5.514
 4438POPC   GL156977  37.432  10.658   5.822
 4438POPC   GL256978  37.212  10.331   5.818
 4438POPC   C1A56979  37.559  10.585   6.253
 4438POPC   D2A56980  37.882  10.345   6.511
 4438POPC   C3A56981  37.971  10.398   6.968
 4438POPC   C4A56982  37.831  10.622   7.360
 4438POPC   C1B56983  37.293  10.168   6.250
 4438POPC   C2B56984  37.354  10.407   6.677
 4438POPC   C3B56985  37.462  10.356   7.115
 4438POPC   C4B56986  37.534  10.114   7.510
 4439POPC   NC356987  26.693  11.702   5.178
 4439POPC   PO456988  27.123  11.281   5.418
 4439POPC   GL156989  26.916  11.505   5.769
 4439POPC   GL256990  26.776  11.191   5.872
 4439POPC   C1A56991  26.961  11.503   6.231
 4439POPC   D2A56992  26.839  11.247   6.609
 4439POPC   C3A56993  26.921  11.361   7.039
 4439POPC   C4A56994  27.318  11.465   7.232
 4439POPC   C1B56995  26.469  11.301   6.182
 4439POPC   C2B56996  26.335  11.095   6.551
 4439POPC   C3B56997  26.426  11.202   6.942
 4439POPC   C4B56998  26.497  11.363   7.354
 4440POPC   NC356999   6.824  37.124   5.405
 4440POPC   PO457000   6.149  36.846   5.391
 4440POPC   GL157001   6.453  36.878   5.750
 4440POPC   GL257002   6.641  37.189   5.874
 4440POPC   C1A57003   6.427  36.770   6.193
 4440POPC   D2A57004   6.427  37.000   6.622
 4440POPC   C3A57005   6.513  36.851   7.046
 4440POPC   C4A57006   6.253  36.580   7.296
 4440POPC   C1B57007   6.796  37.096   6.262
 4440POPC   C2B57008   6.956  36.941   6.651
 4440POPC   C3B57009   6.924  37.134   7.046
 4440POPC   C4B57010   6.905  37.139   7.511
 4441POPC   NC357011  18.100   7.577   5.425
 4441POPC   PO457012  18.610   7.110   5.493
 4441POPC   GL157013  18.320   7.300   5.810
 4441POPC   GL257014  18.295   7.649   5.895
 4441POPC   C1A57015  18.384   7.268   6.253
 4441POPC   D2A57016  18.124   7.303   6.617
 4441POPC   C3A57017  18.251   7.130   6.972
 4441POPC   C4A57018  18.191   7.406   7.304
 4441POPC   C1B57019  18.468   7.768   6.311
 4441POPC   C2B57020  18.451   7.724   6.778
 4441POPC   C3B57021  18.440   7.857   7.239
 4441POPC   C4B57022  18.389   7.735   7.675
 4442POPC   NC357023  37.978   6.567   5.346
 4442POPC   PO457024  38.643   6.605   5.459
 4442POPC   GL157025  38.760   6.456   5.883
 4442POPC   GL257026  38.408   6.405   5.969
 4442POPC   C1A57027  38.744   6.436   6.358
 4442POPC   D2A57028  38.418   6.557   6.668
 4442POPC   C3A57029  38.532   6.471   7.072
 4442POPC   C4A57030  38.965   6.428   7.206
 4442POPC   C1B57031  38.110   6.642   6.256
 4442POPC   C2B57032  37.900   6.649   6.679
 4442POPC   C3B57033  37.985   6.470   7.090
 4442POPC   C4B57034  38.144   6.631   7.449
 4443POPC   NC357035  12.390  42.503   5.547
 4443POPC   PO457036  12.998  42.625   5.251
 4443POPC   GL157037  13.051  42.635   5.742
 4443POPC   GL257038  12.859  42.350   5.805
 4443POPC   C1A57039  13.157  42.454   6.201
 4443POPC   D2A57040  12.986  42.441   6.632
 4443POPC   C3A57041  13.158  42.287   7.049
 4443POPC   C4A57042  13.131  42.423   7.498
 4443POPC   C1B57043  12.654  42.531   6.192
 4443POPC   C2B57044  12.506  42.276   6.545
 4443POPC   C3B57045  12.622  42.329   6.986
 4443POPC   C4B57046  12.768  42.064   7.302
 4444POPC   NC357047  14.737  30.346   5.489
 4444POPC   PO457048  15.311  30.705   5.408
 4444POPC   GL157049  15.125  30.605   5.777
 4444POPC   GL257050  15.122  30.941   5.843
 4444POPC   C1A57051  14.942  30.618   6.176
 4444POPC   D2A57052  15.159  30.538   6.548
 4444POPC   C3A57053  15.034  30.569   6.951
 4444POPC   C4A57054  15.180  30.273   7.236
 4444POPC   C1B57055  15.056  31.112   6.269
 4444POPC   C2B57056  15.195  31.030   6.671
 4444POPC   C3B57057  15.360  30.957   7.089
 4444POPC   C4B57058  15.426  31.009   7.571
 4445POPC   NC357059  38.930   1.131   5.512
 4445POPC   PO457060  39.559   1.443   5.454
 4445POPC   GL157061  39.401   1.158   5.765
 4445POPC   GL257062  39.176   1.414   5.878
 4445POPC   C1A57063  39.249   0.930   6.157
 4445POPC   D2A57064  39.070   0.960   6.588
 4445POPC   C3A57065  39.240   1.015   6.982
 4445POPC   C4A57066  39.339   1.438   7.127
 4445POPC   C1B57067  38.884   1.312   6.211
 4445POPC   C2B57068  38.808   1.466   6.646
 4445POPC   C3B57069  38.805   1.334   7.065
 4445POPC   C4B57070  38.897   1.520   7.433
 4446POPC   NC357071  10.119  30.491   5.191
 4446POPC   PO457072  10.638  30.865   5.430
 4446POPC   GL157073  10.431  30.806   5.794
 4446POPC   GL257074  10.496  30.437   5.726
 4446POPC   C1A57075  10.416  31.038   6.194
 4446POPC   D2A57076  10.672  31.101   6.577
 4446POPC   C3A57077  10.454  31.005   6.923
 4446POPC   C4A57078  10.483  30.864   7.317
 4446POPC   C1B57079  10.509  30.436   6.184
 4446POPC   C2B57080  10.431  30.589   6.622
 4446POPC   C3B57081  10.426  30.375   7.067
 4446POPC   C4B57082  10.454  30.362   7.591
 4447POPC   NC357083  32.405   7.684   5.332
 4447POPC   PO457084  31.980   7.317   5.602
 4447POPC   GL157085  32.135   7.684   5.795
 4447POPC   GL257086  31.823   7.651   5.953
 4447POPC   C1A57087  32.191   7.817   6.237
 4447POPC   D2A57088  32.158   7.449   6.504
 4447POPC   C3A57089  32.023   7.488   6.915
 4447POPC   C4A57090  32.294   7.687   7.218
 4447POPC   C1B57091  31.797   7.203   6.186
 4447POPC   C2B57092  31.666   7.041   6.574
 4447POPC   C3B57093  31.627   7.069   6.994
 4447POPC   C4B57094  31.989   7.049   7.183
 4448POPC   NC357095   2.175  23.922   5.480
 4448POPC   PO457096   1.596  23.535   5.341
 4448POPC   GL157097   1.857  23.556   5.768
 4448POPC   GL257098   1.897  23.900   5.929
 4448POPC   C1A57099   2.085  23.528   6.198
 4448POPC   D2A57100   1.963  23.669   6.605
 4448POPC   C3A57101   2.214  23.527   6.923
 4448POPC   C4A57102   2.391  23.838   7.149
 4448POPC   C1B57103   1.591  23.658   6.240
 4448POPC   C2B57104   1.572  23.343   6.624
 4448POPC   C3B57105   1.712  23.439   7.032
 4448POPC   C4B57106   1.842  23.866   7.073
 4449POPC   NC357107  16.543  14.235   5.427
 4449POPC   PO457108  17.079  14.580   5.410
 4449POPC   GL157109  16.865  14.415   5.767
 4449POPC   GL257110  16.985  14.120   5.880
 4449POPC   C1A57111  16.597  14.397   6.129
 4449POPC   D2A57112  16.819  14.420   6.526
 4449POPC   C3A57113  16.534  14.416   6.878
 4449POPC   C4A57114  16.610  14.388   7.311
 4449POPC   C1B57115  16.856  13.971   6.258
 4449POPC   C2B57116  16.690  13.952   6.662
 4449POPC   C3B57117  16.875  14.054   7.050
 4449POPC   C4B57118  16.774  13.911   7.489
 4450POPC   NC357119  37.408  14.255   5.402
 4450POPC   PO457120  37.803  14.854   5.313
 4450POPC   GL157121  37.755  14.570   5.676
 4450POPC   GL257122  38.014  14.721   5.843
 4450POPC   C1A57123  37.753  14.281   6.087
 4450POPC   D2A57124  37.666  14.054   6.488
 4450POPC   C3A57125  37.682  14.249   6.900
 4450POPC   C4A57126  37.559  14.120   7.303
 4450POPC   C1B57127  37.859  14.750   6.237
 4450POPC   C2B57128  37.611  14.652   6.554
 4450POPC   C3B57129  37.728  14.779   6.896
 4450POPC   C4B57130  37.647  14.643   7.272
 4451POPC   NC357131  39.929   1.154   5.469
 4451POPC   PO457132  40.485   1.368   5.825
 4451POPC   GL157133  40.124   1.219   6.015
 4451POPC   GL257134  40.096   0.903   5.872
 4451POPC   C1A57135  39.965   1.036   6.422
 4451POPC   D2A57136  39.666   1.190   6.754
 4451POPC   C3A57137  39.853   1.491   7.049
 4451POPC   C4A57138  40.262   1.420   7.180
 4451POPC   C1B57139  40.371   0.760   6.186
 4451POPC   C2B57140  40.471   0.874   6.599
 4451POPC   C3B57141  40.163   0.962   6.913
 4451POPC   C4B57142  40.129   0.800   7.312
 4452POPC   NC357143  38.558   9.856   5.370
 4452POPC   PO457144  38.108   9.392   5.420
 4452POPC   GL157145  38.302   9.637   5.767
 4452POPC   GL257146  38.643   9.514   5.822
 4452POPC   C1A57147  38.306   9.899   6.166
 4452POPC   D2A57148  38.082   9.841   6.574
 4452POPC   C3A57149  38.259   9.937   6.960
 4452POPC   C4A57150  38.287   9.844   7.396
 4452POPC   C1B57151  38.797   9.712   6.184
 4452POPC   C2B57152  38.608   9.791   6.592
 4452POPC   C3B57153  38.697   9.676   7.025
 4452POPC   C4B57154  38.546   9.415   7.353
 4453POPC   NC357155  37.707  27.046   5.334
 4453POPC   PO457156  37.870  26.425   5.430
 4453POPC   GL157157  37.832  26.620   5.812
 4453POPC   GL257158  38.058  26.903   5.754
 4453POPC   C1A57159  37.953  26.578   6.251
 4453POPC   D2A57160  38.143  26.613   6.660
 4453POPC   C3A57161  37.823  26.563   7.040
 4453POPC   C4A57162  37.425  26.848   7.028
 4453POPC   C1B57163  37.867  27.072   6.140
 4453POPC   C2B57164  37.687  26.982   6.520
 4453POPC   C3B57165  37.899  27.012   6.862
 4453POPC   C4B57166  37.834  27.069   7.268
 4454POPC   NC357167   3.392  11.269   5.484
 4454POPC   PO457168   3.615  11.922   5.475
 4454POPC   GL157169   3.431  11.655   5.829
 4454POPC   GL257170   3.709  11.437   5.836
 4454POPC   C1A57171   3.360  11.336   6.192
 4454POPC   D2A57172   3.376  10.983   6.519
 4454POPC   C3A57173   3.492  11.147   6.939
 4454POPC   C4A57174   3.536  11.596   7.067
 4454POPC   C1B57175   3.858  11.202   6.166
 4454POPC   C2B57176   3.791  11.346   6.568
 4454POPC   C3B57177   4.031  11.353   6.913
 4454POPC   C4B57178   3.882  11.255   7.288
 4455POPC   NC357179  26.239  12.247   5.440
 4455POPC   PO457180  26.272  11.534   5.285
 4455POPC   GL157181  26.289  11.786   5.688
 4455POPC   GL257182  26.026  12.046   5.854
 4455POPC   C1A57183  26.407  11.814   6.133
 4455POPC   D2A57184  26.289  12.063   6.487
 4455POPC   C3A57185  26.314  11.928   6.926
 4455POPC   C4A57186  25.927  11.950   7.173
 4455POPC   C1B57187  25.968  12.379   6.220
 4455POPC   C2B57188  25.906  12.525   6.698
 4455POPC   C3B57189  25.677  12.417   7.136
 4455POPC   C4B57190  25.716  12.520   7.613
 4456POPC   NC357191   7.946   6.718   5.146
 4456POPC   PO457192   8.402   6.393   5.480
 4456POPC   GL157193   8.179   6.559   5.857
 4456POPC   GL257194   8.095   6.905   5.884
 4456POPC   C1A57195   8.271   6.645   6.310
 4456POPC   D2A57196   8.422   6.335   6.629
 4456POPC   C3A57197   8.056   6.194   6.853
 4456POPC   C4A57198   7.906   6.383   7.228
 4456POPC   C1B57199   7.788   6.974   6.205
 4456POPC   C2B57200   7.931   6.924   6.594
 4456POPC   C3B57201   8.158   6.712   6.881
 4456POPC   C4B57202   8.121   6.848   7.289
 4457POPC   NC357203  33.079  34.187   5.418
 4457POPC   PO457204  32.988  33.568   5.655
 4457POPC   GL157205  33.147  33.762   5.997
 4457POPC   GL257206  33.342  33.978   5.821
 4457POPC   C1A57207  33.053  33.797   6.412
 4457POPC   D2A57208  32.965  33.860   6.811
 4457POPC   C3A57209  32.862  33.649   7.136
 4457POPC   C4A57210  33.180  33.669   7.438
 4457POPC   C1B57211  33.490  34.085   6.242
 4457POPC   C2B57212  33.380  34.142   6.674
 4457POPC   C3B57213  33.304  34.057   7.127
 4457POPC   C4B57214  33.170  34.187   7.559
 4458POPC   NC357215   8.163  23.091   5.471
 4458POPC   PO457216   7.569  22.632   5.458
 4458POPC   GL157217   8.144  22.672   5.771
 4458POPC   GL257218   8.318  22.982   5.939
 4458POPC   C1A57219   8.302  22.541   6.179
 4458POPC   D2A57220   8.203  22.840   6.517
 4458POPC   C3A57221   8.190  22.795   6.963
 4458POPC   C4A57222   7.874  22.973   7.282
 4458POPC   C1B57223   8.642  22.928   6.268
 4458POPC   C2B57224   8.688  22.881   6.720
 4458POPC   C3B57225   8.598  23.102   7.095
 4458POPC   C4B57226   8.595  23.266   7.523
 4459POPC   NC357227  37.592  34.420   5.365
 4459POPC   PO457228  38.056  34.910   5.579
 4459POPC   GL157229  37.759  34.672   5.851
 4459POPC   GL257230  37.509  34.397   5.862
 4459POPC   C1A57231  37.676  34.648   6.291
 4459POPC   D2A57232  37.961  34.581   6.607
 4459POPC   C3A57233  37.797  34.634   6.968
 4459POPC   C4A57234  37.697  34.672   7.360
 4459POPC   C1B57235  37.497  34.154   6.228
 4459POPC   C2B57236  37.654  34.168   6.620
 4459POPC   C3B57237  37.620  34.160   7.031
 4459POPC   C4B57238  37.773  34.195   7.440
 4460POPC   NC357239  32.244  35.962   5.393
 4460POPC   PO457240  32.674  36.477   5.316
 4460POPC   GL157241  32.362  36.363   5.734
 4460POPC   GL257242  32.420  36.010   5.864
 4460POPC   C1A57243  32.066  36.266   6.165
 4460POPC   D2A57244  32.097  36.081   6.650
 4460POPC   C3A57245  31.830  36.276   7.056
 4460POPC   C4A57246  31.880  36.324   7.569
 4460POPC   C1B57247  32.524  36.108   6.311
 4460POPC   C2B57248  32.806  36.228   6.615
 4460POPC   C3B57249  32.663  36.094   7.001
 4460POPC   C4B57250  32.252  36.039   7.177
 4461POPC   NC357251  35.032  23.598   5.181
 4461POPC   PO457252  35.415  23.981   5.664
 4461POPC   GL157253  35.356  23.698   5.961
 4461POPC   GL257254  35.227  23.453   5.761
 4461POPC   C1A57255  35.339  23.742   6.410
 4461POPC   D2A57256  35.123  23.959   6.736
 4461POPC   C3A57257  35.286  23.999   7.135
 4461POPC   C4A57258  35.702  24.056   7.031
 4461POPC   C1B57259  35.111  23.281   6.183
 4461POPC   C2B57260  35.248  23.271   6.614
 4461POPC   C3B57261  35.230  23.467   7.000
 4461POPC   C4B57262  35.441  23.307   7.345
 4462POPC   NC357263  18.211  39.084   5.347
 4462POPC   PO457264  18.127  39.729   5.625
 4462POPC   GL157265  18.146  39.276   5.826
 4462POPC   GL257266  18.408  38.986   5.816
 4462POPC   C1A57267  18.071  38.984   6.184
 4462POPC   D2A57268  18.306  38.952   6.569
 4462POPC   C3A57269  18.139  39.168   6.910
 4462POPC   C4A57270  18.259  39.248   7.314
 4462POPC   C1B57271  18.557  39.255   6.149
 4462POPC   C2B57272  18.474  39.454   6.555
 4462POPC   C3B57273  18.636  39.379   6.959
 4462POPC   C4B57274  18.760  39.413   7.380
 4463POPC   NC357275  24.802  42.797   5.387
 4463POPC   PO457276  24.418  43.301   5.587
 4463POPC   GL157277  24.485  43.192   6.032
 4463POPC   GL257278  24.547  42.904   5.894
 4463POPC   C1A57279  24.448  43.271   6.441
 4463POPC   D2A57280  24.101  43.343   6.722
 4463POPC   C3A57281  24.338  43.415   7.044
 4463POPC   C4A57282  24.774  43.428   7.022
 4463POPC   C1B57283  24.376  42.715   6.200
 4463POPC   C2B57284  24.257  42.828   6.580
 4463POPC   C3B57285  24.355  42.645   6.947
 4463POPC   C4B57286  24.519  42.970   7.149
 4464POPC   NC357287  21.133  35.097   5.398
 4464POPC   PO457288  21.690  35.510   5.497
 4464POPC   GL157289  21.605  35.277   5.831
 4464POPC   GL257290  21.631  35.606   5.997
 4464POPC   C1A57291  21.267  35.203   6.112
 4464POPC   D2A57292  21.151  35.406   6.491
 4464POPC   C3A57293  21.064  35.112   6.818
 4464POPC   C4A57294  21.048  35.306   7.195
 4464POPC   C1B57295  21.710  35.361   6.340
 4464POPC   C2B57296  21.566  35.217   6.732
 4464POPC   C3B57297  21.560  35.327   7.147
 4464POPC   C4B57298  21.614  35.608   7.447
 4465POPC   NC357299  38.276  17.800   5.589
 4465POPC   PO457300  38.256  18.350   5.242
 4465POPC   GL157301  38.462  18.256   5.738
 4465POPC   GL257302  38.391  18.534   6.008
 4465POPC   C1A57303  38.304  18.081   6.174
 4465POPC   D2A57304  38.525  17.941   6.535
 4465POPC   C3A57305  38.453  18.179   6.892
 4465POPC   C4A57306  38.324  18.158   7.302
 4465POPC   C1B57307  38.735  18.352   6.186
 4465POPC   C2B57308  38.875  18.431   6.553
 4465POPC   C3B57309  38.954  18.259   6.894
 4465POPC   C4B57310  38.782  18.366   7.255
 4466POPC   NC357311  29.603  25.650   5.548
 4466POPC   PO457312  29.709  24.943   5.584
 4466POPC   GL157313  29.978  25.103   5.879
 4466POPC   GL257314  29.837  25.399   5.921
 4466POPC   C1A57315  30.213  25.179   6.257
 4466POPC   D2A57316  30.307  25.023   6.660
 4466POPC   C3A57317  30.095  25.302   6.948
 4466POPC   C4A57318  30.084  25.363   7.396
 4466POPC   C1B57319  29.647  25.541   6.309
 4466POPC   C2B57320  29.543  25.457   6.744
 4466POPC   C3B57321  29.604  25.256   7.134
 4466POPC   C4B57322  29.664  25.637   7.312
 4467POPC   NC357323  28.898  32.575   5.364
 4467POPC   PO457324  29.389  32.991   5.458
 4467POPC   GL157325  29.090  32.953   5.787
 4467POPC   GL257326  29.061  32.616   5.878
 4467POPC   C1A57327  29.018  33.118   6.200
 4467POPC   D2A57328  29.227  33.036   6.574
 4467POPC   C3A57329  29.092  33.133   6.992
 4467POPC   C4A57330  28.925  32.748   7.155
 4467POPC   C1B57331  29.421  32.775   6.140
 4467POPC   C2B57332  29.650  32.742   6.540
 4467POPC   C3B57333  29.409  32.688   6.922
 4467POPC   C4B57334  29.410  32.852   7.306
 4468POPC   NC357335  24.851  43.255   5.717
 4468POPC   PO457336  25.391  43.086   5.512
 4468POPC   GL157337  25.271  43.045   5.931
 4468POPC   GL257338  25.056  42.759   5.831
 4468POPC   C1A57339  25.202  43.367   6.286
 4468POPC   D2A57340  25.216  43.463   6.730
 4468POPC   C3A57341  25.477  43.124   6.883
 4468POPC   C4A57342  25.529  42.922   7.271
 4468POPC   C1B57343  24.911  42.809   6.243
 4468POPC   C2B57344  25.027  42.978   6.640
 4468POPC   C3B57345  25.027  42.994   7.083
 4468POPC   C4B57346  24.892  42.697   7.338
 4469POPC   NC357347  10.283   6.170   5.673
 4469POPC   PO457348   9.890   5.568   5.638
 4469POPC   GL157349   9.939   5.907   5.980
 4469POPC   GL257350   9.629   6.118   6.042
 4469POPC   C1A57351  10.000   6.153   6.402
 4469POPC   D2A57352  10.033   6.226   6.897
 4469POPC   C3A57353  10.086   5.962   7.270
 4469POPC   C4A57354   9.870   5.599   7.484
 4469POPC   C1B57355   9.525   5.689   6.224
 4469POPC   C2B57356   9.493   5.549   6.658
 4469POPC   C3B57357   9.654   5.827   6.995
 4469POPC   C4B57358   9.464   5.880   7.392
 4470POPC   NC357359  25.371  44.015   5.276
 4470POPC   PO457360  25.073  43.651   5.673
 4470POPC   GL157361  25.255  43.879   5.981
 4470POPC   GL257362  25.344  44.163   5.791
 4470POPC   C1A57363  25.233  43.930   6.433
 4470POPC   D2A57364  25.042  44.113   6.800
 4470POPC   C3A57365  25.086  43.826   7.134
 4470POPC   C4A57366  25.237  43.411   7.271
 4470POPC   C1B57367  25.525  44.305   6.196
 4470POPC   C2B57368  25.539  44.312   6.652
 4470POPC   C3B57369  25.689  44.274   7.080
 4470POPC   C4B57370  25.356  44.203   7.360
 4471POPC   NC357371   1.735  29.577   4.967
 4471POPC   PO457372   2.228  29.765   5.369
 4471POPC   GL157373   2.093  29.923   5.750
 4471POPC   GL257374   2.267  29.650   5.885
 4471POPC   C1A57375   1.919  29.892   6.196
 4471POPC   D2A57376   1.733  29.986   6.627
 4471POPC   C3A57377   1.813  30.171   7.042
 4471POPC   C4A57378   1.751  30.111   7.468
 4471POPC   C1B57379   2.281  29.488   6.295
 4471POPC   C2B57380   2.216  29.454   6.731
 4471POPC   C3B57381   2.045  29.709   7.048
 4471POPC   C4B57382   2.234  29.951   7.345
 4472POPC   NC357383  33.983  10.257   5.347
 4472POPC   PO457384  33.633  10.892   5.353
 4472POPC   GL157385  33.764  10.641   5.710
 4472POPC   GL257386  34.105  10.517   5.768
 4472POPC   C1A57387  33.773  10.564   6.163
 4472POPC   D2A57388  33.550  10.558   6.569
 4472POPC   C3A57389  33.739  10.560   6.983
 4472POPC   C4A57390  33.782  10.312   7.347
 4472POPC   C1B57391  34.145  10.198   6.110
 4472POPC   C2B57392  34.218  10.109   6.557
 4472POPC   C3B57393  34.141  10.208   6.980
 4472POPC   C4B57394  34.264  10.088   7.413
 4473POPC   NC357395  40.812  12.593   5.198
 4473POPC   PO457396  41.019  11.981   5.474
 4473POPC   GL157397  40.872  12.171   5.822
 4473POPC   GL257398  40.550  12.335   5.709
 4473POPC   C1A57399  40.853  11.998   6.220
 4473POPC   D2A57400  40.947  11.774   6.592
 4473POPC   C3A57401  40.741  11.942   6.939
 4473POPC   C4A57402  40.833  12.046   7.354
 4473POPC   C1B57403  40.506  12.416   6.158
 4473POPC   C2B57404  40.657  12.312   6.577
 4473POPC   C3B57405  40.498  12.391   6.968
 4473POPC   C4B57406  40.500  12.410   7.399
 4474POPC   NC357407  19.537   4.821   5.566
 4474POPC   PO457408  20.138   5.125   5.403
 4474POPC   GL157409  19.900   5.163   5.787
 4474POPC   GL257410  19.802   4.866   5.995
 4474POPC   C1A57411  19.942   5.296   6.216
 4474POPC   D2A57412  19.780   5.060   6.569
 4474POPC   C3A57413  19.968   5.176   6.953
 4474POPC   C4A57414  20.185   5.169   7.328
 4474POPC   C1B57415  19.396   4.887   6.238
 4474POPC   C2B57416  19.331   4.777   6.687
 4474POPC   C3B57417  19.668   4.741   6.991
 4474POPC   C4B57418  19.740   4.897   7.402
 4475POPC   NC357419  14.798   8.010   5.349
 4475POPC   PO457420  14.137   8.055   5.485
 4475POPC   GL157421  14.379   8.218   5.824
 4475POPC   GL257422  14.448   8.573   5.744
 4475POPC   C1A57423  14.464   8.125   6.274
 4475POPC   D2A57424  14.215   8.219   6.629
 4475POPC   C3A57425  14.408   8.147   7.009
 4475POPC   C4A57426  14.381   7.963   7.409
 4475POPC   C1B57427  14.738   8.539   6.099
 4475POPC   C2B57428  14.894   8.429   6.507
 4475POPC   C3B57429  14.809   8.456   6.953
 4475POPC   C4B57430  14.523   8.525   7.351
 4476POPC   NC357431  12.756  41.907   5.485
 4476POPC   PO457432  12.599  41.193   5.488
 4476POPC   GL157433  12.827  41.467   5.792
 4476POPC   GL257434  12.984  41.817   5.914
 4476POPC   C1A57435  12.707  41.516   6.220
 4476POPC   D2A57436  12.573  41.556   6.632
 4476POPC   C3A57437  12.783  41.301   6.948
 4476POPC   C4A57438  13.044  41.201   7.320
 4476POPC   C1B57439  12.908  42.001   6.323
 4476POPC   C2B57440  12.873  41.947   6.773
 4476POPC   C3B57441  13.033  41.706   7.106
 4476POPC   C4B57442  12.968  41.649   7.530
 4477POPC   NC357443  44.861  21.089   5.542
 4477POPC   PO457444  44.227  21.462   5.465
 4477POPC   GL157445  44.482  21.308   5.811
 4477POPC   GL257446  44.808  21.455   5.914
 4477POPC   C1A57447  44.501  21.290   6.262
 4477POPC   D2A57448  44.708  21.283   6.661
 4477POPC   C3A57449  44.380  21.306   6.963
 4477POPC   C4A57450  44.391  21.440   7.382
 4477POPC   C1B57451  44.916  21.630   6.317
 4477POPC   C2B57452  44.902  21.770   6.747
 4477POPC   C3B57453  44.834  21.528   7.139
 4477POPC   C4B57454  44.827  21.630   7.570
 4478POPC   NC357455   3.720   5.826   5.248
 4478POPC   PO457456   3.725   6.503   5.293
 4478POPC   GL157457   3.595   6.142   5.643
 4478POPC   GL257458   3.758   5.796   5.755
 4478POPC   C1A57459   3.381   6.019   6.057
 4478POPC   D2A57460   3.381   5.776   6.465
 4478POPC   C3A57461   3.327   5.967   6.874
 4478POPC   C4A57462   3.321   5.904   7.292
 4478POPC   C1B57463   3.885   5.982   6.175
 4478POPC   C2B57464   3.737   6.130   6.591
 4478POPC   C3B57465   3.833   6.071   7.042
 4478POPC   C4B57466   4.062   6.408   7.234
 4479POPC   NC357467  17.405  28.918   5.106
 4479POPC   PO457468  17.898  29.312   5.395
 4479POPC   GL157469  17.629  29.286   5.767
 4479POPC   GL257470  17.370  29.021   5.694
 4479POPC   C1A57471  17.699  29.453   6.196
 4479POPC   D2A57472  17.483  29.325   6.584
 4479POPC   C3A57473  17.706  29.282   6.954
 4479POPC   C4A57474  17.527  29.183   7.369
 4479POPC   C1B57475  17.474  28.962   6.155
 4479POPC   C2B57476  17.574  28.825   6.591
 4479POPC   C3B57477  17.333  28.924   6.948
 4479POPC   C4B57478  17.064  28.967   7.301
 4480POPC   NC357479  10.888  15.716   5.504
 4480POPC   PO457480  10.377  16.118   5.588
 4480POPC   GL157481  10.575  15.799   5.916
 4480POPC   GL257482  10.870  15.535   5.959
 4480POPC   C1A57483  10.462  15.901   6.323
 4480POPC   D2A57484  10.255  16.188   6.564
 4480POPC   C3A57485  10.436  16.207   6.953
 4480POPC   C4A57486  10.299  16.189   7.374
 4480POPC   C1B57487  10.990  15.859   6.254
 4480POPC   C2B57488  10.845  16.184   6.552
 4480POPC   C3B57489  10.949  16.236   6.967
 4480POPC   C4B57490  10.794  15.997   7.284
 4481POPC   NC357491   1.663   2.213   5.613
 4481POPC   PO457492   2.038   1.643   5.462
 4481POPC   GL157493   1.999   1.875   5.833
 4481POPC   GL257494   2.153   2.199   5.825
 4481POPC   C1A57495   1.824   2.028   6.216
 4481POPC   D2A57496   1.846   2.315   6.550
 4481POPC   C3A57497   1.706   2.178   6.932
 4481POPC   C4A57498   1.751   1.821   7.204
 4481POPC   C1B57499   2.297   2.284   6.242
 4481POPC   C2B57500   2.340   2.293   6.710
 4481POPC   C3B57501   2.153   2.411   7.116
 4481POPC   C4B57502   2.240   2.374   7.592
 4482POPC   NC357503  30.790  16.288   5.439
 4482POPC   PO457504  31.153  15.779   5.469
 4482POPC   GL157505  30.911  15.931   5.834
 4482POPC   GL257506  30.540  15.954   5.794
 4482POPC   C1A57507  31.039  15.832   6.276
 4482POPC   D2A57508  31.158  15.668   6.698
 4482POPC   C3A57509  31.017  15.891   7.065
 4482POPC   C4A57510  30.866  15.985   7.473
 4482POPC   C1B57511  30.246  15.920   6.159
 4482POPC   C2B57512  30.323  16.062   6.561
 4482POPC   C3B57513  30.433  15.933   6.970
 4482POPC   C4B57514  30.380  16.133   7.400
 4483POPC   NC357515  15.288  40.765   5.349
 4483POPC   PO457516  14.703  41.019   5.443
 4483POPC   GL157517  14.995  40.821   5.764
 4483POPC   GL257518  15.332  41.024   5.787
 4483POPC   C1A57519  15.142  40.704   6.176
 4483POPC   D2A57520  15.348  40.532   6.554
 4483POPC   C3A57521  15.117  40.603   6.892
 4483POPC   C4A57522  15.192  40.452   7.268
 4483POPC   C1B57523  15.386  41.191   6.179
 4483POPC   C2B57524  15.303  41.031   6.577
 4483POPC   C3B57525  15.556  40.861   6.920
 4483POPC   C4B57526  15.614  40.723   7.338
 4484POPC   NC357527  37.943  21.332   5.461
 4484POPC   PO457528  37.573  21.731   5.031
 4484POPC   GL157529  37.562  21.717   5.561
 4484POPC   GL257530  37.873  21.771   5.778
 4484POPC   C1A57531  37.447  21.625   6.056
 4484POPC   D2A57532  37.271  21.485   6.501
 4484POPC   C3A57533  37.538  21.507   6.876
 4484POPC   C4A57534  37.711  21.395   7.285
 4484POPC   C1B57535  38.004  21.535   6.180
 4484POPC   C2B57536  37.953  21.357   6.622
 4484POPC   C3B57537  38.141  21.407   7.046
 4484POPC   C4B57538  38.154  21.450   7.531
 4485POPC   NC357539  36.322  19.138   5.380
 4485POPC   PO457540  35.618  18.928   5.449
 4485POPC   GL157541  35.968  19.043   5.806
 4485POPC   GL257542  36.305  18.863   5.798
 4485POPC   C1A57543  36.171  18.998   6.258
 4485POPC   D2A57544  36.100  18.767   6.631
 4485POPC   C3A57545  36.140  19.033   6.981
 4485POPC   C4A57546  36.072  19.192   7.408
 4485POPC   C1B57547  36.591  18.700   6.110
 4485POPC   C2B57548  36.637  18.801   6.529
 4485POPC   C3B57549  36.514  18.682   6.934
 4485POPC   C4B57550  36.305  18.734   7.360
 4486POPC   NC357551  18.414  11.088   5.536
 4486POPC   PO457552  18.415  11.777   5.377
 4486POPC   GL157553  18.474  11.595   5.807
 4486POPC   GL257554  18.166  11.436   5.859
 4486POPC   C1A57555  18.540  11.320   6.195
 4486POPC   D2A57556  18.345  11.238   6.627
 4486POPC   C3A57557  18.570  11.434   6.961
 4486POPC   C4A57558  18.588  11.150   7.321
 4486POPC   C1B57559  18.033  11.472   6.281
 4486POPC   C2B57560  17.714  11.695   6.527
 4486POPC   C3B57561  17.757  11.604   6.945
 4486POPC   C4B57562  18.089  11.354   7.105
 4487POPC   NC357563  43.326   2.609   5.444
 4487POPC   PO457564  42.688   2.660   5.155
 4487POPC   GL157565  42.861   2.836   5.605
 4487POPC   GL257566  42.725   2.643   5.835
 4487POPC   C1A57567  42.897   3.026   6.104
 4487POPC   D2A57568  42.965   3.165   6.589
 4487POPC   C3A57569  43.306   2.994   6.894
 4487POPC   C4A57570  43.405   2.569   7.052
 4487POPC   C1B57571  43.039   2.487   6.139
 4487POPC   C2B57572  43.134   2.416   6.585
 4487POPC   C3B57573  42.913   2.646   6.886
 4487POPC   C4B57574  42.894   2.660   7.321
 4488POPC   NC357575  19.919  17.014   5.357
 4488POPC   PO457576  19.751  16.429   5.228
 4488POPC   GL157577  19.792  16.580   5.685
 4488POPC   GL257578  19.890  16.893   5.862
 4488POPC   C1A57579  19.572  16.526   6.120
 4488POPC   D2A57580  19.662  16.758   6.521
 4488POPC   C3A57581  19.438  16.679   6.937
 4488POPC   C4A57582  19.563  16.783   7.373
 4488POPC   C1B57583  20.076  16.604   6.137
 4488POPC   C2B57584  20.216  16.667   6.538
 4488POPC   C3B57585  20.030  16.869   6.881
 4488POPC   C4B57586  20.047  16.679   7.264
 4489POPC   NC357587  17.839  17.074   5.392
 4489POPC   PO457588  17.458  17.665   5.354
 4489POPC   GL157589  17.748  17.584   5.696
 4489POPC   GL257590  17.885  17.902   5.758
 4489POPC   C1A57591  17.746  17.295   6.071
 4489POPC   D2A57592  17.448  17.189   6.380
 4489POPC   C3A57593  17.487  17.285   6.812
 4489POPC   C4A57594  17.255  17.317   7.205
 4489POPC   C1B57595  17.940  17.746   6.189
 4489POPC   C2B57596  18.026  17.628   6.626
 4489POPC   C3B57597  17.825  17.627   7.032
 4489POPC   C4B57598  17.748  17.256   7.262
 4490POPC   NC357599  25.142  17.818   5.537
 4490POPC   PO457600  25.652  17.372   5.406
 4490POPC   GL157601  25.466  17.544   5.834
 4490POPC   GL257602  25.075  17.504   5.921
 4490POPC   C1A57603  25.471  17.681   6.288
 4490POPC   D2A57604  25.515  17.606   6.748
 4490POPC   C3A57605  25.147  17.513   7.010
 4490POPC   C4A57606  25.107  17.741   7.403
 4490POPC   C1B57607  25.198  17.243   6.253
 4490POPC   C2B57608  25.345  17.087   6.642
 4490POPC   C3B57609  25.530  17.153   7.049
 4490POPC   C4B57610  25.447  17.346   7.428
 4491POPC   NC357611   5.171  22.821   5.391
 4491POPC   PO457612   5.329  23.398   5.439
 4491POPC   GL157613   5.210  23.147   5.783
 4491POPC   GL257614   4.845  23.185   5.758
 4491POPC   C1A57615   5.224  22.777   6.097
 4491POPC   D2A57616   5.419  22.612   6.498
 4491POPC   C3A57617   5.243  22.734   6.904
 4491POPC   C4A57618   5.404  22.727   7.318
 4491POPC   C1B57619   4.975  23.263   6.203
 4491POPC   C2B57620   5.106  23.155   6.604
 4491POPC   C3B57621   5.030  23.325   7.010
 4491POPC   C4B57622   5.071  23.104   7.381
 4492POPC   NC357623  15.364  20.441   5.251
 4492POPC   PO457624  15.016  21.006   5.355
 4492POPC   GL157625  15.145  20.662   5.703
 4492POPC   GL257626  15.441  20.400   5.745
 4492POPC   C1A57627  15.101  20.553   6.177
 4492POPC   D2A57628  14.896  20.663   6.606
 4492POPC   C3A57629  15.184  20.681   6.954
 4492POPC   C4A57630  15.264  20.340   7.178
 4492POPC   C1B57631  15.566  20.751   6.009
 4492POPC   C2B57632  15.443  20.856   6.420
 4492POPC   C3B57633  15.643  20.880   6.805
 4492POPC   C4B57634  15.646  20.684   7.208
 4493POPC   NC357635  20.790  25.689   5.420
 4493POPC   PO457636  20.322  26.134   5.516
 4493POPC   GL157637  20.500  25.875   5.837
 4493POPC   GL257638  20.873  25.910   5.855
 4493POPC   C1A57639  20.395  25.934   6.263
 4493POPC   D2A57640  20.510  26.159   6.640
 4493POPC   C3A57641  20.447  25.926   7.023
 4493POPC   C4A57642  20.464  25.628   7.348
 4493POPC   C1B57643  20.894  25.899   6.274
 4493POPC   C2B57644  20.749  25.721   6.619
 4493POPC   C3B57645  20.921  25.774   6.963
 4493POPC   C4B57646  20.950  25.910   7.355
 4494POPC   NC357647  13.139   0.299   5.320
 4494POPC   PO457648  12.737   0.826   5.293
 4494POPC   GL157649  12.779   0.519   5.647
 4494POPC   GL257650  12.446   0.452   5.807
 4494POPC   C1A57651  12.890   0.460   6.096
 4494POPC   D2A57652  12.696   0.446   6.525
 4494POPC   C3A57653  12.950   0.517   6.946
 4494POPC   C4A57654  13.004   0.827   7.285
 4494POPC   C1B57655  12.305   0.225   6.182
 4494POPC   C2B57656  12.245   0.204   6.633
 4494POPC   C3B57657  12.463   0.375   6.981
 4494POPC   C4B57658  12.428   0.585   7.336
 4495POPC   NC357659   0.615  39.027   5.380
 4495POPC   PO457660   0.278  39.724   5.371
 4495POPC   GL157661   0.352  39.567   5.769
 4495POPC   GL257662   0.332  39.229   5.760
 4495POPC   C1A57663   0.431  39.496   6.195
 4495POPC   D2A57664   0.699  39.211   6.443
 4495POPC   C3A57665   0.846  39.370   6.840
 4495POPC   C4A57666   0.583  39.406   7.197
 4495POPC   C1B57667   0.328  38.982   6.138
 4495POPC   C2B57668   0.255  38.915   6.567
 4495POPC   C3B57669   0.344  39.036   6.963
 4495POPC   C4B57670   0.243  39.063   7.405
 4496POPC   NC357671  36.040  27.122   5.505
 4496POPC   PO457672  36.316  26.513   5.396
 4496POPC   GL157673  36.158  26.703   5.782
 4496POPC   GL257674  35.832  26.540   5.739
 4496POPC   C1A57675  36.303  26.845   6.213
 4496POPC   D2A57676  36.256  26.639   6.637
 4496POPC   C3A57677  36.409  26.820   7.038
 4496POPC   C4A57678  36.154  26.831   7.428
 4496POPC   C1B57679  35.868  26.588   6.190
 4496POPC   C2B57680  35.858  26.960   6.490
 4496POPC   C3B57681  35.898  26.870   6.927
 4496POPC   C4B57682  35.829  26.496   7.179
 4497POPC   NC357683  35.972  12.758   5.427
 4497POPC   PO457684  36.598  13.041   5.419
 4497POPC   GL157685  36.329  12.924   5.809
 4497POPC   GL257686  36.266  12.599   5.844
 4497POPC   C1A57687  36.017  13.007   6.155
 4497POPC   D2A57688  35.787  12.981   6.539
 4497POPC   C3A57689  36.057  12.750   6.792
 4497POPC   C4A57690  36.178  12.806   7.225
 4497POPC   C1B57691  36.241  12.496   6.303
 4497POPC   C2B57692  36.028  12.241   6.632
 4497POPC   C3B57693  35.876  12.372   7.059
 4497POPC   C4B57694  36.038  12.435   7.524
 4498POPC   NC357695  32.601  37.438   5.605
 4498POPC   PO457696  32.948  38.000   5.286
 4498POPC   GL157697  32.919  37.824   5.750
 4498POPC   GL257698  32.590  37.901   5.856
 4498POPC   C1A57699  32.868  37.603   6.212
 4498POPC   D2A57700  32.707  37.527   6.662
 4498POPC   C3A57701  33.034  37.442   7.021
 4498POPC   C4A57702  33.432  37.246   7.202
 4498POPC   C1B57703  32.824  38.104   6.216
 4498POPC   C2B57704  32.797  38.291   6.631
 4498POPC   C3B57705  32.811  38.169   7.042
 4498POPC   C4B57706  32.815  37.795   7.299
 4499POPC   NC357707  28.043  20.224   5.584
 4499POPC   PO457708  28.629  20.319   5.229
 4499POPC   GL157709  28.607  20.272   5.777
 4499POPC   GL257710  28.310  20.421   5.969
 4499POPC   C1A57711  28.710  20.347   6.306
 4499POPC   D2A57712  28.760  20.370   6.830
 4499POPC   C3A57713  28.678  20.717   7.175
 4499POPC   C4A57714  28.669  21.205   7.167
 4499POPC   C1B57715  27.982  20.305   6.289
 4499POPC   C2B57716  27.910  20.439   6.714
 4499POPC   C3B57717  28.210  20.424   7.074
 4499POPC   C4B57718  28.244  20.609   7.499
 4500POPC   NC357719  25.283   1.505   5.366
 4500POPC   PO457720  25.166   2.137   5.292
 4500POPC   GL157721  25.313   2.020   5.677
 4500POPC   GL257722  25.072   2.225   5.804
 4500POPC   C1A57723  25.313   1.917   6.132
 4500POPC   D2A57724  25.137   1.727   6.502
 4500POPC   C3A57725  25.194   1.889   6.905
 4500POPC   C4A57726  25.042   1.749   7.278
 4500POPC   C1B57727  25.130   2.416   6.156
 4500POPC   C2B57728  25.213   2.239   6.533
 4500POPC   C3B57729  25.209   2.400   6.922
 4500POPC   C4B57730  25.191   2.245   7.304
 4501POPC   NC357731  37.880  22.329   5.427
 4501POPC   PO457732  37.164  22.131   5.553
 4501POPC   GL157733  37.563  22.311   5.836
 4501POPC   GL257734  37.981  22.265   5.917
 4501POPC   C1A57735  37.692  22.529   6.234
 4501POPC   D2A57736  37.959  22.440   6.593
 4501POPC   C3A57737  37.683  22.462   6.935
 4501POPC   C4A57738  37.626  22.293   7.358
 4501POPC   C1B57739  37.808  22.018   6.270
 4501POPC   C2B57740  37.906  21.875   6.707
 4501POPC   C3B57741  37.924  21.873   7.167
 4501POPC   C4B57742  37.799  21.878   7.610
 4502POPC   NC357743  17.589  11.651   5.483
 4502POPC   PO457744  17.942  11.133   5.505
 4502POPC   GL157745  17.659  11.304   5.849
 4502POPC   GL257746  17.689  11.666   5.968
 4502POPC   C1A57747  17.581  11.228   6.264
 4502POPC   D2A57748  17.788  11.183   6.649
 4502POPC   C3A57749  17.532  11.136   7.002
 4502POPC   C4A57750  17.803  10.954   7.264
 4502POPC   C1B57751  17.313  11.640   6.172
 4502POPC   C2B57752  17.248  11.454   6.584
 4502POPC   C3B57753  17.250  11.566   7.003
 4502POPC   C4B57754  17.098  11.300   7.282
 4503POPC   NC357755   6.411  22.377   5.352
 4503POPC   PO457756   6.904  21.894   5.482
 4503POPC   GL157757   6.575  22.065   5.730
 4503POPC   GL257758   6.739  22.412   5.759
 4503POPC   C1A57759   6.424  22.256   6.112
 4503POPC   D2A57760   6.335  22.084   6.497
 4503POPC   C3A57761   6.606  22.124   6.824
 4503POPC   C4A57762   6.497  22.155   7.221
 4503POPC   C1B57763   6.804  22.616   6.156
 4503POPC   C2B57764   6.660  22.573   6.575
 4503POPC   C3B57765   6.793  22.637   6.995
 4503POPC   C4B57766   6.691  22.539   7.450
 4504POPC   NC357767  16.286  23.340   5.425
 4504POPC   PO457768  15.820  23.900   5.390
 4504POPC   GL157769  15.780  23.839   5.823
 4504POPC   GL257770  16.121  23.692   5.840
 4504POPC   C1A57771  15.654  23.603   6.206
 4504POPC   D2A57772  15.872  23.437   6.594
 4504POPC   C3A57773  15.713  23.600   7.002
 4504POPC   C4A57774  15.666  24.048   7.100
 4504POPC   C1B57775  16.120  23.758   6.293
 4504POPC   C2B57776  16.019  23.930   6.711
 4504POPC   C3B57777  16.185  23.720   7.094
 4504POPC   C4B57778  16.443  23.584   7.420
 4505POPC   NC357779   8.656  36.645   5.566
 4505POPC   PO457780   8.151  36.976   5.227
 4505POPC   GL157781   7.991  36.935   5.662
 4505POPC   GL257782   8.182  36.658   5.891
 4505POPC   C1A57783   7.907  37.069   6.080
 4505POPC   D2A57784   8.135  37.073   6.463
 4505POPC   C3A57785   7.993  37.003   6.886
 4505POPC   C4A57786   8.176  37.120   7.294
 4505POPC   C1B57787   8.063  36.549   6.358
 4505POPC   C2B57788   8.022  36.471   6.828
 4505POPC   C3B57789   8.084  36.585   7.289
 4505POPC   C4B57790   8.124  36.406   7.732
 4506POPC   NC357791   8.094  38.138   5.383
 4506POPC   PO457792   8.485  38.614   5.572
 4506POPC   GL157793   8.256  38.376   5.881
 4506POPC   GL257794   7.984  38.588   5.875
 4506POPC   C1A57795   8.080  38.374   6.330
 4506POPC   D2A57796   8.011  38.649   6.700
 4506POPC   C3A57797   8.160  38.411   7.066
 4506POPC   C4A57798   8.336  38.462   7.470
 4506POPC   C1B57799   8.212  38.852   6.220
 4506POPC   C2B57800   8.431  38.960   6.616
 4506POPC   C3B57801   8.287  38.964   7.062
 4506POPC   C4B57802   8.199  38.974   7.549
 4507POPC   NC357803  33.928   5.629   5.342
 4507POPC   PO457804  33.628   6.166   5.510
 4507POPC   GL157805  33.593   5.883   5.865
 4507POPC   GL257806  33.540   5.527   5.830
 4507POPC   C1A57807  33.462   5.791   6.299
 4507POPC   D2A57808  33.328   5.809   6.760
 4507POPC   C3A57809  33.681   5.826   7.074
 4507POPC   C4A57810  33.816   5.983   7.499
 4507POPC   C1B57811  33.847   5.477   6.169
 4507POPC   C2B57812  34.139   5.617   6.476
 4507POPC   C3B57813  34.166   5.532   6.908
 4507POPC   C4B57814  34.188   5.688   7.332
 4508POPC   NC357815  41.407   0.022   5.189
 4508POPC   PO457816  41.632  44.447   5.540
 4508POPC   GL157817  41.410  44.743   5.856
 4508POPC   GL257818  41.576  44.494   6.042
 4508POPC   C1A57819  41.196  44.672   6.285
 4508POPC   D2A57820  41.427  44.423   6.583
 4508POPC   C3A57821  41.284  44.574   6.963
 4508POPC   C4A57822  41.352  44.865   7.325
 4508POPC   C1B57823  41.659  44.869   6.341
 4508POPC   C2B57824  41.634  44.929   6.794
 4508POPC   C3B57825  41.765  44.641   7.113
 4508POPC   C4B57826  41.641  44.464   7.516
 4509POPC   NC357827   7.394  33.526   5.481
 4509POPC   PO457828   7.171  34.131   5.282
 4509POPC   GL157829   7.096  33.871   5.701
 4509POPC   GL257830   7.440  33.870   5.860
 4509POPC   C1A57831   7.094  33.670   6.159
 4509POPC   D2A57832   7.256  33.814   6.545
 4509POPC   C3A57833   7.317  33.591   6.916
 4509POPC   C4A57834   7.254  33.713   7.316
 4509POPC   C1B57835   7.687  33.740   6.239
 4509POPC   C2B57836   7.787  33.671   6.682
 4509POPC   C3B57837   7.738  33.791   7.121
 4509POPC   C4B57838   7.870  34.035   7.476
 4510POPC   NC357839  28.349   2.306   5.384
 4510POPC   PO457840  28.412   1.604   5.409
 4510POPC   GL157841  28.233   1.867   5.783
 4510POPC   GL257842  28.096   2.213   5.821
 4510POPC   C1A57843  28.102   1.907   6.238
 4510POPC   D2A57844  28.179   2.074   6.681
 4510POPC   C3A57845  28.121   1.829   7.063
 4510POPC   C4A57846  28.341   1.761   7.468
 4510POPC   C1B57847  28.279   2.384   6.251
 4510POPC   C2B57848  28.100   2.593   6.616
 4510POPC   C3B57849  27.929   2.421   6.983
 4510POPC   C4B57850  28.344   2.332   7.147
 4511POPC   NC357851  18.761   0.504   5.543
 4511POPC   PO457852  19.446   0.457   5.651
 4511POPC   GL157853  19.197   0.318   5.947
 4511POPC   GL257854  18.851   0.416   6.030
 4511POPC   C1A57855  19.282   0.287   6.351
 4511POPC   D2A57856  19.079   0.492   6.661
 4511POPC   C3A57857  19.347   0.357   6.926
 4511POPC   C4A57858  19.457   0.376   7.325
 4511POPC   C1B57859  18.801   0.097   6.350
 4511POPC   C2B57860  19.005  44.983   6.737
 4511POPC   C3B57861  18.915   0.210   7.125
 4511POPC   C4B57862  18.607   0.558   7.175
 4512POPC   NC357863  19.705  17.541   5.603
 4512POPC   PO457864  20.228  17.906   5.544
 4512POPC   GL157865  20.096  17.601   5.904
 4512POPC   GL257866  19.838  17.790   6.043
 4512POPC   C1A57867  19.763  17.290   6.200
 4512POPC   D2A57868  19.432  17.235   6.566
 4512POPC   C3A57869  19.619  17.158   6.978
 4512POPC   C4A57870  19.813  17.488   7.222
 4512POPC   C1B57871  20.107  17.600   6.396
 4512POPC   C2B57872  20.082  17.412   6.779
 4512POPC   C3B57873  20.288  17.605   7.104
 4512POPC   C4B57874  20.232  17.484   7.532
 4513POPC   NC357875  37.387   0.448   5.434
 4513POPC   PO457876  38.015   0.283   5.326
 4513POPC   GL157877  37.818   0.558   5.714
 4513POPC   GL257878  37.485   0.431   5.922
 4513POPC   C1A57879  37.789   0.759   6.144
 4513POPC   D2A57880  37.553   0.619   6.512
 4513POPC   C3A57881  37.559   0.819   6.900
 4513POPC   C4A57882  37.217   0.709   7.175
 4513POPC   C1B57883  37.741   0.232   6.248
 4513POPC   C2B57884  37.670   0.111   6.649
 4513POPC   C3B57885  37.725   0.338   7.002
 4513POPC   C4B57886  37.587   0.303   7.394
 4514POPC   NC357887  15.501  18.331   5.380
 4514POPC   PO457888  14.987  18.069   5.599
 4514POPC   GL157889  15.184  18.235   5.929
 4514POPC   GL257890  15.547  18.305   5.898
 4514POPC   C1A57891  14.975  18.208   6.348
 4514POPC   D2A57892  14.817  18.208   6.769
 4514POPC   C3A57893  15.085  18.067   7.086
 4514POPC   C4A57894  15.217  18.233   7.511
 4514POPC   C1B57895  15.416  18.489   6.299
 4514POPC   C2B57896  15.333  18.340   6.698
 4514POPC   C3B57897  15.249  18.532   7.068
 4514POPC   C4B57898  15.518  18.622   7.345
 4515POPC   NC357899  44.861  17.134   5.464
 4515POPC   PO457900  44.615  16.477   5.411
 4515POPC   GL157901  44.396  16.639   5.790
 4515POPC   GL257902  44.600  16.911   5.823
 4515POPC   C1A57903  44.547  16.634   6.251
 4515POPC   D2A57904  44.925  16.533   6.543
 4515POPC   C3A57905  44.831  16.483   6.987
 4515POPC   C4A57906   0.033  16.618   7.348
 4515POPC   C1B57907  44.859  17.056   6.170
 4515POPC   C2B57908  44.750  17.096   6.617
 4515POPC   C3B57909  44.836  17.041   7.059
 4515POPC   C4B57910  44.618  16.921   7.442
 4516POPC   NC357911  30.034   3.766   5.369
 4516POPC   PO457912  30.416   3.178   5.346
 4516POPC   GL157913  30.119   3.342   5.669
 4516POPC   GL257914  29.744   3.451   5.642
 4516POPC   C1A57915  29.939   3.256   6.086
 4516POPC   D2A57916  30.031   3.108   6.502
 4516POPC   C3A57917  29.857   3.322   6.838
 4516POPC   C4A57918  30.054   3.337   7.243
 4516POPC   C1B57919  29.798   3.744   6.025
 4516POPC   C2B57920  29.958   3.758   6.448
 4516POPC   C3B57921  29.983   3.824   6.881
 4516POPC   C4B57922  30.030   3.857   7.282
 4517POPC   NC357923   9.158  26.431   5.192
 4517POPC   PO457924   8.624  26.167   5.513
 4517POPC   GL157925   8.912  26.315   5.831
 4517POPC   GL257926   8.761  26.080   6.052
 4517POPC   C1A57927   9.162  26.333   6.254
 4517POPC   D2A57928   9.252  26.145   6.665
 4517POPC   C3A57929   8.943  26.348   6.947
 4517POPC   C4A57930   9.081  26.664   7.284
 4517POPC   C1B57931   9.020  25.853   6.323
 4517POPC   C2B57932   8.851  25.823   6.729
 4517POPC   C3B57933   8.778  25.839   7.135
 4517POPC   C4B57934   8.473  25.833   7.444
 4518POPC   NC357935  28.051   7.606   5.548
 4518POPC   PO457936  28.620   7.225   5.631
 4518POPC   GL157937  28.413   7.363   5.956
 4518POPC   GL257938  28.371   7.712   5.947
 4518POPC   C1A57939  28.548   7.468   6.370
 4518POPC   D2A57940  28.329   7.500   6.754
 4518POPC   C3A57941  28.668   7.394   7.029
 4518POPC   C4A57942  28.737   7.409   7.476
 4518POPC   C1B57943  28.110   7.743   6.328
 4518POPC   C2B57944  27.900   7.855   6.725
 4518POPC   C3B57945  28.076   7.848   7.146
 4518POPC   C4B57946  28.242   7.484   7.260
 4519POPC   NC357947   5.469  29.986   5.193
 4519POPC   PO457948   4.912  29.675   5.379
 4519POPC   GL157949   5.168  29.711   5.768
 4519POPC   GL257950   5.515  29.588   5.734
 4519POPC   C1A57951   5.200  29.824   6.228
 4519POPC   D2A57952   5.026  29.854   6.641
 4519POPC   C3A57953   4.967  30.244   6.901
 4519POPC   C4A57954   4.878  30.187   7.361
 4519POPC   C1B57955   5.687  29.617   6.175
 4519POPC   C2B57956   5.673  29.815   6.596
 4519POPC   C3B57957   5.465  30.016   6.960
 4519POPC   C4B57958   5.140  29.821   7.142
 4520POPC   NC357959  28.048  19.258   5.327
 4520POPC   PO457960  27.903  18.517   5.498
 4520POPC   GL157961  28.147  18.709   5.817
 4520POPC   GL257962  28.304  19.010   5.692
 4520POPC   C1A57963  28.193  18.966   6.191
 4520POPC   D2A57964  28.163  19.206   6.562
 4520POPC   C3A57965  28.000  19.023   6.918
 4520POPC   C4A57966  28.124  19.100   7.302
 4520POPC   C1B57967  28.640  19.141   5.998
 4520POPC   C2B57968  28.664  19.048   6.450
 4520POPC   C3B57969  28.591  19.079   6.901
 4520POPC   C4B57970  28.679  19.330   7.279
 4521POPC   NC357971  12.269  40.633   5.488
 4521POPC   PO457972  11.768  41.105   5.369
 4521POPC   GL157973  11.920  40.930   5.767
 4521POPC   GL257974  12.227  41.119   5.826
 4521POPC   C1A57975  11.973  40.951   6.254
 4521POPC   D2A57976  12.141  40.625   6.543
 4521POPC   C3A57977  12.128  40.716   6.976
 4521POPC   C4A57978  11.874  40.692   7.311
 4521POPC   C1B57979  12.467  41.055   6.213
 4521POPC   C2B57980  12.348  41.092   6.660
 4521POPC   C3B57981  12.303  41.173   7.104
 4521POPC   C4B57982  12.253  40.927   7.536
 4522POPC   NC357983  36.072  35.014   5.209
 4522POPC   PO457984  36.025  35.650   5.331
 4522POPC   GL157985  35.872  35.401   5.661
 4522POPC   GL257986  36.115  35.176   5.766
 4522POPC   C1A57987  35.908  35.461   6.117
 4522POPC   D2A57988  36.050  35.247   6.464
 4522POPC   C3A57989  35.953  35.413   6.833
 4522POPC   C4A57990  36.078  35.260   7.219
 4522POPC   C1B57991  36.379  35.052   6.128
 4522POPC   C2B57992  36.469  34.911   6.571
 4522POPC   C3B57993  36.489  35.009   7.033
 4522POPC   C4B57994  36.356  34.949   7.501
 4523POPC   NC357995  26.769   4.724   5.574
 4523POPC   PO457996  26.902   4.116   5.348
 4523POPC   GL157997  26.864   4.217   5.783
 4523POPC   GL257998  27.111   4.457   5.915
 4523POPC   C1A57999  26.559   4.342   6.139
 4523POPC   D2A58000  26.458   4.590   6.550
 4523POPC   C3A58001  26.675   4.468   6.974
 4523POPC   C4A58002  26.517   4.621   7.374
 4523POPC   C1B58003  27.056   4.425   6.370
 4523POPC   C2B58004  26.752   4.162   6.577
 4523POPC   C3B58005  26.687   3.900   6.906
 4523POPC   C4B58006  26.880   4.006   7.268
 4524POPC   NC358007  26.388  43.330   5.370
 4524POPC   PO458008  26.926  43.773   5.359
 4524POPC   GL158009  26.911  43.697   5.822
 4524POPC   GL258010  26.556  43.648   5.830
 4524POPC   C1A58011  26.853  43.939   6.248
 4524POPC   D2A58012  26.746  44.239   6.623
 4524POPC   C3A58013  26.780  44.020   7.032
 4524POPC   C4A58014  27.075  43.686   7.113
 4524POPC   C1B58015  26.576  43.508   6.256
 4524POPC   C2B58016  26.764  43.572   6.671
 4524POPC   C3B58017  26.564  43.554   7.082
 4524POPC   C4B58018  26.412  43.699   7.496
 4525POPC   NC358019  33.989  11.138   5.548
 4525POPC   PO458020  33.386  11.506   5.428
 4525POPC   GL158021  33.428  11.351   5.841
 4525POPC   GL258022  33.426  11.008   5.843
 4525POPC   C1A58023  33.328  11.508   6.267
 4525POPC   D2A58024  33.611  11.596   6.598
 4525POPC   C3A58025  33.596  11.467   7.013
 4525POPC   C4A58026  33.938  11.609   7.259
 4525POPC   C1B58027  33.563  11.039   6.264
 4525POPC   C2B58028  33.727  11.037   6.674
 4525POPC   C3B58029  34.033  11.183   6.945
 4525POPC   C4B58030  33.955  11.058   7.343
 4526POPC   NC358031  24.795  14.513   5.365
 4526POPC   PO458032  24.502  13.894   5.529
 4526POPC   GL158033  24.345  14.258   5.798
 4526POPC   GL258034  24.530  14.581   5.836
 4526POPC   C1A58035  24.295  14.376   6.239
 4526POPC   D2A58036  24.461  14.541   6.619
 4526POPC   C3A58037  24.253  14.536   7.018
 4526POPC   C4A58038  24.320  14.578   7.451
 4526POPC   C1B58039  24.622  14.869   6.226
 4526POPC   C2B58040  24.865  14.832   6.634
 4526POPC   C3B58041  24.835  14.680   7.066
 4526POPC   C4B58042  24.793  14.852   7.503
 4527POPC   NC358043  38.789  24.955   5.328
 4527POPC   PO458044  38.403  24.248   5.357
 4527POPC   GL158045  38.502  24.481   5.815
 4527POPC   GL258046  38.634  24.833   5.808
 4527POPC   C1A58047  38.755  24.584   6.239
 4527POPC   D2A58048  38.689  24.668   6.686
 4527POPC   C3A58049  38.353  24.457   6.923
 4527POPC   C4A58050  38.411  24.430   7.367
 4527POPC   C1B58051  38.301  24.855   6.160
 4527POPC   C2B58052  38.254  24.959   6.628
 4527POPC   C3B58053  38.351  24.931   7.102
 4527POPC   C4B58054  38.311  24.871   7.577
 4528POPC   NC358055  24.500   9.593   5.258
 4528POPC   PO458056  24.358  10.198   5.525
 4528POPC   GL158057  24.559   9.941   5.822
 4528POPC   GL258058  24.582   9.607   5.751
 4528POPC   C1A58059  24.327   9.770   6.183
 4528POPC   D2A58060  24.505   9.927   6.542
 4528POPC   C3A58061  24.643   9.846   6.946
 4528POPC   C4A58062  24.525   9.996   7.352
 4528POPC   C1B58063  24.787   9.578   6.156
 4528POPC   C2B58064  24.934   9.617   6.541
 4528POPC   C3B58065  24.954   9.441   6.921
 4528POPC   C4B58066  24.608   9.412   7.240
 4529POPC   NC358067  42.164  35.103   5.531
 4529POPC   PO458068  42.452  34.500   5.593
 4529POPC   GL158069  42.248  34.752   5.906
 4529POPC   GL258070  42.454  35.065   5.959
 4529POPC   C1A58071  42.177  34.676   6.342
 4529POPC   D2A58072  42.483  34.465   6.663
 4529POPC   C3A58073  42.392  34.511   7.098
 4529POPC   C4A58074  42.013  34.501   7.362
 4529POPC   C1B58075  42.504  35.138   6.422
 4529POPC   C2B58076  42.301  34.940   6.745
 4529POPC   C3B58077  42.079  34.930   7.100
 4529POPC   C4B58078  42.302  34.915   7.476
 4530POPC   NC358079  27.161  20.550   5.676
 4530POPC   PO458080  26.503  20.494   5.308
 4530POPC   GL158081  26.392  20.452   5.781
 4530POPC   GL258082  26.643  20.664   5.841
 4530POPC   C1A58083  26.359  20.322   6.230
 4530POPC   D2A58084  26.604  20.317   6.653
 4530POPC   C3A58085  26.560  20.502   7.051
 4530POPC   C4A58086  26.488  20.312   7.447
 4530POPC   C1B58087  26.762  20.639   6.269
 4530POPC   C2B58088  26.682  20.865   6.644
 4530POPC   C3B58089  26.857  20.893   7.035
 4530POPC   C4B58090  26.588  21.030   7.327
 4531POPC   NC358091  39.393  42.675   5.522
 4531POPC   PO458092  38.891  43.022   5.261
 4531POPC   GL158093  39.087  43.075   5.723
 4531POPC   GL258094  39.487  43.119   5.759
 4531POPC   C1A58095  39.194  43.336   6.142
 4531POPC   D2A58096  39.413  43.253   6.553
 4531POPC   C3A58097  39.205  43.256   6.940
 4531POPC   C4A58098  39.303  43.277   7.341
 4531POPC   C1B58099  39.682  43.078   6.164
 4531POPC   C2B58100  39.612  42.786   6.529
 4531POPC   C3B58101  39.632  42.940   6.976
 4531POPC   C4B58102  39.546  42.824   7.404
 4532POPC   NC358103  36.948   4.565   5.633
 4532POPC   PO458104  36.865   4.186   5.207
 4532POPC   GL158105  36.993   4.044   5.661
 4532POPC   GL258106  36.727   3.872   5.866
 4532POPC   C1A58107  37.087   4.122   6.118
 4532POPC   D2A58108  37.057   3.956   6.544
 4532POPC   C3A58109  37.024   4.272   6.852
 4532POPC   C4A58110  37.012   4.459   7.288
 4532POPC   C1B58111  36.597   3.978   6.308
 4532POPC   C2B58112  36.441   3.915   6.771
 4532POPC   C3B58113  36.704   4.000   7.168
 4532POPC   C4B58114  37.179   3.962   7.228
 4533POPC   NC358115  41.785  26.263   5.482
 4533POPC   PO458116  41.301  25.812   5.419
 4533POPC   GL158117  41.464  25.974   5.786
 4533POPC   GL258118  41.787  25.813   5.830
 4533POPC   C1A58119  41.413  25.928   6.215
 4533POPC   D2A58120  41.594  25.961   6.608
 4533POPC   C3A58121  41.294  25.977   6.924
 4533POPC   C4A58122  41.303  26.215   7.262
 4533POPC   C1B58123  41.856  26.161   6.131
 4533POPC   C2B58124  41.886  26.373   6.534
 4533POPC   C3B58125  41.882  26.276   6.971
 4533POPC   C4B58126  41.789  25.843   7.078
 4534POPC   NC358127  17.578   3.394   5.270
 4534POPC   PO458128  17.317   3.991   5.470
 4534POPC   GL158129  17.403   3.622   5.743
 4534POPC   GL258130  17.131   3.500   5.634
 4534POPC   C1A58131  17.533   3.423   6.172
 4534POPC   D2A58132  17.716   3.582   6.580
 4534POPC   C3A58133  17.680   3.361   6.997
 4534POPC   C4A58134  17.901   3.391   7.397
 4534POPC   C1B58135  17.043   3.571   6.090
 4534POPC   C2B58136  17.199   3.636   6.517
 4534POPC   C3B58137  17.294   3.711   6.973
 4534POPC   C4B58138  17.381   3.492   7.397
 4535POPC   NC358139  26.552  39.048   5.471
 4535POPC   PO458140  27.114  39.365   5.538
 4535POPC   GL158141  26.931  39.121   5.878
 4535POPC   GL258142  26.565  39.130   5.960
 4535POPC   C1A58143  27.092  38.989   6.291
 4535POPC   D2A58144  27.285  39.014   6.728
 4535POPC   C3A58145  27.009  38.905   7.069
 4535POPC   C4A58146  26.740  39.179   7.270
 4535POPC   C1B58147  26.685  39.331   6.317
 4535POPC   C2B58148  26.748  39.126   6.691
 4535POPC   C3B58149  26.556  38.771   6.864
 4535POPC   C4B58150  26.585  38.696   7.288
 4536POPC   NC358151   8.843  17.302   5.547
 4536POPC   PO458152   9.479  17.449   5.518
 4536POPC   GL158153   9.194  17.520   5.834
 4536POPC   GL258154   9.076  17.196   5.979
 4536POPC   C1A58155   8.894  17.660   6.141
 4536POPC   D2A58156   8.790  17.833   6.537
 4536POPC   C3A58157   8.697  17.583   6.883
 4536POPC   C4A58158   8.926  17.631   7.255
 4536POPC   C1B58159   8.718  17.111   6.236
 4536POPC   C2B58160   8.761  17.116   6.659
 4536POPC   C3B58161   8.567  17.094   7.048
 4536POPC   C4B58162   8.776  17.177   7.426
 4537POPC   NC358163  24.479  33.535   5.183
 4537POPC   PO458164  24.360  32.957   5.371
 4537POPC   GL158165  24.410  33.036   5.843
 4537POPC   GL258166  24.739  32.894   5.914
 4537POPC   C1A58167  24.562  33.303   6.240
 4537POPC   D2A58168  24.576  33.255   6.707
 4537POPC   C3A58169  24.265  33.193   7.041
 4537POPC   C4A58170  24.326  33.079   7.501
 4537POPC   C1B58171  24.773  32.827   6.365
 4537POPC   C2B58172  24.821  32.845   6.804
 4537POPC   C3B58173  24.602  32.839   7.161
 4537POPC   C4B58174  24.758  32.683   7.574
 4538POPC   NC358175  20.773   3.749   5.464
 4538POPC   PO458176  20.336   3.255   5.437
 4538POPC   GL158177  20.498   3.539   5.820
 4538POPC   GL258178  20.855   3.454   5.859
 4538POPC   C1A58179  20.413   3.467   6.280
 4538POPC   D2A58180  20.253   3.730   6.633
 4538POPC   C3A58181  20.237   3.698   7.087
 4538POPC   C4A58182  20.381   3.867   7.510
 4538POPC   C1B58183  20.913   3.612   6.244
 4538POPC   C2B58184  20.812   3.435   6.626
 4538POPC   C3B58185  20.988   3.574   6.974
 4538POPC   C4B58186  20.688   3.547   7.262
 4539POPC   NC358187  18.561  26.712   5.472
 4539POPC   PO458188  19.183  26.543   5.409
 4539POPC   GL158189  19.014  26.778   5.752
 4539POPC   GL258190  18.838  26.506   5.889
 4539POPC   C1A58191  19.155  26.824   6.195
 4539POPC   D2A58192  19.134  26.566   6.581
 4539POPC   C3A58193  19.176  26.827   6.941
 4539POPC   C4A58194  19.472  26.792   7.233
 4539POPC   C1B58195  18.694  26.634   6.301
 4539POPC   C2B58196  18.664  26.674   6.760
 4539POPC   C3B58197  18.782  26.598   7.184
 4539POPC   C4B58198  18.823  26.515   7.627
 4540POPC   NC358199   1.273   7.865   5.508
 4540POPC   PO458200   1.378   8.413   5.150
 4540POPC   GL158201   1.290   8.383   5.688
 4540POPC   GL258202   1.127   8.091   5.909
 4540POPC   C1A58203   1.388   8.365   6.203
 4540POPC   D2A58204   1.598   8.447   6.606
 4540POPC   C3A58205   1.316   8.458   6.970
 4540POPC   C4A58206   1.446   8.531   7.396
 4540POPC   C1B58207   1.003   7.883   6.289
 4540POPC   C2B58208   1.226   8.041   6.641
 4540POPC   C3B58209   1.399   7.961   7.054
 4540POPC   C4B58210   1.136   8.126   7.338
 4541POPC   NC358211  17.941  18.750   5.363
 4541POPC   PO458212  17.673  19.440   5.132
 4541POPC   GL158213  17.713  19.126   5.611
 4541POPC   GL258214  17.658  18.846   5.800
 4541POPC   C1A58215  17.499  19.203   6.092
 4541POPC   D2A58216  17.305  19.254   6.521
 4541POPC   C3A58217  17.541  19.307   6.914
 4541POPC   C4A58218  17.674  19.182   7.328
 4541POPC   C1B58219  17.435  18.645   6.141
 4541POPC   C2B58220  17.283  18.733   6.571
 4541POPC   C3B58221  17.447  18.790   7.005
 4541POPC   C4B58222  17.228  18.969   7.358
 4542POPC   NC358223  25.032  35.936   5.673
 4542POPC   PO458224  25.669  36.069   5.458
 4542POPC   GL158225  25.477  36.079   5.885
 4542POPC   GL258226  25.275  35.814   6.100
 4542POPC   C1A58227  25.541  36.245   6.275
 4542POPC   D2A58228  25.733  36.045   6.599
 4542POPC   C3A58229  25.539  36.113   6.985
 4542POPC   C4A58230  25.378  36.212   7.406
 4542POPC   C1B58231  24.907  36.018   6.300
 4542POPC   C2B58232  24.752  36.072   6.701
 4542POPC   C3B58233  25.021  36.112   7.046
 4542POPC   C4B58234  24.903  36.453   7.302
 4543POPC   NC358235  42.864  44.981   5.512
 4543POPC   PO458236  43.217  44.436   5.260
 4543POPC   GL158237  43.158  44.607   5.696
 4543POPC   GL258238  43.034  44.352   5.868
 4543POPC   C1A58239  43.233  44.726   6.179
 4543POPC   D2A58240  43.266  44.557   6.607
 4543POPC   C3A58241  43.328  44.816   6.954
 4543POPC   C4A58242  42.994  45.000   7.162
 4543POPC   C1B58243  42.813  44.465   6.249
 4543POPC   C2B58244  42.756  44.370   6.667
 4543POPC   C3B58245  42.913  44.509   7.051
 4543POPC   C4B58246  42.939  44.578   7.512
 4544POPC   NC358247  37.834  39.603   5.511
 4544POPC   PO458248  37.626  38.921   5.422
 4544POPC   GL158249  37.656  39.177   5.800
 4544POPC   GL258250  37.399  39.413   5.849
 4544POPC   C1A58251  37.713  39.269   6.267
 4544POPC   D2A58252  37.879  39.281   6.680
 4544POPC   C3A58253  37.587  39.091   6.951
 4544POPC   C4A58254  37.474  39.100   7.394
 4544POPC   C1B58255  37.415  39.658   6.254
 4544POPC   C2B58256  37.372  39.556   6.708
 4544POPC   C3B58257  37.614  39.581   7.095
 4544POPC   C4B58258  37.928  39.308   7.303
 4545POPC   NC358259   8.604  42.182   5.373
 4545POPC   PO458260   9.198  42.498   5.330
 4545POPC   GL158261   9.193  42.277   5.769
 4545POPC   GL258262   8.901  42.416   5.932
 4545POPC   C1A58263   9.083  42.021   6.187
 4545POPC   D2A58264   8.794  42.099   6.553
 4545POPC   C3A58265   8.986  42.033   6.974
 4545POPC   C4A58266   9.200  42.397   7.165
 4545POPC   C1B58267   8.598  42.548   6.257
 4545POPC   C2B58268   8.505  42.515   6.677
 4545POPC   C3B58269   8.679  42.422   7.075
 4545POPC   C4B58270   8.567  42.086   7.409
 4546POPC   NC358271   8.119  19.036   5.287
 4546POPC   PO458272   8.534  18.654   5.645
 4546POPC   GL158273   8.250  18.939   5.892
 4546POPC   GL258274   7.887  18.856   5.901
 4546POPC   C1A58275   8.104  19.157   6.299
 4546POPC   D2A58276   8.137  19.340   6.733
 4546POPC   C3A58277   8.280  19.045   7.029
 4546POPC   C4A58278   8.598  18.867   7.254
 4546POPC   C1B58279   7.826  18.696   6.339
 4546POPC   C2B58280   7.836  18.639   6.815
 4546POPC   C3B58281   7.783  18.943   7.108
 4546POPC   C4B58282   7.961  19.321   7.312
 4547POPC   NC358283   7.224  40.351   5.349
 4547POPC   PO458284   7.197  39.692   5.277
 4547POPC   GL158285   7.219  39.937   5.669
 4547POPC   GL258286   7.511  40.149   5.753
 4547POPC   C1A58287   7.204  39.964   6.134
 4547POPC   D2A58288   7.379  39.982   6.566
 4547POPC   C3A58289   7.135  39.720   6.856
 4547POPC   C4A58290   6.980  39.832   7.240
 4547POPC   C1B58291   7.592  40.316   6.189
 4547POPC   C2B58292   7.806  40.341   6.598
 4547POPC   C3B58293   7.729  40.168   7.002
 4547POPC   C4B58294   7.422  40.143   7.344
 4548POPC   NC358295  25.713  21.579   5.407
 4548POPC   PO458296  26.295  21.326   5.430
 4548POPC   GL158297  26.152  21.243   5.816
 4548POPC   GL258298  25.863  21.200   5.742
 4548POPC   C1A58299  26.149  21.411   6.204
 4548POPC   D2A58300  26.206  21.156   6.559
 4548POPC   C3A58301  26.113  21.378   6.922
 4548POPC   C4A58302  26.257  21.498   7.324
 4548POPC   C1B58303  25.727  21.146   6.159
 4548POPC   C2B58304  25.738  21.314   6.557
 4548POPC   C3B58305  25.633  21.223   6.971
 4548POPC   C4B58306  25.886  21.139   7.314
 4549POPC   NC358307   8.604  34.981   5.379
 4549POPC   PO458308   8.038  35.404   5.280
 4549POPC   GL158309   8.154  35.517   5.716
 4549POPC   GL258310   7.812  35.500   5.764
 4549POPC   C1A58311   8.324  35.530   6.164
 4549POPC   D2A58312   8.623  35.511   6.528
 4549POPC   C3A58313   8.487  35.602   6.961
 4549POPC   C4A58314   8.329  35.247   7.237
 4549POPC   C1B58315   7.848  35.315   6.153
 4549POPC   C2B58316   7.917  35.563   6.507
 4549POPC   C3B58317   8.010  35.375   6.874
 4549POPC   C4B58318   7.799  35.244   7.248
 4550POPC   NC358319  33.086  25.617   5.383
 4550POPC   PO458320  33.247  24.955   5.295
 4550POPC   GL158321  33.135  25.165   5.709
 4550POPC   GL258322  32.778  25.129   5.841
 4550POPC   C1A58323  33.146  25.096   6.180
 4550POPC   D2A58324  32.923  25.182   6.565
 4550POPC   C3A58325  33.131  25.147   6.934
 4550POPC   C4A58326  33.048  25.304   7.291
 4550POPC   C1B58327  32.702  25.432   6.174
 4550POPC   C2B58328  32.733  25.666   6.559
 4550POPC   C3B58329  32.669  25.456   6.953
 4550POPC   C4B58330  32.547  25.447   7.370
 4551POPC   NC358331  20.004  27.727   5.289
 4551POPC   PO458332  19.517  27.345   5.411
 4551POPC   GL158333  19.729  27.608   5.752
 4551POPC   GL258334  20.082  27.769   5.792
 4551POPC   C1A58335  19.580  27.651   6.176
 4551POPC   D2A58336  19.717  27.514   6.572
 4551POPC   C3A58337  19.558  27.754   6.902
 4551POPC   C4A58338  19.546  27.636   7.298
 4551POPC   C1B58339  20.094  27.626   6.232
 4551POPC   C2B58340  20.235  27.463   6.643
 4551POPC   C3B58341  20.136  27.492   7.105
 4551POPC   C4B58342  20.007  27.865   7.342
 4552POPC   NC358343  41.603  40.515   5.396
 4552POPC   PO458344  41.655  41.075   5.755
 4552POPC   GL158345  41.407  40.791   5.966
 4552POPC   GL258346  41.629  40.505   5.891
 4552POPC   C1A58347  41.248  40.998   6.341
 4552POPC   D2A58348  41.520  41.245   6.602
 4552POPC   C3A58349  41.534  41.094   6.996
 4552POPC   C4A58350  41.408  40.731   7.213
 4552POPC   C1B58351  41.880  40.587   6.231
 4552POPC   C2B58352  41.921  40.848   6.573
 4552POPC   C3B58353  41.867  40.701   6.970
 4552POPC   C4B58354  41.805  40.399   7.271
 4553POPC   NC358355  17.776   3.924   5.589
 4553POPC   PO458356  18.346   4.308   5.344
 4553POPC   GL158357  18.455   4.420   5.773
 4553POPC   GL258358  18.236   4.164   5.931
 4553POPC   C1A58359  18.479   4.537   6.216
 4553POPC   D2A58360  18.416   4.324   6.620
 4553POPC   C3A58361  18.251   4.615   6.931
 4553POPC   C4A58362  18.258   4.581   7.365
 4553POPC   C1B58363  17.984   4.174   6.330
 4553POPC   C2B58364  18.037   3.969   6.714
 4553POPC   C3B58365  18.182   4.122   7.110
 4553POPC   C4B58366  17.915   4.219   7.454
 4554POPC   NC358367  20.413  35.481   5.151
 4554POPC   PO458368  19.811  35.650   5.562
 4554POPC   GL158369  19.867  35.497   5.960
 4554POPC   GL258370  19.958  35.189   5.912
 4554POPC   C1A58371  19.726  35.360   6.384
 4554POPC   D2A58372  19.534  35.647   6.718
 4554POPC   C3A58373  19.655  35.564   7.148
 4554POPC   C4A58374  19.750  35.340   7.549
 4554POPC   C1B58375  20.159  34.946   6.250
 4554POPC   C2B58376  20.163  35.054   6.665
 4554POPC   C3B58377  19.829  35.130   6.942
 4554POPC   C4B58378  19.916  34.947   7.295
 4555POPC   NC358379  37.373   1.123   5.254
 4555POPC   PO458380  36.870   1.512   5.452
 4555POPC   GL158381  36.766   1.324   5.850
 4555POPC   GL258382  36.893   0.991   5.864
 4555POPC   C1A58383  36.883   1.239   6.301
 4555POPC   D2A58384  36.730   1.467   6.629
 4555POPC   C3A58385  36.934   1.520   6.978
 4555POPC   C4A58386  36.698   1.507   7.313
 4555POPC   C1B58387  37.124   0.744   6.192
 4555POPC   C2B58388  37.061   0.753   6.624
 4555POPC   C3B58389  36.823   1.009   6.879
 4555POPC   C4B58390  36.827   1.016   7.293
 4556POPC   NC358391  28.809   5.276   5.630
 4556POPC   PO458392  29.125   4.744   5.283
 4556POPC   GL158393  29.107   4.818   5.791
 4556POPC   GL258394  29.250   5.108   5.952
 4556POPC   C1A58395  28.896   4.806   6.229
 4556POPC   D2A58396  28.833   5.049   6.638
 4556POPC   C3A58397  29.003   4.907   7.032
 4556POPC   C4A58398  29.352   4.740   7.195
 4556POPC   C1B58399  29.309   5.041   6.415
 4556POPC   C2B58400  29.276   5.295   6.777
 4556POPC   C3B58401  28.921   5.411   7.027
 4556POPC   C4B58402  28.957   5.559   7.420
 4557POPC   NC358403  13.417  39.493   5.451
 4557POPC   PO458404  14.008  39.212   5.424
 4557POPC   GL158405  13.807  39.400   5.810
 4557POPC   GL258406  13.468  39.245   5.898
 4557POPC   C1A58407  13.867  39.426   6.269
 4557POPC   D2A58408  13.597  39.549   6.644
 4557POPC   C3A58409  13.807  39.429   7.044
 4557POPC   C4A58410  14.089  39.325   7.406
 4557POPC   C1B58411  13.440  39.143   6.330
 4557POPC   C2B58412  13.205  39.168   6.712
 4557POPC   C3B58413  13.278  39.272   7.156
 4557POPC   C4B58414  13.633  39.090   7.386
 4558POPC   NC358415  20.724  13.700   5.442
 4558POPC   PO458416  20.108  13.693   5.209
 4558POPC   GL158417  20.328  13.649   5.784
 4558POPC   GL258418  20.692  13.819   5.919
 4558POPC   C1A58419  20.449  13.659   6.310
 4558POPC   D2A58420  20.542  13.479   6.726
 4558POPC   C3A58421  20.580  13.752   7.080
 4558POPC   C4A58422  20.330  14.118   7.175
 4558POPC   C1B58423  20.935  13.504   6.188
 4558POPC   C2B58424  21.030  13.329   6.611
 4558POPC   C3B58425  20.891  13.281   7.053
 4558POPC   C4B58426  20.923  13.412   7.481
 4559POPC   NC358427  42.835  11.738   5.309
 4559POPC   PO458428  43.348  11.303   5.441
 4559POPC   GL158429  43.001  11.285   5.745
 4559POPC   GL258430  43.157  11.017   5.980
 4559POPC   C1A58431  42.848  11.517   6.085
 4559POPC   D2A58432  42.996  11.388   6.472
 4559POPC   C3A58433  42.909  11.382   6.895
 4559POPC   C4A58434  43.267  11.502   7.117
 4559POPC   C1B58435  43.403  11.105   6.354
 4559POPC   C2B58436  43.344  11.096   6.811
 4559POPC   C3B58437  43.144  10.966   7.220
 4559POPC   C4B58438  43.076  10.992   7.703
 4560POPC   NC358439   9.474  37.188   5.419
 4560POPC   PO458440   9.871  36.605   5.444
 4560POPC   GL158441   9.819  36.782   5.862
 4560POPC   GL258442   9.491  36.829   5.797
 4560POPC   C1A58443   9.703  36.766   6.328
 4560POPC   D2A58444   9.760  36.716   6.781
 4560POPC   C3A58445  10.049  36.991   6.955
 4560POPC   C4A58446   9.914  37.196   7.291
 4560POPC   C1B58447   9.440  37.176   6.112
 4560POPC   C2B58448   9.394  37.153   6.568
 4560POPC   C3B58449   9.512  37.211   6.977
 4560POPC   C4B58450   9.506  36.859   7.235
 4561POPC   NC358451  23.318  16.679   5.549
 4561POPC   PO458452  22.697  16.529   5.401
 4561POPC   GL158453  22.863  16.660   5.813
 4561POPC   GL258454  23.113  16.408   5.948
 4561POPC   C1A58455  23.068  16.895   6.160
 4561POPC   D2A58456  23.004  17.044   6.596
 4561POPC   C3A58457  22.761  16.729   6.870
 4561POPC   C4A58458  22.625  16.487   7.233
 4561POPC   C1B58459  23.413  16.483   6.281
 4561POPC   C2B58460  23.521  16.588   6.707
 4561POPC   C3B58461  23.249  16.828   7.007
 4561POPC   C4B58462  22.954  16.939   7.332
 4562POPC   NC358463   7.799  11.171   5.538
 4562POPC   PO458464   8.214  11.670   5.602
 4562POPC   GL158465   8.079  11.371   5.921
 4562POPC   GL258466   8.221  11.028   5.857
 4562POPC   C1A58467   7.906  11.403   6.338
 4562POPC   D2A58468   7.957  11.544   6.763
 4562POPC   C3A58469   8.220  11.344   7.039
 4562POPC   C4A58470   8.120  11.438   7.415
 4562POPC   C1B58471   8.061  10.902   6.271
 4562POPC   C2B58472   8.024  10.967   6.734
 4562POPC   C3B58473   8.253  10.830   7.123
 4562POPC   C4B58474   8.434  11.020   7.534
 4563POPC   NC358475  36.414  35.555   5.563
 4563POPC   PO458476  36.067  36.234   5.481
 4563POPC   GL158477  35.994  36.174   5.859
 4563POPC   GL258478  36.057  35.845   5.835
 4563POPC   C1A58479  36.182  36.293   6.229
 4563POPC   D2A58480  36.373  36.395   6.608
 4563POPC   C3A58481  36.118  36.178   6.884
 4563POPC   C4A58482  36.001  36.244   7.287
 4563POPC   C1B58483  36.331  35.794   6.174
 4563POPC   C2B58484  36.327  35.679   6.586
 4563POPC   C3B58485  36.412  35.587   6.998
 4563POPC   C4B58486  36.103  35.763   7.224
 4564POPC   NC358487  11.667  27.308   5.471
 4564POPC   PO458488  11.045  27.229   5.693
 4564POPC   GL158489  11.435  27.403   5.933
 4564POPC   GL258490  11.503  27.732   5.760
 4564POPC   C1A58491  11.455  27.576   6.379
 4564POPC   D2A58492  11.053  27.776   6.610
 4564POPC   C3A58493  10.966  27.587   7.015
 4564POPC   C4A58494  11.326  27.395   7.180
 4564POPC   C1B58495  11.271  27.957   6.078
 4564POPC   C2B58496  11.438  28.088   6.481
 4564POPC   C3B58497  11.513  27.863   6.860
 4564POPC   C4B58498  11.300  27.908   7.240
 4565POPC   NC358499  36.725  38.140   5.376
 4565POPC   PO458500  37.141  37.514   5.411
 4565POPC   GL158501  37.207  37.718   5.802
 4565POPC   GL258502  36.924  37.867   5.872
 4565POPC   C1A58503  37.349  37.814   6.191
 4565POPC   D2A58504  37.295  37.576   6.566
 4565POPC   C3A58505  36.926  37.708   6.850
 4565POPC   C4A58506  37.004  37.838   7.295
 4565POPC   C1B58507  36.725  37.985   6.273
 4565POPC   C2B58508  36.557  38.062   6.675
 4565POPC   C3B58509  36.442  38.167   7.110
 4565POPC   C4B58510  36.505  37.901   7.487
 4566POPC   NC358511  42.437   2.280   5.322
 4566POPC   PO458512  41.827   1.804   5.288
 4566POPC   GL158513  42.122   1.944   5.627
 4566POPC   GL258514  42.493   1.841   5.674
 4566POPC   C1A58515  42.176   2.009   6.088
 4566POPC   D2A58516  42.383   1.973   6.485
 4566POPC   C3A58517  42.232   2.020   6.894
 4566POPC   C4A58518  42.097   2.149   7.315
 4566POPC   C1B58519  42.559   1.657   6.110
 4566POPC   C2B58520  42.382   1.475   6.531
 4566POPC   C3B58521  42.543   1.620   6.939
 4566POPC   C4B58522  42.386   1.738   7.299
 4567POPC   NC358523   1.613   0.555   5.275
 4567POPC   PO458524   2.241   0.723   5.125
 4567POPC   GL158525   2.069   0.664   5.594
 4567POPC   GL258526   2.277   0.391   5.718
 4567POPC   C1A58527   1.999   0.640   6.090
 4567POPC   D2A58528   1.913   0.379   6.495
 4567POPC   C3A58529   1.824   0.494   6.959
 4567POPC   C4A58530   1.911   0.874   7.186
 4567POPC   C1B58531   2.264   0.152   6.106
 4567POPC   C2B58532   2.392   0.171   6.530
 4567POPC   C3B58533   2.180   0.107   6.921
 4567POPC   C4B58534   2.350   0.123   7.323
 4568POPC   NC358535  41.872  16.690   5.310
 4568POPC   PO458536  41.531  17.215   5.371
 4568POPC   GL158537  41.604  16.848   5.701
 4568POPC   GL258538  41.961  16.826   5.801
 4568POPC   C1A58539  41.573  16.520   6.031
 4568POPC   D2A58540  41.442  16.625   6.464
 4568POPC   C3A58541  41.733  16.519   6.781
 4568POPC   C4A58542  41.748  16.534   7.203
 4568POPC   C1B58543  41.819  16.939   6.209
 4568POPC   C2B58544  42.026  16.871   6.576
 4568POPC   C3B58545  41.919  16.974   6.992
 4568POPC   C4B58546  41.485  16.938   7.047
 4569POPC   NC358547  39.671   4.367   5.554
 4569POPC   PO458548  39.030   4.017   5.420
 4569POPC   GL158549  39.160   4.289   5.740
 4569POPC   GL258550  38.847   4.306   5.937
 4569POPC   C1A58551  39.287   4.181   6.160
 4569POPC   D2A58552  38.978   4.247   6.492
 4569POPC   C3A58553  39.181   4.269   6.868
 4569POPC   C4A58554  39.370   4.127   7.211
 4569POPC   C1B58555  39.072   4.641   6.178
 4569POPC   C2B58556  38.949   4.770   6.594
 4569POPC   C3B58557  38.830   4.599   6.974
 4569POPC   C4B58558  39.097   4.544   7.314
 4570POPC   NC358559  37.721   3.987   5.508
 4570POPC   PO458560  37.431   4.641   5.588
 4570POPC   GL158561  37.518   4.346   5.885
 4570POPC   GL258562  37.870   4.331   5.832
 4570POPC   C1A58563  37.439   4.438   6.316
 4570POPC   D2A58564  37.605   4.322   6.680
 4570POPC   C3A58565  37.445   4.511   7.021
 4570POPC   C4A58566  37.482   4.312   7.446
 4570POPC   C1B58567  37.938   4.309   6.238
 4570POPC   C2B58568  38.059   4.061   6.556
 4570POPC   C3B58569  38.092   4.334   6.868
 4570POPC   C4B58570  37.894   4.488   7.225
 4571POPC   NC358571  41.706   2.955   5.424
 4571POPC   PO458572  41.278   2.530   5.373
 4571POPC   GL158573  41.450   2.691   5.773
 4571POPC   GL258574  41.742   2.551   5.793
 4571POPC   C1A58575  41.716   2.933   6.142
 4571POPC   D2A58576  41.948   2.886   6.558
 4571POPC   C3A58577  41.745   3.038   6.965
 4571POPC   C4A58578  41.652   2.985   7.423
 4571POPC   C1B58579  41.954   2.471   6.167
 4571POPC   C2B58580  41.965   2.309   6.555
 4571POPC   C3B58581  42.026   2.507   6.938
 4571POPC   C4B58582  41.768   2.527   7.278
 4572POPC   NC358583  15.395  21.252   5.504
 4572POPC   PO458584  16.063  21.384   5.450
 4572POPC   GL158585  15.810  21.487   5.817
 4572POPC   GL258586  15.542  21.296   6.012
 4572POPC   C1A58587  15.943  21.637   6.214
 4572POPC   D2A58588  16.175  21.418   6.529
 4572POPC   C3A58589  15.972  21.307   6.893
 4572POPC   C4A58590  16.050  21.690   7.068
 4572POPC   C1B58591  15.608  21.337   6.479
 4572POPC   C2B58592  15.515  21.554   6.862
 4572POPC   C3B58593  15.635  21.541   7.301
 4572POPC   C4B58594  15.590  21.238   7.660
 4573POPC   NC358595  22.791  44.399   5.446
 4573POPC   PO458596  23.202  44.872   5.236
 4573POPC   GL158597  23.174  44.868   5.766
 4573POPC   GL258598  22.946  44.628   5.861
 4573POPC   C1A58599  22.911  44.950   6.219
 4573POPC   D2A58600  22.774  44.658   6.574
 4573POPC   C3A58601  22.854  44.805   6.993
 4573POPC   C4A58602  23.183  44.685   7.206
 4573POPC   C1B58603  22.845  44.293   6.141
 4573POPC   C2B58604  22.879  44.141   6.558
 4573POPC   C3B58605  23.032  44.291   6.914
 4573POPC   C4B58606  22.767  44.361   7.220
 4574POPC   NC358607  10.271   5.509   5.372
 4574POPC   PO458608  10.745   6.062   5.533
 4574POPC   GL158609  10.539   5.763   5.853
 4574POPC   GL258610  10.300   5.510   5.895
 4574POPC   C1A58611  10.454   5.901   6.273
 4574POPC   D2A58612  10.661   6.070   6.621
 4574POPC   C3A58613  10.534   5.884   6.999
 4574POPC   C4A58614  10.825   5.623   7.188
 4574POPC   C1B58615  10.113   5.524   6.297
 4574POPC   C2B58616  10.113   5.738   6.679
 4574POPC   C3B58617  10.081   5.508   7.018
 4574POPC   C4B58618  10.348   5.517   7.347
 4575POPC   NC358619  23.429  31.846   5.481
 4575POPC   PO458620  23.628  32.402   5.482
 4575POPC   GL158621  23.551  32.461   5.895
 4575POPC   GL258622  23.874  32.371   6.001
 4575POPC   C1A58623  23.415  32.286   6.292
 4575POPC   D2A58624  23.635  32.096   6.631
 4575POPC   C3A58625  23.461  32.212   7.011
 4575POPC   C4A58626  23.480  32.085   7.474
 4575POPC   C1B58627  23.910  32.554   6.411
 4575POPC   C2B58628  23.969  32.424   6.855
 4575POPC   C3B58629  23.876  32.309   7.284
 4575POPC   C4B58630  23.951  32.223   7.739
 4576POPC   NC358631   7.134  43.906   5.237
 4576POPC   PO458632   7.650  43.487   5.421
 4576POPC   GL158633   7.468  43.740   5.727
 4576POPC   GL258634   7.665  44.018   5.894
 4576POPC   C1A58635   7.237  43.799   6.095
 4576POPC   D2A58636   7.126  43.913   6.533
 4576POPC   C3A58637   7.305  43.856   6.935
 4576POPC   C4A58638   7.056  43.679   7.236
 4576POPC   C1B58639   7.595  44.016   6.378
 4576POPC   C2B58640   7.795  43.933   6.776
 4576POPC   C3B58641   7.663  44.183   7.128
 4576POPC   C4B58642   7.674  44.216   7.574
 4577POPC   NC358643  35.011  37.724   5.452
 4577POPC   PO458644  35.556  37.335   5.324
 4577POPC   GL158645  35.465  37.518   5.714
 4577POPC   GL258646  35.717  37.324   5.881
 4577POPC   C1A58647  35.561  37.733   6.125
 4577POPC   D2A58648  35.661  37.973   6.483
 4577POPC   C3A58649  35.383  37.858   6.813
 4577POPC   C4A58650  35.433  37.832   7.221
 4577POPC   C1B58651  35.301  37.275   6.161
 4577POPC   C2B58652  35.168  37.272   6.634
 4577POPC   C3B58653  35.323  37.347   7.076
 4577POPC   C4B58654  35.577  37.429   7.489
 4578POPC   NC358655  20.877  16.289   5.471
 4578POPC   PO458656  20.442  15.736   5.433
 4578POPC   GL158657  20.810  15.774   5.703
 4578POPC   GL258658  20.697  16.049   5.892
 4578POPC   C1A58659  20.955  15.594   6.117
 4578POPC   D2A58660  20.786  15.486   6.535
 4578POPC   C3A58661  20.656  15.846   6.837
 4578POPC   C4A58662  20.737  16.150   7.206
 4578POPC   C1B58663  20.729  16.033   6.341
 4578POPC   C2B58664  20.631  16.338   6.663
 4578POPC   C3B58665  20.367  16.420   6.980
 4578POPC   C4B58666  20.136  16.106   7.177
 4579POPC   NC358667   5.668   9.883   4.973
 4579POPC   PO458668   6.145   9.676   5.422
 4579POPC   GL158669   6.026   9.781   5.838
 4579POPC   GL258670   5.649   9.808   5.831
 4579POPC   C1A58671   5.922   9.881   6.261
 4579POPC   D2A58672   6.095  10.091   6.599
 4579POPC   C3A58673   5.954   9.898   6.992
 4579POPC   C4A58674   6.023   9.715   7.420
 4579POPC   C1B58675   5.534   9.557   6.215
 4579POPC   C2B58676   5.670   9.636   6.656
 4579POPC   C3B58677   5.490   9.717   7.087
 4579POPC   C4B58678   5.525   9.717   7.536
 4580POPC   NC358679  22.289  32.827   5.461
 4580POPC   PO458680  22.432  33.535   5.493
 4580POPC   GL158681  22.247  33.181   5.834
 4580POPC   GL258682  22.437  32.856   5.959
 4580POPC   C1A58683  21.956  32.863   6.103
 4580POPC   D2A58684  21.860  32.685   6.538
 4580POPC   C3A58685  22.039  32.954   6.883
 4580POPC   C4A58686  22.060  33.043   7.337
 4580POPC   C1B58687  22.364  32.865   6.418
 4580POPC   C2B58688  22.611  32.905   6.789
 4580POPC   C3B58689  22.518  32.934   7.199
 4580POPC   C4B58690  22.562  33.275   7.529
 4581POPC   NC358691   2.604   5.963   5.378
 4581POPC   PO458692   3.275   5.677   5.353
 4581POPC   GL158693   2.974   5.872   5.750
 4581POPC   GL258694   2.581   5.792   5.870
 4581POPC   C1A58695   2.928   5.735   6.226
 4581POPC   D2A58696   2.876   5.930   6.646
 4581POPC   C3A58697   2.794   5.668   7.012
 4581POPC   C4A58698   2.867   5.687   7.462
 4581POPC   C1B58699   2.505   6.011   6.288
 4581POPC   C2B58700   2.400   6.081   6.721
 4581POPC   C3B58701   2.440   6.008   7.170
 4581POPC   C4B58702   2.188   5.834   7.483
 4582POPC   NC358703  22.754  29.548   5.460
 4582POPC   PO458704  23.066  28.988   5.193
 4582POPC   GL158705  22.952  28.974   5.761
 4582POPC   GL258706  23.142  29.200   5.964
 4582POPC   C1A58707  22.758  29.079   6.253
 4582POPC   D2A58708  22.490  29.184   6.633
 4582POPC   C3A58709  22.764  29.119   6.973
 4582POPC   C4A58710  22.878  29.286   7.348
 4582POPC   C1B58711  23.314  29.216   6.365
 4582POPC   C2B58712  23.241  29.143   6.804
 4582POPC   C3B58713  23.348  29.261   7.190
 4582POPC   C4B58714  23.195  29.635   7.464
 4583POPC   NC358715  35.667  19.379   5.529
 4583POPC   PO458716  35.260  19.858   5.371
 4583POPC   GL158717  35.156  19.823   5.849
 4583POPC   GL258718  34.955  19.529   5.862
 4583POPC   C1A58719  35.116  20.091   6.263
 4583POPC   D2A58720  34.998  20.260   6.713
 4583POPC   C3A58721  35.235  20.060   7.072
 4583POPC   C4A58722  35.637  19.817   7.169
 4583POPC   C1B58723  35.205  19.429   6.229
 4583POPC   C2B58724  35.465  19.508   6.586
 4583POPC   C3B58725  35.258  19.532   6.964
 4583POPC   C4B58726  35.162  19.624   7.355
 4584POPC   NC358727  16.137   0.039   5.108
 4584POPC   PO458728  15.940   0.635   5.220
 4584POPC   GL158729  15.944   0.283   5.554
 4584POPC   GL258730  15.765   0.502   5.789
 4584POPC   C1A58731  16.129   0.186   5.998
 4584POPC   D2A58732  15.984   0.337   6.411
 4584POPC   C3A58733  16.004   0.139   6.834
 4584POPC   C4A58734  16.258   0.166   7.212
 4584POPC   C1B58735  15.625   0.667   6.186
 4584POPC   C2B58736  15.825   0.805   6.568
 4584POPC   C3B58737  16.112   0.649   6.868
 4584POPC   C4B58738  15.905   0.543   7.238
 4585POPC   NC358739  41.534  35.540   5.381
 4585POPC   PO458740  41.763  34.861   5.541
 4585POPC   GL158741  41.727  35.243   5.824
 4585POPC   GL258742  41.384  35.329   5.812
 4585POPC   C1A58743  41.576  35.462   6.246
 4585POPC   D2A58744  41.406  35.316   6.646
 4585POPC   C3A58745  41.697  35.378   6.972
 4585POPC   C4A58746  41.584  35.709   7.205
 4585POPC   C1B58747  41.166  35.687   5.996
 4585POPC   C2B58748  41.163  35.735   6.446
 4585POPC   C3B58749  41.143  35.703   6.882
 4585POPC   C4B58750  41.129  35.486   7.278
 4586POPC   NC358751  22.773  34.952   5.630
 4586POPC   PO458752  22.857  34.380   5.167
 4586POPC   GL158753  22.911  34.422   5.678
 4586POPC   GL258754  22.556  34.396   5.768
 4586POPC   C1A58755  22.979  34.639   6.154
 4586POPC   D2A58756  23.160  34.746   6.606
 4586POPC   C3A58757  22.901  34.863   6.964
 4586POPC   C4A58758  22.691  34.792   7.353
 4586POPC   C1B58759  22.459  34.566   6.208
 4586POPC   C2B58760  22.583  34.674   6.626
 4586POPC   C3B58761  22.577  34.428   7.050
 4586POPC   C4B58762  22.481  34.384   7.583
 4587POPC   NC358763  15.284  10.648   5.367
 4587POPC   PO458764  14.692  10.414   5.359
 4587POPC   GL158765  14.941  10.527   5.791
 4587POPC   GL258766  15.327  10.601   5.879
 4587POPC   C1A58767  15.041  10.450   6.270
 4587POPC   D2A58768  15.359  10.369   6.598
 4587POPC   C3A58769  15.239  10.263   7.005
 4587POPC   C4A58770  15.168  10.432   7.414
 4587POPC   C1B58771  15.636  10.634   6.256
 4587POPC   C2B58772  15.665  10.772   6.713
 4587POPC   C3B58773  15.553  10.668   7.164
 4587POPC   C4B58774  15.566  10.610   7.657
 4588POPC   NC358775   1.819  29.576   5.498
 4588POPC   PO458776   2.219  29.100   5.424
 4588POPC   GL158777   2.129  29.143   5.858
 4588POPC   GL258778   1.814  29.137   5.776
 4588POPC   C1A58779   1.989  29.054   6.296
 4588POPC   D2A58780   1.781  29.018   6.700
 4588POPC   C3A58781   2.000  29.133   7.075
 4588POPC   C4A58782   2.044  29.051   7.513
 4588POPC   C1B58783   1.628  29.359   6.097
 4588POPC   C2B58784   1.769  29.498   6.489
 4588POPC   C3B58785   1.620  29.473   6.906
 4588POPC   C4B58786   1.658  29.393   7.349
 4589POPC   NC358787  15.282  31.167   5.384
 4589POPC   PO458788  14.688  31.394   5.389
 4589POPC   GL158789  14.861  31.383   5.834
 4589POPC   GL258790  15.269  31.414   5.912
 4589POPC   C1A58791  14.919  31.628   6.223
 4589POPC   D2A58792  15.205  31.535   6.584
 4589POPC   C3A58793  15.093  31.413   7.026
 4589POPC   C4A58794  15.251  31.483   7.456
 4589POPC   C1B58795  15.547  31.254   6.307
 4589POPC   C2B58796  15.656  31.248   6.774
 4589POPC   C3B58797  15.694  31.321   7.240
 4589POPC   C4B58798  15.813  31.341   7.672
 4590POPC   NC358799  41.177   5.087   5.504
 4590POPC   PO458800  40.692   4.670   5.384
 4590POPC   GL158801  40.806   4.868   5.847
 4590POPC   GL258802  40.926   5.228   5.927
 4590POPC   C1A58803  40.703   5.007   6.330
 4590POPC   D2A58804  40.663   5.018   6.792
 4590POPC   C3A58805  41.054   4.967   7.025
 4590POPC   C4A58806  40.966   4.719   7.428
 4590POPC   C1B58807  40.713   5.505   6.206
 4590POPC   C2B58808  40.513   5.484   6.607
 4590POPC   C3B58809  40.701   5.484   7.009
 4590POPC   C4B58810  40.725   5.175   7.345
 4591POPC   NC358811  24.170  22.544   5.690
 4591POPC   PO458812  23.729  22.958   5.358
 4591POPC   GL158813  23.734  23.096   5.762
 4591POPC   GL258814  23.603  22.821   5.900
 4591POPC   C1A58815  23.985  23.103   6.145
 4591POPC   D2A58816  23.936  23.231   6.599
 4591POPC   C3A58817  23.922  22.903   6.907
 4591POPC   C4A58818  24.039  22.765   7.296
 4591POPC   C1B58819  23.495  23.142   6.221
 4591POPC   C2B58820  23.435  23.056   6.608
 4591POPC   C3B58821  23.536  23.223   6.975
 4591POPC   C4B58822  23.532  23.020   7.345
 4592POPC   NC358823   4.444  31.082   5.488
 4592POPC   PO458824   4.049  31.585   5.232
 4592POPC   GL158825   4.265  31.564   5.671
 4592POPC   GL258826   4.539  31.738   5.798
 4592POPC   C1A58827   4.167  31.595   6.141
 4592POPC   D2A58828   4.067  31.691   6.587
 4592POPC   C3A58829   4.231  31.390   6.921
 4592POPC   C4A58830   4.051  31.232   7.293
 4592POPC   C1B58831   4.680  31.544   6.206
 4592POPC   C2B58832   4.573  31.632   6.613
 4592POPC   C3B58833   4.562  31.794   7.031
 4592POPC   C4B58834   4.738  31.472   7.233
 4593POPC   NC358835   7.941  29.164   5.507
 4593POPC   PO458836   8.489  28.746   5.593
 4593POPC   GL158837   8.222  28.930   5.877
 4593POPC   GL258838   8.287  29.281   5.895
 4593POPC   C1A58839   7.914  28.992   6.189
 4593POPC   D2A58840   8.067  29.224   6.536
 4593POPC   C3A58841   8.167  28.975   6.870
 4593POPC   C4A58842   8.082  28.930   7.253
 4593POPC   C1B58843   8.214  29.616   6.193
 4593POPC   C2B58844   8.025  29.718   6.582
 4593POPC   C3B58845   8.008  29.561   6.991
 4593POPC   C4B58846   8.290  29.427   7.276
 4594POPC   NC358847   4.807  16.712   5.398
 4594POPC   PO458848   4.091  16.487   5.472
 4594POPC   GL158849   4.279  16.724   5.757
 4594POPC   GL258850   4.526  16.511   5.759
 4594POPC   C1A58851   4.207  16.808   6.177
 4594POPC   D2A58852   4.075  16.932   6.581
 4594POPC   C3A58853   4.429  16.905   6.862
 4594POPC   C4A58854   4.465  16.972   7.280
 4594POPC   C1B58855   4.597  16.442   6.140
 4594POPC   C2B58856   4.597  16.336   6.554
 4594POPC   C3B58857   4.820  16.292   6.908
 4594POPC   C4B58858   4.703  16.534   7.244
 4595POPC   NC358859   9.494  12.335   5.640
 4595POPC   PO458860  10.116  12.116   5.514
 4595POPC   GL158861   9.868  11.823   5.796
 4595POPC   GL258862   9.488  11.870   5.868
 4595POPC   C1A58863   9.852  11.836   6.254
 4595POPC   D2A58864  10.007  12.189   6.524
 4595POPC   C3A58865  10.038  12.062   6.941
 4595POPC   C4A58866  10.013  11.732   7.279
 4595POPC   C1B58867   9.338  11.822   6.301
 4595POPC   C2B58868   9.563  11.942   6.697
 4595POPC   C3B58869   9.570  12.141   7.118
 4595POPC   C4B58870   9.588  12.234   7.596
 4596POPC   NC358871  16.692  12.702   5.138
 4596POPC   PO458872  16.570  13.162   5.596
 4596POPC   GL158873  16.862  13.066   5.957
 4596POPC   GL258874  16.555  12.950   6.113
 4596POPC   C1A58875  16.974  12.804   6.334
 4596POPC   D2A58876  16.717  12.713   6.690
 4596POPC   C3A58877  16.755  12.940   7.048
 4596POPC   C4A58878  16.508  13.179   7.265
 4596POPC   C1B58879  16.485  12.510   6.279
 4596POPC   C2B58880  16.255  12.368   6.642
 4596POPC   C3B58881  16.402  12.486   7.052
 4596POPC   C4B58882  16.710  12.511   7.338
 4597POPC   NC358883  35.589  10.096   5.517
 4597POPC   PO458884  35.080   9.659   5.466
 4597POPC   GL158885  35.275   9.710   5.851
 4597POPC   GL258886  35.255  10.053   5.931
 4597POPC   C1A58887  35.121   9.695   6.298
 4597POPC   D2A58888  35.224   9.869   6.694
 4597POPC   C3A58889  35.317   9.640   7.072
 4597POPC   C4A58890  35.002   9.486   7.336
 4597POPC   C1B58891  35.551  10.002   6.309
 4597POPC   C2B58892  35.587  10.217   6.751
 4597POPC   C3B58893  35.676  10.030   7.193
 4597POPC   C4B58894  35.747   9.668   7.471
 4598POPC   NC358895  33.470  13.329   5.210
 4598POPC   PO458896  33.856  13.855   5.564
 4598POPC   GL158897  33.972  13.660   5.908
 4598POPC   GL258898  34.111  13.375   5.806
 4598POPC   C1A58899  33.774  13.723   6.282
 4598POPC   D2A58900  33.582  13.997   6.596
 4598POPC   C3A58901  33.754  13.868   6.991
 4598POPC   C4A58902  33.840  13.941   7.432
 4598POPC   C1B58903  34.142  13.266   6.227
 4598POPC   C2B58904  33.964  13.386   6.618
 4598POPC   C3B58905  33.971  13.305   7.035
 4598POPC   C4B58906  33.684  13.469   7.303
 4599POPC   NC358907  35.494  27.562   5.343
 4599POPC   PO458908  34.789  27.560   5.333
 4599POPC   GL158909  35.159  27.521   5.746
 4599POPC   GL258910  35.541  27.559   5.829
 4599POPC   C1A58911  35.208  27.732   6.193
 4599POPC   D2A58912  35.020  27.802   6.623
 4599POPC   C3A58913  35.276  27.879   6.997
 4599POPC   C4A58914  35.486  27.786   7.393
 4599POPC   C1B58915  35.694  27.567   6.220
 4599POPC   C2B58916  35.467  27.496   6.600
 4599POPC   C3B58917  35.617  27.492   6.999
 4599POPC   C4B58918  35.743  27.192   7.270
 4600POPC   NC358919  12.285  26.055   5.047
 4600POPC   PO458920  11.754  25.764   5.340
 4600POPC   GL158921  11.867  26.003   5.803
 4600POPC   GL258922  12.212  25.994   5.894
 4600POPC   C1A58923  11.982  26.169   6.290
 4600POPC   D2A58924  12.391  26.054   6.580
 4600POPC   C3A58925  12.279  26.033   7.034
 4600POPC   C4A58926  11.854  26.071   7.160
 4600POPC   C1B58927  12.174  25.700   6.286
 4600POPC   C2B58928  11.952  25.803   6.707
 4600POPC   C3B58929  12.032  25.581   7.121
 4600POPC   C4B58930  12.206  25.275   7.455
 4601POPC   NC358931   3.773  33.376   5.541
 4601POPC   PO458932   3.409  32.885   5.266
 4601POPC   GL158933   3.577  32.887   5.756
 4601POPC   GL258934   3.343  32.725   5.976
 4601POPC   C1A58935   3.635  33.149   6.207
 4601POPC   D2A58936   3.485  33.201   6.655
 4601POPC   C3A58937   3.749  33.235   7.046
 4601POPC   C4A58938   3.698  33.287   7.506
 4601POPC   C1B58939   3.700  32.656   6.262
 4601POPC   C2B58940   3.827  32.698   6.676
 4601POPC   C3B58941   3.526  32.784   6.968
 4601POPC   C4B58942   3.326  32.593   7.279
 4602POPC   NC358943  42.041  11.681   5.670
 4602POPC   PO458944  42.544  11.327   5.376
 4602POPC   GL158945  42.414  11.335   5.815
 4602POPC   GL258946  42.253  11.041   5.969
 4602POPC   C1A58947  42.349  11.434   6.265
 4602POPC   D2A58948  42.467  11.172   6.605
 4602POPC   C3A58949  42.288  11.276   6.988
 4602POPC   C4A58950  42.010  11.154   7.289
 4602POPC   C1B58951  42.692  11.025   6.161
 4602POPC   C2B58952  42.918  10.892   6.565
 4602POPC   C3B58953  42.705  10.907   6.979
 4602POPC   C4B58954  42.528  11.049   7.388
 4603POPC   NC358955  30.061  32.068   5.310
 4603POPC   PO458956  29.415  32.015   5.344
 4603POPC   GL158957  29.675  32.145   5.728
 4603POPC   GL258958  29.959  31.921   5.796
 4603POPC   C1A58959  29.753  32.399   6.123
 4603POPC   D2A58960  29.801  32.232   6.564
 4603POPC   C3A58961  29.862  32.474   6.960
 4603POPC   C4A58962  29.773  32.497   7.445
 4603POPC   C1B58963  30.137  32.094   6.170
 4603POPC   C2B58964  30.328  32.087   6.565
 4603POPC   C3B58965  30.155  32.058   6.946
 4603POPC   C4B58966  29.845  32.025   7.250
 4604POPC   NC358967  38.985   8.229   5.395
 4604POPC   PO458968  39.599   7.906   5.460
 4604POPC   GL158969  39.533   8.240   5.744
 4604POPC   GL258970  39.197   8.298   5.859
 4604POPC   C1A58971  39.631   8.350   6.178
 4604POPC   D2A58972  39.493   8.478   6.605
 4604POPC   C3A58973  39.294   8.174   6.898
 4604POPC   C4A58974  39.269   8.128   7.349
 4604POPC   C1B58975  38.927   8.434   6.196
 4604POPC   C2B58976  38.949   8.427   6.641
 4604POPC   C3B58977  38.867   8.383   7.095
 4604POPC   C4B58978  38.733   8.077   7.432
 4605POPC   NC358979  28.768  42.881   5.549
 4605POPC   PO458980  29.180  43.382   5.422
 4605POPC   GL158981  29.333  43.250   5.838
 4605POPC   GL258982  29.541  42.940   5.884
 4605POPC   C1A58983  29.172  43.210   6.286
 4605POPC   D2A58984  29.382  43.101   6.688
 4605POPC   C3A58985  29.218  43.152   7.067
 4605POPC   C4A58986  28.812  43.219   7.233
 4605POPC   C1B58987  29.371  42.755   6.298
 4605POPC   C2B58988  28.988  42.770   6.589
 4605POPC   C3B58989  28.952  42.697   7.056
 4605POPC   C4B58990  29.207  42.597   7.429
 4606POPC   NC358991   8.266  25.785   5.338
 4606POPC   PO458992   7.796  26.280   5.446
 4606POPC   GL158993   7.959  26.109   5.838
 4606POPC   GL258994   8.288  25.949   5.836
 4606POPC   C1A58995   8.010  26.016   6.284
 4606POPC   D2A58996   7.798  26.059   6.664
 4606POPC   C3A58997   8.017  26.176   7.029
 4606POPC   C4A58998   8.449  26.227   7.005
 4606POPC   C1B58999   8.206  25.569   6.103
 4606POPC   C2B59000   8.236  25.420   6.525
 4606POPC   C3B59001   8.314  25.697   6.873
 4606POPC   C4B59002   8.006  25.694   7.175
 4607POPC   NC359003   8.668  39.834   5.542
 4607POPC   PO459004   9.257  40.150   5.389
 4607POPC   GL159005   9.143  39.867   5.748
 4607POPC   GL259006   9.432  39.634   5.779
 4607POPC   C1A59007   8.854  39.861   6.137
 4607POPC   D2A59008   8.737  40.157   6.456
 4607POPC   C3A59009   8.692  39.990   6.882
 4607POPC   C4A59010   8.877  40.080   7.291
 4607POPC   C1B59011   9.360  39.872   6.196
 4607POPC   C2B59012   9.089  39.781   6.574
 4607POPC   C3B59013   9.216  39.944   6.937
 4607POPC   C4B59014   9.394  40.071   7.301
 4608POPC   NC359015  40.005  35.817   5.480
 4608POPC   PO459016  39.897  36.478   5.357
 4608POPC   GL159017  39.913  36.282   5.763
 4608POPC   GL259018  40.115  36.490   5.969
 4608POPC   C1A59019  39.962  36.028   6.157
 4608POPC   D2A59020  39.799  36.142   6.589
 4608POPC   C3A59021  39.923  35.895   6.965
 4608POPC   C4A59022  40.224  35.819   7.325
 4608POPC   C1B59023  39.794  36.564   6.267
 4608POPC   C2B59024  39.729  36.634   6.708
 4608POPC   C3B59025  39.914  36.401   7.072
 4608POPC   C4B59026  39.802  36.135   7.444
 4609POPC   NC359027  29.148  41.853   5.476
 4609POPC   PO459028  28.808  42.431   5.478
 4609POPC   GL159029  28.886  42.286   5.902
 4609POPC   GL259030  28.630  42.035   5.910
 4609POPC   C1A59031  29.130  42.321   6.318
 4609POPC   D2A59032  29.311  42.413   6.752
 4609POPC   C3A59033  29.114  42.199   7.120
 4609POPC   C4A59034  29.286  42.048   7.513
 4609POPC   C1B59035  28.692  42.090   6.361
 4609POPC   C2B59036  28.767  42.309   6.729
 4609POPC   C3B59037  28.625  42.164   7.104
 4609POPC   C4B59038  28.800  41.873   7.426
 4610POPC   NC359039  32.499  37.981   5.334
 4610POPC   PO459040  32.270  37.392   5.281
 4610POPC   GL159041  32.164  37.601   5.755
 4610POPC   GL259042  32.034  37.928   5.731
 4610POPC   C1A59043  32.319  37.691   6.230
 4610POPC   D2A59044  32.128  37.502   6.619
 4610POPC   C3A59045  32.105  37.293   7.010
 4610POPC   C4A59046  32.400  37.497   7.227
 4610POPC   C1B59047  31.883  37.955   6.162
 4610POPC   C2B59048  32.069  38.023   6.569
 4610POPC   C3B59049  32.380  37.884   6.863
 4610POPC   C4B59050  32.360  38.016   7.272
 4611POPC   NC359051  18.738  23.854   5.398
 4611POPC   PO459052  19.114  23.303   5.361
 4611POPC   GL159053  19.069  23.606   5.766
 4611POPC   GL259054  18.835  23.895   5.923
 4611POPC   C1A59055  19.156  23.655   6.241
 4611POPC   D2A59056  19.193  23.459   6.674
 4611POPC   C3A59057  19.146  23.733   7.051
 4611POPC   C4A59058  19.184  23.776   7.518
 4611POPC   C1B59059  18.676  23.798   6.382
 4611POPC   C2B59060  18.667  23.766   6.859
 4611POPC   C3B59061  18.730  23.953   7.307
 4611POPC   C4B59062  18.673  23.819   7.753
 4612POPC   NC359063  18.491  37.191   5.520
 4612POPC   PO459064  18.047  36.754   5.287
 4612POPC   GL159065  18.136  36.855   5.757
 4612POPC   GL259066  18.485  36.895   5.966
 4612POPC   C1A59067  18.090  37.084   6.174
 4612POPC   D2A59068  18.323  36.897   6.510
 4612POPC   C3A59069  18.090  36.808   6.870
 4612POPC   C4A59070  18.210  37.031   7.227
 4612POPC   C1B59071  18.687  36.606   6.261
 4612POPC   C2B59072  18.612  36.505   6.706
 4612POPC   C3B59073  18.594  36.720   7.099
 4612POPC   C4B59074  18.582  36.867   7.555
 4613POPC   NC359075  39.538   7.408   5.259
 4613POPC   PO459076  40.205   7.698   5.406
 4613POPC   GL159077  40.138   7.434   5.788
 4613POPC   GL259078  40.132   7.144   5.651
 4613POPC   C1A59079  40.001   7.353   6.243
 4613POPC   D2A59080  40.118   7.572   6.634
 4613POPC   C3A59081  39.938   7.443   7.013
 4613POPC   C4A59082  39.872   7.205   7.363
 4613POPC   C1B59083  40.264   6.922   6.041
 4613POPC   C2B59084  40.311   6.970   6.481
 4613POPC   C3B59085  40.213   7.005   6.912
 4613POPC   C4B59086  40.401   6.905   7.297
 4614POPC   NC359087  24.659  44.703   5.417
 4614POPC   PO459088  24.021  44.849   5.526
 4614POPC   GL159089  24.364  44.758   5.843
 4614POPC   GL259090  24.689  44.936   5.893
 4614POPC   C1A59091  24.509  44.537   6.240
 4614POPC   D2A59092  24.509  44.286   6.649
 4614POPC   C3A59093  24.700  44.439   7.037
 4614POPC   C4A59094  24.572  44.654   7.426
 4614POPC   C1B59095  24.633   0.029   6.328
 4614POPC   C2B59096  24.572  44.924   6.760
 4614POPC   C3B59097  24.846  44.916   7.094
 4614POPC   C4B59098  24.888   0.059   7.541
 4615POPC   NC359099  33.715  25.668   5.313
 4615POPC   PO459100  34.068  25.119   5.180
 4615POPC   GL159101  33.994  25.387   5.610
 4615POPC   GL259102  33.646  25.319   5.711
 4615POPC   C1A59103  34.000  25.462   6.075
 4615POPC   D2A59104  33.936  25.349   6.522
 4615POPC   C3A59105  34.101  25.499   6.916
 4615POPC   C4A59106  33.995  25.355   7.329
 4615POPC   C1B59107  33.464  25.496   6.125
 4615POPC   C2B59108  33.418  25.364   6.557
 4615POPC   C3B59109  33.581  25.411   6.981
 4615POPC   C4B59110  33.494  25.505   7.406
 4616POPC   NC359111   3.292  43.730   5.504
 4616POPC   PO459112   3.755  43.383   5.313
 4616POPC   GL159113   3.823  43.046   5.678
 4616POPC   GL259114   3.446  43.008   5.748
 4616POPC   C1A59115   3.776  42.812   6.095
 4616POPC   D2A59116   3.502  42.811   6.489
 4616POPC   C3A59117   3.548  43.072   6.871
 4616POPC   C4A59118   3.675  42.841   7.238
 4616POPC   C1B59119   3.193  43.294   6.019
 4616POPC   C2B59120   3.224  43.252   6.472
 4616POPC   C3B59121   3.174  43.476   6.866
 4616POPC   C4B59122   3.280  43.353   7.278
 4617POPC   NC359123  27.354  43.938   5.262
 4617POPC   PO459124  27.977  43.686   5.375
 4617POPC   GL159125  27.843  43.870   5.797
 4617POPC   GL259126  27.519  44.042   5.783
 4617POPC   C1A59127  27.853  43.854   6.266
 4617POPC   D2A59128  27.672  43.951   6.678
 4617POPC   C3A59129  27.937  43.894   7.053
 4617POPC   C4A59130  27.572  43.687   7.164
 4617POPC   C1B59131  27.279  44.298   6.114
 4617POPC   C2B59132  27.353  44.404   6.575
 4617POPC   C3B59133  27.297  44.185   6.988
 4617POPC   C4B59134  27.324  44.036   7.423
 4618POPC   NC359135  21.768   3.101   5.490
 4618POPC   PO459136  22.411   2.823   5.491
 4618POPC   GL159137  22.145   3.008   5.843
 4618POPC   GL259138  21.807   2.864   5.951
 4618POPC   C1A59139  22.177   3.181   6.271
 4618POPC   D2A59140  22.476   3.057   6.584
 4618POPC   C3A59141  22.280   2.736   6.798
 4618POPC   C4A59142  22.113   2.816   7.179
 4618POPC   C1B59143  22.015   2.631   6.287
 4618POPC   C2B59144  21.855   2.449   6.682
 4618POPC   C3B59145  21.942   2.360   7.111
 4618POPC   C4B59146  21.936   2.486   7.557
 4619POPC   NC359147   2.441  43.855   5.127
 4619POPC   PO459148   2.520  43.252   5.417
 4619POPC   GL159149   2.583  42.960   5.772
 4619POPC   GL259150   2.934  42.808   5.801
 4619POPC   C1A59151   2.615  42.977   6.232
 4619POPC   D2A59152   2.746  43.322   6.540
 4619POPC   C3A59153   2.657  43.350   6.964
 4619POPC   C4A59154   2.544  43.004   7.231
 4619POPC   C1B59155   3.100  42.821   6.178
 4619POPC   C2B59156   2.957  42.815   6.589
 4619POPC   C3B59157   3.034  43.000   6.956
 4619POPC   C4B59158   3.148  42.854   7.335
 4620POPC   NC359159  43.578  15.745   5.616
 4620POPC   PO459160  43.168  16.210   5.245
 4620POPC   GL159161  43.210  16.187   5.741
 4620POPC   GL259162  42.872  16.033   5.885
 4620POPC   C1A59163  43.138  16.376   6.192
 4620POPC   D2A59164  42.974  16.148   6.579
 4620POPC   C3A59165  43.136  16.084   7.034
 4620POPC   C4A59166  43.014  16.064   7.526
 4620POPC   C1B59167  43.211  15.880   6.179
 4620POPC   C2B59168  43.282  15.685   6.545
 4620POPC   C3B59169  43.130  15.535   6.946
 4620POPC   C4B59170  43.281  15.674   7.332
 4621POPC   NC359171   3.363  29.564   5.523
 4621POPC   PO459172   3.786  28.950   5.448
 4621POPC   GL159173   3.691  28.898   5.849
 4621POPC   GL259174   3.623  29.255   5.842
 4621POPC   C1A59175   3.468  28.945   6.235
 4621POPC   D2A59176   3.351  29.171   6.594
 4621POPC   C3A59177   3.497  29.048   6.968
 4621POPC   C4A59178   3.292  29.225   7.322
 4621POPC   C1B59179   3.757  29.386   6.241
 4621POPC   C2B59180   3.885  29.249   6.652
 4621POPC   C3B59181   3.912  29.318   7.095
 4621POPC   C4B59182   3.756  29.378   7.509
 4622POPC   NC359183   1.463  30.373   5.209
 4622POPC   PO459184   1.993  30.736   5.401
 4622POPC   GL159185   1.968  30.649   5.831
 4622POPC   GL259186   1.949  31.001   5.871
 4622POPC   C1A59187   1.956  30.438   6.259
 4622POPC   D2A59188   1.772  30.530   6.666
 4622POPC   C3A59189   2.007  30.659   7.032
 4622POPC   C4A59190   2.133  30.440   7.397
 4622POPC   C1B59191   2.244  30.876   6.205
 4622POPC   C2B59192   2.323  30.617   6.595
 4622POPC   C3B59193   2.524  30.727   7.004
 4622POPC   C4B59194   2.333  30.883   7.388
 4623POPC   NC359195  30.406  37.836   5.406
 4623POPC   PO459196  29.822  37.596   5.448
 4623POPC   GL159197  29.991  37.613   5.800
 4623POPC   GL259198  30.169  37.907   5.863
 4623POPC   C1A59199  29.866  37.589   6.223
 4623POPC   D2A59200  30.087  37.622   6.630
 4623POPC   C3A59201  29.768  37.721   6.987
 4623POPC   C4A59202  29.548  37.999   7.300
 4623POPC   C1B59203  29.998  38.061   6.254
 4623POPC   C2B59204  30.005  38.117   6.716
 4623POPC   C3B59205  30.049  38.113   7.178
 4623POPC   C4B59206  29.847  38.409   7.482
 4624POPC   NC359207  32.533  24.143   5.381
 4624POPC   PO459208  32.274  24.759   5.412
 4624POPC   GL159209  32.257  24.455   5.739
 4624POPC   GL259210  31.947  24.277   5.815
 4624POPC   C1A59211  32.179  24.564   6.181
 4624POPC   D2A59212  32.020  24.798   6.539
 4624POPC   C3A59213  32.259  24.687   6.934
 4624POPC   C4A59214  32.398  24.505   7.322
 4624POPC   C1B59215  31.935  24.120   6.244
 4624POPC   C2B59216  32.106  24.285   6.651
 4624POPC   C3B59217  32.097  24.166   7.101
 4624POPC   C4B59218  32.026  24.237   7.570
 4625POPC   NC359219  41.332  28.827   5.498
 4625POPC   PO459220  41.983  28.923   5.446
 4625POPC   GL159221  41.722  29.028   5.799
 4625POPC   GL259222  41.514  29.327   5.771
 4625POPC   C1A59223  41.503  28.938   6.180
 4625POPC   D2A59224  41.611  29.105   6.582
 4625POPC   C3A59225  41.618  28.902   6.931
 4625POPC   C4A59226  41.307  28.995   7.212
 4625POPC   C1B59227  41.624  29.433   6.203
 4625POPC   C2B59228  41.619  29.609   6.660
 4625POPC   C3B59229  41.442  29.471   7.060
 4625POPC   C4B59230  41.458  29.432   7.515
 4626POPC   NC359231   9.109  33.567   5.444
 4626POPC   PO459232   8.628  33.951   5.711
 4626POPC   GL159233   8.795  33.887   6.061
 4626POPC   GL259234   9.108  33.798   5.902
 4626POPC   C1A59235   8.889  34.052   6.459
 4626POPC   D2A59236   9.241  34.095   6.711
 4626POPC   C3A59237   9.110  33.874   7.057
 4626POPC   C4A59238   8.755  33.832   7.283
 4626POPC   C1B59239   9.326  33.836   6.283
 4626POPC   C2B59240   9.431  33.591   6.669
 4626POPC   C3B59241   9.305  33.426   7.110
 4626POPC   C4B59242   9.148  33.580   7.526
 4627POPC   NC359243  25.343  14.943   5.459
 4627POPC   PO459244  25.183  14.255   5.311
 4627POPC   GL159245  25.163  14.410   5.710
 4627POPC   GL259246  24.878  14.201   5.757
 4627POPC   C1A59247  25.416  14.562   6.059
 4627POPC   D2A59248  25.476  14.392   6.469
 4627POPC   C3A59249  25.358  14.687   6.782
 4627POPC   C4A59250  25.396  14.625   7.241
 4627POPC   C1B59251  24.916  14.453   6.164
 4627POPC   C2B59252  24.977  14.321   6.584
 4627POPC   C3B59253  25.169  14.248   6.981
 4627POPC   C4B59254  24.960  14.288   7.373
 4628POPC   NC359255  38.025   1.449   5.343
 4628POPC   PO459256  38.567   0.970   5.227
 4628POPC   GL159257  38.370   1.135   5.613
 4628POPC   GL259258  38.583   0.962   5.871
 4628POPC   C1A59259  38.237   1.341   6.017
 4628POPC   D2A59260  38.423   1.239   6.424
 4628POPC   C3A59261  38.310   1.352   6.881
 4628POPC   C4A59262  38.346   1.420   7.360
 4628POPC   C1B59263  38.683   0.804   6.300
 4628POPC   C2B59264  38.603   0.926   6.775
 4628POPC   C3B59265  38.466   0.954   7.203
 4628POPC   C4B59266  38.670   1.019   7.597
 4629POPC   NC359267   6.610  28.096   5.353
 4629POPC   PO459268   6.915  28.645   5.142
 4629POPC   GL159269   6.584  28.507   5.629
 4629POPC   GL259270   6.686  28.175   5.846
 4629POPC   C1A59271   6.457  28.553   6.095
 4629POPC   D2A59272   6.571  28.455   6.532
 4629POPC   C3A59273   6.405  28.648   6.900
 4629POPC   C4A59274   6.517  28.422   7.244
 4629POPC   C1B59275   6.926  28.187   6.253
 4629POPC   C2B59276   7.099  28.447   6.590
 4629POPC   C3B59277   7.039  28.443   7.004
 4629POPC   C4B59278   6.980  28.448   7.429
 4630POPC   NC359279  35.973   3.755   5.461
 4630POPC   PO459280  36.227   3.181   5.507
 4630POPC   GL159281  36.222   3.563   5.856
 4630POPC   GL259282  35.908   3.749   5.950
 4630POPC   C1A59283  36.263   3.604   6.314
 4630POPC   D2A59284  36.100   3.301   6.604
 4630POPC   C3A59285  36.184   3.384   7.025
 4630POPC   C4A59286  36.241   3.767   7.255
 4630POPC   C1B59287  35.832   3.388   6.155
 4630POPC   C2B59288  35.787   3.704   6.502
 4630POPC   C3B59289  35.563   3.691   6.872
 4630POPC   C4B59290  35.753   3.553   7.250
 4631POPC   NC359291   6.506  43.239   5.083
 4631POPC   PO459292   6.811  42.981   5.622
 4631POPC   GL159293   6.753  43.144   5.978
 4631POPC   GL259294   6.534  43.393   5.865
 4631POPC   C1A59295   6.916  43.018   6.379
 4631POPC   D2A59296   7.190  43.076   6.736
 4631POPC   C3A59297   6.913  43.194   7.069
 4631POPC   C4A59298   6.604  42.883   7.072
 4631POPC   C1B59299   6.368  43.351   6.257
 4631POPC   C2B59300   6.472  43.190   6.648
 4631POPC   C3B59301   6.424  43.398   7.030
 4631POPC   C4B59302   6.445  43.265   7.453
 4632POPC   NC359303  17.973  38.041   5.615
 4632POPC   PO459304  18.264  38.615   5.452
 4632POPC   GL159305  18.299  38.465   5.824
 4632POPC   GL259306  17.961  38.539   5.913
 4632POPC   C1A59307  18.420  38.594   6.213
 4632POPC   D2A59308  18.446  38.454   6.623
 4632POPC   C3A59309  18.248  38.615   6.980
 4632POPC   C4A59310  18.542  38.443   7.252
 4632POPC   C1B59311  17.800  38.308   6.277
 4632POPC   C2B59312  17.859  38.360   6.716
 4632POPC   C3B59313  17.997  38.100   7.063
 4632POPC   C4B59314  18.113  38.262   7.440
 4633POPC   NC359315  20.849  38.797   5.149
 4633POPC   PO459316  20.538  39.357   5.477
 4633POPC   GL159317  20.643  39.255   5.902
 4633POPC   GL259318  20.310  39.041   5.949
 4633POPC   C1A59319  20.789  39.002   6.233
 4633POPC   D2A59320  20.860  39.202   6.610
 4633POPC   C3A59321  20.834  38.983   6.997
 4633POPC   C4A59322  20.758  39.143   7.408
 4633POPC   C1B59323  20.318  39.250   6.300
 4633POPC   C2B59324  20.198  39.459   6.631
 4633POPC   C3B59325  20.221  39.473   7.057
 4633POPC   C4B59326  20.276  39.083   7.252
 4634POPC   NC359327  11.962   1.034   5.472
 4634POPC   PO459328  11.897   0.379   5.478
 4634POPC   GL159329  11.908   0.419   5.890
 4634POPC   GL259330  11.832   0.757   5.911
 4634POPC   C1A59331  11.758   0.255   6.271
 4634POPC   D2A59332  11.625   0.282   6.712
 4634POPC   C3A59333  11.933   0.365   7.042
 4634POPC   C4A59334  11.976   0.434   7.519
 4634POPC   C1B59335  12.100   0.691   6.298
 4634POPC   C2B59336  12.180   0.736   6.748
 4634POPC   C3B59337  12.026   0.854   7.171
 4634POPC   C4B59338  12.126   1.016   7.582
 4635POPC   NC359339  38.708  21.816   5.492
 4635POPC   PO459340  38.353  22.417   5.364
 4635POPC   GL159341  38.500  22.226   5.756
 4635POPC   GL259342  38.374  21.890   5.893
 4635POPC   C1A59343  38.483  22.313   6.198
 4635POPC   D2A59344  38.672  22.316   6.615
 4635POPC   C3A59345  38.338  22.174   6.899
 4635POPC   C4A59346  38.093  22.373   7.199
 4635POPC   C1B59347  38.752  21.869   6.177
 4635POPC   C2B59348  38.899  21.735   6.596
 4635POPC   C3B59349  38.788  21.946   6.997
 4635POPC   C4B59350  38.443  21.790   7.250
 4636POPC   NC359351  37.865  35.343   5.632
 4636POPC   PO459352  38.446  35.243   5.223
 4636POPC   GL159353  38.382  35.363   5.666
 4636POPC   GL259354  38.516  35.096   5.865
 4636POPC   C1A59355  38.378  35.472   6.163
 4636POPC   D2A59356  38.532  35.507   6.640
 4636POPC   C3A59357  38.242  35.503   7.052
 4636POPC   C4A59358  37.846  35.644   7.322
 4636POPC   C1B59359  38.654  34.893   6.236
 4636POPC   C2B59360  38.767  35.000   6.647
 4636POPC   C3B59361  38.666  35.180   7.020
 4636POPC   C4B59362  38.405  35.101   7.380
 4637POPC   NC359363  41.867  41.865   5.246
 4637POPC   PO459364  42.394  41.376   5.319
 4637POPC   GL159365  42.360  41.317   5.807
 4637POPC   GL259366  42.647  41.114   5.888
 4637POPC   C1A59367  42.152  41.405   6.239
 4637POPC   D2A59368  42.032  41.335   6.699
 4637POPC   C3A59369  42.172  41.597   7.057
 4637POPC   C4A59370  42.494  41.865   7.131
 4637POPC   C1B59371  42.669  41.455   6.211
 4637POPC   C2B59372  42.502  41.582   6.616
 4637POPC   C3B59373  42.600  41.345   6.954
 4637POPC   C4B59374  42.601  41.204   7.349
 4638POPC   NC359375  38.253  32.052   5.560
 4638POPC   PO459376  37.556  32.104   5.389
 4638POPC   GL159377  37.540  32.178   5.839
 4638POPC   GL259378  37.876  32.205   5.871
 4638POPC   C1A59379  37.565  32.308   6.266
 4638POPC   D2A59380  37.846  32.283   6.597
 4638POPC   C3A59381  37.671  32.436   6.962
 4638POPC   C4A59382  37.804  32.518   7.363
 4638POPC   C1B59383  38.058  31.970   6.183
 4638POPC   C2B59384  38.046  31.813   6.560
 4638POPC   C3B59385  38.071  31.970   6.963
 4638POPC   C4B59386  37.716  31.986   7.202
 4639POPC   NC359387   3.802  35.936   5.356
 4639POPC   PO459388   3.177  36.062   5.599
 4639POPC   GL159389   3.487  36.203   5.909
 4639POPC   GL259390   3.842  36.162   5.808
 4639POPC   C1A59391   3.381  36.339   6.343
 4639POPC   D2A59392   3.427  36.404   6.807
 4639POPC   C3A59393   3.468  35.988   6.990
 4639POPC   C4A59394   3.359  35.872   7.399
 4639POPC   C1B59395   3.955  35.945   6.182
 4639POPC   C2B59396   3.764  36.082   6.569
 4639POPC   C3B59397   3.911  36.251   6.952
 4639POPC   C4B59398   4.168  35.979   7.187
 4640POPC   NC359399  23.261  43.369   5.148
 4640POPC   PO459400  22.675  43.259   5.421
 4640POPC   GL159401  22.871  43.066   5.787
 4640POPC   GL259402  23.188  43.189   5.796
 4640POPC   C1A59403  22.943  43.263   6.223
 4640POPC   D2A59404  22.812  43.287   6.623
 4640POPC   C3A59405  23.062  43.265   6.967
 4640POPC   C4A59406  22.967  42.985   7.249
 4640POPC   C1B59407  23.274  42.895   6.156
 4640POPC   C2B59408  23.233  42.953   6.587
 4640POPC   C3B59409  23.381  42.758   6.949
 4640POPC   C4B59410  23.502  42.998   7.266
 4641POPC   NC359411  30.854   3.593   5.409
 4641POPC   PO459412  30.321   3.906   5.691
 4641POPC   GL159413  30.610   3.659   5.937
 4641POPC   GL259414  30.670   3.295   5.808
 4641POPC   C1A59415  30.547   3.748   6.392
 4641POPC   D2A59416  30.337   3.494   6.722
 4641POPC   C3A59417  30.536   3.529   7.119
 4641POPC   C4A59418  30.915   3.789   7.111
 4641POPC   C1B59419  30.714   3.263   6.277
 4641POPC   C2B59420  30.871   3.464   6.668
 4641POPC   C3B59421  31.044   3.312   7.001
 4641POPC   C4B59422  30.875   3.196   7.332
 4642POPC   NC359423   4.568  38.480   5.520
 4642POPC   PO459424   3.915  38.499   5.651
 4642POPC   GL159425   4.210  38.550   5.998
 4642POPC   GL259426   4.583  38.562   6.011
 4642POPC   C1A59427   4.319  38.528   6.451
 4642POPC   D2A59428   4.200  38.449   6.874
 4642POPC   C3A59429   4.241  38.740   7.194
 4642POPC   C4A59430   4.428  38.653   7.579
 4642POPC   C1B59431   4.645  38.163   6.241
 4642POPC   C2B59432   4.691  38.077   6.675
 4642POPC   C3B59433   4.668  38.340   7.069
 4642POPC   C4B59434   4.772  38.760   7.179
 4643POPC   NC359435  15.588  13.956   5.525
 4643POPC   PO459436  14.845  13.777   5.406
 4643POPC   GL159437  15.123  13.685   5.763
 4643POPC   GL259438  14.841  13.573   5.944
 4643POPC   C1A59439  15.290  13.537   6.197
 4643POPC   D2A59440  15.200  13.346   6.623
 4643POPC   C3A59441  15.147  13.587   7.008
 4643POPC   C4A59442  14.829  13.581   7.322
 4643POPC   C1B59443  14.921  14.015   6.136
 4643POPC   C2B59444  14.928  14.254   6.560
 4643POPC   C3B59445  14.888  14.025   6.960
 4643POPC   C4B59446  14.650  14.059   7.329
 4644POPC   NC359447  24.029  17.216   5.489
 4644POPC   PO459448  23.773  17.621   5.140
 4644POPC   GL159449  23.749  17.578   5.680
 4644POPC   GL259450  23.839  17.303   5.958
 4644POPC   C1A59451  23.692  17.759   6.099
 4644POPC   D2A59452  23.843  17.549   6.463
 4644POPC   C3A59453  23.623  17.578   6.830
 4644POPC   C4A59454  23.695  17.312   7.150
 4644POPC   C1B59455  24.063  17.098   6.317
 4644POPC   C2B59456  24.253  17.250   6.675
 4644POPC   C3B59457  24.153  17.500   7.023
 4644POPC   C4B59458  24.083  17.617   7.444
 4645POPC   NC359459  37.644  32.598   5.574
 4645POPC   PO459460  37.863  33.118   5.235
 4645POPC   GL159461  37.763  33.155   5.699
 4645POPC   GL259462  37.975  33.428   5.745
 4645POPC   C1A59463  37.629  32.981   6.148
 4645POPC   D2A59464  37.750  32.781   6.572
 4645POPC   C3A59465  37.725  32.971   7.014
 4645POPC   C4A59466  37.529  32.991   7.431
 4645POPC   C1B59467  38.022  33.328   6.174
 4645POPC   C2B59468  37.911  33.284   6.608
 4645POPC   C3B59469  38.109  33.314   7.027
 4645POPC   C4B59470  37.876  33.334   7.432
 4646POPC   NC359471  16.720  30.291   5.417
 4646POPC   PO459472  16.404  29.691   5.252
 4646POPC   GL159473  16.651  29.822   5.648
 4646POPC   GL259474  16.465  30.067   5.795
 4646POPC   C1A59475  16.866  29.826   6.077
 4646POPC   D2A59476  16.901  30.024   6.516
 4646POPC   C3A59477  16.708  29.815   6.838
 4646POPC   C4A59478  16.816  29.803   7.221
 4646POPC   C1B59479  16.536  30.211   6.201
 4646POPC   C2B59480  16.409  30.180   6.618
 4646POPC   C3B59481  16.526  30.275   7.054
 4646POPC   C4B59482  16.403  30.077   7.437
 4647POPC   NC359483  28.992   0.894   5.271
 4647POPC   PO459484  29.128   0.202   5.198
 4647POPC   GL159485  29.045   0.468   5.607
 4647POPC   GL259486  29.378   0.438   5.774
 4647POPC   C1A59487  28.903   0.589   6.059
 4647POPC   D2A59488  28.971   0.724   6.503
 4647POPC   C3A59489  28.953   0.451   6.881
 4647POPC   C4A59490  28.910   0.667   7.285
 4647POPC   C1B59491  29.386   0.569   6.222
 4647POPC   C2B59492  29.418   0.498   6.659
 4647POPC   C3B59493  29.322   0.836   6.936
 4647POPC   C4B59494  29.370   0.916   7.387
 4648POPC   NC359495  37.402   3.185   5.717
 4648POPC   PO459496  37.911   2.770   5.489
 4648POPC   GL159497  37.692   2.584   5.848
 4648POPC   GL259498  37.344   2.670   5.860
 4648POPC   C1A59499  37.622   2.605   6.314
 4648POPC   D2A59500  37.585   2.494   6.760
 4648POPC   C3A59501  37.544   2.800   7.096
 4648POPC   C4A59502  37.851   3.109   7.178
 4648POPC   C1B59503  37.189   2.378   6.188
 4648POPC   C2B59504  37.062   2.474   6.636
 4648POPC   C3B59505  37.179   2.418   7.077
 4648POPC   C4B59506  37.318   2.472   7.473
 4649POPC   NC359507  28.446   6.176   5.457
 4649POPC   PO459508  28.652   5.598   5.296
 4649POPC   GL159509  28.452   5.707   5.716
 4649POPC   GL259510  28.121   5.890   5.739
 4649POPC   C1A59511  28.521   5.993   6.093
 4649POPC   D2A59512  28.422   5.965   6.536
 4649POPC   C3A59513  28.558   6.109   6.948
 4649POPC   C4A59514  28.400   5.965   7.368
 4649POPC   C1B59515  28.023   5.871   6.178
 4649POPC   C2B59516  27.932   6.093   6.555
 4649POPC   C3B59517  28.051   6.067   6.963
 4649POPC   C4B59518  27.905   5.859   7.291
 4650POPC   NC359519  17.571  24.727   5.370
 4650POPC   PO459520  17.406  24.049   5.506
 4650POPC   GL159521  17.292  24.292   5.855
 4650POPC   GL259522  17.613  24.466   5.831
 4650POPC   C1A59523  17.393  24.277   6.299
 4650POPC   D2A59524  17.770  24.253   6.563
 4650POPC   C3A59525  17.656  24.438   6.975
 4650POPC   C4A59526  17.317  24.445   7.270
 4650POPC   C1B59527  17.511  24.741   6.114
 4650POPC   C2B59528  17.568  24.722   6.539
 4650POPC   C3B59529  17.497  24.940   6.895
 4650POPC   C4B59530  17.565  24.908   7.284
 4651POPC   NC359531  17.772   8.258   5.336
 4651POPC   PO459532  18.403   7.952   5.434
 4651POPC   GL159533  18.192   8.265   5.681
 4651POPC   GL259534  17.965   8.029   5.777
 4651POPC   C1A59535  18.219   8.369   6.133
 4651POPC   D2A59536  18.309   8.186   6.560
 4651POPC   C3A59537  18.168   8.372   6.933
 4651POPC   C4A59538  18.365   8.381   7.277
 4651POPC   C1B59539  17.984   7.933   6.228
 4651POPC   C2B59540  17.946   7.790   6.680
 4651POPC   C3B59541  17.932   7.840   7.146
 4651POPC   C4B59542  17.894   7.689   7.592
 4652POPC   NC359543  38.238  26.202   5.266
 4652POPC   PO459544  38.838  25.848   5.396
 4652POPC   GL159545  38.684  26.014   5.721
 4652POPC   GL259546  38.363  25.975   5.710
 4652POPC   C1A59547  38.700  25.862   6.139
 4652POPC   D2A59548  38.901  25.984   6.521
 4652POPC   C3A59549  38.619  25.966   6.801
 4652POPC   C4A59550  38.586  25.893   7.207
 4652POPC   C1B59551  38.288  26.202   6.088
 4652POPC   C2B59552  38.160  26.115   6.541
 4652POPC   C3B59553  38.245  26.242   6.992
 4652POPC   C4B59554  38.108  26.279   7.409
 4653POPC   NC359555  41.499   0.666   5.492
 4653POPC   PO459556  41.908   0.099   5.333
 4653POPC   GL159557  41.904   0.370   5.716
 4653POPC   GL259558  41.927   0.759   5.767
 4653POPC   C1A59559  41.835   0.333   6.155
 4653POPC   D2A59560  41.572   0.384   6.513
 4653POPC   C3A59561  41.820   0.410   6.863
 4653POPC   C4A59562  41.654   0.264   7.228
 4653POPC   C1B59563  41.675   0.829   6.176
 4653POPC   C2B59564  41.505   0.882   6.613
 4653POPC   C3B59565  41.442   0.710   7.021
 4653POPC   C4B59566  41.520   0.690   7.451
 4654POPC   NC359567   1.445  38.296   5.288
 4654POPC   PO459568   1.018  38.812   5.501
 4654POPC   GL159569   1.256  38.504   5.773
 4654POPC   GL259570   0.983  38.461   6.007
 4654POPC   C1A59571   1.433  38.468   6.228
 4654POPC   D2A59572   1.125  38.444   6.542
 4654POPC   C3A59573   1.209  38.566   6.942
 4654POPC   C4A59574   1.479  38.419   7.278
 4654POPC   C1B59575   0.749  38.700   6.303
 4654POPC   C2B59576   0.717  38.754   6.745
 4654POPC   C3B59577   0.837  38.925   7.148
 4654POPC   C4B59578   1.008  38.625   7.401
 4655POPC   NC359579  31.677  18.489   5.386
 4655POPC   PO459580  31.030  18.277   5.347
 4655POPC   GL159581  31.120  18.482   5.776
 4655POPC   GL259582  31.457  18.506   5.845
 4655POPC   C1A59583  31.138  18.306   6.218
 4655POPC   D2A59584  31.453  18.226   6.550
 4655POPC   C3A59585  31.447  18.365   6.964
 4655POPC   C4A59586  31.428  18.047   7.262
 4655POPC   C1B59587  31.558  18.630   6.242
 4655POPC   C2B59588  31.748  18.699   6.650
 4655POPC   C3B59589  32.012  18.581   6.971
 4655POPC   C4B59590  31.930  18.306   7.277
 4656POPC   NC359591  39.066  38.709   5.485
 4656POPC   PO459592  39.447  38.228   5.609
 4656POPC   GL159593  39.334  38.448   5.921
 4656POPC   GL259594  38.984  38.380   5.900
 4656POPC   C1A59595  39.297  38.309   6.329
 4656POPC   D2A59596  39.130  38.143   6.673
 4656POPC   C3A59597  39.293  38.271   7.040
 4656POPC   C4A59598  39.432  38.680   7.146
 4656POPC   C1B59599  39.026  38.727   6.237
 4656POPC   C2B59600  39.187  38.742   6.689
 4656POPC   C3B59601  38.924  38.734   7.102
 4656POPC   C4B59602  38.836  38.854   7.559
 4657POPC   NC359603  26.910   3.662   5.444
 4657POPC   PO459604  26.474   3.114   5.394
 4657POPC   GL159605  26.672   3.299   5.819
 4657POPC   GL259606  26.911   3.598   5.916
 4657POPC   C1A59607  26.604   3.477   6.282
 4657POPC   D2A59608  26.756   3.291   6.636
 4657POPC   C3A59609  26.634   3.403   7.056
 4657POPC   C4A59610  26.476   3.458   7.475
 4657POPC   C1B59611  26.958   3.910   6.185
 4657POPC   C2B59612  27.067   3.756   6.572
 4657POPC   C3B59613  27.179   3.710   6.962
 4657POPC   C4B59614  27.039   3.517   7.313
 4658POPC   NC359615  37.344  41.415   5.336
 4658POPC   PO459616  37.982  41.683   5.527
 4658POPC   GL159617  37.622  41.653   5.753
 4658POPC   GL259618  37.631  41.296   5.737
 4658POPC   C1A59619  37.526  41.763   6.203
 4658POPC   D2A59620  37.802  41.682   6.582
 4658POPC   C3A59621  37.755  41.836   7.018
 4658POPC   C4A59622  37.341  41.825   7.174
 4658POPC   C1B59623  37.828  41.347   6.149
 4658POPC   C2B59624  37.962  41.171   6.532
 4658POPC   C3B59625  37.791  41.313   6.938
 4658POPC   C4B59626  37.579  41.346   7.327
 4659POPC   NC359627  29.195  17.016   5.355
 4659POPC   PO459628  29.462  16.349   5.256
 4659POPC   GL159629  29.368  16.573   5.667
 4659POPC   GL259630  29.041  16.716   5.747
 4659POPC   C1A59631  29.415  16.784   6.098
 4659POPC   D2A59632  29.213  17.031   6.469
 4659POPC   C3A59633  29.307  16.942   6.919
 4659POPC   C4A59634  29.383  16.572   7.198
 4659POPC   C1B59635  28.906  16.701   6.192
 4659POPC   C2B59636  28.857  16.501   6.607
 4659POPC   C3B59637  28.899  16.648   7.012
 4659POPC   C4B59638  28.898  16.577   7.464
 4660POPC   NC359639  20.370  20.855   5.495
 4660POPC   PO459640  20.793  20.359   5.711
 4660POPC   GL159641  20.668  20.753   5.910
 4660POPC   GL259642  20.341  20.742   5.990
 4660POPC   C1A59643  20.669  20.996   6.299
 4660POPC   D2A59644  20.628  20.980   6.736
 4660POPC   C3A59645  20.661  20.590   6.887
 4660POPC   C4A59646  20.780  20.598   7.304
 4660POPC   C1B59647  20.435  20.486   6.355
 4660POPC   C2B59648  20.086  20.302   6.594
 4660POPC   C3B59649  19.880  20.283   6.983
 4660POPC   C4B59650  20.280  20.408   7.180
 4661POPC   NC359651  14.189  30.033   5.477
 4661POPC   PO459652  14.721  29.988   5.036
 4661POPC   GL159653  14.669  29.827   5.537
 4661POPC   GL259654  14.389  29.646   5.689
 4661POPC   C1A59655  14.563  29.965   6.037
 4661POPC   D2A59656  14.258  30.092   6.382
 4661POPC   C3A59657  14.282  30.022   6.839
 4661POPC   C4A59658  14.311  30.185   7.275
 4661POPC   C1B59659  14.326  29.503   6.114
 4661POPC   C2B59660  14.246  29.600   6.530
 4661POPC   C3B59661  14.286  29.450   6.940
 4661POPC   C4B59662  14.213  29.671   7.309
 4662POPC   NC359663  30.719  25.287   5.372
 4662POPC   PO459664  30.041  25.567   5.409
 4662POPC   GL159665  30.354  25.442   5.747
 4662POPC   GL259666  30.492  25.099   5.820
 4662POPC   C1A59667  30.618  25.495   6.136
 4662POPC   D2A59668  30.475  25.521   6.574
 4662POPC   C3A59669  30.640  25.327   6.928
 4662POPC   C4A59670  30.533  25.546   7.280
 4662POPC   C1B59671  30.795  25.032   6.182
 4662POPC   C2B59672  31.020  25.239   6.544
 4662POPC   C3B59673  31.159  25.049   6.925
 4662POPC   C4B59674  30.837  24.899   7.188
 4663POPC   NC359675  34.147  34.611   5.420
 4663POPC   PO459676  33.527  34.313   5.457
 4663POPC   GL159677  33.765  34.388   5.813
 4663POPC   GL259678  33.877  34.749   5.828
 4663POPC   C1A59679  33.867  34.465   6.247
 4663POPC   D2A59680  33.916  34.305   6.653
 4663POPC   C3A59681  33.646  34.423   7.008
 4663POPC   C4A59682  33.634  34.315   7.430
 4663POPC   C1B59683  34.088  34.932   6.197
 4663POPC   C2B59684  34.186  34.737   6.590
 4663POPC   C3B59685  33.970  34.801   6.950
 4663POPC   C4B59686  33.919  35.162   7.176
 4664POPC   NC359687  44.422  41.175   5.427
 4664POPC   PO459688  44.646  40.499   5.405
 4664POPC   GL159689  44.446  40.745   5.759
 4664POPC   GL259690  44.759  40.914   5.847
 4664POPC   C1A59691  44.412  40.960   6.205
 4664POPC   D2A59692  44.615  41.053   6.606
 4664POPC   C3A59693  44.578  40.749   6.945
 4664POPC   C4A59694  44.612  40.883   7.334
 4664POPC   C1B59695   0.087  41.032   6.155
 4664POPC   C2B59696   0.124  40.964   6.573
 4664POPC   C3B59697   0.007  41.024   6.980
 4664POPC   C4B59698   0.042  40.671   7.214
 4665POPC   NC359699   2.760  44.569   5.618
 4665POPC   PO459700   2.891  43.887   5.309
 4665POPC   GL159701   2.813  43.722   5.709
 4665POPC   GL259702   2.648  44.020   5.795
 4665POPC   C1A59703   2.736  43.651   6.154
 4665POPC   D2A59704   2.964  43.807   6.520
 4665POPC   C3A59705   2.824  43.849   6.955
 4665POPC   C4A59706   3.152  43.859   7.285
 4665POPC   C1B59707   2.810  44.197   6.173
 4665POPC   C2B59708   2.635  44.227   6.575
 4665POPC   C3B59709   2.503  44.274   6.974
 4665POPC   C4B59710   2.583  44.098   7.349
 4666POPC   NC359711  26.279  44.422   5.180
 4666POPC   PO459712  25.945  43.918   5.488
 4666POPC   GL159713  26.050  43.741   5.869
 4666POPC   GL259714  25.777  43.922   5.976
 4666POPC   C1A59715  26.188  43.889   6.286
 4666POPC   D2A59716  25.961  43.997   6.667
 4666POPC   C3A59717  26.206  44.112   7.026
 4666POPC   C4A59718  26.028  44.040   7.430
 4666POPC   C1B59719  25.656  43.655   6.281
 4666POPC   C2B59720  25.731  43.516   6.666
 4666POPC   C3B59721  25.569  43.772   6.954
 4666POPC   C4B59722  25.593  43.782   7.356
 4667POPC   NC359723  15.703  20.013   5.480
 4667POPC   PO459724  15.946  19.392   5.512
 4667POPC   GL159725  16.041  19.742   5.778
 4667POPC   GL259726  15.724  19.798   5.941
 4667POPC   C1A59727  16.164  19.958   6.157
 4667POPC   D2A59728  15.916  20.000   6.509
 4667POPC   C3A59729  16.138  19.970   6.868
 4667POPC   C4A59730  16.219  20.013   7.249
 4667POPC   C1B59731  15.901  19.541   6.279
 4667POPC   C2B59732  15.991  19.500   6.725
 4667POPC   C3B59733  15.818  19.649   7.098
 4667POPC   C4B59734  15.641  19.427   7.399
 4668POPC   NC359735  33.556   1.358   5.427
 4668POPC   PO459736  33.950   0.867   5.545
 4668POPC   GL159737  33.679   1.094   5.876
 4668POPC   GL259738  33.653   1.479   5.915
 4668POPC   C1A59739  33.795   1.214   6.323
 4668POPC   D2A59740  33.800   1.294   6.772
 4668POPC   C3A59741  33.583   1.046   7.085
 4668POPC   C4A59742  33.874   1.236   7.358
 4668POPC   C1B59743  33.536   1.665   6.315
 4668POPC   C2B59744  33.397   1.611   6.743
 4668POPC   C3B59745  33.544   1.558   7.159
 4668POPC   C4B59746  33.595   1.510   7.675
 4669POPC   NC359747  29.572   0.084   5.352
 4669POPC   PO459748  30.020   0.600   5.482
 4669POPC   GL159749  29.906   0.258   5.780
 4669POPC   GL259750  29.833   0.494   6.004
 4669POPC   C1A59751  30.088   0.126   6.228
 4669POPC   D2A59752  29.918   0.431   6.522
 4669POPC   C3A59753  29.835   0.591   6.947
 4669POPC   C4A59754  29.877   0.845   7.296
 4669POPC   C1B59755  29.596   0.115   6.180
 4669POPC   C2B59756  29.729  44.949   6.585
 4669POPC   C3B59757  29.630   0.108   6.981
 4669POPC   C4B59758  29.397   0.418   7.192
 4670POPC   NC359759  31.197  43.508   5.526
 4670POPC   PO459760  31.318  44.152   5.558
 4670POPC   GL159761  31.465  43.817   5.880
 4670POPC   GL259762  31.821  43.686   5.949
 4670POPC   C1A59763  31.459  43.800   6.350
 4670POPC   D2A59764  31.238  43.684   6.753
 4670POPC   C3A59765  31.176  44.018   7.063
 4670POPC   C4A59766  31.328  44.030   7.492
 4670POPC   C1B59767  31.975  43.845   6.382
 4670POPC   C2B59768  31.759  43.934   6.807
 4670POPC   C3B59769  31.583  43.697   7.173
 4670POPC   C4B59770  31.641  43.661   7.629
 4671POPC   NC359771  19.055  14.088   5.537
 4671POPC   PO459772  19.137  14.755   5.517
 4671POPC   GL159773  19.009  14.505   5.841
 4671POPC   GL259774  18.658  14.584   5.832
 4671POPC   C1A59775  19.208  14.311   6.233
 4671POPC   D2A59776  19.447  14.336   6.659
 4671POPC   C3A59777  19.224  14.252   7.074
 4671POPC   C4A59778  19.160  14.056   7.493
 4671POPC   C1B59779  18.811  14.660   6.268
 4671POPC   C2B59780  18.967  14.538   6.640
 4671POPC   C3B59781  18.825  14.561   7.025
 4671POPC   C4B59782  19.147  14.745   7.246
 4672POPC   NC359783  39.355   3.671   5.440
 4672POPC   PO459784  38.760   3.304   5.494
 4672POPC   GL159785  39.020   3.456   5.824
 4672POPC   GL259786  38.991   3.804   5.888
 4672POPC   C1A59787  39.365   3.371   6.140
 4672POPC   D2A59788  39.582   3.523   6.521
 4672POPC   C3A59789  39.377   3.464   6.902
 4672POPC   C4A59790  39.426   3.366   7.304
 4672POPC   C1B59791  39.053   3.739   6.340
 4672POPC   C2B59792  38.991   3.790   6.791
 4672POPC   C3B59793  39.061   3.738   7.247
 4672POPC   C4B59794  38.933   3.882   7.687
 4673POPC   NC359795  12.290   0.095   5.373
 4673POPC   PO459796  12.932  44.847   5.225
 4673POPC   GL159797  12.785  44.653   5.619
 4673POPC   GL259798  12.608  44.931   5.817
 4673POPC   C1A59799  12.946  44.538   6.057
 4673POPC   D2A59800  12.770  44.506   6.484
 4673POPC   C3A59801  12.920  44.332   6.867
 4673POPC   C4A59802  12.997  44.497   7.315
 4673POPC   C1B59803  12.765  44.989   6.271
 4673POPC   C2B59804  12.712  44.978   6.746
 4673POPC   C3B59805  12.851   0.019   7.184
 4673POPC   C4B59806  13.296  44.912   7.343
 4674POPC   NC359807   2.015  16.582   5.453
 4674POPC   PO459808   1.460  16.924   5.142
 4674POPC   GL159809   1.650  16.968   5.625
 4674POPC   GL259810   2.018  16.962   5.795
 4674POPC   C1A59811   1.630  16.912   6.117
 4674POPC   D2A59812   1.571  16.744   6.546
 4674POPC   C3A59813   1.738  16.960   6.879
 4674POPC   C4A59814   1.730  16.915   7.296
 4674POPC   C1B59815   2.166  16.630   6.134
 4674POPC   C2B59816   2.045  16.490   6.589
 4674POPC   C3B59817   2.115  16.643   7.029
 4674POPC   C4B59818   2.210  16.795   7.443
 4675POPC   NC359819   8.591  36.611   5.056
 4675POPC   PO459820   9.019  37.059   5.429
 4675POPC   GL159821   8.995  36.864   5.872
 4675POPC   GL259822   8.848  36.541   6.016
 4675POPC   C1A59823   9.027  36.929   6.301
 4675POPC   D2A59824   8.886  37.245   6.577
 4675POPC   C3A59825   9.001  37.090   6.974
 4675POPC   C4A59826   9.033  36.680   7.108
 4675POPC   C1B59827   8.538  36.789   6.268
 4675POPC   C2B59828   8.533  36.906   6.726
 4675POPC   C3B59829   8.533  36.766   7.140
 4675POPC   C4B59830   8.677  36.456   7.449
 4676POPC   NC359831  18.607  35.367   5.468
 4676POPC   PO459832  18.085  34.952   5.634
 4676POPC   GL159833  18.392  35.201   5.919
 4676POPC   GL259834  18.459  35.573   5.924
 4676POPC   C1A59835  18.656  35.193   6.299
 4676POPC   D2A59836  18.562  35.083   6.712
 4676POPC   C3A59837  18.573  35.295   7.088
 4676POPC   C4A59838  18.777  35.041   7.377
 4676POPC   C1B59839  18.354  35.608   6.360
 4676POPC   C2B59840  18.129  35.376   6.680
 4676POPC   C3B59841  18.065  35.292   7.110
 4676POPC   C4B59842  18.298  35.472   7.496
 4677POPC   NC359843  33.956   9.285   5.490
 4677POPC   PO459844  33.636   9.933   5.311
 4677POPC   GL159845  33.894   9.847   5.659
 4677POPC   GL259846  33.750  10.134   5.801
 4677POPC   C1A59847  33.922   9.693   6.084
 4677POPC   D2A59848  33.981   9.622   6.522
 4677POPC   C3A59849  33.711   9.621   6.869
 4677POPC   C4A59850  33.876   9.814   7.219
 4677POPC   C1B59851  33.596  10.080   6.217
 4677POPC   C2B59852  33.717  10.086   6.647
 4677POPC   C3B59853  33.481  10.086   7.010
 4677POPC   C4B59854  33.436   9.943   7.436
 4678POPC   NC359855  19.251   6.285   5.477
 4678POPC   PO459856  19.372   5.590   5.413
 4678POPC   GL159857  19.137   5.669   5.797
 4678POPC   GL259858  18.954   5.974   5.769
 4678POPC   C1A59859  18.863   5.686   6.163
 4678POPC   D2A59860  18.756   5.942   6.496
 4678POPC   C3A59861  18.931   5.788   6.880
 4678POPC   C4A59862  18.879   5.916   7.306
 4678POPC   C1B59863  19.046   6.195   6.164
 4678POPC   C2B59864  19.373   6.299   6.481
 4678POPC   C3B59865  19.356   6.301   6.919
 4678POPC   C4B59866  19.485   6.408   7.321
 4679POPC   NC359867   5.952  42.293   5.391
 4679POPC   PO459868   5.446  42.567   5.069
 4679POPC   GL159869   5.617  42.559   5.641
 4679POPC   GL259870   5.449  42.336   5.906
 4679POPC   C1A59871   5.896  42.544   6.057
 4679POPC   D2A59872   5.981  42.361   6.499
 4679POPC   C3A59873   5.691  42.442   6.888
 4679POPC   C4A59874   5.768  42.686   7.280
 4679POPC   C1B59875   5.757  42.044   6.131
 4679POPC   C2B59876   5.888  41.833   6.527
 4679POPC   C3B59877   6.011  42.035   6.917
 4679POPC   C4B59878   5.804  42.176   7.309
 4680POPC   NC359879  38.527   9.201   5.421
 4680POPC   PO459880  38.702   8.589   5.484
 4680POPC   GL159881  38.591   8.893   5.857
 4680POPC   GL259882  38.291   9.129   5.885
 4680POPC   C1A59883  38.615   8.893   6.349
 4680POPC   D2A59884  38.586   8.747   6.818
 4680POPC   C3A59885  38.370   8.978   7.179
 4680POPC   C4A59886  38.532   9.022   7.653
 4680POPC   C1B59887  38.379   9.388   6.272
 4680POPC   C2B59888  38.333   9.393   6.744
 4680POPC   C3B59889  38.094   9.449   7.121
 4680POPC   C4B59890  38.058   9.230   7.527
 4681POPC   NC359891  23.348  29.163   5.509
 4681POPC   PO459892  23.956  29.437   5.281
 4681POPC   GL159893  23.719  29.444   5.737
 4681POPC   GL259894  23.654  29.098   5.904
 4681POPC   C1A59895  23.760  29.473   6.228
 4681POPC   D2A59896  23.993  29.341   6.624
 4681POPC   C3A59897  23.829  29.345   7.067
 4681POPC   C4A59898  23.690  29.385   7.534
 4681POPC   C1B59899  23.632  28.803   6.264
 4681POPC   C2B59900  23.670  28.930   6.674
 4681POPC   C3B59901  23.763  28.803   7.068
 4681POPC   C4B59902  23.580  28.868   7.466
 4682POPC   NC359903   3.716  16.188   5.508
 4682POPC   PO459904   3.278  15.612   5.409
 4682POPC   GL159905   3.445  15.854   5.804
 4682POPC   GL259906   3.351  16.217   5.887
 4682POPC   C1A59907   3.226  15.853   6.221
 4682POPC   D2A59908   3.165  15.599   6.608
 4682POPC   C3A59909   3.366  15.817   6.981
 4682POPC   C4A59910   3.794  15.737   7.180
 4682POPC   C1B59911   3.613  16.218   6.277
 4682POPC   C2B59912   3.748  16.070   6.716
 4682POPC   C3B59913   3.835  16.266   7.153
 4682POPC   C4B59914   3.750  16.487   7.609
 4683POPC   NC359915  10.725  43.617   5.562
 4683POPC   PO459916  10.170  43.935   5.369
 4683POPC   GL159917  10.355  43.915   5.863
 4683POPC   GL259918  10.624  43.648   6.044
 4683POPC   C1A59919  10.241  43.830   6.305
 4683POPC   D2A59920  10.059  43.776   6.699
 4683POPC   C3A59921  10.250  43.753   7.115
 4683POPC   C4A59922  10.309  44.139   7.332
 4683POPC   C1B59923  10.701  44.064   6.226
 4683POPC   C2B59924  10.668  44.287   6.638
 4683POPC   C3B59925  10.751  44.183   7.103
 4683POPC   C4B59926  10.744  44.077   7.588
 4684POPC   NC359927  10.584  29.583   5.417
 4684POPC   PO459928  10.366  28.860   5.450
 4684POPC   GL159929  10.631  29.111   5.693
 4684POPC   GL259930  10.336  29.290   5.748
 4684POPC   C1A59931  10.787  29.290   6.097
 4684POPC   D2A59932  10.638  29.198   6.529
 4684POPC   C3A59933  10.737  29.324   6.954
 4684POPC   C4A59934  10.696  28.943   7.195
 4684POPC   C1B59935  10.295  29.383   6.188
 4684POPC   C2B59936  10.115  29.268   6.560
 4684POPC   C3B59937  10.273  29.100   6.900
 4684POPC   C4B59938  10.257  29.133   7.321
 4685POPC   NC359939  44.768  41.922   5.332
 4685POPC   PO459940  44.892  41.205   5.451
 4685POPC   GL159941  44.670  41.425   5.795
 4685POPC   GL259942  44.651  41.777   5.799
 4685POPC   C1A59943  44.751  41.395   6.229
 4685POPC   D2A59944   0.028  41.468   6.584
 4685POPC   C3A59945  44.743  41.495   6.913
 4685POPC   C4A59946  44.777  41.347   7.303
 4685POPC   C1B59947  44.374  41.723   6.137
 4685POPC   C2B59948  44.361  41.507   6.530
 4685POPC   C3B59949  44.268  41.725   6.856
 4685POPC   C4B59950  44.339  41.664   7.247
 4686POPC   NC359951  21.701   1.505   5.487
 4686POPC   PO459952  21.397   1.019   5.642
 4686POPC   GL159953  21.411   1.348   5.903
 4686POPC   GL259954  21.145   1.616   5.887
 4686POPC   C1A59955  21.598   1.208   6.277
 4686POPC   D2A59956  21.724   1.365   6.633
 4686POPC   C3A59957  21.785   1.052   6.907
 4686POPC   C4A59958  21.597   1.092   7.290
 4686POPC   C1B59959  21.091   1.369   6.292
 4686POPC   C2B59960  21.226   1.158   6.703
 4686POPC   C3B59961  21.093   1.123   7.148
 4686POPC   C4B59962  21.090   1.418   7.498
 4687POPC   NC359963  39.440  35.274   5.488
 4687POPC   PO459964  40.145  35.377   5.465
 4687POPC   GL159965  40.085  35.449   5.885
 4687POPC   GL259966  39.781  35.256   5.864
 4687POPC   C1A59967  40.130  35.495   6.343
 4687POPC   D2A59968  40.190  35.215   6.699
 4687POPC   C3A59969  40.297  35.347   7.115
 4687POPC   C4A59970  40.290  35.362   7.586
 4687POPC   C1B59971  39.773  35.098   6.261
 4687POPC   C2B59972  39.681  35.327   6.611
 4687POPC   C3B59973  39.757  35.408   7.018
 4687POPC   C4B59974  39.849  35.186   7.345
 4688POPC   NC359975  16.613   1.955   5.212
 4688POPC   PO459976  17.221   2.267   5.333
 4688POPC   GL159977  16.964   2.118   5.751
 4688POPC   GL259978  16.653   2.060   6.007
 4688POPC   C1A59979  17.060   1.910   6.194
 4688POPC   D2A59980  16.805   2.004   6.559
 4688POPC   C3A59981  16.852   1.952   6.995
 4688POPC   C4A59982  16.893   2.145   7.417
 4688POPC   C1B59983  16.378   2.178   6.335
 4688POPC   C2B59984  16.321   1.901   6.666
 4688POPC   C3B59985  16.387   1.708   6.985
 4688POPC   C4B59986  16.401   1.925   7.322
 4689POPC   NC359987  30.178   8.499   5.634
 4689POPC   PO459988  29.750   8.103   5.316
 4689POPC   GL159989  29.875   8.099   5.771
 4689POPC   GL259990  29.630   8.390   5.791
 4689POPC   C1A59991  30.081   8.174   6.222
 4689POPC   D2A59992  29.806   8.194   6.623
 4689POPC   C3A59993  29.922   8.170   7.059
 4689POPC   C4A59994  30.191   8.392   7.336
 4689POPC   C1B59995  29.708   8.504   6.208
 4689POPC   C2B59996  30.030   8.651   6.520
 4689POPC   C3B59997  29.974   8.686   6.975
 4689POPC   C4B59998  29.691   8.573   7.327
 4690POPC   NC359999   4.329   3.721   5.217
 4690POPC   PO460000   4.071   3.413   5.664
 4690POPC   GL160001   4.393   3.634   5.776
 4690POPC   GL260002   4.396   3.979   5.681
 4690POPC   C1A60003   4.507   3.502   6.186
 4690POPC   D2A60004   4.451   3.212   6.532
 4690POPC   C3A60005   4.346   3.391   6.908
 4690POPC   C4A60006   4.053   3.463   7.212
 4690POPC   C1B60007   4.316   3.985   6.145
 4690POPC   C2B60008   4.327   3.790   6.569
 4690POPC   C3B60009   4.260   3.895   6.986
 4690POPC   C4B60010   4.523   3.801   7.296
 4691POPC   NC360011  20.614   1.274   5.385
 4691POPC   PO460012  20.833   0.722   5.347
 4691POPC   GL160013  20.868   1.036   5.757
 4691POPC   GL260014  20.669   1.392   5.859
 4691POPC   C1A60015  20.676   1.024   6.194
 4691POPC   D2A60016  20.563   0.823   6.597
 4691POPC   C3A60017  20.432   1.122   6.906
 4691POPC   C4A60018  20.604   1.267   7.275
 4691POPC   C1B60019  20.596   1.562   6.275
 4691POPC   C2B60020  20.772   1.438   6.682
 4691POPC   C3B60021  20.920   1.619   7.045
 4691POPC   C4B60022  20.692   1.756   7.359
 4692POPC   NC360023  23.194  43.683   5.624
 4692POPC   PO460024  22.611  43.833   5.380
 4692POPC   GL160025  22.746  43.884   5.791
 4692POPC   GL260026  22.730  43.543   5.848
 4692POPC   C1A60027  22.953  43.782   6.220
 4692POPC   D2A60028  23.177  43.606   6.563
 4692POPC   C3A60029  23.016  43.776   6.940
 4692POPC   C4A60030  23.068  43.948   7.337
 4692POPC   C1B60031  22.482  43.513   6.224
 4692POPC   C2B60032  22.572  43.721   6.593
 4692POPC   C3B60033  22.554  43.583   7.010
 4692POPC   C4B60034  22.577  43.878   7.346
 4693POPC   NC360035  13.053  41.027   5.448
 4693POPC   PO460036  12.679  40.416   5.394
 4693POPC   GL160037  12.742  40.700   5.757
 4693POPC   GL260038  13.104  40.711   5.838
 4693POPC   C1A60039  12.668  40.578   6.198
 4693POPC   D2A60040  12.558  40.312   6.556
 4693POPC   C3A60041  12.616  40.585   6.895
 4693POPC   C4A60042  12.665  40.880   7.222
 4693POPC   C1B60043  12.974  41.021   6.140
 4693POPC   C2B60044  12.849  40.956   6.568
 4693POPC   C3B60045  13.082  40.862   6.941
 4693POPC   C4B60046  13.107  40.708   7.391
 4694POPC   NC360047   8.240  34.058   5.503
 4694POPC   PO460048   8.658  33.521   5.321
 4694POPC   GL160049   8.307  33.575   5.728
 4694POPC   GL260050   7.963  33.732   5.800
 4694POPC   C1A60051   8.262  33.763   6.198
 4694POPC   D2A60052   8.454  33.590   6.529
 4694POPC   C3A60053   8.551  33.876   6.827
 4694POPC   C4A60054   8.248  33.802   7.143
 4694POPC   C1B60055   8.036  33.335   6.073
 4694POPC   C2B60056   8.024  33.218   6.497
 4694POPC   C3B60057   8.141  33.352   6.888
 4694POPC   C4B60058   7.988  33.356   7.266
 4695POPC   NC360059  28.371  42.128   5.461
 4695POPC   PO460060  27.845  42.557   5.237
 4695POPC   GL160061  28.046  42.483   5.705
 4695POPC   GL260062  28.415  42.512   5.831
 4695POPC   C1A60063  28.102  42.268   6.144
 4695POPC   D2A60064  28.256  42.274   6.590
 4695POPC   C3A60065  28.153  42.052   6.961
 4695POPC   C4A60066  28.335  41.725   7.214
 4695POPC   C1B60067  28.529  42.588   6.291
 4695POPC   C2B60068  28.487  42.727   6.764
 4695POPC   C3B60069  28.470  42.620   7.238
 4695POPC   C4B60070  28.751  42.405   7.550
 4696POPC   NC360071  32.099  41.592   5.518
 4696POPC   PO460072  32.567  41.247   5.280
 4696POPC   GL160073  32.454  41.270   5.749
 4696POPC   GL260074  32.568  41.619   5.821
 4696POPC   C1A60075  32.250  41.457   6.171
 4696POPC   D2A60076  32.205  41.762   6.541
 4696POPC   C3A60077  32.275  41.602   6.963
 4696POPC   C4A60078  32.058  41.297   7.193
 4696POPC   C1B60079  32.647  41.877   6.222
 4696POPC   C2B60080  32.788  41.974   6.667
 4696POPC   C3B60081  32.712  41.854   7.120
 4696POPC   C4B60082  32.397  41.948   7.442
 4697POPC   NC360083  14.657  10.097   5.715
 4697POPC   PO460084  15.123   9.712   5.487
 4697POPC   GL160085  15.318   9.808   5.868
 4697POPC   GL260086  15.181  10.091   5.923
 4697POPC   C1A60087  15.441   9.642   6.260
 4697POPC   D2A60088  15.210   9.601   6.647
 4697POPC   C3A60089  15.341   9.728   7.055
 4697POPC   C4A60090  15.146   9.680   7.442
 4697POPC   C1B60091  14.950   9.866   6.259
 4697POPC   C2B60092  14.702   9.999   6.627
 4697POPC   C3B60093  14.865   9.907   7.027
 4697POPC   C4B60094  14.834  10.061   7.436
 4698POPC   NC360095  36.096  44.752   5.563
 4698POPC   PO460096  36.089  44.161   5.491
 4698POPC   GL160097  36.221  44.377   5.918
 4698POPC   GL260098  36.302  44.766   6.018
 4698POPC   C1A60099  36.195  44.414   6.371
 4698POPC   D2A60100  36.364  44.687   6.691
 4698POPC   C3A60101  36.340  44.435   7.056
 4698POPC   C4A60102  35.937  44.234   7.147
 4698POPC   C1B60103  35.954  44.864   6.306
 4698POPC   C2B60104  35.834  44.747   6.739
 4698POPC   C3B60105  36.087  44.867   7.117
 4698POPC   C4B60106  36.240   0.057   7.528
 4699POPC   NC360107  15.787  25.263   5.382
 4699POPC   PO460108  16.444  25.447   5.440
 4699POPC   GL160109  16.093  25.469   5.744
 4699POPC   GL260110  15.972  25.144   5.836
 4699POPC   C1A60111  16.113  25.475   6.206
 4699POPC   D2A60112  15.952  25.372   6.599
 4699POPC   C3A60113  16.149  25.312   6.996
 4699POPC   C4A60114  16.029  25.422   7.397
 4699POPC   C1B60115  15.806  24.937   6.206
 4699POPC   C2B60116  15.648  24.922   6.646
 4699POPC   C3B60117  15.796  24.935   7.075
 4699POPC   C4B60118  16.134  24.913   7.393
 4700POPC   NC360119  16.507   7.458   5.415
 4700POPC   PO460120  17.067   7.335   5.664
 4700POPC   GL160121  16.811   7.552   5.891
 4700POPC   GL260122  17.056   7.790   5.934
 4700POPC   C1A60123  16.596   7.396   6.254
 4700POPC   D2A60124  16.390   7.373   6.662
 4700POPC   C3A60125  16.624   7.242   7.041
 4700POPC   C4A60126  16.429   7.336   7.422
 4700POPC   C1B60127  17.001   7.722   6.353
 4700POPC   C2B60128  16.941   7.808   6.784
 4700POPC   C3B60129  16.989   7.861   7.233
 4700POPC   C4B60130  17.069   8.044   7.642
 4701POPC   NC360131   5.073   6.954   5.155
 4701POPC   PO460132   4.955   6.429   5.556
 4701POPC   GL160133   5.243   6.513   5.876
 4701POPC   GL260134   5.409   6.848   5.808
 4701POPC   C1A60135   5.097   6.467   6.288
 4701POPC   D2A60136   4.733   6.473   6.515
 4701POPC   C3A60137   4.819   6.720   6.864
 4701POPC   C4A60138   4.979   6.449   7.208
 4701POPC   C1B60139   5.477   6.811   6.248
 4701POPC   C2B60140   5.277   6.837   6.631
 4701POPC   C3B60141   5.273   6.857   7.052
 4701POPC   C4B60142   4.987   6.945   7.330
 4702POPC   NC360143   8.006  35.864   5.372
 4702POPC   PO460144   8.448  36.287   5.355
 4702POPC   GL160145   8.264  36.126   5.724
 4702POPC   GL260146   8.492  35.897   5.854
 4702POPC   C1A60147   8.041  35.958   6.112
 4702POPC   D2A60148   8.275  35.934   6.529
 4702POPC   C3A60149   8.059  35.902   6.912
 4702POPC   C4A60150   8.009  35.691   7.310
 4702POPC   C1B60151   8.460  36.261   6.171
 4702POPC   C2B60152   8.507  36.403   6.602
 4702POPC   C3B60153   8.453  36.262   7.000
 4702POPC   C4B60154   8.305  36.103   7.358
 4703POPC   NC360155  15.696   6.876   5.358
 4703POPC   PO460156  16.124   6.478   5.306
 4703POPC   GL160157  16.027   6.642   5.727
 4703POPC   GL260158  15.684   6.688   5.838
 4703POPC   C1A60159  16.206   6.624   6.154
 4703POPC   D2A60160  16.309   6.366   6.516
 4703POPC   C3A60161  16.243   6.599   6.875
 4703POPC   C4A60162  15.948   6.650   7.207
 4703POPC   C1B60163  15.724   6.421   6.207
 4703POPC   C2B60164  15.758   6.475   6.670
 4703POPC   C3B60165  15.474   6.593   7.002
 4703POPC   C4B60166  15.528   6.959   7.274
 4704POPC   NC360167  13.339  29.754   5.081
 4704POPC   PO460168  13.717  30.114   5.460
 4704POPC   GL160169  13.668  29.859   5.806
 4704POPC   GL260170  13.443  30.069   6.017
 4704POPC   C1A60171  13.837  29.854   6.232
 4704POPC   D2A60172  13.573  29.846   6.596
 4704POPC   C3A60173  13.810  29.884   6.990
 4704POPC   C4A60174  13.685  29.850   7.433
 4704POPC   C1B60175  13.183  30.285   6.302
 4704POPC   C2B60176  13.261  30.242   6.745
 4704POPC   C3B60177  13.444  30.202   7.132
 4704POPC   C4B60178  13.322  30.224   7.576
 4705POPC   NC360179  30.520  34.740   5.587
 4705POPC   PO460180  30.173  34.186   5.447
 4705POPC   GL160181  30.350  34.300   5.848
 4705POPC   GL260182  30.716  34.312   5.846
 4705POPC   C1A60183  30.469  34.522   6.248
 4705POPC   D2A60184  30.484  34.807   6.601
 4705POPC   C3A60185  30.529  34.604   6.994
 4705POPC   C4A60186  30.807  34.689   7.334
 4705POPC   C1B60187  30.910  34.313   6.277
 4705POPC   C2B60188  30.916  34.455   6.713
 4705POPC   C3B60189  30.863  34.219   7.133
 4705POPC   C4B60190  30.543  33.999   7.413
 4706POPC   NC360191  36.281  26.099   5.208
 4706POPC   PO460192  36.962  26.041   5.261
 4706POPC   GL160193  36.981  26.090   5.712
 4706POPC   GL260194  36.672  25.958   5.698
 4706POPC   C1A60195  37.132  25.919   6.139
 4706POPC   D2A60196  37.122  26.027   6.600
 4706POPC   C3A60197  37.051  25.674   6.913
 4706POPC   C4A60198  37.028  25.651   7.364
 4706POPC   C1B60199  36.579  25.865   6.130
 4706POPC   C2B60200  36.707  25.744   6.542
 4706POPC   C3B60201  36.548  25.821   6.997
 4706POPC   C4B60202  36.468  25.901   7.476
 4707POPC   NC360203  14.949  15.836   5.649
 4707POPC   PO460204  14.371  16.000   5.270
 4707POPC   GL160205  14.364  15.768   5.650
 4707POPC   GL260206  14.402  16.118   5.799
 4707POPC   C1A60207  14.379  15.721   6.108
 4707POPC   D2A60208  14.511  15.897   6.507
 4707POPC   C3A60209  14.432  15.713   6.932
 4707POPC   C4A60210  14.416  15.982   7.287
 4707POPC   C1B60211  14.732  16.177   6.126
 4707POPC   C2B60212  14.960  16.218   6.494
 4707POPC   C3B60213  14.746  16.181   6.882
 4707POPC   C4B60214  14.888  16.151   7.284
 4708POPC   NC360215  14.249  39.846   5.396
 4708POPC   PO460216  13.509  39.933   5.313
 4708POPC   GL160217  13.596  39.950   5.731
 4708POPC   GL260218  13.423  40.296   5.746
 4708POPC   C1A60219  13.482  39.742   6.134
 4708POPC   D2A60220  13.293  39.983   6.489
 4708POPC   C3A60221  13.425  40.000   6.907
 4708POPC   C4A60222  13.492  39.764   7.267
 4708POPC   C1B60223  13.616  40.226   6.163
 4708POPC   C2B60224  13.850  39.991   6.445
 4708POPC   C3B60225  13.921  40.050   6.872
 4708POPC   C4B60226  13.790  40.239   7.215
 4709POPC   NC360227  25.964   8.079   5.467
 4709POPC   PO460228  26.451   8.572   5.399
 4709POPC   GL160229  26.284   8.407   5.773
 4709POPC   GL260230  25.935   8.513   5.815
 4709POPC   C1A60231  26.164   8.257   6.200
 4709POPC   D2A60232  25.846   8.053   6.479
 4709POPC   C3A60233  25.823   8.125   6.914
 4709POPC   C4A60234  25.956   8.092   7.321
 4709POPC   C1B60235  25.659   8.563   6.179
 4709POPC   C2B60236  25.545   8.481   6.643
 4709POPC   C3B60237  25.735   8.611   7.049
 4709POPC   C4B60238  25.790   8.551   7.510
 4710POPC   NC360239  19.758  15.693   5.585
 4710POPC   PO460240  20.018  15.058   5.590
 4710POPC   GL160241  19.902  15.316   5.894
 4710POPC   GL260242  19.554  15.208   5.956
 4710POPC   C1A60243  19.830  15.447   6.308
 4710POPC   D2A60244  19.661  15.242   6.647
 4710POPC   C3A60245  19.843  15.391   7.020
 4710POPC   C4A60246  19.814  15.345   7.460
 4710POPC   C1B60247  19.802  14.921   6.205
 4710POPC   C2B60248  19.778  14.727   6.590
 4710POPC   C3B60249  19.790  14.879   6.989
 4710POPC   C4B60250  19.984  14.881   7.365
 4711POPC   NC360251  25.583   0.830   5.364
 4711POPC   PO460252  24.967   1.157   5.349
 4711POPC   GL160253  25.183   1.181   5.759
 4711POPC   GL260254  25.524   1.073   5.799
 4711POPC   C1A60255  25.310   1.383   6.154
 4711POPC   D2A60256  25.138   1.211   6.523
 4711POPC   C3A60257  25.161   1.379   6.908
 4711POPC   C4A60258  24.892   1.256   7.246
 4711POPC   C1B60259  25.734   1.109   6.208
 4711POPC   C2B60260  25.693   1.338   6.572
 4711POPC   C3B60261  25.624   1.175   6.969
 4711POPC   C4B60262  25.436   1.347   7.344
 4712POPC   NC360263   3.128   7.443   5.435
 4712POPC   PO460264   3.845   7.465   5.410
 4712POPC   GL160265   3.541   7.273   5.738
 4712POPC   GL260266   3.423   7.584   5.816
 4712POPC   C1A60267   3.313   7.167   6.179
 4712POPC   D2A60268   3.494   7.068   6.607
 4712POPC   C3A60269   3.252   6.927   6.977
 4712POPC   C4A60270   3.409   7.085   7.373
 4712POPC   C1B60271   3.454   7.638   6.247
 4712POPC   C2B60272   3.223   7.514   6.603
 4712POPC   C3B60273   3.408   7.435   6.994
 4712POPC   C4B60274   3.810   7.367   7.200
 4713POPC   NC360275  19.941  40.301   5.685
 4713POPC   PO460276  19.708  39.727   5.359
 4713POPC   GL160277  19.877  39.766   5.792
 4713POPC   GL260278  19.574  39.958   5.823
 4713POPC   C1A60279  20.091  39.790   6.237
 4713POPC   D2A60280  20.202  39.959   6.680
 4713POPC   C3A60281  19.913  39.904   7.029
 4713POPC   C4A60282  19.953  39.758   7.441
 4713POPC   C1B60283  19.516  39.717   6.191
 4713POPC   C2B60284  19.723  39.685   6.594
 4713POPC   C3B60285  19.497  39.599   6.954
 4713POPC   C4B60286  19.434  39.787   7.319
 4714POPC   NC360287  10.723  10.237   5.327
 4714POPC   PO460288  10.710   9.615   5.507
 4714POPC   GL160289  10.481   9.912   5.717
 4714POPC   GL260290  10.779  10.039   5.853
 4714POPC   C1A60291  10.337   9.950   6.154
 4714POPC   D2A60292  10.148   9.719   6.497
 4714POPC   C3A60293  10.319   9.690   6.889
 4714POPC   C4A60294  10.218   9.906   7.253
 4714POPC   C1B60295  10.745   9.642   6.146
 4714POPC   C2B60296  10.640   9.442   6.525
 4714POPC   C3B60297  10.818   9.566   6.909
 4714POPC   C4B60298  10.651   9.626   7.288
 4715POPC   NC360299  36.569  20.764   5.361
 4715POPC   PO460300  36.016  20.482   5.217
 4715POPC   GL160301  36.151  20.630   5.653
 4715POPC   GL260302  35.897  20.896   5.765
 4715POPC   C1A60303  36.327  20.555   6.104
 4715POPC   D2A60304  36.503  20.337   6.479
 4715POPC   C3A60305  36.381  20.513   6.846
 4715POPC   C4A60306  36.306  20.414   7.231
 4715POPC   C1B60307  35.823  20.614   6.115
 4715POPC   C2B60308  35.986  20.490   6.522
 4715POPC   C3B60309  35.893  20.573   6.958
 4715POPC   C4B60310  35.917  20.753   7.354
 4716POPC   NC360311  18.087  34.514   5.485
 4716POPC   PO460312  18.642  34.184   5.462
 4716POPC   GL160313  18.461  34.504   5.843
 4716POPC   GL260314  18.094  34.464   5.975
 4716POPC   C1A60315  18.327  34.791   6.261
 4716POPC   D2A60316  18.155  34.780   6.715
 4716POPC   C3A60317  18.342  34.850   7.160
 4716POPC   C4A60318  18.408  34.831   7.652
 4716POPC   C1B60319  18.026  34.353   6.408
 4716POPC   C2B60320  17.760  34.455   6.763
 4716POPC   C3B60321  17.876  34.635   7.140
 4716POPC   C4B60322  18.170  34.456   7.433
 4717POPC   NC360323  20.872  24.791   5.420
 4717POPC   PO460324  20.432  24.355   5.369
 4717POPC   GL160325  20.590  24.493   5.786
 4717POPC   GL260326  20.509  24.854   5.791
 4717POPC   C1A60327  20.761  24.409   6.225
 4717POPC   D2A60328  21.082  24.425   6.575
 4717POPC   C3A60329  20.814  24.319   6.933
 4717POPC   C4A60330  20.687  24.136   7.355
 4717POPC   C1B60331  20.690  24.914   6.191
 4717POPC   C2B60332  20.696  24.755   6.632
 4717POPC   C3B60333  20.507  24.724   7.036
 4717POPC   C4B60334  20.452  24.762   7.552
 4718POPC   NC360335  43.971  43.574   5.526
 4718POPC   PO460336  43.575  44.063   5.481
 4718POPC   GL160337  43.785  43.930   5.829
 4718POPC   GL260338  43.636  43.554   5.892
 4718POPC   C1A60339  43.977  44.179   6.170
 4718POPC   D2A60340  44.274  44.149   6.520
 4718POPC   C3A60341  44.083  44.102   6.913
 4718POPC   C4A60342  44.061  44.399   7.220
 4718POPC   C1B60343  43.672  43.780   6.279
 4718POPC   C2B60344  43.550  43.719   6.655
 4718POPC   C3B60345  43.643  43.870   7.054
 4718POPC   C4B60346  43.744  43.633   7.422
 4719POPC   NC360347  20.207   9.144   5.393
 4719POPC   PO460348  20.809   8.887   5.231
 4719POPC   GL160349  20.810   8.822   5.703
 4719POPC   GL260350  20.457   8.867   5.910
 4719POPC   C1A60351  20.889   8.770   6.148
 4719POPC   D2A60352  20.555   8.787   6.473
 4719POPC   C3A60353  20.721   8.907   6.863
 4719POPC   C4A60354  20.715   8.902   7.307
 4719POPC   C1B60355  20.358   9.209   6.237
 4719POPC   C2B60356  20.429   9.355   6.697
 4719POPC   C3B60357  20.581   9.376   7.157
 4719POPC   C4B60358  20.466   9.265   7.591
 4720POPC   NC360359  21.859   4.883   5.403
 4720POPC   PO460360  21.124   4.969   5.456
 4720POPC   GL160361  21.498   5.081   5.735
 4720POPC   GL260362  21.591   5.431   5.848
 4720POPC   C1A60363  21.620   5.064   6.178
 4720POPC   D2A60364  21.580   4.824   6.534
 4720POPC   C3A60365  21.588   5.088   6.904
 4720POPC   C4A60366  21.531   4.926   7.285
 4720POPC   C1B60367  21.370   5.517   6.230
 4720POPC   C2B60368  21.208   5.290   6.583
 4720POPC   C3B60369  21.071   5.279   7.017
 4720POPC   C4B60370  21.172   5.241   7.448
 4721POPC   NC360371  32.581  20.924   5.400
 4721POPC   PO460372  32.091  20.536   5.473
 4721POPC   GL160373  32.237  20.373   5.851
 4721POPC   GL260374  32.485  20.572   5.853
 4721POPC   C1A60375  32.123  20.445   6.280
 4721POPC   D2A60376  32.004  20.645   6.654
 4721POPC   C3A60377  32.162  20.520   7.032
 4721POPC   C4A60378  31.896  20.274   7.329
 4721POPC   C1B60379  32.641  20.577   6.278
 4721POPC   C2B60380  32.552  20.664   6.672
 4721POPC   C3B60381  32.599  20.899   7.015
 4721POPC   C4B60382  32.443  20.881   7.405
 4722POPC   NC360383  36.507  11.156   5.076
 4722POPC   PO460384  35.955  11.234   5.467
 4722POPC   GL160385  35.913  11.422   5.851
 4722POPC   GL260386  36.271  11.465   5.879
 4722POPC   C1A60387  36.005  11.279   6.272
 4722POPC   D2A60388  36.390  11.185   6.523
 4722POPC   C3A60389  36.202  10.993   6.880
 4722POPC   C4A60390  35.948  11.200   7.215
 4722POPC   C1B60391  36.508  11.619   6.221
 4722POPC   C2B60392  36.640  11.667   6.651
 4722POPC   C3B60393  36.436  11.710   7.064
 4722POPC   C4B60394  36.283  11.595   7.517
 4723POPC   NC360395  10.871  13.322   5.523
 4723POPC   PO460396  11.531  13.589   5.378
 4723POPC   GL160397  11.507  13.764   5.784
 4723POPC   GL260398  11.144  13.701   5.808
 4723POPC   C1A60399  11.440  13.721   6.233
 4723POPC   D2A60400  11.228  13.500   6.557
 4723POPC   C3A60401  11.375  13.543   6.974
 4723POPC   C4A60402  11.624  13.887   7.171
 4723POPC   C1B60403  10.921  13.892   6.152
 4723POPC   C2B60404  10.746  13.749   6.537
 4723POPC   C3B60405  10.943  13.859   6.896
 4723POPC   C4B60406  11.051  13.791   7.281
 4724POPC   NC360407  36.337  38.592   5.542
 4724POPC   PO460408  36.995  38.632   5.267
 4724POPC   GL160409  36.858  38.670   5.710
 4724POPC   GL260410  36.714  38.359   5.842
 4724POPC   C1A60411  36.909  38.776   6.171
 4724POPC   D2A60412  37.049  38.596   6.589
 4724POPC   C3A60413  36.913  38.723   7.037
 4724POPC   C4A60414  36.508  38.664   7.291
 4724POPC   C1B60415  37.088  38.289   6.106
 4724POPC   C2B60416  37.139  38.097   6.555
 4724POPC   C3B60417  36.965  38.218   6.951
 4724POPC   C4B60418  36.872  38.313   7.393
 4725POPC   NC360419  31.176  38.393   5.458
 4725POPC   PO460420  30.525  38.288   5.282
 4725POPC   GL160421  30.572  38.205   5.730
 4725POPC   GL260422  30.869  38.004   5.677
 4725POPC   C1A60423  30.771  38.303   6.142
 4725POPC   D2A60424  30.817  38.354   6.605
 4725POPC   C3A60425  30.457  38.480   6.909
 4725POPC   C4A60426  30.620  38.765   7.227
 4725POPC   C1B60427  31.107  37.931   6.054
 4725POPC   C2B60428  31.034  37.876   6.509
 4725POPC   C3B60429  30.973  37.998   6.931
 4725POPC   C4B60430  30.740  38.200   7.221
 4726POPC   NC360431  29.351   4.440   5.563
 4726POPC   PO460432  28.759   4.137   5.537
 4726POPC   GL160433  29.071   4.167   5.909
 4726POPC   GL260434  29.416   4.026   5.847
 4726POPC   C1A60435  29.287   4.451   6.236
 4726POPC   D2A60436  29.219   4.614   6.671
 4726POPC   C3A60437  28.846   4.424   6.900
 4726POPC   C4A60438  28.833   4.110   7.249
 4726POPC   C1B60439  29.381   3.920   6.266
 4726POPC   C2B60440  29.157   4.103   6.594
 4726POPC   C3B60441  29.283   4.194   6.977
 4726POPC   C4B60442  29.602   4.055   7.127
 4727POPC   NC360443  17.931   3.006   5.530
 4727POPC   PO460444  18.512   2.725   5.456
 4727POPC   GL160445  18.356   2.915   5.828
 4727POPC   GL260446  18.089   2.722   5.955
 4727POPC   C1A60447  18.494   2.847   6.253
 4727POPC   D2A60448  18.267   2.750   6.586
 4727POPC   C3A60449  18.563   2.827   6.871
 4727POPC   C4A60450  18.475   2.799   7.276
 4727POPC   C1B60451  18.023   3.098   6.211
 4727POPC   C2B60452  17.862   3.080   6.618
 4727POPC   C3B60453  18.100   3.071   7.012
 4727POPC   C4B60454  18.015   2.903   7.403
 4728POPC   NC360455   3.651  15.531   5.141
 4728POPC   PO460456   3.668  14.961   5.467
 4728POPC   GL160457   3.612  15.353   5.774
 4728POPC   GL260458   3.954  15.410   5.978
 4728POPC   C1A60459   3.536  15.462   6.223
 4728POPC   D2A60460   3.523  15.158   6.546
 4728POPC   C3A60461   3.573  15.356   6.883
 4728POPC   C4A60462   3.374  15.370   7.243
 4728POPC   C1B60463   3.791  15.001   6.135
 4728POPC   C2B60464   3.872  14.764   6.517
 4728POPC   C3B60465   3.771  14.854   6.957
 4728POPC   C4B60466   3.939  15.213   7.203
 4729POPC   NC360467  43.943   3.227   5.301
 4729POPC   PO460468  43.418   3.127   5.656
 4729POPC   GL160469  43.807   3.366   5.808
 4729POPC   GL260470  43.985   3.700   5.833
 4729POPC   C1A60471  43.892   3.414   6.251
 4729POPC   D2A60472  43.709   3.213   6.612
 4729POPC   C3A60473  43.946   3.288   6.968
 4729POPC   C4A60474  43.883   3.422   7.362
 4729POPC   C1B60475  43.728   3.880   6.198
 4729POPC   C2B60476  43.673   3.737   6.645
 4729POPC   C3B60477  43.651   3.784   7.113
 4729POPC   C4B60478  43.852   3.882   7.554
 4730POPC   NC360479  41.579   3.865   5.663
 4730POPC   PO460480  41.301   3.260   5.426
 4730POPC   GL160481  41.435   3.212   5.806
 4730POPC   GL260482  41.761   3.357   5.834
 4730POPC   C1A60483  41.301   3.336   6.188
 4730POPC   D2A60484  41.516   3.267   6.553
 4730POPC   C3A60485  41.324   3.493   6.855
 4730POPC   C4A60486  41.401   3.414   7.264
 4730POPC   C1B60487  41.775   3.567   6.225
 4730POPC   C2B60488  41.683   3.795   6.592
 4730POPC   C3B60489  41.771   3.688   7.009
 4730POPC   C4B60490  41.916   3.410   7.307
 4731POPC   NC360491   6.175  16.716   5.655
 4731POPC   PO460492   5.826  16.102   5.455
 4731POPC   GL160493   5.709  16.485   5.742
 4731POPC   GL260494   5.665  16.837   5.809
 4731POPC   C1A60495   5.758  16.480   6.191
 4731POPC   D2A60496   5.977  16.528   6.576
 4731POPC   C3A60497   5.755  16.435   6.946
 4731POPC   C4A60498   6.014  16.431   7.313
 4731POPC   C1B60499   5.912  16.968   6.186
 4731POPC   C2B60500   6.077  17.016   6.569
 4731POPC   C3B60501   6.024  16.894   6.980
 4731POPC   C4B60502   5.918  16.926   7.400
 4732POPC   NC360503  29.744  34.107   5.598
 4732POPC   PO460504  30.031  33.532   5.349
 4732POPC   GL160505  30.029  33.693   5.749
 4732POPC   GL260506  29.719  33.675   5.867
 4732POPC   C1A60507  30.148  33.558   6.149
 4732POPC   D2A60508  30.169  33.710   6.553
 4732POPC   C3A60509  30.047  33.473   6.900
 4732POPC   C4A60510  29.979  33.648   7.273
 4732POPC   C1B60511  29.699  33.821   6.259
 4732POPC   C2B60512  29.713  33.910   6.690
 4732POPC   C3B60513  29.683  34.020   7.106
 4732POPC   C4B60514  29.579  33.859   7.521
 4733POPC   NC360515  23.599  44.988   5.429
 4733POPC   PO460516  23.319  44.369   5.636
 4733POPC   GL160517  23.612  44.654   5.920
 4733POPC   GL260518  23.769  44.999   5.930
 4733POPC   C1A60519  23.602  44.708   6.362
 4733POPC   D2A60520  23.475  44.519   6.731
 4733POPC   C3A60521  23.634  44.769   6.962
 4733POPC   C4A60522  23.674  44.761   7.349
 4733POPC   C1B60523  24.076  44.865   6.261
 4733POPC   C2B60524  24.062  44.948   6.709
 4733POPC   C3B60525  24.184  44.688   7.078
 4733POPC   C4B60526  24.079  44.523   7.513
 4734POPC   NC360527   7.830  11.932   5.515
 4734POPC   PO460528   8.410  11.986   5.141
 4734POPC   GL160529   8.274  12.164   5.655
 4734POPC   GL260530   8.540  12.362   5.831
 4734POPC   C1A60531   7.978  12.217   6.076
 4734POPC   D2A60532   8.047  11.951   6.446
 4734POPC   C3A60533   7.907  12.056   6.871
 4734POPC   C4A60534   8.146  11.884   7.179
 4734POPC   C1B60535   8.433  12.247   6.278
 4734POPC   C2B60536   8.221  12.400   6.677
 4734POPC   C3B60537   8.265  12.397   7.156
 4734POPC   C4B60538   8.108  12.335   7.616
 4735POPC   NC360539  15.775  27.313   5.689
 4735POPC   PO460540  15.857  26.686   5.475
 4735POPC   GL160541  16.037  26.634   5.877
 4735POPC   GL260542  15.977  26.959   5.958
 4735POPC   C1A60543  15.837  26.628   6.302
 4735POPC   D2A60544  15.610  26.767   6.659
 4735POPC   C3A60545  15.870  26.634   6.942
 4735POPC   C4A60546  16.023  26.677   7.296
 4735POPC   C1B60547  15.721  27.153   6.318
 4735POPC   C2B60548  15.715  27.336   6.721
 4735POPC   C3B60549  15.841  27.129   7.114
 4735POPC   C4B60550  15.739  27.106   7.561
 4736POPC   NC360551  11.781  18.463   5.509
 4736POPC   PO460552  12.220  18.035   5.409
 4736POPC   GL160553  11.993  18.139   5.831
 4736POPC   GL260554  12.294  18.209   5.948
 4736POPC   C1A60555  11.967  18.256   6.311
 4736POPC   D2A60556  12.180  18.110   6.675
 4736POPC   C3A60557  11.988  18.275   7.028
 4736POPC   C4A60558  11.827  18.146   7.397
 4736POPC   C1B60559  12.284  17.851   6.222
 4736POPC   C2B60560  12.536  17.755   6.590
 4736POPC   C3B60561  12.577  17.899   6.979
 4736POPC   C4B60562  12.283  17.939   7.279
 4737POPC   NC360563   2.144  36.857   5.362
 4737POPC   PO460564   1.537  37.154   5.369
 4737POPC   GL160565   1.781  36.992   5.699
 4737POPC   GL260566   2.002  37.273   5.661
 4737POPC   C1A60567   1.843  36.781   6.087
 4737POPC   D2A60568   1.683  36.847   6.487
 4737POPC   C3A60569   1.914  36.737   6.825
 4737POPC   C4A60570   1.820  36.899   7.197
 4737POPC   C1B60571   1.953  37.289   6.104
 4737POPC   C2B60572   2.092  37.136   6.490
 4737POPC   C3B60573   2.054  37.258   6.898
 4737POPC   C4B60574   2.197  37.195   7.322
 4738POPC   NC360575  28.450  35.359   5.409
 4738POPC   PO460576  28.163  35.851   5.718
 4738POPC   GL160577  28.455  35.534   5.906
 4738POPC   GL260578  28.204  35.249   5.882
 4738POPC   C1A60579  28.495  35.277   6.307
 4738POPC   D2A60580  28.216  35.183   6.678
 4738POPC   C3A60581  28.509  35.186   7.054
 4738POPC   C4A60582  28.525  35.260   7.527
 4738POPC   C1B60583  28.083  35.542   6.264
 4738POPC   C2B60584  28.245  35.705   6.639
 4738POPC   C3B60585  28.118  35.731   7.031
 4738POPC   C4B60586  28.065  35.341   7.224
 4739POPC   NC360587  29.234  34.960   5.471
 4739POPC   PO460588  28.885  35.557   5.450
 4739POPC   GL160589  29.042  35.627   5.848
 4739POPC   GL260590  29.422  35.645   5.825
 4739POPC   C1A60591  28.995  35.340   6.196
 4739POPC   D2A60592  28.876  35.079   6.579
 4739POPC   C3A60593  29.009  35.233   6.966
 4739POPC   C4A60594  29.379  35.251   7.216
 4739POPC   C1B60595  29.360  35.776   6.234
 4739POPC   C2B60596  29.239  35.546   6.589
 4739POPC   C3B60597  29.244  35.680   6.977
 4739POPC   C4B60598  29.215  35.821   7.343
 4740POPC   NC360599  34.076   4.759   5.437
 4740POPC   PO460600  33.646   5.252   5.401
 4740POPC   GL160601  33.889   5.142   5.755
 4740POPC   GL260602  33.626   4.888   5.795
 4740POPC   C1A60603  34.023   4.991   6.181
 4740POPC   D2A60604  33.930   5.169   6.597
 4740POPC   C3A60605  34.192   5.023   6.932
 4740POPC   C4A60606  34.300   5.202   7.315
 4740POPC   C1B60607  33.487   5.099   6.186
 4740POPC   C2B60608  33.449   4.931   6.619
 4740POPC   C3B60609  33.678   4.948   7.022
 4740POPC   C4B60610  33.799   5.334   7.224
 4741POPC   NC360611   3.497  31.110   5.541
 4741POPC   PO460612   3.520  30.458   5.397
 4741POPC   GL160613   3.706  30.646   5.763
 4741POPC   GL260614   3.360  30.729   5.884
 4741POPC   C1A60615   3.761  30.656   6.229
 4741POPC   D2A60616   3.830  31.015   6.555
 4741POPC   C3A60617   3.808  30.875   6.996
 4741POPC   C4A60618   3.488  30.694   7.237
 4741POPC   C1B60619   3.254  30.558   6.299
 4741POPC   C2B60620   3.461  30.641   6.680
 4741POPC   C3B60621   3.706  30.363   6.894
 4741POPC   C4B60622   3.448  30.193   7.184
 4742POPC   NC360623   7.238  22.970   5.426
 4742POPC   PO460624   7.818  23.028   5.781
 4742POPC   GL160625   7.398  22.918   5.911
 4742POPC   GL260626   7.238  22.602   5.874
 4742POPC   C1A60627   7.308  22.888   6.342
 4742POPC   D2A60628   7.410  23.283   6.587
 4742POPC   C3A60629   7.476  23.205   7.018
 4742POPC   C4A60630   7.147  22.977   7.186
 4742POPC   C1B60631   7.607  22.492   6.161
 4742POPC   C2B60632   7.633  22.448   6.627
 4742POPC   C3B60633   7.411  22.576   7.011
 4742POPC   C4B60634   7.480  22.676   7.457
 4743POPC   NC360635  20.935  42.583   5.476
 4743POPC   PO460636  20.393  42.209   5.255
 4743POPC   GL160637  20.339  42.258   5.713
 4743POPC   GL260638  20.677  42.319   5.859
 4743POPC   C1A60639  20.301  42.304   6.188
 4743POPC   D2A60640  20.538  42.444   6.563
 4743POPC   C3A60641  20.707  42.321   6.979
 4743POPC   C4A60642  20.482  42.541   7.306
 4743POPC   C1B60643  20.791  42.099   6.268
 4743POPC   C2B60644  20.569  41.920   6.633
 4743POPC   C3B60645  20.306  41.814   7.006
 4743POPC   C4B60646  20.410  42.047   7.375
 4744POPC   NC360647  27.766   8.448   5.577
 4744POPC   PO460648  27.713   7.846   5.335
 4744POPC   GL160649  27.547   8.004   5.805
 4744POPC   GL260650  27.426   8.349   5.924
 4744POPC   C1A60651  27.728   8.108   6.268
 4744POPC   D2A60652  27.714   8.399   6.601
 4744POPC   C3A60653  27.675   8.204   7.022
 4744POPC   C4A60654  27.686   8.080   7.474
 4744POPC   C1B60655  27.221   8.132   6.257
 4744POPC   C2B60656  27.326   8.050   6.673
 4744POPC   C3B60657  27.186   8.035   7.100
 4744POPC   C4B60658  27.204   8.186   7.536
 4745POPC   NC360659   8.570  23.868   5.579
 4745POPC   PO460660   7.960  23.539   5.375
 4745POPC   GL160661   8.206  23.537   5.800
 4745POPC   GL260662   8.036  23.402   6.039
 4745POPC   C1A60663   8.216  23.830   6.225
 4745POPC   D2A60664   8.021  24.036   6.585
 4745POPC   C3A60665   8.197  23.828   6.919
 4745POPC   C4A60666   8.364  23.889   7.288
 4745POPC   C1B60667   8.316  23.334   6.340
 4745POPC   C2B60668   8.268  23.313   6.775
 4745POPC   C3B60669   8.197  23.389   7.205
 4745POPC   C4B60670   7.853  23.481   7.419
 4746POPC   NC360671  41.146  25.375   5.415
 4746POPC   PO460672  41.844  25.113   5.391
 4746POPC   GL160673  41.675  25.249   5.779
 4746POPC   GL260674  41.333  25.095   5.830
 4746POPC   C1A60675  41.717  25.121   6.215
 4746POPC   D2A60676  41.747  24.972   6.629
 4746POPC   C3A60677  41.963  25.113   6.977
 4746POPC   C4A60678  41.822  25.367   7.290
 4746POPC   C1B60679  41.321  25.431   6.154
 4746POPC   C2B60680  41.502  25.449   6.601
 4746POPC   C3B60681  41.373  25.470   7.049
 4746POPC   C4B60682  41.348  25.225   7.478
 4747POPC   NC360683  14.038  11.916   5.427
 4747POPC   PO460684  13.867  12.579   5.539
 4747POPC   GL160685  13.674  12.364   5.900
 4747POPC   GL260686  13.774  12.045   5.862
 4747POPC   C1A60687  13.361  12.245   6.258
 4747POPC   D2A60688  13.335  12.189   6.718
 4747POPC   C3A60689  13.685  12.338   6.922
 4747POPC   C4A60690  13.754  12.248   7.358
 4747POPC   C1B60691  13.634  11.827   6.221
 4747POPC   C2B60692  13.751  11.875   6.640
 4747POPC   C3B60693  13.623  11.853   7.037
 4747POPC   C4B60694  13.680  11.591   7.360
 4748POPC   NC360695  27.224  22.276   5.300
 4748POPC   PO460696  26.705  21.836   5.424
 4748POPC   GL160697  26.643  22.104   5.784
 4748POPC   GL260698  26.938  22.312   5.727
 4748POPC   C1A60699  26.418  22.313   6.171
 4748POPC   D2A60700  26.581  22.501   6.573
 4748POPC   C3A60701  26.743  22.305   6.974
 4748POPC   C4A60702  26.595  22.411   7.370
 4748POPC   C1B60703  26.917  22.245   6.191
 4748POPC   C2B60704  27.058  22.165   6.605
 4748POPC   C3B60705  27.239  22.156   7.034
 4748POPC   C4B60706  27.099  22.300   7.437
 4749POPC   NC360707   7.195  43.291   5.492
 4749POPC   PO460708   7.462  42.604   5.510
 4749POPC   GL160709   7.335  42.899   5.823
 4749POPC   GL260710   7.592  43.191   5.840
 4749POPC   C1A60711   7.444  42.953   6.273
 4749POPC   D2A60712   7.712  42.999   6.636
 4749POPC   C3A60713   7.543  42.843   7.035
 4749POPC   C4A60714   7.153  42.779   7.274
 4749POPC   C1B60715   7.642  43.515   6.186
 4749POPC   C2B60716   7.512  43.519   6.603
 4749POPC   C3B60717   7.494  43.373   7.028
 4749POPC   C4B60718   7.294  43.272   7.406
 4750POPC   NC360719  28.930  44.779   5.210
 4750POPC   PO460720  29.582  44.619   5.288
 4750POPC   GL160721  29.374  44.806   5.773
 4750POPC   GL260722  29.175  44.980   5.672
 4750POPC   C1A60723  29.073  44.664   6.236
 4750POPC   D2A60724  28.873  44.470   6.649
 4750POPC   C3A60725  29.056  44.437   7.077
 4750POPC   C4A60726  29.090  44.655   7.486
 4750POPC   C1B60727  29.094   0.136   6.085
 4750POPC   C2B60728  29.193   0.071   6.531
 4750POPC   C3B60729  29.150  44.950   6.977
 4750POPC   C4B60730  28.963   0.163   7.321
 4751POPC   NC360731  35.749  40.326   5.370
 4751POPC   PO460732  35.112  39.996   5.196
 4751POPC   GL160733  35.135  40.011   5.707
 4751POPC   GL260734  35.305  39.722   5.856
 4751POPC   C1A60735  35.335  40.118   6.165
 4751POPC   D2A60736  35.363  39.932   6.608
 4751POPC   C3A60737  35.509  40.220   6.940
 4751POPC   C4A60738  35.622  40.157   7.340
 4751POPC   C1B60739  35.075  39.691   6.272
 4751POPC   C2B60740  34.843  39.892   6.595
 4751POPC   C3B60741  35.016  40.149   6.910
 4751POPC   C4B60742  35.270  39.819   7.147
 4752POPC   NC360743  19.572  14.943   5.508
 4752POPC   PO460744  20.073  14.614   5.193
 4752POPC   GL160745  19.899  14.531   5.678
 4752POPC   GL260746  20.074  14.247   5.831
 4752POPC   C1A60747  19.741  14.409   6.173
 4752POPC   D2A60748  19.959  14.250   6.603
 4752POPC   C3A60749  19.918  14.396   7.019
 4752POPC   C4A60750  19.601  14.518   7.309
 4752POPC   C1B60751  20.065  13.994   6.190
 4752POPC   C2B60752  19.719  13.826   6.506
 4752POPC   C3B60753  19.648  13.970   6.985
 4752POPC   C4B60754  19.701  14.059   7.490
 4753POPC   NC360755  29.785   5.331   5.421
 4753POPC   PO460756  29.717   4.644   5.389
 4753POPC   GL160757  29.734   4.940   5.766
 4753POPC   GL260758  29.659   4.811   6.094
 4753POPC   C1A60759  30.094   5.103   6.049
 4753POPC   D2A60760  30.091   5.146   6.514
 4753POPC   C3A60761  29.728   5.017   6.757
 4753POPC   C4A60762  29.833   4.939   7.172
 4753POPC   C1B60763  29.680   5.298   6.219
 4753POPC   C2B60764  29.731   5.523   6.610
 4753POPC   C3B60765  29.740   5.449   7.071
 4753POPC   C4B60766  29.395   5.253   7.275
 4754POPC   NC360767   0.405  11.119   5.459
 4754POPC   PO460768   0.364  10.489   5.453
 4754POPC   GL160769   0.541  10.701   5.779
 4754POPC   GL260770   0.227  10.813   5.896
 4754POPC   C1A60771   0.637  10.627   6.204
 4754POPC   D2A60772   0.288  10.527   6.505
 4754POPC   C3A60773   0.439  10.420   6.893
 4754POPC   C4A60774   0.555  10.287   7.284
 4754POPC   C1B60775   0.313  11.025   6.282
 4754POPC   C2B60776   0.597  10.924   6.634
 4754POPC   C3B60777   0.713  10.829   7.058
 4754POPC   C4B60778   0.309  10.804   7.280
 4755POPC   NC360779  30.164  36.242   5.574
 4755POPC   PO460780  30.799  36.034   5.398
 4755POPC   GL160781  30.632  36.082   5.772
 4755POPC   GL260782  30.875  36.343   5.825
 4755POPC   C1A60783  30.518  36.090   6.210
 4755POPC   D2A60784  30.484  35.861   6.591
 4755POPC   C3A60785  30.578  36.109   6.895
 4755POPC   C4A60786  30.548  36.230   7.281
 4755POPC   C1B60787  30.839  36.579   6.191
 4755POPC   C2B60788  30.700  36.496   6.582
 4755POPC   C3B60789  30.855  36.562   6.969
 4755POPC   C4B60790  30.999  36.512   7.379
 4756POPC   NC360791  19.965  42.417   5.299
 4756POPC   PO460792  19.865  41.890   5.648
 4756POPC   GL160793  19.853  42.273   5.886
 4756POPC   GL260794  19.681  42.544   5.735
 4756POPC   C1A60795  19.816  42.367   6.331
 4756POPC   D2A60796  20.089  42.124   6.615
 4756POPC   C3A60797  20.194  42.302   6.960
 4756POPC   C4A60798  19.988  42.351   7.317
 4756POPC   C1B60799  19.561  42.784   6.108
 4756POPC   C2B60800  19.639  42.803   6.546
 4756POPC   C3B60801  19.699  42.473   6.861
 4756POPC   C4B60802  19.485  42.288   7.202
 4757POPC   NC360803  14.008  41.900   5.727
 4757POPC   PO460804  14.192  41.419   5.300
 4757POPC   GL160805  14.312  41.479   5.804
 4757POPC   GL260806  14.462  41.226   5.982
 4757POPC   C1A60807  14.616  41.665   6.193
 4757POPC   D2A60808  14.549  42.081   6.449
 4757POPC   C3A60809  14.507  42.029   6.911
 4757POPC   C4A60810  14.113  41.855   7.137
 4757POPC   C1B60811  14.182  41.420   6.299
 4757POPC   C2B60812  14.279  41.632   6.665
 4757POPC   C3B60813  14.479  41.516   7.025
 4757POPC   C4B60814  14.742  41.258   7.217
 4758POPC   NC360815   9.049  41.287   5.377
 4758POPC   PO460816   8.585  41.718   5.256
 4758POPC   GL160817   8.763  41.554   5.707
 4758POPC   GL260818   9.138  41.496   5.831
 4758POPC   C1A60819   8.717  41.411   6.148
 4758POPC   D2A60820   8.888  41.590   6.535
 4758POPC   C3A60821   8.778  41.426   6.938
 4758POPC   C4A60822   8.823  41.628   7.313
 4758POPC   C1B60823   9.260  41.344   6.257
 4758POPC   C2B60824   9.247  41.276   6.720
 4758POPC   C3B60825   9.274  41.598   7.031
 4758POPC   C4B60826   9.348  41.577   7.480
 4759POPC   NC360827  10.990  30.497   5.397
 4759POPC   PO460828  11.498  30.946   5.594
 4759POPC   GL160829  11.288  30.674   5.858
 4759POPC   GL260830  10.941  30.697   5.839
 4759POPC   C1A60831  11.365  30.653   6.294
 4759POPC   D2A60832  11.436  30.831   6.694
 4759POPC   C3A60833  11.339  30.628   7.076
 4759POPC   C4A60834  11.114  30.940   7.302
 4759POPC   C1B60835  10.879  30.824   6.198
 4759POPC   C2B60836  10.936  30.666   6.573
 4759POPC   C3B60837  10.837  30.679   6.955
 4759POPC   C4B60838  10.849  30.516   7.335
 4760POPC   NC360839  11.709  28.160   5.451
 4760POPC   PO460840  11.324  28.665   5.401
 4760POPC   GL160841  11.254  28.488   5.808
 4760POPC   GL260842  11.583  28.347   5.926
 4760POPC   C1A60843  11.123  28.425   6.239
 4760POPC   D2A60844  11.351  28.592   6.586
 4760POPC   C3A60845  11.295  28.338   6.932
 4760POPC   C4A60846  11.340  28.441   7.358
 4760POPC   C1B60847  11.824  28.410   6.324
 4760POPC   C2B60848  11.807  28.312   6.773
 4760POPC   C3B60849  11.750  28.199   7.195
 4760POPC   C4B60850  11.629  28.067   7.616
 4761POPC   NC360851  16.650   9.442   5.458
 4761POPC   PO460852  16.452   8.818   5.168
 4761POPC   GL160853  16.618   8.945   5.626
 4761POPC   GL260854  16.370   9.178   5.786
 4761POPC   C1A60855  16.685   8.972   6.120
 4761POPC   D2A60856  16.559   8.742   6.510
 4761POPC   C3A60857  16.825   8.696   6.877
 4761POPC   C4A60858  16.711   8.917   7.245
 4761POPC   C1B60859  16.279   9.329   6.203
 4761POPC   C2B60860  16.071   9.268   6.607
 4761POPC   C3B60861  16.210   9.047   7.013
 4761POPC   C4B60862  16.306   9.126   7.464
 4762POPC   NC360863   0.759   7.437   5.334
 4762POPC   PO460864   0.137   7.783   5.405
 4762POPC   GL160865   0.344   7.622   5.795
 4762POPC   GL260866   0.532   7.315   5.781
 4762POPC   C1A60867   0.236   7.515   6.242
 4762POPC   D2A60868   0.068   7.294   6.626
 4762POPC   C3A60869   0.300   7.481   6.963
 4762POPC   C4A60870   0.342   7.420   7.382
 4762POPC   C1B60871   0.689   7.267   6.201
 4762POPC   C2B60872   0.725   7.503   6.594
 4762POPC   C3B60873   0.877   7.785   6.938
 4762POPC   C4B60874   0.761   7.776   7.369
 4763POPC   NC360875  24.098  10.572   5.434
 4763POPC   PO460876  23.492  10.695   5.465
 4763POPC   GL160877  23.620  10.484   5.832
 4763POPC   GL260878  23.349  10.251   5.941
 4763POPC   C1A60879  23.748  10.358   6.248
 4763POPC   D2A60880  23.600  10.265   6.666
 4763POPC   C3A60881  23.890  10.419   6.997
 4763POPC   C4A60882  24.134  10.402   7.360
 4763POPC   C1B60883  23.238  10.506   6.355
 4763POPC   C2B60884  23.199  10.677   6.798
 4763POPC   C3B60885  23.397  10.404   7.105
 4763POPC   C4B60886  23.664  10.219   7.453
 4764POPC   NC360887  17.226  35.774   5.028
 4764POPC   PO460888  17.687  36.266   5.250
 4764POPC   GL160889  17.628  36.271   5.698
 4764POPC   GL260890  17.762  35.955   5.856
 4764POPC   C1A60891  17.667  36.448   6.094
 4764POPC   D2A60892  17.388  36.500   6.458
 4764POPC   C3A60893  17.586  36.550   6.862
 4764POPC   C4A60894  17.619  36.244   7.211
 4764POPC   C1B60895  17.586  35.996   6.306
 4764POPC   C2B60896  17.473  36.058   6.735
 4764POPC   C3B60897  17.200  35.787   6.971
 4764POPC   C4B60898  17.247  35.596   7.370
 4765POPC   NC360899   1.406  35.793   5.589
 4765POPC   PO460900   1.015  35.150   5.417
 4765POPC   GL160901   1.119  35.376   5.808
 4765POPC   GL260902   1.454  35.408   5.899
 4765POPC   C1A60903   1.137  35.221   6.247
 4765POPC   D2A60904   1.044  35.278   6.676
 4765POPC   C3A60905   1.239  35.211   7.053
 4765POPC   C4A60906   1.588  35.296   7.308
 4765POPC   C1B60907   1.443  35.634   6.303
 4765POPC   C2B60908   1.496  35.526   6.745
 4765POPC   C3B60909   1.609  35.755   7.109
 4765POPC   C4B60910   1.473  35.742   7.551
 4766POPC   NC360911  34.414  44.091   5.540
 4766POPC   PO460912  34.686  43.515   5.426
 4766POPC   GL160913  34.544  43.673   5.815
 4766POPC   GL260914  34.174  43.670   5.758
 4766POPC   C1A60915  34.450  43.969   6.171
 4766POPC   D2A60916  34.707  44.196   6.465
 4766POPC   C3A60917  34.806  44.057   6.877
 4766POPC   C4A60918  34.673  44.107   7.275
 4766POPC   C1B60919  34.249  43.491   6.188
 4766POPC   C2B60920  34.435  43.668   6.577
 4766POPC   C3B60921  34.307  43.980   6.866
 4766POPC   C4B60922  34.329  43.739   7.249
 4767POPC   NC360923   9.224   1.403   5.435
 4767POPC   PO460924   8.942   0.839   5.495
 4767POPC   GL160925   8.866   0.952   5.905
 4767POPC   GL260926   9.007   1.257   5.868
 4767POPC   C1A60927   8.959   0.980   6.349
 4767POPC   D2A60928   9.248   1.124   6.668
 4767POPC   C3A60929   9.045   0.962   7.021
 4767POPC   C4A60930   8.604   1.043   7.073
 4767POPC   C1B60931   9.251   1.369   6.182
 4767POPC   C2B60932   9.169   1.691   6.458
 4767POPC   C3B60933   9.230   1.656   6.878
 4767POPC   C4B60934   9.364   1.338   7.127
 4768POPC   NC360935  43.215  22.624   5.451
 4768POPC   PO460936  43.068  23.153   5.430
 4768POPC   GL160937  43.196  22.974   5.841
 4768POPC   GL260938  43.347  22.627   5.942
 4768POPC   C1A60939  43.165  23.000   6.283
 4768POPC   D2A60940  43.408  22.782   6.581
 4768POPC   C3A60941  43.272  22.957   6.983
 4768POPC   C4A60942  43.223  23.310   7.279
 4768POPC   C1B60943  43.033  22.513   6.241
 4768POPC   C2B60944  42.932  22.608   6.656
 4768POPC   C3B60945  43.076  22.472   7.042
 4768POPC   C4B60946  42.919  22.348   7.467
 4769POPC   NC360947  27.844   3.152   5.642
 4769POPC   PO460948  27.438   3.714   5.399
 4769POPC   GL160949  27.440   3.443   5.817
 4769POPC   GL260950  27.178   3.165   5.830
 4769POPC   C1A60951  27.671   3.380   6.250
 4769POPC   D2A60952  27.591   3.602   6.644
 4769POPC   C3A60953  27.701   3.808   7.019
 4769POPC   C4A60954  27.727   3.744   7.479
 4769POPC   C1B60955  27.148   3.349   6.271
 4769POPC   C2B60956  27.251   3.249   6.707
 4769POPC   C3B60957  27.482   3.334   7.097
 4769POPC   C4B60958  27.448   3.308   7.546
 4770POPC   NC360959  30.052  27.712   5.434
 4770POPC   PO460960  29.601  27.153   5.447
 4770POPC   GL160961  29.833  27.383   5.761
 4770POPC   GL260962  29.672  27.710   5.819
 4770POPC   C1A60963  30.166  27.469   6.072
 4770POPC   D2A60964  29.945  27.498   6.464
 4770POPC   C3A60965  30.071  27.479   6.872
 4770POPC   C4A60966  29.729  27.520   7.177
 4770POPC   C1B60967  29.909  27.910   6.147
 4770POPC   C2B60968  29.811  27.985   6.572
 4770POPC   C3B60969  29.960  27.952   6.974
 4770POPC   C4B60970  30.113  28.189   7.222
 4771POPC   NC360971  23.667  29.797   5.209
 4771POPC   PO460972  23.190  29.588   5.627
 4771POPC   GL160973  23.331  29.676   6.017
 4771POPC   GL260974  23.555  29.909   5.926
 4771POPC   C1A60975  23.303  29.761   6.443
 4771POPC   D2A60976  23.336  29.973   6.826
 4771POPC   C3A60977  23.567  29.779   7.182
 4771POPC   C4A60978  23.766  29.882   7.611
 4771POPC   C1B60979  23.777  29.981   6.337
 4771POPC   C2B60980  23.848  29.912   6.776
 4771POPC   C3B60981  24.064  29.927   7.195
 4771POPC   C4B60982  24.193  30.278   7.508
 4772POPC   NC360983  20.399  34.678   5.331
 4772POPC   PO460984  20.942  34.357   5.490
 4772POPC   GL160985  20.737  34.660   5.741
 4772POPC   GL260986  20.461  34.449   5.800
 4772POPC   C1A60987  20.666  34.736   6.191
 4772POPC   D2A60988  20.920  34.648   6.558
 4772POPC   C3A60989  20.798  34.492   6.975
 4772POPC   C4A60990  20.830  34.850   7.231
 4772POPC   C1B60991  20.244  34.429   6.218
 4772POPC   C2B60992  20.381  34.562   6.620
 4772POPC   C3B60993  20.344  34.721   7.028
 4772POPC   C4B60994  20.147  34.504   7.349
 4773POPC   NC360995  35.267  30.430   5.378
 4773POPC   PO460996  35.424  31.061   5.244
 4773POPC   GL160997  35.429  30.847   5.684
 4773POPC   GL260998  35.104  30.744   5.850
 4773POPC   C1A60999  35.492  30.811   6.159
 4773POPC   D2A61000  35.603  30.564   6.526
 4773POPC   C3A61001  35.739  30.835   6.858
 4773POPC   C4A61002  35.676  31.073   7.227
 4773POPC   C1B61003  35.113  30.473   6.274
 4773POPC   C2B61004  35.130  30.502   6.751
 4773POPC   C3B61005  35.284  30.716   7.166
 4773POPC   C4B61006  35.081  30.661   7.636
 4774POPC   NC361007  16.254  21.813   5.525
 4774POPC   PO461008  15.785  22.344   5.431
 4774POPC   GL161009  16.096  22.239   5.776
 4774POPC   GL261010  15.866  21.995   5.828
 4774POPC   C1A61011  16.250  22.066   6.198
 4774POPC   D2A61012  16.288  21.923   6.642
 4774POPC   C3A61013  16.215  22.162   7.055
 4774POPC   C4A61014  16.386  21.940   7.423
 4774POPC   C1B61015  15.752  22.170   6.209
 4774POPC   C2B61016  15.786  21.948   6.593
 4774POPC   C3B61017  15.695  22.066   6.973
 4774POPC   C4B61018  15.690  22.446   7.164
 4775POPC   NC361019  43.861   7.603   5.352
 4775POPC   PO461020  43.814   6.951   5.438
 4775POPC   GL161021  43.988   7.249   5.742
 4775POPC   GL261022  43.985   7.624   5.826
 4775POPC   C1A61023  44.108   7.258   6.172
 4775POPC   D2A61024  43.954   7.427   6.553
 4775POPC   C3A61025  44.082   7.310   6.960
 4775POPC   C4A61026  43.672   7.233   7.160
 4775POPC   C1B61027  43.716   7.715   6.163
 4775POPC   C2B61028  43.769   7.921   6.568
 4775POPC   C3B61029  43.807   7.734   6.978
 4775POPC   C4B61030  43.637   7.677   7.401
 4776POPC   NC361031   3.172  35.266   5.718
 4776POPC   PO461032   3.594  35.486   5.223
 4776POPC   GL161033   3.669  35.374   5.708
 4776POPC   GL261034   3.634  35.698   5.815
 4776POPC   C1A61035   3.580  35.254   6.214
 4776POPC   D2A61036   3.231  35.246   6.589
 4776POPC   C3A61037   3.274  35.511   6.992
 4776POPC   C4A61038   3.390  35.356   7.399
 4776POPC   C1B61039   3.452  35.784   6.221
 4776POPC   C2B61040   3.585  35.610   6.600
 4776POPC   C3B61041   3.741  35.332   6.914
 4776POPC   C4B61042   3.790  35.627   7.243
 4777POPC   NC361043  32.739  12.679   5.451
 4777POPC   PO461044  33.307  13.027   5.527
 4777POPC   GL161045  33.078  12.820   5.816
 4777POPC   GL261046  32.743  12.961   5.869
 4777POPC   C1A61047  33.124  12.825   6.241
 4777POPC   D2A61048  33.180  12.645   6.643
 4777POPC   C3A61049  33.045  12.889   6.950
 4777POPC   C4A61050  32.946  12.672   7.278
 4777POPC   C1B61051  32.579  12.818   6.251
 4777POPC   C2B61052  32.625  12.683   6.685
 4777POPC   C3B61053  32.540  12.899   7.080
 4777POPC   C4B61054  32.526  12.825   7.519
 4778POPC   NC361055  32.315  19.510   5.474
 4778POPC   PO461056  32.001  18.853   5.420
 4778POPC   GL161057  32.231  19.009   5.792
 4778POPC   GL261058  32.102  19.330   5.896
 4778POPC   C1A61059  32.459  18.872   6.161
 4778POPC   D2A61060  32.240  18.852   6.574
 4778POPC   C3A61061  32.342  19.018   6.936
 4778POPC   C4A61062  32.258  18.898   7.341
 4778POPC   C1B61063  32.273  19.321   6.306
 4778POPC   C2B61064  32.620  19.189   6.540
 4778POPC   C3B61065  32.748  19.331   6.914
 4778POPC   C4B61066  32.661  19.242   7.309
 4779POPC   NC361067  42.627  17.158   5.338
 4779POPC   PO461068  42.269  17.726   5.221
 4779POPC   GL161069  42.218  17.616   5.680
 4779POPC   GL261070  42.174  17.261   5.598
 4779POPC   C1A61071  42.255  17.759   6.185
 4779POPC   D2A61072  42.484  17.744   6.597
 4779POPC   C3A61073  42.252  17.745   7.007
 4779POPC   C4A61074  42.495  17.705   7.398
 4779POPC   C1B61075  42.148  17.290   6.052
 4779POPC   C2B61076  42.185  17.342   6.509
 4779POPC   C3B61077  42.386  17.263   6.898
 4779POPC   C4B61078  42.229  17.273   7.273
 4780POPC   NC361079   3.994  29.404   5.469
 4780POPC   PO461080   4.494  28.877   5.386
 4780POPC   GL161081   4.203  28.983   5.744
 4780POPC   GL261082   4.459  29.118   5.913
 4780POPC   C1A61083   4.067  28.966   6.224
 4780POPC   D2A61084   4.350  29.000   6.632
 4780POPC   C3A61085   4.289  28.902   7.103
 4780POPC   C4A61086   4.403  28.954   7.580
 4780POPC   C1B61087   4.294  29.432   6.202
 4780POPC   C2B61088   4.454  29.541   6.600
 4780POPC   C3B61089   4.394  29.405   7.012
 4780POPC   C4B61090   4.263  29.421   7.479
 4781POPC   NC361091  18.373  16.276   5.536
 4781POPC   PO461092  18.624  15.612   5.573
 4781POPC   GL161093  18.405  15.878   5.881
 4781POPC   GL261094  18.066  15.826   6.020
 4781POPC   C1A61095  18.460  16.038   6.297
 4781POPC   D2A61096  18.560  15.776   6.656
 4781POPC   C3A61097  18.426  15.938   7.065
 4781POPC   C4A61098  18.058  16.041   7.293
 4781POPC   C1B61099  17.783  15.530   6.211
 4781POPC   C2B61100  17.654  15.595   6.616
 4781POPC   C3B61101  17.969  15.759   6.870
 4781POPC   C4B61102  18.045  15.541   7.241
 4782POPC   NC361103   7.177  37.740   5.350
 4782POPC   PO461104   6.591  37.539   5.501
 4782POPC   GL161105   6.622  37.739   5.885
 4782POPC   GL261106   6.941  37.901   5.871
 4782POPC   C1A61107   6.581  37.731   6.332
 4782POPC   D2A61108   6.721  37.424   6.649
 4782POPC   C3A61109   6.592  37.521   7.067
 4782POPC   C4A61110   6.718  37.938   7.254
 4782POPC   C1B61111   7.045  37.547   6.181
 4782POPC   C2B61112   7.228  37.444   6.595
 4782POPC   C3B61113   7.093  37.625   6.993
 4782POPC   C4B61114   7.081  37.630   7.453
 4783POPC   NC361115  24.913  38.839   5.541
 4783POPC   PO461116  25.491  39.049   5.222
 4783POPC   GL161117  25.317  39.135   5.671
 4783POPC   GL261118  24.968  39.275   5.805
 4783POPC   C1A61119  25.354  39.063   6.120
 4783POPC   D2A61120  25.243  39.183   6.537
 4783POPC   C3A61121  25.187  38.922   6.855
 4783POPC   C4A61122  25.296  39.064   7.253
 4783POPC   C1B61123  25.021  39.501   6.211
 4783POPC   C2B61124  25.285  39.688   6.573
 4783POPC   C3B61125  25.393  39.514   6.989
 4783POPC   C4B61126  25.412  39.545   7.456
 4784POPC   NC361127  10.169   1.861   5.639
 4784POPC   PO461128   9.760   2.163   5.173
 4784POPC   GL161129   9.704   2.022   5.665
 4784POPC   GL261130   9.406   1.813   5.711
 4784POPC   C1A61131   9.789   2.192   6.127
 4784POPC   D2A61132   9.917   2.382   6.548
 4784POPC   C3A61133   9.765   2.263   6.974
 4784POPC   C4A61134   9.821   2.139   7.414
 4784POPC   C1B61135   9.579   1.744   6.136
 4784POPC   C2B61136   9.605   1.941   6.589
 4784POPC   C3B61137   9.712   1.758   7.035
 4784POPC   C4B61138   9.599   1.635   7.469
 4785POPC   NC361139  16.831  27.712   5.493
 4785POPC   PO461140  16.194  27.354   5.515
 4785POPC   GL161141  16.498  27.326   5.871
 4785POPC   GL261142  16.794  27.552   5.957
 4785POPC   C1A61143  16.668  27.252   6.324
 4785POPC   D2A61144  16.700  27.086   6.749
 4785POPC   C3A61145  16.620  27.422   7.062
 4785POPC   C4A61146  16.437  27.807   7.290
 4785POPC   C1B61147  16.948  27.956   6.161
 4785POPC   C2B61148  16.877  28.081   6.596
 4785POPC   C3B61149  16.887  27.839   6.985
 4785POPC   C4B61150  17.058  27.621   7.363
 4786POPC   NC361151  34.501  41.381   5.451
 4786POPC   PO461152  35.150  41.677   5.452
 4786POPC   GL161153  34.862  41.646   5.767
 4786POPC   GL261154  34.557  41.527   5.931
 4786POPC   C1A61155  34.958  41.734   6.173
 4786POPC   D2A61156  34.685  41.816   6.500
 4786POPC   C3A61157  34.731  41.590   6.891
 4786POPC   C4A61158  34.902  41.709   7.273
 4786POPC   C1B61159  34.330  41.300   6.245
 4786POPC   C2B61160  34.267  41.182   6.639
 4786POPC   C3B61161  34.455  41.168   7.011
 4786POPC   C4B61162  34.481  41.417   7.372
 4787POPC   NC361163  37.556  15.909   5.468
 4787POPC   PO461164  38.204  15.807   5.287
 4787POPC   GL161165  37.957  16.071   5.717
 4787POPC   GL261166  37.715  15.864   5.951
 4787POPC   C1A61167  37.999  16.155   6.232
 4787POPC   D2A61168  37.807  15.924   6.620
 4787POPC   C3A61169  37.787  16.044   7.071
 4787POPC   C4A61170  38.160  16.148   7.337
 4787POPC   C1B61171  37.552  15.597   6.300
 4787POPC   C2B61172  37.392  15.623   6.719
 4787POPC   C3B61173  37.528  15.551   7.122
 4787POPC   C4B61174  37.469  15.845   7.440
 4788POPC   NC361175  15.111  16.801   5.442
 4788POPC   PO461176  15.604  16.617   5.190
 4788POPC   GL161177  15.386  16.653   5.801
 4788POPC   GL261178  15.288  17.004   5.893
 4788POPC   C1A61179  15.082  16.596   6.111
 4788POPC   D2A61180  15.236  16.790   6.458
 4788POPC   C3A61181  15.314  16.519   6.763
 4788POPC   C4A61182  15.266  16.477   7.174
 4788POPC   C1B61183  14.897  17.074   6.173
 4788POPC   C2B61184  14.992  17.211   6.609
 4788POPC   C3B61185  15.207  17.047   6.944
 4788POPC   C4B61186  14.985  16.874   7.265
 4789POPC   NC361187  18.238  14.454   5.496
 4789POPC   PO461188  17.818  13.908   5.359
 4789POPC   GL161189  17.867  14.081   5.813
 4789POPC   GL261190  18.066  14.401   5.954
 4789POPC   C1A61191  17.981  14.032   6.269
 4789POPC   D2A61192  18.008  14.348   6.585
 4789POPC   C3A61193  17.914  14.153   6.993
 4789POPC   C4A61194  18.112  14.190   7.391
 4789POPC   C1B61195  18.427  14.300   6.191
 4789POPC   C2B61196  18.531  14.305   6.581
 4789POPC   C3B61197  18.379  14.322   6.955
 4789POPC   C4B61198  18.372  14.604   7.277
 4790POPC   NC361199   1.732  10.257   5.229
 4790POPC   PO461200   2.423  10.421   5.138
 4790POPC   GL161201   2.151  10.412   5.595
 4790POPC   GL261202   1.789  10.327   5.733
 4790POPC   C1A61203   2.133  10.581   6.046
 4790POPC   D2A61204   2.050  10.462   6.501
 4790POPC   C3A61205   1.937  10.811   6.811
 4790POPC   C4A61206   2.003  10.791   7.261
 4790POPC   C1B61207   1.655  10.418   6.175
 4790POPC   C2B61208   1.547  10.487   6.626
 4790POPC   C3B61209   1.734  10.415   7.028
 4790POPC   C4B61210   1.584  10.314   7.401
 4791POPC   NC361211   5.757  33.938   5.111
 4791POPC   PO461212   5.160  33.705   5.374
 4791POPC   GL161213   5.129  33.727   5.818
 4791POPC   GL261214   5.232  33.387   5.829
 4791POPC   C1A61215   5.215  33.748   6.247
 4791POPC   D2A61216   4.883  33.768   6.556
 4791POPC   C3A61217   5.008  33.912   6.947
 4791POPC   C4A61218   4.946  33.820   7.376
 4791POPC   C1B61219   5.231  33.243   6.277
 4791POPC   C2B61220   5.214  33.414   6.706
 4791POPC   C3B61221   5.307  33.513   7.120
 4791POPC   C4B61222   5.465  33.814   7.398
 4792POPC   NC361223  34.013  17.826   5.445
 4792POPC   PO461224  33.741  17.130   5.438
 4792POPC   GL161225  33.651  17.402   5.825
 4792POPC   GL261226  33.877  17.714   5.901
 4792POPC   C1A61227  33.641  17.521   6.274
 4792POPC   D2A61228  33.767  17.658   6.686
 4792POPC   C3A61229  33.569  17.802   7.107
 4792POPC   C4A61230  33.499  17.640   7.548
 4792POPC   C1B61231  34.038  17.852   6.268
 4792POPC   C2B61232  34.271  17.853   6.653
 4792POPC   C3B61233  34.087  17.769   7.051
 4792POPC   C4B61234  33.967  17.841   7.444
 4793POPC   NC361235   4.168  26.027   5.396
 4793POPC   PO461236   4.673  26.356   5.560
 4793POPC   GL161237   4.375  26.222   5.901
 4793POPC   GL261238   4.019  26.114   5.882
 4793POPC   C1A61239   4.297  26.343   6.344
 4793POPC   D2A61240   4.475  26.099   6.687
 4793POPC   C3A61241   4.348  26.232   7.096
 4793POPC   C4A61242   4.234  26.171   7.528
 4793POPC   C1B61243   4.125  25.862   6.265
 4793POPC   C2B61244   4.047  25.778   6.714
 4793POPC   C3B61245   4.046  25.823   7.183
 4793POPC   C4B61246   3.777  25.934   7.531
 4794POPC   NC361247  11.093  26.773   5.609
 4794POPC   PO461248  11.672  26.453   5.616
 4794POPC   GL161249  11.571  26.882   5.835
 4794POPC   GL261250  11.261  26.898   6.049
 4794POPC   C1A61251  11.660  27.035   6.279
 4794POPC   D2A61252  11.491  26.766   6.621
 4794POPC   C3A61253  11.411  26.941   6.974
 4794POPC   C4A61254  11.476  26.863   7.376
 4794POPC   C1B61255  11.041  26.709   6.365
 4794POPC   C2B61256  10.946  26.832   6.765
 4794POPC   C3B61257  10.961  26.812   7.191
 4794POPC   C4B61258  11.140  26.489   7.435
 4795POPC   NC361259  19.514  25.205   5.059
 4795POPC   PO461260  19.751  25.314   5.553
 4795POPC   GL161261  19.558  25.113   5.803
 4795POPC   GL261262  19.525  25.463   5.967
 4795POPC   C1A61263  19.704  24.983   6.177
 4795POPC   D2A61264  19.771  25.245   6.522
 4795POPC   C3A61265  19.739  24.992   6.871
 4795POPC   C4A61266  19.642  25.011   7.294
 4795POPC   C1B61267  19.525  25.719   6.302
 4795POPC   C2B61268  19.708  25.732   6.685
 4795POPC   C3B61269  19.663  25.479   7.008
 4795POPC   C4B61270  19.456  25.489   7.351
 4796POPC   NC361271  11.624  10.529   5.647
 4796POPC   PO461272  12.178  10.519   5.189
 4796POPC   GL161273  12.152  10.658   5.610
 4796POPC   GL261274  11.971  10.965   5.725
 4796POPC   C1A61275  12.271  10.572   6.024
 4796POPC   D2A61276  12.423  10.636   6.436
 4796POPC   C3A61277  12.170  10.651   6.775
 4796POPC   C4A61278  12.195  10.672   7.209
 4796POPC   C1B61279  12.023  10.992   6.202
 4796POPC   C2B61280  11.842  11.019   6.621
 4796POPC   C3B61281  11.749  10.838   7.043
 4796POPC   C4B61282  11.865  10.975   7.464
 4797POPC   NC361283  16.998  17.616   5.392
 4797POPC   PO461284  16.636  17.008   5.391
 4797POPC   GL161285  16.509  17.281   5.773
 4797POPC   GL261286  16.477  17.672   5.769
 4797POPC   C1A61287  16.663  17.345   6.198
 4797POPC   D2A61288  17.015  17.436   6.504
 4797POPC   C3A61289  16.885  17.545   6.917
 4797POPC   C4A61290  16.750  17.347   7.243
 4797POPC   C1B61291  16.323  17.748   6.188
 4797POPC   C2B61292  16.531  17.667   6.576
 4797POPC   C3B61293  16.423  17.779   7.009
 4797POPC   C4B61294  16.583  17.817   7.401
 4798POPC   NC361295  37.146  11.947   5.481
 4798POPC   PO461296  36.583  12.282   5.565
 4798POPC   GL161297  36.856  12.139   5.849
 4798POPC   GL261298  36.771  11.791   5.810
 4798POPC   C1A61299  37.059  12.312   6.200
 4798POPC   D2A61300  36.925  12.518   6.570
 4798POPC   C3A61301  37.037  12.356   6.969
 4798POPC   C4A61302  36.948  12.294   7.402
 4798POPC   C1B61303  36.999  11.792   6.210
 4798POPC   C2B61304  37.057  11.973   6.621
 4798POPC   C3B61305  36.941  11.852   7.077
 4798POPC   C4B61306  36.703  11.869   7.487
 4799POPC   NC361307   3.718  10.677   5.562
 4799POPC   PO461308   3.527  10.168   5.215
 4799POPC   GL161309   3.515  10.257   5.756
 4799POPC   GL261310   3.827  10.385   5.969
 4799POPC   C1A61311   3.399  10.316   6.219
 4799POPC   D2A61312   3.579  10.395   6.644
 4799POPC   C3A61313   3.333  10.651   6.931
 4799POPC   C4A61314   3.260  10.658   7.369
 4799POPC   C1B61315   3.746  10.710   6.262
 4799POPC   C2B61316   3.852  10.843   6.679
 4799POPC   C3B61317   3.813  10.743   7.110
 4799POPC   C4B61318   4.081  10.766   7.455
 4800POPC   NC361319   1.538   3.025   5.363
 4800POPC   PO461320   0.969   2.634   5.265
 4800POPC   GL161321   1.119   2.850   5.653
 4800POPC   GL261322   1.424   2.726   5.780
 4800POPC   C1A61323   1.071   2.745   6.136
 4800POPC   D2A61324   1.120   2.939   6.526
 4800POPC   C3A61325   1.062   2.709   6.899
 4800POPC   C4A61326   1.259   2.694   7.284
 4800POPC   C1B61327   1.464   3.101   6.091
 4800POPC   C2B61328   1.592   3.166   6.576
 4800POPC   C3B61329   1.356   3.126   6.970
 4800POPC   C4B61330   1.193   3.240   7.367
 4801POPC   NC361331  43.722  28.792   5.511
 4801POPC   PO461332  44.017  29.394   5.426
 4801POPC   GL161333  43.808  29.195   5.813
 4801POPC   GL261334  44.038  28.912   5.912
 4801POPC   C1A61335  43.615  29.150   6.243
 4801POPC   D2A61336  43.700  29.341   6.652
 4801POPC   C3A61337  43.842  29.162   7.071
 4801POPC   C4A61338  43.994  29.235   7.493
 4801POPC   C1B61339  44.137  29.255   6.222
 4801POPC   C2B61340  44.201  29.222   6.662
 4801POPC   C3B61341  44.233  28.838   6.923
 4801POPC   C4B61342  44.061  28.715   7.303
 4802POPC   NC361343  16.145  39.553   5.641
 4802POPC   PO461344  16.624  39.311   5.265
 4802POPC   GL161345  16.784  39.292   5.757
 4802POPC   GL261346  16.961  39.615   5.801
 4802POPC   C1A61347  16.682  39.001   6.178
 4802POPC   D2A61348  16.743  38.772   6.612
 4802POPC   C3A61349  16.576  38.930   7.019
 4802POPC   C4A61350  16.557  39.159   7.411
 4802POPC   C1B61351  16.760  39.512   6.211
 4802POPC   C2B61352  16.692  39.288   6.614
 4802POPC   C3B61353  16.673  39.474   7.013
 4802POPC   C4B61354  16.939  39.537   7.351
 4803POPC   NC361355  11.164  12.483   5.336
 4803POPC   PO461356  11.514  11.874   5.451
 4803POPC   GL161357  11.258  12.098   5.757
 4803POPC   GL261358  11.442  12.381   5.807
 4803POPC   C1A61359  11.105  12.276   6.180
 4803POPC   D2A61360  11.085  12.109   6.614
 4803POPC   C3A61361  10.958  11.845   6.989
 4803POPC   C4A61362  10.897  12.078   7.358
 4803POPC   C1B61363  11.634  12.300   6.231
 4803POPC   C2B61364  11.483  12.436   6.646
 4803POPC   C3B61365  11.345  12.205   7.056
 4803POPC   C4B61366  11.361  12.190   7.519
 4804POPC   NC361367  10.846  28.665   5.464
 4804POPC   PO461368  10.578  28.018   5.559
 4804POPC   GL161369  10.419  28.394   5.739
 4804POPC   GL261370  10.713  28.542   5.933
 4804POPC   C1A61371  10.279  28.412   6.155
 4804POPC   D2A61372  10.250  28.276   6.551
 4804POPC   C3A61373  10.370  28.597   6.841
 4804POPC   C4A61374  10.349  28.529   7.273
 4804POPC   C1B61375  10.670  28.685   6.368
 4804POPC   C2B61376  10.867  28.679   6.775
 4804POPC   C3B61377  10.870  28.482   7.197
 4804POPC   C4B61378  10.984  28.759   7.591
 4805POPC   NC361379   2.119  15.815   5.421
 4805POPC   PO461380   1.512  15.925   5.170
 4805POPC   GL161381   1.677  15.876   5.671
 4805POPC   GL261382   1.984  16.095   5.823
 4805POPC   C1A61383   1.729  15.772   6.147
 4805POPC   D2A61384   1.825  15.945   6.574
 4805POPC   C3A61385   1.874  15.677   6.954
 4805POPC   C4A61386   2.063  15.731   7.348
 4805POPC   C1B61387   2.213  16.086   6.231
 4805POPC   C2B61388   2.393  16.118   6.651
 4805POPC   C3B61389   2.108  16.135   7.012
 4805POPC   C4B61390   2.110  16.300   7.439
 4806POPC   NC361391   3.004  44.344   5.223
 4806POPC   PO461392   3.505  44.119   5.640
 4806POPC   GL161393   3.561  43.819   5.962
 4806POPC   GL261394   3.670  43.509   5.813
 4806POPC   C1A61395   3.692  44.004   6.347
 4806POPC   D2A61396   3.505  44.031   6.753
 4806POPC   C3A61397   3.783  44.111   7.087
 4806POPC   C4A61398   3.553  44.156   7.467
 4806POPC   C1B61399   3.675  43.311   6.213
 4806POPC   C2B61400   3.605  43.555   6.585
 4806POPC   C3B61401   3.661  43.600   7.014
 4806POPC   C4B61402   3.848  43.304   7.266
 4807POPC   NC361403  22.799   2.652   5.295
 4807POPC   PO461404  23.330   2.441   5.595
 4807POPC   GL161405  23.045   2.740   5.775
 4807POPC   GL261406  22.932   2.435   5.944
 4807POPC   C1A61407  22.888   2.939   6.193
 4807POPC   D2A61408  22.951   2.847   6.671
 4807POPC   C3A61409  22.695   2.883   7.060
 4807POPC   C4A61410  22.872   2.930   7.473
 4807POPC   C1B61411  23.056   2.447   6.372
 4807POPC   C2B61412  22.939   2.349   6.804
 4807POPC   C3B61413  23.083   2.547   7.199
 4807POPC   C4B61414  23.205   2.533   7.659
 4808POPC   NC361415   9.178   9.060   5.357
 4808POPC   PO461416   8.743   8.570   5.347
 4808POPC   GL161417   8.909   8.769   5.768
 4808POPC   GL261418   9.117   9.089   5.847
 4808POPC   C1A61419   8.812   8.684   6.231
 4808POPC   D2A61420   8.637   8.595   6.656
 4808POPC   C3A61421   8.753   8.865   7.008
 4808POPC   C4A61422   8.996   8.754   7.383
 4808POPC   C1B61423   9.089   9.120   6.280
 4808POPC   C2B61424   9.148   8.970   6.684
 4808POPC   C3B61425   9.200   9.113   7.095
 4808POPC   C4B61426   8.961   9.276   7.459
 4809POPC   NC361427   9.138  10.124   5.571
 4809POPC   PO461428   9.064   9.513   5.323
 4809POPC   GL161429   9.057   9.628   5.759
 4809POPC   GL261430   8.772   9.841   5.861
 4809POPC   C1A61431   9.201   9.697   6.199
 4809POPC   D2A61432   9.219   9.494   6.613
 4809POPC   C3A61433   8.838   9.382   6.828
 4809POPC   C4A61434   8.749   9.642   7.169
 4809POPC   C1B61435   8.858  10.088   6.251
 4809POPC   C2B61436   8.991  10.051   6.708
 4809POPC   C3B61437   8.933  10.157   7.156
 4809POPC   C4B61438   8.927  10.210   7.614
 4810POPC   NC361439   5.964   5.338   5.484
 4810POPC   PO461440   5.877   4.657   5.619
 4810POPC   GL161441   5.780   5.005   5.889
 4810POPC   GL261442   5.987   5.300   5.971
 4810POPC   C1A61443   5.706   5.086   6.333
 4810POPC   D2A61444   5.840   5.257   6.709
 4810POPC   C3A61445   5.608   5.288   7.103
 4810POPC   C4A61446   5.579   5.216   7.574
 4810POPC   C1B61447   6.089   5.542   6.306
 4810POPC   C2B61448   6.245   5.576   6.697
 4810POPC   C3B61449   5.990   5.614   7.039
 4810POPC   C4B61450   6.059   5.425   7.464
 4811POPC   NC361451   1.519   5.333   5.213
 4811POPC   PO461452   1.016   4.939   5.266
 4811POPC   GL161453   1.212   4.902   5.738
 4811POPC   GL261454   1.537   5.045   5.709
 4811POPC   C1A61455   1.178   4.958   6.235
 4811POPC   D2A61456   0.899   4.956   6.623
 4811POPC   C3A61457   1.052   4.931   7.076
 4811POPC   C4A61458   1.076   4.829   7.516
 4811POPC   C1B61459   1.675   5.042   6.136
 4811POPC   C2B61460   1.648   4.921   6.563
 4811POPC   C3B61461   1.542   5.112   6.961
 4811POPC   C4B61462   1.386   5.243   7.370
 4812POPC   NC361463  20.700   5.264   5.462
 4812POPC   PO461464  20.638   4.588   5.587
 4812POPC   GL161465  20.697   4.935   5.858
 4812POPC   GL261466  20.406   5.154   5.858
 4812POPC   C1A61467  20.799   5.172   6.238
 4812POPC   D2A61468  20.673   5.334   6.650
 4812POPC   C3A61469  20.594   5.082   7.018
 4812POPC   C4A61470  20.685   5.102   7.468
 4812POPC   C1B61471  20.292   4.892   6.175
 4812POPC   C2B61472  20.290   4.975   6.595
 4812POPC   C3B61473  20.204   4.721   6.941
 4812POPC   C4B61474  20.423   4.696   7.313
 4813POPC   NC361475   2.401   2.039   5.418
 4813POPC   PO461476   3.013   1.826   5.330
 4813POPC   GL161477   3.020   1.900   5.774
 4813POPC   GL261478   3.226   1.628   5.848
 4813POPC   C1A61479   2.802   2.163   6.132
 4813POPC   D2A61480   2.857   2.374   6.569
 4813POPC   C3A61481   2.872   2.195   6.994
 4813POPC   C4A61482   2.539   2.098   7.263
 4813POPC   C1B61483   3.085   1.739   6.260
 4813POPC   C2B61484   3.154   1.915   6.642
 4813POPC   C3B61485   3.169   1.759   7.051
 4813POPC   C4B61486   2.992   1.867   7.441
 4814POPC   NC361487  27.707  10.155   5.229
 4814POPC   PO461488  27.435  10.654   5.538
 4814POPC   GL161489  27.371  10.384   5.855
 4814POPC   GL261490  27.469  10.685   6.055
 4814POPC   C1A61491  27.421  10.232   6.278
 4814POPC   D2A61492  27.663  10.335   6.640
 4814POPC   C3A61493  27.568  10.554   7.009
 4814POPC   C4A61494  27.604  10.345   7.383
 4814POPC   C1B61495  27.710  11.000   6.253
 4814POPC   C2B61496  27.814  10.843   6.638
 4814POPC   C3B61497  28.041  10.832   7.000
 4814POPC   C4B61498  27.789  10.901   7.339
 4815POPC   NC361499  12.769  20.245   5.596
 4815POPC   PO461500  12.245  20.508   5.460
 4815POPC   GL161501  12.536  20.616   5.873
 4815POPC   GL261502  12.942  20.630   5.879
 4815POPC   C1A61503  12.614  20.738   6.341
 4815POPC   D2A61504  12.738  20.624   6.781
 4815POPC   C3A61505  13.047  20.812   7.052
 4815POPC   C4A61506  12.781  20.930   7.377
 4815POPC   C1B61507  13.068  20.497   6.293
 4815POPC   C2B61508  13.100  20.260   6.682
 4815POPC   C3B61509  13.015  20.308   7.102
 4815POPC   C4B61510  13.195  20.467   7.473
 4816POPC   NC361511  17.654  13.138   5.342
 4816POPC   PO461512  17.061  12.803   5.422
 4816POPC   GL161513  17.369  12.946   5.726
 4816POPC   GL261514  17.710  12.740   5.690
 4816POPC   C1A61515  17.347  13.173   6.129
 4816POPC   D2A61516  17.163  13.222   6.559
 4816POPC   C3A61517  17.205  12.883   6.829
 4816POPC   C4A61518  17.301  12.852   7.264
 4816POPC   C1B61519  17.847  12.842   6.127
 4816POPC   C2B61520  17.615  12.959   6.511
 4816POPC   C3B61521  17.688  13.026   6.945
 4816POPC   C4B61522  17.818  12.764   7.284
 4817POPC   NC361523  36.451  14.919   5.514
 4817POPC   PO461524  35.835  15.147   5.398
 4817POPC   GL161525  35.973  15.303   5.800
 4817POPC   GL261526  36.298  15.454   5.849
 4817POPC   C1A61527  36.078  15.137   6.203
 4817POPC   D2A61528  35.938  15.242   6.596
 4817POPC   C3A61529  36.053  15.281   7.007
 4817POPC   C4A61530  35.899  15.120   7.383
 4817POPC   C1B61531  36.547  15.355   6.220
 4817POPC   C2B61532  36.479  15.176   6.623
 4817POPC   C3B61533  36.555  15.361   7.022
 4817POPC   C4B61534  36.336  15.616   7.282
 4818POPC   NC361535  38.640  22.813   5.471
 4818POPC   PO461536  37.964  22.720   5.662
 4818POPC   GL161537  38.342  22.712   5.882
 4818POPC   GL261538  38.403  23.075   5.868
 4818POPC   C1A61539  38.621  22.801   6.263
 4818POPC   D2A61540  38.763  22.856   6.704
 4818POPC   C3A61541  38.505  22.675   7.061
 4818POPC   C4A61542  38.297  22.755   7.472
 4818POPC   C1B61543  38.682  23.306   6.184
 4818POPC   C2B61544  38.595  23.456   6.609
 4818POPC   C3B61545  38.513  23.215   6.992
 4818POPC   C4B61546  38.769  23.164   7.363
 4819POPC   NC361547   3.454  40.388   5.405
 4819POPC   PO461548   3.615  41.063   5.481
 4819POPC   GL161549   3.347  40.803   5.712
 4819POPC   GL261550   3.648  40.644   5.817
 4819POPC   C1A61551   3.268  40.751   6.156
 4819POPC   D2A61552   3.200  40.532   6.545
 4819POPC   C3A61553   3.238  40.743   6.914
 4819POPC   C4A61554   3.432  40.605   7.285
 4819POPC   C1B61555   3.734  40.513   6.240
 4819POPC   C2B61556   3.786  40.760   6.602
 4819POPC   C3B61557   3.815  40.785   7.013
 4819POPC   C4B61558   4.011  41.056   7.224
 4820POPC   NC361559  38.081  27.670   5.281
 4820POPC   PO461560  37.643  27.396   5.631
 4820POPC   GL161561  37.728  27.693   5.890
 4820POPC   GL261562  37.466  27.936   5.828
 4820POPC   C1A61563  37.630  27.535   6.293
 4820POPC   D2A61564  37.820  27.482   6.633
 4820POPC   C3A61565  37.597  27.410   6.963
 4820POPC   C4A61566  37.684  27.591   7.341
 4820POPC   C1B61567  37.637  28.045   6.241
 4820POPC   C2B61568  37.534  27.912   6.645
 4820POPC   C3B61569  37.692  27.992   7.021
 4820POPC   C4B61570  37.488  28.066   7.399
 4821POPC   NC361571  31.337   0.982   5.309
 4821POPC   PO461572  31.552   1.574   5.391
 4821POPC   GL161573  31.629   1.343   5.804
 4821POPC   GL261574  31.493   0.992   5.814
 4821POPC   C1A61575  31.650   1.211   6.257
 4821POPC   D2A61576  31.848   1.366   6.627
 4821POPC   C3A61577  31.621   1.329   6.995
 4821POPC   C4A61578  31.723   1.532   7.356
 4821POPC   C1B61579  31.265   0.861   6.194
 4821POPC   C2B61580  31.358   0.903   6.629
 4821POPC   C3B61581  31.175   1.062   7.029
 4821POPC   C4B61582  31.367   1.166   7.462
 4822POPC   NC361583  28.657  19.815   5.160
 4822POPC   PO461584  28.050  19.762   5.472
 4822POPC   GL161585  28.336  19.825   5.780
 4822POPC   GL261586  28.463  19.504   5.694
 4822POPC   C1A61587  28.383  19.973   6.216
 4822POPC   D2A61588  28.342  20.138   6.634
 4822POPC   C3A61589  28.471  19.978   7.046
 4822POPC   C4A61590  28.291  20.089   7.462
 4822POPC   C1B61591  28.317  19.480   6.154
 4822POPC   C2B61592  28.534  19.566   6.562
 4822POPC   C3B61593  28.304  19.503   6.955
 4822POPC   C4B61594  28.250  19.594   7.372
 4823POPC   NC361595  22.135   8.363   5.361
 4823POPC   PO461596  22.436   7.867   5.726
 4823POPC   GL161597  22.296   8.183   5.949
 4823POPC   GL261598  21.948   8.291   5.925
 4823POPC   C1A61599  22.260   8.096   6.378
 4823POPC   D2A61600  22.171   7.808   6.682
 4823POPC   C3A61601  22.341   8.083   6.974
 4823POPC   C4A61602  22.440   8.383   7.241
 4823POPC   C1B61603  21.747   8.193   6.362
 4823POPC   C2B61604  21.732   8.120   6.850
 4823POPC   C3B61605  21.931   8.358   7.190
 4823POPC   C4B61606  22.111   8.787   7.337
 4824POPC   NC361607  26.845  16.040   5.439
 4824POPC   PO461608  26.680  15.399   5.266
 4824POPC   GL161609  26.625  15.593   5.731
 4824POPC   GL261610  26.690  15.890   5.893
 4824POPC   C1A61611  26.482  15.550   6.204
 4824POPC   D2A61612  26.719  15.694   6.586
 4824POPC   C3A61613  26.576  15.748   7.021
 4824POPC   C4A61614  26.641  16.132   7.261
 4824POPC   C1B61615  26.698  16.196   6.192
 4824POPC   C2B61616  26.905  16.241   6.562
 4824POPC   C3B61617  27.034  16.117   6.946
 4824POPC   C4B61618  27.096  16.433   7.233
 4825POPC   NC361619  42.123  33.464   5.285
 4825POPC   PO461620  42.484  32.946   5.359
 4825POPC   GL161621  42.209  33.119   5.682
 4825POPC   GL261622  42.115  32.806   5.842
 4825POPC   C1A61623  42.065  33.285   6.102
 4825POPC   D2A61624  41.839  33.259   6.516
 4825POPC   C3A61625  41.975  33.000   6.869
 4825POPC   C4A61626  42.191  33.188   7.223
 4825POPC   C1B61627  42.455  32.965   6.127
 4825POPC   C2B61628  42.351  33.055   6.543
 4825POPC   C3B61629  42.476  32.864   6.940
 4825POPC   C4B61630  42.572  32.948   7.445
 4826POPC   NC361631  31.779  20.241   5.648
 4826POPC   PO461632  31.777  19.685   5.184
 4826POPC   GL161633  31.490  19.709   5.652
 4826POPC   GL261634  31.632  19.496   5.853
 4826POPC   C1A61635  31.416  19.878   6.149
 4826POPC   D2A61636  31.444  20.137   6.596
 4826POPC   C3A61637  31.473  19.979   7.037
 4826POPC   C4A61638  31.216  19.662   7.225
 4826POPC   C1B61639  31.770  19.530   6.273
 4826POPC   C2B61640  31.700  19.679   6.692
 4826POPC   C3B61641  31.711  19.543   7.134
 4826POPC   C4B61642  31.539  19.431   7.564
 4827POPC   NC361643  43.463   9.220   5.365
 4827POPC   PO461644  44.170   9.006   5.374
 4827POPC   GL161645  44.077   8.979   5.818
 4827POPC   GL261646  43.745   8.992   5.830
 4827POPC   C1A61647  44.073   8.799   6.242
 4827POPC   D2A61648  43.748   8.936   6.573
 4827POPC   C3A61649  43.885   9.081   6.972
 4827POPC   C4A61650  43.909   8.962   7.393
 4827POPC   C1B61651  43.870   9.280   6.189
 4827POPC   C2B61652  43.788   9.473   6.587
 4827POPC   C3B61653  43.565   9.473   6.983
 4827POPC   C4B61654  43.832   9.468   7.351
 4828POPC   NC361655  30.140  26.030   5.352
 4828POPC   PO461656  29.512  26.160   5.529
 4828POPC   GL161657  29.869  26.187   5.809
 4828POPC   GL261658  30.027  25.867   5.820
 4828POPC   C1A61659  29.854  26.062   6.265
 4828POPC   D2A61660  29.738  26.223   6.615
 4828POPC   C3A61661  29.666  26.030   6.981
 4828POPC   C4A61662  29.791  26.167   7.382
 4828POPC   C1B61663  30.152  25.681   6.207
 4828POPC   C2B61664  30.000  25.736   6.656
 4828POPC   C3B61665  30.120  25.797   7.094
 4828POPC   C4B61666  30.190  25.859   7.533
 4829POPC   NC361667   3.838   6.953   5.411
 4829POPC   PO461668   3.130   6.964   5.561
 4829POPC   GL161669   3.418   6.785   5.885
 4829POPC   GL261670   3.728   6.633   5.803
 4829POPC   C1A61671   3.417   6.642   6.300
 4829POPC   D2A61672   3.251   6.437   6.651
 4829POPC   C3A61673   3.467   6.435   7.035
 4829POPC   C4A61674   3.266   6.573   7.366
 4829POPC   C1B61675   3.885   6.499   6.215
 4829POPC   C2B61676   3.773   6.633   6.664
 4829POPC   C3B61677   3.750   6.865   7.048
 4829POPC   C4B61678   3.753   6.734   7.487
 4830POPC   NC361679  35.778  28.276   5.579
 4830POPC   PO461680  36.400  28.440   5.316
 4830POPC   GL161681  36.275  28.396   5.770
 4830POPC   GL261682  36.005  28.652   5.860
 4830POPC   C1A61683  36.166  28.330   6.223
 4830POPC   D2A61684  36.082  28.290   6.667
 4830POPC   C3A61685  35.829  28.576   6.907
 4830POPC   C4A61686  35.993  28.516   7.298
 4830POPC   C1B61687  35.883  28.774   6.278
 4830POPC   C2B61688  36.169  28.888   6.614
 4830POPC   C3B61689  36.349  28.734   7.004
 4830POPC   C4B61690  36.432  28.748   7.430
 4831POPC   NC361691  44.178   6.067   5.583
 4831POPC   PO461692  44.357   5.489   5.592
 4831POPC   GL161693  44.044   5.661   5.895
 4831POPC   GL261694  43.739   5.925   5.799
 4831POPC   C1A61695  44.010   5.911   6.262
 4831POPC   D2A61696  43.760   6.006   6.600
 4831POPC   C3A61697  43.930   6.045   6.970
 4831POPC   C4A61698  44.217   5.915   7.265
 4831POPC   C1B61699  43.562   5.674   6.120
 4831POPC   C2B61700  43.707   5.508   6.500
 4831POPC   C3B61701  43.757   5.575   6.950
 4831POPC   C4B61702  43.690   5.781   7.354
 4832POPC   NC361703  36.868  10.180   5.420
 4832POPC   PO461704  36.788  10.885   5.326
 4832POPC   GL161705  36.910  10.776   5.716
 4832POPC   GL261706  36.671  10.521   5.755
 4832POPC   C1A61707  36.829  10.821   6.144
 4832POPC   D2A61708  36.911  10.638   6.530
 4832POPC   C3A61709  36.714  10.819   6.895
 4832POPC   C4A61710  36.865  10.702   7.298
 4832POPC   C1B61711  36.795  10.293   6.147
 4832POPC   C2B61712  36.903  10.120   6.575
 4832POPC   C3B61713  36.939  10.319   6.979
 4832POPC   C4B61714  37.053  10.227   7.415
 4833POPC   NC361715  27.526  27.874   5.762
 4833POPC   PO461716  27.889  27.524   5.351
 4833POPC   GL161717  27.753  27.413   5.842
 4833POPC   GL261718  27.800  27.695   6.144
 4833POPC   C1A61719  27.906  27.237   6.281
 4833POPC   D2A61720  27.751  27.128   6.708
 4833POPC   C3A61721  27.600  27.464   7.013
 4833POPC   C4A61722  27.800  27.898   7.140
 4833POPC   C1B61723  27.539  27.600   6.487
 4833POPC   C2B61724  27.427  27.908   6.792
 4833POPC   C3B61725  27.311  27.837   7.226
 4833POPC   C4B61726  27.352  27.876   7.664
 4834POPC   NC361727   1.833  40.907   5.559
 4834POPC   PO461728   2.451  41.016   5.585
 4834POPC   GL161729   2.229  40.693   5.797
 4834POPC   GL261730   2.425  40.493   5.937
 4834POPC   C1A61731   1.973  40.564   6.179
 4834POPC   D2A61732   2.059  40.469   6.608
 4834POPC   C3A61733   1.752  40.631   6.922
 4834POPC   C4A61734   1.807  40.858   7.340
 4834POPC   C1B61735   2.392  40.863   6.261
 4834POPC   C2B61736   2.261  40.947   6.692
 4834POPC   C3B61737   2.245  40.708   7.049
 4834POPC   C4B61738   2.317  40.786   7.456
 4835POPC   NC361739  31.681  10.202   5.635
 4835POPC   PO461740  31.257   9.795   5.301
 4835POPC   GL161741  31.331   9.748   5.762
 4835POPC   GL261742  31.656   9.722   5.879
 4835POPC   C1A61743  31.309   9.910   6.202
 4835POPC   D2A61744  31.475   9.928   6.620
 4835POPC   C3A61745  31.251  10.045   6.993
 4835POPC   C4A61746  31.082   9.854   7.371
 4835POPC   C1B61747  31.886   9.505   6.207
 4835POPC   C2B61748  32.003   9.582   6.619
 4835POPC   C3B61749  31.846   9.491   7.021
 4835POPC   C4B61750  31.630   9.838   7.263
 4836POPC   NC361751  36.553  39.965   5.133
 4836POPC   PO461752  37.088  39.602   5.493
 4836POPC   GL161753  36.946  39.907   5.814
 4836POPC   GL261754  37.038  40.290   5.779
 4836POPC   C1A61755  36.845  39.794   6.219
 4836POPC   D2A61756  36.691  39.930   6.601
 4836POPC   C3A61757  36.929  39.777   6.942
 4836POPC   C4A61758  36.712  39.729   7.298
 4836POPC   C1B61759  36.768  40.300   6.136
 4836POPC   C2B61760  36.818  40.448   6.513
 4836POPC   C3B61761  36.706  40.392   6.893
 4836POPC   C4B61762  36.823  40.222   7.236
 4837POPC   NC361763  35.085   0.740   5.513
 4837POPC   PO461764  35.681   0.901   5.446
 4837POPC   GL161765  35.604   0.736   5.810
 4837POPC   GL261766  35.507   0.402   5.748
 4837POPC   C1A61767  35.358   0.744   6.159
 4837POPC   D2A61768  35.464   0.826   6.583
 4837POPC   C3A61769  35.289   0.630   6.942
 4837POPC   C4A61770  35.172   0.250   7.184
 4837POPC   C1B61771  35.689   0.334   6.158
 4837POPC   C2B61772  35.636   0.322   6.583
 4837POPC   C3B61773  35.655   0.159   7.001
 4837POPC   C4B61774  35.752   0.112   7.418
 4838POPC   NC361775  22.033   7.797   5.501
 4838POPC   PO461776  22.356   7.152   5.332
 4838POPC   GL161777  22.257   7.194   5.782
 4838POPC   GL261778  22.097   7.503   5.934
 4838POPC   C1A61779  22.155   7.049   6.188
 4838POPC   D2A61780  21.941   7.307   6.461
 4838POPC   C3A61781  22.103   7.300   6.862
 4838POPC   C4A61782  22.097   7.277   7.312
 4838POPC   C1B61783  22.438   7.476   6.278
 4838POPC   C2B61784  22.638   7.468   6.694
 4838POPC   C3B61785  22.445   7.603   7.079
 4838POPC   C4B61786  21.996   7.775   7.192
 4839POPC   NC361787  16.510  36.306   5.481
 4839POPC   PO461788  16.799  35.806   5.229
 4839POPC   GL161789  16.762  35.896   5.707
 4839POPC   GL261790  16.933  36.230   5.774
 4839POPC   C1A61791  16.634  35.973   6.182
 4839POPC   D2A61792  16.717  35.830   6.643
 4839POPC   C3A61793  16.737  35.991   7.031
 4839POPC   C4A61794  16.635  36.281   7.250
 4839POPC   C1B61795  16.897  36.430   6.191
 4839POPC   C2B61796  16.929  36.301   6.623
 4839POPC   C3B61797  17.123  36.355   7.020
 4839POPC   C4B61798  17.137  36.111   7.381
 4840POPC   NC361799  20.914   4.610   5.220
 4840POPC   PO461800  20.501   4.099   5.350
 4840POPC   GL161801  20.601   4.110   5.816
 4840POPC   GL261802  20.607   4.417   6.042
 4840POPC   C1A61803  20.503   3.970   6.244
 4840POPC   D2A61804  20.747   3.938   6.622
 4840POPC   C3A61805  20.632   3.994   7.013
 4840POPC   C4A61806  20.660   4.263   7.349
 4840POPC   C1B61807  20.605   4.568   6.459
 4840POPC   C2B61808  20.700   4.538   6.902
 4840POPC   C3B61809  20.942   4.703   7.262
 4840POPC   C4B61810  20.753   4.663   7.704
 4841POPC   NC361811   1.124  22.230   5.384
 4841POPC   PO461812   1.477  22.776   5.158
 4841POPC   GL161813   1.454  22.416   5.695
 4841POPC   GL261814   1.296  22.068   5.849
 4841POPC   C1A61815   1.264  22.446   6.180
 4841POPC   D2A61816   1.098  22.290   6.593
 4841POPC   C3A61817   1.199  22.440   6.996
 4841POPC   C4A61818   0.985  22.425   7.429
 4841POPC   C1B61819   1.067  21.895   6.261
 4841POPC   C2B61820   0.998  21.787   6.732
 4841POPC   C3B61821   1.009  22.002   7.153
 4841POPC   C4B61822   1.028  21.981   7.656
 4842POPC   NC361823   4.700  35.875   5.418
 4842POPC   PO461824   4.123  36.271   5.350
 4842POPC   GL161825   4.337  36.109   5.677
 4842POPC   GL261826   4.183  35.779   5.689
 4842POPC   C1A61827   4.413  36.229   6.098
 4842POPC   D2A61828   4.193  36.319   6.477
 4842POPC   C3A61829   4.420  36.304   6.856
 4842POPC   C4A61830   4.596  36.264   7.265
 4842POPC   C1B61831   4.468  35.716   6.044
 4842POPC   C2B61832   4.485  35.858   6.476
 4842POPC   C3B61833   4.610  35.822   6.909
 4842POPC   C4B61834   4.607  35.736   7.337
 4843POPC   NC361835   8.723  44.504   5.468
 4843POPC   PO461836   9.348  44.920   5.375
 4843POPC   GL161837   9.158  44.810   5.828
 4843POPC   GL261838   8.826  44.621   5.942
 4843POPC   C1A61839   8.980  44.973   6.244
 4843POPC   D2A61840   8.761  44.814   6.617
 4843POPC   C3A61841   8.879   0.012   7.021
 4843POPC   C4A61842   9.269  44.992   7.251
 4843POPC   C1B61843   8.997  44.423   6.306
 4843POPC   C2B61844   9.089  44.209   6.702
 4843POPC   C3B61845   9.097  44.484   7.075
 4843POPC   C4B61846   9.378  44.538   7.450
 4844POPC   NC361847  44.833   5.503   5.530
 4844POPC   PO461848  44.613   6.202   5.561
 4844POPC   GL161849  44.623   5.878   5.866
 4844POPC   GL261850   0.005   5.852   5.903
 4844POPC   C1A61851  44.538   5.843   6.316
 4844POPC   D2A61852  44.752   6.052   6.680
 4844POPC   C3A61853  44.712   6.061   7.148
 4844POPC   C4A61854  44.952   6.125   7.548
 4844POPC   C1B61855  44.928   5.457   6.162
 4844POPC   C2B61856  44.732   5.435   6.555
 4844POPC   C3B61857  44.826   5.591   6.934
 4844POPC   C4B61858  44.616   5.581   7.262
 4845POPC   NC361859   8.781   6.629   5.580
 4845POPC   PO461860   9.030   6.032   5.523
 4845POPC   GL161861   9.187   6.355   5.827
 4845POPC   GL261862   9.268   6.712   5.827
 4845POPC   C1A61863   9.006   6.533   6.224
 4845POPC   D2A61864   9.177   6.572   6.630
 4845POPC   C3A61865   8.849   6.494   6.889
 4845POPC   C4A61866   8.557   6.600   7.203
 4845POPC   C1B61867   9.172   7.008   6.178
 4845POPC   C2B61868   8.971   7.053   6.546
 4845POPC   C3B61869   9.107   7.056   6.961
 4845POPC   C4B61870   9.127   6.722   7.257
 4846POPC   NC361871  34.473  18.384   5.375
 4846POPC   PO461872  33.805  18.288   5.442
 4846POPC   GL161873  34.184  18.194   5.790
 4846POPC   GL261874  34.568  18.329   5.868
 4846POPC   C1A61875  34.265  18.306   6.259
 4846POPC   D2A61876  34.683  18.146   6.415
 4846POPC   C3A61877  34.724  17.998   6.831
 4846POPC   C4A61878  34.455  18.048   7.224
 4846POPC   C1B61879  34.720  18.635   6.220
 4846POPC   C2B61880  34.689  18.787   6.660
 4846POPC   C3B61881  34.607  18.475   6.983
 4846POPC   C4B61882  34.931  18.221   7.223
 4847POPC   NC361883  22.567  34.017   5.345
 4847POPC   PO461884  23.265  33.842   5.528
 4847POPC   GL161885  22.950  33.794   5.851
 4847POPC   GL261886  22.616  33.874   5.837
 4847POPC   C1A61887  22.953  33.713   6.287
 4847POPC   D2A61888  23.233  33.850   6.603
 4847POPC   C3A61889  23.168  33.659   7.001
 4847POPC   C4A61890  22.754  33.708   7.226
 4847POPC   C1B61891  22.794  34.171   6.146
 4847POPC   C2B61892  22.916  34.281   6.563
 4847POPC   C3B61893  22.957  34.112   6.976
 4847POPC   C4B61894  22.934  34.264   7.409
 4848POPC   NC361895  31.974  11.786   5.428
 4848POPC   PO461896  32.438  12.288   5.420
 4848POPC   GL161897  32.383  12.076   5.774
 4848POPC   GL261898  32.055  12.180   5.790
 4848POPC   C1A61899  32.533  11.977   6.187
 4848POPC   D2A61900  32.395  11.736   6.561
 4848POPC   C3A61901  32.314  11.989   6.931
 4848POPC   C4A61902  32.511  11.905   7.342
 4848POPC   C1B61903  31.789  12.257   6.133
 4848POPC   C2B61904  31.770  12.083   6.546
 4848POPC   C3B61905  31.829  12.186   6.990
 4848POPC   C4B61906  31.904  11.951   7.364
 4849POPC   NC361907  18.310   6.623   5.520
 4849POPC   PO461908  17.904   7.162   5.519
 4849POPC   GL161909  18.079   6.870   5.916
 4849POPC   GL261910  18.247   6.503   6.000
 4849POPC   C1A61911  18.136   6.834   6.371
 4849POPC   D2A61912  17.852   6.861   6.713
 4849POPC   C3A61913  17.990   6.693   7.072
 4849POPC   C4A61914  18.113   6.913   7.421
 4849POPC   C1B61915  18.467   6.418   6.366
 4849POPC   C2B61916  18.403   6.516   6.806
 4849POPC   C3B61917  18.364   6.382   7.250
 4849POPC   C4B61918  18.372   6.214   7.674
 4850POPC   NC361919  37.862  23.127   5.479
 4850POPC   PO461920  37.382  22.657   5.357
 4850POPC   GL161921  37.489  22.844   5.812
 4850POPC   GL261922  37.781  23.076   5.977
 4850POPC   C1A61923  37.385  22.942   6.258
 4850POPC   D2A61924  37.666  22.897   6.616
 4850POPC   C3A61925  37.490  22.915   7.024
 4850POPC   C4A61926  37.731  22.791   7.366
 4850POPC   C1B61927  38.078  22.900   6.272
 4850POPC   C2B61928  38.256  22.859   6.641
 4850POPC   C3B61929  38.043  22.875   6.990
 4850POPC   C4B61930  38.065  23.180   7.295
 4851POPC   NC361931  27.859  12.207   5.390
 4851POPC   PO461932  27.161  12.185   5.320
 4851POPC   GL161933  27.270  12.182   5.784
 4851POPC   GL261934  27.302  11.861   5.983
 4851POPC   C1A61935  27.548  12.302   6.156
 4851POPC   D2A61936  27.559  12.095   6.582
 4851POPC   C3A61937  27.601  12.279   7.001
 4851POPC   C4A61938  27.371  12.075   7.341
 4851POPC   C1B61939  27.764  11.844   6.164
 4851POPC   C2B61940  27.851  11.672   6.588
 4851POPC   C3B61941  27.681  11.762   6.999
 4851POPC   C4B61942  27.885  11.899   7.374
 4852POPC   NC361943  37.275   4.981   5.312
 4852POPC   PO461944  36.598   5.139   5.351
 4852POPC   GL161945  36.913   5.097   5.704
 4852POPC   GL261946  36.951   5.383   5.916
 4852POPC   C1A61947  37.095   4.938   6.131
 4852POPC   D2A61948  36.950   4.606   6.415
 4852POPC   C3A61949  36.888   4.758   6.825
 4852POPC   C4A61950  37.155   4.932   7.120
 4852POPC   C1B61951  36.843   5.328   6.362
 4852POPC   C2B61952  36.906   5.261   6.797
 4852POPC   C3B61953  37.009   5.457   7.230
 4852POPC   C4B61954  36.870   5.565   7.674
 4853POPC   NC361955  22.752  41.248   5.131
 4853POPC   PO461956  22.908  40.700   5.487
 4853POPC   GL161957  22.906  40.829   5.902
 4853POPC   GL261958  22.840  40.480   6.023
 4853POPC   C1A61959  22.976  40.915   6.308
 4853POPC   D2A61960  23.089  40.563   6.539
 4853POPC   C3A61961  22.969  40.643   6.941
 4853POPC   C4A61962  22.897  41.038   7.224
 4853POPC   C1B61963  22.507  40.755   6.257
 4853POPC   C2B61964  22.572  41.012   6.632
 4853POPC   C3B61965  22.479  40.800   6.998
 4853POPC   C4B61966  22.666  40.599   7.341
 4854POPC   NC361967   3.753   2.840   5.343
 4854POPC   PO461968   3.292   2.819   5.867
 4854POPC   GL161969   3.621   2.855   6.029
 4854POPC   GL261970   3.753   2.560   5.831
 4854POPC   C1A61971   3.589   2.891   6.471
 4854POPC   D2A61972   3.332   2.546   6.650
 4854POPC   C3A61973   3.076   2.664   6.982
 4854POPC   C4A61974   3.328   2.946   7.164
 4854POPC   C1B61975   3.930   2.540   6.270
 4854POPC   C2B61976   3.846   2.548   6.745
 4854POPC   C3B61977   3.705   2.604   7.174
 4854POPC   C4B61978   3.886   2.518   7.630
 4855POPC   NC361979  22.661  12.869   5.541
 4855POPC   PO461980  23.151  12.715   5.337
 4855POPC   GL161981  23.102  12.896   5.810
 4855POPC   GL261982  22.958  13.245   5.816
 4855POPC   C1A61983  23.025  13.062   6.282
 4855POPC   D2A61984  22.973  13.190   6.729
 4855POPC   C3A61985  23.005  12.796   6.939
 4855POPC   C4A61986  22.839  12.554   7.288
 4855POPC   C1B61987  22.578  13.250   6.144
 4855POPC   C2B61988  22.494  13.338   6.593
 4855POPC   C3B61989  22.540  13.312   7.031
 4855POPC   C4B61990  22.805  13.077   7.300
 4856POPC   NC361991  43.340  14.139   5.558
 4856POPC   PO461992  42.928  14.705   5.415
 4856POPC   GL161993  42.965  14.429   5.789
 4856POPC   GL261994  42.757  14.122   5.767
 4856POPC   C1A61995  42.969  14.440   6.264
 4856POPC   D2A61996  42.719  14.616   6.625
 4856POPC   C3A61997  42.936  14.534   7.007
 4856POPC   C4A61998  43.313  14.298   7.145
 4856POPC   C1B61999  42.665  14.027   6.246
 4856POPC   C2B62000  42.921  14.078   6.676
 4856POPC   C3B62001  42.890  14.025   7.154
 4856POPC   C4B62002  42.722  14.030   7.603
 4857POPC   NC362003  39.500  27.463   5.347
 4857POPC   PO462004  39.224  28.080   5.303
 4857POPC   GL162005  39.144  27.798   5.675
 4857POPC   GL262006  39.005  27.448   5.596
 4857POPC   C1A62007  39.354  27.588   6.045
 4857POPC   D2A62008  39.535  27.607   6.483
 4857POPC   C3A62009  39.207  27.595   6.804
 4857POPC   C4A62010  39.168  27.797   7.212
 4857POPC   C1B62011  38.958  27.220   6.008
 4857POPC   C2B62012  39.152  27.212   6.427
 4857POPC   C3B62013  39.043  27.074   6.851
 4857POPC   C4B62014  39.131  27.291   7.232
 4858POPC   NC362015  36.305  20.137   5.357
 4858POPC   PO462016  36.086  19.536   5.426
 4858POPC   GL162017  36.391  19.719   5.680
 4858POPC   GL262018  36.388  19.402   5.837
 4858POPC   C1A62019  36.357  19.961   6.099
 4858POPC   D2A62020  36.315  19.845   6.556
 4858POPC   C3A62021  36.076  20.067   6.909
 4858POPC   C4A62022  36.096  19.972   7.369
 4858POPC   C1B62023  36.080  19.491   6.160
 4858POPC   C2B62024  36.014  19.416   6.609
 4858POPC   C3B62025  36.192  19.557   7.018
 4858POPC   C4B62026  36.521  19.326   7.221
 4859POPC   NC362027   2.617  31.796   5.472
 4859POPC   PO462028   3.189  31.407   5.374
 4859POPC   GL162029   2.902  31.370   5.735
 4859POPC   GL262030   2.920  31.674   5.844
 4859POPC   C1A62031   2.757  31.180   6.153
 4859POPC   D2A62032   2.530  31.095   6.571
 4859POPC   C3A62033   2.674  31.237   6.944
 4859POPC   C4A62034   2.579  31.310   7.356
 4859POPC   C1B62035   2.760  31.675   6.222
 4859POPC   C2B62036   2.679  31.636   6.609
 4859POPC   C3B62037   2.856  31.838   6.926
 4859POPC   C4B62038   2.798  31.797   7.344
 4860POPC   NC362039  18.999  34.444   5.349
 4860POPC   PO462040  19.449  34.771   5.638
 4860POPC   GL162041  19.423  34.405   5.874
 4860POPC   GL262042  19.075  34.417   5.855
 4860POPC   C1A62043  19.329  34.422   6.321
 4860POPC   D2A62044  19.168  34.777   6.564
 4860POPC   C3A62045  19.364  34.780   6.956
 4860POPC   C4A62046  19.172  34.713   7.345
 4860POPC   C1B62047  18.846  34.663   6.159
 4860POPC   C2B62048  18.676  34.607   6.569
 4860POPC   C3B62049  18.806  34.689   6.977
 4860POPC   C4B62050  18.681  34.501   7.358
 4861POPC   NC362051  42.692   8.712   5.155
 4861POPC   PO462052  42.424   9.155   5.560
 4861POPC   GL162053  42.386   8.876   5.875
 4861POPC   GL262054  42.362   8.560   5.744
 4861POPC   C1A62055  42.347   8.951   6.292
 4861POPC   D2A62056  42.463   9.084   6.732
 4861POPC   C3A62057  42.329   8.933   7.144
 4861POPC   C4A62058  42.086   8.937   7.521
 4861POPC   C1B62059  42.600   8.497   6.180
 4861POPC   C2B62060  42.744   8.726   6.516
 4861POPC   C3B62061  42.723   8.691   6.925
 4861POPC   C4B62062  42.679   8.583   7.316
 4862POPC   NC362063   7.675  25.060   5.468
 4862POPC   PO462064   7.173  25.459   5.486
 4862POPC   GL162065   7.289  25.194   5.804
 4862POPC   GL262066   7.575  25.400   5.864
 4862POPC   C1A62067   7.391  25.077   6.234
 4862POPC   D2A62068   7.273  25.296   6.610
 4862POPC   C3A62069   7.263  25.025   6.951
 4862POPC   C4A62070   7.542  24.955   7.273
 4862POPC   C1B62071   7.707  25.572   6.264
 4862POPC   C2B62072   7.739  25.556   6.703
 4862POPC   C3B62073   7.504  25.451   7.072
 4862POPC   C4B62074   7.675  25.477   7.484
 4863POPC   NC362075   0.481  20.141   5.456
 4863POPC   PO462076   0.179  20.778   5.382
 4863POPC   GL162077   0.274  20.780   5.801
 4863POPC   GL262078   0.608  20.699   5.748
 4863POPC   C1A62079   0.363  20.578   6.201
 4863POPC   D2A62080   0.549  20.385   6.564
 4863POPC   C3A62081   0.365  20.398   7.014
 4863POPC   C4A62082   0.442  20.720   7.373
 4863POPC   C1B62083   0.674  20.978   6.119
 4863POPC   C2B62084   0.512  20.909   6.566
 4863POPC   C3B62085   0.725  20.733   6.933
 4863POPC   C4B62086   0.968  20.765   7.292
 4864POPC   NC362087  25.745  28.442   5.163
 4864POPC   PO462088  26.230  28.031   5.234
 4864POPC   GL162089  26.160  28.129   5.685
 4864POPC   GL262090  25.862  28.339   5.698
 4864POPC   C1A62091  25.952  28.089   6.132
 4864POPC   D2A62092  25.943  28.282   6.509
 4864POPC   C3A62093  26.246  28.187   6.821
 4864POPC   C4A62094  26.022  28.160   7.192
 4864POPC   C1B62095  26.128  28.558   6.064
 4864POPC   C2B62096  26.044  28.769   6.493
 4864POPC   C3B62097  25.955  28.618   6.919
 4864POPC   C4B62098  26.285  28.697   7.196
 4865POPC   NC362099  14.712  22.956   5.440
 4865POPC   PO462100  14.129  22.892   5.379
 4865POPC   GL162101  14.350  22.777   5.776
 4865POPC   GL262102  14.216  22.513   5.993
 4865POPC   C1A62103  14.456  22.915   6.231
 4865POPC   D2A62104  14.640  22.965   6.671
 4865POPC   C3A62105  14.485  23.156   7.080
 4865POPC   C4A62106  14.529  23.230   7.547
 4865POPC   C1B62107  14.142  22.570   6.476
 4865POPC   C2B62108  14.204  22.637   6.957
 4865POPC   C3B62109  14.220  22.586   7.440
 4865POPC   C4B62110  14.504  22.734   7.806
 4866POPC   NC362111  17.419  27.282   5.383
 4866POPC   PO462112  17.272  27.934   5.437
 4866POPC   GL162113  17.536  27.686   5.702
 4866POPC   GL262114  17.285  27.489   5.819
 4866POPC   C1A62115  17.698  27.589   6.115
 4866POPC   D2A62116  17.493  27.497   6.495
 4866POPC   C3A62117  17.706  27.390   6.850
 4866POPC   C4A62118  17.649  27.707   7.083
 4866POPC   C1B62119  17.197  27.250   6.151
 4866POPC   C2B62120  17.162  27.127   6.552
 4866POPC   C3B62121  17.195  27.374   6.929
 4866POPC   C4B62122  17.451  27.256   7.288
 4867POPC   NC362123   4.441  36.592   5.441
 4867POPC   PO462124   4.305  37.215   5.433
 4867POPC   GL162125   4.254  37.042   5.804
 4867POPC   GL262126   4.132  37.315   5.927
 4867POPC   C1A62127   4.281  36.735   6.121
 4867POPC   D2A62128   4.434  36.758   6.537
 4867POPC   C3A62129   4.214  36.784   6.917
 4867POPC   C4A62130   4.152  36.538   7.317
 4867POPC   C1B62131   4.255  37.196   6.337
 4867POPC   C2B62132   3.954  37.188   6.671
 4867POPC   C3B62133   3.840  37.307   7.066
 4867POPC   C4B62134   4.079  37.107   7.336
 4868POPC   NC362135  10.934   4.783   5.553
 4868POPC   PO462136  11.642   4.682   5.471
 4868POPC   GL162137  11.411   4.954   5.772
 4868POPC   GL262138  11.225   5.250   5.623
 4868POPC   C1A62139  11.546   5.074   6.196
 4868POPC   D2A62140  11.682   4.921   6.596
 4868POPC   C3A62141  11.460   5.012   6.954
 4868POPC   C4A62142  11.099   4.757   7.112
 4868POPC   C1B62143  11.076   5.211   6.060
 4868POPC   C2B62144  11.135   5.141   6.515
 4868POPC   C3B62145  11.037   5.255   6.929
 4868POPC   C4B62146  11.221   5.285   7.358
 4869POPC   NC362147  13.860  19.244   5.440
 4869POPC   PO462148  13.185  19.190   5.588
 4869POPC   GL162149  13.489  19.182   5.952
 4869POPC   GL262150  13.869  19.214   5.948
 4869POPC   C1A62151  13.578  18.982   6.366
 4869POPC   D2A62152  13.567  18.723   6.729
 4869POPC   C3A62153  13.540  18.934   7.115
 4869POPC   C4A62154  13.202  19.150   7.283
 4869POPC   C1B62155  14.075  19.237   6.344
 4869POPC   C2B62156  13.941  19.093   6.755
 4869POPC   C3B62157  13.901  19.314   7.134
 4869POPC   C4B62158  13.638  19.259   7.520
 4870POPC   NC362159  32.561  28.870   5.584
 4870POPC   PO462160  33.160  29.232   5.589
 4870POPC   GL162161  32.967  29.028   5.915
 4870POPC   GL262162  32.628  29.208   5.970
 4870POPC   C1A62163  33.195  28.981   6.291
 4870POPC   D2A62164  33.039  29.159   6.656
 4870POPC   C3A62165  33.297  29.171   7.016
 4870POPC   C4A62166  33.213  29.210   7.429
 4870POPC   C1B62167  32.627  28.946   6.344
 4870POPC   C2B62168  32.591  28.885   6.795
 4870POPC   C3B62169  32.753  29.183   7.088
 4870POPC   C4B62170  32.520  29.478   7.330
 4871POPC   NC362171   9.372  27.337   5.138
 4871POPC   PO462172   8.923  27.816   5.391
 4871POPC   GL162173   9.088  27.646   5.736
 4871POPC   GL262174   9.338  27.410   5.657
 4871POPC   C1A62175   9.054  27.802   6.136
 4871POPC   D2A62176   8.961  27.619   6.502
 4871POPC   C3A62177   8.937  27.877   6.809
 4871POPC   C4A62178   8.962  27.727   7.215
 4871POPC   C1B62179   9.340  27.387   6.125
 4871POPC   C2B62180   9.380  27.307   6.573
 4871POPC   C3B62181   9.379  27.603   6.913
 4871POPC   C4B62182   9.420  27.565   7.356
 4872POPC   NC362183  12.581  34.567   4.947
 4872POPC   PO462184  12.955  34.694   5.490
 4872POPC   GL162185  12.866  34.431   5.783
 4872POPC   GL262186  12.710  34.753   5.953
 4872POPC   C1A62187  12.795  34.318   6.185
 4872POPC   D2A62188  12.866  34.619   6.511
 4872POPC   C3A62189  12.862  34.439   6.915
 4872POPC   C4A62190  12.567  34.279   7.194
 4872POPC   C1B62191  13.068  34.959   6.158
 4872POPC   C2B62192  13.111  35.098   6.601
 4872POPC   C3B62193  12.884  34.954   6.961
 4872POPC   C4B62194  12.819  34.734   7.348
 4873POPC   NC362195  20.488  31.018   5.315
 4873POPC   PO462196  20.807  30.452   5.590
 4873POPC   GL162197  20.567  30.655   5.890
 4873POPC   GL262198  20.587  31.026   5.827
 4873POPC   C1A62199  20.470  30.515   6.321
 4873POPC   D2A62200  20.712  30.302   6.641
 4873POPC   C3A62201  20.777  30.457   7.054
 4873POPC   C4A62202  20.719  30.295   7.472
 4873POPC   C1B62203  20.688  31.033   6.265
 4873POPC   C2B62204  20.724  30.843   6.668
 4873POPC   C3B62205  20.558  30.961   7.064
 4873POPC   C4B62206  20.541  31.167   7.494
 4874POPC   NC362207  24.211  24.560   4.980
 4874POPC   PO462208  23.611  24.565   5.352
 4874POPC   GL162209  23.753  24.383   5.753
 4874POPC   GL262210  23.974  24.093   5.804
 4874POPC   C1A62211  23.604  24.488   6.161
 4874POPC   D2A62212  23.450  24.747   6.470
 4874POPC   C3A62213  23.637  24.603   6.838
 4874POPC   C4A62214  23.648  24.682   7.259
 4874POPC   C1B62215  23.893  24.078   6.220
 4874POPC   C2B62216  23.647  24.111   6.579
 4874POPC   C3B62217  23.777  24.102   6.994
 4874POPC   C4B62218  23.449  24.181   7.203
 4875POPC   NC362219  16.964  10.294   5.469
 4875POPC   PO462220  16.648  10.854   5.417
 4875POPC   GL162221  16.719  10.775   5.858
 4875POPC   GL262222  16.531  11.048   5.979
 4875POPC   C1A62223  16.912  10.711   6.291
 4875POPC   D2A62224  16.969  10.832   6.734
 4875POPC   C3A62225  17.036  10.471   6.992
 4875POPC   C4A62226  16.806  10.204   7.210
 4875POPC   C1B62227  16.400  10.720   6.269
 4875POPC   C2B62228  16.568  10.523   6.643
 4875POPC   C3B62229  16.569  10.725   7.034
 4875POPC   C4B62230  16.432  10.523   7.360
 4876POPC   NC362231  44.007   4.446   5.154
 4876POPC   PO462232  43.922   3.778   5.333
 4876POPC   GL162233  44.075   4.176   5.637
 4876POPC   GL262234  44.027   4.561   5.672
 4876POPC   C1A62235  44.086   4.256   6.108
 4876POPC   D2A62236  44.016   4.111   6.559
 4876POPC   C3A62237  43.644   4.204   6.833
 4876POPC   C4A62238  43.953   4.208   7.155
 4876POPC   C1B62239  43.785   4.675   6.044
 4876POPC   C2B62240  43.743   4.519   6.424
 4876POPC   C3B62241  43.901   4.629   6.829
 4876POPC   C4B62242  43.654   4.619   7.202
 4877POPC   NC362243  16.383  42.068   5.522
 4877POPC   PO462244  15.914  42.484   5.241
 4877POPC   GL162245  15.885  42.372   5.717
 4877POPC   GL262246  15.657  42.065   5.751
 4877POPC   C1A62247  16.026  42.371   6.200
 4877POPC   D2A62248  16.308  42.521   6.589
 4877POPC   C3A62249  16.134  42.442   7.029
 4877POPC   C4A62250  15.693  42.605   7.155
 4877POPC   C1B62251  15.577  41.855   6.152
 4877POPC   C2B62252  15.593  42.044   6.570
 4877POPC   C3B62253  15.837  42.009   6.935
 4877POPC   C4B62254  15.919  41.986   7.343
 4878POPC   NC362255  42.603  17.982   5.665
 4878POPC   PO462256  42.949  18.407   5.276
 4878POPC   GL162257  42.876  18.409   5.734
 4878POPC   GL262258  43.048  18.107   5.868
 4878POPC   C1A62259  42.909  18.449   6.216
 4878POPC   D2A62260  43.075  18.245   6.619
 4878POPC   C3A62261  43.135  18.446   7.055
 4878POPC   C4A62262  42.968  18.454   7.505
 4878POPC   C1B62263  42.895  17.855   6.252
 4878POPC   C2B62264  43.144  17.720   6.615
 4878POPC   C3B62265  43.268  17.941   6.994
 4878POPC   C4B62266  43.300  18.082   7.430
 4879POPC   NC362267  27.135   2.691   5.362
 4879POPC   PO462268  26.648   2.351   5.631
 4879POPC   GL162269  26.776   2.769   5.763
 4879POPC   GL262270  27.094   2.647   5.856
 4879POPC   C1A62271  26.750   2.972   6.185
 4879POPC   D2A62272  26.561   2.785   6.541
 4879POPC   C3A62273  26.679   2.900   6.949
 4879POPC   C4A62274  26.816   3.021   7.342
 4879POPC   C1B62275  26.860   2.475   6.219
 4879POPC   C2B62276  26.684   2.287   6.553
 4879POPC   C3B62277  26.830   2.413   6.930
 4879POPC   C4B62278  26.938   2.491   7.336
 4880POPC   NC362279  30.140  37.179   5.438
 4880POPC   PO462280  29.681  36.687   5.151
 4880POPC   GL162281  29.712  36.880   5.597
 4880POPC   GL262282  30.028  36.846   5.812
 4880POPC   C1A62283  29.588  36.817   6.076
 4880POPC   D2A62284  29.666  36.707   6.553
 4880POPC   C3A62285  29.814  36.729   7.007
 4880POPC   C4A62286  30.118  36.967   7.298
 4880POPC   C1B62287  30.007  37.101   6.167
 4880POPC   C2B62288  29.771  37.200   6.530
 4880POPC   C3B62289  29.908  37.234   6.929
 4880POPC   C4B62290  29.661  37.176   7.289
 4881POPC   NC362291  38.586  15.740   5.585
 4881POPC   PO462292  38.340  15.192   5.182
 4881POPC   GL162293  38.450  15.234   5.669
 4881POPC   GL262294  38.492  14.924   5.829
 4881POPC   C1A62295  38.526  15.378   6.150
 4881POPC   D2A62296  38.677  15.186   6.560
 4881POPC   C3A62297  38.588  15.352   6.982
 4881POPC   C4A62298  38.404  15.281   7.366
 4881POPC   C1B62299  38.406  14.866   6.266
 4881POPC   C2B62300  38.439  14.763   6.710
 4881POPC   C3B62301  38.498  14.845   7.131
 4881POPC   C4B62302  38.175  14.826   7.467
 4882POPC   NC362303   7.052  24.690   5.384
 4882POPC   PO462304   6.536  24.244   5.483
 4882POPC   GL162305   6.747  24.221   5.858
 4882POPC   GL262306   6.780  24.577   5.821
 4882POPC   C1A62307   6.629  24.351   6.280
 4882POPC   D2A62308   6.441  24.701   6.500
 4882POPC   C3A62309   6.373  24.549   6.895
 4882POPC   C4A62310   6.635  24.258   7.131
 4882POPC   C1B62311   6.879  24.809   6.175
 4882POPC   C2B62312   6.933  24.876   6.593
 4882POPC   C3B62313   6.694  24.963   6.963
 4882POPC   C4B62314   6.508  24.744   7.337
 4883POPC   NC362315  25.160  18.595   5.481
 4883POPC   PO462316  25.543  18.055   5.620
 4883POPC   GL162317  25.237  18.224   5.876
 4883POPC   GL262318  24.990  18.499   5.941
 4883POPC   C1A62319  25.328  18.197   6.279
 4883POPC   D2A62320  25.292  18.369   6.661
 4883POPC   C3A62321  25.205  18.058   6.959
 4883POPC   C4A62322  25.281  18.288   7.289
 4883POPC   C1B62323  24.883  18.498   6.363
 4883POPC   C2B62324  24.774  18.601   6.779
 4883POPC   C3B62325  24.893  18.600   7.225
 4883POPC   C4B62326  25.009  18.438   7.702
 4884POPC   NC362327   7.598  19.521   5.464
 4884POPC   PO462328   7.661  20.245   5.631
 4884POPC   GL162329   7.480  19.929   5.887
 4884POPC   GL262330   7.333  19.590   5.875
 4884POPC   C1A62331   7.343  19.920   6.301
 4884POPC   D2A62332   7.347  20.181   6.684
 4884POPC   C3A62333   7.300  19.954   7.056
 4884POPC   C4A62334   7.668  19.991   7.300
 4884POPC   C1B62335   7.134  19.439   6.175
 4884POPC   C2B62336   7.278  19.428   6.568
 4884POPC   C3B62337   7.096  19.464   6.977
 4884POPC   C4B62338   7.108  19.618   7.405
 4885POPC   NC362339  24.765   2.327   5.416
 4885POPC   PO462340  24.195   1.959   5.452
 4885POPC   GL162341  24.464   1.795   5.766
 4885POPC   GL262342  24.584   2.089   5.831
 4885POPC   C1A62343  24.376   1.728   6.185
 4885POPC   D2A62344  24.193   1.892   6.531
 4885POPC   C3A62345  24.315   1.938   6.959
 4885POPC   C4A62346  24.316   2.342   7.174
 4885POPC   C1B62347  24.807   2.006   6.191
 4885POPC   C2B62348  24.716   2.035   6.588
 4885POPC   C3B62349  24.768   2.165   6.988
 4885POPC   C4B62350  24.699   2.113   7.414
 4886POPC   NC362351  42.427  30.897   5.317
 4886POPC   PO462352  42.242  30.206   5.262
 4886POPC   GL162353  42.347  30.385   5.679
 4886POPC   GL262354  42.475  30.718   5.783
 4886POPC   C1A62355  42.129  30.505   6.093
 4886POPC   D2A62356  42.181  30.454   6.545
 4886POPC   C3A62357  42.095  30.754   6.867
 4886POPC   C4A62358  42.067  30.712   7.320
 4886POPC   C1B62359  42.641  30.452   6.107
 4886POPC   C2B62360  42.700  30.466   6.538
 4886POPC   C3B62361  42.535  30.481   6.960
 4886POPC   C4B62362  42.572  30.730   7.298
 4887POPC   NC362363  39.546  26.666   5.316
 4887POPC   PO462364  40.137  27.018   5.452
 4887POPC   GL162365  39.971  26.819   5.831
 4887POPC   GL262366  40.285  26.742   5.897
 4887POPC   C1A62367  39.988  26.924   6.309
 4887POPC   D2A62368  39.852  27.221   6.643
 4887POPC   C3A62369  39.952  27.087   7.055
 4887POPC   C4A62370  39.695  26.778   7.277
 4887POPC   C1B62371  40.250  26.486   6.251
 4887POPC   C2B62372  40.188  26.587   6.676
 4887POPC   C3B62373  40.099  26.488   7.090
 4887POPC   C4B62374  40.197  26.798   7.405
 4888POPC   NC362375  16.975  18.622   5.325
 4888POPC   PO462376  16.724  18.004   5.365
 4888POPC   GL162377  16.614  18.295   5.711
 4888POPC   GL262378  16.887  18.120   5.845
 4888POPC   C1A62379  16.751  18.509   6.126
 4888POPC   D2A62380  16.840  18.452   6.553
 4888POPC   C3A62381  16.522  18.509   6.854
 4888POPC   C4A62382  16.568  18.385   7.274
 4888POPC   C1B62383  16.844  17.843   6.176
 4888POPC   C2B62384  16.975  17.938   6.576
 4888POPC   C3B62385  16.842  18.076   6.958
 4888POPC   C4B62386  17.033  18.090   7.350
 4889POPC   NC362387  18.647  30.459   5.653
 4889POPC   PO462388  18.118  30.044   5.406
 4889POPC   GL162389  18.184  29.942   5.821
 4889POPC   GL262390  18.494  29.791   5.838
 4889POPC   C1A62391  18.155  29.766   6.232
 4889POPC   D2A62392  18.391  29.692   6.590
 4889POPC   C3A62393  18.238  29.871   6.942
 4889POPC   C4A62394  18.149  29.865   7.372
 4889POPC   C1B62395  18.648  29.981   6.178
 4889POPC   C2B62396  18.623  30.167   6.556
 4889POPC   C3B62397  18.750  29.934   6.895
 4889POPC   C4B62398  18.643  29.922   7.273
 4890POPC   NC362399   8.814  29.622   5.496
 4890POPC   PO462400   8.896  30.308   5.516
 4890POPC   GL162401   8.931  30.000   5.861
 4890POPC   GL262402   9.229  29.783   5.794
 4890POPC   C1A62403   8.915  29.990   6.325
 4890POPC   D2A62404   9.258  30.192   6.598
 4890POPC   C3A62405   9.208  30.035   7.027
 4890POPC   C4A62406   8.884  29.795   7.280
 4890POPC   C1B62407   9.378  29.812   6.221
 4890POPC   C2B62408   9.368  29.540   6.589
 4890POPC   C3B62409   9.315  29.503   7.035
 4890POPC   C4B62410   9.274  29.536   7.491
 4891POPC   NC362411  18.428   3.838   5.282
 4891POPC   PO462412  17.876   3.467   5.612
 4891POPC   GL162413  18.195   3.643   5.825
 4891POPC   GL262414  18.426   3.411   5.660
 4891POPC   C1A62415  18.254   3.742   6.284
 4891POPC   D2A62416  18.493   3.745   6.679
 4891POPC   C3A62417  18.231   3.624   7.049
 4891POPC   C4A62418  18.610   3.712   7.306
 4891POPC   C1B62419  18.479   3.322   6.122
 4891POPC   C2B62420  18.342   3.272   6.598
 4891POPC   C3B62421  18.577   3.280   7.045
 4891POPC   C4B62422  18.398   3.285   7.485
 4892POPC   NC362423  40.169  24.817   5.228
 4892POPC   PO462424  39.986  25.405   5.426
 4892POPC   GL162425  40.028  25.381   5.839
 4892POPC   GL262426  39.993  25.021   5.926
 4892POPC   C1A62427  40.078  25.420   6.268
 4892POPC   D2A62428  39.987  25.212   6.635
 4892POPC   C3A62429  39.900  25.517   6.937
 4892POPC   C4A62430  39.999  25.560   7.344
 4892POPC   C1B62431  39.698  24.908   6.267
 4892POPC   C2B62432  39.555  24.911   6.692
 4892POPC   C3B62433  39.790  25.011   7.070
 4892POPC   C4B62434  40.209  24.832   7.184
 4893POPC   NC362435  40.998   0.754   5.024
 4893POPC   PO462436  41.175   0.319   5.485
 4893POPC   GL162437  40.955   0.500   5.809
 4893POPC   GL262438  41.252   0.645   5.952
 4893POPC   C1A62439  40.747   0.379   6.194
 4893POPC   D2A62440  40.542   0.369   6.589
 4893POPC   C3A62441  40.709   0.290   6.960
 4893POPC   C4A62442  40.598   0.551   7.283
 4893POPC   C1B62443  41.253   0.215   6.143
 4893POPC   C2B62444  41.065   0.105   6.536
 4893POPC   C3B62445  41.230   0.224   6.918
 4893POPC   C4B62446  41.118   0.384   7.288
 4894POPC   NC362447  33.004  42.911   5.519
 4894POPC   PO462448  33.280  43.478   5.474
 4894POPC   GL162449  33.110  43.334   5.819
 4894POPC   GL262450  32.767  43.346   5.745
 4894POPC   C1A62451  33.245  43.135   6.201
 4894POPC   D2A62452  33.353  42.912   6.559
 4894POPC   C3A62453  33.206  43.123   6.871
 4894POPC   C4A62454  33.244  43.051   7.279
 4894POPC   C1B62455  32.738  43.231   6.162
 4894POPC   C2B62456  32.820  42.995   6.521
 4894POPC   C3B62457  32.707  43.151   6.909
 4894POPC   C4B62458  32.737  43.077   7.300
 4895POPC   NC362459  10.814  14.899   5.321
 4895POPC   PO462460  10.518  15.435   5.551
 4895POPC   GL162461  10.290  15.130   5.796
 4895POPC   GL262462  10.455  15.283   6.072
 4895POPC   C1A62463  10.063  15.019   6.196
 4895POPC   D2A62464  10.308  15.125   6.556
 4895POPC   C3A62465  10.368  15.194   6.985
 4895POPC   C4A62466  10.621  14.955   7.273
 4895POPC   C1B62467  10.670  15.461   6.433
 4895POPC   C2B62468  10.743  15.710   6.811
 4895POPC   C3B62469  10.735  15.490   7.214
 4895POPC   C4B62470  10.416  15.348   7.479
 4896POPC   NC362471  23.439   2.802   5.330
 4896POPC   PO462472  23.997   3.095   5.237
 4896POPC   GL162473  23.751   3.035   5.671
 4896POPC   GL262474  23.757   2.673   5.774
 4896POPC   C1A62475  23.854   2.993   6.158
 4896POPC   D2A62476  23.929   2.811   6.553
 4896POPC   C3A62477  23.793   3.066   6.933
 4896POPC   C4A62478  23.895   3.041   7.384
 4896POPC   C1B62479  23.541   2.574   6.198
 4896POPC   C2B62480  23.477   2.603   6.658
 4896POPC   C3B62481  23.796   2.555   6.992
 4896POPC   C4B62482  23.588   2.505   7.350
 4897POPC   NC362483   7.573  37.022   5.313
 4897POPC   PO462484   6.997  36.656   5.457
 4897POPC   GL162485   7.094  36.919   5.833
 4897POPC   GL262486   7.470  36.949   5.804
 4897POPC   C1A62487   7.288  37.064   6.246
 4897POPC   D2A62488   7.622  37.110   6.515
 4897POPC   C3A62489   7.425  37.057   6.882
 4897POPC   C4A62490   7.350  37.274   7.245
 4897POPC   C1B62491   7.603  36.665   6.151
 4897POPC   C2B62492   7.576  36.594   6.598
 4897POPC   C3B62493   7.574  36.610   7.064
 4897POPC   C4B62494   7.698  36.941   7.303
 4898POPC   NC362495  42.395  32.526   5.483
 4898POPC   PO462496  42.057  32.043   5.328
 4898POPC   GL162497  42.132  32.150   5.748
 4898POPC   GL262498  42.487  32.101   5.815
 4898POPC   C1A62499  42.113  32.038   6.171
 4898POPC   D2A62500  42.105  31.818   6.538
 4898POPC   C3A62501  42.047  32.112   6.873
 4898POPC   C4A62502  42.434  32.211   6.973
 4898POPC   C1B62503  42.398  32.449   6.123
 4898POPC   C2B62504  42.436  32.535   6.549
 4898POPC   C3B62505  42.819  32.501   6.782
 4898POPC   C4B62506  42.931  32.121   6.971
 4899POPC   NC362507  32.772  30.590   5.439
 4899POPC   PO462508  33.407  30.813   5.574
 4899POPC   GL162509  33.096  30.696   5.823
 4899POPC   GL262510  32.851  30.957   5.812
 4899POPC   C1A62511  32.901  30.561   6.205
 4899POPC   D2A62512  32.915  30.833   6.601
 4899POPC   C3A62513  32.973  30.696   7.048
 4899POPC   C4A62514  32.913  30.508   7.478
 4899POPC   C1B62515  32.584  30.952   6.175
 4899POPC   C2B62516  32.436  31.020   6.586
 4899POPC   C3B62517  32.663  31.099   6.980
 4899POPC   C4B62518  32.621  30.904   7.389
 4900POPC   NC362519  41.735  14.836   5.411
 4900POPC   PO462520  41.419  15.535   5.404
 4900POPC   GL162521  41.566  15.370   5.770
 4900POPC   GL262522  41.467  15.011   5.802
 4900POPC   C1A62523  41.412  15.332   6.188
 4900POPC   D2A62524  41.300  15.100   6.543
 4900POPC   C3A62525  41.383  15.253   6.959
 4900POPC   C4A62526  41.405  15.095   7.407
 4900POPC   C1B62527  41.799  15.006   6.092
 4900POPC   C2B62528  41.764  14.814   6.487
 4900POPC   C3B62529  41.839  14.948   6.904
 4900POPC   C4B62530  41.756  14.754   7.277
 4901POPC   NC362531  23.599  35.282   5.436
 4901POPC   PO462532  24.186  35.312   5.623
 4901POPC   GL162533  23.823  35.353   5.914
 4901POPC   GL262534  23.470  35.566   5.848
 4901POPC   C1A62535  23.898  35.230   6.359
 4901POPC   D2A62536  23.685  34.964   6.694
 4901POPC   C3A62537  23.890  35.156   7.045
 4901POPC   C4A62538  23.983  35.595   7.170
 4901POPC   C1B62539  23.470  35.492   6.295
 4901POPC   C2B62540  23.673  35.516   6.726
 4901POPC   C3B62541  23.477  35.620   7.129
 4901POPC   C4B62542  23.311  35.500   7.537
 4902POPC   NC362543  13.874   8.404   5.661
 4902POPC   PO462544  13.465   7.899   5.361
 4902POPC   GL162545  13.569   7.952   5.808
 4902POPC   GL262546  13.846   7.726   5.799
 4902POPC   C1A62547  13.516   8.225   6.214
 4902POPC   D2A62548  13.457   8.582   6.544
 4902POPC   C3A62549  13.636   8.468   6.950
 4902POPC   C4A62550  13.468   8.074   7.105
 4902POPC   C1B62551  13.947   7.917   6.221
 4902POPC   C2B62552  13.769   7.998   6.666
 4902POPC   C3B62553  13.953   7.935   7.109
 4902POPC   C4B62554  13.905   7.908   7.614
 4903POPC   NC362555  38.773  35.587   5.292
 4903POPC   PO462556  39.032  35.058   5.422
 4903POPC   GL162557  39.061  35.273   5.816
 4903POPC   GL262558  38.842  35.520   5.828
 4903POPC   C1A62559  39.367  35.435   6.158
 4903POPC   D2A62560  39.473  35.763   6.470
 4903POPC   C3A62561  39.356  35.726   6.916
 4903POPC   C4A62562  39.408  35.609   7.364
 4903POPC   C1B62563  38.872  35.378   6.275
 4903POPC   C2B62564  39.158  35.332   6.637
 4903POPC   C3B62565  39.210  35.215   7.084
 4903POPC   C4B62566  38.921  35.242   7.450
 4904POPC   NC362567  34.336   4.203   5.140
 4904POPC   PO462568  34.883   3.996   5.427
 4904POPC   GL162569  34.637   4.209   5.762
 4904POPC   GL262570  34.313   4.387   5.747
 4904POPC   C1A62571  34.577   4.246   6.209
 4904POPC   D2A62572  34.633   4.077   6.605
 4904POPC   C3A62573  34.592   4.365   6.900
 4904POPC   C4A62574  34.572   4.321   7.300
 4904POPC   C1B62575  34.125   4.469   6.149
 4904POPC   C2B62576  34.155   4.249   6.547
 4904POPC   C3B62577  34.217   4.048   6.951
 4904POPC   C4B62578  34.079   4.203   7.381
 4905POPC   NC362579  19.661  19.388   5.680
 4905POPC   PO462580  19.660  19.840   5.146
 4905POPC   GL162581  19.574  19.887   5.630
 4905POPC   GL262582  19.894  19.861   5.807
 4905POPC   C1A62583  19.517  19.822   6.147
 4905POPC   D2A62584  19.772  19.887   6.538
 4905POPC   C3A62585  19.635  19.805   6.945
 4905POPC   C4A62586  19.623  19.830   7.359
 4905POPC   C1B62587  19.984  19.572   6.206
 4905POPC   C2B62588  20.236  19.592   6.576
 4905POPC   C3B62589  20.145  19.867   6.889
 4905POPC   C4B62590  20.136  19.666   7.234
 4906POPC   NC362591   8.554   3.488   5.481
 4906POPC   PO462592   7.907   3.454   5.329
 4906POPC   GL162593   8.129   3.480   5.741
 4906POPC   GL262594   7.915   3.410   5.908
 4906POPC   C1A62595   8.340   3.403   6.196
 4906POPC   D2A62596   8.486   3.738   6.444
 4906POPC   C3A62597   8.289   3.762   6.861
 4906POPC   C4A62598   8.375   3.788   7.307
 4906POPC   C1B62599   7.876   3.622   6.222
 4906POPC   C2B62600   7.938   3.503   6.578
 4906POPC   C3B62601   7.810   3.607   6.953
 4906POPC   C4B62602   7.926   3.546   7.299
 4907POPC   NC362603   0.207   3.838   5.525
 4907POPC   PO462604   0.180   4.416   5.185
 4907POPC   GL162605   0.302   4.366   5.675
 4907POPC   GL262606   0.523   4.168   5.761
 4907POPC   C1A62607   0.188   4.388   6.155
 4907POPC   D2A62608  44.932   4.493   6.550
 4907POPC   C3A62609   0.014   4.265   6.903
 4907POPC   C4A62610   0.328   4.358   7.208
 4907POPC   C1B62611   0.706   4.435   6.090
 4907POPC   C2B62612   0.870   4.437   6.519
 4907POPC   C3B62613   0.766   4.244   6.921
 4907POPC   C4B62614   0.701   4.035   7.330
 4908POPC   NC362615  37.520  17.631   5.491
 4908POPC   PO462616  38.178  17.357   5.507
 4908POPC   GL162617  37.915  17.451   5.893
 4908POPC   GL262618  37.539  17.410   5.930
 4908POPC   C1A62619  37.789  17.619   6.326
 4908POPC   D2A62620  37.728  17.832   6.734
 4908POPC   C3A62621  37.777  17.494   7.033
 4908POPC   C4A62622  38.083  17.368   7.325
 4908POPC   C1B62623  37.374  17.829   6.090
 4908POPC   C2B62624  37.239  17.870   6.491
 4908POPC   C3B62625  37.090  17.863   6.896
 4908POPC   C4B62626  37.375  17.745   7.220
 4909POPC   NC362627  21.379  39.527   5.374
 4909POPC   PO462628  21.073  40.163   5.457
 4909POPC   GL162629  21.347  40.010   5.804
 4909POPC   GL262630  21.141  39.719   5.813
 4909POPC   C1A62631  21.480  40.124   6.278
 4909POPC   D2A62632  21.600  39.960   6.720
 4909POPC   C3A62633  21.460  40.177   7.143
 4909POPC   C4A62634  21.413  40.177   7.635
 4909POPC   C1B62635  21.031  39.918   6.191
 4909POPC   C2B62636  21.150  39.732   6.569
 4909POPC   C3B62637  21.110  39.841   6.983
 4909POPC   C4B62638  21.337  39.714   7.353
 4910POPC   NC362639  37.073  35.414   5.320
 4910POPC   PO462640  36.489  35.097   5.446
 4910POPC   GL162641  36.821  35.202   5.753
 4910POPC   GL262642  36.880  35.549   5.807
 4910POPC   C1A62643  37.034  35.152   6.160
 4910POPC   D2A62644  36.989  34.918   6.534
 4910POPC   C3A62645  37.026  35.054   6.965
 4910POPC   C4A62646  36.846  35.195   7.354
 4910POPC   C1B62647  36.817  35.618   6.250
 4910POPC   C2B62648  36.733  35.376   6.636
 4910POPC   C3B62649  36.915  35.560   7.003
 4910POPC   C4B62650  36.854  35.754   7.393
 4911POPC   NC362651  29.357  27.547   5.438
 4911POPC   PO462652  28.658  27.468   5.268
 4911POPC   GL162653  28.923  27.386   5.643
 4911POPC   GL262654  28.977  27.750   5.726
 4911POPC   C1A62655  29.197  27.375   6.052
 4911POPC   D2A62656  29.446  27.680   6.318
 4911POPC   C3A62657  29.411  27.635   6.772
 4911POPC   C4A62658  29.179  27.758   7.154
 4911POPC   C1B62659  28.960  27.819   6.149
 4911POPC   C2B62660  28.903  27.555   6.520
 4911POPC   C3B62661  28.744  27.750   6.885
 4911POPC   C4B62662  28.655  28.047   7.214
 4912POPC   NC362663  12.257  33.324   5.574
 4912POPC   PO462664  12.018  32.737   5.408
 4912POPC   GL162665  11.958  32.843   5.847
 4912POPC   GL262666  11.787  33.144   5.878
 4912POPC   C1A62667  12.190  33.051   6.195
 4912POPC   D2A62668  12.202  33.257   6.600
 4912POPC   C3A62669  12.201  32.987   6.968
 4912POPC   C4A62670  12.156  33.097   7.372
 4912POPC   C1B62671  11.716  33.182   6.327
 4912POPC   C2B62672  11.738  32.930   6.703
 4912POPC   C3B62673  11.705  33.058   7.134
 4912POPC   C4B62674  11.678  33.189   7.574
 4913POPC   NC362675  11.339  41.219   5.208
 4913POPC   PO462676  10.937  41.652   5.474
 4913POPC   GL162677  11.096  41.745   5.881
 4913POPC   GL262678  11.445  41.905   5.789
 4913POPC   C1A62679  11.011  41.593   6.309
 4913POPC   D2A62680  11.062  41.377   6.688
 4913POPC   C3A62681  11.225  41.575   7.061
 4913POPC   C4A62682  11.538  41.480   7.369
 4913POPC   C1B62683  11.492  41.680   6.184
 4913POPC   C2B62684  11.412  41.759   6.596
 4913POPC   C3B62685  11.668  41.831   6.917
 4913POPC   C4B62686  11.925  41.783   7.235
 4914POPC   NC362687  16.010  16.438   5.144
 4914POPC   PO462688  15.712  16.935   5.586
 4914POPC   GL162689  15.835  16.877   5.964
 4914POPC   GL262690  16.035  16.626   5.883
 4914POPC   C1A62691  15.843  16.946   6.406
 4914POPC   D2A62692  16.202  16.841   6.684
 4914POPC   C3A62693  16.136  16.921   7.099
 4914POPC   C4A62694  15.793  16.968   7.373
 4914POPC   C1B62695  15.963  16.441   6.253
 4914POPC   C2B62696  15.810  16.494   6.659
 4914POPC   C3B62697  15.775  16.551   7.089
 4914POPC   C4B62698  15.676  16.365   7.483
 4915POPC   NC362699  30.617  29.582   5.210
 4915POPC   PO462700  30.223  29.050   5.337
 4915POPC   GL162701  30.500  28.950   5.717
 4915POPC   GL262702  30.686  29.232   5.756
 4915POPC   C1A62703  30.746  28.949   6.156
 4915POPC   D2A62704  30.801  29.193   6.534
 4915POPC   C3A62705  30.765  29.014   6.932
 4915POPC   C4A62706  30.612  28.945   7.353
 4915POPC   C1B62707  30.383  29.283   6.171
 4915POPC   C2B62708  30.337  29.447   6.587
 4915POPC   C3B62709  30.284  29.239   6.985
 4915POPC   C4B62710  30.312  29.340   7.429
 4916POPC   NC362711  20.278  43.336   5.498
 4916POPC   PO462712  20.887  43.041   5.454
 4916POPC   GL162713  20.600  42.972   5.754
 4916POPC   GL262714  20.663  43.293   5.904
 4916POPC   C1A62715  20.587  42.754   6.142
 4916POPC   D2A62716  20.521  42.979   6.520
 4916POPC   C3A62717  20.641  42.838   6.915
 4916POPC   C4A62718  20.547  43.072   7.285
 4916POPC   C1B62719  20.953  43.097   6.240
 4916POPC   C2B62720  21.066  43.067   6.694
 4916POPC   C3B62721  21.037  43.101   7.147
 4916POPC   C4B62722  20.962  43.358   7.519
 4917POPC   NC362723  13.139  14.518   5.338
 4917POPC   PO462724  12.700  13.976   5.329
 4917POPC   GL162725  12.799  14.231   5.700
 4917POPC   GL262726  13.164  14.156   5.710
 4917POPC   C1A62727  12.646  14.440   6.122
 4917POPC   D2A62728  12.411  14.365   6.514
 4917POPC   C3A62729  12.642  14.373   6.868
 4917POPC   C4A62730  12.719  14.268   7.263
 4917POPC   C1B62731  13.161  14.383   6.097
 4917POPC   C2B62732  13.036  14.310   6.523
 4917POPC   C3B62733  13.062  14.079   6.941
 4917POPC   C4B62734  13.242  14.336   7.276
 4918POPC   NC362735   3.350  27.859   5.354
 4918POPC   PO462736   3.842  27.452   5.574
 4918POPC   GL162737   3.533  27.693   5.832
 4918POPC   GL262738   3.169  27.711   5.806
 4918POPC   C1A62739   3.399  27.529   6.225
 4918POPC   D2A62740   3.620  27.291   6.512
 4918POPC   C3A62741   3.679  27.521   6.864
 4918POPC   C4A62742   3.591  27.326   7.203
 4918POPC   C1B62743   3.095  27.950   6.203
 4918POPC   C2B62744   3.257  27.867   6.606
 4918POPC   C3B62745   3.108  27.898   6.999
 4918POPC   C4B62746   3.206  27.659   7.335
 4919POPC   NC362747  36.526  44.098   5.605
 4919POPC   PO462748  37.158  43.999   5.396
 4919POPC   GL162749  36.946  43.791   5.739
 4919POPC   GL262750  37.001  44.111   5.881
 4919POPC   C1A62751  36.877  43.724   6.184
 4919POPC   D2A62752  36.853  43.984   6.550
 4919POPC   C3A62753  36.933  43.706   6.894
 4919POPC   C4A62754  37.079  43.649   7.270
 4919POPC   C1B62755  37.306  44.098   6.207
 4919POPC   C2B62756  37.288  44.250   6.638
 4919POPC   C3B62757  37.209  44.309   7.090
 4919POPC   C4B62758  36.816  44.274   7.278
 4920POPC   NC362759  27.463   6.071   5.313
 4920POPC   PO462760  27.668   5.425   5.326
 4920POPC   GL162761  27.670   5.608   5.742
 4920POPC   GL262762  27.582   5.301   5.900
 4920POPC   C1A62763  27.507   5.898   6.079
 4920POPC   D2A62764  27.422   6.082   6.494
 4920POPC   C3A62765  27.534   5.948   6.915
 4920POPC   C4A62766  27.347   6.144   7.269
 4920POPC   C1B62767  27.699   5.473   6.294
 4920POPC   C2B62768  27.857   5.572   6.703
 4920POPC   C3B62769  27.631   5.469   7.073
 4920POPC   C4B62770  27.436   5.661   7.408
 4921POPC   NC362771  26.080  34.896   5.400
 4921POPC   PO462772  25.924  35.501   5.171
 4921POPC   GL162773  26.067  35.358   5.634
 4921POPC   GL262774  25.809  35.126   5.777
 4921POPC   C1A62775  26.222  35.396   6.107
 4921POPC   D2A62776  26.108  35.481   6.578
 4921POPC   C3A62777  26.237  35.412   7.024
 4921POPC   C4A62778  25.900  35.453   7.368
 4921POPC   C1B62779  25.847  35.042   6.193
 4921POPC   C2B62780  25.674  35.069   6.585
 4921POPC   C3B62781  25.851  35.072   6.973
 4921POPC   C4B62782  25.640  34.992   7.321
 4922POPC   NC362783  44.041  21.043   5.543
 4922POPC   PO462784  43.517  20.753   5.615
 4922POPC   GL162785  43.818  20.604   5.930
 4922POPC   GL262786  44.163  20.574   5.818
 4922POPC   C1A62787  43.816  20.598   6.425
 4922POPC   D2A62788  43.593  20.771   6.829
 4922POPC   C3A62789  43.511  20.546   7.250
 4922POPC   C4A62790  43.534  20.287   7.630
 4922POPC   C1B62791  44.180  20.890   6.184
 4922POPC   C2B62792  44.085  20.993   6.651
 4922POPC   C3B62793  44.055  20.723   7.039
 4922POPC   C4B62794  44.354  20.372   7.067
 4923POPC   NC362795  29.277  36.924   5.210
 4923POPC   PO462796  28.665  36.888   5.089
 4923POPC   GL162797  28.903  36.872   5.556
 4923POPC   GL262798  29.225  36.643   5.659
 4923POPC   C1A62799  29.132  37.061   5.951
 4923POPC   D2A62800  29.262  36.993   6.407
 4923POPC   C3A62801  29.009  36.973   6.776
 4923POPC   C4A62802  28.970  37.162   7.146
 4923POPC   C1B62803  29.049  36.585   6.085
 4923POPC   C2B62804  29.041  36.535   6.524
 4923POPC   C3B62805  29.318  36.521   6.868
 4923POPC   C4B62806  29.321  36.779   7.198
 4924POPC   NC362807  43.442  16.602   5.173
 4924POPC   PO462808  42.921  16.816   5.446
 4924POPC   GL162809  43.052  16.701   5.798
 4924POPC   GL262810  43.413  16.675   5.684
 4924POPC   C1A62811  42.903  16.837   6.198
 4924POPC   D2A62812  42.983  16.675   6.589
 4924POPC   C3A62813  42.864  16.835   6.987
 4924POPC   C4A62814  42.900  16.551   7.378
 4924POPC   C1B62815  43.454  16.840   6.091
 4924POPC   C2B62816  43.538  16.708   6.495
 4924POPC   C3B62817  43.373  16.644   6.905
 4924POPC   C4B62818  43.295  16.866   7.250
 4925POPC   NC362819   2.623  22.540   5.528
 4925POPC   PO462820   2.851  21.877   5.485
 4925POPC   GL162821   2.814  22.119   5.855
 4925POPC   GL262822   3.148  22.041   5.891
 4925POPC   C1A62823   2.720  22.214   6.312
 4925POPC   D2A62824   2.558  22.061   6.691
 4925POPC   C3A62825   2.798  22.071   7.082
 4925POPC   C4A62826   2.522  22.337   7.235
 4925POPC   C1B62827   3.072  21.843   6.229
 4925POPC   C2B62828   2.978  21.817   6.622
 4925POPC   C3B62829   2.981  21.606   6.970
 4925POPC   C4B62830   2.828  21.662   7.411
 4926POPC   NC362831  44.886  37.113   5.094
 4926POPC   PO462832  44.286  36.950   5.310
 4926POPC   GL162833  44.500  36.918   5.748
 4926POPC   GL262834  44.882  36.830   5.753
 4926POPC   C1A62835  44.578  36.720   6.181
 4926POPC   D2A62836  44.746  36.597   6.599
 4926POPC   C3A62837  44.465  36.747   6.950
 4926POPC   C4A62838  44.450  37.052   7.290
 4926POPC   C1B62839   0.022  37.002   6.144
 4926POPC   C2B62840  44.791  37.096   6.513
 4926POPC   C3B62841  44.817  37.173   6.935
 4926POPC   C4B62842  44.928  36.864   7.139
 4927POPC   NC362843  14.946  35.122   5.516
 4927POPC   PO462844  15.284  35.614   5.462
 4927POPC   GL162845  15.263  35.554   5.882
 4927POPC   GL262846  14.923  35.570   5.920
 4927POPC   C1A62847  15.294  35.743   6.310
 4927POPC   D2A62848  15.099  35.739   6.735
 4927POPC   C3A62849  15.362  35.564   7.064
 4927POPC   C4A62850  15.443  35.265   7.429
 4927POPC   C1B62851  14.883  35.443   6.341
 4927POPC   C2B62852  15.082  35.219   6.677
 4927POPC   C3B62853  14.986  35.212   7.079
 4927POPC   C4B62854  14.641  35.366   7.270
 4928POPC   NC362855  13.758   5.251   5.483
 4928POPC   PO462856  13.257   4.926   5.538
 4928POPC   GL162857  13.449   5.190   5.883
 4928POPC   GL262858  13.758   5.015   5.954
 4928POPC   C1A62859  13.696   5.386   6.268
 4928POPC   D2A62860  13.819   5.571   6.681
 4928POPC   C3A62861  13.725   5.382   7.123
 4928POPC   C4A62862  13.540   5.387   7.589
 4928POPC   C1B62863  13.437   4.962   6.341
 4928POPC   C2B62864  13.467   5.029   6.806
 4928POPC   C3B62865  13.417   4.984   7.264
 4928POPC   C4B62866  13.352   4.701   7.615
 4929POPC   NC362867  21.935  35.895   5.631
 4929POPC   PO462868  22.286  35.377   5.259
 4929POPC   GL162869  22.388  35.330   5.730
 4929POPC   GL262870  22.114  35.484   5.869
 4929POPC   C1A62871  22.279  35.130   6.185
 4929POPC   D2A62872  22.355  35.343   6.562
 4929POPC   C3A62873  22.577  35.253   6.918
 4929POPC   C4A62874  22.416  35.207   7.321
 4929POPC   C1B62875  22.094  35.699   6.278
 4929POPC   C2B62876  21.951  35.598   6.712
 4929POPC   C3B62877  22.034  35.283   6.985
 4929POPC   C4B62878  22.094  35.602   7.269
 4930POPC   NC362879   4.209  43.323   5.386
 4930POPC   PO462880   4.195  42.693   5.524
 4930POPC   GL162881   4.333  42.997   5.822
 4930POPC   GL262882   4.463  43.330   5.824
 4930POPC   C1A62883   4.202  43.137   6.240
 4930POPC   D2A62884   3.995  43.237   6.634
 4930POPC   C3A62885   4.119  42.981   6.970
 4930POPC   C4A62886   4.346  43.151   7.326
 4930POPC   C1B62887   4.565  43.509   6.195
 4930POPC   C2B62888   4.441  43.513   6.607
 4930POPC   C3B62889   4.627  43.406   6.976
 4930POPC   C4B62890   4.578  43.617   7.350
 4931POPC   NC362891  18.002  26.989   5.226
 4931POPC   PO462892  18.624  27.196   5.374
 4931POPC   GL162893  18.244  27.034   5.672
 4931POPC   GL262894  18.496  26.935   5.921
 4931POPC   C1A62895  18.028  26.791   6.041
 4931POPC   D2A62896  18.249  26.837   6.458
 4931POPC   C3A62897  18.174  26.641   6.892
 4931POPC   C4A62898  18.324  26.859   7.297
 4931POPC   C1B62899  18.641  27.164   6.259
 4931POPC   C2B62900  18.906  27.106   6.595
 4931POPC   C3B62901  18.767  27.134   7.021
 4931POPC   C4B62902  18.781  27.019   7.448
 4932POPC   NC362903   1.575  30.890   5.510
 4932POPC   PO462904   1.052  30.398   5.437
 4932POPC   GL162905   1.131  30.766   5.726
 4932POPC   GL262906   1.442  30.612   5.910
 4932POPC   C1A62907   1.144  30.927   6.180
 4932POPC   D2A62908   1.279  30.633   6.548
 4932POPC   C3A62909   1.110  30.637   6.970
 4932POPC   C4A62910   0.927  30.309   7.196
 4932POPC   C1B62911   1.644  30.852   6.237
 4932POPC   C2B62912   1.476  31.097   6.564
 4932POPC   C3B62913   1.561  30.901   6.971
 4932POPC   C4B62914   1.516  30.548   7.287
 4933POPC   NC362915  12.374  10.104   5.140
 4933POPC   PO462916  12.318   9.571   5.474
 4933POPC   GL162917  12.207   9.782   5.878
 4933POPC   GL262918  12.174  10.124   5.768
 4933POPC   C1A62919  12.114   9.618   6.327
 4933POPC   D2A62920  12.354   9.631   6.742
 4933POPC   C3A62921  12.097   9.724   7.114
 4933POPC   C4A62922  11.672   9.914   7.196
 4933POPC   C1B62923  12.023  10.124   6.208
 4933POPC   C2B62924  11.873  10.234   6.623
 4933POPC   C3B62925  12.028  10.231   7.041
 4933POPC   C4B62926  12.058  10.112   7.485
 4934POPC   NC362927  35.089  33.812   5.494
 4934POPC   PO462928  35.765  33.630   5.377
 4934POPC   GL162929  35.570  33.848   5.818
 4934POPC   GL262930  35.579  33.574   6.060
 4934POPC   C1A62931  35.327  34.009   6.218
 4934POPC   D2A62932  34.955  33.812   6.472
 4934POPC   C3A62933  34.924  33.748   6.941
 4934POPC   C4A62934  35.031  34.034   7.290
 4934POPC   C1B62935  35.740  33.458   6.422
 4934POPC   C2B62936  35.468  33.701   6.633
 4934POPC   C3B62937  35.444  33.934   6.967
 4934POPC   C4B62938  35.338  33.622   7.252
 4935POPC   NC362939  27.114  12.607   5.116
 4935POPC   PO462940  27.723  12.741   5.357
 4935POPC   GL162941  27.674  12.900   5.773
 4935POPC   GL262942  27.404  13.167   5.805
 4935POPC   C1A62943  27.567  12.827   6.208
 4935POPC   D2A62944  27.689  12.839   6.614
 4935POPC   C3A62945  28.041  12.629   6.761
 4935POPC   C4A62946  27.855  12.715   7.138
 4935POPC   C1B62947  27.243  13.214   6.197
 4935POPC   C2B62948  27.213  13.057   6.616
 4935POPC   C3B62949  27.357  12.898   7.021
 4935POPC   C4B62950  27.293  12.987   7.459
 4936POPC   NC362951   8.332  40.682   5.581
 4936POPC   PO462952   7.981  41.120   5.384
 4936POPC   GL162953   8.008  40.996   5.822
 4936POPC   GL262954   7.822  40.652   5.816
 4936POPC   C1A62955   8.319  41.039   6.189
 4936POPC   D2A62956   8.544  41.145   6.576
 4936POPC   C3A62957   8.438  40.988   7.000
 4936POPC   C4A62958   8.277  41.117   7.391
 4936POPC   C1B62959   7.931  40.717   6.246
 4936POPC   C2B62960   8.143  40.771   6.646
 4936POPC   C3B62961   8.086  40.609   7.095
 4936POPC   C4B62962   7.909  40.364   7.446
 4937POPC   NC362963   4.662  18.566   5.289
 4937POPC   PO462964   3.979  18.785   5.227
 4937POPC   GL162965   4.215  18.903   5.655
 4937POPC   GL262966   4.440  19.219   5.706
 4937POPC   C1A62967   4.237  19.006   6.129
 4937POPC   D2A62968   4.444  18.987   6.551
 4937POPC   C3A62969   4.111  19.020   6.869
 4937POPC   C4A62970   4.071  18.835   7.244
 4937POPC   C1B62971   4.557  19.391   6.133
 4937POPC   C2B62972   4.633  19.539   6.573
 4937POPC   C3B62973   4.515  19.352   6.951
 4937POPC   C4B62974   4.608  19.200   7.370
 4938POPC   NC362975   8.614  35.854   5.355
 4938POPC   PO462976   8.983  36.424   5.292
 4938POPC   GL162977   8.896  36.172   5.659
 4938POPC   GL262978   9.222  36.047   5.740
 4938POPC   C1A62979   8.906  36.019   6.115
 4938POPC   D2A62980   8.802  35.987   6.541
 4938POPC   C3A62981   8.958  36.194   6.893
 4938POPC   C4A62982   8.809  35.989   7.251
 4938POPC   C1B62983   9.401  35.995   6.217
 4938POPC   C2B62984   9.393  35.939   6.702
 4938POPC   C3B62985   9.314  35.902   7.190
 4938POPC   C4B62986   9.429  35.965   7.706
 4939POPC   NC362987  38.697  28.047   5.466
 4939POPC   PO462988  38.470  27.429   5.385
 4939POPC   GL162989  38.308  27.685   5.756
 4939POPC   GL262990  38.652  27.729   5.868
 4939POPC   C1A62991  38.139  27.515   6.180
 4939POPC   D2A62992  38.239  27.219   6.541
 4939POPC   C3A62993  38.167  27.405   6.992
 4939POPC   C4A62994  38.150  27.779   7.196
 4939POPC   C1B62995  38.866  27.664   6.265
 4939POPC   C2B62996  38.721  27.416   6.628
 4939POPC   C3B62997  38.665  27.386   7.074
 4939POPC   C4B62998  38.636  27.716   7.376
 4940POPC   NC362999   2.801   9.229   5.534
 4940POPC   PO463000   2.186   8.945   5.406
 4940POPC   GL163001   2.448   8.902   5.782
 4940POPC   GL263002   2.700   8.632   5.732
 4940POPC   C1A63003   2.639   9.112   6.163
 4940POPC   D2A63004   2.909   9.158   6.523
 4940POPC   C3A63005   2.690   9.171   6.920
 4940POPC   C4A63006   2.933   9.038   7.281
 4940POPC   C1B63007   2.977   8.716   6.109
 4940POPC   C2B63008   3.129   8.669   6.548
 4940POPC   C3B63009   2.905   8.710   6.904
 4940POPC   C4B63010   2.995   8.515   7.286
 4941POPC   NC363011  11.783  44.966   5.653
 4941POPC   PO463012  12.311  44.616   5.383
 4941POPC   GL163013  12.175  44.635   5.805
 4941POPC   GL263014  12.447  44.453   5.971
 4941POPC   C1A63015  11.865  44.591   6.182
 4941POPC   D2A63016  11.885  44.856   6.557
 4941POPC   C3A63017  11.938  44.752   6.993
 4941POPC   C4A63018  12.235  44.982   7.187
 4941POPC   C1B63019  12.338  44.720   6.293
 4941POPC   C2B63020  12.331  44.651   6.701
 4941POPC   C3B63021  12.519  44.580   7.058
 4941POPC   C4B63022  12.534  44.660   7.466
 4942POPC   NC363023   1.312  39.241   5.484
 4942POPC   PO463024   0.738  39.464   5.254
 4942POPC   GL163025   0.855  39.358   5.739
 4942POPC   GL263026   0.788  39.022   5.904
 4942POPC   C1A63027   1.125  39.410   6.170
 4942POPC   D2A63028   1.466  39.445   6.552
 4942POPC   C3A63029   1.349  39.564   7.013
 4942POPC   C4A63030   1.067  39.377   7.328
 4942POPC   C1B63031   1.193  38.911   6.127
 4942POPC   C2B63032   1.427  38.913   6.514
 4942POPC   C3B63033   1.311  39.067   6.913
 4942POPC   C4B63034   1.386  38.933   7.315
 4943POPC   NC363035  43.774  27.197   5.393
 4943POPC   PO463036  44.226  27.743   5.442
 4943POPC   GL163037  44.003  27.786   5.830
 4943POPC   GL263038  43.817  27.451   5.847
 4943POPC   C1A63039  43.995  27.685   6.281
 4943POPC   D2A63040  43.660  27.742   6.570
 4943POPC   C3A63041  43.813  27.733   6.975
 4943POPC   C4A63042  43.651  27.542   7.346
 4943POPC   C1B63043  43.848  27.205   6.244
 4943POPC   C2B63044  43.949  27.310   6.684
 4943POPC   C3B63045  44.038  27.214   7.124
 4943POPC   C4B63046  43.959  27.245   7.595
 4944POPC   NC363047  16.369   5.243   5.426
 4944POPC   PO463048  15.889   4.792   5.479
 4944POPC   GL163049  16.003   5.122   5.768
 4944POPC   GL263050  16.299   5.142   5.917
 4944POPC   C1A63051  15.889   5.165   6.209
 4944POPC   D2A63052  15.847   4.948   6.585
 4944POPC   C3A63053  15.621   5.160   6.872
 4944POPC   C4A63054  15.678   5.164   7.289
 4944POPC   C1B63055  16.305   5.430   6.260
 4944POPC   C2B63056  16.287   5.193   6.614
 4944POPC   C3B63057  16.112   5.083   7.007
 4944POPC   C4B63058  16.150   5.240   7.450
 4945POPC   NC363059  12.068  17.652   5.195
 4945POPC   PO463060  11.770  17.120   5.492
 4945POPC   GL163061  12.052  17.384   5.701
 4945POPC   GL263062  11.871  17.672   5.693
 4945POPC   C1A63063  12.327  17.349   6.092
 4945POPC   D2A63064  12.517  17.249   6.525
 4945POPC   C3A63065  12.381  17.400   6.950
 4945POPC   C4A63066  12.278  17.459   7.433
 4945POPC   C1B63067  11.821  17.561   6.135
 4945POPC   C2B63068  12.057  17.485   6.531
 4945POPC   C3B63069  11.995  17.702   6.926
 4945POPC   C4B63070  11.802  17.663   7.288
 4946POPC   NC363071   5.424   4.668   5.651
 4946POPC   PO463072   5.061   4.158   5.343
 4946POPC   GL163073   5.014   4.321   5.780
 4946POPC   GL263074   4.853   4.025   5.906
 4946POPC   C1A63075   5.167   4.315   6.224
 4946POPC   D2A63076   5.454   4.250   6.567
 4946POPC   C3A63077   5.240   4.423   6.908
 4946POPC   C4A63078   5.059   4.514   7.305
 4946POPC   C1B63079   4.800   3.935   6.336
 4946POPC   C2B63080   4.735   4.090   6.762
 4946POPC   C3B63081   4.981   4.033   7.130
 4946POPC   C4B63082   4.968   3.890   7.553
 4947POPC   NC363083  18.195   1.463   5.574
 4947POPC   PO463084  18.617   0.971   5.433
 4947POPC   GL163085  18.478   1.109   5.857
 4947POPC   GL263086  18.466   0.762   5.896
 4947POPC   C1A63087  18.181   1.298   6.233
 4947POPC   D2A63088  18.094   1.504   6.664
 4947POPC   C3A63089  18.217   1.414   7.124
 4947POPC   C4A63090  18.657   1.369   7.269
 4947POPC   C1B63091  18.304   0.811   6.300
 4947POPC   C2B63092  18.016   0.948   6.642
 4947POPC   C3B63093  18.092   0.928   7.070
 4947POPC   C4B63094  18.335   0.956   7.418
 4948POPC   NC363095  15.555  44.482   5.491
 4948POPC   PO463096  16.114  44.556   5.003
 4948POPC   GL163097  16.035  44.682   5.501
 4948POPC   GL263098  16.004  44.367   5.723
 4948POPC   C1A63099  15.839  44.774   5.976
 4948POPC   D2A63100  15.817  44.844   6.441
 4948POPC   C3A63101  15.634  44.777   6.868
 4948POPC   C4A63102  15.798  44.886   7.299
 4948POPC   C1B63103  16.067  44.277   6.190
 4948POPC   C2B63104  16.060  44.444   6.628
 4948POPC   C3B63105  15.956  44.428   7.083
 4948POPC   C4B63106  16.209  44.454   7.467
 4949POPC   NC363107  14.768  19.660   5.493
 4949POPC   PO463108  14.099  19.593   5.640
 4949POPC   GL163109  14.399  19.855   5.859
 4949POPC   GL263110  14.747  19.766   6.008
 4949POPC   C1A63111  14.377  20.057   6.273
 4949POPC   D2A63112  14.456  19.931   6.719
 4949POPC   C3A63113  14.087  19.882   6.981
 4949POPC   C4A63114  14.121  20.137   7.332
 4949POPC   C1B63115  14.462  19.561   6.331
 4949POPC   C2B63116  14.334  19.429   6.785
 4949POPC   C3B63117  14.404  19.560   7.225
 4949POPC   C4B63118  14.701  19.645   7.570
 4950POPC   NC363119  35.099  12.381   5.118
 4950POPC   PO463120  35.486  12.796   5.414
 4950POPC   GL163121  35.455  12.860   5.845
 4950POPC   GL263122  35.746  12.662   5.863
 4950POPC   C1A63123  35.350  12.886   6.292
 4950POPC   D2A63124  35.199  13.184   6.606
 4950POPC   C3A63125  35.360  13.158   7.021
 4950POPC   C4A63126  35.788  13.107   7.039
 4950POPC   C1B63127  35.752  12.572   6.245
 4950POPC   C2B63128  35.574  12.508   6.624
 4950POPC   C3B63129  35.461  12.678   6.982
 4950POPC   C4B63130  35.635  12.714   7.373
 4951POPC   NC363131  31.346  44.569   5.340
 4951POPC   PO463132  31.808   0.017   5.666
 4951POPC   GL163133  31.615  44.836   5.974
 4951POPC   GL263134  31.524  44.549   5.827
 4951POPC   C1A63135  31.493  44.895   6.360
 4951POPC   D2A63136  31.791  44.833   6.638
 4951POPC   C3A63137  31.616  44.812   7.002
 4951POPC   C4A63138  31.848  44.830   7.399
 4951POPC   C1B63139  31.626  44.393   6.266
 4951POPC   C2B63140  31.481  44.387   6.719
 4951POPC   C3B63141  31.577  44.336   7.178
 4951POPC   C4B63142  31.852  44.073   7.454
 4952POPC   NC363143   3.600  31.683   5.298
 4952POPC   PO463144   3.950  31.166   5.630
 4952POPC   GL163145   3.765  31.536   5.799
 4952POPC   GL263146   3.413  31.541   5.802
 4952POPC   C1A63147   3.677  31.438   6.231
 4952POPC   D2A63148   3.564  31.617   6.591
 4952POPC   C3A63149   3.701  31.382   6.911
 4952POPC   C4A63150   3.495  31.206   7.243
 4952POPC   C1B63151   3.264  31.739   6.194
 4952POPC   C2B63152   3.117  31.428   6.477
 4952POPC   C3B63153   3.162  31.426   6.902
 4952POPC   C4B63154   3.275  31.679   7.231
 4953POPC   NC363155  17.881  42.168   5.603
 4953POPC   PO463156  18.393  42.520   5.305
 4953POPC   GL163157  18.255  42.469   5.778
 4953POPC   GL263158  17.871  42.529   5.921
 4953POPC   C1A63159  18.341  42.289   6.223
 4953POPC   D2A63160  18.282  42.404   6.673
 4953POPC   C3A63161  18.285  42.133   7.054
 4953POPC   C4A63162  18.490  42.181   7.452
 4953POPC   C1B63163  17.853  42.435   6.344
 4953POPC   C2B63164  17.784  42.443   6.768
 4953POPC   C3B63165  18.017  42.568   7.116
 4953POPC   C4B63166  17.998  42.307   7.489
 4954POPC   NC363167  33.200   5.296   5.508
 4954POPC   PO463168  32.654   5.063   5.156
 4954POPC   GL163169  32.780   5.016   5.629
 4954POPC   GL263170  33.088   4.801   5.724
 4954POPC   C1A63171  32.911   5.158   6.084
 4954POPC   D2A63172  33.088   5.312   6.499
 4954POPC   C3A63173  32.965   5.239   6.948
 4954POPC   C4A63174  33.286   5.224   7.267
 4954POPC   C1B63175  33.132   4.714   6.195
 4954POPC   C2B63176  32.958   4.788   6.644
 4954POPC   C3B63177  33.173   4.753   7.067
 4954POPC   C4B63178  33.322   4.781   7.536
 4955POPC   NC363179   6.296  23.064   5.184
 4955POPC   PO463180   6.859  22.689   5.345
 4955POPC   GL163181   6.845  22.943   5.767
 4955POPC   GL263182   6.490  22.986   5.863
 4955POPC   C1A63183   6.875  23.127   6.224
 4955POPC   D2A63184   6.951  23.056   6.680
 4955POPC   C3A63185   6.785  23.309   7.015
 4955POPC   C4A63186   6.659  23.014   7.306
 4955POPC   C1B63187   6.404  22.936   6.311
 4955POPC   C2B63188   6.439  22.996   6.782
 4955POPC   C3B63189   6.300  22.692   7.119
 4955POPC   C4B63190   6.250  22.727   7.592
 4956POPC   NC363191  15.299  27.996   5.384
 4956POPC   PO463192  15.196  27.371   5.168
 4956POPC   GL163193  15.126  27.276   5.698
 4956POPC   GL263194  15.002  27.634   5.781
 4956POPC   C1A63195  15.272  27.392   6.153
 4956POPC   D2A63196  15.274  27.672   6.528
 4956POPC   C3A63197  15.246  27.561   6.946
 4956POPC   C4A63198  15.505  27.485   7.308
 4956POPC   C1B63199  14.872  27.767   6.214
 4956POPC   C2B63200  14.754  27.913   6.654
 4956POPC   C3B63201  14.809  27.765   7.089
 4956POPC   C4B63202  15.000  27.569   7.469
 4957POPC   NC363203  10.965  42.107   5.547
 4957POPC   PO463204  11.518  42.463   5.545
 4957POPC   GL163205  11.256  42.392   5.843
 4957POPC   GL263206  11.060  42.694   5.805
 4957POPC   C1A63207  11.229  42.128   6.229
 4957POPC   D2A63208  10.980  42.038   6.594
 4957POPC   C3A63209  11.218  42.087   6.962
 4957POPC   C4A63210  11.447  41.966   7.353
 4957POPC   C1B63211  11.284  42.656   6.249
 4957POPC   C2B63212  11.428  42.452   6.650
 4957POPC   C3B63213  11.304  42.593   7.073
 4957POPC   C4B63214  11.046  42.732   7.426
 4958POPC   NC363215  32.127  29.688   5.454
 4958POPC   PO463216  32.497  30.193   5.487
 4958POPC   GL163217  32.237  30.103   5.850
 4958POPC   GL263218  32.003  29.813   5.932
 4958POPC   C1A63219  32.292  29.975   6.306
 4958POPC   D2A63220  32.529  29.933   6.649
 4958POPC   C3A63221  32.322  29.762   6.951
 4958POPC   C4A63222  32.417  29.969   7.318
 4958POPC   C1B63223  31.862  30.211   6.164
 4958POPC   C2B63224  31.996  30.447   6.554
 4958POPC   C3B63225  32.093  30.234   6.960
 4958POPC   C4B63226  31.937  29.892   7.247
 4959POPC   NC363227  28.849   1.463   5.581
 4959POPC   PO463228  29.377   1.162   5.325
 4959POPC   GL163229  29.268   0.947   5.720
 4959POPC   GL263230  28.907   0.985   5.768
 4959POPC   C1A63231  29.199   1.055   6.172
 4959POPC   D2A63232  29.389   1.303   6.489
 4959POPC   C3A63233  29.217   1.338   6.900
 4959POPC   C4A63234  29.238   1.667   7.182
 4959POPC   C1B63235  28.667   1.034   6.173
 4959POPC   C2B63236  28.774   1.230   6.570
 4959POPC   C3B63237  28.713   1.447   6.956
 4959POPC   C4B63238  28.834   1.369   7.349
 4960POPC   NC363239  30.474  44.782   5.519
 4960POPC   PO463240  31.000  44.837   5.105
 4960POPC   GL163241  30.950  44.565   5.642
 4960POPC   GL263242  30.705  44.728   5.950
 4960POPC   C1A63243  31.125  44.529   6.127
 4960POPC   D2A63244  30.970  44.584   6.575
 4960POPC   C3A63245  31.091  44.551   7.033
 4960POPC   C4A63246  31.014  44.425   7.476
 4960POPC   C1B63247  30.588  44.395   6.189
 4960POPC   C2B63248  30.478  44.438   6.616
 4960POPC   C3B63249  30.574  44.719   6.922
 4960POPC   C4B63250  30.479  44.622   7.305
 4961POPC   NC363251  11.185  31.904   5.374
 4961POPC   PO463252  11.237  32.539   5.423
 4961POPC   GL163253  11.199  32.276   5.800
 4961POPC   GL263254  11.419  31.975   5.839
 4961POPC   C1A63255  11.181  32.325   6.245
 4961POPC   D2A63256  11.502  32.302   6.557
 4961POPC   C3A63257  11.366  32.205   7.006
 4961POPC   C4A63258  11.107  32.338   7.347
 4961POPC   C1B63259  11.288  31.820   6.240
 4961POPC   C2B63260  11.148  31.945   6.619
 4961POPC   C3B63261  11.029  31.782   7.000
 4961POPC   C4B63262  11.085  31.837   7.442
 4962POPC   NC363263  41.226  41.266   5.667
 4962POPC   PO463264  41.748  41.406   5.207
 4962POPC   GL163265  41.705  41.591   5.695
 4962POPC   GL263266  41.380  41.724   5.835
 4962POPC   C1A63267  41.664  41.584   6.209
 4962POPC   D2A63268  41.501  41.754   6.620
 4962POPC   C3A63269  41.678  41.610   6.970
 4962POPC   C4A63270  41.756  41.396   7.337
 4962POPC   C1B63271  41.180  41.784   6.233
 4962POPC   C2B63272  41.063  41.483   6.530
 4962POPC   C3B63273  41.176  41.508   6.965
 4962POPC   C4B63274  41.325  41.662   7.380
 4963POPC   NC363275  27.756   6.767   5.464
 4963POPC   PO463276  27.345   6.460   5.102
 4963POPC   GL163277  27.371   6.519   5.628
 4963POPC   GL263278  27.591   6.287   5.755
 4963POPC   C1A63279  27.400   6.691   6.057
 4963POPC   D2A63280  27.330   6.605   6.503
 4963POPC   C3A63281  27.509   6.919   6.785
 4963POPC   C4A63282  27.850   6.867   7.094
 4963POPC   C1B63283  27.794   6.362   6.132
 4963POPC   C2B63284  27.856   6.604   6.510
 4963POPC   C3B63285  27.680   6.432   6.883
 4963POPC   C4B63286  27.791   6.376   7.322
 4964POPC   NC363287  15.427  23.629   5.435
 4964POPC   PO463288  15.310  24.249   5.383
 4964POPC   GL163289  15.302  24.043   5.787
 4964POPC   GL263290  15.232  23.671   5.908
 4964POPC   C1A63291  15.341  24.067   6.237
 4964POPC   D2A63292  15.498  23.892   6.632
 4964POPC   C3A63293  15.237  23.756   7.000
 4964POPC   C4A63294  15.310  23.345   7.233
 4964POPC   C1B63295  15.166  23.550   6.383
 4964POPC   C2B63296  14.939  23.387   6.785
 4964POPC   C3B63297  14.825  23.524   7.220
 4964POPC   C4B63298  14.923  23.964   7.379
 4965POPC   NC363299  40.038  28.127   5.417
 4965POPC   PO463300  39.994  28.715   5.368
 4965POPC   GL163301  40.076  28.510   5.741
 4965POPC   GL263302  39.758  28.648   5.830
 4965POPC   C1A63303  40.068  28.287   6.139
 4965POPC   D2A63304  40.216  28.432   6.550
 4965POPC   C3A63305  40.102  28.215   6.936
 4965POPC   C4A63306  40.286  28.130   7.320
 4965POPC   C1B63307  39.629  28.570   6.244
 4965POPC   C2B63308  39.695  28.434   6.679
 4965POPC   C3B63309  39.675  28.436   7.146
 4965POPC   C4B63310  39.813  28.373   7.580
 4966POPC   NC363311   9.818  35.325   5.079
 4966POPC   PO463312   9.769  34.993   5.624
 4966POPC   GL163313   9.757  35.358   5.870
 4966POPC   GL263314   9.532  35.126   6.070
 4966POPC   C1A63315   9.677  35.564   6.275
 4966POPC   D2A63316   9.541  35.435   6.670
 4966POPC   C3A63317   9.771  35.619   6.986
 4966POPC   C4A63318   9.744  35.770   7.388
 4966POPC   C1B63319   9.963  35.101   6.260
 4966POPC   C2B63320  10.012  35.187   6.673
 4966POPC   C3B63321   9.791  35.116   7.056
 4966POPC   C4B63322   9.852  35.291   7.429
 4967POPC   NC363323  32.671   6.931   5.229
 4967POPC   PO463324  33.272   6.705   5.555
 4967POPC   GL163325  33.049   6.651   5.894
 4967POPC   GL263326  32.711   6.526   5.788
 4967POPC   C1A63327  33.196   6.707   6.318
 4967POPC   D2A63328  33.452   6.561   6.660
 4967POPC   C3A63329  33.194   6.704   6.972
 4967POPC   C4A63330  33.143   6.647   7.407
 4967POPC   C1B63331  32.666   6.747   6.211
 4967POPC   C2B63332  32.779   6.766   6.674
 4967POPC   C3B63333  32.700   6.654   7.133
 4967POPC   C4B63334  32.695   6.710   7.621
 4968POPC   NC363335  10.329  36.843   5.564
 4968POPC   PO463336  10.800  36.551   5.220
 4968POPC   GL163337  10.846  36.918   5.639
 4968POPC   GL263338  10.944  37.251   5.670
 4968POPC   C1A63339  10.712  36.966   6.161
 4968POPC   D2A63340  10.435  36.791   6.538
 4968POPC   C3A63341  10.506  36.734   6.991
 4968POPC   C4A63342  10.312  36.872   7.390
 4968POPC   C1B63343  11.011  37.393   6.083
 4968POPC   C2B63344  10.754  37.408   6.446
 4968POPC   C3B63345  10.654  37.210   6.808
 4968POPC   C4B63346  10.552  37.262   7.199
 4969POPC   NC363347  40.271  42.688   5.449
 4969POPC   PO463348  39.830  42.301   5.128
 4969POPC   GL163349  39.881  42.345   5.634
 4969POPC   GL263350  40.145  42.492   5.890
 4969POPC   C1A63351  39.819  42.155   6.075
 4969POPC   D2A63352  39.642  42.134   6.516
 4969POPC   C3A63353  39.819  42.398   6.830
 4969POPC   C4A63354  39.804  42.402   7.261
 4969POPC   C1B63355  40.331  42.230   6.243
 4969POPC   C2B63356  40.356  42.155   6.694
 4969POPC   C3B63357  40.411  42.371   7.073
 4969POPC   C4B63358  40.258  42.409   7.471
 4970POPC   NC363359   9.721   2.684   5.241
 4970POPC   PO463360  10.206   2.311   5.504
 4970POPC   GL163361   9.797   2.522   5.734
 4970POPC   GL263362   9.643   2.871   5.709
 4970POPC   C1A63363   9.649   2.671   6.174
 4970POPC   D2A63364   9.506   2.672   6.596
 4970POPC   C3A63365   9.818   2.755   6.922
 4970POPC   C4A63366   9.834   2.703   7.351
 4970POPC   C1B63367   9.372   3.062   6.035
 4970POPC   C2B63368   9.498   3.260   6.378
 4970POPC   C3B63369   9.519   3.156   6.802
 4970POPC   C4B63370   9.719   3.195   7.193
 4971POPC   NC363371   3.784  12.133   5.096
 4971POPC   PO463372   3.707  12.517   5.637
 4971POPC   GL163373   3.592  12.165   5.925
 4971POPC   GL263374   3.855  11.908   5.968
 4971POPC   C1A63375   3.397  12.175   6.298
 4971POPC   D2A63376   3.510  12.351   6.693
 4971POPC   C3A63377   3.573  12.143   7.094
 4971POPC   C4A63378   3.516  12.234   7.544
 4971POPC   C1B63379   3.655  11.750   6.297
 4971POPC   C2B63380   3.819  11.895   6.677
 4971POPC   C3B63381   3.983  11.840   7.072
 4971POPC   C4B63382   3.832  11.853   7.481
 4972POPC   NC363383  27.901   5.059   5.529
 4972POPC   PO463384  27.237   4.691   5.474
 4972POPC   GL163385  27.484   4.803   5.834
 4972POPC   GL263386  27.814   4.772   5.927
 4972POPC   C1A63387  27.392   4.949   6.271
 4972POPC   D2A63388  27.561   5.120   6.676
 4972POPC   C3A63389  27.573   4.952   7.099
 4972POPC   C4A63390  27.385   5.154   7.458
 4972POPC   C1B63391  27.894   4.991   6.288
 4972POPC   C2B63392  28.045   4.931   6.687
 4972POPC   C3B63393  28.051   5.180   7.027
 4972POPC   C4B63394  28.000   5.382   7.412
 4973POPC   NC363395  25.535  22.548   5.467
 4973POPC   PO463396  24.929  22.163   5.411
 4973POPC   GL163397  25.165  22.163   5.821
 4973POPC   GL263398  25.449  22.338   5.919
 4973POPC   C1A63399  25.018  22.097   6.259
 4973POPC   D2A63400  25.005  22.425   6.612
 4973POPC   C3A63401  25.076  22.281   7.063
 4973POPC   C4A63402  25.276  21.885   7.210
 4973POPC   C1B63403  25.511  22.210   6.332
 4973POPC   C2B63404  25.482  22.213   6.771
 4973POPC   C3B63405  25.720  22.199   7.147
 4973POPC   C4B63406  25.670  22.313   7.582
 4974POPC   NC363407   9.916  33.613   5.424
 4974POPC   PO463408   9.347  34.077   5.430
 4974POPC   GL163409   9.602  33.832   5.762
 4974POPC   GL263410   9.923  34.015   5.750
 4974POPC   C1A63411   9.821  33.735   6.183
 4974POPC   D2A63412   9.755  34.026   6.541
 4974POPC   C3A63413   9.657  33.935   6.972
 4974POPC   C4A63414   9.797  33.553   7.201
 4974POPC   C1B63415  10.183  34.085   6.107
 4974POPC   C2B63416  10.317  33.927   6.495
 4974POPC   C3B63417  10.087  33.718   6.806
 4974POPC   C4B63418  10.132  33.951   7.207
 4975POPC   NC363419  29.208   6.129   5.316
 4975POPC   PO463420  29.298   5.598   5.773
 4975POPC   GL163421  28.920   5.699   5.938
 4975POPC   GL263422  28.890   6.000   5.727
 4975POPC   C1A63423  28.888   5.736   6.393
 4975POPC   D2A63424  29.275   5.847   6.642
 4975POPC   C3A63425  29.305   5.753   7.078
 4975POPC   C4A63426  29.323   5.875   7.493
 4975POPC   C1B63427  28.994   6.185   6.137
 4975POPC   C2B63428  28.897   6.239   6.551
 4975POPC   C3B63429  29.081   6.232   6.946
 4975POPC   C4B63430  28.909   6.090   7.314
 4976POPC   NC363431   1.442  13.048   5.339
 4976POPC   PO463432   2.075  12.996   5.457
 4976POPC   GL163433   2.137  12.848   5.828
 4976POPC   GL263434   2.455  12.885   5.844
 4976POPC   C1A63435   2.046  12.981   6.220
 4976POPC   D2A63436   1.856  12.793   6.565
 4976POPC   C3A63437   2.006  12.926   6.945
 4976POPC   C4A63438   1.860  12.787   7.331
 4976POPC   C1B63439   2.469  12.687   6.237
 4976POPC   C2B63440   2.369  12.648   6.672
 4976POPC   C3B63441   2.515  12.884   7.034
 4976POPC   C4B63442   2.282  13.113   7.327
 4977POPC   NC363443  31.505  14.410   5.265
 4977POPC   PO463444  32.064  14.841   5.488
 4977POPC   GL163445  31.795  14.526   5.762
 4977POPC   GL263446  31.456  14.370   5.777
 4977POPC   C1A63447  31.816  14.292   6.162
 4977POPC   D2A63448  31.604  14.428   6.536
 4977POPC   C3A63449  31.677  14.324   6.959
 4977POPC   C4A63450  31.549  14.519   7.347
 4977POPC   C1B63451  31.299  14.151   6.178
 4977POPC   C2B63452  31.168  14.134   6.641
 4977POPC   C3B63453  31.218  14.056   7.074
 4977POPC   C4B63454  31.105  14.137   7.496
 4978POPC   NC363455  21.266  23.325   5.352
 4978POPC   PO463456  21.590  23.880   5.294
 4978POPC   GL163457  21.508  23.793   5.717
 4978POPC   GL263458  21.743  24.019   5.878
 4978POPC   C1A63459  21.290  23.535   6.026
 4978POPC   D2A63460  21.225  23.370   6.449
 4978POPC   C3A63461  21.197  23.517   6.895
 4978POPC   C4A63462  21.392  23.588   7.288
 4978POPC   C1B63463  21.506  23.966   6.230
 4978POPC   C2B63464  21.206  23.913   6.551
 4978POPC   C3B63465  21.404  24.021   6.938
 4978POPC   C4B63466  21.591  24.045   7.348
 4979POPC   NC363467   7.035  36.189   5.443
 4979POPC   PO463468   7.562  35.831   5.439
 4979POPC   GL163469   7.342  36.058   5.826
 4979POPC   GL263470   7.252  36.429   5.854
 4979POPC   C1A63471   7.410  36.177   6.269
 4979POPC   D2A63472   7.755  36.098   6.524
 4979POPC   C3A63473   7.588  36.134   6.905
 4979POPC   C4A63474   7.802  36.163   7.269
 4979POPC   C1B63475   7.105  36.600   6.273
 4979POPC   C2B63476   7.113  36.431   6.712
 4979POPC   C3B63477   7.039  36.636   7.100
 4979POPC   C4B63478   7.226  36.759   7.487
 4980POPC   NC363479  38.367  23.774   5.344
 4980POPC   PO463480  38.771  23.274   5.475
 4980POPC   GL163481  38.485  23.581   5.796
 4980POPC   GL263482  38.589  23.949   5.790
 4980POPC   C1A63483  38.287  23.661   6.232
 4980POPC   D2A63484  38.237  23.897   6.667
 4980POPC   C3A63485  38.078  23.733   7.093
 4980POPC   C4A63486  38.402  23.547   7.374
 4980POPC   C1B63487  38.504  24.132   6.221
 4980POPC   C2B63488  38.686  24.145   6.671
 4980POPC   C3B63489  38.540  23.998   7.122
 4980POPC   C4B63490  38.458  23.981   7.618
 4981POPC   NC363491   6.748  33.965   5.261
 4981POPC   PO463492   6.934  33.399   5.488
 4981POPC   GL163493   6.704  33.485   5.891
 4981POPC   GL263494   6.630  33.880   5.931
 4981POPC   C1A63495   6.602  33.576   6.342
 4981POPC   D2A63496   6.750  33.967   6.553
 4981POPC   C3A63497   6.896  33.893   6.961
 4981POPC   C4A63498   6.762  33.567   7.241
 4981POPC   C1B63499   6.310  33.994   6.281
 4981POPC   C2B63500   6.155  33.720   6.607
 4981POPC   C3B63501   6.383  33.821   6.951
 4981POPC   C4B63502   6.465  34.232   7.096
 4982POPC   NC363503  34.813  19.325   5.385
 4982POPC   PO463504  34.491  18.775   5.607
 4982POPC   GL163505  34.615  19.032   5.893
 4982POPC   GL263506  34.490  19.329   5.887
 4982POPC   C1A63507  34.752  19.159   6.286
 4982POPC   D2A63508  34.645  19.354   6.652
 4982POPC   C3A63509  34.804  19.241   7.045
 4982POPC   C4A63510  34.775  18.867   7.235
 4982POPC   C1B63511  34.193  19.368   6.203
 4982POPC   C2B63512  34.119  19.556   6.605
 4982POPC   C3B63513  34.293  19.401   6.997
 4982POPC   C4B63514  34.352  19.190   7.337
 4983POPC   NC363515  43.659  37.809   5.347
 4983POPC   PO463516  43.031  37.616   5.401
 4983POPC   GL163517  43.027  37.797   5.799
 4983POPC   GL263518  43.260  38.051   5.647
 4983POPC   C1A63519  42.927  37.692   6.260
 4983POPC   D2A63520  43.185  37.563   6.639
 4983POPC   C3A63521  43.006  37.647   7.004
 4983POPC   C4A63522  43.052  37.584   7.427
 4983POPC   C1B63523  43.258  38.171   6.059
 4983POPC   C2B63524  43.251  38.046   6.464
 4983POPC   C3B63525  43.257  38.076   6.902
 4983POPC   C4B63526  43.194  38.066   7.353
 4984POPC   NC363527  22.471   2.432   5.731
 4984POPC   PO463528  21.969   1.905   5.546
 4984POPC   GL163529  22.115   2.081   5.864
 4984POPC   GL263530  21.826   2.330   5.893
 4984POPC   C1A63531  22.338   1.947   6.249
 4984POPC   D2A63532  22.477   1.825   6.670
 4984POPC   C3A63533  22.284   1.971   7.054
 4984POPC   C4A63534  22.472   2.382   7.137
 4984POPC   C1B63535  21.842   2.105   6.273
 4984POPC   C2B63536  21.921   1.853   6.629
 4984POPC   C3B63537  21.755   1.899   7.040
 4984POPC   C4B63538  21.893   1.991   7.473
 4985POPC   NC363539  44.821  44.096   5.454
 4985POPC   PO463540  44.418  43.533   5.580
 4985POPC   GL163541  44.701  43.761   5.840
 4985POPC   GL263542   0.044  43.698   5.751
 4985POPC   C1A63543  44.703  43.956   6.257
 4985POPC   D2A63544  44.777  44.139   6.665
 4985POPC   C3A63545  44.553  43.923   6.974
 4985POPC   C4A63546  44.708  44.026   7.359
 4985POPC   C1B63547   0.186  43.792   6.186
 4985POPC   C2B63548   0.027  43.706   6.606
 4985POPC   C3B63549   0.039  43.773   7.044
 4985POPC   C4B63550  44.915  43.576   7.410
 4986POPC   NC363551  12.639  24.963   5.041
 4986POPC   PO463552  13.064  25.318   5.359
 4986POPC   GL163553  12.974  25.291   5.834
 4986POPC   GL263554  12.777  25.013   5.907
 4986POPC   C1A63555  13.117  25.202   6.281
 4986POPC   D2A63556  12.970  25.046   6.723
 4986POPC   C3A63557  13.075  25.200   7.147
 4986POPC   C4A63558  12.830  25.325   7.539
 4986POPC   C1B63559  12.763  24.806   6.304
 4986POPC   C2B63560  12.770  24.559   6.681
 4986POPC   C3B63561  12.797  24.650   7.100
 4986POPC   C4B63562  13.140  24.723   7.396
 4987POPC   NC363563  25.448  33.468   5.417
 4987POPC   PO463564  24.884  33.767   5.107
 4987POPC   GL163565  25.059  33.971   5.617
 4987POPC   GL263566  24.801  34.093   5.891
 4987POPC   C1A63567  25.239  33.942   6.123
 4987POPC   D2A63568  25.247  33.814   6.620
 4987POPC   C3A63569  25.283  33.662   7.100
 4987POPC   C4A63570  25.398  33.340   7.449
 4987POPC   C1B63571  24.772  33.799   6.262
 4987POPC   C2B63572  24.734  33.753   6.702
 4987POPC   C3B63573  24.788  33.516   7.091
 4987POPC   C4B63574  24.904  33.179   7.360
 4988POPC   NC363575  37.198  15.230   5.447
 4988POPC   PO463576  36.550  15.366   5.441
 4988POPC   GL163577  36.799  15.192   5.803
 4988POPC   GL263578  37.103  15.331   5.930
 4988POPC   C1A63579  36.876  14.940   6.198
 4988POPC   D2A63580  37.093  14.833   6.584
 4988POPC   C3A63581  36.835  14.908   6.967
 4988POPC   C4A63582  36.868  15.073   7.398
 4988POPC   C1B63583  37.075  15.397   6.343
 4988POPC   C2B63584  36.964  15.341   6.727
 4988POPC   C3B63585  37.032  15.489   7.142
 4988POPC   C4B63586  37.142  15.455   7.578
 4989POPC   NC363587  32.491  20.171   5.447
 4989POPC   PO463588  31.980  19.817   5.645
 4989POPC   GL163589  32.271  19.856   5.919
 4989POPC   GL263590  31.973  19.998   6.118
 4989POPC   C1A63591  32.516  20.088   6.214
 4989POPC   D2A63592  32.374  20.202   6.654
 4989POPC   C3A63593  32.036  20.025   6.889
 4989POPC   C4A63594  32.243  19.919   7.245
 4989POPC   C1B63595  32.165  19.791   6.450
 4989POPC   C2B63596  32.269  19.536   6.796
 4989POPC   C3B63597  32.204  19.415   7.195
 4989POPC   C4B63598  32.034  19.532   7.538
 4990POPC   NC363599   1.570  31.761   5.578
 4990POPC   PO463600   1.285  31.202   5.353
 4990POPC   GL163601   1.372  31.250   5.805
 4990POPC   GL263602   1.037  31.351   5.864
 4990POPC   C1A63603   1.415  31.511   6.172
 4990POPC   D2A63604   1.381  31.660   6.573
 4990POPC   C3A63605   1.658  31.467   6.839
 4990POPC   C4A63606   1.514  31.310   7.250
 4990POPC   C1B63607   0.939  31.396   6.328
 4990POPC   C2B63608   0.879  31.525   6.769
 4990POPC   C3B63609   0.869  31.409   7.219
 4990POPC   C4B63610   0.892  31.172   7.618
 4991POPC   NC363611  33.966  43.114   5.337
 4991POPC   PO463612  33.632  42.544   5.530
 4991POPC   GL163613  33.508  42.828   5.858
 4991POPC   GL263614  33.614  43.188   5.791
 4991POPC   C1A63615  33.774  42.917   6.236
 4991POPC   D2A63616  34.193  43.040   6.440
 4991POPC   C3A63617  34.110  43.053   6.882
 4991POPC   C4A63618  33.675  43.006   6.989
 4991POPC   C1B63619  33.661  43.438   6.212
 4991POPC   C2B63620  33.495  43.503   6.660
 4991POPC   C3B63621  33.527  43.457   7.128
 4991POPC   C4B63622  33.943  43.318   7.335
 4992POPC   NC363623  18.052  31.231   5.433
 4992POPC   PO463624  18.484  31.808   5.323
 4992POPC   GL163625  18.261  31.641   5.691
 4992POPC   GL263626  18.458  31.356   5.754
 4992POPC   C1A63627  18.197  31.510   6.151
 4992POPC   D2A63628  18.396  31.460   6.578
 4992POPC   C3A63629  18.177  31.424   6.978
 4992POPC   C4A63630  18.219  31.691   7.318
 4992POPC   C1B63631  18.596  31.145   6.136
 4992POPC   C2B63632  18.799  31.143   6.520
 4992POPC   C3B63633  18.707  31.211   6.932
 4992POPC   C4B63634  18.553  31.302   7.332
 4993POPC   NC363635  25.796  11.541   5.262
 4993POPC   PO463636  25.195  11.451   5.075
 4993POPC   GL163637  25.365  11.414   5.580
 4993POPC   GL263638  25.172  11.107   5.783
 4993POPC   C1A63639  25.491  11.376   6.044
 4993POPC   D2A63640  25.507  11.427   6.500
 4993POPC   C3A63641  25.207  11.421   6.858
 4993POPC   C4A63642  25.108  11.476   7.291
 4993POPC   C1B63643  24.960  10.937   6.194
 4993POPC   C2B63644  24.938  11.033   6.660
 4993POPC   C3B63645  24.967  11.013   7.139
 4993POPC   C4B63646  24.881  10.839   7.601
 4994POPC   NC363647  30.855  10.235   5.384
 4994POPC   PO463648  30.454   9.698   5.405
 4994POPC   GL163649  30.594   9.677   5.790
 4994POPC   GL263650  30.894   9.504   5.650
 4994POPC   C1A63651  30.623   9.878   6.219
 4994POPC   D2A63652  30.400  10.007   6.598
 4994POPC   C3A63653  30.279  10.077   7.039
 4994POPC   C4A63654  30.571   9.919   7.355
 4994POPC   C1B63655  30.965   9.530   6.087
 4994POPC   C2B63656  31.046   9.605   6.523
 4994POPC   C3B63657  30.853   9.679   6.917
 4994POPC   C4B63658  30.940   9.373   7.212
 4995POPC   NC363659  12.245   7.569   5.486
 4995POPC   PO463660  12.069   6.896   5.494
 4995POPC   GL163661  12.039   7.235   5.820
 4995POPC   GL263662  12.371   7.368   5.942
 4995POPC   C1A63663  11.909   7.375   6.231
 4995POPC   D2A63664  12.223   7.211   6.466
 4995POPC   C3A63665  12.138   7.191   6.900
 4995POPC   C4A63666  11.832   7.153   7.242
 4995POPC   C1B63667  12.326   7.701   6.255
 4995POPC   C2B63668  12.085   7.686   6.623
 4995POPC   C3B63669  11.916   7.738   6.988
 4995POPC   C4B63670  12.169   7.557   7.283
 4996POPC   NC363671   2.135  42.954   5.433
 4996POPC   PO463672   1.875  43.532   5.495
 4996POPC   GL163673   2.086  43.296   5.822
 4996POPC   GL263674   1.836  43.065   5.848
 4996POPC   C1A63675   2.268  43.355   6.249
 4996POPC   D2A63676   2.310  43.096   6.637
 4996POPC   C3A63677   2.159  43.293   6.954
 4996POPC   C4A63678   2.174  43.349   7.347
 4996POPC   C1B63679   1.750  43.281   6.204
 4996POPC   C2B63680   1.791  43.164   6.621
 4996POPC   C3B63681   1.684  43.161   7.075
 4996POPC   C4B63682   1.784  42.969   7.489
 4997POPC   NC363683  24.336  19.271   5.436
 4997POPC   PO463684  24.933  18.988   5.500
 4997POPC   GL163685  24.682  18.928   5.884
 4997POPC   GL263686  24.389  19.161   5.933
 4997POPC   C1A63687  24.576  18.912   6.329
 4997POPC   D2A63688  24.669  19.141   6.694
 4997POPC   C3A63689  24.579  18.970   7.081
 4997POPC   C4A63690  24.408  18.998   7.464
 4997POPC   C1B63691  24.252  19.536   6.208
 4997POPC   C2B63692  24.331  19.593   6.665
 4997POPC   C3B63693  24.263  19.367   7.079
 4997POPC   C4B63694  24.151  19.409   7.555
 4998POPC   NC363695  32.386  44.587   5.451
 4998POPC   PO463696  31.802  44.564   5.374
 4998POPC   GL163697  32.047  44.578   5.822
 4998POPC   GL263698  32.364  44.823   5.891
 4998POPC   C1A63699  32.094  44.651   6.267
 4998POPC   D2A63700  32.281  44.524   6.641
 4998POPC   C3A63701  32.005  44.487   6.943
 4998POPC   C4A63702  32.149  44.448   7.308
 4998POPC   C1B63703  32.472   0.065   6.267
 4998POPC   C2B63704  32.379   0.042   6.691
 4998POPC   C3B63705  32.392  44.828   7.067
 4998POPC   C4B63706  32.369  44.902   7.510
 4999POPC   NC363707  25.111  21.749   5.524
 4999POPC   PO463708  25.477  21.184   5.410
 4999POPC   GL163709  25.389  21.394   5.822
 4999POPC   GL263710  25.531  21.740   5.884
 4999POPC   C1A63711  25.098  21.476   6.183
 4999POPC   D2A63712  25.070  21.695   6.589
 4999POPC   C3A63713  25.166  21.454   6.949
 4999POPC   C4A63714  24.901  21.400   7.275
 4999POPC   C1B63715  25.530  21.708   6.341
 4999POPC   C2B63716  25.608  21.733   6.809
 4999POPC   C3B63717  25.731  21.649   7.220
 4999POPC   C4B63718  25.415  21.416   7.432
 5000POPC   NC363719   0.613  13.002   5.623
 5000POPC   PO463720   1.142  12.710   5.237
 5000POPC   GL163721   1.093  12.807   5.702
 5000POPC   GL263722   1.338  13.065   5.829
 5000POPC   C1A63723   0.971  12.944   6.149
 5000POPC   D2A63724   1.015  13.015   6.587
 5000POPC   C3A63725   1.220  12.703   6.830
 5000POPC   C4A63726   1.178  12.753   7.265
 5000POPC   C1B63727   1.497  13.019   6.238
 5000POPC   C2B63728   1.506  13.191   6.638
 5000POPC   C3B63729   1.527  13.066   7.064
 5000POPC   C4B63730   1.480  13.094   7.518
 5001POPC   NC363731  25.849   9.380   5.008
 5001POPC   PO463732  25.909   9.895   5.410
 5001POPC   GL163733  26.202   9.639   5.689
 5001POPC   GL263734  26.300   9.815   5.987
 5001POPC   C1A63735  26.189   9.341   6.071
 5001POPC   D2A63736  25.890   9.427   6.425
 5001POPC   C3A63737  26.077   9.544   6.819
 5001POPC   C4A63738  26.055   9.544   7.251
 5001POPC   C1B63739  25.924   9.986   6.154
 5001POPC   C2B63740  25.869   9.961   6.592
 5001POPC   C3B63741  25.936  10.007   7.021
 5001POPC   C4B63742  26.312  10.037   7.262
 5002POPC   NC363743   9.539  19.763   5.497
 5002POPC   PO463744   9.380  20.328   5.851
 5002POPC   GL163745   9.616  19.979   5.970
 5002POPC   GL263746   9.879  19.763   5.868
 5002POPC   C1A63747   9.525  19.651   6.290
 5002POPC   D2A63748   9.646  19.729   6.734
 5002POPC   C3A63749   9.508  19.803   7.185
 5002POPC   C4A63750   9.562  19.807   7.615
 5002POPC   C1B63751   9.966  19.912   6.319
 5002POPC   C2B63752  10.030  20.127   6.705
 5002POPC   C3B63753   9.984  19.942   7.082
 5002POPC   C4B63754  10.177  19.712   7.388
 5003POPC   NC363755  44.920   3.014   5.334
 5003POPC   PO463756  44.626   2.383   5.226
 5003POPC   GL163757  44.810   2.563   5.670
 5003POPC   GL263758  44.666   2.918   5.795
 5003POPC   C1A63759  44.845   2.599   6.136
 5003POPC   D2A63760  44.705   2.854   6.511
 5003POPC   C3A63761  44.731   2.579   6.889
 5003POPC   C4A63762  44.885   2.521   7.342
 5003POPC   C1B63763  44.347   3.181   6.072
 5003POPC   C2B63764  44.219   3.113   6.515
 5003POPC   C3B63765  44.368   2.970   6.908
 5003POPC   C4B63766  44.704   2.977   7.204
 5004POPC   NC363767  32.564  32.588   5.563
 5004POPC   PO463768  31.946  32.332   5.487
 5004POPC   GL163769  32.128  32.149   5.830
 5004POPC   GL263770  32.428  32.258   5.941
 5004POPC   C1A63771  32.066  32.344   6.257
 5004POPC   D2A63772  32.245  32.499   6.608
 5004POPC   C3A63773  31.958  32.429   6.895
 5004POPC   C4A63774  32.130  32.346   7.281
 5004POPC   C1B63775  32.606  32.506   6.240
 5004POPC   C2B63776  32.754  32.439   6.668
 5004POPC   C3B63777  32.551  32.529   7.058
 5004POPC   C4B63778  32.670  32.318   7.425
 5005POPC   NC363779   7.084   3.804   5.442
 5005POPC   PO463780   6.585   3.341   5.304
 5005POPC   GL163781   6.710   3.518   5.695
 5005POPC   GL263782   6.918   3.305   5.835
 5005POPC   C1A63783   6.567   3.626   6.119
 5005POPC   D2A63784   6.615   3.316   6.448
 5005POPC   C3A63785   6.620   3.383   6.912
 5005POPC   C4A63786   6.581   3.734   7.206
 5005POPC   C1B63787   7.053   3.531   6.195
 5005POPC   C2B63788   6.969   3.811   6.497
 5005POPC   C3B63789   7.016   3.739   6.926
 5005POPC   C4B63790   7.006   3.447   7.278
 5006POPC   NC363791  34.467  35.437   5.484
 5006POPC   PO463792  34.784  34.902   5.272
 5006POPC   GL163793  34.731  35.048   5.722
 5006POPC   GL263794  34.903  35.340   5.734
 5006POPC   C1A63795  34.509  35.226   6.106
 5006POPC   D2A63796  34.381  35.203   6.543
 5006POPC   C3A63797  34.339  35.608   6.769
 5006POPC   C4A63798  34.302  35.491   7.170
 5006POPC   C1B63799  34.981  35.423   6.156
 5006POPC   C2B63800  34.786  35.502   6.523
 5006POPC   C3B63801  34.740  35.305   6.914
 5006POPC   C4B63802  34.720  35.276   7.345
 5007POPC   NC363803   9.506   9.475   5.160
 5007POPC   PO463804  10.002   9.808   5.469
 5007POPC   GL163805   9.820   9.574   5.796
 5007POPC   GL263806   9.521   9.378   5.679
 5007POPC   C1A63807   9.732   9.793   6.185
 5007POPC   D2A63808   9.535   9.925   6.569
 5007POPC   C3A63809   9.825   9.888   6.909
 5007POPC   C4A63810   9.726   9.812   7.349
 5007POPC   C1B63811   9.545   9.320   6.151
 5007POPC   C2B63812   9.717   9.431   6.580
 5007POPC   C3B63813   9.562   9.460   7.014
 5007POPC   C4B63814   9.469   9.355   7.457
 5008POPC   NC363815  31.334   1.983   5.350
 5008POPC   PO463816  31.901   2.161   5.624
 5008POPC   GL163817  31.572   2.050   5.862
 5008POPC   GL263818  31.332   1.777   5.819
 5008POPC   C1A63819  31.670   2.158   6.290
 5008POPC   D2A63820  31.695   2.197   6.696
 5008POPC   C3A63821  31.627   1.876   6.977
 5008POPC   C4A63822  31.580   2.058   7.357
 5008POPC   C1B63823  31.448   1.722   6.241
 5008POPC   C2B63824  31.272   1.923   6.620
 5008POPC   C3B63825  31.139   2.132   7.002
 5008POPC   C4B63826  30.724   2.319   7.076
 5009POPC   NC363827   7.201  20.261   5.562
 5009POPC   PO463828   7.685  20.593   5.191
 5009POPC   GL163829   7.459  20.757   5.688
 5009POPC   GL263830   7.405  20.480   5.973
 5009POPC   C1A63831   7.489  20.902   6.202
 5009POPC   D2A63832   7.667  20.616   6.539
 5009POPC   C3A63833   7.593  20.663   7.017
 5009POPC   C4A63834   7.623  20.493   7.468
 5009POPC   C1B63835   7.179  20.504   6.338
 5009POPC   C2B63836   7.180  20.713   6.697
 5009POPC   C3B63837   6.937  20.805   7.013
 5009POPC   C4B63838   7.144  20.571   7.317
 5010POPC   NC363839   0.040  35.563   5.434
 5010POPC   PO463840  44.417  35.392   5.329
 5010POPC   GL163841  44.485  35.473   5.789
 5010POPC   GL263842  44.767  35.311   5.860
 5010POPC   C1A63843  44.600  35.654   6.241
 5010POPC   D2A63844  44.739  35.527   6.689
 5010POPC   C3A63845  44.486  35.612   7.087
 5010POPC   C4A63846  44.429  35.402   7.532
 5010POPC   C1B63847  44.663  35.152   6.292
 5010POPC   C2B63848  44.748  35.026   6.729
 5010POPC   C3B63849  44.664  35.136   7.151
 5010POPC   C4B63850  44.503  34.898   7.506
 5011POPC   NC363851  42.348  28.605   5.396
 5011POPC   PO463852  42.121  28.043   5.726
 5011POPC   GL163853  42.256  28.300   6.001
 5011POPC   GL263854  42.277  28.646   5.918
 5011POPC   C1A63855  42.109  28.210   6.395
 5011POPC   D2A63856  42.464  28.186   6.623
 5011POPC   C3A63857  42.342  28.453   6.936
 5011POPC   C4A63858  42.168  28.318   7.339
 5011POPC   C1B63859  42.355  28.658   6.379
 5011POPC   C2B63860  42.664  28.792   6.679
 5011POPC   C3B63861  42.752  28.708   7.099
 5011POPC   C4B63862  42.652  28.484   7.453
 5012POPC   NC363863  39.866  11.375   5.215
 5012POPC   PO463864  40.197  10.779   5.223
 5012POPC   GL163865  40.015  11.005   5.623
 5012POPC   GL263866  39.716  10.860   5.809
 5012POPC   C1A63867  40.195  11.213   6.001
 5012POPC   D2A63868  40.459  11.138   6.401
 5012POPC   C3A63869  40.279  11.092   6.844
 5012POPC   C4A63870  40.094  11.209   7.252
 5012POPC   C1B63871  39.759  11.027   6.217
 5012POPC   C2B63872  39.993  11.342   6.461
 5012POPC   C3B63873  40.047  11.537   6.859
 5012POPC   C4B63874  39.816  11.633   7.235
 5013POPC   NC363875  21.886  18.733   5.432
 5013POPC   PO463876  21.959  19.396   5.356
 5013POPC   GL163877  22.070  19.103   5.728
 5013POPC   GL263878  22.392  18.891   5.741
 5013POPC   C1A63879  22.094  19.192   6.176
 5013POPC   D2A63880  22.066  19.523   6.517
 5013POPC   C3A63881  21.979  19.413   6.968
 5013POPC   C4A63882  22.178  19.217   7.351
 5013POPC   C1B63883  22.218  18.694   6.119
 5013POPC   C2B63884  22.125  18.851   6.543
 5013POPC   C3B63885  22.253  18.956   6.930
 5013POPC   C4B63886  22.115  18.699   7.226
 5014POPC   NC363887  28.940  28.410   5.214
 5014POPC   PO463888  29.403  28.016   5.462
 5014POPC   GL163889  29.141  28.294   5.797
 5014POPC   GL263890  29.292  28.631   5.942
 5014POPC   C1A63891  29.002  28.323   6.257
 5014POPC   D2A63892  29.108  28.026   6.588
 5014POPC   C3A63893  29.012  28.241   6.918
 5014POPC   C4A63894  29.172  28.289   7.292
 5014POPC   C1B63895  29.000  28.832   6.228
 5014POPC   C2B63896  29.015  28.714   6.680
 5014POPC   C3B63897  28.982  28.894   7.106
 5014POPC   C4B63898  29.085  28.728   7.517
 5015POPC   NC363899   0.520  36.433   5.075
 5015POPC   PO463900   0.374  35.801   5.227
 5015POPC   GL163901   0.343  35.958   5.683
 5015POPC   GL263902   0.121  36.255   5.718
 5015POPC   C1A63903   0.490  36.210   6.087
 5015POPC   D2A63904   0.721  36.197   6.493
 5015POPC   C3A63905   0.507  36.125   6.873
 5015POPC   C4A63906   0.553  36.282   7.226
 5015POPC   C1B63907   0.027  36.459   6.116
 5015POPC   C2B63908   0.204  36.360   6.525
 5015POPC   C3B63909   0.077  36.389   6.966
 5015POPC   C4B63910   0.167  36.540   7.405
 5016POPC   NC363911  13.970  29.059   5.425
 5016POPC   PO463912  13.336  29.397   5.377
 5016POPC   GL163913  13.551  29.267   5.767
 5016POPC   GL263914  13.902  29.386   5.832
 5016POPC   C1A63915  13.415  29.075   6.170
 5016POPC   D2A63916  13.632  28.957   6.554
 5016POPC   C3A63917  13.469  29.072   6.970
 5016POPC   C4A63918  13.673  28.905   7.315
 5016POPC   C1B63919  13.830  29.359   6.300
 5016POPC   C2B63920  13.814  29.415   6.744
 5016POPC   C3B63921  13.799  29.407   7.185
 5016POPC   C4B63922  13.902  29.449   7.641
 5017POPC   NC363923   0.738   3.064   5.213
 5017POPC   PO463924   0.258   2.646   5.441
 5017POPC   GL163925   0.281   2.819   5.856
 5017POPC   GL263926   0.637   2.770   5.818
 5017POPC   C1A63927   0.294   2.791   6.342
 5017POPC   D2A63928   0.176   2.934   6.794
 5017POPC   C3A63929   0.331   2.677   7.161
 5017POPC   C4A63930   0.343   2.272   7.435
 5017POPC   C1B63931   0.680   3.057   6.128
 5017POPC   C2B63932   0.634   3.167   6.543
 5017POPC   C3B63933   0.839   3.195   6.923
 5017POPC   C4B63934   0.789   2.924   7.262
 5018POPC   NC363935  11.445  42.895   5.394
 5018POPC   PO463936  10.847  43.193   5.421
 5018POPC   GL163937  11.196  43.207   5.761
 5018POPC   GL263938  11.557  43.319   5.661
 5018POPC   C1A63939  11.295  43.187   6.218
 5018POPC   D2A63940  11.331  42.962   6.649
 5018POPC   C3A63941  11.353  43.144   7.052
 5018POPC   C4A63942  11.369  43.426   7.368
 5018POPC   C1B63943  11.766  43.389   6.052
 5018POPC   C2B63944  11.668  43.454   6.466
 5018POPC   C3B63945  11.773  43.346   6.853
 5018POPC   C4B63946  11.880  43.352   7.252
 5019POPC   NC363947  21.615  19.385   5.668
 5019POPC   PO463948  21.027  19.803   5.547
 5019POPC   GL163949  21.284  19.823   5.958
 5019POPC   GL263950  21.474  20.148   6.057
 5019POPC   C1A63951  21.655  19.716   6.244
 5019POPC   D2A63952  21.797  20.006   6.532
 5019POPC   C3A63953  21.513  19.953   6.893
 5019POPC   C4A63954  21.582  19.676   7.229
 5019POPC   C1B63955  21.141  20.074   6.369
 5019POPC   C2B63956  21.002  20.224   6.765
 5019POPC   C3B63957  21.157  20.257   7.149
 5019POPC   C4B63958  21.474  20.135   7.429
 5020POPC   NC363959  19.227   9.338   5.443
 5020POPC   PO463960  18.979   8.761   5.453
 5020POPC   GL163961  19.221   8.848   5.850
 5020POPC   GL263962  19.107   9.133   5.914
 5020POPC   C1A63963  19.229   8.849   6.340
 5020POPC   D2A63964  19.060   9.074   6.685
 5020POPC   C3A63965  19.169   8.925   7.092
 5020POPC   C4A63966  19.398   8.547   7.213
 5020POPC   C1B63967  18.765   9.028   6.213
 5020POPC   C2B63968  18.555   9.137   6.609
 5020POPC   C3B63969  18.723   9.190   7.056
 5020POPC   C4B63970  18.978   9.255   7.458
 5021POPC   NC363971  17.249   7.702   5.469
 5021POPC   PO463972  17.348   8.446   5.411
 5021POPC   GL163973  17.569   8.418   5.785
 5021POPC   GL263974  17.471   8.058   5.766
 5021POPC   C1A63975  17.699   8.504   6.213
 5021POPC   D2A63976  17.807   8.262   6.578
 5021POPC   C3A63977  17.670   8.311   7.023
 5021POPC   C4A63978  17.589   8.103   7.444
 5021POPC   C1B63979  17.495   7.833   6.165
 5021POPC   C2B63980  17.398   7.961   6.570
 5021POPC   C3B63981  17.442   7.848   6.968
 5021POPC   C4B63982  17.464   7.631   7.328
 5022POPC   NC363983  31.662  31.957   5.504
 5022POPC   PO463984  31.264  32.609   5.474
 5022POPC   GL163985  31.439  32.553   5.906
 5022POPC   GL263986  31.647  32.269   5.928
 5022POPC   C1A63987  31.587  32.533   6.384
 5022POPC   D2A63988  31.471  32.262   6.771
 5022POPC   C3A63989  31.187  32.440   7.118
 5022POPC   C4A63990  31.312  32.539   7.603
 5022POPC   C1B63991  31.835  31.892   6.170
 5022POPC   C2B63992  32.031  31.856   6.584
 5022POPC   C3B63993  31.927  31.941   7.019
 5022POPC   C4B63994  31.632  32.245   7.260
 5023POPC   NC363995  23.639   5.777   5.492
 5023POPC   PO463996  24.207   5.545   5.722
 5023POPC   GL163997  23.904   5.869   5.930
 5023POPC   GL263998  23.610   6.101   5.886
 5023POPC   C1A63999  23.758   5.938   6.362
 5023POPC   D2A64000  24.117   5.904   6.601
 5023POPC   C3A64001  24.066   5.683   6.987
 5023POPC   C4A64002  23.794   5.759   7.320
 5023POPC   C1B64003  23.399   6.333   6.248
 5023POPC   C2B64004  23.375   6.171   6.659
 5023POPC   C3B64005  23.721   6.080   6.929
 5023POPC   C4B64006  23.836   6.364   7.224
 5024POPC   NC364007  36.082   1.895   5.388
 5024POPC   PO464008  36.556   2.295   5.347
 5024POPC   GL164009  36.330   2.183   5.780
 5024POPC   GL264010  36.184   1.843   5.872
 5024POPC   C1A64011  36.186   2.198   6.254
 5024POPC   D2A64012  36.047   2.050   6.690
 5024POPC   C3A64013  36.206   2.284   7.063
 5024POPC   C4A64014  36.092   2.405   7.501
 5024POPC   C1B64015  35.792   1.864   6.132
 5024POPC   C2B64016  35.673   1.624   6.491
 5024POPC   C3B64017  35.738   1.549   6.929
 5024POPC   C4B64018  35.986   1.795   7.167
 5025POPC   NC364019  23.724   9.174   5.140
 5025POPC   PO464020  23.766   8.523   5.423
 5025POPC   GL164021  23.883   8.745   5.792
 5025POPC   GL264022  23.985   9.093   5.799
 5025POPC   C1A64023  23.734   8.815   6.231
 5025POPC   D2A64024  23.884   8.960   6.627
 5025POPC   C3A64025  23.628   8.997   6.948
 5025POPC   C4A64026  23.640   8.968   7.360
 5025POPC   C1B64027  23.952   9.297   6.251
 5025POPC   C2B64028  23.772   9.462   6.671
 5025POPC   C3B64029  23.420   9.453   6.975
 5025POPC   C4B64030  23.165   9.124   7.143
 5026POPC   NC364031  39.353  34.284   5.599
 5026POPC   PO464032  39.068  33.625   5.435
 5026POPC   GL164033  39.089  33.685   5.874
 5026POPC   GL264034  39.279  33.942   5.976
 5026POPC   C1A64035  38.828  33.720   6.242
 5026POPC   D2A64036  38.870  34.084   6.478
 5026POPC   C3A64037  39.128  34.035   6.826
 5026POPC   C4A64038  38.973  33.937   7.217
 5026POPC   C1B64039  39.385  33.849   6.373
 5026POPC   C2B64040  39.686  34.085   6.596
 5026POPC   C3B64041  39.524  34.352   6.915
 5026POPC   C4B64042  39.488  34.068   7.295
 5027POPC   NC364043   2.471  17.461   5.315
 5027POPC   PO464044   3.184  17.296   5.390
 5027POPC   GL164045   2.840  17.363   5.710
 5027POPC   GL264046   2.587  17.643   5.787
 5027POPC   C1A64047   2.871  17.416   6.168
 5027POPC   D2A64048   2.960  17.206   6.554
 5027POPC   C3A64049   2.696  17.299   6.883
 5027POPC   C4A64050   2.881  17.300   7.244
 5027POPC   C1B64051   2.652  17.869   6.202
 5027POPC   C2B64052   2.778  17.740   6.604
 5027POPC   C3B64053   2.970  17.787   7.004
 5027POPC   C4B64054   2.668  17.747   7.287
 5028POPC   NC364055  43.396  30.698   5.461
 5028POPC   PO464056  42.787  30.624   5.315
 5028POPC   GL164057  42.971  30.634   5.742
 5028POPC   GL264058  43.209  30.367   5.812
 5028POPC   C1A64059  42.879  30.900   6.109
 5028POPC   D2A64060  42.994  30.923   6.546
 5028POPC   C3A64061  42.997  30.670   6.925
 5028POPC   C4A64062  43.082  30.773   7.350
 5028POPC   C1B64063  43.275  30.604   6.196
 5028POPC   C2B64064  43.415  30.661   6.626
 5028POPC   C3B64065  43.461  30.462   7.060
 5028POPC   C4B64066  43.501  30.550   7.512
 5029POPC   NC364067   0.551  23.413   5.405
 5029POPC   PO464068   0.104  23.940   5.486
 5029POPC   GL164069   0.466  23.760   5.777
 5029POPC   GL264070   0.261  23.495   5.818
 5029POPC   C1A64071   0.611  23.566   6.225
 5029POPC   D2A64072   0.497  23.456   6.685
 5029POPC   C3A64073   0.635  23.734   7.047
 5029POPC   C4A64074   0.663  23.640   7.500
 5029POPC   C1B64075   0.137  23.731   6.171
 5029POPC   C2B64076   0.040  23.615   6.567
 5029POPC   C3B64077   0.126  23.747   6.996
 5029POPC   C4B64078   0.111  23.698   7.444
 5030POPC   NC364079  39.154  13.457   5.557
 5030POPC   PO464080  39.472  13.989   5.218
 5030POPC   GL164081  39.294  13.936   5.752
 5030POPC   GL264082  38.965  13.853   5.889
 5030POPC   C1A64083  39.325  13.690   6.201
 5030POPC   D2A64084  39.200  13.488   6.626
 5030POPC   C3A64085  39.456  13.548   7.004
 5030POPC   C4A64086  39.650  13.889   7.259
 5030POPC   C1B64087  38.814  13.555   6.249
 5030POPC   C2B64088  38.699  13.551   6.716
 5030POPC   C3B64089  38.970  13.557   7.142
 5030POPC   C4B64090  39.044  13.302   7.596
 5031POPC   NC364091  35.828  17.189   5.534
 5031POPC   PO464092  36.325  17.807   5.421
 5031POPC   GL164093  36.257  17.631   5.822
 5031POPC   GL264094  35.959  17.607   5.783
 5031POPC   C1A64095  36.182  17.426   6.241
 5031POPC   D2A64096  36.371  17.220   6.599
 5031POPC   C3A64097  36.143  17.355   6.952
 5031POPC   C4A64098  36.345  17.447   7.315
 5031POPC   C1B64099  35.773  17.734   6.150
 5031POPC   C2B64100  35.771  17.614   6.579
 5031POPC   C3B64101  35.747  17.831   6.957
 5031POPC   C4B64102  35.866  17.631   7.325
 5032POPC   NC364103   8.362  14.744   5.525
 5032POPC   PO464104   7.925  14.164   5.547
 5032POPC   GL164105   8.266  14.247   5.778
 5032POPC   GL264106   8.088  14.520   5.907
 5032POPC   C1A64107   8.500  14.102   6.136
 5032POPC   D2A64108   8.570  14.323   6.519
 5032POPC   C3A64109   8.217  14.294   6.805
 5032POPC   C4A64110   8.294  14.026   7.132
 5032POPC   C1B64111   8.034  14.482   6.344
 5032POPC   C2B64112   7.840  14.735   6.679
 5032POPC   C3B64113   8.009  14.709   7.096
 5032POPC   C4B64114   8.427  14.549   7.205
 5033POPC   NC364115   4.598  37.573   5.324
 5033POPC   PO464116   3.969  37.815   5.438
 5033POPC   GL164117   4.323  37.753   5.743
 5033POPC   GL264118   4.419  38.080   5.796
 5033POPC   C1A64119   4.431  37.671   6.212
 5033POPC   D2A64120   4.309  37.572   6.674
 5033POPC   C3A64121   4.426  37.271   6.988
 5033POPC   C4A64122   4.528  37.338   7.450
 5033POPC   C1B64123   4.121  38.075   6.147
 5033POPC   C2B64124   4.161  38.037   6.580
 5033POPC   C3B64125   4.338  37.948   7.017
 5033POPC   C4B64126   4.275  38.208   7.371
 5034POPC   NC364127   7.332  26.526   5.388
 5034POPC   PO464128   7.350  27.171   5.362
 5034POPC   GL164129   7.473  26.945   5.719
 5034POPC   GL264130   7.230  26.719   5.870
 5034POPC   C1A64131   7.659  26.902   6.136
 5034POPC   D2A64132   7.563  26.770   6.550
 5034POPC   C3A64133   7.669  27.007   6.927
 5034POPC   C4A64134   7.458  27.253   7.248
 5034POPC   C1B64135   7.095  26.645   6.307
 5034POPC   C2B64136   7.116  26.680   6.792
 5034POPC   C3B64137   7.283  26.776   7.226
 5034POPC   C4B64138   7.099  26.619   7.621
 5035POPC   NC364139   4.057  28.564   5.382
 5035POPC   PO464140   4.584  28.119   5.506
 5035POPC   GL164141   4.425  28.495   5.761
 5035POPC   GL264142   4.069  28.509   5.889
 5035POPC   C1A64143   4.475  28.650   6.200
 5035POPC   D2A64144   4.628  28.538   6.631
 5035POPC   C3A64145   4.342  28.402   6.949
 5035POPC   C4A64146   4.445  28.109   7.251
 5035POPC   C1B64147   3.787  28.537   6.253
 5035POPC   C2B64148   3.814  28.724   6.686
 5035POPC   C3B64149   3.833  28.520   7.115
 5035POPC   C4B64150   4.165  28.484   7.456
 5036POPC   NC364151  34.573   0.039   5.213
 5036POPC   PO464152  34.460  44.482   5.315
 5036POPC   GL164153  34.418  44.575   5.752
 5036POPC   GL264154  34.185  44.802   5.817
 5036POPC   C1A64155  34.565  44.765   6.172
 5036POPC   D2A64156  34.800   0.066   6.454
 5036POPC   C3A64157  34.788  44.933   6.912
 5036POPC   C4A64158  34.627  44.536   7.013
 5036POPC   C1B64159  34.084  44.921   6.225
 5036POPC   C2B64160  34.329   0.019   6.604
 5036POPC   C3B64161  34.293  44.947   7.047
 5036POPC   C4B64162  34.317   0.019   7.483
 5037POPC   NC364163   4.774  29.255   5.311
 5037POPC   PO464164   5.307  28.795   5.365
 5037POPC   GL164165   5.307  29.043   5.742
 5037POPC   GL264166   5.324  28.736   5.910
 5037POPC   C1A64167   5.249  29.320   6.107
 5037POPC   D2A64168   5.306  29.416   6.566
 5037POPC   C3A64169   4.957  29.390   6.913
 5037POPC   C4A64170   4.753  29.126   7.249
 5037POPC   C1B64171   5.253  28.865   6.340
 5037POPC   C2B64172   4.963  28.921   6.668
 5037POPC   C3B64173   5.091  28.800   7.055
 5037POPC   C4B64174   5.439  28.943   7.295
 5038POPC   NC364175  33.372  23.976   5.689
 5038POPC   PO464176  32.871  23.909   5.156
 5038POPC   GL164177  32.827  23.773   5.639
 5038POPC   GL264178  33.088  23.556   5.794
 5038POPC   C1A64179  32.661  23.631   6.078
 5038POPC   D2A64180  32.703  23.538   6.552
 5038POPC   C3A64181  33.005  23.747   6.824
 5038POPC   C4A64182  33.097  23.968   7.207
 5038POPC   C1B64183  33.135  23.701   6.249
 5038POPC   C2B64184  33.430  23.624   6.546
 5038POPC   C3B64185  33.476  23.546   6.970
 5038POPC   C4B64186  33.276  23.509   7.338
 5039POPC   NC364187  18.162   5.640   5.406
 5039POPC   PO464188  17.934   6.189   5.127
 5039POPC   GL164189  18.218   6.099   5.604
 5039POPC   GL264190  18.040   5.828   5.865
 5039POPC   C1A64191  18.460   6.022   6.040
 5039POPC   D2A64192  18.232   5.990   6.466
 5039POPC   C3A64193  18.440   5.986   6.882
 5039POPC   C4A64194  18.389   5.871   7.293
 5039POPC   C1B64195  17.967   5.590   6.275
 5039POPC   C2B64196  17.936   5.664   6.764
 5039POPC   C3B64197  18.053   5.513   7.206
 5039POPC   C4B64198  18.013   5.307   7.638
 5040POPC   NC364199  24.331  17.878   5.468
 5040POPC   PO464200  24.895  18.206   5.473
 5040POPC   GL164201  24.515  18.312   5.802
 5040POPC   GL264202  24.348  18.006   5.962
 5040POPC   C1A64203  24.346  18.453   6.248
 5040POPC   D2A64204  24.367  18.274   6.691
 5040POPC   C3A64205  24.398  18.478   7.102
 5040POPC   C4A64206  24.500  18.524   7.540
 5040POPC   C1B64207  24.061  18.024   6.327
 5040POPC   C2B64208  23.947  17.963   6.758
 5040POPC   C3B64209  24.217  18.001   7.131
 5040POPC   C4B64210  24.306  18.062   7.575
 5041POPC   NC364211  39.026  10.882   5.614
 5041POPC   PO464212  39.540  11.273   5.519
 5041POPC   GL164213  39.209  11.356   5.802
 5041POPC   GL264214  39.276  11.069   6.020
 5041POPC   C1A64215  38.950  11.479   6.156
 5041POPC   D2A64216  38.992  11.596   6.595
 5041POPC   C3A64217  38.730  11.484   6.931
 5041POPC   C4A64218  38.733  11.088   7.182
 5041POPC   C1B64219  39.440  11.409   6.290
 5041POPC   C2B64220  39.565  11.458   6.710
 5041POPC   C3B64221  39.565  11.212   7.102
 5041POPC   C4B64222  39.256  10.904   7.191
 5042POPC   NC364223  26.568   5.703   5.566
 5042POPC   PO464224  27.034   6.181   5.489
 5042POPC   GL164225  26.957   5.929   5.859
 5042POPC   GL264226  27.162   5.648   5.772
 5042POPC   C1A64227  26.716   5.819   6.241
 5042POPC   D2A64228  26.801   5.621   6.663
 5042POPC   C3A64229  27.015   5.892   6.938
 5042POPC   C4A64230  26.820   6.011   7.275
 5042POPC   C1B64231  27.159   5.528   6.229
 5042POPC   C2B64232  27.307   5.556   6.658
 5042POPC   C3B64233  27.123   5.403   7.062
 5042POPC   C4B64234  26.981   5.487   7.513
 5043POPC   NC364235  34.030   2.059   5.376
 5043POPC   PO464236  33.402   2.162   5.372
 5043POPC   GL164237  33.670   2.018   5.774
 5043POPC   GL264238  34.036   1.983   5.869
 5043POPC   C1A64239  33.710   2.132   6.230
 5043POPC   D2A64240  33.488   2.102   6.630
 5043POPC   C3A64241  33.689   2.121   7.017
 5043POPC   C4A64242  33.831   2.349   7.358
 5043POPC   C1B64243  34.041   1.711   6.208
 5043POPC   C2B64244  33.925   1.794   6.631
 5043POPC   C3B64245  34.007   1.714   7.044
 5043POPC   C4B64246  33.884   1.855   7.429
 5044POPC   NC364247  24.379  27.352   5.647
 5044POPC   PO464248  24.710  27.895   5.491
 5044POPC   GL164249  24.366  27.809   5.881
 5044POPC   GL264250  24.094  27.515   6.042
 5044POPC   C1A64251  24.281  27.913   6.321
 5044POPC   D2A64252  24.668  27.892   6.596
 5044POPC   C3A64253  24.663  27.707   7.012
 5044POPC   C4A64254  24.310  27.822   7.254
 5044POPC   C1B64255  24.351  27.399   6.319
 5044POPC   C2B64256  24.258  27.549   6.701
 5044POPC   C3B64257  24.252  27.317   7.012
 5044POPC   C4B64258  24.556  27.253   7.296
 5045POPC   NC364259   0.307  37.301   5.509
 5045POPC   PO464260   0.231  36.639   5.413
 5045POPC   GL164261   0.417  36.678   5.832
 5045POPC   GL264262   0.526  37.006   5.889
 5045POPC   C1A64263   0.446  36.725   6.293
 5045POPC   D2A64264   0.217  36.859   6.669
 5045POPC   C3A64265   0.454  36.749   7.023
 5045POPC   C4A64266   0.551  36.876   7.438
 5045POPC   C1B64267   0.793  37.095   6.261
 5045POPC   C2B64268   0.675  37.154   6.689
 5045POPC   C3B64269   0.882  37.050   7.072
 5045POPC   C4B64270   0.952  36.627   7.244
 5046POPC   NC364271  12.350  18.472   5.522
 5046POPC   PO464272  12.964  18.202   5.515
 5046POPC   GL164273  13.029  18.030   5.905
 5046POPC   GL264274  12.782  18.215   6.042
 5046POPC   C1A64275  13.172  18.200   6.339
 5046POPC   D2A64276  12.810  18.260   6.593
 5046POPC   C3A64277  13.008  18.225   6.966
 5046POPC   C4A64278  12.991  17.925   7.284
 5046POPC   C1B64279  12.602  18.593   6.227
 5046POPC   C2B64280  12.336  18.596   6.586
 5046POPC   C3B64281  12.480  18.416   6.963
 5046POPC   C4B64282  12.651  18.309   7.319
 5047POPC   NC364283  26.175  24.685   5.375
 5047POPC   PO464284  25.628  24.401   5.257
 5047POPC   GL164285  25.865  24.395   5.692
 5047POPC   GL264286  26.156  24.169   5.777
 5047POPC   C1A64287  25.991  24.454   6.151
 5047POPC   D2A64288  26.129  24.492   6.588
 5047POPC   C3A64289  25.856  24.317   6.891
 5047POPC   C4A64290  25.842  24.378   7.293
 5047POPC   C1B64291  26.307  24.048   6.231
 5047POPC   C2B64292  26.220  23.983   6.702
 5047POPC   C3B64293  26.329  24.181   7.116
 5047POPC   C4B64294  26.246  24.287   7.579
 5048POPC   NC364295  14.818  44.737   5.397
 5048POPC   PO464296  15.499  44.962   5.419
 5048POPC   GL164297  15.195  44.794   5.732
 5048POPC   GL264298  15.280  44.525   5.938
 5048POPC   C1A64299  15.062  44.959   6.129
 5048POPC   D2A64300  15.252  44.761   6.486
 5048POPC   C3A64301  15.148  44.970   6.848
 5048POPC   C4A64302  15.259  44.906   7.267
 5048POPC   C1B64303  15.584  44.424   6.242
 5048POPC   C2B64304  15.508  44.309   6.650
 5048POPC   C3B64305  15.223  44.466   6.947
 5048POPC   C4B64306  15.486  44.461   7.282
 5049POPC   NC364307  30.988  27.884   5.410
 5049POPC   PO464308  30.461  27.456   5.422
 5049POPC   GL164309  30.643  27.632   5.847
 5049POPC   GL264310  30.832  27.982   5.898
 5049POPC   C1A64311  30.675  27.522   6.312
 5049POPC   D2A64312  30.922  27.667   6.685
 5049POPC   C3A64313  30.829  27.471   7.087
 5049POPC   C4A64314  30.408  27.271   7.196
 5049POPC   C1B64315  30.682  28.036   6.357
 5049POPC   C2B64316  30.389  27.871   6.688
 5049POPC   C3B64317  30.434  27.796   7.144
 5049POPC   C4B64318  30.823  27.895   7.377
 5050POPC   NC364319  32.262  16.099   5.358
 5050POPC   PO464320  32.064  15.514   5.153
 5050POPC   GL164321  32.195  15.698   5.663
 5050POPC   GL264322  32.215  16.039   5.860
 5050POPC   C1A64323  32.333  15.591   6.109
 5050POPC   D2A64324  32.391  15.816   6.508
 5050POPC   C3A64325  32.354  15.670   6.921
 5050POPC   C4A64326  32.019  15.785   7.183
 5050POPC   C1B64327  32.514  16.198   6.193
 5050POPC   C2B64328  32.430  16.363   6.607
 5050POPC   C3B64329  32.304  16.186   7.013
 5050POPC   C4B64330  32.240  16.222   7.462
 5051POPC   NC364331  19.722  32.460   5.387
 5051POPC   PO464332  20.057  31.892   5.296
 5051POPC   GL164333  19.803  32.030   5.692
 5051POPC   GL264334  20.008  32.273   5.774
 5051POPC   C1A64335  19.625  32.171   6.125
 5051POPC   D2A64336  19.589  31.919   6.520
 5051POPC   C3A64337  19.594  32.121   6.929
 5051POPC   C4A64338  19.735  32.346   7.276
 5051POPC   C1B64339  20.221  32.178   6.151
 5051POPC   C2B64340  20.344  32.282   6.556
 5051POPC   C3B64341  20.110  32.259   6.924
 5051POPC   C4B64342  20.242  32.241   7.322
 5052POPC   NC364343  20.643   3.160   5.117
 5052POPC   PO464344  20.619   2.528   5.476
 5052POPC   GL164345  20.519   2.702   5.877
 5052POPC   GL264346  20.434   3.049   5.897
 5052POPC   C1A64347  20.458   2.736   6.302
 5052POPC   D2A64348  20.596   2.553   6.627
 5052POPC   C3A64349  20.555   2.839   6.935
 5052POPC   C4A64350  20.609   2.649   7.303
 5052POPC   C1B64351  20.783   3.103   6.208
 5052POPC   C2B64352  20.951   2.933   6.564
 5052POPC   C3B64353  21.073   3.062   6.955
 5052POPC   C4B64354  20.870   3.090   7.332
 5053POPC   NC364355   0.191  40.853   5.545
 5053POPC   PO464356   0.612  40.450   5.149
 5053POPC   GL164357   0.762  40.498   5.655
 5053POPC   GL264358   0.655  40.836   5.742
 5053POPC   C1A64359   0.571  40.522   6.142
 5053POPC   D2A64360   0.601  40.762   6.564
 5053POPC   C3A64361   0.508  40.591   7.010
 5053POPC   C4A64362   0.464  40.625   7.512
 5053POPC   C1B64363   0.597  41.074   6.109
 5053POPC   C2B64364   0.511  41.292   6.479
 5053POPC   C3B64365   0.486  41.162   6.893
 5053POPC   C4B64366   0.327  41.382   7.231
 5054POPC   NC364367  40.478  26.724   5.397
 5054POPC   PO464368  41.068  26.662   5.523
 5054POPC   GL164369  40.944  26.846   5.906
 5054POPC   GL264370  40.686  27.036   5.815
 5054POPC   C1A64371  40.969  26.729   6.338
 5054POPC   D2A64372  40.987  26.413   6.679
 5054POPC   C3A64373  41.023  26.615   7.059
 5054POPC   C4A64374  40.676  26.764   7.255
 5054POPC   C1B64375  40.522  26.999   6.265
 5054POPC   C2B64376  40.579  26.960   6.737
 5054POPC   C3B64377  40.464  27.198   7.142
 5054POPC   C4B64378  40.656  27.164   7.578
 5055POPC   NC364379   1.093  26.364   5.431
 5055POPC   PO464380   1.547  26.820   5.379
 5055POPC   GL164381   1.287  26.818   5.729
 5055POPC   GL264382   0.924  26.829   5.686
 5055POPC   C1A64383   1.270  26.699   6.152
 5055POPC   D2A64384   1.162  26.810   6.555
 5055POPC   C3A64385   1.446  26.822   6.897
 5055POPC   C4A64386   1.362  27.092   7.232
 5055POPC   C1B64387   0.756  26.618   6.061
 5055POPC   C2B64388   0.737  26.529   6.525
 5055POPC   C3B64389   0.940  26.632   6.968
 5055POPC   C4B64390   0.920  26.822   7.376
 5056POPC   NC364391  26.861  12.466   5.592
 5056POPC   PO464392  27.053  13.012   5.334
 5056POPC   GL164393  26.951  12.929   5.791
 5056POPC   GL264394  27.203  12.698   5.874
 5056POPC   C1A64395  26.867  12.898   6.240
 5056POPC   D2A64396  26.806  12.745   6.648
 5056POPC   C3A64397  26.837  12.953   7.016
 5056POPC   C4A64398  26.592  12.879   7.377
 5056POPC   C1B64399  27.083  12.456   6.220
 5056POPC   C2B64400  27.275  12.528   6.587
 5056POPC   C3B64401  27.119  12.436   6.951
 5056POPC   C4B64402  27.030  12.571   7.319
 5057POPC   NC364403  41.976   8.336   5.458
 5057POPC   PO464404  42.692   8.289   5.459
 5057POPC   GL164405  42.541   8.076   5.852
 5057POPC   GL264406  42.161   8.085   5.863
 5057POPC   C1A64407  42.401   8.040   6.302
 5057POPC   D2A64408  42.124   8.039   6.637
 5057POPC   C3A64409  42.387   7.912   6.953
 5057POPC   C4A64410  42.393   8.130   7.315
 5057POPC   C1B64411  42.108   8.465   6.155
 5057POPC   C2B64412  42.245   8.547   6.571
 5057POPC   C3B64413  42.235   8.454   6.975
 5057POPC   C4B64414  41.934   8.508   7.300
 5058POPC   NC364415  34.352  13.059   5.495
 5058POPC   PO464416  34.897  12.690   5.410
 5058POPC   GL164417  34.784  12.857   5.814
 5058POPC   GL264418  34.426  12.863   5.971
 5058POPC   C1A64419  34.857  12.755   6.239
 5058POPC   D2A64420  34.626  12.852   6.589
 5058POPC   C3A64421  34.851  12.995   6.933
 5058POPC   C4A64422  34.923  13.014   7.344
 5058POPC   C1B64423  34.426  12.468   6.277
 5058POPC   C2B64424  34.495  12.387   6.740
 5058POPC   C3B64425  34.453  12.676   7.103
 5058POPC   C4B64426  34.182  12.623   7.470
 5059POPC   NC364427  31.750  10.296   5.088
 5059POPC   PO464428  31.249  10.506   5.549
 5059POPC   GL164429  31.260  10.780   5.919
 5059POPC   GL264430  31.614  10.647   5.977
 5059POPC   C1A64431  31.290  10.815   6.367
 5059POPC   D2A64432  31.305  10.459   6.629
 5059POPC   C3A64433  31.183  10.548   7.018
 5059POPC   C4A64434  31.359  10.461   7.408
 5059POPC   C1B64435  31.700  10.313   6.321
 5059POPC   C2B64436  31.761  10.295   6.808
 5059POPC   C3B64437  31.859  10.364   7.262
 5059POPC   C4B64438  31.720  10.293   7.706
 5060POPC   NC364439  11.539  17.508   5.333
 5060POPC   PO464440  10.849  17.377   5.199
 5060POPC   GL164441  11.067  17.414   5.640
 5060POPC   GL264442  11.427  17.344   5.801
 5060POPC   C1A64443  11.123  17.693   6.031
 5060POPC   D2A64444  11.298  17.632   6.460
 5060POPC   C3A64445  11.101  17.766   6.843
 5060POPC   C4A64446  11.066  17.521   7.185
 5060POPC   C1B64447  11.447  17.178   6.220
 5060POPC   C2B64448  11.683  17.144   6.598
 5060POPC   C3B64449  11.553  17.404   6.925
 5060POPC   C4B64450  11.480  17.261   7.339
 5061POPC   NC364451  24.275   1.471   5.428
 5061POPC   PO464452  24.119   0.769   5.428
 5061POPC   GL164453  24.299   1.043   5.752
 5061POPC   GL264454  24.624   1.211   5.712
 5061POPC   C1A64455  24.455   1.119   6.184
 5061POPC   D2A64456  24.678   0.944   6.533
 5061POPC   C3A64457  24.537   1.152   6.875
 5061POPC   C4A64458  24.359   1.177   7.248
 5061POPC   C1B64459  24.811   1.473   6.054
 5061POPC   C2B64460  24.698   1.484   6.494
 5061POPC   C3B64461  24.723   1.634   6.895
 5061POPC   C4B64462  24.547   1.638   7.289
 5062POPC   NC364463   5.793  23.336   5.407
 5062POPC   PO464464   5.998  22.700   5.266
 5062POPC   GL164465   5.999  22.793   5.726
 5062POPC   GL264466   5.676  22.950   5.794
 5062POPC   C1A64467   5.907  22.716   6.201
 5062POPC   D2A64468   6.056  22.705   6.628
 5062POPC   C3A64469   5.782  22.646   6.980
 5062POPC   C4A64470   5.895  22.937   7.305
 5062POPC   C1B64471   5.560  23.125   6.236
 5062POPC   C2B64472   5.620  23.036   6.681
 5062POPC   C3B64473   5.506  23.169   7.088
 5062POPC   C4B64474   5.535  23.129   7.597
 5063POPC   NC364475  29.399  16.009   5.575
 5063POPC   PO464476  30.128  15.987   5.480
 5063POPC   GL164477  29.868  16.018   5.806
 5063POPC   GL264478  29.898  15.668   5.828
 5063POPC   C1A64479  29.751  16.186   6.215
 5063POPC   D2A64480  29.809  15.968   6.562
 5063POPC   C3A64481  29.938  16.050   6.911
 5063POPC   C4A64482  30.022  15.805   7.257
 5063POPC   C1B64483  29.698  15.654   6.186
 5063POPC   C2B64484  29.610  15.483   6.600
 5063POPC   C3B64485  29.616  15.561   7.047
 5063POPC   C4B64486  29.619  15.663   7.536
 5064POPC   NC364487  17.223   9.761   5.510
 5064POPC   PO464488  17.789   9.392   5.389
 5064POPC   GL164489  17.590   9.496   5.799
 5064POPC   GL264490  17.554   9.859   5.903
 5064POPC   C1A64491  17.549   9.476   6.260
 5064POPC   D2A64492  17.777   9.626   6.628
 5064POPC   C3A64493  17.582   9.631   7.010
 5064POPC   C4A64494  17.448   9.708   7.427
 5064POPC   C1B64495  17.206   9.839   6.201
 5064POPC   C2B64496  17.196   9.644   6.622
 5064POPC   C3B64497  17.106   9.806   7.027
 5064POPC   C4B64498  16.926   9.751   7.419
 5065POPC   NC364499  26.545   1.959   5.434
 5065POPC   PO464500  27.179   2.176   5.303
 5065POPC   GL164501  27.073   2.093   5.771
 5065POPC   GL264502  26.879   1.798   5.805
 5065POPC   C1A64503  27.084   1.924   6.239
 5065POPC   D2A64504  27.298   1.718   6.590
 5065POPC   C3A64505  27.103   1.920   6.915
 5065POPC   C4A64506  26.798   1.990   7.209
 5065POPC   C1B64507  26.601   1.780   6.216
 5065POPC   C2B64508  26.676   1.790   6.658
 5065POPC   C3B64509  26.412   1.738   7.007
 5065POPC   C4B64510  26.405   1.416   7.319
 5066POPC   NC364511   0.112   7.287   5.437
 5066POPC   PO464512  44.395   7.426   5.404
 5066POPC   GL164513  44.699   7.406   5.743
 5066POPC   GL264514  44.478   7.577   5.945
 5066POPC   C1A64515  44.786   7.245   6.175
 5066POPC   D2A64516  44.480   7.317   6.526
 5066POPC   C3A64517  44.602   7.432   6.935
 5066POPC   C4A64518  44.880   7.263   7.232
 5066POPC   C1B64519  44.234   7.760   6.275
 5066POPC   C2B64520  44.265   7.815   6.700
 5066POPC   C3B64521  44.466   7.920   7.053
 5066POPC   C4B64522  44.475   7.670   7.417
 5067POPC   NC364523  32.162  43.481   5.506
 5067POPC   PO464524  32.547  42.967   5.489
 5067POPC   GL164525  32.339  43.075   5.855
 5067POPC   GL264526  31.988  43.175   5.878
 5067POPC   C1A64527  32.373  42.887   6.242
 5067POPC   D2A64528  32.292  42.995   6.643
 5067POPC   C3A64529  32.375  42.785   7.011
 5067POPC   C4A64530  32.273  42.890   7.404
 5067POPC   C1B64531  32.073  43.340   6.284
 5067POPC   C2B64532  32.007  43.437   6.720
 5067POPC   C3B64533  32.209  43.267   7.071
 5067POPC   C4B64534  31.922  43.286   7.378
 5068POPC   NC364535  12.893  33.805   5.277
 5068POPC   PO464536  13.352  34.115   5.615
 5068POPC   GL164537  13.026  33.906   5.871
 5068POPC   GL264538  12.699  33.694   5.830
 5068POPC   C1A64539  12.921  33.823   6.298
 5068POPC   D2A64540  12.725  34.045   6.604
 5068POPC   C3A64541  12.905  33.915   6.939
 5068POPC   C4A64542  12.788  33.784   7.283
 5068POPC   C1B64543  12.584  33.435   6.229
 5068POPC   C2B64544  12.662  33.522   6.667
 5068POPC   C3B64545  12.519  33.379   7.071
 5068POPC   C4B64546  12.489  33.457   7.512
 5069POPC   NC364547  31.481  20.020   5.263
 5069POPC   PO464548  31.478  20.652   5.419
 5069POPC   GL164549  31.516  20.647   5.832
 5069POPC   GL264550  31.849  20.695   5.908
 5069POPC   C1A64551  31.528  20.493   6.247
 5069POPC   D2A64552  31.491  20.694   6.637
 5069POPC   C3A64553  31.599  20.477   6.975
 5069POPC   C4A64554  31.229  20.391   7.195
 5069POPC   C1B64555  31.788  20.952   6.284
 5069POPC   C2B64556  31.752  21.128   6.715
 5069POPC   C3B64557  31.644  20.955   7.146
 5069POPC   C4B64558  31.941  20.752   7.438
 5070POPC   NC364559  39.273   9.157   5.375
 5070POPC   PO464560  39.354   8.505   5.278
 5070POPC   GL164561  39.322   8.766   5.722
 5070POPC   GL264562  39.395   9.130   5.863
 5070POPC   C1A64563  39.301   8.773   6.207
 5070POPC   D2A64564  39.090   8.902   6.597
 5070POPC   C3A64565  39.265   8.739   6.986
 5070POPC   C4A64566  39.387   8.961   7.367
 5070POPC   C1B64567  38.968   9.180   6.086
 5070POPC   C2B64568  38.829   9.329   6.522
 5070POPC   C3B64569  38.795   9.186   6.947
 5070POPC   C4B64570  38.871   8.889   7.271
 5071POPC   NC364571   5.675  28.466   5.362
 5071POPC   PO464572   6.184  28.092   5.543
 5071POPC   GL164573   6.009  28.375   5.860
 5071POPC   GL264574   5.657  28.329   5.865
 5071POPC   C1A64575   6.009  28.390   6.341
 5071POPC   D2A64576   6.149  28.221   6.760
 5071POPC   C3A64577   6.014  28.443   7.145
 5071POPC   C4A64578   6.128  28.505   7.611
 5071POPC   C1B64579   5.485  28.405   6.272
 5071POPC   C2B64580   5.604  28.619   6.658
 5071POPC   C3B64581   5.492  28.461   7.069
 5071POPC   C4B64582   5.651  28.376   7.482
 5072POPC   NC364583  16.322  21.069   5.671
 5072POPC   PO464584  16.843  21.366   5.383
 5072POPC   GL164585  16.689  21.450   5.787
 5072POPC   GL264586  16.961  21.646   5.962
 5072POPC   C1A64587  16.498  21.593   6.173
 5072POPC   D2A64588  16.704  21.582   6.581
 5072POPC   C3A64589  16.547  21.271   6.856
 5072POPC   C4A64590  16.384  21.342   7.240
 5072POPC   C1B64591  17.065  21.210   6.104
 5072POPC   C2B64592  17.082  21.091   6.529
 5072POPC   C3B64593  17.062  21.311   6.914
 5072POPC   C4B64594  16.880  21.228   7.307
 5073POPC   NC364595  16.841  29.526   5.287
 5073POPC   PO464596  16.996  28.887   5.315
 5073POPC   GL164597  16.877  29.169   5.681
 5073POPC   GL264598  17.094  29.490   5.734
 5073POPC   C1A64599  16.834  29.038   6.126
 5073POPC   D2A64600  17.076  28.962   6.498
 5073POPC   C3A64601  16.815  29.008   6.848
 5073POPC   C4A64602  16.581  28.788   7.137
 5073POPC   C1B64603  17.187  29.410   6.157
 5073POPC   C2B64604  16.996  29.475   6.566
 5073POPC   C3B64605  17.063  29.405   7.007
 5073POPC   C4B64606  16.664  29.300   7.278
 5074POPC   NC364607   7.761   3.080   5.568
 5074POPC   PO464608   7.420   2.582   5.269
 5074POPC   GL164609   7.482   2.677   5.749
 5074POPC   GL264610   7.244   2.905   5.864
 5074POPC   C1A64611   7.529   2.770   6.242
 5074POPC   D2A64612   7.445   2.902   6.684
 5074POPC   C3A64613   7.775   2.890   7.020
 5074POPC   C4A64614   7.849   2.507   7.274
 5074POPC   C1B64615   7.055   3.035   6.264
 5074POPC   C2B64616   7.051   3.230   6.670
 5074POPC   C3B64617   7.004   2.995   7.038
 5074POPC   C4B64618   7.328   2.760   7.226
 5075POPC   NC364619  13.445  11.161   5.312
 5075POPC   PO464620  13.569  11.791   5.463
 5075POPC   GL164621  13.778  11.538   5.774
 5075POPC   GL264622  13.931  11.212   5.733
 5075POPC   C1A64623  13.641  11.329   6.141
 5075POPC   D2A64624  13.810  11.368   6.538
 5075POPC   C3A64625  13.565  11.366   6.899
 5075POPC   C4A64626  13.459  11.131   7.251
 5075POPC   C1B64627  14.132  11.197   6.154
 5075POPC   C2B64628  14.071  10.886   6.517
 5075POPC   C3B64629  13.939  11.028   6.942
 5075POPC   C4B64630  13.875  10.843   7.364
 5076POPC   NC364631  10.802  32.818   5.509
 5076POPC   PO464632  10.275  33.300   5.508
 5076POPC   GL164633  10.442  33.039   5.847
 5076POPC   GL264634  10.787  33.119   5.925
 5076POPC   C1A64635  10.427  33.034   6.303
 5076POPC   D2A64636  10.231  32.971   6.703
 5076POPC   C3A64637  10.318  33.225   7.057
 5076POPC   C4A64638  10.513  33.063   7.437
 5076POPC   C1B64639  10.851  32.751   6.209
 5076POPC   C2B64640  10.685  32.709   6.641
 5076POPC   C3B64641  10.810  32.943   7.029
 5076POPC   C4B64642  10.937  32.802   7.480
 5077POPC   NC364643  26.226   7.206   5.054
 5077POPC   PO464644  25.952   7.610   5.433
 5077POPC   GL164645  26.040   7.366   5.806
 5077POPC   GL264646  25.706   7.351   5.984
 5077POPC   C1A64647  26.284   7.339   6.206
 5077POPC   D2A64648  26.230   7.264   6.668
 5077POPC   C3A64649  26.099   7.622   6.932
 5077POPC   C4A64650  26.273   7.668   7.358
 5077POPC   C1B64651  25.807   7.424   6.394
 5077POPC   C2B64652  25.705   7.194   6.741
 5077POPC   C3B64653  25.827   7.241   7.137
 5077POPC   C4B64654  25.748   7.642   7.331
 5078POPC   NC364655  44.284  15.337   5.397
 5078POPC   PO464656  43.563  15.304   5.285
 5078POPC   GL164657  43.862  15.296   5.684
 5078POPC   GL264658  43.906  14.960   5.846
 5078POPC   C1A64659  43.967  15.383   6.133
 5078POPC   D2A64660  43.731  15.389   6.541
 5078POPC   C3A64661  43.957  15.420   6.930
 5078POPC   C4A64662  44.080  15.422   7.374
 5078POPC   C1B64663  43.661  14.959   6.220
 5078POPC   C2B64664  43.806  14.826   6.627
 5078POPC   C3B64665  43.866  14.937   7.054
 5078POPC   C4B64666  43.558  15.250   7.230
 5079POPC   NC364667  33.179  10.844   5.447
 5079POPC   PO464668  32.774  10.402   5.499
 5079POPC   GL164669  33.070  10.475   5.793
 5079POPC   GL264670  32.882  10.745   5.864
 5079POPC   C1A64671  33.257  10.640   6.165
 5079POPC   D2A64672  33.073  10.764   6.555
 5079POPC   C3A64673  33.176  10.510   6.916
 5079POPC   C4A64674  33.296  10.466   7.329
 5079POPC   C1B64675  32.629  10.796   6.226
 5079POPC   C2B64676  32.500  10.826   6.634
 5079POPC   C3B64677  32.756  10.785   6.975
 5079POPC   C4B64678  32.958  11.010   7.268
 5080POPC   NC364679  28.481  14.657   5.488
 5080POPC   PO464680  28.701  14.029   5.521
 5080POPC   GL164681  28.507  14.267   5.834
 5080POPC   GL264682  28.175  14.416   5.845
 5080POPC   C1A64683  28.537  14.521   6.198
 5080POPC   D2A64684  28.386  14.689   6.562
 5080POPC   C3A64685  28.479  14.425   6.871
 5080POPC   C4A64686  28.661  14.388   7.265
 5080POPC   C1B64687  27.978  14.727   6.122
 5080POPC   C2B64688  27.763  14.735   6.522
 5080POPC   C3B64689  27.945  14.767   6.926
 5080POPC   C4B64690  28.146  14.517   7.240
 5081POPC   NC364691  39.236   2.886   5.467
 5081POPC   PO464692  39.608   2.315   5.493
 5081POPC   GL164693  39.308   2.458   5.865
 5081POPC   GL264694  39.030   2.721   5.896
 5081POPC   C1A64695  39.276   2.644   6.316
 5081POPC   D2A64696  39.431   2.946   6.632
 5081POPC   C3A64697  39.319   2.712   6.991
 5081POPC   C4A64698  38.987   2.503   7.227
 5081POPC   C1B64699  38.947   3.069   6.193
 5081POPC   C2B64700  39.009   3.280   6.587
 5081POPC   C3B64701  38.899   3.295   7.033
 5081POPC   C4B64702  39.067   3.006   7.331
 5082POPC   NC364703   5.509  41.612   5.579
 5082POPC   PO464704   4.995  41.800   5.167
 5082POPC   GL164705   4.917  41.623   5.647
 5082POPC   GL264706   5.069  41.296   5.731
 5082POPC   C1A64707   4.820  41.549   6.122
 5082POPC   D2A64708   5.009  41.576   6.543
 5082POPC   C3A64709   4.883  41.476   6.961
 5082POPC   C4A64710   5.147  41.577   7.303
 5082POPC   C1B64711   5.150  41.163   6.161
 5082POPC   C2B64712   5.470  41.187   6.498
 5082POPC   C3B64713   5.439  41.293   6.930
 5082POPC   C4B64714   5.601  41.352   7.333
 5083POPC   NC364715   1.157  12.225   5.316
 5083POPC   PO464716   1.354  11.559   5.543
 5083POPC   GL164717   1.171  11.933   5.745
 5083POPC   GL264718   0.884  11.851   5.919
 5083POPC   C1A64719   1.205  12.175   6.168
 5083POPC   D2A64720   1.425  12.108   6.590
 5083POPC   C3A64721   1.438  12.202   7.059
 5083POPC   C4A64722   1.299  12.321   7.483
 5083POPC   C1B64723   1.204  11.665   6.189
 5083POPC   C2B64724   1.260  11.625   6.610
 5083POPC   C3B64725   1.086  11.861   6.904
 5083POPC   C4B64726   1.039  11.869   7.313
 5084POPC   NC364727  11.447   0.630   5.431
 5084POPC   PO464728  11.035   0.154   5.564
 5084POPC   GL164729  11.267   0.196   5.926
 5084POPC   GL264730  11.372   0.533   5.963
 5084POPC   C1A64731  11.224   0.272   6.378
 5084POPC   D2A64732  11.119   0.610   6.663
 5084POPC   C3A64733  10.922   0.432   7.015
 5084POPC   C4A64734  11.217   0.201   7.217
 5084POPC   C1B64735  11.548   0.708   6.368
 5084POPC   C2B64736  11.631   0.779   6.820
 5084POPC   C3B64737  11.546   0.642   7.250
 5084POPC   C4B64738  11.666   0.816   7.671
 5085POPC   NC364739  24.033  37.909   5.420
 5085POPC   PO464740  23.650  37.379   5.309
 5085POPC   GL164741  23.599  37.615   5.689
 5085POPC   GL264742  23.927  37.664   5.834
 5085POPC   C1A64743  23.528  37.519   6.140
 5085POPC   D2A64744  23.495  37.669   6.568
 5085POPC   C3A64745  23.482  37.398   6.911
 5085POPC   C4A64746  23.578  37.647   7.273
 5085POPC   C1B64747  23.843  37.931   6.151
 5085POPC   C2B64748  23.931  37.925   6.568
 5085POPC   C3B64749  23.734  38.001   6.940
 5085POPC   C4B64750  23.984  37.965   7.281
 5086POPC   NC364751   9.287   3.171   5.403
 5086POPC   PO464752   8.946   3.769   5.360
 5086POPC   GL164753   8.963   3.536   5.769
 5086POPC   GL264754   9.258   3.501   5.831
 5086POPC   C1A64755   8.876   3.281   6.172
 5086POPC   D2A64756   8.678   3.307   6.603
 5086POPC   C3A64757   8.779   3.695   6.879
 5086POPC   C4A64758   8.872   3.663   7.296
 5086POPC   C1B64759   9.129   3.722   6.219
 5086POPC   C2B64760   9.150   3.514   6.613
 5086POPC   C3B64761   9.064   3.268   6.993
 5086POPC   C4B64762   9.344   3.517   7.244
 5087POPC   NC364763  28.668  17.455   5.489
 5087POPC   PO464764  28.084  17.806   5.621
 5087POPC   GL164765  28.278  17.512   5.884
 5087POPC   GL264766  28.204  17.159   5.824
 5087POPC   C1A64767  28.342  17.500   6.343
 5087POPC   D2A64768  28.150  17.667   6.753
 5087POPC   C3A64769  28.442  17.740   7.077
 5087POPC   C4A64770  28.431  17.721   7.504
 5087POPC   C1B64771  27.979  17.142   6.236
 5087POPC   C2B64772  28.155  17.166   6.667
 5087POPC   C3B64773  28.303  17.253   7.077
 5087POPC   C4B64774  28.083  17.370   7.444
 5088POPC   NC364775  42.209  10.975   5.469
 5088POPC   PO464776  42.756  10.566   5.655
 5088POPC   GL164777  42.330  10.541   5.873
 5088POPC   GL264778  42.180  10.178   5.810
 5088POPC   C1A64779  42.350  10.694   6.350
 5088POPC   D2A64780  42.627  10.474   6.656
 5088POPC   C3A64781  42.480  10.400   7.079
 5088POPC   C4A64782  42.260  10.726   7.134
 5088POPC   C1B64783  42.044  10.319   6.244
 5088POPC   C2B64784  42.073  10.417   6.710
 5088POPC   C3B64785  41.980  10.296   7.148
 5088POPC   C4B64786  42.087  10.214   7.573
 5089POPC   NC364787   5.123  26.306   5.499
 5089POPC   PO464788   5.441  25.735   5.400
 5089POPC   GL164789   5.253  25.886   5.783
 5089POPC   GL264790   4.870  25.942   5.819
 5089POPC   C1A64791   5.275  26.067   6.195
 5089POPC   D2A64792   5.358  25.851   6.600
 5089POPC   C3A64793   5.161  25.880   6.986
 5089POPC   C4A64794   5.359  26.240   7.148
 5089POPC   C1B64795   4.784  26.198   6.226
 5089POPC   C2B64796   5.013  26.256   6.631
 5089POPC   C3B64797   4.857  26.289   7.066
 5089POPC   C4B64798   4.726  26.056   7.426
 5090POPC   NC364799  36.753  23.495   5.520
 5090POPC   PO464800  37.154  23.848   5.880
 5090POPC   GL164801  36.846  23.583   6.139
 5090POPC   GL264802  36.538  23.367   5.962
 5090POPC   C1A64803  37.023  23.694   6.561
 5090POPC   D2A64804  37.040  24.051   6.834
 5090POPC   C3A64805  37.016  23.830   7.215
 5090POPC   C4A64806  37.207  23.649   7.595
 5090POPC   C1B64807  36.310  23.561   6.319
 5090POPC   C2B64808  36.534  23.621   6.698
 5090POPC   C3B64809  36.552  23.569   7.139
 5090POPC   C4B64810  36.833  23.377   7.390
 5091POPC   NC364811  35.151  26.691   5.490
 5091POPC   PO464812  35.580  27.126   5.496
 5091POPC   GL164813  35.482  26.891   5.839
 5091POPC   GL264814  35.750  27.077   6.000
 5091POPC   C1A64815  35.384  26.719   6.248
 5091POPC   D2A64816  35.563  26.551   6.629
 5091POPC   C3A64817  35.383  26.762   6.973
 5091POPC   C4A64818  35.295  26.549   7.332
 5091POPC   C1B64819  35.312  27.220   6.176
 5091POPC   C2B64820  35.090  27.090   6.560
 5091POPC   C3B64821  35.139  27.235   6.992
 5091POPC   C4B64822  35.220  27.045   7.390
 5092POPC   NC364823  10.567   0.170   5.546
 5092POPC   PO464824  10.225   0.724   5.436
 5092POPC   GL164825  10.423   0.620   5.827
 5092POPC   GL264826  10.732   0.804   5.805
 5092POPC   C1A64827  10.344   0.356   6.194
 5092POPC   D2A64828  10.192   0.191   6.580
 5092POPC   C3A64829  10.392   0.393   6.910
 5092POPC   C4A64830  10.495   0.241   7.288
 5092POPC   C1B64831  10.825   0.539   6.155
 5092POPC   C2B64832  10.640   0.683   6.522
 5092POPC   C3B64833  10.692   0.865   6.893
 5092POPC   C4B64834  10.548   0.758   7.260
 5093POPC   NC364835  20.314   2.155   5.437
 5093POPC   PO464836  19.712   2.077   5.380
 5093POPC   GL164837  19.884   1.911   5.730
 5093POPC   GL264838  19.960   2.230   5.874
 5093POPC   C1A64839  19.938   1.809   6.171
 5093POPC   D2A64840  19.883   2.101   6.484
 5093POPC   C3A64841  19.900   1.890   6.826
 5093POPC   C4A64842  20.025   1.977   7.187
 5093POPC   C1B64843  19.593   2.335   6.131
 5093POPC   C2B64844  19.569   2.488   6.562
 5093POPC   C3B64845  19.687   2.337   6.949
 5093POPC   C4B64846  19.593   2.513   7.339
 5094POPC   NC364847  35.633   1.377   5.461
 5094POPC   PO464848  34.904   1.169   5.548
 5094POPC   GL164849  35.256   1.167   5.849
 5094POPC   GL264850  35.475   1.461   5.950
 5094POPC   C1A64851  35.167   1.205   6.298
 5094POPC   D2A64852  35.321   1.321   6.696
 5094POPC   C3A64853  35.147   1.284   7.102
 5094POPC   C4A64854  34.994   0.904   7.283
 5094POPC   C1B64855  35.675   1.153   6.243
 5094POPC   C2B64856  35.866   1.132   6.659
 5094POPC   C3B64857  35.596   1.060   7.016
 5094POPC   C4B64858  35.570   1.205   7.397
 5095POPC   NC364859  16.446  25.008   5.648
 5095POPC   PO464860  17.025  25.391   5.445
 5095POPC   GL164861  16.857  25.255   5.824
 5095POPC   GL264862  16.574  25.433   5.919
 5095POPC   C1A64863  16.821  25.238   6.302
 5095POPC   D2A64864  16.958  25.192   6.732
 5095POPC   C3A64865  16.709  25.258   7.097
 5095POPC   C4A64866  16.882  25.302   7.532
 5095POPC   C1B64867  16.548  25.713   6.243
 5095POPC   C2B64868  16.479  25.544   6.652
 5095POPC   C3B64869  16.397  25.754   7.042
 5095POPC   C4B64870  16.522  25.613   7.400
 5096POPC   NC364871  28.467  36.476   5.254
 5096POPC   PO464872  28.136  37.041   5.495
 5096POPC   GL164873  28.205  36.834   5.890
 5096POPC   GL264874  28.549  36.781   5.903
 5096POPC   C1A64875  28.283  36.761   6.354
 5096POPC   D2A64876  28.518  36.849   6.733
 5096POPC   C3A64877  28.577  36.554   7.066
 5096POPC   C4A64878  28.334  36.595   7.456
 5096POPC   C1B64879  28.742  36.974   6.264
 5096POPC   C2B64880  28.652  37.295   6.514
 5096POPC   C3B64881  28.560  37.347   6.914
 5096POPC   C4B64882  28.470  37.046   7.219
 5097POPC   NC364883  35.098  40.714   5.006
 5097POPC   PO464884  35.605  40.789   5.385
 5097POPC   GL164885  35.497  40.939   5.817
 5097POPC   GL264886  35.770  41.132   5.873
 5097POPC   C1A64887  35.337  40.739   6.192
 5097POPC   D2A64888  35.320  40.472   6.547
 5097POPC   C3A64889  35.197  40.646   6.949
 5097POPC   C4A64890  35.367  40.600   7.357
 5097POPC   C1B64891  35.820  40.942   6.303
 5097POPC   C2B64892  35.979  40.960   6.713
 5097POPC   C3B64893  35.683  40.812   6.996
 5097POPC   C4B64894  35.412  41.081   7.186
 5098POPC   NC364895  42.985  25.311   5.495
 5098POPC   PO464896  43.484  24.945   5.639
 5098POPC   GL164897  43.319  25.247   5.884
 5098POPC   GL264898  43.424  25.541   5.735
 5098POPC   C1A64899  43.014  25.273   6.208
 5098POPC   D2A64900  43.003  25.052   6.592
 5098POPC   C3A64901  42.980  25.250   6.972
 5098POPC   C4A64902  43.169  25.101   7.344
 5098POPC   C1B64903  43.392  25.616   6.231
 5098POPC   C2B64904  43.195  25.660   6.688
 5098POPC   C3B64905  43.367  25.540   7.121
 5098POPC   C4B64906  43.362  25.491   7.623
 5099POPC   NC364907  30.786  32.518   5.454
 5099POPC   PO464908  30.498  31.867   5.315
 5099POPC   GL164909  30.431  32.120   5.687
 5099POPC   GL264910  30.281  32.444   5.613
 5099POPC   C1A64911  30.632  32.087   6.094
 5099POPC   D2A64912  30.748  31.815   6.451
 5099POPC   C3A64913  30.837  32.097   6.783
 5099POPC   C4A64914  30.663  32.182   7.154
 5099POPC   C1B64915  30.309  32.567   6.039
 5099POPC   C2B64916  30.160  32.569   6.468
 5099POPC   C3B64917  30.383  32.544   6.867
 5099POPC   C4B64918  30.261  32.447   7.282
 5100POPC   NC364919  36.569   1.023   5.433
 5100POPC   PO464920  36.084   1.433   5.324
 5100POPC   GL164921  36.253   1.317   5.725
 5100POPC   GL264922  35.960   1.147   5.832
 5100POPC   C1A64923  36.410   1.050   6.110
 5100POPC   D2A64924  36.400   1.083   6.575
 5100POPC   C3A64925  36.325   0.854   6.972
 5100POPC   C4A64926  36.015   0.989   7.262
 5100POPC   C1B64927  36.091   1.444   6.197
 5100POPC   C2B64928  36.182   1.549   6.627
 5100POPC   C3B64929  36.271   1.371   7.035
 5100POPC   C4B64930  36.228   1.462   7.502
 5101POPC   NC364931  33.698   6.601   5.400
 5101POPC   PO464932  34.179   7.080   5.364
 5101POPC   GL164933  33.832   6.953   5.779
 5101POPC   GL264934  33.794   6.552   5.883
 5101POPC   C1A64935  33.703   6.842   6.272
 5101POPC   D2A64936  33.974   6.623   6.600
 5101POPC   C3A64937  33.916   6.749   7.045
 5101POPC   C4A64938  33.591   6.514   7.238
 5101POPC   C1B64939  33.577   6.308   6.215
 5101POPC   C2B64940  33.725   6.117   6.615
 5101POPC   C3B64941  33.950   6.254   6.976
 5101POPC   C4B64942  34.371   6.489   6.957
 5102POPC   NC364943  20.160  18.368   5.473
 5102POPC   PO464944  19.576  17.981   5.508
 5102POPC   GL164945  19.764  18.256   5.824
 5102POPC   GL264946  20.098  18.256   5.963
 5102POPC   C1A64947  19.554  18.386   6.185
 5102POPC   D2A64948  19.318  18.471   6.573
 5102POPC   C3A64949  19.540  18.309   6.897
 5102POPC   C4A64950  19.411  18.221   7.288
 5102POPC   C1B64951  19.968  18.148   6.383
 5102POPC   C2B64952  19.889  17.908   6.762
 5102POPC   C3B64953  19.852  17.987   7.172
 5102POPC   C4B64954  19.854  18.292   7.482
 5103POPC   NC364955  41.841  17.541   5.276
 5103POPC   PO464956  41.327  17.816   5.544
 5103POPC   GL164957  41.665  17.654   5.850
 5103POPC   GL264958  41.692  17.322   5.841
 5103POPC   C1A64959  41.757  17.532   6.297
 5103POPC   D2A64960  41.660  17.269   6.660
 5103POPC   C3A64961  41.472  17.501   7.022
 5103POPC   C4A64962  41.751  17.780   7.255
 5103POPC   C1B64963  41.292  17.392   6.118
 5103POPC   C2B64964  41.158  17.371   6.560
 5103POPC   C3B64965  41.054  17.201   6.975
 5103POPC   C4B64966  41.200  17.151   7.412
 5104POPC   NC364967  27.017  15.323   5.573
 5104POPC   PO464968  26.474  14.951   5.395
 5104POPC   GL164969  26.728  14.896   5.766
 5104POPC   GL264970  26.630  15.148   5.929
 5104POPC   C1A64971  26.869  14.881   6.253
 5104POPC   D2A64972  26.670  15.166   6.597
 5104POPC   C3A64973  26.721  15.252   7.072
 5104POPC   C4A64974  26.688  15.194   7.559
 5104POPC   C1B64975  26.957  15.393   6.206
 5104POPC   C2B64976  27.157  15.407   6.603
 5104POPC   C3B64977  27.087  15.598   6.993
 5104POPC   C4B64978  27.009  15.543   7.431
 5105POPC   NC364979  35.171  28.639   5.364
 5105POPC   PO464980  35.286  27.995   5.496
 5105POPC   GL164981  35.278  28.293   5.773
 5105POPC   GL264982  35.498  28.082   5.960
 5105POPC   C1A64983  35.120  28.357   6.189
 5105POPC   D2A64984  34.932  28.507   6.587
 5105POPC   C3A64985  35.232  28.629   6.903
 5105POPC   C4A64986  35.418  28.344   7.228
 5105POPC   C1B64987  35.718  28.077   6.324
 5105POPC   C2B64988  35.699  27.946   6.729
 5105POPC   C3B64989  35.836  28.054   7.118
 5105POPC   C4B64990  35.844  28.123   7.561
 5106POPC   NC364991  39.810  40.567   5.551
 5106POPC   PO464992  39.293  40.901   5.363
 5106POPC   GL164993  39.311  40.601   5.742
 5106POPC   GL264994  38.985  40.524   5.904
 5106POPC   C1A64995  39.342  40.672   6.223
 5106POPC   D2A64996  39.047  40.807   6.580
 5106POPC   C3A64997  39.147  40.606   6.984
 5106POPC   C4A64998  39.496  40.560   7.286
 5106POPC   C1B64999  38.974  40.318   6.325
 5106POPC   C2B65000  38.728  40.389   6.716
 5106POPC   C3B65001  38.720  40.357   7.181
 5106POPC   C4B65002  39.073  40.304   7.438
 5107POPC   NC365003  10.014   5.072   5.540
 5107POPC   PO465004  10.677   5.268   5.228
 5107POPC   GL165005  10.678   5.222   5.715
 5107POPC   GL265006  10.417   4.992   5.827
 5107POPC   C1A65007  10.602   5.285   6.218
 5107POPC   D2A65008  10.607   5.512   6.629
 5107POPC   C3A65009  10.537   5.234   6.985
 5107POPC   C4A65010  10.760   5.067   7.343
 5107POPC   C1B65011  10.373   4.806   6.246
 5107POPC   C2B65012  10.576   4.833   6.667
 5107POPC   C3B65013  10.549   4.664   7.106
 5107POPC   C4B65014  10.493   4.664   7.571
 5108POPC   NC365015  44.029  30.785   5.440
 5108POPC   PO465016  43.570  30.287   5.448
 5108POPC   GL165017  43.738  30.528   5.820
 5108POPC   GL265018  44.114  30.556   5.894
 5108POPC   C1A65019  43.789  30.679   6.256
 5108POPC   D2A65020  43.791  31.020   6.532
 5108POPC   C3A65021  43.722  30.892   6.960
 5108POPC   C4A65022  43.933  30.659   7.227
 5108POPC   C1B65023  44.144  30.284   6.260
 5108POPC   C2B65024  44.312  30.272   6.675
 5108POPC   C3B65025  44.405  30.504   7.103
 5108POPC   C4B65026  44.335  30.948   7.348
 5109POPC   NC365027  11.240  13.996   5.382
 5109POPC   PO465028  11.253  14.683   5.336
 5109POPC   GL165029  11.052  14.566   5.719
 5109POPC   GL265030  11.168  14.232   5.826
 5109POPC   C1A65031  10.961  14.555   6.175
 5109POPC   D2A65032  11.220  14.616   6.543
 5109POPC   C3A65033  11.061  14.693   6.938
 5109POPC   C4A65034  11.404  14.724   7.212
 5109POPC   C1B65035  11.345  14.215   6.243
 5109POPC   C2B65036  11.386  14.048   6.656
 5109POPC   C3B65037  11.282  14.234   7.022
 5109POPC   C4B65038  10.923  14.303   7.233
 5110POPC   NC365039  34.473  38.286   5.365
 5110POPC   PO465040  34.800  38.841   5.585
 5110POPC   GL165041  34.681  38.493   5.798
 5110POPC   GL265042  34.348  38.507   5.818
 5110POPC   C1A65043  34.640  38.519   6.233
 5110POPC   D2A65044  34.877  38.641   6.565
 5110POPC   C3A65045  34.679  38.492   6.936
 5110POPC   C4A65046  34.726  38.638   7.360
 5110POPC   C1B65047  34.177  38.290   6.139
 5110POPC   C2B65048  34.249  38.399   6.550
 5110POPC   C3B65049  34.151  38.386   6.942
 5110POPC   C4B65050  34.349  38.311   7.289
 5111POPC   NC365051  14.308  12.563   5.442
 5111POPC   PO465052  14.500  13.162   5.434
 5111POPC   GL165053  14.435  12.938   5.805
 5111POPC   GL265054  14.092  12.931   5.899
 5111POPC   C1A65055  14.471  12.752   6.224
 5111POPC   D2A65056  14.387  12.908   6.638
 5111POPC   C3A65057  14.567  12.737   7.031
 5111POPC   C4A65058  14.885  12.701   7.343
 5111POPC   C1B65059  13.945  12.686   6.214
 5111POPC   C2B65060  13.957  12.326   6.465
 5111POPC   C3B65061  14.178  12.466   6.820
 5111POPC   C4B65062  14.153  12.537   7.254
 5112POPC   NC365063  15.834  14.665   5.480
 5112POPC   PO465064  16.125  14.045   5.447
 5112POPC   GL165065  16.085  14.294   5.769
 5112POPC   GL265066  16.303  14.595   5.742
 5112POPC   C1A65067  16.009  14.129   6.173
 5112POPC   D2A65068  15.753  14.143   6.553
 5112POPC   C3A65069  16.026  14.350   6.837
 5112POPC   C4A65070  16.109  14.365   7.271
 5112POPC   C1B65071  16.055  14.646   6.156
 5112POPC   C2B65072  16.001  14.854   6.582
 5112POPC   C3B65073  15.961  14.792   7.048
 5112POPC   C4B65074  16.169  14.851   7.409
 5113POPC   NC365075   6.255  31.508   5.276
 5113POPC   PO465076   6.682  31.761   5.718
 5113POPC   GL165077   6.495  31.521   6.014
 5113POPC   GL265078   6.517  31.255   5.839
 5113POPC   C1A65079   6.524  31.519   6.443
 5113POPC   D2A65080   6.836  31.790   6.629
 5113POPC   C3A65081   6.768  31.703   7.027
 5113POPC   C4A65082   6.749  31.827   7.460
 5113POPC   C1B65083   6.698  31.074   6.214
 5113POPC   C2B65084   6.493  31.000   6.608
 5113POPC   C3B65085   6.623  30.985   7.022
 5113POPC   C4B65086   6.554  31.328   7.284
 5114POPC   NC365087   1.938   9.331   5.335
 5114POPC   PO465088   1.400   9.094   5.308
 5114POPC   GL165089   1.659   8.862   5.657
 5114POPC   GL265090   1.891   9.109   5.807
 5114POPC   C1A65091   1.732   8.729   6.133
 5114POPC   D2A65092   1.765   8.961   6.558
 5114POPC   C3A65093   1.851   8.776   6.967
 5114POPC   C4A65094   1.808   9.087   7.357
 5114POPC   C1B65095   2.135   9.033   6.177
 5114POPC   C2B65096   2.301   9.179   6.561
 5114POPC   C3B65097   2.135   9.209   6.947
 5114POPC   C4B65098   2.333   9.206   7.328
 5115POPC   NC365099  10.760  27.626   5.707
 5115POPC   PO465100  10.131  27.432   5.425
 5115POPC   GL165101  10.262  27.600   5.830
 5115POPC   GL265102  10.265  27.939   5.952
 5115POPC   C1A65103  10.266  27.565   6.294
 5115POPC   D2A65104  10.466  27.771   6.648
 5115POPC   C3A65105  10.454  27.593   7.079
 5115POPC   C4A65106  10.703  27.251   7.356
 5115POPC   C1B65107  10.649  28.068   6.214
 5115POPC   C2B65108  10.767  28.215   6.609
 5115POPC   C3B65109  10.542  28.140   6.987
 5115POPC   C4B65110  10.708  27.972   7.330
 5116POPC   NC365111  33.723  37.229   5.500
 5116POPC   PO465112  34.180  36.718   5.588
 5116POPC   GL165113  33.856  36.810   5.870
 5116POPC   GL265114  33.682  36.506   5.961
 5116POPC   C1A65115  33.676  36.939   6.268
 5116POPC   D2A65116  33.630  37.095   6.678
 5116POPC   C3A65117  33.985  37.023   6.911
 5116POPC   C4A65118  33.935  37.114   7.321
 5116POPC   C1B65119  33.613  36.332   6.356
 5116POPC   C2B65120  33.746  36.601   6.688
 5116POPC   C3B65121  33.595  36.766   7.093
 5116POPC   C4B65122  33.602  36.823   7.559
 5117POPC   NC365123   6.672  16.382   5.146
 5117POPC   PO465124   6.936  16.701   5.660
 5117POPC   GL165125   6.669  16.545   5.900
 5117POPC   GL265126   6.951  16.353   6.058
 5117POPC   C1A65127   6.412  16.681   6.253
 5117POPC   D2A65128   6.569  16.910   6.585
 5117POPC   C3A65129   6.498  16.656   6.920
 5117POPC   C4A65130   6.403  16.771   7.311
 5117POPC   C1B65131   7.005  16.705   6.320
 5117POPC   C2B65132   7.031  16.759   6.757
 5117POPC   C3B65133   6.907  16.833   7.181
 5117POPC   C4B65134   6.827  16.519   7.475
 5118POPC   NC365135  34.103  16.789   5.323
 5118POPC   PO465136  34.724  16.947   5.460
 5118POPC   GL165137  34.418  16.749   5.733
 5118POPC   GL265138  34.452  17.044   5.908
 5118POPC   C1A65139  34.324  16.631   6.172
 5118POPC   D2A65140  34.718  16.607   6.428
 5118POPC   C3A65141  34.732  16.576   6.850
 5118POPC   C4A65142  34.832  16.725   7.229
 5118POPC   C1B65143  34.610  17.103   6.312
 5118POPC   C2B65144  34.917  17.036   6.652
 5118POPC   C3B65145  34.887  17.202   7.073
 5118POPC   C4B65146  34.449  17.099   7.243
 5119POPC   NC365147  44.382   3.827   5.412
 5119POPC   PO465148  44.392   3.144   5.414
 5119POPC   GL165149  44.700   3.419   5.639
 5119POPC   GL265150  44.523   3.659   5.868
 5119POPC   C1A65151  44.844   3.344   6.075
 5119POPC   D2A65152  44.621   3.436   6.455
 5119POPC   C3A65153  44.797   3.306   6.823
 5119POPC   C4A65154  44.934   3.439   7.215
 5119POPC   C1B65155  44.294   3.788   6.233
 5119POPC   C2B65156  44.166   3.629   6.626
 5119POPC   C3B65157  44.180   3.753   7.034
 5119POPC   C4B65158  44.427   3.444   7.191
 5120POPC   NC365159  10.535  17.699   5.298
 5120POPC   PO465160  10.337  17.133   5.635
 5120POPC   GL165161  10.539  17.516   5.821
 5120POPC   GL265162  10.415  17.867   5.774
 5120POPC   C1A65163  10.631  17.689   6.246
 5120POPC   D2A65164  10.715  17.479   6.646
 5120POPC   C3A65165  10.507  17.572   7.031
 5120POPC   C4A65166  10.642  17.495   7.461
 5120POPC   C1B65167  10.179  17.940   6.162
 5120POPC   C2B65168  10.257  17.797   6.602
 5120POPC   C3B65169  10.153  17.943   7.015
 5120POPC   C4B65170  10.271  17.838   7.450
 5121POPC   NC365171  37.890   4.775   5.604
 5121POPC   PO465172  37.568   5.380   5.404
 5121POPC   GL165173  37.584   5.131   5.804
 5121POPC   GL265174  37.952   5.142   5.948
 5121POPC   C1A65175  37.590   4.925   6.235
 5121POPC   D2A65176  37.369   4.908   6.638
 5121POPC   C3A65177  37.409   5.302   6.905
 5121POPC   C4A65178  37.504   5.310   7.332
 5121POPC   C1B65179  38.085   4.800   6.245
 5121POPC   C2B65180  37.887   4.749   6.643
 5121POPC   C3B65181  37.779   4.947   7.023
 5121POPC   C4B65182  37.989   4.939   7.421
 5122POPC   NC365183   8.636  16.406   5.634
 5122POPC   PO465184   9.009  15.936   5.301
 5122POPC   GL165185   9.001  15.870   5.793
 5122POPC   GL265186   9.340  15.869   5.890
 5122POPC   C1A65187   8.786  16.088   6.184
 5122POPC   D2A65188   8.898  16.173   6.615
 5122POPC   C3A65189   9.002  15.856   6.914
 5122POPC   C4A65190   8.846  15.827   7.332
 5122POPC   C1B65191   9.210  15.881   6.325
 5122POPC   C2B65192   9.388  16.087   6.665
 5122POPC   C3B65193   9.467  15.991   7.056
 5122POPC   C4B65194   9.332  15.993   7.451
 5123POPC   NC365195  37.422  24.022   5.557
 5123POPC   PO465196  37.941  23.586   5.379
 5123POPC   GL165197  37.964  23.609   5.816
 5123POPC   GL265198  38.069  23.967   5.838
 5123POPC   C1A65199  37.714  23.557   6.204
 5123POPC   D2A65200  37.467  23.382   6.573
 5123POPC   C3A65201  37.736  23.351   6.930
 5123POPC   C4A65202  37.642  23.443   7.360
 5123POPC   C1B65203  37.928  24.050   6.277
 5123POPC   C2B65204  37.724  23.840   6.642
 5123POPC   C3B65205  37.480  23.799   6.999
 5123POPC   C4B65206  37.573  23.935   7.412
 5124POPC   NC365207  38.607  29.542   5.164
 5124POPC   PO465208  38.316  28.946   5.393
 5124POPC   GL165209  38.530  29.126   5.739
 5124POPC   GL265210  38.459  29.482   5.752
 5124POPC   C1A65211  38.427  29.146   6.177
 5124POPC   D2A65212  38.263  29.050   6.590
 5124POPC   C3A65213  38.280  29.067   7.032
 5124POPC   C4A65214  38.663  28.975   7.232
 5124POPC   C1B65215  38.357  29.662   6.145
 5124POPC   C2B65216  38.560  29.512   6.496
 5124POPC   C3B65217  38.613  29.423   6.892
 5124POPC   C4B65218  38.524  29.450   7.303
 5125POPC   NC365219  17.284   1.051   5.550
 5125POPC   PO465220  18.028   1.033   5.621
 5125POPC   GL165221  17.725   1.022   5.916
 5125POPC   GL265222  17.603   1.360   5.860
 5125POPC   C1A65223  17.657   1.133   6.340
 5125POPC   D2A65224  17.614   1.363   6.740
 5125POPC   C3A65225  17.705   1.244   7.147
 5125POPC   C4A65226  17.391   1.104   7.476
 5125POPC   C1B65227  17.431   1.571   6.230
 5125POPC   C2B65228  17.208   1.653   6.609
 5125POPC   C3B65229  17.336   1.774   7.002
 5125POPC   C4B65230  17.458   1.604   7.381
 5126POPC   NC365231  39.776  10.625   5.354
 5126POPC   PO465232  39.079  10.464   5.384
 5126POPC   GL165233  39.237  10.385   5.778
 5126POPC   GL265234  39.584  10.359   5.866
 5126POPC   C1A65235  39.185  10.548   6.184
 5126POPC   D2A65236  39.158  10.874   6.485
 5126POPC   C3A65237  39.023  10.628   6.831
 5126POPC   C4A65238  38.860  10.591   7.241
 5126POPC   C1B65239  39.681  10.512   6.294
 5126POPC   C2B65240  39.555  10.671   6.739
 5126POPC   C3B65241  39.532  10.467   7.164
 5126POPC   C4B65242  39.565  10.398   7.632
 5127POPC   NC365243  36.242  33.451   5.462
 5127POPC   PO465244  36.546  34.109   5.586
 5127POPC   GL165245  36.234  33.964   5.874
 5127POPC   GL265246  36.050  33.649   5.889
 5127POPC   C1A65247  36.366  33.836   6.285
 5127POPC   D2A65248  36.617  33.922   6.639
 5127POPC   C3A65249  36.346  33.922   6.972
 5127POPC   C4A65250  36.327  33.910   7.395
 5127POPC   C1B65251  35.869  33.939   6.229
 5127POPC   C2B65252  35.970  33.855   6.642
 5127POPC   C3B65253  35.873  33.553   6.941
 5127POPC   C4B65254  35.820  33.774   7.292
 5128POPC   NC365255  35.966  39.325   5.397
 5128POPC   PO465256  35.968  38.744   5.765
 5128POPC   GL165257  35.960  39.170   5.883
 5128POPC   GL265258  36.235  39.426   5.828
 5128POPC   C1A65259  35.992  39.274   6.277
 5128POPC   D2A65260  36.150  39.188   6.658
 5128POPC   C3A65261  35.908  39.234   7.013
 5128POPC   C4A65262  36.139  39.020   7.328
 5128POPC   C1B65263  36.364  39.606   6.234
 5128POPC   C2B65264  36.240  39.689   6.653
 5128POPC   C3B65265  36.314  39.524   7.059
 5128POPC   C4B65266  36.345  39.439   7.511
 5129POPC   NC365267  16.102  30.039   5.090
 5129POPC   PO465268  15.604  29.749   5.440
 5129POPC   GL165269  15.877  29.821   5.755
 5129POPC   GL265270  15.996  30.097   5.602
 5129POPC   C1A65271  15.829  29.757   6.213
 5129POPC   D2A65272  15.726  29.785   6.668
 5129POPC   C3A65273  16.024  29.953   6.987
 5129POPC   C4A65274  15.921  29.949   7.427
 5129POPC   C1B65275  16.032  30.206   6.063
 5129POPC   C2B65276  15.864  30.263   6.484
 5129POPC   C3B65277  16.049  30.455   6.832
 5129POPC   C4B65278  16.043  30.418   7.246
 5130POPC   NC365279  44.311  10.256   5.385
 5130POPC   PO465280  43.739  10.547   5.470
 5130POPC   GL165281  43.918  10.263   5.744
 5130POPC   GL265282  44.143  10.517   5.841
 5130POPC   C1A65283  43.900  10.217   6.176
 5130POPC   D2A65284  43.995  10.522   6.492
 5130POPC   C3A65285  43.866  10.346   6.886
 5130POPC   C4A65286  43.853  10.523   7.291
 5130POPC   C1B65287  44.358  10.769   6.157
 5130POPC   C2B65288  44.407  10.849   6.597
 5130POPC   C3B65289  44.203  10.728   6.972
 5130POPC   C4B65290  44.316  10.677   7.421
 5131POPC   NC365291   9.955  41.162   5.386
 5131POPC   PO465292  10.147  40.579   5.241
 5131POPC   GL165293   9.908  40.698   5.688
 5131POPC   GL265294   9.595  40.904   5.730
 5131POPC   C1A65295  10.006  40.708   6.167
 5131POPC   D2A65296   9.807  40.659   6.582
 5131POPC   C3A65297   9.988  40.801   7.005
 5131POPC   C4A65298  10.023  40.803   7.471
 5131POPC   C1B65299   9.483  40.668   6.126
 5131POPC   C2B65300   9.295  40.790   6.527
 5131POPC   C3B65301   9.434  40.835   6.942
 5131POPC   C4B65302   9.513  40.827   7.356
 5132POPC   NC365303   2.326  43.668   5.583
 5132POPC   PO465304   1.947  44.201   5.406
 5132POPC   GL165305   2.034  43.987   5.827
 5132POPC   GL265306   1.789  43.781   5.911
 5132POPC   C1A65307   2.341  43.992   6.205
 5132POPC   D2A65308   2.445  43.728   6.599
 5132POPC   C3A65309   2.290  43.791   7.039
 5132POPC   C4A65310   2.091  44.138   7.277
 5132POPC   C1B65311   1.931  43.744   6.288
 5132POPC   C2B65312   1.945  43.639   6.643
 5132POPC   C3B65313   1.787  43.649   6.998
 5132POPC   C4B65314   1.794  43.683   7.385
 5133POPC   NC365315   2.378  30.214   5.393
 5133POPC   PO465316   2.949  29.783   5.422
 5133POPC   GL165317   2.918  29.874   5.808
 5133POPC   GL265318   2.622  30.018   5.775
 5133POPC   C1A65319   2.723  29.738   6.175
 5133POPC   D2A65320   2.903  29.774   6.560
 5133POPC   C3A65321   2.584  29.801   6.877
 5133POPC   C4A65322   2.692  29.739   7.293
 5133POPC   C1B65323   2.359  30.148   6.106
 5133POPC   C2B65324   2.273  30.073   6.541
 5133POPC   C3B65325   2.311  30.242   6.947
 5133POPC   C4B65326   2.639  30.254   7.278
 5134POPC   NC365327  10.222  37.849   5.486
 5134POPC   PO465328   9.479  37.679   5.357
 5134POPC   GL165329   9.571  37.678   5.776
 5134POPC   GL265330   9.853  37.894   5.844
 5134POPC   C1A65331   9.496  37.754   6.206
 5134POPC   D2A65332   9.680  37.568   6.585
 5134POPC   C3A65333   9.557  37.741   6.973
 5134POPC   C4A65334   9.678  37.643   7.383
 5134POPC   C1B65335  10.021  37.797   6.261
 5134POPC   C2B65336   9.993  37.964   6.682
 5134POPC   C3B65337  10.029  37.969   7.110
 5134POPC   C4B65338   9.820  38.144   7.424
 5135POPC   NC365339  30.464  30.191   5.702
 5135POPC   PO465340  30.849  29.985   5.221
 5135POPC   GL165341  30.686  29.729   5.696
 5135POPC   GL265342  30.410  29.687   5.878
 5135POPC   C1A65343  30.829  29.559   6.145
 5135POPC   D2A65344  30.804  29.696   6.614
 5135POPC   C3A65345  30.695  29.527   7.006
 5135POPC   C4A65346  30.794  29.677   7.422
 5135POPC   C1B65347  30.517  29.932   6.268
 5135POPC   C2B65348  30.672  30.192   6.592
 5135POPC   C3B65349  30.614  30.081   7.010
 5135POPC   C4B65350  30.341  29.808   7.256
 5136POPC   NC365351  29.154  14.109   5.515
 5136POPC   PO465352  28.940  14.856   5.428
 5136POPC   GL165353  28.931  14.560   5.754
 5136POPC   GL265354  29.277  14.544   5.762
 5136POPC   C1A65355  29.011  14.314   6.141
 5136POPC   D2A65356  29.299  14.281   6.490
 5136POPC   C3A65357  29.110  14.236   6.894
 5136POPC   C4A65358  29.106  14.129   7.316
 5136POPC   C1B65359  29.403  14.690   6.173
 5136POPC   C2B65360  29.664  14.673   6.541
 5136POPC   C3B65361  29.404  14.659   6.876
 5136POPC   C4B65362  29.218  14.619   7.247
 5137POPC   NC365363  44.238  18.129   5.451
 5137POPC   PO465364  44.916  18.318   5.461
 5137POPC   GL165365  44.774  18.236   5.832
 5137POPC   GL265366  44.633  17.924   5.717
 5137POPC   C1A65367  44.796  18.306   6.288
 5137POPC   D2A65368  44.690  18.505   6.679
 5137POPC   C3A65369  44.698  18.295   7.075
 5137POPC   C4A65370  44.952  17.980   7.167
 5137POPC   C1B65371  44.475  17.934   6.135
 5137POPC   C2B65372  44.566  17.968   6.600
 5137POPC   C3B65373  44.455  17.833   7.010
 5137POPC   C4B65374  44.227  17.986   7.343
 5138POPC   NC365375  10.103  30.112   5.632
 5138POPC   PO465376  10.720  30.064   5.411
 5138POPC   GL165377  10.632  29.928   5.817
 5138POPC   GL265378  10.357  29.774   5.886
 5138POPC   C1A65379  10.751  29.838   6.235
 5138POPC   D2A65380  10.662  30.125   6.580
 5138POPC   C3A65381  10.721  29.905   6.942
 5138POPC   C4A65382  10.622  29.975   7.329
 5138POPC   C1B65383  10.255  29.911   6.287
 5138POPC   C2B65384  10.381  29.682   6.646
 5138POPC   C3B65385  10.296  29.611   7.086
 5138POPC   C4B65386  10.343  29.607   7.534
 5139POPC   NC365387  26.219  27.593   5.424
 5139POPC   PO465388  25.546  27.344   5.480
 5139POPC   GL165389  25.855  27.386   5.837
 5139POPC   GL265390  25.967  27.688   5.851
 5139POPC   C1A65391  26.100  27.439   6.269
 5139POPC   D2A65392  26.022  27.775   6.584
 5139POPC   C3A65393  25.940  27.669   7.032
 5139POPC   C4A65394  26.084  27.292   7.219
 5139POPC   C1B65395  26.371  27.831   6.087
 5139POPC   C2B65396  26.554  27.803   6.509
 5139POPC   C3B65397  26.438  27.557   6.878
 5139POPC   C4B65398  26.381  27.777   7.275
 5140POPC   NC365399   3.085  33.690   5.543
 5140POPC   PO465400   3.741  33.857   5.387
 5140POPC   GL165401   3.621  34.049   5.783
 5140POPC   GL265402   3.491  33.740   5.914
 5140POPC   C1A65403   3.427  34.192   6.168
 5140POPC   D2A65404   3.451  33.952   6.537
 5140POPC   C3A65405   3.611  34.033   6.921
 5140POPC   C4A65406   3.524  33.999   7.339
 5140POPC   C1B65407   3.266  33.543   6.277
 5140POPC   C2B65408   3.152  33.587   6.713
 5140POPC   C3B65409   3.393  33.573   7.140
 5140POPC   C4B65410   3.390  33.661   7.665
 5141POPC   NC365411  30.862  31.527   5.344
 5141POPC   PO465412  30.578  30.933   5.407
 5141POPC   GL165413  30.564  31.234   5.803
 5141POPC   GL265414  30.346  31.542   5.689
 5141POPC   C1A65415  30.704  31.322   6.278
 5141POPC   D2A65416  30.648  31.177   6.720
 5141POPC   C3A65417  30.883  31.326   7.067
 5141POPC   C4A65418  31.026  31.756   7.126
 5141POPC   C1B65419  30.349  31.639   6.114
 5141POPC   C2B65420  30.299  31.563   6.565
 5141POPC   C3B65421  30.519  31.704   6.944
 5141POPC   C4B65422  30.342  31.831   7.367
 5142POPC   NC365423  26.471  38.061   5.335
 5142POPC   PO465424  26.801  38.669   5.453
 5142POPC   GL165425  26.762  38.638   5.883
 5142POPC   GL265426  26.855  38.306   5.823
 5142POPC   C1A65427  26.660  38.731   6.324
 5142POPC   D2A65428  26.998  38.606   6.625
 5142POPC   C3A65429  26.913  38.394   6.988
 5142POPC   C4A65430  27.057  38.509   7.391
 5142POPC   C1B65431  26.955  38.274   6.238
 5142POPC   C2B65432  26.975  37.957   6.534
 5142POPC   C3B65433  27.096  37.892   6.932
 5142POPC   C4B65434  26.855  37.994   7.298
 5143POPC   NC365435  37.969  38.616   5.599
 5143POPC   PO465436  38.610  38.661   5.409
 5143POPC   GL165437  38.484  38.527   5.825
 5143POPC   GL265438  38.292  38.775   5.982
 5143POPC   C1A65439  38.618  38.397   6.252
 5143POPC   D2A65440  38.746  38.512   6.647
 5143POPC   C3A65441  38.763  38.256   7.022
 5143POPC   C4A65442  38.638  38.398   7.421
 5143POPC   C1B65443  38.097  38.465   6.251
 5143POPC   C2B65444  38.246  38.383   6.655
 5143POPC   C3B65445  38.400  38.598   7.021
 5143POPC   C4B65446  38.160  38.561   7.391
 5144POPC   NC365447   8.466  32.377   5.445
 5144POPC   PO465448   9.043  31.920   5.356
 5144POPC   GL165449   8.839  32.127   5.731
 5144POPC   GL265450   8.789  32.515   5.818
 5144POPC   C1A65451   8.814  32.163   6.204
 5144POPC   D2A65452   9.056  32.002   6.560
 5144POPC   C3A65453   9.065  32.129   6.996
 5144POPC   C4A65454   9.349  32.088   7.390
 5144POPC   C1B65455   8.671  32.669   6.240
 5144POPC   C2B65456   8.771  32.570   6.685
 5144POPC   C3B65457   8.921  32.595   7.112
 5144POPC   C4B65458   8.702  32.668   7.510
 5145POPC   NC365459   3.065  36.486   5.749
 5145POPC   PO465460   2.520  36.159   5.455
 5145POPC   GL165461   2.708  36.110   5.856
 5145POPC   GL265462   2.573  36.437   5.915
 5145POPC   C1A65463   2.903  35.911   6.244
 5145POPC   D2A65464   2.908  35.702   6.676
 5145POPC   C3A65465   2.907  35.943   7.042
 5145POPC   C4A65466   3.107  36.264   7.216
 5145POPC   C1B65467   2.740  36.406   6.315
 5145POPC   C2B65468   2.958  36.263   6.641
 5145POPC   C3B65469   2.737  36.453   6.935
 5145POPC   C4B65470   2.584  36.282   7.283
 5146POPC   NC365471  24.653  26.653   5.507
 5146POPC   PO465472  24.121  27.035   5.443
 5146POPC   GL165473  24.335  26.873   5.813
 5146POPC   GL265474  24.214  26.548   5.826
 5146POPC   C1A65475  24.558  26.894   6.227
 5146POPC   D2A65476  24.646  27.130   6.631
 5146POPC   C3A65477  24.485  26.875   6.962
 5146POPC   C4A65478  24.656  26.708   7.270
 5146POPC   C1B65479  24.270  26.441   6.252
 5146POPC   C2B65480  24.293  26.481   6.699
 5146POPC   C3B65481  24.251  26.410   7.146
 5146POPC   C4B65482  24.183  26.485   7.594
 5147POPC   NC365483  11.067  34.568   5.568
 5147POPC   PO465484  11.660  34.529   5.701
 5147POPC   GL165485  11.363  34.666   6.000
 5147POPC   GL265486  10.987  34.709   6.040
 5147POPC   C1A65487  11.325  34.757   6.447
 5147POPC   D2A65488  11.551  34.710   6.836
 5147POPC   C3A65489  11.456  34.338   7.115
 5147POPC   C4A65490  11.391  33.860   7.090
 5147POPC   C1B65491  11.107  34.289   6.231
 5147POPC   C2B65492  11.249  34.284   6.639
 5147POPC   C3B65493  11.035  34.590   6.896
 5147POPC   C4B65494  10.906  34.541   7.309
 5148POPC   NC365495  34.602  21.765   5.351
 5148POPC   PO465496  34.348  21.141   5.501
 5148POPC   GL165497  34.607  21.402   5.781
 5148POPC   GL265498  34.407  21.694   5.813
 5148POPC   C1A65499  34.748  21.580   6.190
 5148POPC   D2A65500  34.955  21.637   6.594
 5148POPC   C3A65501  34.704  21.479   6.941
 5148POPC   C4A65502  34.785  21.312   7.331
 5148POPC   C1B65503  34.218  21.661   6.202
 5148POPC   C2B65504  34.305  21.519   6.599
 5148POPC   C3B65505  34.273  21.742   6.972
 5148POPC   C4B65506  34.398  21.627   7.399
 5149POPC   NC365507  23.093  13.767   5.458
 5149POPC   PO465508  22.556  13.310   5.498
 5149POPC   GL165509  22.653  13.678   5.823
 5149POPC   GL265510  23.006  13.749   5.968
 5149POPC   C1A65511  22.566  13.733   6.302
 5149POPC   D2A65512  22.797  13.728   6.730
 5149POPC   C3A65513  22.673  13.763   7.194
 5149POPC   C4A65514  22.665  13.490   7.541
 5149POPC   C1B65515  23.183  13.649   6.389
 5149POPC   C2B65516  23.312  13.570   6.809
 5149POPC   C3B65517  23.087  13.492   7.173
 5149POPC   C4B65518  23.111  13.776   7.562
 5150POPC   NC365519   7.343   2.108   5.294
 5150POPC   PO465520   7.319   1.413   5.289
 5150POPC   GL165521   7.238   1.639   5.747
 5150POPC   GL265522   7.268   2.000   5.779
 5150POPC   C1A65523   7.503   1.767   6.159
 5150POPC   D2A65524   7.724   2.014   6.515
 5150POPC   C3A65525   7.688   1.819   6.934
 5150POPC   C4A65526   7.607   1.967   7.347
 5150POPC   C1B65527   7.429   2.278   6.113
 5150POPC   C2B65528   7.362   2.382   6.548
 5150POPC   C3B65529   7.448   2.303   6.979
 5150POPC   C4B65530   7.219   2.287   7.379
 5151POPC   NC365531  15.903   7.840   5.194
 5151POPC   PO465532  15.862   8.449   5.467
 5151POPC   GL165533  16.084   8.316   5.772
 5151POPC   GL265534  15.988   7.966   5.721
 5151POPC   C1A65535  16.199   8.461   6.186
 5151POPC   D2A65536  16.351   8.263   6.529
 5151POPC   C3A65537  16.217   8.412   6.905
 5151POPC   C4A65538  16.198   8.136   7.276
 5151POPC   C1B65539  15.835   8.085   6.154
 5151POPC   C2B65540  15.803   8.269   6.553
 5151POPC   C3B65541  15.799   8.086   6.947
 5151POPC   C4B65542  15.699   7.989   7.369
 5152POPC   NC365543  10.231   2.030   5.135
 5152POPC   PO465544  10.867   1.989   5.398
 5152POPC   GL165545  10.636   2.008   5.783
 5152POPC   GL265546  10.506   2.339   5.920
 5152POPC   C1A65547  10.746   1.917   6.206
 5152POPC   D2A65548  10.597   1.711   6.573
 5152POPC   C3A65549  10.744   1.880   6.972
 5152POPC   C4A65550  10.616   1.802   7.379
 5152POPC   C1B65551  10.300   2.170   6.269
 5152POPC   C2B65552  10.375   2.181   6.715
 5152POPC   C3B65553  10.251   2.075   7.123
 5152POPC   C4B65554  10.302   2.209   7.554
 5153POPC   NC365555  34.431  25.390   5.347
 5153POPC   PO465556  34.059  24.889   5.670
 5153POPC   GL165557  34.404  25.174   5.866
 5153POPC   GL265558  34.703  25.414   5.888
 5153POPC   C1A65559  34.435  25.195   6.317
 5153POPC   D2A65560  34.218  24.900   6.629
 5153POPC   C3A65561  34.342  24.990   7.046
 5153POPC   C4A65562  34.418  25.113   7.472
 5153POPC   C1B65563  34.880  25.661   6.272
 5153POPC   C2B65564  34.565  25.587   6.634
 5153POPC   C3B65565  34.607  25.419   7.050
 5153POPC   C4B65566  34.865  25.719   7.185
 5154POPC   NC365567  31.779   3.333   5.265
 5154POPC   PO465568  32.273   3.611   5.565
 5154POPC   GL165569  32.071   3.398   5.844
 5154POPC   GL265570  32.357   3.259   6.012
 5154POPC   C1A65571  32.055   3.607   6.235
 5154POPC   D2A65572  32.276   3.554   6.559
 5154POPC   C3A65573  32.005   3.676   6.881
 5154POPC   C4A65574  32.153   3.733   7.278
 5154POPC   C1B65575  31.960   3.130   6.299
 5154POPC   C2B65576  31.945   3.172   6.763
 5154POPC   C3B65577  32.339   3.296   7.000
 5154POPC   C4B65578  32.546   3.429   7.383
 5155POPC   NC365579  11.207   5.829   5.502
 5155POPC   PO465580  11.378   6.510   5.542
 5155POPC   GL165581  11.117   6.288   5.888
 5155POPC   GL265582  11.015   5.921   5.957
 5155POPC   C1A65583  11.202   6.173   6.352
 5155POPC   D2A65584  11.545   5.996   6.624
 5155POPC   C3A65585  11.461   6.177   7.028
 5155POPC   C4A65586  11.022   6.105   7.139
 5155POPC   C1B65587  11.207   5.661   6.280
 5155POPC   C2B65588  11.103   5.718   6.712
 5155POPC   C3B65589  11.352   5.682   7.069
 5155POPC   C4B65590  11.645   5.687   7.428
 5156POPC   NC365591  12.118  43.349   5.457
 5156POPC   PO465592  11.845  42.810   5.185
 5156POPC   GL165593  11.903  42.888   5.687
 5156POPC   GL265594  11.591  42.845   5.884
 5156POPC   C1A65595  12.178  43.052   6.096
 5156POPC   D2A65596  12.144  43.248   6.514
 5156POPC   C3A65597  12.217  43.091   6.941
 5156POPC   C4A65598  12.373  43.244   7.322
 5156POPC   C1B65599  11.731  42.929   6.297
 5156POPC   C2B65600  11.832  42.786   6.672
 5156POPC   C3B65601  11.768  42.854   7.074
 5156POPC   C4B65602  12.003  42.919   7.444
 5157POPC   NC365603  39.119  31.798   5.384
 5157POPC   PO465604  39.442  31.210   5.418
 5157POPC   GL165605  39.242  31.200   5.814
 5157POPC   GL265606  39.095  31.520   5.823
 5157POPC   C1A65607  39.206  31.155   6.258
 5157POPC   D2A65608  39.209  31.367   6.644
 5157POPC   C3A65609  39.235  31.211   7.044
 5157POPC   C4A65610  39.310  31.424   7.458
 5157POPC   C1B65611  39.090  31.702   6.231
 5157POPC   C2B65612  39.039  31.832   6.651
 5157POPC   C3B65613  39.212  31.739   7.049
 5157POPC   C4B65614  39.558  31.885   7.336
 5158POPC   NC365615  35.044   3.688   5.122
 5158POPC   PO465616  35.603   3.492   5.350
 5158POPC   GL165617  35.409   3.666   5.770
 5158POPC   GL265618  35.015   3.650   5.830
 5158POPC   C1A65619  35.363   3.588   6.232
 5158POPC   D2A65620  35.074   3.343   6.495
 5158POPC   C3A65621  35.185   3.281   6.915
 5158POPC   C4A65622  35.239   3.564   7.252
 5158POPC   C1B65623  34.964   3.886   6.249
 5158POPC   C2B65624  35.079   3.825   6.698
 5158POPC   C3B65625  34.836   3.923   7.072
 5158POPC   C4B65626  34.905   3.935   7.526
 5159POPC   NC365627   6.159  36.414   5.634
 5159POPC   PO465628   6.609  35.961   5.410
 5159POPC   GL165629   6.523  36.121   5.821
 5159POPC   GL265630   6.726  36.420   5.835
 5159POPC   C1A65631   6.306  36.201   6.240
 5159POPC   D2A65632   6.452  35.967   6.607
 5159POPC   C3A65633   6.320  35.915   7.045
 5159POPC   C4A65634   6.402  36.118   7.455
 5159POPC   C1B65635   6.814  36.204   6.228
 5159POPC   C2B65636   6.637  36.480   6.552
 5159POPC   C3B65637   6.541  36.364   6.940
 5159POPC   C4B65638   6.839  36.159   7.182
 5160POPC   NC365639  35.020   4.433   5.475
 5160POPC   PO465640  35.695   4.576   5.488
 5160POPC   GL165641  35.432   4.378   5.856
 5160POPC   GL265642  35.158   4.142   5.858
 5160POPC   C1A65643  35.369   4.223   6.316
 5160POPC   D2A65644  35.663   4.191   6.667
 5160POPC   C3A65645  35.538   4.417   7.027
 5160POPC   C4A65646  35.305   4.077   7.202
 5160POPC   C1B65647  34.986   4.521   6.092
 5160POPC   C2B65648  34.935   4.609   6.492
 5160POPC   C3B65649  35.085   4.337   6.798
 5160POPC   C4B65650  35.039   4.508   7.214
 5161POPC   NC365651  20.399  33.063   5.394
 5161POPC   PO465652  19.749  33.282   5.276
 5161POPC   GL165653  19.862  33.129   5.692
 5161POPC   GL265654  19.717  32.805   5.791
 5161POPC   C1A65655  19.961  33.205   6.153
 5161POPC   D2A65656  19.874  32.992   6.530
 5161POPC   C3A65657  20.004  33.150   6.934
 5161POPC   C4A65658  19.817  33.213   7.309
 5161POPC   C1B65659  19.915  32.605   6.142
 5161POPC   C2B65660  19.793  32.461   6.554
 5161POPC   C3B65661  19.774  32.689   6.933
 5161POPC   C4B65662  20.061  32.750   7.265
 5162POPC   NC365663  12.130  26.432   5.612
 5162POPC   PO465664  12.029  27.067   5.575
 5162POPC   GL165665  12.060  27.033   5.969
 5162POPC   GL265666  12.012  26.689   6.028
 5162POPC   C1A65667  12.290  27.038   6.339
 5162POPC   D2A65668  12.339  26.891   6.740
 5162POPC   C3A65669  11.933  26.897   6.918
 5162POPC   C4A65670  11.798  27.200   7.205
 5162POPC   C1B65671  11.947  26.652   6.445
 5162POPC   C2B65672  12.056  26.404   6.760
 5162POPC   C3B65673  12.230  26.530   7.119
 5162POPC   C4B65674  11.970  26.760   7.429
 5163POPC   NC365675  41.054  39.712   5.226
 5163POPC   PO465676  40.537  40.037   5.299
 5163POPC   GL165677  40.658  39.797   5.701
 5163POPC   GL265678  41.043  39.703   5.739
 5163POPC   C1A65679  40.608  39.883   6.175
 5163POPC   D2A65680  40.593  40.219   6.505
 5163POPC   C3A65681  40.485  40.131   6.950
 5163POPC   C4A65682  40.439  40.036   7.404
 5163POPC   C1B65683  41.110  39.971   6.126
 5163POPC   C2B65684  41.100  40.151   6.565
 5163POPC   C3B65685  40.993  39.971   6.959
 5163POPC   C4B65686  40.969  40.107   7.375
 5164POPC   NC365687  16.305  26.886   5.495
 5164POPC   PO465688  16.947  27.188   5.507
 5164POPC   GL165689  16.856  26.974   5.918
 5164POPC   GL265690  16.570  26.733   5.906
 5164POPC   C1A65691  16.847  26.775   6.326
 5164POPC   D2A65692  16.710  26.542   6.662
 5164POPC   C3A65693  16.938  26.637   7.004
 5164POPC   C4A65694  16.961  27.024   7.228
 5164POPC   C1B65695  16.335  26.860   6.278
 5164POPC   C2B65696  16.125  26.975   6.659
 5164POPC   C3B65697  16.336  26.992   7.083
 5164POPC   C4B65698  16.537  26.632   7.327
 5165POPC   NC365699   9.481  31.908   5.535
 5165POPC   PO465700   9.598  32.567   5.580
 5165POPC   GL165701   9.866  32.408   5.928
 5165POPC   GL265702   9.937  32.081   5.759
 5165POPC   C1A65703   9.701  32.341   6.379
 5165POPC   D2A65704   9.320  32.481   6.667
 5165POPC   C3A65705   9.450  32.531   7.108
 5165POPC   C4A65706   9.759  32.395   7.432
 5165POPC   C1B65707   9.854  31.868   6.155
 5165POPC   C2B65708   9.536  31.832   6.485
 5165POPC   C3B65709   9.455  31.786   6.927
 5165POPC   C4B65710   9.786  31.945   7.203
 5166POPC   NC365711  21.327  25.307   5.276
 5166POPC   PO465712  21.883  25.205   5.628
 5166POPC   GL165713  21.501  25.344   5.770
 5166POPC   GL265714  21.155  25.170   5.735
 5166POPC   C1A65715  21.603  25.429   6.183
 5166POPC   D2A65716  21.681  25.217   6.547
 5166POPC   C3A65717  21.740  25.358   6.960
 5166POPC   C4A65718  21.512  25.063   7.205
 5166POPC   C1B65719  21.106  25.479   6.065
 5166POPC   C2B65720  21.231  25.536   6.504
 5166POPC   C3B65721  21.246  25.393   6.879
 5166POPC   C4B65722  21.083  25.393   7.249
 5167POPC   NC365723  19.634   0.020   5.595
 5167POPC   PO465724  20.118  44.516   5.675
 5167POPC   GL165725  19.773  44.580   5.961
 5167POPC   GL265726  19.907  44.555   6.262
 5167POPC   C1A65727  19.464  44.807   6.221
 5167POPC   D2A65728  19.468  44.798   6.636
 5167POPC   C3A65729  19.849  44.652   6.789
 5167POPC   C4A65730  19.794  44.606   7.225
 5167POPC   C1B65731  20.303  44.778   6.229
 5167POPC   C2B65732  20.420  44.758   6.599
 5167POPC   C3B65733  20.264  44.918   6.967
 5167POPC   C4B65734  20.216  44.818   7.397
 5168POPC   NC365735  10.007  32.818   5.590
 5168POPC   PO465736   9.488  33.268   5.414
 5168POPC   GL165737   9.692  33.282   5.781
 5168POPC   GL265738   9.652  32.939   5.941
 5168POPC   C1A65739   9.470  33.363   6.151
 5168POPC   D2A65740   9.488  33.096   6.489
 5168POPC   C3A65741   9.771  33.227   6.810
 5168POPC   C4A65742   9.636  33.055   7.189
 5168POPC   C1B65743   9.898  32.818   6.318
 5168POPC   C2B65744   9.784  32.723   6.769
 5168POPC   C3B65745  10.048  32.756   7.160
 5168POPC   C4B65746  10.160  32.685   7.591
 5169POPC   NC365747  25.741  38.723   5.433
 5169POPC   PO465748  26.034  38.097   5.170
 5169POPC   GL165749  26.030  38.316   5.626
 5169POPC   GL265750  26.350  38.376   5.730
 5169POPC   C1A65751  26.013  38.541   6.099
 5169POPC   D2A65752  26.148  38.619   6.578
 5169POPC   C3A65753  25.969  38.323   6.938
 5169POPC   C4A65754  25.842  38.358   7.384
 5169POPC   C1B65755  26.451  38.283   6.159
 5169POPC   C2B65756  26.570  38.302   6.592
 5169POPC   C3B65757  26.472  38.103   6.953
 5169POPC   C4B65758  26.354  38.261   7.330
 5170POPC   NC365759  35.774  43.810   5.464
 5170POPC   PO465760  36.444  43.618   5.614
 5170POPC   GL165761  36.178  43.849   5.903
 5170POPC   GL265762  35.827  44.010   5.915
 5170POPC   C1A65763  36.400  43.940   6.276
 5170POPC   D2A65764  36.454  43.673   6.635
 5170POPC   C3A65765  36.507  43.924   7.020
 5170POPC   C4A65766  36.532  43.559   7.287
 5170POPC   C1B65767  35.901  43.982   6.325
 5170POPC   C2B65768  36.061  43.988   6.718
 5170POPC   C3B65769  36.072  43.694   7.065
 5170POPC   C4B65770  35.940  43.850   7.465
 5171POPC   NC365771  11.861   9.562   5.559
 5171POPC   PO465772  12.079   8.838   5.539
 5171POPC   GL165773  12.310   8.944   5.918
 5171POPC   GL265774  12.191   9.279   5.886
 5171POPC   C1A65775  12.465   9.168   6.284
 5171POPC   D2A65776  12.185   9.165   6.609
 5171POPC   C3A65777  12.338   8.965   6.978
 5171POPC   C4A65778  12.172   8.790   7.353
 5171POPC   C1B65779  11.819   9.218   6.153
 5171POPC   C2B65780  11.663   9.245   6.590
 5171POPC   C3B65781  11.882   9.246   7.029
 5171POPC   C4B65782  11.882   9.181   7.492
 5172POPC   NC365783  13.527  25.336   5.309
 5172POPC   PO465784  13.955  24.957   5.634
 5172POPC   GL165785  13.765  25.322   5.764
 5172POPC   GL265786  13.461  25.182   5.811
 5172POPC   C1A65787  13.664  25.565   6.113
 5172POPC   D2A65788  13.456  25.551   6.497
 5172POPC   C3A65789  13.541  25.291   6.851
 5172POPC   C4A65790  13.537  25.406   7.286
 5172POPC   C1B65791  13.630  25.084   6.249
 5172POPC   C2B65792  13.718  24.844   6.634
 5172POPC   C3B65793  13.532  24.815   7.056
 5172POPC   C4B65794  13.755  24.958   7.437
 5173POPC   NC365795   0.427   4.034   5.090
 5173POPC   PO465796   0.193   3.423   5.302
 5173POPC   GL165797   0.399   3.349   5.719
 5173POPC   GL265798   0.605   3.658   5.787
 5173POPC   C1A65799   0.330   3.413   6.182
 5173POPC   D2A65800   0.153   3.601   6.557
 5173POPC   C3A65801   0.357   3.414   6.915
 5173POPC   C4A65802   0.363   3.180   7.268
 5173POPC   C1B65803   0.429   3.912   6.173
 5173POPC   C2B65804   0.397   4.131   6.564
 5173POPC   C3B65805   0.372   3.911   6.954
 5173POPC   C4B65806   0.222   3.828   7.358
 5174POPC   NC365807  35.770   3.054   5.458
 5174POPC   PO465808  35.083   2.695   5.455
 5174POPC   GL165809  35.201   2.691   5.920
 5174POPC   GL265810  35.523   2.852   5.878
 5174POPC   C1A65811  35.455   2.560   6.297
 5174POPC   D2A65812  35.543   2.759   6.685
 5174POPC   C3A65813  35.547   2.531   7.045
 5174POPC   C4A65814  35.317   2.551   7.458
 5174POPC   C1B65815  35.419   3.068   6.229
 5174POPC   C2B65816  35.579   3.252   6.578
 5174POPC   C3B65817  35.725   3.157   6.949
 5174POPC   C4B65818  35.491   2.989   7.252
 5175POPC   NC365819  15.608  11.667   5.582
 5175POPC   PO465820  16.202  11.389   5.349
 5175POPC   GL165821  16.198  11.364   5.769
 5175POPC   GL265822  15.876  11.322   5.863
 5175POPC   C1A65823  16.260  11.472   6.207
 5175POPC   D2A65824  16.068  11.458   6.607
 5175POPC   C3A65825  16.282  11.505   6.991
 5175POPC   C4A65826  16.066  11.276   7.302
 5175POPC   C1B65827  15.695  11.506   6.230
 5175POPC   C2B65828  15.590  11.261   6.560
 5175POPC   C3B65829  15.680  11.219   6.973
 5175POPC   C4B65830  15.428  11.484   7.239
 5176POPC   NC365831   6.159  11.627   5.392
 5176POPC   PO465832   6.584  11.134   5.636
 5176POPC   GL165833   6.670  11.449   5.911
 5176POPC   GL265834   7.003  11.509   5.813
 5176POPC   C1A65835   6.635  11.394   6.361
 5176POPC   D2A65836   6.369  11.097   6.578
 5176POPC   C3A65837   6.360  11.133   7.015
 5176POPC   C4A65838   6.336  11.516   7.216
 5176POPC   C1B65839   7.021  11.123   6.121
 5176POPC   C2B65840   7.116  11.020   6.539
 5176POPC   C3B65841   6.853  11.133   6.867
 5176POPC   C4B65842   6.807  11.010   7.289
 5177POPC   NC365843  34.749   9.347   5.533
 5177POPC   PO465844  34.259   8.925   5.535
 5177POPC   GL165845  34.531   9.021   5.916
 5177POPC   GL265846  34.592   9.368   6.008
 5177POPC   C1A65847  34.621   9.000   6.394
 5177POPC   D2A65848  34.658   8.819   6.808
 5177POPC   C3A65849  34.659   9.031   7.199
 5177POPC   C4A65850  34.617   8.788   7.616
 5177POPC   C1B65851  34.238   9.287   6.237
 5177POPC   C2B65852  34.199   9.182   6.687
 5177POPC   C3B65853  34.034   9.277   7.094
 5177POPC   C4B65854  34.236   9.090   7.436
 5178POPC   NC365855  33.316   8.088   5.466
 5178POPC   PO465856  33.927   8.111   5.181
 5178POPC   GL165857  33.842   8.119   5.669
 5178POPC   GL265858  33.573   7.997   5.871
 5178POPC   C1A65859  33.940   8.241   6.132
 5178POPC   D2A65860  33.781   8.268   6.549
 5178POPC   C3A65861  34.004   8.261   6.939
 5178POPC   C4A65862  33.884   8.251   7.386
 5178POPC   C1B65863  33.458   7.851   6.251
 5178POPC   C2B65864  33.553   7.766   6.642
 5178POPC   C3B65865  33.609   7.964   7.010
 5178POPC   C4B65866  33.531   7.837   7.391
 5179POPC   NC365867  36.856  12.671   5.502
 5179POPC   PO465868  37.340  13.091   5.458
 5179POPC   GL165869  37.069  13.036   5.805
 5179POPC   GL265870  36.769  13.165   5.876
 5179POPC   C1A65871  37.127  12.817   6.170
 5179POPC   D2A65872  37.325  12.842   6.542
 5179POPC   C3A65873  37.126  12.930   6.915
 5179POPC   C4A65874  37.145  12.746   7.297
 5179POPC   C1B65875  36.638  12.808   6.169
 5179POPC   C2B65876  36.518  12.831   6.582
 5179POPC   C3B65877  36.648  12.722   6.965
 5179POPC   C4B65878  36.661  12.897   7.342
 5180POPC   NC365879  11.453  26.069   5.508
 5180POPC   PO465880  10.963  25.728   5.313
 5180POPC   GL165881  11.024  25.968   5.774
 5180POPC   GL265882  11.201  26.333   5.862
 5180POPC   C1A65883  11.262  25.944   6.202
 5180POPC   D2A65884  11.395  25.731   6.621
 5180POPC   C3A65885  11.354  25.929   7.041
 5180POPC   C4A65886  11.022  25.964   7.351
 5180POPC   C1B65887  11.483  26.419   6.236
 5180POPC   C2B65888  11.560  26.248   6.659
 5180POPC   C3B65889  11.520  26.442   7.073
 5180POPC   C4B65890  11.626  26.403   7.529
 5181POPC   NC365891  33.537  31.235   5.419
 5181POPC   PO465892  33.041  31.681   5.237
 5181POPC   GL165893  33.213  31.559   5.640
 5181POPC   GL265894  33.054  31.792   5.784
 5181POPC   C1A65895  33.195  31.347   6.059
 5181POPC   D2A65896  32.886  31.309   6.396
 5181POPC   C3A65897  33.079  31.346   6.774
 5181POPC   C4A65898  33.128  31.288   7.186
 5181POPC   C1B65899  32.862  31.775   6.172
 5181POPC   C2B65900  32.919  31.832   6.610
 5181POPC   C3B65901  32.788  31.713   6.996
 5181POPC   C4B65902  32.879  31.802   7.375
 5182POPC   NC365903  19.692  31.615   5.417
 5182POPC   PO465904  20.208  31.258   5.589
 5182POPC   GL165905  19.900  31.275   5.885
 5182POPC   GL265906  19.598  31.512   5.907
 5182POPC   C1A65907  19.730  31.118   6.235
 5182POPC   D2A65908  19.789  31.402   6.537
 5182POPC   C3A65909  19.817  31.210   6.915
 5182POPC   C4A65910  19.703  31.403   7.299
 5182POPC   C1B65911  19.919  31.747   6.123
 5182POPC   C2B65912  20.121  31.807   6.522
 5182POPC   C3B65913  19.939  31.734   6.919
 5182POPC   C4B65914  19.890  31.881   7.312
 5183POPC   NC365915  43.727  24.119   5.473
 5183POPC   PO465916  44.124  23.617   5.211
 5183POPC   GL165917  44.154  23.513   5.675
 5183POPC   GL265918  44.250  23.775   5.890
 5183POPC   C1A65919  43.898  23.485   6.082
 5183POPC   D2A65920  43.722  23.711   6.444
 5183POPC   C3A65921  43.878  23.498   6.803
 5183POPC   C4A65922  43.738  23.432   7.218
 5183POPC   C1B65923  44.189  23.892   6.333
 5183POPC   C2B65924  44.245  23.846   6.768
 5183POPC   C3B65925  44.124  23.769   7.176
 5183POPC   C4B65926  44.001  23.855   7.597
 5184POPC   NC365927  30.043  33.068   5.329
 5184POPC   PO465928  29.847  32.472   5.361
 5184POPC   GL165929  29.796  32.771   5.728
 5184POPC   GL265930  29.773  33.178   5.738
 5184POPC   C1A65931  29.941  32.913   6.135
 5184POPC   D2A65932  29.983  33.181   6.471
 5184POPC   C3A65933  30.057  32.945   6.825
 5184POPC   C4A65934  29.924  32.915   7.217
 5184POPC   C1B65935  29.552  33.272   6.127
 5184POPC   C2B65936  29.549  33.427   6.537
 5184POPC   C3B65937  29.606  33.186   6.886
 5184POPC   C4B65938  29.606  33.317   7.274
 5185POPC   NC365939  12.781   5.238   5.319
 5185POPC   PO465940  12.679   4.538   5.411
 5185POPC   GL165941  12.754   4.904   5.734
 5185POPC   GL265942  12.762   5.304   5.810
 5185POPC   C1A65943  12.921   4.973   6.174
 5185POPC   D2A65944  12.996   5.148   6.596
 5185POPC   C3A65945  12.948   5.043   7.066
 5185POPC   C4A65946  12.861   4.727   7.425
 5185POPC   C1B65947  12.501   5.305   6.176
 5185POPC   C2B65948  12.532   5.461   6.596
 5185POPC   C3B65949  12.310   5.482   6.970
 5185POPC   C4B65950  12.617   5.423   7.268
 5186POPC   NC365951  27.020  19.578   5.485
 5186POPC   PO465952  26.845  20.216   5.668
 5186POPC   GL165953  26.810  19.833   5.854
 5186POPC   GL265954  26.529  19.929   5.964
 5186POPC   C1A65955  26.854  19.575   6.233
 5186POPC   D2A65956  27.132  19.494   6.595
 5186POPC   C3A65957  26.894  19.597   6.974
 5186POPC   C4A65958  26.442  19.532   7.119
 5186POPC   C1B65959  26.844  20.090   6.284
 5186POPC   C2B65960  27.038  19.999   6.647
 5186POPC   C3B65961  26.924  20.125   7.046
 5186POPC   C4B65962  26.760  19.903   7.383
 5187POPC   NC365963  23.285  22.976   5.514
 5187POPC   PO465964  22.657  23.017   5.272
 5187POPC   GL165965  22.774  22.916   5.745
 5187POPC   GL265966  23.028  23.085   5.948
 5187POPC   C1A65967  22.677  22.778   6.190
 5187POPC   D2A65968  22.909  22.961   6.554
 5187POPC   C3A65969  22.708  22.993   6.970
 5187POPC   C4A65970  22.539  22.698   7.245
 5187POPC   C1B65971  23.192  22.721   6.188
 5187POPC   C2B65972  23.260  22.562   6.619
 5187POPC   C3B65973  23.199  22.796   6.997
 5187POPC   C4B65974  23.128  22.663   7.417
 5188POPC   NC365975  12.672  13.510   5.324
 5188POPC   PO465976  13.354  13.427   5.407
 5188POPC   GL165977  13.057  13.382   5.739
 5188POPC   GL265978  12.935  13.708   5.736
 5188POPC   C1A65979  12.954  13.436   6.203
 5188POPC   D2A65980  13.158  13.319   6.609
 5188POPC   C3A65981  12.992  13.416   7.040
 5188POPC   C4A65982  12.781  13.282   7.433
 5188POPC   C1B65983  12.840  13.957   6.133
 5188POPC   C2B65984  12.714  13.924   6.570
 5188POPC   C3B65985  12.585  13.843   7.005
 5188POPC   C4B65986  12.859  13.792   7.351
 5189POPC   NC365987  14.324  34.436   5.120
 5189POPC   PO465988  14.751  34.737   5.400
 5189POPC   GL165989  14.517  34.854   5.793
 5189POPC   GL265990  14.709  35.083   5.972
 5189POPC   C1A65991  14.370  34.649   6.232
 5189POPC   D2A65992  14.292  34.344   6.619
 5189POPC   C3A65993  14.250  34.498   7.076
 5189POPC   C4A65994  14.275  34.490   7.551
 5189POPC   C1B65995  14.741  34.952   6.409
 5189POPC   C2B65996  14.520  34.801   6.764
 5189POPC   C3B65997  14.631  34.835   7.217
 5189POPC   C4B65998  14.764  34.629   7.617
 5190POPC   NC365999  16.963  16.681   5.332
 5190POPC   PO466000  16.300  16.534   5.476
 5190POPC   GL166001  16.561  16.691   5.810
 5190POPC   GL266002  16.916  16.508   5.825
 5190POPC   C1A66003  16.433  16.831   6.230
 5190POPC   D2A66004  16.701  17.013   6.589
 5190POPC   C3A66005  16.725  16.876   7.024
 5190POPC   C4A66006  16.553  16.907   7.440
 5190POPC   C1B66007  16.923  16.689   6.240
 5190POPC   C2B66008  16.841  16.500   6.658
 5190POPC   C3B66009  16.934  16.388   7.082
 5190POPC   C4B66010  16.969  16.608   7.490
 5191POPC   NC366011   8.990   4.258   5.413
 5191POPC   PO466012   8.556   3.849   5.789
 5191POPC   GL166013   8.867   4.090   5.916
 5191POPC   GL266014   9.215   4.006   5.793
 5191POPC   C1A66015   8.831   4.143   6.358
 5191POPC   D2A66016   9.096   4.091   6.711
 5191POPC   C3A66017   8.819   4.176   7.076
 5191POPC   C4A66018   8.806   4.121   7.507
 5191POPC   C1B66019   9.291   4.258   6.166
 5191POPC   C2B66020   9.098   4.564   6.459
 5191POPC   C3B66021   9.116   4.583   6.923
 5191POPC   C4B66022   9.154   4.491   7.392
 5192POPC   NC366023  26.730  29.186   5.426
 5192POPC   PO466024  26.767  28.620   5.420
 5192POPC   GL166025  26.938  28.893   5.811
 5192POPC   GL266026  27.013  29.254   5.853
 5192POPC   C1A66027  26.746  29.002   6.225
 5192POPC   D2A66028  26.698  29.267   6.596
 5192POPC   C3A66029  26.935  29.091   6.918
 5192POPC   C4A66030  27.020  29.116   7.347
 5192POPC   C1B66031  27.107  29.383   6.287
 5192POPC   C2B66032  27.187  29.512   6.708
 5192POPC   C3B66033  26.914  29.561   7.097
 5192POPC   C4B66034  26.473  29.661   7.240
 5193POPC   NC366035  27.860  27.065   5.452
 5193POPC   PO466036  27.286  27.232   5.547
 5193POPC   GL166037  27.497  26.970   5.845
 5193POPC   GL266038  27.489  26.634   5.755
 5193POPC   C1A66039  27.686  26.784   6.211
 5193POPC   D2A66040  27.643  26.598   6.596
 5193POPC   C3A66041  27.889  26.678   6.944
 5193POPC   C4A66042  27.705  26.616   7.290
 5193POPC   C1B66043  27.269  26.502   6.123
 5193POPC   C2B66044  27.269  26.288   6.489
 5193POPC   C3B66045  27.250  26.457   6.894
 5193POPC   C4B66046  27.217  26.432   7.309
 5194POPC   NC366047  39.173  39.801   5.560
 5194POPC   PO466048  39.156  39.129   5.289
 5194POPC   GL166049  39.233  39.288   5.709
 5194POPC   GL266050  39.559  39.480   5.741
 5194POPC   C1A66051  39.279  39.248   6.165
 5194POPC   D2A66052  39.496  39.236   6.570
 5194POPC   C3A66053  39.220  39.212   6.911
 5194POPC   C4A66054  39.195  39.111   7.313
 5194POPC   C1B66055  39.600  39.694   6.130
 5194POPC   C2B66056  39.742  39.684   6.542
 5194POPC   C3B66057  39.527  39.635   6.940
 5194POPC   C4B66058  39.292  39.604   7.337
 5195POPC   NC366059   4.095  19.352   5.344
 5195POPC   PO466060   4.559  19.848   5.311
 5195POPC   GL166061   4.578  19.746   5.763
 5195POPC   GL266062   4.218  19.682   5.781
 5195POPC   C1A66063   4.462  19.881   6.221
 5195POPC   D2A66064   4.638  20.106   6.604
 5195POPC   C3A66065   4.622  19.960   7.046
 5195POPC   C4A66066   4.355  20.118   7.387
 5195POPC   C1B66067   4.036  19.494   6.152
 5195POPC   C2B66068   4.149  19.399   6.527
 5195POPC   C3B66069   4.008  19.525   6.911
 5195POPC   C4B66070   4.227  19.678   7.210
 5196POPC   NC366071  23.882  19.876   5.235
 5196POPC   PO466072  23.281  19.742   5.436
 5196POPC   GL166073  23.549  19.627   5.830
 5196POPC   GL266074  23.898  19.822   5.865
 5196POPC   C1A66075  23.696  19.615   6.294
 5196POPC   D2A66076  23.909  19.887   6.629
 5196POPC   C3A66077  23.891  19.739   7.098
 5196POPC   C4A66078  23.824  19.795   7.564
 5196POPC   C1B66079  23.962  20.214   6.173
 5196POPC   C2B66080  23.901  20.458   6.588
 5196POPC   C3B66081  23.943  20.245   6.997
 5196POPC   C4B66082  23.593  20.150   7.276
 5197POPC   NC366083  24.032  39.448   5.297
 5197POPC   PO466084  24.504  39.012   5.375
 5197POPC   GL166085  24.398  39.199   5.755
 5197POPC   GL266086  24.567  38.913   5.894
 5197POPC   C1A66087  24.453  39.304   6.197
 5197POPC   D2A66088  24.265  39.149   6.552
 5197POPC   C3A66089  24.424  39.306   6.948
 5197POPC   C4A66090  24.291  39.047   7.305
 5197POPC   C1B66091  24.858  38.994   6.221
 5197POPC   C2B66092  24.751  39.050   6.605
 5197POPC   C3B66093  24.532  38.833   6.905
 5197POPC   C4B66094  24.792  39.007   7.228
 5198POPC   NC366095   9.588  29.670   5.399
 5198POPC   PO466096   9.748  30.297   5.402
 5198POPC   GL166097   9.609  30.178   5.822
 5198POPC   GL266098   9.742  29.846   5.870
 5198POPC   C1A66099   9.795  30.169   6.263
 5198POPC   D2A66100  10.070  30.233   6.644
 5198POPC   C3A66101   9.805  30.243   7.003
 5198POPC   C4A66102   9.651  29.858   7.201
 5198POPC   C1B66103   9.845  29.612   6.235
 5198POPC   C2B66104   9.858  29.706   6.669
 5198POPC   C3B66105   9.836  29.395   6.988
 5198POPC   C4B66106   9.893  29.457   7.421
 5199POPC   NC366107  16.691   8.450   5.278
 5199POPC   PO466108  16.629   7.822   5.104
 5199POPC   GL166109  16.711   7.986   5.596
 5199POPC   GL266110  16.983   8.246   5.715
 5199POPC   C1A66111  16.675   8.084   6.112
 5199POPC   D2A66112  16.861   8.271   6.546
 5199POPC   C3A66113  16.657   8.179   6.972
 5199POPC   C4A66114  16.491   7.750   7.077
 5199POPC   C1B66115  17.213   8.274   6.161
 5199POPC   C2B66116  17.327   8.470   6.609
 5199POPC   C3B66117  17.162   8.309   7.015
 5199POPC   C4B66118  16.906   8.457   7.369
 5200POPC   NC366119  31.800  15.161   5.283
 5200POPC   PO466120  31.288  14.788   5.455
 5200POPC   GL166121  31.386  14.902   5.847
 5200POPC   GL266122  31.664  15.025   5.775
 5200POPC   C1A66123  31.407  15.212   6.193
 5200POPC   D2A66124  31.501  15.283   6.624
 5200POPC   C3A66125  31.177  15.173   6.913
 5200POPC   C4A66126  31.305  15.020   7.301
 5200POPC   C1B66127  31.806  14.830   6.157
 5200POPC   C2B66128  31.838  14.909   6.569
 5200POPC   C3B66129  31.659  14.871   6.968
 5200POPC   C4B66130  31.821  14.963   7.383
 5201POPC   NC366131   2.825   3.846   5.403
 5201POPC   PO466132   2.660   3.242   5.347
 5201POPC   GL166133   2.600   3.503   5.732
 5201POPC   GL266134   2.371   3.771   5.757
 5201POPC   C1A66135   2.753   3.696   6.147
 5201POPC   D2A66136   2.810   3.432   6.543
 5201POPC   C3A66137   2.780   3.592   6.954
 5201POPC   C4A66138   2.932   3.670   7.368
 5201POPC   C1B66139   2.259   3.658   6.188
 5201POPC   C2B66140   2.414   3.749   6.604
 5201POPC   C3B66141   2.277   3.707   7.040
 5201POPC   C4B66142   2.449   3.456   7.365
 5202POPC   NC366143  43.493  10.136   5.474
 5202POPC   PO466144  44.128   9.840   5.482
 5202POPC   GL166145  44.017   9.648   5.853
 5202POPC   GL266146  43.650   9.516   5.790
 5202POPC   C1A66147  44.140   9.734   6.294
 5202POPC   D2A66148  44.272   9.638   6.717
 5202POPC   C3A66149  43.939   9.830   6.950
 5202POPC   C4A66150  43.930  10.042   7.326
 5202POPC   C1B66151  43.630   9.775   6.170
 5202POPC   C2B66152  43.602  10.030   6.550
 5202POPC   C3B66153  43.412   9.972   6.937
 5202POPC   C4B66154  43.483   9.836   7.350
 5203POPC   NC366155  34.248  22.368   5.402
 5203POPC   PO466156  34.774  22.178   5.223
 5203POPC   GL166157  34.627  22.133   5.682
 5203POPC   GL266158  34.892  21.887   5.769
 5203POPC   C1A66159  34.540  22.084   6.133
 5203POPC   D2A66160  34.324  22.035   6.529
 5203POPC   C3A66161  34.287  22.260   6.900
 5203POPC   C4A66162  34.453  22.133   7.293
 5203POPC   C1B66163  35.047  22.022   6.168
 5203POPC   C2B66164  34.853  22.177   6.536
 5203POPC   C3B66165  34.731  22.005   6.890
 5203POPC   C4B66166  34.909  21.825   7.233
 5204POPC   NC366167  23.347  27.832   5.417
 5204POPC   PO466168  24.004  27.622   5.578
 5204POPC   GL166169  23.628  27.614   5.823
 5204POPC   GL266170  23.444  27.303   5.839
 5204POPC   C1A66171  23.669  27.766   6.247
 5204POPC   D2A66172  23.869  27.899   6.617
 5204POPC   C3A66173  23.760  27.687   6.986
 5204POPC   C4A66174  23.932  27.486   7.342
 5204POPC   C1B66175  23.639  27.253   6.243
 5204POPC   C2B66176  23.778  27.281   6.682
 5204POPC   C3B66177  23.601  27.195   7.104
 5204POPC   C4B66178  23.629  27.184   7.610
 5205POPC   NC366179  30.753  11.657   5.324
 5205POPC   PO466180  30.901  12.304   5.459
 5205POPC   GL166181  30.721  12.036   5.768
 5205POPC   GL266182  30.845  11.707   5.842
 5205POPC   C1A66183  30.652  12.062   6.225
 5205POPC   D2A66184  30.495  12.286   6.626
 5205POPC   C3A66185  30.495  12.010   6.981
 5205POPC   C4A66186  30.549  12.069   7.431
 5205POPC   C1B66187  31.009  11.695   6.260
 5205POPC   C2B66188  30.849  11.691   6.727
 5205POPC   C3B66189  30.875  11.700   7.208
 5205POPC   C4B66190  30.971  11.890   7.651
 5206POPC   NC366191  20.321  36.332   5.346
 5206POPC   PO466192  20.717  35.740   5.468
 5206POPC   GL166193  20.595  35.906   5.851
 5206POPC   GL266194  20.559  36.255   5.794
 5206POPC   C1A66195  20.778  36.017   6.247
 5206POPC   D2A66196  20.677  36.259   6.607
 5206POPC   C3A66197  20.837  35.979   6.896
 5206POPC   C4A66198  20.777  36.084   7.296
 5206POPC   C1B66199  20.338  36.254   6.189
 5206POPC   C2B66200  20.313  35.933   6.515
 5206POPC   C3B66201  20.350  35.932   6.977
 5206POPC   C4B66202  20.317  36.304   7.258
 5207POPC   NC366203   7.845   2.731   5.158
 5207POPC   PO466204   8.408   2.936   5.429
 5207POPC   GL166205   8.176   2.733   5.725
 5207POPC   GL266206   8.258   3.000   5.913
 5207POPC   C1A66207   8.169   2.561   6.153
 5207POPC   D2A66208   7.898   2.535   6.534
 5207POPC   C3A66209   8.184   2.612   6.871
 5207POPC   C4A66210   8.285   2.840   7.245
 5207POPC   C1B66211   7.970   3.033   6.235
 5207POPC   C2B66212   8.108   3.027   6.612
 5207POPC   C3B66213   8.178   3.243   6.961
 5207POPC   C4B66214   8.555   3.305   7.107
 5208POPC   NC366215  38.687  33.845   5.597
 5208POPC   PO466216  38.137  34.006   5.159
 5208POPC   GL166217  38.143  33.918   5.622
 5208POPC   GL266218  37.961  34.211   5.696
 5208POPC   C1A66219  38.261  33.797   6.077
 5208POPC   D2A66220  38.330  33.609   6.496
 5208POPC   C3A66221  38.640  33.749   6.804
 5208POPC   C4A66222  38.711  33.485   7.171
 5208POPC   C1B66223  37.984  34.263   6.149
 5208POPC   C2B66224  38.170  34.121   6.545
 5208POPC   C3B66225  38.171  34.207   6.981
 5208POPC   C4B66226  38.468  33.956   7.245
 5209POPC   NC366227   0.811  22.693   5.741
 5209POPC   PO466228   0.274  23.044   5.481
 5209POPC   GL166229   0.466  23.048   5.868
 5209POPC   GL266230   0.806  23.261   5.828
 5209POPC   C1A66231   0.328  22.832   6.261
 5209POPC   D2A66232   0.365  22.638   6.679
 5209POPC   C3A66233   0.328  22.975   6.963
 5209POPC   C4A66234   0.376  23.323   7.216
 5209POPC   C1B66235   0.784  23.091   6.248
 5209POPC   C2B66236   0.723  22.992   6.612
 5209POPC   C3B66237   0.817  22.756   6.938
 5209POPC   C4B66238   0.678  22.802   7.311
 5210POPC   NC366239   4.479  20.320   5.300
 5210POPC   PO466240   3.842  20.460   5.426
 5210POPC   GL166241   4.117  20.661   5.737
 5210POPC   GL266242   4.478  20.833   5.736
 5210POPC   C1A66243   4.217  20.626   6.182
 5210POPC   D2A66244   4.040  20.520   6.574
 5210POPC   C3A66245   4.277  20.437   6.950
 5210POPC   C4A66246   4.087  20.605   7.310
 5210POPC   C1B66247   4.586  20.999   6.179
 5210POPC   C2B66248   4.597  20.917   6.666
 5210POPC   C3B66249   4.531  20.851   7.126
 5210POPC   C4B66250   4.644  20.966   7.535
 5211POPC   NC366251  16.847  24.185   5.552
 5211POPC   PO466252  16.701  23.563   5.453
 5211POPC   GL166253  16.645  23.789   5.832
 5211POPC   GL266254  16.995  23.820   5.862
 5211POPC   C1A66255  16.620  23.709   6.271
 5211POPC   D2A66256  16.479  23.711   6.683
 5211POPC   C3A66257  16.697  23.882   7.039
 5211POPC   C4A66258  17.015  24.005   7.311
 5211POPC   C1B66259  16.934  23.393   6.047
 5211POPC   C2B66260  16.879  23.281   6.437
 5211POPC   C3B66261  16.891  23.438   6.823
 5211POPC   C4B66262  16.922  23.465   7.240
 5212POPC   NC366263  35.583  23.595   5.422
 5212POPC   PO466264  36.305  23.589   5.460
 5212POPC   GL166265  36.057  23.530   5.841
 5212POPC   GL266266  35.750  23.383   5.846
 5212POPC   C1A66267  35.835  23.781   6.158
 5212POPC   D2A66268  35.801  23.989   6.528
 5212POPC   C3A66269  36.108  23.866   6.773
 5212POPC   C4A66270  36.133  23.847   7.188
 5212POPC   C1B66271  35.606  23.322   6.242
 5212POPC   C2B66272  35.768  23.467   6.603
 5212POPC   C3B66273  35.769  23.540   7.019
 5212POPC   C4B66274  36.053  23.363   7.330
 5213POPC   NC366275   7.642   3.833   5.259
 5213POPC   PO466276   7.322   3.237   5.499
 5213POPC   GL166277   7.420   3.408   5.863
 5213POPC   GL266278   7.521   3.732   5.775
 5213POPC   C1A66279   7.500   3.301   6.293
 5213POPC   D2A66280   7.422   3.577   6.636
 5213POPC   C3A66281   7.423   3.306   7.028
 5213POPC   C4A66282   7.523   3.291   7.475
 5213POPC   C1B66283   7.417   3.881   6.189
 5213POPC   C2B66284   7.373   4.128   6.562
 5213POPC   C3B66285   7.453   4.010   6.967
 5213POPC   C4B66286   7.460   3.763   7.310
 5214POPC   NC366287   2.980   8.415   5.249
 5214POPC   PO466288   2.330   8.197   5.276
 5214POPC   GL166289   2.636   8.104   5.644
 5214POPC   GL266290   2.970   7.906   5.628
 5214POPC   C1A66291   2.732   8.255   6.073
 5214POPC   D2A66292   2.665   8.470   6.452
 5214POPC   C3A66293   2.746   8.258   6.819
 5214POPC   C4A66294   2.542   8.297   7.196
 5214POPC   C1B66295   3.040   7.860   6.072
 5214POPC   C2B66296   3.136   8.102   6.465
 5214POPC   C3B66297   3.118   7.908   6.905
 5214POPC   C4B66298   2.949   8.002   7.299
 5215POPC   NC366299  26.934  42.703   5.671
 5215POPC   PO466300  27.085  42.064   5.586
 5215POPC   GL166301  26.794  42.133   5.920
 5215POPC   GL266302  26.537  42.365   5.759
 5215POPC   C1A66303  26.922  42.214   6.352
 5215POPC   D2A66304  27.007  42.593   6.607
 5215POPC   C3A66305  26.825  42.634   7.002
 5215POPC   C4A66306  26.664  42.236   7.198
 5215POPC   C1B66307  26.462  42.438   6.199
 5215POPC   C2B66308  26.505  42.325   6.655
 5215POPC   C3B66309  26.321  42.572   6.992
 5215POPC   C4B66310  26.428  42.588   7.450
 5216POPC   NC366311  23.980  32.716   5.465
 5216POPC   PO466312  23.499  33.247   5.552
 5216POPC   GL166313  23.693  33.215   5.950
 5216POPC   GL266314  23.869  32.892   5.982
 5216POPC   C1A66315  23.740  33.209   6.394
 5216POPC   D2A66316  23.871  32.987   6.755
 5216POPC   C3A66317  23.695  33.194   7.106
 5216POPC   C4A66318  23.395  33.030   7.391
 5216POPC   C1B66319  23.474  32.806   6.258
 5216POPC   C2B66320  23.489  32.624   6.684
 5216POPC   C3B66321  23.599  32.689   7.087
 5216POPC   C4B66322  23.989  32.804   7.226
 5217POPC   NC366323  39.752   8.287   5.255
 5217POPC   PO466324  40.326   8.591   5.494
 5217POPC   GL166325  40.073   8.312   5.833
 5217POPC   GL266326  39.964   7.941   5.835
 5217POPC   C1A66327  40.159   8.181   6.290
 5217POPC   D2A66328  40.284   8.063   6.734
 5217POPC   C3A66329  40.071   8.283   7.097
 5217POPC   C4A66330  39.640   8.409   7.149
 5217POPC   C1B66331  39.778   7.846   6.276
 5217POPC   C2B66332  39.758   8.015   6.699
 5217POPC   C3B66333  39.683   7.878   7.117
 5217POPC   C4B66334  39.528   7.700   7.503
 5218POPC   NC366335  26.941  17.849   5.557
 5218POPC   PO466336  26.666  17.163   5.399
 5218POPC   GL166337  26.756  17.394   5.767
 5218POPC   GL266338  27.120  17.397   5.829
 5218POPC   C1A66339  26.687  17.557   6.190
 5218POPC   D2A66340  26.638  17.321   6.579
 5218POPC   C3A66341  26.615  17.505   6.980
 5218POPC   C4A66342  26.754  17.311   7.348
 5218POPC   C1B66343  27.194  17.671   6.188
 5218POPC   C2B66344  26.981  17.725   6.589
 5218POPC   C3B66345  27.060  17.791   7.017
 5218POPC   C4B66346  27.237  17.532   7.361
 5219POPC   NC366347   1.006  18.244   5.419
 5219POPC   PO466348   1.562  17.858   5.682
 5219POPC   GL166349   1.299  18.143   5.851
 5219POPC   GL266350   0.952  18.021   5.861
 5219POPC   C1A66351   1.319  18.266   6.266
 5219POPC   D2A66352   1.110  18.111   6.606
 5219POPC   C3A66353   1.261  18.150   6.995
 5219POPC   C4A66354   1.079  18.414   7.233
 5219POPC   C1B66355   0.788  18.115   6.223
 5219POPC   C2B66356   0.565  18.035   6.566
 5219POPC   C3B66357   0.756  18.030   6.948
 5219POPC   C4B66358   0.892  17.919   7.299
 5220POPC   NC366359  28.782  27.056   5.065
 5220POPC   PO466360  29.168  26.608   5.296
 5220POPC   GL166361  29.171  26.782   5.716
 5220POPC   GL266362  29.045  26.489   5.854
 5220POPC   C1A66363  29.417  26.889   6.107
 5220POPC   D2A66364  29.491  27.190   6.473
 5220POPC   C3A66365  29.238  27.106   6.848
 5220POPC   C4A66366  28.948  26.792   7.066
 5220POPC   C1B66367  28.681  26.488   6.121
 5220POPC   C2B66368  28.583  26.313   6.513
 5220POPC   C3B66369  28.759  26.299   6.914
 5220POPC   C4B66370  28.939  26.318   7.333
 5221POPC   NC366371  41.297  10.614   5.553
 5221POPC   PO466372  41.967  10.513   5.418
 5221POPC   GL166373  41.763  10.495   5.844
 5221POPC   GL266374  41.739  10.830   5.902
 5221POPC   C1A66375  41.555  10.447   6.291
 5221POPC   D2A66376  41.561  10.329   6.757
 5221POPC   C3A66377  41.312  10.597   7.026
 5221POPC   C4A66378  41.412  10.727   7.399
 5221POPC   C1B66379  41.871  10.974   6.305
 5221POPC   C2B66380  41.996  10.924   6.718
 5221POPC   C3B66381  41.781  10.749   7.051
 5221POPC   C4B66382  41.901  10.691   7.489
 5222POPC   NC366383  36.147   4.517   5.385
 5222POPC   PO466384  36.397   3.946   5.491
 5222POPC   GL166385  36.270   4.109   5.867
 5222POPC   GL266386  36.533   4.334   5.831
 5222POPC   C1A66387  36.076   4.142   6.287
 5222POPC   D2A66388  36.060   4.507   6.574
 5222POPC   C3A66389  36.080   4.354   6.974
 5222POPC   C4A66390  35.827   4.036   7.148
 5222POPC   C1B66391  36.476   4.465   6.239
 5222POPC   C2B66392  36.547   4.404   6.683
 5222POPC   C3B66393  36.539   4.516   7.121
 5222POPC   C4B66394  36.378   4.360   7.520
 5223POPC   NC366395  16.594  38.895   5.528
 5223POPC   PO466396  16.529  38.220   5.443
 5223POPC   GL166397  16.586  38.394   5.817
 5223POPC   GL266398  16.934  38.400   5.853
 5223POPC   C1A66399  16.597  38.439   6.249
 5223POPC   D2A66400  16.697  38.240   6.623
 5223POPC   C3A66401  16.438  38.415   6.927
 5223POPC   C4A66402  16.445  38.546   7.352
 5223POPC   C1B66403  17.071  38.616   6.225
 5223POPC   C2B66404  17.204  38.486   6.610
 5223POPC   C3B66405  17.018  38.510   6.994
 5223POPC   C4B66406  17.182  38.380   7.381
 5224POPC   NC366407  40.013  25.852   5.546
 5224POPC   PO466408  39.501  26.222   5.183
 5224POPC   GL166409  39.809  26.351   5.636
 5224POPC   GL266410  40.185  26.262   5.773
 5224POPC   C1A66411  39.825  26.213   6.119
 5224POPC   D2A66412  39.808  25.871   6.409
 5224POPC   C3A66413  39.901  26.036   6.814
 5224POPC   C4A66414  39.875  26.039   7.256
 5224POPC   C1B66415  40.298  25.959   6.162
 5224POPC   C2B66416  40.284  25.751   6.605
 5224POPC   C3B66417  40.317  25.857   7.046
 5224POPC   C4B66418  40.461  25.723   7.425
 5225POPC   NC366419  13.241   7.484   5.467
 5225POPC   PO466420  12.643   7.269   5.469
 5225POPC   GL166421  12.899   7.326   5.842
 5225POPC   GL266422  12.807   7.661   5.944
 5225POPC   C1A66423  13.143   7.168   6.205
 5225POPC   D2A66424  13.220   7.302   6.656
 5225POPC   C3A66425  12.921   7.170   6.997
 5225POPC   C4A66426  12.530   7.220   7.209
 5225POPC   C1B66427  12.736   7.428   6.352
 5225POPC   C2B66428  12.546   7.472   6.752
 5225POPC   C3B66429  12.707   7.664   7.092
 5225POPC   C4B66430  13.130   7.659   7.144
 5226POPC   NC366431  15.592   9.641   5.460
 5226POPC   PO466432  16.294   9.719   5.576
 5226POPC   GL166433  15.951   9.715   5.854
 5226POPC   GL266434  15.774  10.022   5.790
 5226POPC   C1A66435  15.949   9.725   6.299
 5226POPC   D2A66436  16.150   9.905   6.667
 5226POPC   C3A66437  16.232   9.582   6.997
 5226POPC   C4A66438  15.949   9.431   7.301
 5226POPC   C1B66439  15.607  10.114   6.220
 5226POPC   C2B66440  15.636   9.929   6.661
 5226POPC   C3B66441  15.812   9.876   7.091
 5226POPC   C4B66442  15.558  10.104   7.372
 5227POPC   NC366443   4.856  35.192   5.433
 5227POPC   PO466444   5.213  35.723   5.387
 5227POPC   GL166445   4.946  35.559   5.761
 5227POPC   GL266446   5.043  35.203   5.906
 5227POPC   C1A66447   4.944  35.599   6.212
 5227POPC   D2A66448   5.039  35.296   6.523
 5227POPC   C3A66449   5.058  35.528   6.885
 5227POPC   C4A66450   5.179  35.395   7.275
 5227POPC   C1B66451   4.888  34.862   6.204
 5227POPC   C2B66452   4.794  34.821   6.640
 5227POPC   C3B66453   5.087  34.916   6.939
 5227POPC   C4B66454   5.059  34.925   7.370
 5228POPC   NC366455   3.014  19.843   5.548
 5228POPC   PO466456   2.480  19.939   5.275
 5228POPC   GL166457   2.515  19.884   5.740
 5228POPC   GL266458   2.464  19.535   5.710
 5228POPC   C1A66459   2.686  20.000   6.182
 5228POPC   D2A66460   2.548  20.056   6.621
 5228POPC   C3A66461   2.878  20.006   6.929
 5228POPC   C4A66462   2.874  19.767   7.302
 5228POPC   C1B66463   2.584  19.478   6.156
 5228POPC   C2B66464   2.752  19.596   6.576
 5228POPC   C3B66465   2.617  19.479   6.968
 5228POPC   C4B66466   2.436  19.463   7.381
 5229POPC   NC366467  43.975  19.094   5.425
 5229POPC   PO466468  43.804  19.681   5.693
 5229POPC   GL166469  44.128  19.351   5.885
 5229POPC   GL266470  44.194  18.965   5.864
 5229POPC   C1A66471  44.035  19.194   6.298
 5229POPC   D2A66472  43.791  19.041   6.649
 5229POPC   C3A66473  43.901  19.201   7.069
 5229POPC   C4A66474  43.977  19.315   7.531
 5229POPC   C1B66475  43.908  18.732   6.132
 5229POPC   C2B66476  43.883  18.547   6.529
 5229POPC   C3B66477  43.888  18.655   6.969
 5229POPC   C4B66478  43.878  18.806   7.386
 5230POPC   NC366479  25.272  15.378   5.208
 5230POPC   PO466480  24.881  14.894   5.602
 5230POPC   GL166481  25.191  15.050   5.918
 5230POPC   GL266482  25.346  15.373   5.776
 5230POPC   C1A66483  25.246  14.992   6.341
 5230POPC   D2A66484  25.123  15.273   6.675
 5230POPC   C3A66485  25.211  15.069   7.079
 5230POPC   C4A66486  25.344  15.013   7.542
 5230POPC   C1B66487  25.448  15.456   6.203
 5230POPC   C2B66488  25.451  15.690   6.588
 5230POPC   C3B66489  25.442  15.529   6.985
 5230POPC   C4B66490  25.532  15.449   7.384
 5231POPC   NC366491   5.938   2.941   5.429
 5231POPC   PO466492   5.427   2.477   5.415
 5231POPC   GL166493   5.579   2.660   5.817
 5231POPC   GL266494   5.951   2.606   5.844
 5231POPC   C1A66495   5.717   2.707   6.274
 5231POPC   D2A66496   5.874   3.041   6.532
 5231POPC   C3A66497   5.795   2.985   6.954
 5231POPC   C4A66498   5.976   3.003   7.373
 5231POPC   C1B66499   6.113   2.358   6.231
 5231POPC   C2B66500   6.220   2.447   6.699
 5231POPC   C3B66501   6.054   2.560   7.114
 5231POPC   C4B66502   5.583   2.563   7.136
 5232POPC   NC366503   3.488  23.117   5.148
 5232POPC   PO466504   2.983  22.690   5.240
 5232POPC   GL166505   3.388  22.816   5.590
 5232POPC   GL266506   3.548  23.161   5.680
 5232POPC   C1A66507   3.452  22.846   6.103
 5232POPC   D2A66508   3.168  22.827   6.525
 5232POPC   C3A66509   3.271  22.961   6.993
 5232POPC   C4A66510   3.597  22.850   7.343
 5232POPC   C1B66511   3.619  23.317   6.085
 5232POPC   C2B66512   3.608  23.131   6.506
 5232POPC   C3B66513   3.740  23.133   6.921
 5232POPC   C4B66514   3.646  23.355   7.295
 5233POPC   NC366515  26.428  26.059   5.417
 5233POPC   PO466516  25.835  26.319   5.566
 5233POPC   GL166517  25.926  25.883   5.709
 5233POPC   GL266518  25.625  25.703   5.864
 5233POPC   C1A66519  26.250  25.779   6.015
 5233POPC   D2A66520  26.371  26.083   6.326
 5233POPC   C3A66521  26.358  26.012   6.787
 5233POPC   C4A66522  26.331  25.994   7.216
 5233POPC   C1B66523  25.773  25.956   6.210
 5233POPC   C2B66524  25.931  26.249   6.528
 5233POPC   C3B66525  25.878  26.258   6.955
 5233POPC   C4B66526  25.765  25.995   7.266
 5234POPC   NC366527  18.204  44.708   5.306
 5234POPC   PO466528  18.658   0.056   5.616
 5234POPC   GL166529  18.445  44.853   5.929
 5234POPC   GL266530  18.112  44.862   5.801
 5234POPC   C1A66531  18.226  44.555   6.212
 5234POPC   D2A66532  18.013  44.582   6.631
 5234POPC   C3A66533  18.270  44.621   7.023
 5234POPC   C4A66534  18.270  44.677   7.477
 5234POPC   C1B66535  17.895   0.025   6.154
 5234POPC   C2B66536  17.704   0.080   6.556
 5234POPC   C3B66537  17.973   0.012   6.903
 5234POPC   C4B66538  17.910  44.991   7.315
 5235POPC   NC366539  38.624  15.603   5.131
 5235POPC   PO466540  38.441  16.172   5.635
 5235POPC   GL166541  38.360  15.907   5.978
 5235POPC   GL266542  38.156  15.623   5.831
 5235POPC   C1A66543  38.487  15.950   6.359
 5235POPC   D2A66544  38.312  16.082   6.734
 5235POPC   C3A66545  38.564  15.916   7.054
 5235POPC   C4A66546  38.713  16.121   7.413
 5235POPC   C1B66547  38.071  15.633   6.275
 5235POPC   C2B66548  38.300  15.568   6.626
 5235POPC   C3B66549  38.131  15.663   6.982
 5235POPC   C4B66550  37.983  15.589   7.324
 5236POPC   NC366551  11.937  34.216   5.524
 5236POPC   PO466552  11.835  33.552   5.579
 5236POPC   GL166553  12.154  33.798   5.803
 5236POPC   GL266554  12.129  33.530   6.033
 5236POPC   C1A66555  12.407  33.918   6.193
 5236POPC   D2A66556  12.221  33.784   6.573
 5236POPC   C3A66557  12.373  33.872   6.951
 5236POPC   C4A66558  12.294  33.895   7.369
 5236POPC   C1B66559  11.799  33.683   6.297
 5236POPC   C2B66560  11.765  33.535   6.740
 5236POPC   C3B66561  12.013  33.508   7.115
 5236POPC   C4B66562  11.962  33.589   7.574
 5237POPC   NC366563  22.549  41.910   5.396
 5237POPC   PO466564  23.116  41.493   5.283
 5237POPC   GL166565  22.931  41.295   5.648
 5237POPC   GL266566  23.161  41.506   5.841
 5237POPC   C1A66567  22.749  41.323   6.093
 5237POPC   D2A66568  22.923  41.528   6.462
 5237POPC   C3A66569  22.871  41.438   6.907
 5237POPC   C4A66570  22.672  41.702   7.225
 5237POPC   C1B66571  23.320  41.317   6.232
 5237POPC   C2B66572  23.258  41.162   6.656
 5237POPC   C3B66573  23.371  41.377   7.006
 5237POPC   C4B66574  23.221  41.415   7.419
 5238POPC   NC366575  13.830  40.297   5.415
 5238POPC   PO466576  13.435  40.780   5.435
 5238POPC   GL166577  13.626  40.803   5.865
 5238POPC   GL266578  13.867  40.538   5.890
 5238POPC   C1A66579  13.626  40.717   6.326
 5238POPC   D2A66580  13.598  40.404   6.651
 5238POPC   C3A66581  13.485  40.579   7.030
 5238POPC   C4A66582  13.537  40.974   7.213
 5238POPC   C1B66583  14.101  40.436   6.296
 5238POPC   C2B66584  14.101  40.533   6.725
 5238POPC   C3B66585  13.984  40.709   7.119
 5238POPC   C4B66586  14.050  40.558   7.523
 5239POPC   NC366587  11.188   3.254   5.405
 5239POPC   PO466588  11.639   3.703   5.401
 5239POPC   GL166589  11.333   3.825   5.733
 5239POPC   GL266590  10.984   3.726   5.709
 5239POPC   C1A66591  11.301   3.711   6.179
 5239POPC   D2A66592  11.500   3.462   6.542
 5239POPC   C3A66593  11.570   3.669   6.931
 5239POPC   C4A66594  11.259   3.675   7.235
 5239POPC   C1B66595  10.917   3.386   6.056
 5239POPC   C2B66596  10.987   3.463   6.520
 5239POPC   C3B66597  11.096   3.305   6.923
 5239POPC   C4B66598  10.863   3.334   7.304
 5240POPC   NC366599  20.765  23.022   5.036
 5240POPC   PO466600  20.305  22.807   5.448
 5240POPC   GL166601  20.547  22.941   5.810
 5240POPC   GL266602  20.860  23.143   5.971
 5240POPC   C1A66603  20.621  22.750   6.198
 5240POPC   D2A66604  20.747  22.953   6.536
 5240POPC   C3A66605  20.539  22.788   6.875
 5240POPC   C4A66606  20.585  22.809   7.327
 5240POPC   C1B66607  20.483  23.269   6.230
 5240POPC   C2B66608  20.298  23.217   6.665
 5240POPC   C3B66609  20.421  23.244   7.084
 5240POPC   C4B66610  20.514  23.370   7.503
 5241POPC   NC366611  17.658  16.316   5.494
 5241POPC   PO466612  17.392  16.877   5.329
 5241POPC   GL166613  17.399  16.713   5.746
 5241POPC   GL266614  17.744  16.714   5.814
 5241POPC   C1A66615  17.464  16.698   6.225
 5241POPC   D2A66616  17.287  16.773   6.637
 5241POPC   C3A66617  17.537  16.801   7.008
 5241POPC   C4A66618  17.410  16.440   7.273
 5241POPC   C1B66619  17.886  16.414   6.142
 5241POPC   C2B66620  17.861  16.562   6.587
 5241POPC   C3B66621  17.880  16.430   7.028
 5241POPC   C4B66622  17.848  16.462   7.504
 5242POPC   NC366623  13.427  42.644   5.397
 5242POPC   PO466624  13.884  42.176   5.369
 5242POPC   GL166625  13.701  42.345   5.738
 5242POPC   GL266626  13.363  42.215   5.752
 5242POPC   C1A66627  13.624  42.611   6.105
 5242POPC   D2A66628  13.775  42.708   6.541
 5242POPC   C3A66629  13.596  42.535   6.934
 5242POPC   C4A66630  13.767  42.231   7.259
 5242POPC   C1B66631  13.411  41.999   6.151
 5242POPC   C2B66632  13.365  42.067   6.606
 5242POPC   C3B66633  13.497  41.879   7.005
 5242POPC   C4B66634  13.352  41.978   7.437
 5243POPC   NC366635  32.720  28.007   5.588
 5243POPC   PO466636  33.281  27.688   5.402
 5243POPC   GL166637  33.195  27.528   5.813
 5243POPC   GL266638  32.872  27.630   5.909
 5243POPC   C1A66639  33.264  27.607   6.269
 5243POPC   D2A66640  32.980  27.584   6.640
 5243POPC   C3A66641  33.149  27.731   7.052
 5243POPC   C4A66642  33.354  27.638   7.449
 5243POPC   C1B66643  32.883  27.284   6.207
 5243POPC   C2B66644  32.526  27.216   6.446
 5243POPC   C3B66645  32.560  27.316   6.870
 5243POPC   C4B66646  32.775  27.407   7.248
 5244POPC   NC366647  41.059  37.288   5.137
 5244POPC   PO466648  40.836  36.767   5.543
 5244POPC   GL166649  41.050  36.761   5.917
 5244POPC   GL266650  40.883  37.060   6.048
 5244POPC   C1A66651  41.036  36.658   6.351
 5244POPC   D2A66652  40.737  36.594   6.663
 5244POPC   C3A66653  40.867  36.739   7.061
 5244POPC   C4A66654  41.169  36.533   7.274
 5244POPC   C1B66655  40.878  37.223   6.441
 5244POPC   C2B66656  40.639  37.111   6.792
 5244POPC   C3B66657  40.396  37.103   7.186
 5244POPC   C4B66658  40.511  37.065   7.627
 5245POPC   NC366659  36.488  27.828   5.101
 5245POPC   PO466660  35.957  27.544   5.332
 5245POPC   GL166661  36.061  27.556   5.792
 5245POPC   GL266662  35.990  27.897   5.911
 5245POPC   C1A66663  36.178  27.392   6.211
 5245POPC   D2A66664  36.052  27.608   6.593
 5245POPC   C3A66665  36.116  27.363   6.957
 5245POPC   C4A66666  36.368  27.272   7.294
 5245POPC   C1B66667  36.390  27.867   6.153
 5245POPC   C2B66668  36.496  27.970   6.579
 5245POPC   C3B66669  36.304  27.887   6.967
 5245POPC   C4B66670  36.449  27.781   7.352
 5246POPC   NC366671  15.976  29.479   5.338
 5246POPC   PO466672  15.970  28.791   5.274
 5246POPC   GL166673  16.035  29.071   5.687
 5246POPC   GL266674  16.360  28.922   5.834
 5246POPC   C1A66675  16.009  29.222   6.161
 5246POPC   D2A66676  15.905  29.194   6.652
 5246POPC   C3A66677  15.809  29.446   7.045
 5246POPC   C4A66678  15.815  29.280   7.459
 5246POPC   C1B66679  16.242  28.757   6.254
 5246POPC   C2B66680  16.312  28.889   6.695
 5246POPC   C3B66681  16.194  29.109   7.112
 5246POPC   C4B66682  16.294  29.047   7.583
 5247POPC   NC366683   1.197  33.941   5.311
 5247POPC   PO466684   1.698  33.727   5.644
 5247POPC   GL166685   1.400  33.776   5.913
 5247POPC   GL266686   1.238  34.052   5.809
 5247POPC   C1A66687   1.181  33.673   6.281
 5247POPC   D2A66688   1.405  33.700   6.633
 5247POPC   C3A66689   1.331  33.890   6.997
 5247POPC   C4A66690   1.495  34.019   7.349
 5247POPC   C1B66691   1.157  34.179   6.223
 5247POPC   C2B66692   1.008  34.060   6.634
 5247POPC   C3B66693   0.840  33.982   7.062
 5247POPC   C4B66694   1.004  34.147   7.461
 5248POPC   NC366695  33.567  27.127   5.441
 5248POPC   PO466696  32.916  26.803   5.445
 5248POPC   GL166697  33.161  26.734   5.814
 5248POPC   GL266698  33.301  27.035   5.877
 5248POPC   C1A66699  33.070  26.816   6.271
 5248POPC   D2A66700  32.944  27.006   6.658
 5248POPC   C3A66701  33.029  26.732   6.988
 5248POPC   C4A66702  33.195  26.734   7.384
 5248POPC   C1B66703  33.515  27.152   6.256
 5248POPC   C2B66704  33.440  27.329   6.670
 5248POPC   C3B66705  33.236  27.223   7.050
 5248POPC   C4B66706  33.530  27.096   7.332
 5249POPC   NC366707  29.724  44.342   5.633
 5249POPC   PO466708  29.848  43.777   5.263
 5249POPC   GL166709  29.989  43.895   5.721
 5249POPC   GL266710  30.071  44.227   5.960
 5249POPC   C1A66711  29.922  43.772   6.151
 5249POPC   D2A66712  29.787  43.626   6.575
 5249POPC   C3A66713  29.995  43.628   6.990
 5249POPC   C4A66714  29.911  43.799   7.414
 5249POPC   C1B66715  30.188  44.123   6.359
 5249POPC   C2B66716  30.175  44.041   6.764
 5249POPC   C3B66717  29.804  44.097   7.018
 5249POPC   C4B66718  29.446  44.123   7.228
 5250POPC   NC366719  40.468  38.923   5.286
 5250POPC   PO466720  41.166  39.261   5.337
 5250POPC   GL166721  40.768  39.254   5.610
 5250POPC   GL266722  40.769  38.896   5.702
 5250POPC   C1A66723  40.521  39.386   6.021
 5250POPC   D2A66724  40.657  39.438   6.454
 5250POPC   C3A66725  40.482  39.454   6.874
 5250POPC   C4A66726  40.715  39.599   7.231
 5250POPC   C1B66727  40.917  39.055   6.084
 5250POPC   C2B66728  41.060  39.127   6.491
 5250POPC   C3B66729  40.859  39.133   6.861
 5250POPC   C4B66730  40.977  39.099   7.264
 5251POPC   NC366731  33.723  27.851   5.451
 5251POPC   PO466732  33.914  27.246   5.717
 5251POPC   GL166733  33.854  27.599   5.929
 5251POPC   GL266734  33.601  27.815   5.934
 5251POPC   C1A66735  33.791  27.602   6.348
 5251POPC   D2A66736  34.009  27.774   6.625
 5251POPC   C3A66737  33.897  27.530   6.914
 5251POPC   C4A66738  33.813  27.508   7.332
 5251POPC   C1B66739  33.528  28.045   6.308
 5251POPC   C2B66740  33.524  27.875   6.726
 5251POPC   C3B66741  33.716  27.951   7.115
 5251POPC   C4B66742  33.740  27.990   7.579
 5252POPC   NC366743  22.302  40.059   5.442
 5252POPC   PO466744  21.850  39.563   5.411
 5252POPC   GL166745  21.891  39.822   5.814
 5252POPC   GL266746  22.248  39.843   5.891
 5252POPC   C1A66747  21.961  39.980   6.273
 5252POPC   D2A66748  22.084  40.239   6.624
 5252POPC   C3A66749  21.967  40.107   7.047
 5252POPC   C4A66750  21.845  39.981   7.451
 5252POPC   C1B66751  22.378  40.255   6.127
 5252POPC   C2B66752  22.604  40.315   6.542
 5252POPC   C3B66753  22.461  40.276   6.990
 5252POPC   C4B66754  22.321  40.194   7.425
 5253POPC   NC366755  24.540  40.317   5.267
 5253POPC   PO466756  24.652  40.955   5.348
 5253POPC   GL166757  24.472  40.680   5.702
 5253POPC   GL266758  24.541  40.316   5.779
 5253POPC   C1A66759  24.405  40.771   6.161
 5253POPC   D2A66760  24.562  41.017   6.516
 5253POPC   C3A66761  24.524  40.812   6.921
 5253POPC   C4A66762  24.637  41.060   7.256
 5253POPC   C1B66763  24.762  40.407   6.160
 5253POPC   C2B66764  24.831  40.584   6.573
 5253POPC   C3B66765  24.862  40.422   7.012
 5253POPC   C4B66766  24.709  40.491   7.464
 5254POPC   NC366767  40.802   6.152   5.495
 5254POPC   PO466768  40.930   5.469   5.472
 5254POPC   GL166769  40.941   5.750   5.799
 5254POPC   GL266770  40.594   5.810   5.812
 5254POPC   C1A66771  40.956   6.024   6.170
 5254POPC   D2A66772  40.850   5.855   6.582
 5254POPC   C3A66773  40.776   6.030   6.986
 5254POPC   C4A66774  40.813   5.820   7.382
 5254POPC   C1B66775  40.451   5.948   6.211
 5254POPC   C2B66776  40.316   5.988   6.595
 5254POPC   C3B66777  40.309   5.828   6.968
 5254POPC   C4B66778  40.346   6.053   7.305
 5255POPC   NC366779  11.762  13.230   5.626
 5255POPC   PO466780  11.163  12.946   5.364
 5255POPC   GL166781  11.315  12.879   5.766
 5255POPC   GL266782  11.209  13.184   5.922
 5255POPC   C1A66783  11.367  12.737   6.203
 5255POPC   D2A66784  11.222  12.950   6.600
 5255POPC   C3A66785  11.164  12.679   6.968
 5255POPC   C4A66786  11.207  12.665   7.410
 5255POPC   C1B66787  11.549  13.214   6.240
 5255POPC   C2B66788  11.675  13.196   6.657
 5255POPC   C3B66789  11.528  13.041   7.026
 5255POPC   C4B66790  11.676  13.064   7.416
 5256POPC   NC366791   8.005  24.411   5.500
 5256POPC   PO466792   8.551  24.757   5.344
 5256POPC   GL166793   8.450  24.617   5.791
 5256POPC   GL266794   8.103  24.733   5.883
 5256POPC   C1A66795   8.500  24.269   6.136
 5256POPC   D2A66796   8.541  24.057   6.569
 5256POPC   C3A66797   8.355  24.321   6.920
 5256POPC   C4A66798   8.015  24.242   7.210
 5256POPC   C1B66799   8.211  24.661   6.322
 5256POPC   C2B66800   7.943  24.552   6.675
 5256POPC   C3B66801   7.965  24.714   7.073
 5256POPC   C4B66802   8.325  24.683   7.345
 5257POPC   NC366803  21.541  28.131   5.396
 5257POPC   PO466804  20.933  28.489   5.546
 5257POPC   GL166805  21.251  28.287   5.808
 5257POPC   GL266806  21.376  27.926   5.830
 5257POPC   C1A66807  21.323  28.386   6.230
 5257POPC   D2A66808  21.352  28.605   6.618
 5257POPC   C3A66809  21.277  28.469   7.025
 5257POPC   C4A66810  21.589  28.365   7.374
 5257POPC   C1B66811  21.516  27.915   6.246
 5257POPC   C2B66812  21.413  28.061   6.652
 5257POPC   C3B66813  21.470  27.994   7.060
 5257POPC   C4B66814  21.156  28.105   7.356
 5258POPC   NC366815  40.131  34.551   5.457
 5258POPC   PO466816  39.526  34.758   5.514
 5258POPC   GL166817  39.853  34.728   5.868
 5258POPC   GL266818  40.180  34.932   5.802
 5258POPC   C1A66819  39.970  34.419   6.219
 5258POPC   D2A66820  40.224  34.199   6.569
 5258POPC   C3A66821  40.274  34.379   6.981
 5258POPC   C4A66822  39.895  34.425   7.241
 5258POPC   C1B66823  40.247  34.913   6.244
 5258POPC   C2B66824  40.033  34.733   6.627
 5258POPC   C3B66825  40.078  34.855   7.052
 5258POPC   C4B66826  40.304  34.897   7.425
 5259POPC   NC366827  29.695  30.220   5.357
 5259POPC   PO466828  30.276  29.845   5.405
 5259POPC   GL166829  29.944  29.789   5.720
 5259POPC   GL266830  29.692  29.999   5.805
 5259POPC   C1A66831  30.012  29.810   6.178
 5259POPC   D2A66832  30.096  30.144   6.446
 5259POPC   C3A66833  30.115  30.046   6.868
 5259POPC   C4A66834  29.860  29.961   7.236
 5259POPC   C1B66835  29.568  30.072   6.209
 5259POPC   C2B66836  29.637  29.919   6.593
 5259POPC   C3B66837  29.448  30.017   6.964
 5259POPC   C4B66838  29.391  29.799   7.367
 5260POPC   NC366839  32.601   3.290   5.423
 5260POPC   PO466840  33.051   3.828   5.414
 5260POPC   GL166841  32.875   3.794   5.804
 5260POPC   GL266842  32.946   3.454   5.803
 5260POPC   C1A66843  33.050   3.799   6.232
 5260POPC   D2A66844  33.392   3.787   6.550
 5260POPC   C3A66845  33.258   3.665   6.968
 5260POPC   C4A66846  32.862   3.748   7.165
 5260POPC   C1B66847  32.834   3.331   6.206
 5260POPC   C2B66848  32.792   3.463   6.632
 5260POPC   C3B66849  32.883   3.220   6.972
 5260POPC   C4B66850  33.070   3.309   7.338
 5261POPC   NC366851  43.501  43.141   5.199
 5261POPC   PO466852  42.965  42.839   5.453
 5261POPC   GL166853  43.024  43.049   5.889
 5261POPC   GL266854  43.331  43.146   5.967
 5261POPC   C1A66855  42.963  43.146   6.338
 5261POPC   D2A66856  43.181  43.105   6.737
 5261POPC   C3A66857  42.961  43.128   7.116
 5261POPC   C4A66858  42.912  43.082   7.538
 5261POPC   C1B66859  43.527  43.169   6.359
 5261POPC   C2B66860  43.698  43.238   6.766
 5261POPC   C3B66861  43.493  43.139   7.143
 5261POPC   C4B66862  43.306  43.364   7.460
 5262POPC   NC366863  41.525  14.159   5.110
 5262POPC   PO466864  41.259  14.752   5.403
 5262POPC   GL166865  41.495  14.459   5.669
 5262POPC   GL266866  41.425  14.172   5.907
 5262POPC   C1A66867  41.808  14.489   6.021
 5262POPC   D2A66868  41.669  14.296   6.413
 5262POPC   C3A66869  41.726  14.426   6.852
 5262POPC   C4A66870  42.054  14.362   7.162
 5262POPC   C1B66871  41.329  14.587   6.133
 5262POPC   C2B66872  41.258  14.588   6.580
 5262POPC   C3B66873  41.337  14.746   6.982
 5262POPC   C4B66874  41.273  14.610   7.420
 5263POPC   NC366875   3.296   6.525   5.480
 5263POPC   PO466876   2.667   6.489   5.412
 5263POPC   GL166877   2.905   6.500   5.796
 5263POPC   GL266878   2.700   6.276   5.886
 5263POPC   C1A66879   2.946   6.753   6.196
 5263POPC   D2A66880   2.977   6.989   6.555
 5263POPC   C3A66881   2.679   6.878   6.873
 5263POPC   C4A66882   2.828   6.818   7.283
 5263POPC   C1B66883   2.956   6.252   6.242
 5263POPC   C2B66884   2.742   6.444   6.567
 5263POPC   C3B66885   2.759   6.382   6.977
 5263POPC   C4B66886   2.917   6.189   7.305
 5264POPC   NC366887   9.918  20.551   5.272
 5264POPC   PO466888  10.609  20.758   5.492
 5264POPC   GL166889  10.451  20.590   5.862
 5264POPC   GL266890  10.713  20.310   5.896
 5264POPC   C1A66891  10.353  20.778   6.281
 5264POPC   D2A66892  10.292  20.570   6.684
 5264POPC   C3A66893  10.472  20.699   7.067
 5264POPC   C4A66894  10.197  20.968   7.299
 5264POPC   C1B66895  10.862  20.638   6.187
 5264POPC   C2B66896  10.799  20.763   6.646
 5264POPC   C3B66897  10.940  20.489   7.009
 5264POPC   C4B66898  10.904  20.514   7.446
 5265POPC   NC366899  14.948  42.091   5.712
 5265POPC   PO466900  15.139  42.709   5.517
 5265POPC   GL166901  15.297  42.435   5.866
 5265POPC   GL266902  14.989  42.521   5.991
 5265POPC   C1A66903  15.179  42.162   6.298
 5265POPC   D2A66904  14.984  41.938   6.656
 5265POPC   C3A66905  15.013  42.186   7.018
 5265POPC   C4A66906  15.402  42.203   7.208
 5265POPC   C1B66907  15.271  42.666   6.314
 5265POPC   C2B66908  15.335  42.540   6.745
 5265POPC   C3B66909  15.132  42.675   7.122
 5265POPC   C4B66910  15.096  42.569   7.555
 5266POPC   NC366911  43.589   0.415   5.407
 5266POPC   PO466912  42.829   0.418   5.331
 5266POPC   GL166913  42.881   0.435   5.803
 5266POPC   GL266914  42.943   0.119   5.977
 5266POPC   C1A66915  42.895   0.745   6.180
 5266POPC   D2A66916  43.062   0.880   6.607
 5266POPC   C3A66917  42.798   0.770   6.977
 5266POPC   C4A66918  42.953   0.485   7.282
 5266POPC   C1B66919  43.033   0.250   6.361
 5266POPC   C2B66920  43.012   0.354   6.778
 5266POPC   C3B66921  43.382   0.337   7.028
 5266POPC   C4B66922  43.618   0.104   7.286
 5267POPC   NC366923   0.844   6.488   5.504
 5267POPC   PO466924   0.516   7.042   5.335
 5267POPC   GL166925   0.324   6.823   5.727
 5267POPC   GL266926   0.608   6.665   5.925
 5267POPC   C1A66927   0.099   6.782   6.167
 5267POPC   D2A66928   0.071   6.648   6.650
 5267POPC   C3A66929   0.222   6.911   7.028
 5267POPC   C4A66930   0.644   7.127   7.073
 5267POPC   C1B66931   0.570   6.370   6.283
 5267POPC   C2B66932   0.775   6.377   6.706
 5267POPC   C3B66933   0.571   6.497   7.095
 5267POPC   C4B66934   0.151   6.315   7.078
 5268POPC   NC366935  44.424   9.498   5.393
 5268POPC   PO466936  44.680  10.056   5.192
 5268POPC   GL166937  44.623   9.872   5.672
 5268POPC   GL266938  44.748   9.538   5.799
 5268POPC   C1A66939  44.627   9.834   6.173
 5268POPC   D2A66940  44.805   9.739   6.588
 5268POPC   C3A66941  44.670   9.907   6.947
 5268POPC   C4A66942  44.366   9.776   7.228
 5268POPC   C1B66943  44.988   9.440   6.218
 5268POPC   C2B66944   0.229   9.440   6.620
 5268POPC   C3B66945   0.185   9.535   7.037
 5268POPC   C4B66946  44.797   9.490   7.242
 5269POPC   NC366947  37.285  44.474   5.534
 5269POPC   PO466948  36.567  44.611   5.595
 5269POPC   GL166949  36.858  44.608   5.898
 5269POPC   GL266950  36.682  44.417   6.160
 5269POPC   C1A66951  37.167  44.597   6.228
 5269POPC   D2A66952  37.302  44.755   6.639
 5269POPC   C3A66953  36.973  44.740   6.945
 5269POPC   C4A66954  36.998  44.811   7.389
 5269POPC   C1B66955  36.720  44.869   6.324
 5269POPC   C2B66956  36.664   0.102   6.714
 5269POPC   C3B66957  36.593   0.010   7.166
 5269POPC   C4B66958  36.536  44.646   7.501
 5270POPC   NC366959  23.117  40.293   5.558
 5270POPC   PO466960  22.706  39.727   5.377
 5270POPC   GL166961  22.732  39.970   5.773
 5270POPC   GL266962  23.026  39.898   5.922
 5270POPC   C1A66963  22.617  39.843   6.240
 5270POPC   D2A66964  22.626  39.647   6.646
 5270POPC   C3A66965  22.819  39.901   6.948
 5270POPC   C4A66966  22.828  40.111   7.343
 5270POPC   C1B66967  23.071  40.081   6.311
 5270POPC   C2B66968  23.279  40.098   6.699
 5270POPC   C3B66969  23.475  40.357   6.992
 5270POPC   C4B66970  23.242  40.446   7.340
 5271POPC   NC366971  27.048  21.590   5.643
 5271POPC   PO466972  26.954  20.939   5.449
 5271POPC   GL166973  26.667  21.164   5.755
 5271POPC   GL266974  26.568  21.533   5.819
 5271POPC   C1A66975  26.581  21.146   6.191
 5271POPC   D2A66976  26.583  21.474   6.532
 5271POPC   C3A66977  26.622  21.349   6.944
 5271POPC   C4A66978  27.016  21.338   7.191
 5271POPC   C1B66979  26.476  21.814   6.172
 5271POPC   C2B66980  26.534  21.979   6.616
 5271POPC   C3B66981  26.854  21.803   6.919
 5271POPC   C4B66982  27.015  21.809   7.347
 5272POPC   NC366983  21.913  41.711   5.444
 5272POPC   PO466984  22.416  41.351   5.426
 5272POPC   GL166985  22.342  41.526   5.833
 5272POPC   GL266986  22.240  41.853   5.795
 5272POPC   C1A66987  22.442  41.738   6.240
 5272POPC   D2A66988  22.472  41.631   6.667
 5272POPC   C3A66989  22.193  41.723   6.969
 5272POPC   C4A66990  21.908  41.448   7.201
 5272POPC   C1B66991  21.924  41.758   6.133
 5272POPC   C2B66992  21.862  41.972   6.543
 5272POPC   C3B66993  21.712  41.889   6.972
 5272POPC   C4B66994  21.946  41.921   7.369
 5273POPC   NC366995   6.525  28.843   5.270
 5273POPC   PO466996   6.758  29.480   5.396
 5273POPC   GL166997   6.870  29.333   5.817
 5273POPC   GL266998   6.889  28.976   5.839
 5273POPC   C1A66999   6.719  29.272   6.258
 5273POPC   D2A67000   6.438  29.294   6.587
 5273POPC   C3A67001   6.619  29.311   6.991
 5273POPC   C4A67002   6.365  29.037   7.258
 5273POPC   C1B67003   6.897  28.794   6.274
 5273POPC   C2B67004   6.792  28.895   6.718
 5273POPC   C3B67005   6.815  28.858   7.179
 5273POPC   C4B67006   6.620  28.778   7.618
 5274POPC   NC367007  33.230  15.123   5.364
 5274POPC   PO467008  32.725  15.608   5.527
 5274POPC   GL167009  32.991  15.328   5.794
 5274POPC   GL267010  33.208  15.005   5.874
 5274POPC   C1A67011  32.900  15.215   6.203
 5274POPC   D2A67012  33.027  15.045   6.598
 5274POPC   C3A67013  32.974  15.290   6.988
 5274POPC   C4A67014  32.961  15.073   7.384
 5274POPC   C1B67015  33.418  15.256   6.258
 5274POPC   C2B67016  33.464  15.308   6.725
 5274POPC   C3B67017  33.376  14.970   6.976
 5274POPC   C4B67018  33.210  14.658   7.171
 5275POPC   NC367019   4.419  16.156   5.388
 5275POPC   PO467020   3.996  15.700   5.398
 5275POPC   GL167021   4.047  15.893   5.802
 5275POPC   GL267022   4.406  16.002   5.905
 5275POPC   C1A67023   3.953  15.833   6.247
 5275POPC   D2A67024   4.267  15.954   6.512
 5275POPC   C3A67025   4.200  15.927   6.927
 5275POPC   C4A67026   4.396  16.008   7.286
 5275POPC   C1B67027   4.118  16.298   6.127
 5275POPC   C2B67028   4.075  16.430   6.560
 5275POPC   C3B67029   4.286  16.425   6.967
 5275POPC   C4B67030   4.229  16.465   7.427
 5276POPC   NC367031  21.178  44.901   5.387
 5276POPC   PO467032  21.640  44.517   5.605
 5276POPC   GL167033  21.237  44.489   5.735
 5276POPC   GL267034  21.106  44.184   5.591
 5276POPC   C1A67035  21.306  44.558   6.181
 5276POPC   D2A67036  21.514  44.869   6.446
 5276POPC   C3A67037  21.475  44.807   6.862
 5276POPC   C4A67038  21.211  44.688   7.170
 5276POPC   C1B67039  20.992  44.148   6.059
 5276POPC   C2B67040  21.185  44.163   6.496
 5276POPC   C3B67041  21.049  44.245   6.929
 5276POPC   C4B67042  21.196  44.224   7.379
 5277POPC   NC367043  29.592  19.488   5.266
 5277POPC   PO467044  30.105  19.828   5.383
 5277POPC   GL167045  30.110  19.814   5.843
 5277POPC   GL267046  29.797  19.615   5.960
 5277POPC   C1A67047  30.057  19.919   6.291
 5277POPC   D2A67048  30.255  19.858   6.680
 5277POPC   C3A67049  30.017  19.963   7.007
 5277POPC   C4A67050  30.107  19.855   7.387
 5277POPC   C1B67051  29.521  19.572   6.334
 5277POPC   C2B67052  29.508  19.679   6.780
 5277POPC   C3B67053  29.651  19.658   7.215
 5277POPC   C4B67054  29.635  19.979   7.565
 5278POPC   NC367055  17.077  39.275   5.323
 5278POPC   PO467056  17.733  39.089   5.293
 5278POPC   GL167057  17.672  39.109   5.746
 5278POPC   GL267058  17.343  39.257   5.764
 5278POPC   C1A67059  17.653  39.288   6.179
 5278POPC   D2A67060  17.704  39.475   6.585
 5278POPC   C3A67061  17.618  39.247   6.946
 5278POPC   C4A67062  17.783  39.039   7.302
 5278POPC   C1B67063  17.165  39.136   6.144
 5278POPC   C2B67064  17.230  39.011   6.555
 5278POPC   C3B67065  17.069  39.033   6.951
 5278POPC   C4B67066  17.262  39.157   7.293
 5279POPC   NC367067   5.086  17.874   5.355
 5279POPC   PO467068   5.551  18.326   5.484
 5279POPC   GL167069   5.308  18.100   5.785
 5279POPC   GL267070   4.953  18.227   5.712
 5279POPC   C1A67071   5.303  18.278   6.214
 5279POPC   D2A67072   5.307  18.643   6.532
 5279POPC   C3A67073   5.405  18.488   6.950
 5279POPC   C4A67074   5.245  18.359   7.347
 5279POPC   C1B67075   4.784  18.413   6.122
 5279POPC   C2B67076   4.786  18.489   6.593
 5279POPC   C3B67077   4.809  18.431   7.057
 5279POPC   C4B67078   4.540  18.681   7.349
 5280POPC   NC367079  40.761  28.617   5.511
 5280POPC   PO467080  40.493  27.951   5.404
 5280POPC   GL167081  40.560  28.230   5.781
 5280POPC   GL267082  40.908  28.177   5.930
 5280POPC   C1A67083  40.597  28.493   6.189
 5280POPC   D2A67084  40.851  28.411   6.578
 5280POPC   C3A67085  40.612  28.349   6.941
 5280POPC   C4A67086  40.447  28.635   7.207
 5280POPC   C1B67087  41.197  28.453   6.187
 5280POPC   C2B67088  41.327  28.650   6.573
 5280POPC   C3B67089  41.239  28.534   6.982
 5280POPC   C4B67090  40.939  28.523   7.292
 5281POPC   NC367091  42.934  29.408   5.505
 5281POPC   PO467092  43.266  28.795   5.647
 5281POPC   GL167093  43.079  29.095   5.895
 5281POPC   GL267094  43.304  29.381   5.878
 5281POPC   C1A67095  43.076  29.207   6.324
 5281POPC   D2A67096  43.239  29.092   6.691
 5281POPC   C3A67097  43.002  29.155   7.046
 5281POPC   C4A67098  43.362  29.001   7.238
 5281POPC   C1B67099  43.393  29.662   6.213
 5281POPC   C2B67100  43.239  29.630   6.612
 5281POPC   C3B67101  43.382  29.503   7.018
 5281POPC   C4B67102  43.558  29.464   7.416
 5282POPC   NC367103   6.812   5.431   5.497
 5282POPC   PO467104   6.570   4.806   5.355
 5282POPC   GL167105   6.766   4.989   5.743
 5282POPC   GL267106   6.424   5.016   5.843
 5282POPC   C1A67107   6.851   5.251   6.137
 5282POPC   D2A67108   6.707   5.478   6.498
 5282POPC   C3A67109   6.764   5.333   6.913
 5282POPC   C4A67110   6.985   5.421   7.297
 5282POPC   C1B67111   6.203   4.906   6.216
 5282POPC   C2B67112   6.315   5.070   6.616
 5282POPC   C3B67113   6.232   5.165   7.034
 5282POPC   C4B67114   6.508   5.167   7.333
 5283POPC   NC367115  13.934  15.983   5.429
 5283POPC   PO467116  13.265  15.877   5.401
 5283POPC   GL167117  13.511  15.884   5.842
 5283POPC   GL267118  13.901  15.894   5.938
 5283POPC   C1A67119  13.528  16.055   6.289
 5283POPC   D2A67120  13.500  15.855   6.707
 5283POPC   C3A67121  13.494  16.079   7.118
 5283POPC   C4A67122  13.307  16.042   7.545
 5283POPC   C1B67123  14.095  16.171   6.255
 5283POPC   C2B67124  13.934  16.294   6.681
 5283POPC   C3B67125  14.004  16.292   7.143
 5283POPC   C4B67126  13.800  16.159   7.539
 5284POPC   NC367127  24.038  13.928   5.533
 5284POPC   PO467128  24.021  14.611   5.499
 5284POPC   GL167129  23.748  14.353   5.783
 5284POPC   GL267130  23.459  14.078   5.751
 5284POPC   C1A67131  23.780  14.338   6.220
 5284POPC   D2A67132  23.938  14.520   6.612
 5284POPC   C3A67133  23.730  14.415   6.999
 5284POPC   C4A67134  23.917  14.273   7.382
 5284POPC   C1B67135  23.339  14.105   6.200
 5284POPC   C2B67136  23.535  14.004   6.633
 5284POPC   C3B67137  23.592  13.924   7.092
 5284POPC   C4B67138  23.387  14.199   7.405
 5285POPC   NC367139  35.640  10.824   5.447
 5285POPC   PO467140  35.180  10.361   5.505
 5285POPC   GL167141  35.408  10.543   5.839
 5285POPC   GL267142  35.160  10.783   5.926
 5285POPC   C1A67143  35.309  10.436   6.294
 5285POPC   D2A67144  35.071  10.396   6.689
 5285POPC   C3A67145  35.195  10.195   7.100
 5285POPC   C4A67146  35.504  10.408   7.442
 5285POPC   C1B67147  35.544  10.876   6.226
 5285POPC   C2B67148  35.513  10.732   6.672
 5285POPC   C3B67149  35.265  10.692   7.073
 5285POPC   C4B67150  35.254  10.833   7.507
 5286POPC   NC367151  26.406  11.136   5.499
 5286POPC   PO467152  25.701  11.035   5.402
 5286POPC   GL167153  25.886  11.310   5.701
 5286POPC   GL267154  26.082  11.130   5.888
 5286POPC   C1A67155  25.950  11.593   6.060
 5286POPC   D2A67156  26.118  11.566   6.488
 5286POPC   C3A67157  25.852  11.572   6.844
 5286POPC   C4A67158  25.989  11.375   7.198
 5286POPC   C1B67159  25.908  11.127   6.264
 5286POPC   C2B67160  25.835  11.086   6.680
 5286POPC   C3B67161  25.960  10.887   7.003
 5286POPC   C4B67162  26.207  10.929   7.300
 5287POPC   NC367163   2.844  42.856   5.316
 5287POPC   PO467164   2.525  42.264   5.451
 5287POPC   GL167165   2.615  42.402   5.839
 5287POPC   GL267166   2.343  42.180   5.937
 5287POPC   C1A67167   2.713  42.415   6.288
 5287POPC   D2A67168   2.514  42.517   6.701
 5287POPC   C3A67169   2.810  42.552   7.056
 5287POPC   C4A67170   3.123  42.309   7.316
 5287POPC   C1B67171   2.382  41.850   6.224
 5287POPC   C2B67172   2.565  41.864   6.604
 5287POPC   C3B67173   2.586  42.061   6.997
 5287POPC   C4B67174   2.638  42.234   7.409
 5288POPC   NC367175  38.728  44.240   5.508
 5288POPC   PO467176  38.605  44.993   5.437
 5288POPC   GL167177  38.541  44.822   5.838
 5288POPC   GL267178  38.311  44.533   5.786
 5288POPC   C1A67179  38.573  44.751   6.284
 5288POPC   D2A67180  38.888  44.585   6.542
 5288POPC   C3A67181  38.703  44.560   6.933
 5288POPC   C4A67182  38.503  44.781   7.264
 5288POPC   C1B67183  38.161  44.402   6.209
 5288POPC   C2B67184  38.277  44.349   6.680
 5288POPC   C3B67185  38.179  44.421   7.115
 5288POPC   C4B67186  38.223  44.499   7.584
 5289POPC   NC367187  16.307  41.115   5.424
 5289POPC   PO467188  15.705  40.908   5.431
 5289POPC   GL167189  15.873  40.686   5.787
 5289POPC   GL267190  15.520  40.552   5.840
 5289POPC   C1A67191  16.196  40.717   6.170
 5289POPC   D2A67192  16.384  40.839   6.606
 5289POPC   C3A67193  16.064  40.950   6.926
 5289POPC   C4A67194  16.036  41.064   7.358
 5289POPC   C1B67195  15.666  40.754   6.236
 5289POPC   C2B67196  15.897  40.569   6.583
 5289POPC   C3B67197  16.185  40.435   6.906
 5289POPC   C4B67198  16.090  40.563   7.285
 5290POPC   NC367199  39.130  30.867   5.423
 5290POPC   PO467200  39.283  30.283   5.420
 5290POPC   GL167201  39.072  30.474   5.788
 5290POPC   GL267202  38.890  30.794   5.863
 5290POPC   C1A67203  39.273  30.638   6.181
 5290POPC   D2A67204  39.364  30.477   6.588
 5290POPC   C3A67205  39.379  30.680   6.969
 5290POPC   C4A67206  39.674  30.595   7.262
 5290POPC   C1B67207  38.802  30.797   6.292
 5290POPC   C2B67208  39.006  30.878   6.665
 5290POPC   C3B67209  38.892  30.802   7.090
 5290POPC   C4B67210  39.113  30.929   7.458
 5291POPC   NC367211   8.250   8.700   5.255
 5291POPC   PO467212   8.086   9.321   5.410
 5291POPC   GL167213   8.249   9.095   5.807
 5291POPC   GL267214   8.376   8.720   5.776
 5291POPC   C1A67215   8.158   9.047   6.273
 5291POPC   D2A67216   8.419   9.073   6.662
 5291POPC   C3A67217   8.291   9.325   7.028
 5291POPC   C4A67218   8.012   9.216   7.396
 5291POPC   C1B67219   8.295   8.551   6.213
 5291POPC   C2B67220   8.116   8.630   6.642
 5291POPC   C3B67221   8.199   8.747   7.082
 5291POPC   C4B67222   8.522   8.590   7.360
 5292POPC   NC367223  22.201  23.164   5.364
 5292POPC   PO467224  22.013  22.493   5.436
 5292POPC   GL167225  21.919  22.659   5.836
 5292POPC   GL267226  22.056  23.004   5.832
 5292POPC   C1A67227  22.147  22.646   6.244
 5292POPC   D2A67228  22.329  22.818   6.646
 5292POPC   C3A67229  22.082  22.836   7.037
 5292POPC   C4A67230  21.877  22.854   7.457
 5292POPC   C1B67231  22.116  23.165   6.254
 5292POPC   C2B67232  21.989  23.236   6.685
 5292POPC   C3B67233  22.311  23.356   6.976
 5292POPC   C4B67234  22.336  23.150   7.354
 5293POPC   NC367235   1.559   6.183   5.118
 5293POPC   PO467236   2.186   5.828   5.141
 5293POPC   GL167237   2.140   5.985   5.620
 5293POPC   GL267238   1.868   5.774   5.735
 5293POPC   C1A67239   2.039   6.045   6.122
 5293POPC   D2A67240   1.989   5.805   6.531
 5293POPC   C3A67241   1.948   6.023   6.940
 5293POPC   C4A67242   1.789   6.220   7.282
 5293POPC   C1B67243   1.722   5.585   6.146
 5293POPC   C2B67244   1.509   5.441   6.512
 5293POPC   C3B67245   1.612   5.633   6.885
 5293POPC   C4B67246   1.725   5.684   7.287
 5294POPC   NC367247   1.232   3.843   5.429
 5294POPC   PO467248   1.169   3.240   5.185
 5294POPC   GL167249   1.309   3.383   5.661
 5294POPC   GL267250   1.005   3.319   5.843
 5294POPC   C1A67251   1.320   3.596   6.130
 5294POPC   D2A67252   1.178   3.461   6.583
 5294POPC   C3A67253   1.402   3.623   6.962
 5294POPC   C4A67254   1.227   3.804   7.342
 5294POPC   C1B67255   0.827   3.552   6.215
 5294POPC   C2B67256   0.664   3.677   6.587
 5294POPC   C3B67257   0.869   3.717   6.961
 5294POPC   C4B67258   0.758   3.523   7.315
 5295POPC   NC367259  15.581  42.800   5.401
 5295POPC   PO467260  15.051  43.410   5.237
 5295POPC   GL167261  15.150  43.286   5.696
 5295POPC   GL267262  14.930  43.052   5.852
 5295POPC   C1A67263  15.419  43.089   6.050
 5295POPC   D2A67264  15.630  42.991   6.479
 5295POPC   C3A67265  15.494  43.047   6.907
 5295POPC   C4A67266  15.409  43.046   7.324
 5295POPC   C1B67267  14.964  43.109   6.277
 5295POPC   C2B67268  15.049  42.971   6.665
 5295POPC   C3B67269  14.842  43.098   6.997
 5295POPC   C4B67270  14.921  43.117   7.399
 5296POPC   NC367271  27.347   0.706   5.416
 5296POPC   PO467272  27.894   0.375   5.390
 5296POPC   GL167273  27.721   0.367   5.799
 5296POPC   GL267274  27.927   0.612   5.936
 5296POPC   C1A67275  27.486   0.461   6.188
 5296POPC   D2A67276  27.468   0.678   6.598
 5296POPC   C3A67277  27.488   0.361   6.892
 5296POPC   C4A67278  27.485   0.205   7.285
 5296POPC   C1B67279  27.936   0.609   6.387
 5296POPC   C2B67280  27.974   0.521   6.788
 5296POPC   C3B67281  27.915   0.484   7.242
 5296POPC   C4B67282  27.864   0.247   7.630
 5297POPC   NC367283  31.194  16.885   5.110
 5297POPC   PO467284  30.590  16.707   5.386
 5297POPC   GL167285  30.658  16.640   5.826
 5297POPC   GL267286  30.958  16.453   5.911
 5297POPC   C1A67287  30.580  16.736   6.260
 5297POPC   D2A67288  30.633  16.566   6.642
 5297POPC   C3A67289  30.896  16.735   6.920
 5297POPC   C4A67290  30.642  16.902   7.229
 5297POPC   C1B67291  30.701  16.224   6.225
 5297POPC   C2B67292  30.819  16.112   6.663
 5297POPC   C3B67293  30.742  16.312   7.100
 5297POPC   C4B67294  30.763  16.496   7.541
 5298POPC   NC367295  35.579   5.659   5.423
 5298POPC   PO467296  35.232   6.132   5.494
 5298POPC   GL167297  35.218   5.833   5.877
 5298POPC   GL267298  34.942   5.554   5.877
 5298POPC   C1A67299  35.333   5.963   6.329
 5298POPC   D2A67300  35.308   6.185   6.762
 5298POPC   C3A67301  35.536   6.168   7.179
 5298POPC   C4A67302  35.422   6.045   7.619
 5298POPC   C1B67303  34.970   5.597   6.302
 5298POPC   C2B67304  35.105   5.700   6.715
 5298POPC   C3B67305  35.236   5.757   7.137
 5298POPC   C4B67306  35.646   5.671   7.336
 5299POPC   NC367307   2.785  24.715   5.484
 5299POPC   PO467308   2.870  25.371   5.552
 5299POPC   GL167309   2.638  25.406   5.917
 5299POPC   GL267310   2.528  25.078   5.807
 5299POPC   C1A67311   2.612  25.311   6.365
 5299POPC   D2A67312   2.626  25.239   6.789
 5299POPC   C3A67313   2.773  25.589   7.020
 5299POPC   C4A67314   2.660  25.418   7.369
 5299POPC   C1B67315   2.888  24.998   6.098
 5299POPC   C2B67316   2.798  24.813   6.476
 5299POPC   C3B67317   2.758  24.757   6.907
 5299POPC   C4B67318   2.836  24.886   7.298
 5300POPC   NC367319  38.824   6.108   5.492
 5300POPC   PO467320  39.395   5.794   5.470
 5300POPC   GL167321  39.301   5.662   5.862
 5300POPC   GL267322  38.945   5.577   5.867
 5300POPC   C1A67323  39.316   5.959   6.235
 5300POPC   D2A67324  39.134   6.171   6.615
 5300POPC   C3A67325  39.294   5.947   6.986
 5300POPC   C4A67326  39.356   5.990   7.413
 5300POPC   C1B67327  39.070   5.516   6.291
 5300POPC   C2B67328  38.963   5.685   6.674
 5300POPC   C3B67329  38.975   5.537   7.082
 5300POPC   C4B67330  39.205   5.527   7.468
 5301POPC   NC367331   5.457  14.341   5.498
 5301POPC   PO467332   6.040  14.154   5.482
 5301POPC   GL167333   5.829  14.277   5.872
 5301POPC   GL267334   5.804  14.610   5.810
 5301POPC   C1A67335   5.853  14.389   6.330
 5301POPC   D2A67336   5.728  14.187   6.694
 5301POPC   C3A67337   5.896  14.357   7.077
 5301POPC   C4A67338   6.314  14.523   7.158
 5301POPC   C1B67339   5.678  14.820   6.151
 5301POPC   C2B67340   5.639  14.828   6.562
 5301POPC   C3B67341   5.739  14.838   6.966
 5301POPC   C4B67342   5.471  14.637   7.222
 5302POPC   NC367343   2.514  21.386   5.476
 5302POPC   PO467344   3.175  21.037   5.533
 5302POPC   GL167345   2.858  21.181   5.840
 5302POPC   GL267346   2.783  21.554   5.902
 5302POPC   C1A67347   2.840  21.143   6.288
 5302POPC   D2A67348   3.135  21.210   6.645
 5302POPC   C3A67349   2.965  21.030   6.974
 5302POPC   C4A67350   2.666  21.206   7.243
 5302POPC   C1B67351   2.605  21.608   6.308
 5302POPC   C2B67352   2.598  21.381   6.709
 5302POPC   C3B67353   2.484  21.667   7.020
 5302POPC   C4B67354   2.339  21.879   7.375
 5303POPC   NC367355  27.321  23.261   5.457
 5303POPC   PO467356  27.058  22.700   5.316
 5303POPC   GL167357  27.010  22.858   5.758
 5303POPC   GL267358  26.705  22.709   5.949
 5303POPC   C1A67359  26.879  23.192   6.079
 5303POPC   D2A67360  26.914  23.253   6.552
 5303POPC   C3A67361  26.648  23.035   6.868
 5303POPC   C4A67362  26.284  23.061   7.158
 5303POPC   C1B67363  26.966  22.748   6.328
 5303POPC   C2B67364  27.043  22.672   6.764
 5303POPC   C3B67365  26.941  22.727   7.183
 5303POPC   C4B67366  27.171  22.819   7.556
 5304POPC   NC367367  37.835  11.883   5.498
 5304POPC   PO467368  37.336  12.367   5.459
 5304POPC   GL167369  37.500  12.163   5.793
 5304POPC   GL267370  37.792  12.358   5.729
 5304POPC   C1A67371  37.469  12.010   6.200
 5304POPC   D2A67372  37.605  11.866   6.578
 5304POPC   C3A67373  37.435  11.948   6.964
 5304POPC   C4A67374  37.717  11.871   7.338
 5304POPC   C1B67375  37.944  12.201   6.083
 5304POPC   C2B67376  37.936  12.276   6.494
 5304POPC   C3B67377  37.867  12.205   6.900
 5304POPC   C4B67378  37.962  12.419   7.238
 5305POPC   NC367379   5.853   1.344   5.434
 5305POPC   PO467380   5.760   0.640   5.517
 5305POPC   GL167381   6.039   0.867   5.846
 5305POPC   GL267382   6.054   1.253   5.898
 5305POPC   C1A67383   6.020   0.927   6.301
 5305POPC   D2A67384   5.940   1.084   6.696
 5305POPC   C3A67385   6.121   1.195   7.076
 5305POPC   C4A67386   5.839   0.997   7.335
 5305POPC   C1B67387   5.763   1.372   6.239
 5305POPC   C2B67388   5.754   1.561   6.655
 5305POPC   C3B67389   5.596   1.326   7.025
 5305POPC   C4B67390   5.532   1.411   7.466
 5306POPC   NC367391  44.083   8.565   5.510
 5306POPC   PO467392  43.909   8.046   5.272
 5306POPC   GL167393  43.800   8.120   5.709
 5306POPC   GL267394  43.636   8.453   5.781
 5306POPC   C1A67395  43.942   8.192   6.147
 5306POPC   D2A67396  44.146   8.310   6.534
 5306POPC   C3A67397  43.994   8.214   6.958
 5306POPC   C4A67398  44.061   8.013   7.338
 5306POPC   C1B67399  43.620   8.598   6.205
 5306POPC   C2B67400  43.645   8.428   6.648
 5306POPC   C3B67401  43.653   8.595   7.109
 5306POPC   C4B67402  43.548   8.649   7.580
 5307POPC   NC367403  36.408  36.555   5.591
 5307POPC   PO467404  36.188  37.226   5.508
 5307POPC   GL167405  36.164  36.964   5.833
 5307POPC   GL267406  36.514  37.013   5.843
 5307POPC   C1A67407  36.149  36.805   6.248
 5307POPC   D2A67408  36.088  37.016   6.659
 5307POPC   C3A67409  36.166  36.693   6.998
 5307POPC   C4A67410  36.070  36.706   7.446
 5307POPC   C1B67411  36.515  37.142   6.228
 5307POPC   C2B67412  36.568  36.881   6.586
 5307POPC   C3B67413  36.625  37.040   6.975
 5307POPC   C4B67414  36.547  36.855   7.329
 5308POPC   NC367415  13.601  10.229   5.434
 5308POPC   PO467416  13.936  10.863   5.292
 5308POPC   GL167417  13.730  10.738   5.718
 5308POPC   GL267418  13.460  10.508   5.828
 5308POPC   C1A67419  13.660  10.794   6.195
 5308POPC   D2A67420  13.341  10.688   6.525
 5308POPC   C3A67421  13.510  10.717   6.934
 5308POPC   C4A67422  13.445  10.599   7.366
 5308POPC   C1B67423  13.498  10.208   6.173
 5308POPC   C2B67424  13.291  10.127   6.568
 5308POPC   C3B67425  13.328   9.939   6.968
 5308POPC   C4B67426  13.634  10.196   7.101
 5309POPC   NC367427  12.084  28.914   5.782
 5309POPC   PO467428  11.769  29.460   5.540
 5309POPC   GL167429  11.967  29.383   5.957
 5309POPC   GL267430  12.306  29.500   6.098
 5309POPC   C1A67431  11.973  29.231   6.395
 5309POPC   D2A67432  12.271  29.209   6.747
 5309POPC   C3A67433  12.319  29.490   7.038
 5309POPC   C4A67434  11.955  29.390   7.225
 5309POPC   C1B67435  12.495  29.114   6.297
 5309POPC   C2B67436  12.632  28.879   6.659
 5309POPC   C3B67437  12.499  28.820   7.054
 5309POPC   C4B67438  12.505  29.122   7.338
 5310POPC   NC367439  16.135   9.933   5.206
 5310POPC   PO467440  16.837   9.879   5.304
 5310POPC   GL167441  16.802   9.893   5.774
 5310POPC   GL267442  16.663   9.609   5.937
 5310POPC   C1A67443  16.821  10.174   6.163
 5310POPC   D2A67444  16.944  10.111   6.617
 5310POPC   C3A67445  16.629   9.885   6.859
 5310POPC   C4A67446  16.297  10.081   7.135
 5310POPC   C1B67447  16.788   9.452   6.325
 5310POPC   C2B67448  16.584   9.292   6.692
 5310POPC   C3B67449  16.722   9.405   7.087
 5310POPC   C4B67450  17.140   9.312   7.245
 5311POPC   NC367451  30.527  43.803   5.322
 5311POPC   PO467452  30.244  44.304   5.485
 5311POPC   GL167453  30.490  43.978   5.814
 5311POPC   GL267454  30.776  43.719   5.787
 5311POPC   C1A67455  30.610  43.882   6.261
 5311POPC   D2A67456  30.883  44.062   6.612
 5311POPC   C3A67457  30.686  44.193   7.015
 5311POPC   C4A67458  30.358  43.971   7.228
 5311POPC   C1B67459  31.008  43.579   6.190
 5311POPC   C2B67460  30.758  43.533   6.608
 5311POPC   C3B67461  30.759  43.650   7.050
 5311POPC   C4B67462  31.105  43.561   7.309
 5312POPC   NC367463  16.918  25.807   5.276
 5312POPC   PO467464  16.522  26.443   5.478
 5312POPC   GL167465  16.543  26.191   5.841
 5312POPC   GL267466  16.746  25.886   5.753
 5312POPC   C1A67467  16.730  26.199   6.258
 5312POPC   D2A67468  16.581  26.036   6.650
 5312POPC   C3A67469  16.714  26.178   7.045
 5312POPC   C4A67470  16.613  26.104   7.442
 5312POPC   C1B67471  17.030  25.697   6.060
 5312POPC   C2B67472  16.988  25.677   6.505
 5312POPC   C3B67473  16.912  25.708   6.935
 5312POPC   C4B67474  17.010  25.767   7.358
 5313POPC   NC367475  28.325  31.817   5.458
 5313POPC   PO467476  28.656  32.352   5.691
 5313POPC   GL167477  28.408  32.364   5.998
 5313POPC   GL267478  28.303  32.038   5.933
 5313POPC   C1A67479  28.413  32.523   6.381
 5313POPC   D2A67480  28.244  32.411   6.739
 5313POPC   C3A67481  28.462  32.460   7.084
 5313POPC   C4A67482  28.517  32.061   7.211
 5313POPC   C1B67483  28.221  32.039   6.364
 5313POPC   C2B67484  28.334  31.864   6.741
 5313POPC   C3B67485  28.083  31.832   7.071
 5313POPC   C4B67486  28.111  31.926   7.493
 5314POPC   NC367487  39.158  34.658   5.252
 5314POPC   PO467488  38.919  34.218   5.744
 5314POPC   GL167489  39.099  34.485   5.981
 5314POPC   GL267490  38.919  34.757   5.819
 5314POPC   C1A67491  39.306  34.393   6.351
 5314POPC   D2A67492  39.000  34.562   6.584
 5314POPC   C3A67493  39.108  34.716   6.950
 5314POPC   C4A67494  39.124  34.409   7.250
 5314POPC   C1B67495  39.161  34.945   6.187
 5314POPC   C2B67496  39.401  34.882   6.537
 5314POPC   C3B67497  39.602  34.909   6.896
 5314POPC   C4B67498  39.510  34.783   7.269
 5315POPC   NC367499  12.976  43.071   5.189
 5315POPC   PO467500  12.379  42.968   5.492
 5315POPC   GL167501  12.700  43.004   5.835
 5315POPC   GL267502  13.039  43.182   5.755
 5315POPC   C1A67503  12.739  43.060   6.288
 5315POPC   D2A67504  12.985  43.292   6.594
 5315POPC   C3A67505  12.746  43.195   6.962
 5315POPC   C4A67506  12.600  42.808   7.186
 5315POPC   C1B67507  13.226  42.968   6.125
 5315POPC   C2B67508  13.282  42.866   6.571
 5315POPC   C3B67509  13.108  42.804   6.993
 5315POPC   C4B67510  13.351  42.855   7.345
 5316POPC   NC367511   6.733  40.790   5.358
 5316POPC   PO467512   6.107  40.637   5.498
 5316POPC   GL167513   6.504  40.536   5.810
 5316POPC   GL267514   6.738  40.813   5.850
 5316POPC   C1A67515   6.596  40.604   6.282
 5316POPC   D2A67516   6.436  40.963   6.506
 5316POPC   C3A67517   6.308  40.835   6.908
 5316POPC   C4A67518   6.581  40.752   7.227
 5316POPC   C1B67519   6.938  40.959   6.203
 5316POPC   C2B67520   6.923  40.833   6.620
 5316POPC   C3B67521   6.918  41.060   6.965
 5316POPC   C4B67522   6.970  41.012   7.372
 5317POPC   NC367523  44.382  25.674   5.512
 5317POPC   PO467524  44.682  25.035   5.528
 5317POPC   GL167525  44.724  25.195   5.910
 5317POPC   GL267526  44.733  25.539   5.895
 5317POPC   C1A67527  44.544  25.252   6.320
 5317POPC   D2A67528  44.818  25.249   6.707
 5317POPC   C3A67529  44.595  25.371   7.075
 5317POPC   C4A67530  44.565  25.175   7.488
 5317POPC   C1B67531   0.002  25.469   6.251
 5317POPC   C2B67532   0.084  25.702   6.597
 5317POPC   C3B67533   0.043  25.616   7.003
 5317POPC   C4B67534  44.887  25.669   7.384
 5318POPC   NC367535  41.997  12.279   5.224
 5318POPC   PO467536  42.659  12.206   5.524
 5318POPC   GL167537  42.438  12.266   5.910
 5318POPC   GL267538  42.660  12.507   6.032
 5318POPC   C1A67539  42.204  12.125   6.297
 5318POPC   D2A67540  42.031  11.931   6.668
 5318POPC   C3A67541  42.204  11.881   7.095
 5318POPC   C4A67542  42.577  11.659   7.176
 5318POPC   C1B67543  42.289  12.625   6.264
 5318POPC   C2B67544  42.175  12.512   6.672
 5318POPC   C3B67545  42.312  12.387   7.051
 5318POPC   C4B67546  42.187  12.279   7.455
 5319POPC   NC367547  42.645  35.565   5.095
 5319POPC   PO467548  42.053  35.553   5.427
 5319POPC   GL167549  42.200  35.507   5.846
 5319POPC   GL267550  42.581  35.554   5.826
 5319POPC   C1A67551  42.067  35.294   6.241
 5319POPC   D2A67552  42.146  35.449   6.685
 5319POPC   C3A67553  42.398  35.317   7.064
 5319POPC   C4A67554  42.669  34.944   7.116
 5319POPC   C1B67555  42.477  35.636   6.262
 5319POPC   C2B67556  42.328  35.941   6.542
 5319POPC   C3B67557  42.523  35.763   6.855
 5319POPC   C4B67558  42.614  35.750   7.240
 5320POPC   NC367559  40.371  32.752   5.258
 5320POPC   PO467560  39.753  33.103   5.410
 5320POPC   GL167561  39.885  33.057   5.848
 5320POPC   GL267562  40.266  32.990   5.804
 5320POPC   C1A67563  39.749  32.978   6.307
 5320POPC   D2A67564  40.013  33.112   6.661
 5320POPC   C3A67565  39.932  33.256   7.077
 5320POPC   C4A67566  39.553  33.174   7.299
 5320POPC   C1B67567  40.238  32.822   6.236
 5320POPC   C2B67568  40.030  32.609   6.595
 5320POPC   C3B67569  40.113  32.759   7.027
 5320POPC   C4B67570  39.964  32.845   7.427
 5321POPC   NC367571   2.001   8.531   5.347
 5321POPC   PO467572   1.752   7.886   5.434
 5321POPC   GL167573   1.735   8.127   5.800
 5321POPC   GL267574   2.111   8.203   5.771
 5321POPC   C1A67575   1.878   8.166   6.238
 5321POPC   D2A67576   2.246   8.139   6.503
 5321POPC   C3A67577   2.137   8.267   6.903
 5321POPC   C4A67578   1.829   8.285   7.202
 5321POPC   C1B67579   2.250   8.514   6.107
 5321POPC   C2B67580   2.198   8.666   6.557
 5321POPC   C3B67581   2.371   8.745   6.992
 5321POPC   C4B67582   2.125   8.703   7.388
 5322POPC   NC367583  43.619  34.146   5.398
 5322POPC   PO467584  43.036  33.832   5.425
 5322POPC   GL167585  43.162  33.854   5.867
 5322POPC   GL267586  43.347  34.181   5.888
 5322POPC   C1A67587  43.182  33.529   6.239
 5322POPC   D2A67588  42.986  33.636   6.629
 5322POPC   C3A67589  42.951  33.617   7.047
 5322POPC   C4A67590  42.839  33.433   7.473
 5322POPC   C1B67591  43.455  34.457   6.276
 5322POPC   C2B67592  43.432  34.343   6.724
 5322POPC   C3B67593  43.187  34.033   6.923
 5322POPC   C4B67594  43.093  33.866   7.430
 5323POPC   NC367595  10.708  16.954   5.363
 5323POPC   PO467596  10.037  16.796   5.340
 5323POPC   GL167597  10.309  16.647   5.739
 5323POPC   GL267598  10.640  16.841   5.909
 5323POPC   C1A67599  10.289  16.586   6.199
 5323POPC   D2A67600  10.222  16.729   6.632
 5323POPC   C3A67601  10.618  16.681   6.867
 5323POPC   C4A67602  10.671  16.544   7.285
 5323POPC   C1B67603  10.443  17.133   6.269
 5323POPC   C2B67604  10.234  17.267   6.663
 5323POPC   C3B67605  10.360  17.093   7.047
 5323POPC   C4B67606  10.426  17.033   7.489
 5324POPC   NC367607  31.346  30.219   5.461
 5324POPC   PO467608  31.704  30.695   5.338
 5324POPC   GL167609  31.601  30.547   5.748
 5324POPC   GL267610  31.261  30.631   5.831
 5324POPC   C1A67611  31.628  30.655   6.200
 5324POPC   D2A67612  31.433  30.776   6.591
 5324POPC   C3A67613  31.529  30.619   6.991
 5324POPC   C4A67614  31.637  30.851   7.364
 5324POPC   C1B67615  31.135  30.496   6.266
 5324POPC   C2B67616  31.166  30.325   6.698
 5324POPC   C3B67617  31.050  30.372   7.125
 5324POPC   C4B67618  31.320  30.457   7.452
 5325POPC   NC367619  30.786  17.882   5.372
 5325POPC   PO467620  30.407  18.530   5.444
 5325POPC   GL167621  30.604  18.513   5.822
 5325POPC   GL267622  30.709  18.183   5.854
 5325POPC   C1A67623  30.642  18.498   6.263
 5325POPC   D2A67624  30.849  18.441   6.624
 5325POPC   C3A67625  30.563  18.586   6.900
 5325POPC   C4A67626  30.574  18.310   7.205
 5325POPC   C1B67627  30.714  17.996   6.282
 5325POPC   C2B67628  30.993  17.928   6.593
 5325POPC   C3B67629  30.991  18.070   6.988
 5325POPC   C4B67630  31.010  17.806   7.354
 5326POPC   NC367631  21.910  29.058   5.457
 5326POPC   PO467632  22.510  29.217   5.664
 5326POPC   GL167633  22.202  29.325   5.985
 5326POPC   GL267634  21.883  29.451   5.825
 5326POPC   C1A67635  22.098  29.035   6.339
 5326POPC   D2A67636  22.103  28.712   6.673
 5326POPC   C3A67637  22.273  28.904   7.029
 5326POPC   C4A67638  22.365  29.355   7.167
 5326POPC   C1B67639  21.706  29.345   6.213
 5326POPC   C2B67640  21.735  29.511   6.607
 5326POPC   C3B67641  21.608  29.366   7.002
 5326POPC   C4B67642  21.886  29.188   7.234
 5327POPC   NC367643  35.124  34.782   4.992
 5327POPC   PO467644  35.231  34.279   5.454
 5327POPC   GL167645  35.307  34.446   5.865
 5327POPC   GL267646  34.971  34.380   6.037
 5327POPC   C1A67647  35.667  34.427   6.168
 5327POPC   D2A67648  35.675  34.272   6.599
 5327POPC   C3A67649  35.640  34.542   6.952
 5327POPC   C4A67650  35.464  34.721   7.333
 5327POPC   C1B67651  35.215  34.568   6.368
 5327POPC   C2B67652  35.165  34.642   6.800
 5327POPC   C3B67653  35.005  34.891   7.115
 5327POPC   C4B67654  34.748  34.780   7.471
 5328POPC   NC367655  30.321   7.608   5.569
 5328POPC   PO467656  30.975   7.254   5.499
 5328POPC   GL167657  30.756   7.308   5.920
 5328POPC   GL267658  30.394   7.195   5.870
 5328POPC   C1A67659  30.814   7.493   6.379
 5328POPC   D2A67660  30.764   7.823   6.746
 5328POPC   C3A67661  30.902   7.757   7.195
 5328POPC   C4A67662  30.868   7.379   7.459
 5328POPC   C1B67663  30.279   7.347   6.237
 5328POPC   C2B67664  30.387   7.371   6.653
 5328POPC   C3B67665  30.498   7.466   7.041
 5328POPC   C4B67666  30.182   7.294   7.238
 5329POPC   NC367667  36.202  30.398   5.562
 5329POPC   PO467668  36.119  31.106   5.499
 5329POPC   GL167669  35.943  30.937   5.878
 5329POPC   GL267670  35.843  30.576   5.879
 5329POPC   C1A67671  35.975  30.949   6.328
 5329POPC   D2A67672  36.121  30.623   6.570
 5329POPC   C3A67673  36.260  30.741   6.936
 5329POPC   C4A67674  36.141  30.860   7.304
 5329POPC   C1B67675  36.013  30.293   6.190
 5329POPC   C2B67676  35.931  30.134   6.566
 5329POPC   C3B67677  35.909  30.331   6.943
 5329POPC   C4B67678  35.749  30.516   7.263
 5330POPC   NC367679   6.873  32.324   5.331
 5330POPC   PO467680   6.361  31.978   5.375
 5330POPC   GL167681   6.416  32.256   5.809
 5330POPC   GL267682   6.775  32.289   5.886
 5330POPC   C1A67683   6.555  32.534   6.260
 5330POPC   D2A67684   6.690  32.364   6.658
 5330POPC   C3A67685   6.798  32.565   7.048
 5330POPC   C4A67686   6.727  32.362   7.480
 5330POPC   C1B67687   6.533  32.034   6.270
 5330POPC   C2B67688   6.341  31.988   6.695
 5330POPC   C3B67689   6.512  32.123   7.098
 5330POPC   C4B67690   6.326  32.051   7.539
 5331POPC   NC367691   1.211  16.495   5.365
 5331POPC   PO467692   1.074  17.210   5.504
 5331POPC   GL167693   0.944  16.828   5.707
 5331POPC   GL267694   1.252  16.716   5.833
 5331POPC   C1A67695   0.853  16.685   6.143
 5331POPC   D2A67696   1.041  16.788   6.559
 5331POPC   C3A67697   1.241  16.667   6.956
 5331POPC   C4A67698   0.972  16.829   7.275
 5331POPC   C1B67699   1.295  16.468   6.219
 5331POPC   C2B67700   1.317  16.273   6.603
 5331POPC   C3B67701   1.619  16.283   6.906
 5331POPC   C4B67702   1.652  16.430   7.293
 5332POPC   NC367703  29.774   1.010   5.499
 5332POPC   PO467704  30.195   1.583   5.523
 5332POPC   GL167705  29.920   1.488   5.932
 5332POPC   GL267706  29.585   1.336   5.887
 5332POPC   C1A67707  29.915   1.358   6.411
 5332POPC   D2A67708  30.189   1.125   6.742
 5332POPC   C3A67709  30.152   1.277   7.209
 5332POPC   C4A67710  30.219   1.074   7.623
 5332POPC   C1B67711  29.702   0.977   6.133
 5332POPC   C2B67712  29.706   0.897   6.547
 5332POPC   C3B67713  29.715   1.159   6.881
 5332POPC   C4B67714  29.633   1.331   7.225
 5333POPC   NC367715   0.621  42.467   5.064
 5333POPC   PO467716   0.233  42.011   5.339
 5333POPC   GL167717   0.460  42.031   5.709
 5333POPC   GL267718   0.336  42.356   5.768
 5333POPC   C1A67719   0.624  42.116   6.103
 5333POPC   D2A67720   0.651  42.355   6.467
 5333POPC   C3A67721   0.643  42.178   6.852
 5333POPC   C4A67722   0.536  42.364   7.225
 5333POPC   C1B67723   0.192  42.455   6.191
 5333POPC   C2B67724   0.197  42.641   6.600
 5333POPC   C3B67725  44.948  42.512   6.967
 5333POPC   C4B67726   0.015  42.337   7.353
 5334POPC   NC367727  26.429  14.516   5.520
 5334POPC   PO467728  27.122  14.467   5.434
 5334POPC   GL167729  26.879  14.415   5.838
 5334POPC   GL267730  26.638  14.138   5.849
 5334POPC   C1A67731  26.869  14.364   6.288
 5334POPC   D2A67732  26.615  14.589   6.591
 5334POPC   C3A67733  26.877  14.769   6.896
 5334POPC   C4A67734  26.689  14.790   7.273
 5334POPC   C1B67735  26.743  13.861   6.221
 5334POPC   C2B67736  26.820  13.884   6.619
 5334POPC   C3B67737  26.936  14.230   6.829
 5334POPC   C4B67738  26.820  14.314   7.213
 5335POPC   NC367739  15.031   5.774   5.306
 5335POPC   PO467740  15.479   6.315   5.492
 5335POPC   GL167741  15.480   6.047   5.872
 5335POPC   GL267742  15.257   5.743   5.819
 5335POPC   C1A67743  15.393   6.040   6.334
 5335POPC   D2A67744  15.044   5.962   6.655
 5335POPC   C3A67745  15.108   5.986   7.117
 5335POPC   C4A67746  14.933   6.059   7.533
 5335POPC   C1B67747  15.180   5.592   6.261
 5335POPC   C2B67748  15.333   5.550   6.714
 5335POPC   C3B67749  15.463   5.604   7.180
 5335POPC   C4B67750  15.416   5.406   7.660
 5336POPC   NC367751  35.430  29.400   5.509
 5336POPC   PO467752  35.610  28.703   5.511
 5336POPC   GL167753  35.299  28.810   5.861
 5336POPC   GL267754  35.219  29.184   5.952
 5336POPC   C1A67755  35.322  28.816   6.316
 5336POPC   D2A67756  35.075  29.044   6.578
 5336POPC   C3A67757  35.237  29.160   6.934
 5336POPC   C4A67758  35.495  28.922   7.241
 5336POPC   C1B67759  34.855  29.321   6.232
 5336POPC   C2B67760  34.636  29.360   6.663
 5336POPC   C3B67761  34.797  29.371   7.106
 5336POPC   C4B67762  35.176  29.356   7.397
 5337POPC   NC367763  36.824  28.256   5.456
 5337POPC   PO467764  36.579  28.822   5.725
 5337POPC   GL167765  36.805  28.517   5.891
 5337POPC   GL267766  37.144  28.562   5.967
 5337POPC   C1A67767  36.683  28.307   6.231
 5337POPC   D2A67768  36.541  28.522   6.571
 5337POPC   C3A67769  36.700  28.353   6.936
 5337POPC   C4A67770  36.492  28.275   7.293
 5337POPC   C1B67771  37.188  28.277   6.308
 5337POPC   C2B67772  37.036  28.055   6.660
 5337POPC   C3B67773  37.217  28.244   7.005
 5337POPC   C4B67774  37.012  28.457   7.345
 5338POPC   NC367775   6.155  10.979   5.470
 5338POPC   PO467776   5.681  11.460   5.367
 5338POPC   GL167777   5.906  11.332   5.734
 5338POPC   GL267778   5.684  11.200   5.936
 5338POPC   C1A67779   6.145  11.370   6.123
 5338POPC   D2A67780   6.089  11.570   6.529
 5338POPC   C3A67781   5.892  11.284   6.814
 5338POPC   C4A67782   5.922  11.181   7.257
 5338POPC   C1B67783   5.606  11.514   6.289
 5338POPC   C2B67784   5.472  11.614   6.732
 5338POPC   C3B67785   5.698  11.618   7.159
 5338POPC   C4B67786   5.590  11.467   7.592
 5339POPC   NC367787  11.086   1.573   5.380
 5339POPC   PO467788  11.513   1.083   5.407
 5339POPC   GL167789  11.223   0.993   5.765
 5339POPC   GL267790  10.974   1.270   5.827
 5339POPC   C1A67791  11.111   0.944   6.218
 5339POPC   D2A67792  11.242   1.114   6.620
 5339POPC   C3A67793  11.217   0.997   7.051
 5339POPC   C4A67794  11.606   1.155   7.276
 5339POPC   C1B67795  11.091   1.488   6.234
 5339POPC   C2B67796  11.111   1.609   6.694
 5339POPC   C3B67797  11.183   1.513   7.165
 5339POPC   C4B67798  11.001   1.571   7.617
 5340POPC   NC367799  38.233  31.057   5.659
 5340POPC   PO467800  38.698  30.701   5.398
 5340POPC   GL167801  38.513  30.464   5.741
 5340POPC   GL267802  38.380  30.665   5.992
 5340POPC   C1A67803  38.733  30.300   6.126
 5340POPC   D2A67804  38.873  30.347   6.545
 5340POPC   C3A67805  38.542  30.446   6.814
 5340POPC   C4A67806  38.577  30.332   7.204
 5340POPC   C1B67807  38.326  30.986   6.308
 5340POPC   C2B67808  38.503  30.946   6.704
 5340POPC   C3B67809  38.426  30.996   7.122
 5340POPC   C4B67810  38.590  30.984   7.539
 5341POPC   NC367811  42.772  43.315   5.547
 5341POPC   PO467812  42.182  42.986   5.383
 5341POPC   GL167813  42.307  43.205   5.767
 5341POPC   GL267814  42.527  42.927   5.823
 5341POPC   C1A67815  42.341  43.303   6.238
 5341POPC   D2A67816  42.166  43.438   6.678
 5341POPC   C3A67817  42.414  43.255   7.007
 5341POPC   C4A67818  42.424  43.247   7.457
 5341POPC   C1B67819  42.617  42.780   6.272
 5341POPC   C2B67820  42.720  42.832   6.761
 5341POPC   C3B67821  42.576  42.804   7.242
 5341POPC   C4B67822  42.627  42.764   7.766
 5342POPC   NC367823  34.952  11.538   5.314
 5342POPC   PO467824  34.370  11.381   5.556
 5342POPC   GL167825  34.638  11.249   5.845
 5342POPC   GL267826  34.938  11.246   5.752
 5342POPC   C1A67827  34.697  11.076   6.236
 5342POPC   D2A67828  34.433  11.005   6.583
 5342POPC   C3A67829  34.588  11.121   6.969
 5342POPC   C4A67830  34.406  11.375   7.271
 5342POPC   C1B67831  34.927  11.586   6.091
 5342POPC   C2B67832  34.838  11.492   6.526
 5342POPC   C3B67833  34.917  11.532   6.967
 5342POPC   C4B67834  34.797  11.720   7.349
 5343POPC   NC367835  25.650  42.711   5.462
 5343POPC   PO467836  25.012  42.348   5.436
 5343POPC   GL167837  25.122  42.254   5.855
 5343POPC   GL267838  25.034  41.945   5.982
 5343POPC   C1A67839  25.185  42.354   6.282
 5343POPC   D2A67840  25.139  42.295   6.710
 5343POPC   C3A67841  25.287  42.572   7.013
 5343POPC   C4A67842  25.321  42.495   7.490
 5343POPC   C1B67843  25.463  41.937   6.166
 5343POPC   C2B67844  25.598  42.051   6.601
 5343POPC   C3B67845  25.456  42.089   7.069
 5343POPC   C4B67846  25.002  42.215   7.200
 5344POPC   NC367847   2.553  10.981   5.565
 5344POPC   PO467848   3.237  10.708   5.642
 5344POPC   GL167849   2.948  10.502   5.899
 5344POPC   GL267850   2.663  10.330   5.731
 5344POPC   C1A67851   2.756  10.651   6.263
 5344POPC   D2A67852   2.895  10.777   6.681
 5344POPC   C3A67853   2.818  10.538   7.062
 5344POPC   C4A67854   2.868  10.384   7.503
 5344POPC   C1B67855   2.479  10.226   6.157
 5344POPC   C2B67856   2.545  10.342   6.611
 5344POPC   C3B67857   2.307  10.454   6.970
 5344POPC   C4B67858   2.421  10.573   7.408
 5345POPC   NC367859  15.524  28.693   5.487
 5345POPC   PO467860  14.921  28.359   5.456
 5345POPC   GL167861  15.161  28.509   5.824
 5345POPC   GL267862  15.485  28.296   5.794
 5345POPC   C1A67863  15.142  28.772   6.231
 5345POPC   D2A67864  15.227  28.638   6.658
 5345POPC   C3A67865  15.149  28.681   7.085
 5345POPC   C4A67866  15.520  28.408   7.169
 5345POPC   C1B67867  15.304  28.017   6.072
 5345POPC   C2B67868  15.148  28.162   6.440
 5345POPC   C3B67869  15.193  28.104   6.869
 5345POPC   C4B67870  15.038  28.195   7.253
 5346POPC   NC367871  32.429  39.666   5.486
 5346POPC   PO467872  32.221  40.319   5.418
 5346POPC   GL167873  32.385  40.075   5.800
 5346POPC   GL267874  32.058  39.890   5.764
 5346POPC   C1A67875  32.568  39.916   6.238
 5346POPC   D2A67876  32.619  40.071   6.667
 5346POPC   C3A67877  32.504  39.808   7.050
 5346POPC   C4A67878  32.586  39.873   7.508
 5346POPC   C1B67879  32.083  39.970   6.204
 5346POPC   C2B67880  32.179  39.833   6.620
 5346POPC   C3B67881  32.117  40.107   6.986
 5346POPC   C4B67882  32.088  39.936   7.400
 5347POPC   NC367883  12.480  35.554   5.074
 5347POPC   PO467884  12.196  35.248   5.594
 5347POPC   GL167885  11.838  35.292   5.857
 5347POPC   GL267886  11.712  35.633   5.912
 5347POPC   C1A67887  11.885  35.252   6.278
 5347POPC   D2A67888  12.184  35.264   6.584
 5347POPC   C3A67889  11.993  35.010   6.857
 5347POPC   C4A67890  11.653  35.174   7.071
 5347POPC   C1B67891  12.142  35.679   6.115
 5347POPC   C2B67892  12.284  35.759   6.532
 5347POPC   C3B67893  12.112  35.677   6.945
 5347POPC   C4B67894  12.268  35.647   7.353
 5348POPC   NC367895  24.016  43.460   5.454
 5348POPC   PO467896  23.469  43.036   5.416
 5348POPC   GL167897  23.705  43.187   5.777
 5348POPC   GL267898  24.041  43.050   5.840
 5348POPC   C1A67899  23.521  43.343   6.167
 5348POPC   D2A67900  23.662  43.503   6.532
 5348POPC   C3A67901  23.574  43.329   6.892
 5348POPC   C4A67902  23.857  43.377   7.236
 5348POPC   C1B67903  23.990  43.150   6.240
 5348POPC   C2B67904  23.748  42.977   6.552
 5348POPC   C3B67905  23.894  42.920   6.944
 5348POPC   C4B67906  24.053  42.854   7.317
 5349POPC   NC367907   3.693  26.923   5.425
 5349POPC   PO467908   3.181  26.489   5.602
 5349POPC   GL167909   3.371  26.811   5.808
 5349POPC   GL267910   3.350  27.193   5.748
 5349POPC   C1A67911   3.639  26.934   6.136
 5349POPC   D2A67912   3.775  26.726   6.504
 5349POPC   C3A67913   3.719  26.929   6.893
 5349POPC   C4A67914   3.607  26.805   7.309
 5349POPC   C1B67915   3.150  27.087   6.164
 5349POPC   C2B67916   3.299  26.893   6.556
 5349POPC   C3B67917   3.161  26.986   6.962
 5349POPC   C4B67918   3.166  27.149   7.371
 5350POPC   NC367919  40.486  43.629   5.712
 5350POPC   PO467920  39.921  43.863   5.410
 5350POPC   GL167921  39.801  43.785   5.829
 5350POPC   GL267922  40.112  43.907   5.956
 5350POPC   C1A67923  39.673  43.621   6.260
 5350POPC   D2A67924  39.822  43.548   6.712
 5350POPC   C3A67925  39.673  43.614   7.149
 5350POPC   C4A67926  39.609  44.049   7.370
 5350POPC   C1B67927  40.217  44.350   6.122
 5350POPC   C2B67928  40.373  44.410   6.552
 5350POPC   C3B67929  40.333  44.220   6.943
 5350POPC   C4B67930  40.143  43.816   7.043
 5351POPC   NC367931  18.453  27.701   5.372
 5351POPC   PO467932  17.854  27.454   5.279
 5351POPC   GL167933  18.067  27.618   5.712
 5351POPC   GL267934  18.405  27.485   5.827
 5351POPC   C1A67935  18.167  27.780   6.174
 5351POPC   D2A67936  17.888  27.805   6.559
 5351POPC   C3A67937  18.136  27.674   6.904
 5351POPC   C4A67938  18.476  27.843   7.104
 5351POPC   C1B67939  18.151  27.280   6.110
 5351POPC   C2B67940  18.093  27.333   6.511
 5351POPC   C3B67941  18.242  27.168   6.888
 5351POPC   C4B67942  18.384  27.367   7.266
 5352POPC   NC367943  21.781   2.299   5.379
 5352POPC   PO467944  21.267   1.908   5.204
 5352POPC   GL167945  21.429   2.030   5.669
 5352POPC   GL267946  21.633   1.817   5.899
 5352POPC   C1A67947  21.307   2.135   6.133
 5352POPC   D2A67948  21.465   2.124   6.596
 5352POPC   C3A67949  21.260   2.104   6.991
 5352POPC   C4A67950  21.491   2.269   7.330
 5352POPC   C1B67951  21.500   1.700   6.305
 5352POPC   C2B67952  21.313   1.656   6.712
 5352POPC   C3B67953  21.418   1.549   7.137
 5352POPC   C4B67954  21.440   1.793   7.551
 5353POPC   NC367955  20.705  32.371   5.372
 5353POPC   PO467956  20.109  32.693   5.479
 5353POPC   GL167957  20.465  32.498   5.796
 5353POPC   GL267958  20.587  32.130   5.795
 5353POPC   C1A67959  20.684  32.458   6.208
 5353POPC   D2A67960  20.748  32.632   6.648
 5353POPC   C3A67961  20.641  32.375   7.030
 5353POPC   C4A67962  20.675  32.416   7.518
 5353POPC   C1B67963  20.885  32.006   6.132
 5353POPC   C2B67964  20.928  32.147   6.593
 5353POPC   C3B67965  20.929  31.957   7.032
 5353POPC   C4B67966  20.646  31.930   7.410
 5354POPC   NC367967  43.095  44.027   5.425
 5354POPC   PO467968  43.244  43.348   5.512
 5354POPC   GL167969  43.021  43.687   5.805
 5354POPC   GL267970  43.281  43.907   5.891
 5354POPC   C1A67971  42.931  43.969   6.242
 5354POPC   D2A67972  43.162  44.063   6.659
 5354POPC   C3A67973  42.867  43.978   6.985
 5354POPC   C4A67974  42.759  43.587   7.164
 5354POPC   C1B67975  43.229  43.571   6.236
 5354POPC   C2B67976  43.030  43.573   6.628
 5354POPC   C3B67977  43.229  43.569   7.005
 5354POPC   C4B67978  43.197  43.841   7.345
 5355POPC   NC367979  15.953   8.838   5.224
 5355POPC   PO467980  15.911   9.541   5.137
 5355POPC   GL167981  15.915   9.273   5.588
 5355POPC   GL267982  15.893   8.903   5.736
 5355POPC   C1A67983  15.758   9.273   6.062
 5355POPC   D2A67984  15.531   9.164   6.480
 5355POPC   C3A67985  15.698   9.119   6.933
 5355POPC   C4A67986  15.803   8.954   7.384
 5355POPC   C1B67987  15.750   8.752   6.170
 5355POPC   C2B67988  15.923   8.762   6.612
 5355POPC   C3B67989  15.764   8.599   7.019
 5355POPC   C4B67990  15.606   8.480   7.437
 5356POPC   NC367991  20.457  44.968   5.441
 5356POPC   PO467992  20.807  44.472   5.047
 5356POPC   GL167993  20.766  44.562   5.533
 5356POPC   GL267994  20.606  44.280   5.728
 5356POPC   C1A67995  20.818  44.663   6.021
 5356POPC   D2A67996  20.917  44.622   6.501
 5356POPC   C3A67997  20.798  44.816   6.916
 5356POPC   C4A67998  20.686  44.639   7.298
 5356POPC   C1B67999  20.498  44.311   6.184
 5356POPC   C2B68000  20.224  44.251   6.536
 5356POPC   C3B68001  20.294  44.401   6.950
 5356POPC   C4B68002  20.172  44.291   7.318
 5357POPC   NC368003  26.504  23.828   5.359
 5357POPC   PO468004  27.146  23.688   5.450
 5357POPC   GL168005  26.789  23.667   5.783
 5357POPC   GL268006  26.658  24.007   5.836
 5357POPC   C1A68007  26.720  23.670   6.249
 5357POPC   D2A68008  26.975  23.782   6.629
 5357POPC   C3A68009  26.827  23.544   6.988
 5357POPC   C4A68010  26.926  23.220   7.277
 5357POPC   C1B68011  26.834  24.165   6.246
 5357POPC   C2B68012  26.702  24.215   6.687
 5357POPC   C3B68013  26.823  24.062   7.139
 5357POPC   C4B68014  26.576  23.928   7.524
 5358POPC   NC368015  25.736  37.392   5.444
 5358POPC   PO468016  26.415  37.615   5.483
 5358POPC   GL168017  26.184  37.821   5.712
 5358POPC   GL268018  26.042  37.519   5.861
 5358POPC   C1A68019  26.016  38.009   6.066
 5358POPC   D2A68020  26.075  38.128   6.480
 5358POPC   C3A68021  26.054  37.823   6.807
 5358POPC   C4A68022  26.099  37.842   7.250
 5358POPC   C1B68023  26.429  37.449   6.134
 5358POPC   C2B68024  26.440  37.295   6.592
 5358POPC   C3B68025  26.232  37.369   7.010
 5358POPC   C4B68026  25.928  37.355   7.332
 5359POPC   NC368027  40.227   6.701   5.416
 5359POPC   PO468028  39.894   7.116   5.177
 5359POPC   GL168029  39.786   6.781   5.631
 5359POPC   GL268030  39.761   6.967   5.964
 5359POPC   C1A68031  39.954   6.503   6.034
 5359POPC   D2A68032  40.144   6.461   6.464
 5359POPC   C3A68033  39.910   6.588   6.818
 5359POPC   C4A68034  39.923   6.691   7.257
 5359POPC   C1B68035  39.817   6.887   6.391
 5359POPC   C2B68036  39.700   7.045   6.799
 5359POPC   C3B68037  39.476   6.904   7.173
 5359POPC   C4B68038  39.598   6.859   7.640
 5360POPC   NC368039  26.897  10.476   5.496
 5360POPC   PO468040  26.340  10.740   5.725
 5360POPC   GL168041  26.684  10.498   5.958
 5360POPC   GL268042  26.972  10.719   5.940
 5360POPC   C1A68043  26.931  10.403   6.368
 5360POPC   D2A68044  27.160  10.333   6.776
 5360POPC   C3A68045  27.084  10.383   7.218
 5360POPC   C4A68046  27.189  10.333   7.710
 5360POPC   C1B68047  26.718  10.852   6.317
 5360POPC   C2B68048  26.753  10.765   6.791
 5360POPC   C3B68049  26.724  10.881   7.249
 5360POPC   C4B68050  26.491  10.939   7.691
 5361POPC   NC368051   4.672  42.665   5.515
 5361POPC   PO468052   4.207  42.129   5.407
 5361POPC   GL168053   4.198  42.245   5.827
 5361POPC   GL268054   4.420  42.491   5.920
 5361POPC   C1A68055   4.090  42.231   6.251
 5361POPC   D2A68056   4.147  42.095   6.653
 5361POPC   C3A68057   3.957  42.442   6.872
 5361POPC   C4A68058   4.142  42.522   7.229
 5361POPC   C1B68059   4.576  42.418   6.276
 5361POPC   C2B68060   4.394  42.533   6.633
 5361POPC   C3B68061   4.525  42.306   6.972
 5361POPC   C4B68062   4.798  42.420   7.307
 5362POPC   NC368063  38.194  41.269   5.606
 5362POPC   PO468064  38.874  41.365   5.588
 5362POPC   GL168065  38.733  41.658   5.888
 5362POPC   GL268066  38.393  41.802   5.841
 5362POPC   C1A68067  38.620  41.510   6.279
 5362POPC   D2A68068  38.289  41.552   6.559
 5362POPC   C3A68069  38.306  41.310   6.918
 5362POPC   C4A68070  38.600  41.408   7.213
 5362POPC   C1B68071  38.095  41.887   6.198
 5362POPC   C2B68072  38.166  42.051   6.646
 5362POPC   C3B68073  38.284  41.823   7.044
 5362POPC   C4B68074  38.074  41.506   7.338
 5363POPC   NC368075   3.684  19.996   5.502
 5363POPC   PO468076   3.228  19.512   5.307
 5363POPC   GL168077   3.372  19.681   5.815
 5363POPC   GL268078   3.430  19.419   6.034
 5363POPC   C1A68079   3.575  19.895   6.184
 5363POPC   D2A68080   3.629  20.157   6.555
 5363POPC   C3A68081   3.968  20.044   6.823
 5363POPC   C4A68082   3.882  20.045   7.241
 5363POPC   C1B68083   3.097  19.671   6.217
 5363POPC   C2B68084   3.229  19.811   6.586
 5363POPC   C3B68085   3.530  19.772   6.888
 5363POPC   C4B68086   3.351  19.945   7.212
 5364POPC   NC368087  11.911  16.890   5.123
 5364POPC   PO468088  11.989  16.307   5.304
 5364POPC   GL168089  12.051  16.583   5.699
 5364POPC   GL268090  12.078  16.886   5.796
 5364POPC   C1A68091  12.328  16.572   6.097
 5364POPC   D2A68092  12.237  16.407   6.495
 5364POPC   C3A68093  12.401  16.533   6.915
 5364POPC   C4A68094  12.114  16.669   7.244
 5364POPC   C1B68095  11.931  17.052   6.138
 5364POPC   C2B68096  12.145  16.924   6.444
 5364POPC   C3B68097  12.152  16.974   6.842
 5364POPC   C4B68098  11.961  17.170   7.185
 5365POPC   NC368099   0.621  13.042   5.106
 5365POPC   PO468100   0.306  12.626   5.604
 5365POPC   GL168101   0.324  12.812   5.999
 5365POPC   GL268102   0.154  13.102   5.854
 5365POPC   C1A68103   0.512  12.873   6.423
 5365POPC   D2A68104   0.669  12.689   6.831
 5365POPC   C3A68105   0.580  12.725   7.301
 5365POPC   C4A68106   0.567  13.095   7.620
 5365POPC   C1B68107   0.106  13.201   6.294
 5365POPC   C2B68108   0.305  13.261   6.702
 5365POPC   C3B68109   0.246  13.049   7.104
 5365POPC   C4B68110   0.067  13.015   7.544
 5366POPC   NC368111   8.730  22.291   5.371
 5366POPC   PO468112   9.226  21.830   5.364
 5366POPC   GL168113   9.120  22.122   5.698
 5366POPC   GL268114   9.399  22.319   5.789
 5366POPC   C1A68115   9.096  22.044   6.157
 5366POPC   D2A68116   8.946  21.955   6.577
 5366POPC   C3A68117   9.130  22.074   6.962
 5366POPC   C4A68118   8.871  22.114   7.292
 5366POPC   C1B68119   9.283  22.514   6.157
 5366POPC   C2B68120   9.319  22.395   6.585
 5366POPC   C3B68121   9.130  22.597   6.930
 5366POPC   C4B68122   9.152  22.522   7.382
 5367POPC   NC368123  14.145  44.267   5.454
 5367POPC   PO468124  14.422  44.968   5.404
 5367POPC   GL168125  14.417  44.602   5.730
 5367POPC   GL268126  14.745  44.483   5.832
 5367POPC   C1A68127  14.310  44.380   6.143
 5367POPC   D2A68128  14.134  44.250   6.565
 5367POPC   C3A68129  14.280  44.409   6.989
 5367POPC   C4A68130  14.292  44.777   7.294
 5367POPC   C1B68131  14.814  44.534   6.257
 5367POPC   C2B68132  14.779  44.433   6.666
 5367POPC   C3B68133  14.691  44.759   6.936
 5367POPC   C4B68134  14.773  44.828   7.314
 5368POPC   NC368135  14.967  13.315   5.428
 5368POPC   PO468136  15.372  12.801   5.378
 5368POPC   GL168137  15.246  12.820   5.834
 5368POPC   GL268138  14.954  13.068   5.894
 5368POPC   C1A68139  15.270  12.904   6.308
 5368POPC   D2A68140  15.480  12.907   6.728
 5368POPC   C3A68141  15.353  12.739   7.127
 5368POPC   C4A68142  15.330  12.787   7.607
 5368POPC   C1B68143  14.806  13.133   6.334
 5368POPC   C2B68144  14.933  12.925   6.739
 5368POPC   C3B68145  15.012  13.129   7.155
 5368POPC   C4B68146  14.843  13.138   7.616
 5369POPC   NC368147  15.189  39.670   5.387
 5369POPC   PO468148  15.265  40.315   5.425
 5369POPC   GL168149  15.081  40.279   5.815
 5369POPC   GL268150  14.960  39.896   5.829
 5369POPC   C1A68151  15.150  40.183   6.255
 5369POPC   D2A68152  14.980  40.118   6.711
 5369POPC   C3A68153  15.244  39.978   7.094
 5369POPC   C4A68154  15.182  40.057   7.563
 5369POPC   C1B68155  14.797  39.839   6.277
 5369POPC   C2B68156  14.655  39.654   6.700
 5369POPC   C3B68157  14.757  39.807   7.131
 5369POPC   C4B68158  14.959  39.589   7.504
 5370POPC   NC368159  25.162   6.424   5.190
 5370POPC   PO468160  25.346   6.887   5.626
 5370POPC   GL168161  25.427   6.882   6.041
 5370POPC   GL268162  25.155   6.692   6.146
 5370POPC   C1A68163  25.518   6.797   6.473
 5370POPC   D2A68164  25.222   6.609   6.666
 5370POPC   C3A68165  25.305   6.502   7.030
 5370POPC   C4A68166  25.568   6.364   7.298
 5370POPC   C1B68167  24.851   6.405   6.330
 5370POPC   C2B68168  24.749   6.362   6.774
 5370POPC   C3B68169  24.906   6.186   7.132
 5370POPC   C4B68170  24.996   6.479   7.428
 5371POPC   NC368171  15.493  22.735   5.496
 5371POPC   PO468172  15.045  23.287   5.458
 5371POPC   GL168173  15.292  23.116   5.816
 5371POPC   GL268174  15.101  22.801   5.816
 5371POPC   C1A68175  15.456  23.126   6.274
 5371POPC   D2A68176  15.432  23.253   6.733
 5371POPC   C3A68177  15.490  22.895   7.014
 5371POPC   C4A68178  15.377  22.764   7.417
 5371POPC   C1B68179  14.988  22.924   6.223
 5371POPC   C2B68180  15.144  22.856   6.630
 5371POPC   C3B68181  14.993  22.949   7.054
 5371POPC   C4B68182  14.700  22.748   7.317
 5372POPC   NC368183   7.710   4.580   5.357
 5372POPC   PO468184   7.255   5.093   5.416
 5372POPC   GL168185   7.269   5.163   5.819
 5372POPC   GL268186   7.607   5.062   5.813
 5372POPC   C1A68187   7.242   4.931   6.216
 5372POPC   D2A68188   6.956   4.946   6.590
 5372POPC   C3A68189   7.218   5.050   6.955
 5372POPC   C4A68190   7.282   4.822   7.297
 5372POPC   C1B68191   7.763   4.812   6.123
 5372POPC   C2B68192   7.672   5.022   6.518
 5372POPC   C3B68193   7.785   5.130   6.910
 5372POPC   C4B68194   7.808   5.374   7.258
 5373POPC   NC368195  11.804  37.150   5.511
 5373POPC   PO468196  11.342  37.665   5.503
 5373POPC   GL168197  11.424  37.770   5.904
 5373POPC   GL268198  11.757  37.701   5.847
 5373POPC   C1A68199  11.491  37.551   6.290
 5373POPC   D2A68200  11.391  37.586   6.718
 5373POPC   C3A68201  11.172  37.359   7.043
 5373POPC   C4A68202  11.137  37.711   7.346
 5373POPC   C1B68203  11.791  38.009   6.166
 5373POPC   C2B68204  11.605  38.022   6.552
 5373POPC   C3B68205  11.741  37.920   6.949
 5373POPC   C4B68206  11.616  37.602   7.183
 5374POPC   NC368207  25.900  23.127   5.273
 5374POPC   PO468208  26.012  22.556   5.465
 5374POPC   GL168209  25.883  22.841   5.792
 5374POPC   GL268210  25.992  23.200   5.761
 5374POPC   C1A68211  26.058  22.920   6.225
 5374POPC   D2A68212  26.191  22.852   6.662
 5374POPC   C3A68213  25.917  22.718   6.978
 5374POPC   C4A68214  25.802  22.877   7.370
 5374POPC   C1B68215  25.740  23.295   6.094
 5374POPC   C2B68216  25.707  23.138   6.530
 5374POPC   C3B68217  25.844  23.231   6.933
 5374POPC   C4B68218  25.892  23.396   7.329
 5375POPC   NC368219  26.069  41.067   5.439
 5375POPC   PO468220  25.913  40.415   5.584
 5375POPC   GL168221  26.098  40.762   5.848
 5375POPC   GL268222  25.895  41.029   5.921
 5375POPC   C1A68223  26.241  40.924   6.262
 5375POPC   D2A68224  26.318  40.656   6.613
 5375POPC   C3A68225  26.241  40.780   7.047
 5375POPC   C4A68226  26.281  40.841   7.514
 5375POPC   C1B68227  25.803  40.626   6.233
 5375POPC   C2B68228  25.788  40.394   6.644
 5375POPC   C3B68229  25.856  40.416   7.086
 5375POPC   C4B68230  25.795  40.824   7.301
 5376POPC   NC368231  39.240  33.206   5.391
 5376POPC   PO468232  38.867  32.658   5.277
 5376POPC   GL168233  38.834  32.865   5.700
 5376POPC   GL268234  38.968  33.194   5.825
 5376POPC   C1A68235  39.007  32.784   6.123
 5376POPC   D2A68236  39.155  32.695   6.538
 5376POPC   C3A68237  39.224  33.043   6.842
 5376POPC   C4A68238  39.041  33.108   7.259
 5376POPC   C1B68239  39.182  33.320   6.234
 5376POPC   C2B68240  39.088  33.518   6.645
 5376POPC   C3B68241  39.251  33.540   7.054
 5376POPC   C4B68242  39.274  33.628   7.492
 5377POPC   NC368243   2.782  33.059   5.424
 5377POPC   PO468244   3.322  33.315   5.674
 5377POPC   GL168245   2.998  33.111   5.892
 5377POPC   GL268246   2.850  32.736   5.831
 5377POPC   C1A68247   3.027  33.080   6.326
 5377POPC   D2A68248   3.056  32.896   6.700
 5377POPC   C3A68249   3.041  33.192   6.998
 5377POPC   C4A68250   3.282  33.102   7.279
 5377POPC   C1B68251   2.568  32.942   6.146
 5377POPC   C2B68252   2.554  32.941   6.617
 5377POPC   C3B68253   2.693  32.838   7.057
 5377POPC   C4B68254   2.677  33.149   7.397
 5378POPC   NC368255   7.000  11.093   5.456
 5378POPC   PO468256   7.446  11.624   5.487
 5378POPC   GL168257   7.488  11.378   5.886
 5378POPC   GL268258   7.385  11.017   5.798
 5378POPC   C1A68259   7.385  11.411   6.330
 5378POPC   D2A68260   7.576  11.195   6.697
 5378POPC   C3A68261   7.342  11.156   7.061
 5378POPC   C4A68262   7.103  11.499   7.187
 5378POPC   C1B68263   7.551  10.948   6.211
 5378POPC   C2B68264   7.586  10.685   6.567
 5378POPC   C3B68265   7.653  10.720   7.005
 5378POPC   C4B68266   7.827  11.033   7.248
 5379POPC   NC368267   6.977  39.477   5.637
 5379POPC   PO468268   6.437  39.419   5.296
 5379POPC   GL168269   6.421  39.241   5.764
 5379POPC   GL268270   6.726  39.105   5.881
 5379POPC   C1A68271   6.437  39.312   6.249
 5379POPC   D2A68272   6.574  39.568   6.622
 5379POPC   C3A68273   6.719  39.414   7.031
 5379POPC   C4A68274   6.774  39.399   7.493
 5379POPC   C1B68275   6.532  38.822   6.169
 5379POPC   C2B68276   6.642  38.985   6.570
 5379POPC   C3B68277   6.664  38.880   6.951
 5379POPC   C4B68278   6.860  38.952   7.294
 5380POPC   NC368279  22.271  28.141   5.290
 5380POPC   PO468280  21.798  28.569   5.396
 5380POPC   GL168281  22.098  28.413   5.726
 5380POPC   GL268282  22.479  28.433   5.737
 5380POPC   C1A68283  22.098  28.514   6.175
 5380POPC   D2A68284  21.790  28.354   6.469
 5380POPC   C3A68285  21.861  28.305   6.916
 5380POPC   C4A68286  22.070  28.506   7.297
 5380POPC   C1B68287  22.484  28.180   6.146
 5380POPC   C2B68288  22.302  28.198   6.546
 5380POPC   C3B68289  22.376  28.343   6.935
 5380POPC   C4B68290  22.467  28.190   7.356
 5381POPC   NC368291  33.994  29.535   5.434
 5381POPC   PO468292  33.516  29.898   5.705
 5381POPC   GL168293  33.901  29.843   5.847
 5381POPC   GL268294  33.964  30.182   5.830
 5381POPC   C1A68295  34.128  29.729   6.219
 5381POPC   D2A68296  33.989  29.843   6.643
 5381POPC   C3A68297  34.170  29.757   7.038
 5381POPC   C4A68298  33.959  29.712   7.455
 5381POPC   C1B68299  33.801  30.146   6.263
 5381POPC   C2B68300  33.677  30.246   6.707
 5381POPC   C3B68301  33.723  30.033   7.116
 5381POPC   C4B68302  33.614  30.096   7.558
 5382POPC   NC368303  10.842   8.214   5.530
 5382POPC   PO468304  10.247   8.210   5.270
 5382POPC   GL168305  10.300   8.303   5.693
 5382POPC   GL268306  10.449   7.984   5.773
 5382POPC   C1A68307  10.313   8.293   6.155
 5382POPC   D2A68308  10.602   8.355   6.488
 5382POPC   C3A68309  10.524   8.441   6.926
 5382POPC   C4A68310  10.306   8.365   7.312
 5382POPC   C1B68311  10.721   7.948   6.161
 5382POPC   C2B68312  10.673   7.868   6.585
 5382POPC   C3B68313  10.825   7.948   6.960
 5382POPC   C4B68314  10.814   8.210   7.285
 5383POPC   NC368315   4.890  19.520   5.390
 5383POPC   PO468316   5.517  19.842   5.351
 5383POPC   GL168317   5.162  19.951   5.624
 5383POPC   GL268318   5.140  19.659   5.819
 5383POPC   C1A68319   5.033  20.065   6.082
 5383POPC   D2A68320   5.298  20.040   6.451
 5383POPC   C3A68321   5.094  20.120   6.839
 5383POPC   C4A68322   5.113  19.950   7.227
 5383POPC   C1B68323   5.036  19.522   6.249
 5383POPC   C2B68324   5.132  19.602   6.698
 5383POPC   C3B68325   5.018  19.416   7.098
 5383POPC   C4B68326   4.986  19.559   7.538
 5384POPC   NC368327  33.037  36.538   5.592
 5384POPC   PO468328  32.946  37.199   5.420
 5384POPC   GL168329  33.005  37.008   5.815
 5384POPC   GL268330  33.323  36.869   5.885
 5384POPC   C1A68331  32.901  37.086   6.222
 5384POPC   D2A68332  33.141  37.242   6.553
 5384POPC   C3A68333  33.145  36.955   6.895
 5384POPC   C4A68334  32.953  36.915   7.283
 5384POPC   C1B68335  33.199  36.636   6.270
 5384POPC   C2B68336  33.243  36.486   6.715
 5384POPC   C3B68337  33.197  36.476   7.170
 5384POPC   C4B68338  33.152  36.604   7.638
 5385POPC   NC368339  15.379  26.174   5.431
 5385POPC   PO468340  14.777  25.948   5.600
 5385POPC   GL168341  15.112  26.018   5.896
 5385POPC   GL268342  15.221  26.344   5.906
 5385POPC   C1A68343  15.253  25.803   6.275
 5385POPC   D2A68344  15.325  25.879   6.733
 5385POPC   C3A68345  14.950  25.744   6.973
 5385POPC   C4A68346  14.826  25.779   7.405
 5385POPC   C1B68347  15.443  26.287   6.297
 5385POPC   C2B68348  15.697  26.252   6.649
 5385POPC   C3B68349  15.450  26.319   6.985
 5385POPC   C4B68350  15.300  26.054   7.304
 5386POPC   NC368351  24.966   8.067   5.421
 5386POPC   PO468352  25.601   8.410   5.431
 5386POPC   GL168353  25.358   8.179   5.781
 5386POPC   GL268354  24.987   8.117   5.934
 5386POPC   C1A68355  25.415   8.133   6.220
 5386POPC   D2A68356  25.136   8.163   6.534
 5386POPC   C3A68357  25.286   8.073   6.932
 5386POPC   C4A68358  25.387   8.300   7.272
 5386POPC   C1B68359  25.056   8.518   6.142
 5386POPC   C2B68360  25.092   8.689   6.556
 5386POPC   C3B68361  25.019   8.543   6.984
 5386POPC   C4B68362  24.916   8.568   7.434
 5387POPC   NC368363  35.722  34.099   5.411
 5387POPC   PO468364  36.147  34.569   5.179
 5387POPC   GL168365  36.055  34.681   5.633
 5387POPC   GL268366  35.707  34.854   5.686
 5387POPC   C1A68367  36.206  34.548   6.056
 5387POPC   D2A68368  36.197  34.283   6.441
 5387POPC   C3A68369  36.269  34.434   6.856
 5387POPC   C4A68370  36.003  34.248   7.179
 5387POPC   C1B68371  35.826  34.925   6.110
 5387POPC   C2B68372  35.976  34.735   6.473
 5387POPC   C3B68373  36.024  34.896   6.840
 5387POPC   C4B68374  36.018  34.758   7.201
 5388POPC   NC368375  12.633  10.828   5.335
 5388POPC   PO468376  13.125  10.318   5.440
 5388POPC   GL168377  12.967  10.409   5.823
 5388POPC   GL268378  12.991  10.760   5.716
 5388POPC   C1A68379  13.026  10.409   6.234
 5388POPC   D2A68380  12.851  10.428   6.628
 5388POPC   C3A68381  13.088  10.376   6.988
 5388POPC   C4A68382  13.016  10.364   7.427
 5388POPC   C1B68383  12.750  10.822   6.086
 5388POPC   C2B68384  12.829  10.933   6.524
 5388POPC   C3B68385  12.616  10.872   6.940
 5388POPC   C4B68386  12.657  10.738   7.385
 5389POPC   NC368387  17.694  37.424   5.440
 5389POPC   PO468388  17.525  38.128   5.475
 5389POPC   GL168389  17.503  37.827   5.839
 5389POPC   GL268390  17.209  37.570   5.831
 5389POPC   C1A68391  17.725  37.763   6.263
 5389POPC   D2A68392  17.853  37.707   6.723
 5389POPC   C3A68393  17.615  37.733   7.094
 5389POPC   C4A68394  17.564  37.604   7.497
 5389POPC   C1B68395  17.334  37.415   6.275
 5389POPC   C2B68396  17.341  37.513   6.730
 5389POPC   C3B68397  17.238  37.385   7.159
 5389POPC   C4B68398  17.312  37.154   7.545
 5390POPC   NC368399   3.075  36.770   5.204
 5390POPC   PO468400   2.537  37.144   5.396
 5390POPC   GL168401   2.641  36.949   5.779
 5390POPC   GL268402   2.294  36.882   5.846
 5390POPC   C1A68403   2.848  36.992   6.204
 5390POPC   D2A68404   2.987  37.206   6.592
 5390POPC   C3A68405   2.953  36.941   6.947
 5390POPC   C4A68406   2.962  36.726   7.320
 5390POPC   C1B68407   2.370  36.782   6.247
 5390POPC   C2B68408   2.540  36.872   6.637
 5390POPC   C3B68409   2.406  36.820   7.059
 5390POPC   C4B68410   2.481  36.720   7.487
 5391POPC   NC368411  14.656  26.428   5.500
 5391POPC   PO468412  13.943  26.346   5.504
 5391POPC   GL168413  14.319  26.142   5.800
 5391POPC   GL268414  14.650  26.269   5.979
 5391POPC   C1A68415  14.403  25.863   6.180
 5391POPC   D2A68416  14.308  25.627   6.590
 5391POPC   C3A68417  14.420  25.738   7.020
 5391POPC   C4A68418  14.120  26.005   7.250
 5391POPC   C1B68419  14.921  26.264   6.346
 5391POPC   C2B68420  14.926  26.230   6.799
 5391POPC   C3B68421  14.619  26.209   7.130
 5391POPC   C4B68422  14.524  26.179   7.548
 5392POPC   NC368423   7.102  31.929   5.715
 5392POPC   PO468424   7.318  32.368   5.240
 5392POPC   GL168425   7.376  32.363   5.748
 5392POPC   GL268426   7.567  32.139   5.875
 5392POPC   C1A68427   7.261  32.281   6.244
 5392POPC   D2A68428   7.199  32.424   6.681
 5392POPC   C3A68429   7.048  32.131   7.006
 5392POPC   C4A68430   7.191  32.194   7.393
 5392POPC   C1B68431   7.729  32.490   6.118
 5392POPC   C2B68432   7.675  32.639   6.544
 5392POPC   C3B68433   7.678  32.414   6.933
 5392POPC   C4B68434   7.669  32.372   7.371
 5393POPC   NC368435   0.928  24.999   5.046
 5393POPC   PO468436   1.418  25.120   5.540
 5393POPC   GL168437   1.136  25.343   5.854
 5393POPC   GL268438   0.920  25.667   5.831
 5393POPC   C1A68439   1.307  25.314   6.257
 5393POPC   D2A68440   1.310  24.984   6.536
 5393POPC   C3A68441   1.265  25.087   6.956
 5393POPC   C4A68442   0.982  24.935   7.278
 5393POPC   C1B68443   1.124  25.785   6.282
 5393POPC   C2B68444   1.377  25.721   6.661
 5393POPC   C3B68445   1.230  25.581   7.053
 5393POPC   C4B68446   0.882  25.757   7.197
 5394POPC   NC368447  17.174  28.426   5.431
 5394POPC   PO468448  16.531  28.097   5.484
 5394POPC   GL168449  16.795  28.301   5.807
 5394POPC   GL268450  16.918  28.651   5.810
 5394POPC   C1A68451  16.650  28.418   6.235
 5394POPC   D2A68452  16.705  28.553   6.670
 5394POPC   C3A68453  16.606  28.279   7.035
 5394POPC   C4A68454  16.811  28.115   7.415
 5394POPC   C1B68455  17.147  28.532   6.212
 5394POPC   C2B68456  17.230  28.456   6.678
 5394POPC   C3B68457  17.052  28.505   7.116
 5394POPC   C4B68458  17.071  28.518   7.611
 5395POPC   NC368459  37.575  37.708   5.462
 5395POPC   PO468460  38.140  37.555   5.396
 5395POPC   GL168461  37.926  37.547   5.817
 5395POPC   GL268462  37.802  37.860   5.885
 5395POPC   C1A68463  37.745  37.496   6.256
 5395POPC   D2A68464  37.880  37.469   6.669
 5395POPC   C3A68465  37.628  37.415   7.049
 5395POPC   C4A68466  37.812  37.391   7.509
 5395POPC   C1B68467  37.840  38.001   6.265
 5395POPC   C2B68468  37.645  37.946   6.626
 5395POPC   C3B68469  37.400  37.872   6.967
 5395POPC   C4B68470  37.566  37.826   7.378
 5396POPC   NC368471   6.345  29.699   5.352
 5396POPC   PO468472   6.538  30.334   5.381
 5396POPC   GL168473   6.500  30.045   5.740
 5396POPC   GL268474   6.808  29.848   5.806
 5396POPC   C1A68475   6.586  30.139   6.179
 5396POPC   D2A68476   6.682  29.877   6.524
 5396POPC   C3A68477   6.613  30.105   6.885
 5396POPC   C4A68478   6.357  30.111   7.217
 5396POPC   C1B68479   7.031  29.661   6.179
 5396POPC   C2B68480   7.045  29.522   6.617
 5396POPC   C3B68481   6.981  29.739   7.001
 5396POPC   C4B68482   6.940  30.126   7.269
 5397POPC   NC368483   7.269  21.638   5.633
 5397POPC   PO468484   7.722  21.232   5.484
 5397POPC   GL168485   7.566  21.293   5.888
 5397POPC   GL268486   7.194  21.256   5.976
 5397POPC   C1A68487   7.582  21.513   6.283
 5397POPC   D2A68488   7.402  21.495   6.689
 5397POPC   C3A68489   7.362  21.154   6.958
 5397POPC   C4A68490   7.263  21.433   7.290
 5397POPC   C1B68491   7.081  21.634   6.275
 5397POPC   C2B68492   6.957  21.772   6.699
 5397POPC   C3B68493   6.850  21.741   7.163
 5397POPC   C4B68494   6.843  21.506   7.582
 5398POPC   NC368495  32.502  16.845   5.378
 5398POPC   PO468496  31.887  16.452   5.384
 5398POPC   GL168497  32.181  16.555   5.691
 5398POPC   GL268498  32.211  16.927   5.782
 5398POPC   C1A68499  32.209  16.598   6.157
 5398POPC   D2A68500  32.124  16.817   6.541
 5398POPC   C3A68501  32.116  16.653   6.946
 5398POPC   C4A68502  32.000  16.692   7.375
 5398POPC   C1B68503  32.447  17.070   6.165
 5398POPC   C2B68504  32.392  17.232   6.599
 5398POPC   C3B68505  32.354  17.104   7.068
 5398POPC   C4B68506  32.307  17.089   7.534
 5399POPC   NC368507  10.621   4.078   5.267
 5399POPC   PO468508  10.179   4.630   5.450
 5399POPC   GL168509  10.528   4.494   5.774
 5399POPC   GL268510  10.577   4.131   5.810
 5399POPC   C1A68511  10.675   4.396   6.211
 5399POPC   D2A68512  10.469   4.342   6.597
 5399POPC   C3A68513  10.833   4.325   6.847
 5399POPC   C4A68514  10.900   4.278   7.257
 5399POPC   C1B68515  10.310   3.980   6.251
 5399POPC   C2B68516  10.214   3.749   6.694
 5399POPC   C3B68517  10.375   3.905   7.065
 5399POPC   C4B68518  10.423   4.219   7.350
 5400POPC   NC368519  41.944  23.828   5.268
 5400POPC   PO468520  41.397  23.444   5.379
 5400POPC   GL168521  41.421  23.641   5.847
 5400POPC   GL268522  41.207  23.963   5.920
 5400POPC   C1A68523  41.614  23.758   6.266
 5400POPC   D2A68524  41.925  23.660   6.601
 5400POPC   C3A68525  41.754  23.651   7.013
 5400POPC   C4A68526  41.609  23.356   7.310
 5400POPC   C1B68527  41.209  24.066   6.361
 5400POPC   C2B68528  41.445  23.950   6.719
 5400POPC   C3B68529  41.260  23.803   7.097
 5400POPC   C4B68530  41.467  23.793   7.496
 5401POPC   NC368531  40.442  44.329   5.389
 5401POPC   PO468532  40.893  43.773   5.547
 5401POPC   GL168533  40.886  43.950   5.918
 5401POPC   GL268534  40.588  44.122   5.848
 5401POPC   C1A68535  41.136  44.097   6.261
 5401POPC   D2A68536  41.314  43.902   6.617
 5401POPC   C3A68537  41.160  43.982   7.020
 5401POPC   C4A68538  41.070  43.874   7.470
 5401POPC   C1B68539  40.520  43.968   6.296
 5401POPC   C2B68540  40.699  43.945   6.713
 5401POPC   C3B68541  40.658  43.847   7.152
 5401POPC   C4B68542  40.600  44.124   7.523
 5402POPC   NC368543  33.163   7.683   5.091
 5402POPC   PO468544  32.895   8.223   5.363
 5402POPC   GL168545  32.994   8.252   5.823
 5402POPC   GL268546  33.265   8.522   5.778
 5402POPC   C1A68547  32.978   8.014   6.237
 5402POPC   D2A68548  33.024   7.804   6.658
 5402POPC   C3A68549  33.111   8.019   7.066
 5402POPC   C4A68550  33.094   8.017   7.550
 5402POPC   C1B68551  33.392   8.358   6.178
 5402POPC   C2B68552  33.289   8.247   6.601
 5402POPC   C3B68553  33.499   8.459   6.946
 5402POPC   C4B68554  33.394   8.364   7.336
 5403POPC   NC368555  24.226  23.040   5.182
 5403POPC   PO468556  24.792  23.028   5.566
 5403POPC   GL168557  24.502  22.920   5.820
 5403POPC   GL268558  24.244  23.106   5.698
 5403POPC   C1A68559  24.445  22.929   6.243
 5403POPC   D2A68560  24.642  22.998   6.595
 5403POPC   C3A68561  24.454  22.857   6.962
 5403POPC   C4A68562  24.695  22.728   7.313
 5403POPC   C1B68563  24.430  23.392   6.039
 5403POPC   C2B68564  24.405  23.432   6.494
 5403POPC   C3B68565  24.319  23.343   6.941
 5403POPC   C4B68566  24.377  23.147   7.369
 5404POPC   NC368567   6.189  24.226   5.182
 5404POPC   PO468568   6.272  23.510   5.340
 5404POPC   GL168569   6.061  23.625   5.739
 5404POPC   GL268570   5.699  23.487   5.864
 5404POPC   C1A68571   6.046  23.761   6.166
 5404POPC   D2A68572   5.764  23.879   6.460
 5404POPC   C3A68573   5.849  23.774   6.880
 5404POPC   C4A68574   5.719  23.956   7.301
 5404POPC   C1B68575   6.027  23.226   6.056
 5404POPC   C2B68576   6.044  23.244   6.493
 5404POPC   C3B68577   6.021  23.272   6.933
 5404POPC   C4B68578   5.866  23.461   7.305
 5405POPC   NC368579  22.535  27.638   5.468
 5405POPC   PO468580  23.181  27.373   5.393
 5405POPC   GL168581  23.042  27.616   5.771
 5405POPC   GL268582  22.707  27.658   5.947
 5405POPC   C1A68583  23.187  27.582   6.181
 5405POPC   D2A68584  22.939  27.567   6.543
 5405POPC   C3A68585  23.147  27.624   6.936
 5405POPC   C4A68586  22.934  27.678   7.329
 5405POPC   C1B68587  22.673  27.272   6.170
 5405POPC   C2B68588  22.634  27.154   6.608
 5405POPC   C3B68589  22.654  27.418   6.968
 5405POPC   C4B68590  22.635  27.238   7.355
 5406POPC   NC368591  30.162  31.092   5.502
 5406POPC   PO468592  29.610  31.422   5.433
 5406POPC   GL168593  29.815  31.415   5.848
 5406POPC   GL268594  30.074  31.201   5.994
 5406POPC   C1A68595  29.863  31.643   6.261
 5406POPC   D2A68596  29.738  31.747   6.697
 5406POPC   C3A68597  29.954  31.566   7.043
 5406POPC   C4A68598  29.878  31.287   7.403
 5406POPC   C1B68599  30.251  31.040   6.376
 5406POPC   C2B68600  30.149  31.134   6.821
 5406POPC   C3B68601  30.363  31.313   7.219
 5406POPC   C4B68602  30.341  31.380   7.695
 5407POPC   NC368603  11.119  18.413   5.399
 5407POPC   PO468604  11.636  17.991   5.355
 5407POPC   GL168605  11.444  18.126   5.736
 5407POPC   GL268606  11.407  18.490   5.844
 5407POPC   C1A68607  11.515  18.027   6.165
 5407POPC   D2A68608  11.729  17.878   6.536
 5407POPC   C3A68609  11.564  17.997   6.924
 5407POPC   C4A68610  11.332  17.957   7.276
 5407POPC   C1B68611  11.083  18.321   6.085
 5407POPC   C2B68612  11.047  18.131   6.493
 5407POPC   C3B68613  11.110  18.299   6.933
 5407POPC   C4B68614  11.471  18.459   7.209
 5408POPC   NC368615   3.274  19.084   5.471
 5408POPC   PO468616   3.760  19.529   5.587
 5408POPC   GL168617   3.749  19.100   5.801
 5408POPC   GL268618   3.417  18.912   5.909
 5408POPC   C1A68619   3.743  19.058   6.270
 5408POPC   D2A68620   3.647  19.386   6.561
 5408POPC   C3A68621   3.598  19.213   6.985
 5408POPC   C4A68622   3.650  19.077   7.428
 5408POPC   C1B68623   3.355  18.669   6.264
 5408POPC   C2B68624   3.473  18.812   6.666
 5408POPC   C3B68625   3.623  18.690   7.062
 5408POPC   C4B68626   3.329  18.676   7.395
 5409POPC   NC368627  17.995  43.838   5.359
 5409POPC   PO468628  18.527  44.231   5.413
 5409POPC   GL168629  18.401  43.851   5.730
 5409POPC   GL268630  18.082  43.695   5.831
 5409POPC   C1A68631  18.453  43.659   6.167
 5409POPC   D2A68632  18.469  43.745   6.614
 5409POPC   C3A68633  18.409  44.132   6.889
 5409POPC   C4A68634  18.182  44.182   7.290
 5409POPC   C1B68635  17.901  43.785   6.220
 5409POPC   C2B68636  17.945  43.822   6.645
 5409POPC   C3B68637  18.149  43.709   7.016
 5409POPC   C4B68638  17.973  43.706   7.388
 5410POPC   NC368639  17.607   1.995   5.310
 5410POPC   PO468640  17.155   1.521   5.595
 5410POPC   GL168641  17.418   1.862   5.792
 5410POPC   GL268642  17.783   1.838   5.777
 5410POPC   C1A68643  17.525   2.104   6.192
 5410POPC   D2A68644  17.280   2.184   6.595
 5410POPC   C3A68645  17.395   2.291   7.029
 5410POPC   C4A68646  17.399   2.099   7.459
 5410POPC   C1B68647  17.905   1.744   6.202
 5410POPC   C2B68648  17.706   1.841   6.607
 5410POPC   C3B68649  17.852   1.793   7.033
 5410POPC   C4B68650  18.061   2.148   7.191
 5411POPC   NC368651  42.524  42.613   5.318
 5411POPC   PO468652  41.956  42.327   5.094
 5411POPC   GL168653  42.037  42.255   5.578
 5411POPC   GL268654  42.380  42.369   5.746
 5411POPC   C1A68655  41.934  42.024   6.015
 5411POPC   D2A68656  42.010  41.846   6.476
 5411POPC   C3A68657  42.120  42.067   6.852
 5411POPC   C4A68658  41.892  42.005   7.232
 5411POPC   C1B68659  42.620  42.240   6.132
 5411POPC   C2B68660  42.795  42.361   6.541
 5411POPC   C3B68661  42.724  42.353   7.014
 5411POPC   C4B68662  42.315  42.337   7.270
 5412POPC   NC368663  13.254   9.007   5.497
 5412POPC   PO468664  13.910   8.913   5.564
 5412POPC   GL168665  13.691   9.211   5.872
 5412POPC   GL268666  13.326   9.356   5.880
 5412POPC   C1A68667  13.877   9.183   6.274
 5412POPC   D2A68668  13.926   8.835   6.570
 5412POPC   C3A68669  13.916   9.073   6.918
 5412POPC   C4A68670  13.683   9.224   7.250
 5412POPC   C1B68671  13.363   9.013   6.198
 5412POPC   C2B68672  13.481   9.092   6.612
 5412POPC   C3B68673  13.363   8.911   6.998
 5412POPC   C4B68674  13.181   9.102   7.374
 5413POPC   NC368675  44.971   2.120   5.404
 5413POPC   PO468676  44.396   2.226   5.726
 5413POPC   GL168677  44.774   2.086   5.910
 5413POPC   GL268678  44.962   1.783   5.801
 5413POPC   C1A68679  44.821   2.121   6.340
 5413POPC   D2A68680  44.657   2.048   6.742
 5413POPC   C3A68681  44.630   2.137   7.140
 5413POPC   C4A68682  44.897   2.004   7.397
 5413POPC   C1B68683  44.854   1.611   6.208
 5413POPC   C2B68684  44.663   1.556   6.616
 5413POPC   C3B68685  44.877   1.641   7.012
 5413POPC   C4B68686  44.807   1.485   7.416
 5414POPC   NC368687  24.012  25.724   5.556
 5414POPC   PO468688  23.516  26.267   5.656
 5414POPC   GL168689  23.694  25.936   5.916
 5414POPC   GL268690  24.049  26.032   5.980
 5414POPC   C1A68691  23.706  25.894   6.372
 5414POPC   D2A68692  23.558  26.198   6.678
 5414POPC   C3A68693  23.546  26.155   7.112
 5414POPC   C4A68694  23.775  26.479   7.266
 5414POPC   C1B68695  24.128  25.636   6.236
 5414POPC   C2B68696  24.041  25.545   6.668
 5414POPC   C3B68697  23.950  25.832   7.003
 5414POPC   C4B68698  23.755  25.766   7.408
 5415POPC   NC368699  41.252  44.147   5.477
 5415POPC   PO468700  41.865  43.934   5.369
 5415POPC   GL168701  41.619  43.915   5.762
 5415POPC   GL268702  41.352  43.695   5.725
 5415POPC   C1A68703  41.660  44.002   6.212
 5415POPC   D2A68704  41.835  43.936   6.630
 5415POPC   C3A68705  41.675  44.142   6.992
 5415POPC   C4A68706  41.939  44.080   7.358
 5415POPC   C1B68707  41.353  43.599   6.157
 5415POPC   C2B68708  41.339  43.391   6.569
 5415POPC   C3B68709  41.592  43.553   6.900
 5415POPC   C4B68710  41.541  43.732   7.283
 5416POPC   NC368711   4.828   1.341   5.323
 5416POPC   PO468712   5.446   1.579   5.376
 5416POPC   GL168713   5.259   1.394   5.781
 5416POPC   GL268714   4.948   1.184   5.787
 5416POPC   C1A68715   5.253   1.206   6.211
 5416POPC   D2A68716   5.430   1.074   6.597
 5416POPC   C3A68717   5.130   1.090   6.940
 5416POPC   C4A68718   4.801   1.043   7.276
 5416POPC   C1B68719   4.779   1.404   6.140
 5416POPC   C2B68720   4.757   1.234   6.563
 5416POPC   C3B68721   4.751   1.451   6.952
 5416POPC   C4B68722   5.085   1.523   7.242
 5417POPC   NC368723  42.779  26.149   5.691
 5417POPC   PO468724  42.180  26.023   5.401
 5417POPC   GL168725  42.308  25.901   5.853
 5417POPC   GL268726  42.451  26.176   6.064
 5417POPC   C1A68727  42.208  25.850   6.340
 5417POPC   D2A68728  42.303  26.120   6.672
 5417POPC   C3A68729  42.294  26.003   7.103
 5417POPC   C4A68730  42.515  26.001   7.498
 5417POPC   C1B68731  42.727  26.425   6.303
 5417POPC   C2B68732  42.803  26.313   6.714
 5417POPC   C3B68733  42.750  26.232   7.117
 5417POPC   C4B68734  42.963  26.286   7.516
 5418POPC   NC368735  14.848  21.970   5.529
 5418POPC   PO468736  14.419  21.421   5.323
 5418POPC   GL168737  14.355  21.382   5.793
 5418POPC   GL268738  14.137  21.088   5.819
 5418POPC   C1A68739  14.299  21.539   6.245
 5418POPC   D2A68740  14.529  21.459   6.652
 5418POPC   C3A68741  14.476  21.646   7.090
 5418POPC   C4A68742  14.644  21.421   7.468
 5418POPC   C1B68743  13.942  21.181   6.225
 5418POPC   C2B68744  14.013  21.325   6.640
 5418POPC   C3B68745  14.182  21.244   7.018
 5418POPC   C4B68746  14.374  20.996   7.333
 5419POPC   NC368747  13.765  17.358   5.341
 5419POPC   PO468748  13.595  18.049   5.408
 5419POPC   GL168749  13.740  17.678   5.750
 5419POPC   GL268750  13.948  17.304   5.814
 5419POPC   C1A68751  13.711  17.526   6.180
 5419POPC   D2A68752  13.512  17.332   6.527
 5419POPC   C3A68753  13.732  17.480   6.861
 5419POPC   C4A68754  13.818  17.577   7.266
 5419POPC   C1B68755  13.822  17.038   6.235
 5419POPC   C2B68756  13.848  16.980   6.735
 5419POPC   C3B68757  13.719  17.075   7.172
 5419POPC   C4B68758  13.982  17.181   7.535
 5420POPC   NC368759  31.152  28.748   5.338
 5420POPC   PO468760  31.865  28.552   5.300
 5420POPC   GL168761  31.638  28.324   5.727
 5420POPC   GL268762  31.261  28.361   5.733
 5420POPC   C1A68763  31.591  28.093   6.169
 5420POPC   D2A68764  31.725  28.105   6.610
 5420POPC   C3A68765  31.596  28.299   7.015
 5420POPC   C4A68766  31.593  28.097   7.441
 5420POPC   C1B68767  31.329  28.517   6.167
 5420POPC   C2B68768  31.188  28.212   6.509
 5420POPC   C3B68769  31.128  28.062   6.935
 5420POPC   C4B68770  31.142  28.315   7.284
 5421POPC   NC368771  24.228  38.467   5.296
 5421POPC   PO468772  24.720  38.402   5.647
 5421POPC   GL168773  24.407  38.430   5.915
 5421POPC   GL268774  24.112  38.253   5.797
 5421POPC   C1A68775  24.474  38.666   6.319
 5421POPC   D2A68776  24.801  38.529   6.597
 5421POPC   C3A68777  24.658  38.365   6.973
 5421POPC   C4A68778  24.589  38.560   7.359
 5421POPC   C1B68779  24.024  38.402   6.226
 5421POPC   C2B68780  24.247  38.323   6.601
 5421POPC   C3B68781  24.130  38.360   6.992
 5421POPC   C4B68782  24.105  38.562   7.336
 5422POPC   NC368783  22.900  23.372   5.492
 5422POPC   PO468784  23.252  23.877   5.326
 5422POPC   GL168785  23.148  23.881   5.812
 5422POPC   GL268786  22.897  23.605   5.940
 5422POPC   C1A68787  23.010  23.955   6.273
 5422POPC   D2A68788  22.695  23.720   6.532
 5422POPC   C3A68789  22.804  23.773   6.952
 5422POPC   C4A68790  23.017  23.926   7.300
 5422POPC   C1B68791  23.088  23.431   6.337
 5422POPC   C2B68792  23.084  23.371   6.790
 5422POPC   C3B68793  23.079  23.257   7.210
 5422POPC   C4B68794  22.733  23.451   7.327
 5423POPC   NC368795   0.101  17.819   5.438
 5423POPC   PO468796  44.500  17.425   5.443
 5423POPC   GL168797  44.605  17.432   5.874
 5423POPC   GL268798  44.927  17.507   5.825
 5423POPC   C1A68799  44.694  17.520   6.319
 5423POPC   D2A68800  44.350  17.500   6.598
 5423POPC   C3A68801  44.360  17.301   6.929
 5423POPC   C4A68802  44.506  17.391   7.287
 5423POPC   C1B68803   0.013  17.877   6.092
 5423POPC   C2B68804   0.063  17.890   6.536
 5423POPC   C3B68805  44.866  17.577   6.829
 5423POPC   C4B68806  44.994  17.498   7.258
 5424POPC   NC368807  30.542  19.710   5.411
 5424POPC   PO468808  31.055  20.135   5.438
 5424POPC   GL168809  30.877  19.863   5.810
 5424POPC   GL268810  30.699  19.507   5.848
 5424POPC   C1A68811  30.903  19.849   6.272
 5424POPC   D2A68812  31.121  19.732   6.657
 5424POPC   C3A68813  30.956  20.022   6.952
 5424POPC   C4A68814  30.763  20.007   7.337
 5424POPC   C1B68815  30.843  19.352   6.249
 5424POPC   C2B68816  30.642  19.501   6.619
 5424POPC   C3B68817  30.564  19.632   7.049
 5424POPC   C4B68818  30.390  19.425   7.415
 5425POPC   NC368819  32.873  43.714   5.409
 5425POPC   PO468820  33.357  44.165   5.301
 5425POPC   GL168821  33.083  44.076   5.755
 5425POPC   GL268822  32.810  43.839   5.874
 5425POPC   C1A68823  32.906  44.140   6.235
 5425POPC   D2A68824  33.097  44.043   6.612
 5425POPC   C3A68825  32.885  43.974   7.005
 5425POPC   C4A68826  32.888  44.030   7.456
 5425POPC   C1B68827  33.068  43.647   6.228
 5425POPC   C2B68828  32.982  43.537   6.669
 5425POPC   C3B68829  33.023  43.513   7.139
 5425POPC   C4B68830  32.984  43.436   7.580
 5426POPC   NC368831  11.419  25.450   5.288
 5426POPC   PO468832  10.987  25.090   5.544
 5426POPC   GL168833  11.083  25.441   5.809
 5426POPC   GL268834  11.401  25.339   5.974
 5426POPC   C1A68835  11.028  25.491   6.276
 5426POPC   D2A68836  10.941  25.287   6.702
 5426POPC   C3A68837  10.988  25.554   7.027
 5426POPC   C4A68838  11.209  25.484   7.401
 5426POPC   C1B68839  11.455  25.245   6.453
 5426POPC   C2B68840  11.396  25.231   6.926
 5426POPC   C3B68841  11.447  25.027   7.322
 5426POPC   C4B68842  11.867  24.885   7.512
 5427POPC   NC368843  17.790  27.958   5.352
 5427POPC   PO468844  17.626  28.604   5.349
 5427POPC   GL168845  17.505  28.529   5.806
 5427POPC   GL268846  17.345  28.192   5.879
 5427POPC   C1A68847  17.660  28.479   6.233
 5427POPC   D2A68848  17.747  28.291   6.647
 5427POPC   C3A68849  17.713  28.548   7.010
 5427POPC   C4A68850  17.494  28.672   7.368
 5427POPC   C1B68851  17.448  28.011   6.302
 5427POPC   C2B68852  17.347  27.931   6.734
 5427POPC   C3B68853  17.302  28.071   7.153
 5427POPC   C4B68854  17.647  28.145   7.364
 5428POPC   NC368855  37.132  43.537   5.328
 5428POPC   PO468856  36.736  42.971   5.393
 5428POPC   GL168857  36.808  43.253   5.729
 5428POPC   GL268858  37.161  43.290   5.763
 5428POPC   C1A68859  36.689  43.231   6.171
 5428POPC   D2A68860  36.932  43.331   6.543
 5428POPC   C3A68861  36.992  43.002   6.846
 5428POPC   C4A68862  36.716  43.078   7.191
 5428POPC   C1B68863  37.202  43.084   6.174
 5428POPC   C2B68864  37.439  43.208   6.540
 5428POPC   C3B68865  37.345  43.367   6.937
 5428POPC   C4B68866  37.199  43.162   7.303
 5429POPC   NC368867  34.281  32.227   5.373
 5429POPC   PO468868  33.654  32.436   5.333
 5429POPC   GL168869  33.784  32.393   5.798
 5429POPC   GL268870  34.191  32.414   5.838
 5429POPC   C1A68871  33.548  32.459   6.242
 5429POPC   D2A68872  33.621  32.649   6.687
 5429POPC   C3A68873  33.648  32.378   7.062
 5429POPC   C4A68874  33.749  31.981   7.170
 5429POPC   C1B68875  34.048  32.374   6.258
 5429POPC   C2B68876  33.909  32.167   6.649
 5429POPC   C3B68877  34.170  32.204   7.022
 5429POPC   C4B68878  34.060  32.331   7.424
 5430POPC   NC368879  26.696  41.736   5.597
 5430POPC   PO468880  27.192  41.278   5.296
 5430POPC   GL168881  27.018  41.390   5.789
 5430POPC   GL268882  26.670  41.459   6.023
 5430POPC   C1A68883  27.054  41.695   6.192
 5430POPC   D2A68884  26.742  41.744   6.535
 5430POPC   C3A68885  26.754  41.510   6.905
 5430POPC   C4A68886  26.897  41.779   7.170
 5430POPC   C1B68887  26.369  41.427   6.367
 5430POPC   C2B68888  26.249  41.400   6.794
 5430POPC   C3B68889  26.373  41.259   7.186
 5430POPC   C4B68890  26.321  41.335   7.629
 5431POPC   NC368891   6.251   7.068   5.402
 5431POPC   PO468892   6.622   6.482   5.442
 5431POPC   GL168893   6.761   6.578   5.847
 5431POPC   GL268894   6.939   6.900   5.831
 5431POPC   C1A68895   6.765   6.416   6.267
 5431POPC   D2A68896   7.029   6.298   6.583
 5431POPC   C3A68897   6.803   6.389   6.980
 5431POPC   C4A68898   6.933   6.430   7.428
 5431POPC   C1B68899   6.719   6.928   6.250
 5431POPC   C2B68900   6.544   6.846   6.673
 5431POPC   C3B68901   6.717   6.895   7.072
 5431POPC   C4B68902   6.790   6.966   7.495
 5432POPC   NC368903  27.593  19.657   5.466
 5432POPC   PO468904  27.100  19.971   5.241
 5432POPC   GL168905  27.295  19.992   5.713
 5432POPC   GL268906  27.660  19.973   5.840
 5432POPC   C1A68907  27.292  19.850   6.169
 5432POPC   D2A68908  27.564  19.881   6.537
 5432POPC   C3A68909  27.435  19.878   6.962
 5432POPC   C4A68910  27.339  19.600   7.281
 5432POPC   C1B68911  27.910  19.806   6.138
 5432POPC   C2B68912  28.041  19.714   6.556
 5432POPC   C3B68913  27.969  19.942   6.940
 5432POPC   C4B68914  27.813  19.889   7.345
 5433POPC   NC368915  38.964  32.362   4.929
 5433POPC   PO468916  39.550  32.168   5.263
 5433POPC   GL168917  39.323  32.312   5.643
 5433POPC   GL268918  39.158  32.045   5.836
 5433POPC   C1A68919  39.434  32.441   6.080
 5433POPC   D2A68920  39.446  32.249   6.504
 5433POPC   C3A68921  39.551  32.566   6.833
 5433POPC   C4A68922  39.313  32.688   7.208
 5433POPC   C1B68923  38.970  32.249   6.190
 5433POPC   C2B68924  38.849  32.288   6.591
 5433POPC   C3B68925  39.108  32.284   6.915
 5433POPC   C4B68926  39.138  32.179   7.303
 5434POPC   NC368927  13.318  28.186   5.506
 5434POPC   PO468928  13.916  28.160   5.294
 5434POPC   GL168929  13.809  28.360   5.730
 5434POPC   GL268930  13.780  28.747   5.808
 5434POPC   C1A68931  13.695  28.171   6.154
 5434POPC   D2A68932  13.791  27.937   6.543
 5434POPC   C3A68933  13.678  28.071   6.953
 5434POPC   C4A68934  13.846  28.378   7.216
 5434POPC   C1B68935  13.404  28.583   6.045
 5434POPC   C2B68936  13.383  28.506   6.482
 5434POPC   C3B68937  13.483  28.564   6.903
 5434POPC   C4B68938  13.339  28.512   7.326
 5435POPC   NC368939   2.285  32.441   5.415
 5435POPC   PO468940   1.754  32.057   5.283
 5435POPC   GL168941   2.008  31.989   5.691
 5435POPC   GL268942   2.211  32.191   5.908
 5435POPC   C1A68943   1.885  31.839   6.165
 5435POPC   D2A68944   1.921  31.877   6.642
 5435POPC   C3A68945   1.662  32.017   6.988
 5435POPC   C4A68946   1.734  32.405   7.229
 5435POPC   C1B68947   2.345  31.976   6.333
 5435POPC   C2B68948   2.410  32.042   6.752
 5435POPC   C3B68949   2.152  32.080   7.108
 5435POPC   C4B68950   2.171  32.269   7.485
 5436POPC   NC368951  28.266  27.678   5.119
 5436POPC   PO468952  28.119  27.738   5.769
 5436POPC   GL168953  28.461  27.697   6.052
 5436POPC   GL268954  28.675  27.405   6.077
 5436POPC   C1A68955  28.346  27.634   6.446
 5436POPC   D2A68956  28.009  27.661   6.724
 5436POPC   C3A68957  28.272  27.729   7.079
 5436POPC   C4A68958  28.256  27.869   7.488
 5436POPC   C1B68959  28.414  27.144   6.287
 5436POPC   C2B68960  28.266  27.216   6.715
 5436POPC   C3B68961  28.066  27.276   7.094
 5436POPC   C4B68962  28.237  27.371   7.496
 5437POPC   NC368963  13.816  37.342   5.489
 5437POPC   PO468964  13.759  36.642   5.399
 5437POPC   GL168965  13.850  36.906   5.782
 5437POPC   GL268966  13.537  37.008   5.980
 5437POPC   C1A68967  13.996  37.063   6.208
 5437POPC   D2A68968  13.736  37.017   6.581
 5437POPC   C3A68969  13.782  37.039   7.021
 5437POPC   C4A68970  13.638  36.925   7.446
 5437POPC   C1B68971  13.694  36.641   6.220
 5437POPC   C2B68972  13.713  36.410   6.624
 5437POPC   C3B68973  13.656  36.520   7.065
 5437POPC   C4B68974  13.456  36.457   7.459
 5438POPC   NC368975   1.567   1.509   5.572
 5438POPC   PO468976   1.094   1.210   5.138
 5438POPC   GL168977   1.043   1.257   5.638
 5438POPC   GL268978   1.318   1.163   5.878
 5438POPC   C1A68979   0.884   1.224   6.112
 5438POPC   D2A68980   1.115   1.088   6.508
 5438POPC   C3A68981   1.055   1.307   6.898
 5438POPC   C4A68982   1.113   1.176   7.314
 5438POPC   C1B68983   1.394   1.430   6.238
 5438POPC   C2B68984   1.601   1.337   6.626
 5438POPC   C3B68985   1.554   1.267   7.068
 5438POPC   C4B68986   1.460   1.502   7.476
 5439POPC   NC368987  24.461  21.978   5.422
 5439POPC   PO468988  24.432  22.641   5.330
 5439POPC   GL168989  24.666  22.445   5.737
 5439POPC   GL268990  24.662  22.101   5.862
 5439POPC   C1A68991  24.723  22.507   6.175
 5439POPC   D2A68992  24.456  22.519   6.552
 5439POPC   C3A68993  24.598  22.383   6.946
 5439POPC   C4A68994  24.348  22.356   7.295
 5439POPC   C1B68995  24.367  22.135   6.206
 5439POPC   C2B68996  24.516  22.016   6.613
 5439POPC   C3B68997  24.447  21.908   7.041
 5439POPC   C4B68998  24.763  21.956   7.332
 5440POPC   NC368999  18.080  40.854   5.585
 5440POPC   PO469000  17.399  41.099   5.436
 5440POPC   GL169001  17.606  40.891   5.798
 5440POPC   GL269002  17.691  40.527   5.745
 5440POPC   C1A69003  17.528  40.988   6.248
 5440POPC   D2A69004  17.670  41.032   6.684
 5440POPC   C3A69005  17.363  40.827   6.936
 5440POPC   C4A69006  17.353  40.950   7.331
 5440POPC   C1B69007  17.774  40.544   6.183
 5440POPC   C2B69008  17.705  40.518   6.642
 5440POPC   C3B69009  17.808  40.651   7.078
 5440POPC   C4B69010  17.606  40.503   7.444
 5441POPC   NC369011  23.780   1.757   5.341
 5441POPC   PO469012  23.613   2.309   5.198
 5441POPC   GL169013  23.741   2.133   5.689
 5441POPC   GL269014  23.604   1.786   5.806
 5441POPC   C1A69015  23.867   2.063   6.133
 5441POPC   D2A69016  23.874   2.303   6.495
 5441POPC   C3A69017  23.851   2.074   6.853
 5441POPC   C4A69018  23.867   2.080   7.285
 5441POPC   C1B69019  23.531   1.650   6.212
 5441POPC   C2B69020  23.726   1.660   6.557
 5441POPC   C3B69021  23.512   1.705   6.913
 5441POPC   C4B69022  23.590   1.572   7.275
 5442POPC   NC369023   5.821  27.764   5.542
 5442POPC   PO469024   6.070  27.098   5.541
 5442POPC   GL169025   5.848  27.319   5.877
 5442POPC   GL269026   5.945  27.638   6.017
 5442POPC   C1A69027   5.832  27.188   6.286
 5442POPC   D2A69028   5.921  27.523   6.554
 5442POPC   C3A69029   5.784  27.493   6.970
 5442POPC   C4A69030   6.008  27.593   7.355
 5442POPC   C1B69031   5.738  27.968   6.253
 5442POPC   C2B69032   5.652  28.102   6.687
 5442POPC   C3B69033   5.753  27.994   7.151
 5442POPC   C4B69034   5.743  27.911   7.646
 5443POPC   NC369035  30.285  15.501   5.530
 5443POPC   PO469036  29.863  14.967   5.418
 5443POPC   GL169037  29.722  15.182   5.785
 5443POPC   GL269038  30.078  15.148   5.868
 5443POPC   C1A69039  29.714  15.113   6.226
 5443POPC   D2A69040  29.970  15.096   6.588
 5443POPC   C3A69041  29.709  15.064   6.913
 5443POPC   C4A69042  29.664  14.855   7.317
 5443POPC   C1B69043  30.153  15.408   6.210
 5443POPC   C2B69044  30.135  15.588   6.595
 5443POPC   C3B69045  30.193  15.424   6.965
 5443POPC   C4B69046  29.954  15.283   7.290
 5444POPC   NC369047  19.397   3.834   5.530
 5444POPC   PO469048  18.821   3.594   5.309
 5444POPC   GL169049  18.919   3.482   5.777
 5444POPC   GL269050  19.256   3.537   5.913
 5444POPC   C1A69051  18.894   3.572   6.253
 5444POPC   D2A69052  19.203   3.457   6.562
 5444POPC   C3A69053  18.986   3.581   6.911
 5444POPC   C4A69054  19.077   3.485   7.325
 5444POPC   C1B69055  19.314   3.861   6.255
 5444POPC   C2B69056  19.376   3.921   6.712
 5444POPC   C3B69057  19.277   3.920   7.162
 5444POPC   C4B69058  19.411   3.889   7.588
 5445POPC   NC369059  26.663  28.169   5.350
 5445POPC   PO469060  27.250  28.223   5.676
 5445POPC   GL169061  26.922  28.392   5.873
 5445POPC   GL269062  26.800  28.091   5.942
 5445POPC   C1A69063  26.696  28.485   6.291
 5445POPC   D2A69064  26.574  28.755   6.668
 5445POPC   C3A69065  26.768  28.615   7.061
 5445POPC   C4A69066  26.575  28.253   7.231
 5445POPC   C1B69067  27.109  28.170   6.292
 5445POPC   C2B69068  26.980  28.169   6.674
 5445POPC   C3B69069  27.152  28.278   7.034
 5445POPC   C4B69070  27.042  28.223   7.443
 5446POPC   NC369071  34.878  15.734   5.128
 5446POPC   PO469072  34.352  15.565   5.524
 5446POPC   GL169073  34.392  15.291   5.852
 5446POPC   GL269074  34.615  15.047   5.768
 5446POPC   C1A69075  34.579  15.267   6.240
 5446POPC   D2A69076  34.342  15.244   6.593
 5446POPC   C3A69077  34.551  15.187   6.963
 5446POPC   C4A69078  34.442  15.193   7.396
 5446POPC   C1B69079  34.825  14.814   6.060
 5446POPC   C2B69080  34.948  14.751   6.484
 5446POPC   C3B69081  34.836  14.742   6.915
 5446POPC   C4B69082  34.930  14.978   7.267
 5447POPC   NC369083  12.826  16.125   5.493
 5447POPC   PO469084  12.682  15.549   5.273
 5447POPC   GL169085  12.900  15.658   5.687
 5447POPC   GL269086  12.627  15.795   5.834
 5447POPC   C1A69087  13.044  15.895   6.095
 5447POPC   D2A69088  13.005  15.776   6.522
 5447POPC   C3A69089  13.037  16.002   6.896
 5447POPC   C4A69090  12.906  15.861   7.276
 5447POPC   C1B69091  12.533  16.071   6.179
 5447POPC   C2B69092  12.666  16.173   6.585
 5447POPC   C3B69093  12.525  16.031   6.965
 5447POPC   C4B69094  12.320  16.202   7.316
 5448POPC   NC369095  21.237  31.582   5.367
 5448POPC   PO469096  21.945  31.805   5.447
 5448POPC   GL169097  21.601  31.667   5.758
 5448POPC   GL269098  21.697  31.378   5.971
 5448POPC   C1A69099  21.404  31.856   6.118
 5448POPC   D2A69100  21.167  31.723   6.466
 5448POPC   C3A69101  21.333  31.693   6.867
 5448POPC   C4A69102  21.249  31.333   7.146
 5448POPC   C1B69103  21.288  31.307   6.170
 5448POPC   C2B69104  21.301  31.240   6.614
 5448POPC   C3B69105  21.683  31.311   6.876
 5448POPC   C4B69106  21.827  31.043   7.218
 5449POPC   NC369107   2.049  44.664   5.395
 5449POPC   PO469108   2.557  44.249   5.349
 5449POPC   GL169109   2.310  44.407   5.763
 5449POPC   GL269110   1.951  44.483   5.873
 5449POPC   C1A69111   2.350  44.511   6.218
 5449POPC   D2A69112   2.367  44.675   6.655
 5449POPC   C3A69113   2.126  44.608   7.040
 5449POPC   C4A69114   1.758  44.581   7.296
 5449POPC   C1B69115   1.888  44.253   6.293
 5449POPC   C2B69116   1.898  44.153   6.774
 5449POPC   C3B69117   1.619  44.108   7.166
 5449POPC   C4B69118   1.573  44.281   7.656
 5450POPC   NC369119  40.799   8.655   5.488
 5450POPC   PO469120  40.664   9.281   5.475
 5450POPC   GL169121  40.669   9.033   5.826
 5450POPC   GL269122  41.019   9.081   5.828
 5450POPC   C1A69123  40.795   8.793   6.198
 5450POPC   D2A69124  40.915   8.999   6.576
 5450POPC   C3A69125  40.693   8.955   6.964
 5450POPC   C4A69126  40.924   8.724   7.289
 5450POPC   C1B69127  41.162   9.326   6.183
 5450POPC   C2B69128  41.106   9.462   6.616
 5450POPC   C3B69129  40.967   9.407   7.042
 5450POPC   C4B69130  40.796   9.212   7.400
 5451POPC   NC369131  16.692   4.574   4.915
 5451POPC   PO469132  16.857   5.130   5.364
 5451POPC   GL169133  16.782   5.062   5.743
 5451POPC   GL269134  16.705   5.413   5.817
 5451POPC   C1A69135  16.672   4.738   6.029
 5451POPC   D2A69136  16.761   4.673   6.451
 5451POPC   C3A69137  16.707   4.944   6.823
 5451POPC   C4A69138  16.543   4.957   7.236
 5451POPC   C1B69139  16.753   5.215   6.225
 5451POPC   C2B69140  16.744   5.414   6.612
 5451POPC   C3B69141  16.509   5.415   6.995
 5451POPC   C4B69142  16.606   5.447   7.385
 5452POPC   NC369143  19.640   9.678   5.333
 5452POPC   PO469144  20.188   9.568   5.544
 5452POPC   GL169145  19.844   9.604   5.819
 5452POPC   GL269146  19.542   9.442   5.810
 5452POPC   C1A69147  19.791   9.613   6.260
 5452POPC   D2A69148  19.962   9.581   6.665
 5452POPC   C3A69149  19.823   9.895   6.945
 5452POPC   C4A69150  19.962  10.039   7.339
 5452POPC   C1B69151  19.545   9.187   6.156
 5452POPC   C2B69152  19.526   9.280   6.591
 5452POPC   C3B69153  19.661   9.341   7.012
 5452POPC   C4B69154  19.475   9.284   7.384
 5453POPC   NC369155   3.817  37.372   5.499
 5453POPC   PO469156   3.309  36.844   5.580
 5453POPC   GL169157   3.726  36.921   5.769
 5453POPC   GL269158   3.956  36.641   5.702
 5453POPC   C1A69159   3.769  37.089   6.187
 5453POPC   D2A69160   3.497  37.350   6.457
 5453POPC   C3A69161   3.439  37.103   6.822
 5453POPC   C4A69162   3.356  37.065   7.256
 5453POPC   C1B69163   3.818  36.539   6.152
 5453POPC   C2B69164   3.827  36.680   6.597
 5453POPC   C3B69165   3.738  36.756   7.060
 5453POPC   C4B69166   3.459  36.581   7.350
 5454POPC   NC369167  23.592   7.460   5.362
 5454POPC   PO469168  23.954   6.972   5.480
 5454POPC   GL169169  23.603   7.144   5.782
 5454POPC   GL269170  23.742   7.489   5.857
 5454POPC   C1A69171  23.466   7.277   6.225
 5454POPC   D2A69172  23.629   7.200   6.669
 5454POPC   C3A69173  23.428   7.326   7.064
 5454POPC   C4A69174  23.426   7.619   7.393
 5454POPC   C1B69175  23.735   7.705   6.286
 5454POPC   C2B69176  23.850   7.889   6.687
 5454POPC   C3B69177  23.879   7.658   7.070
 5454POPC   C4B69178  23.945   7.242   7.196
 5455POPC   NC369179  21.881  30.056   5.198
 5455POPC   PO469180  22.376  29.711   5.214
 5455POPC   GL169181  22.281  29.763   5.687
 5455POPC   GL269182  21.959  29.967   5.747
 5455POPC   C1A69183  22.379  29.826   6.150
 5455POPC   D2A69184  22.405  29.701   6.606
 5455POPC   C3A69185  22.386  30.020   6.959
 5455POPC   C4A69186  22.316  29.858   7.403
 5455POPC   C1B69187  21.868  29.851   6.209
 5455POPC   C2B69188  21.958  29.982   6.650
 5455POPC   C3B69189  22.022  29.684   6.994
 5455POPC   C4B69190  21.850  29.666   7.386
 5456POPC   NC369191  33.759  21.282   5.442
 5456POPC   PO469192  34.102  21.932   5.438
 5456POPC   GL169193  33.900  21.680   5.802
 5456POPC   GL269194  34.030  21.329   5.867
 5456POPC   C1A69195  33.692  21.541   6.204
 5456POPC   D2A69196  33.807  21.326   6.590
 5456POPC   C3A69197  33.575  21.313   6.984
 5456POPC   C4A69198  33.771  21.456   7.395
 5456POPC   C1B69199  34.262  21.147   6.208
 5456POPC   C2B69200  34.185  21.012   6.638
 5456POPC   C3B69201  34.092  21.265   7.035
 5456POPC   C4B69202  34.185  21.173   7.477
 5457POPC   NC369203   3.272  17.680   5.647
 5457POPC   PO469204   3.894  17.444   5.432
 5457POPC   GL169205   3.704  17.447   5.853
 5457POPC   GL269206   3.714  17.822   5.899
 5457POPC   C1A69207   3.383  17.396   6.205
 5457POPC   D2A69208   3.264  17.608   6.590
 5457POPC   C3A69209   3.328  17.385   6.976
 5457POPC   C4A69210   3.725  17.400   7.246
 5457POPC   C1B69211   3.747  17.733   6.334
 5457POPC   C2B69212   3.693  17.796   6.775
 5457POPC   C3B69213   3.478  17.835   7.167
 5457POPC   C4B69214   3.591  17.751   7.587
 5458POPC   NC369215   9.495  36.327   5.365
 5458POPC   PO469216   9.609  35.645   5.348
 5458POPC   GL169217   9.709  35.884   5.784
 5458POPC   GL269218   9.654  36.289   5.849
 5458POPC   C1A69219   9.911  36.026   6.186
 5458POPC   D2A69220   9.763  36.259   6.542
 5458POPC   C3A69221   9.926  36.097   6.932
 5458POPC   C4A69222  10.189  35.878   7.238
 5458POPC   C1B69223   9.329  36.485   6.137
 5458POPC   C2B69224   9.272  36.556   6.599
 5458POPC   C3B69225   9.437  36.374   6.981
 5458POPC   C4B69226   9.743  36.418   7.275
 5459POPC   NC369227  35.081  39.584   5.411
 5459POPC   PO469228  35.561  39.117   5.397
 5459POPC   GL169229  35.451  39.233   5.792
 5459POPC   GL269230  35.123  39.226   5.777
 5459POPC   C1A69231  35.508  39.423   6.204
 5459POPC   D2A69232  35.689  39.508   6.597
 5459POPC   C3A69233  35.418  39.403   6.885
 5459POPC   C4A69234  35.379  39.307   7.284
 5459POPC   C1B69235  35.004  39.205   6.189
 5459POPC   C2B69236  35.118  39.094   6.603
 5459POPC   C3B69237  34.866  38.984   6.972
 5459POPC   C4B69238  34.862  39.120   7.413
 5460POPC   NC369239  44.997  10.207   5.495
 5460POPC   PO469240  44.473  10.713   5.436
 5460POPC   GL169241  44.717  10.694   5.788
 5460POPC   GL269242  44.619  10.350   5.826
 5460POPC   C1A69243  44.860  10.548   6.210
 5460POPC   D2A69244  44.813  10.283   6.581
 5460POPC   C3A69245  44.926  10.504   6.951
 5460POPC   C4A69246  44.795  10.447   7.363
 5460POPC   C1B69247  44.401  10.274   6.234
 5460POPC   C2B69248  44.300  10.146   6.662
 5460POPC   C3B69249  44.349  10.268   7.103
 5460POPC   C4B69250  44.370  10.188   7.548
 5461POPC   NC369251   4.657  14.461   5.380
 5461POPC   PO469252   4.044  14.118   5.407
 5461POPC   GL169253   4.300  14.276   5.732
 5461POPC   GL269254   4.580  14.067   5.750
 5461POPC   C1A69255   4.263  14.469   6.139
 5461POPC   D2A69256   4.293  14.284   6.529
 5461POPC   C3A69257   4.159  14.496   6.860
 5461POPC   C4A69258   4.314  14.552   7.255
 5461POPC   C1B69259   4.636  14.041   6.193
 5461POPC   C2B69260   4.552  13.864   6.611
 5461POPC   C3B69261   4.498  14.115   6.977
 5461POPC   C4B69262   4.630  14.144   7.378
 5462POPC   NC369263  34.484  27.258   5.119
 5462POPC   PO469264  34.690  26.672   5.458
 5462POPC   GL169265  34.783  26.809   5.867
 5462POPC   GL269266  35.000  26.511   5.938
 5462POPC   C1A69267  34.560  26.974   6.249
 5462POPC   D2A69268  34.604  26.864   6.678
 5462POPC   C3A69269  34.444  27.042   7.014
 5462POPC   C4A69270  34.726  27.202   7.320
 5462POPC   C1B69271  34.902  26.593   6.370
 5462POPC   C2B69272  34.934  26.468   6.806
 5462POPC   C3B69273  34.850  26.752   7.142
 5462POPC   C4B69274  34.457  26.777   7.463
 5463POPC   NC369275  27.598  24.008   5.379
 5463POPC   PO469276  27.750  23.403   5.427
 5463POPC   GL169277  27.562  23.705   5.826
 5463POPC   GL269278  27.233  23.909   5.904
 5463POPC   C1A69279  27.582  23.921   6.303
 5463POPC   D2A69280  27.739  23.788   6.738
 5463POPC   C3A69281  27.775  23.924   7.192
 5463POPC   C4A69282  27.783  23.730   7.631
 5463POPC   C1B69283  27.236  23.550   6.205
 5463POPC   C2B69284  27.383  23.448   6.632
 5463POPC   C3B69285  27.343  23.596   7.074
 5463POPC   C4B69286  27.411  23.372   7.480
 5464POPC   NC369287  35.333  41.909   5.100
 5464POPC   PO469288  35.241  42.464   5.445
 5464POPC   GL169289  35.436  42.283   5.826
 5464POPC   GL269290  35.739  42.443   5.772
 5464POPC   C1A69291  35.369  42.214   6.286
 5464POPC   D2A69292  35.326  42.045   6.717
 5464POPC   C3A69293  35.158  42.303   7.069
 5464POPC   C4A69294  35.234  42.323   7.514
 5464POPC   C1B69295  35.770  42.569   6.204
 5464POPC   C2B69296  35.812  42.353   6.605
 5464POPC   C3B69297  35.659  42.385   7.024
 5464POPC   C4B69298  35.610  42.637   7.382
 5465POPC   NC369299   3.111  21.493   5.516
 5465POPC   PO469300   3.750  21.443   5.417
 5465POPC   GL169301   3.534  21.309   5.785
 5465POPC   GL269302   3.496  21.641   5.836
 5465POPC   C1A69303   3.280  21.388   6.192
 5465POPC   D2A69304   3.443  21.640   6.553
 5465POPC   C3A69305   3.485  21.498   6.982
 5465POPC   C4A69306   3.204  21.322   7.299
 5465POPC   C1B69307   3.789  21.503   6.195
 5465POPC   C2B69308   3.979  21.611   6.600
 5465POPC   C3B69309   3.901  21.809   7.011
 5465POPC   C4B69310   3.820  21.704   7.461
 5466POPC   NC369311  44.345   2.638   5.494
 5466POPC   PO469312  43.718   2.802   5.268
 5466POPC   GL169313  43.920   2.873   5.689
 5466POPC   GL269314  43.994   2.543   5.850
 5466POPC   C1A69315  43.865   2.922   6.163
 5466POPC   D2A69316  43.953   2.669   6.552
 5466POPC   C3A69317  43.896   2.770   6.989
 5466POPC   C4A69318  43.836   2.477   7.322
 5466POPC   C1B69319  44.316   2.678   6.172
 5466POPC   C2B69320  44.401   2.410   6.497
 5466POPC   C3B69321  44.228   2.360   6.901
 5466POPC   C4B69322  44.349   2.571   7.264
 5467POPC   NC369323  33.564  43.747   5.221
 5467POPC   PO469324  33.968  44.199   5.555
 5467POPC   GL169325  33.595  44.073   5.756
 5467POPC   GL269326  33.626  43.729   5.774
 5467POPC   C1A69327  33.495  44.182   6.206
 5467POPC   D2A69328  33.835  44.292   6.526
 5467POPC   C3A69329  33.765  44.114   6.920
 5467POPC   C4A69330  33.390  43.931   7.019
 5467POPC   C1B69331  33.913  43.898   6.128
 5467POPC   C2B69332  33.934  43.782   6.533
 5467POPC   C3B69333  33.949  43.625   6.930
 5467POPC   C4B69334  33.816  43.813   7.353
 5468POPC   NC369335  38.812  30.246   5.378
 5468POPC   PO469336  38.267  29.791   5.357
 5468POPC   GL169337  38.289  29.988   5.745
 5468POPC   GL269338  38.629  29.958   5.761
 5468POPC   C1A69339  38.228  30.166   6.155
 5468POPC   D2A69340  38.448  30.021   6.524
 5468POPC   C3A69341  38.232  29.971   6.919
 5468POPC   C4A69342  38.329  29.925   7.355
 5468POPC   C1B69343  38.845  29.793   6.122
 5468POPC   C2B69344  38.941  29.831   6.555
 5468POPC   C3B69345  38.762  29.918   6.959
 5468POPC   C4B69346  38.872  29.939   7.403
 5469POPC   NC369347   5.284  34.165   5.323
 5469POPC   PO469348   4.971  34.765   5.536
 5469POPC   GL169349   5.303  34.519   5.718
 5469POPC   GL269350   5.105  34.240   5.809
 5469POPC   C1A69351   5.430  34.424   6.147
 5469POPC   D2A69352   5.177  34.441   6.520
 5469POPC   C3A69353   5.434  34.422   6.869
 5469POPC   C4A69354   5.472  34.695   7.202
 5469POPC   C1B69355   4.865  34.137   6.194
 5469POPC   C2B69356   4.706  34.253   6.612
 5469POPC   C3B69357   4.904  34.423   6.989
 5469POPC   C4B69358   5.199  34.264   7.296
 5470POPC   NC369359  13.015  25.731   5.556
 5470POPC   PO469360  12.607  26.210   5.359
 5470POPC   GL169361  12.703  26.052   5.786
 5470POPC   GL269362  12.619  25.683   5.880
 5470POPC   C1A69363  12.777  26.167   6.219
 5470POPC   D2A69364  12.981  26.092   6.626
 5470POPC   C3A69365  12.755  25.894   6.980
 5470POPC   C4A69366  12.518  25.683   7.329
 5470POPC   C1B69367  12.931  25.681   6.216
 5470POPC   C2B69368  12.963  25.562   6.636
 5470POPC   C3B69369  13.226  25.691   6.938
 5470POPC   C4B69370  13.096  25.703   7.308
 5471POPC   NC369371  19.210  36.937   5.334
 5471POPC   PO469372  18.592  36.715   5.516
 5471POPC   GL169373  18.951  36.882   5.767
 5471POPC   GL269374  19.337  36.774   5.805
 5471POPC   C1A69375  18.951  37.191   6.084
 5471POPC   D2A69376  19.155  37.230   6.486
 5471POPC   C3A69377  18.896  37.053   6.821
 5471POPC   C4A69378  18.937  37.093   7.268
 5471POPC   C1B69379  19.191  36.753   6.230
 5471POPC   C2B69380  19.109  36.595   6.650
 5471POPC   C3B69381  19.125  36.659   7.107
 5471POPC   C4B69382  19.331  36.464   7.467
 5472POPC   NC369383  31.776  26.447   5.479
 5472POPC   PO469384  31.810  25.785   5.453
 5472POPC   GL169385  31.567  25.885   5.869
 5472POPC   GL269386  31.609  26.268   5.930
 5472POPC   C1A69387  31.294  26.040   6.251
 5472POPC   D2A69388  31.319  26.303   6.637
 5472POPC   C3A69389  31.138  26.130   7.034
 5472POPC   C4A69390  31.195  25.853   7.382
 5472POPC   C1B69391  31.780  26.158   6.348
 5472POPC   C2B69392  31.824  25.963   6.746
 5472POPC   C3B69393  31.650  25.935   7.156
 5472POPC   C4B69394  31.680  25.842   7.619
 5473POPC   NC369395  24.491  34.334   5.462
 5473POPC   PO469396  24.115  33.824   5.233
 5473POPC   GL169397  24.140  33.774   5.725
 5473POPC   GL269398  24.299  34.000   5.969
 5473POPC   C1A69399  24.019  33.615   6.168
 5473POPC   D2A69400  24.145  33.456   6.598
 5473POPC   C3A69401  24.310  33.697   6.981
 5473POPC   C4A69402  24.236  33.955   7.364
 5473POPC   C1B69403  24.495  34.212   6.343
 5473POPC   C2B69404  24.473  34.216   6.795
 5473POPC   C3B69405  24.716  34.026   7.143
 5473POPC   C4B69406  24.688  34.066   7.592
 5474POPC   NC369407  42.420  27.789   5.496
 5474POPC   PO469408  42.544  27.173   5.471
 5474POPC   GL169409  42.662  27.406   5.865
 5474POPC   GL269410  42.458  27.714   6.006
 5474POPC   C1A69411  42.766  27.429   6.311
 5474POPC   D2A69412  42.695  27.685   6.696
 5474POPC   C3A69413  42.357  27.532   7.000
 5474POPC   C4A69414  42.075  27.286   7.305
 5474POPC   C1B69415  42.092  27.689   6.303
 5474POPC   C2B69416  41.824  27.848   6.637
 5474POPC   C3B69417  42.083  27.999   6.956
 5474POPC   C4B69418  42.532  28.008   7.102
 5475POPC   NC369419   7.773   9.059   5.620
 5475POPC   PO469420   7.402   9.061   5.116
 5475POPC   GL169421   7.267   8.927   5.609
 5475POPC   GL269422   6.978   9.119   5.780
 5475POPC   C1A69423   7.228   8.854   6.125
 5475POPC   D2A69424   7.244   8.746   6.611
 5475POPC   C3A69425   7.607   8.886   6.823
 5475POPC   C4A69426   7.687   8.854   7.250
 5475POPC   C1B69427   7.105   9.377   6.151
 5475POPC   C2B69428   7.279   9.343   6.606
 5475POPC   C3B69429   7.270   9.256   7.060
 5475POPC   C4B69430   7.004   9.413   7.401
 5476POPC   NC369431  15.243  14.894   5.483
 5476POPC   PO469432  14.785  15.414   5.543
 5476POPC   GL169433  14.990  15.248   5.875
 5476POPC   GL269434  15.280  15.373   5.860
 5476POPC   C1A69435  15.086  15.180   6.315
 5476POPC   D2A69436  14.953  15.208   6.729
 5476POPC   C3A69437  15.214  15.201   7.068
 5476POPC   C4A69438  15.451  14.861   7.215
 5476POPC   C1B69439  15.486  15.492   6.238
 5476POPC   C2B69440  15.370  15.508   6.638
 5476POPC   C3B69441  15.501  15.621   7.000
 5476POPC   C4B69442  15.441  15.516   7.423
 5477POPC   NC369443  20.419   7.199   5.434
 5477POPC   PO469444  20.939   7.544   5.321
 5477POPC   GL169445  20.716   7.526   5.702
 5477POPC   GL269446  20.837   7.221   5.790
 5477POPC   C1A69447  20.431   7.359   6.077
 5477POPC   D2A69448  20.611   7.162   6.456
 5477POPC   C3A69449  20.508   7.299   6.877
 5477POPC   C4A69450  20.621   7.355   7.314
 5477POPC   C1B69451  20.915   7.475   6.170
 5477POPC   C2B69452  21.037   7.410   6.599
 5477POPC   C3B69453  20.997   7.483   7.000
 5477POPC   C4B69454  21.108   7.404   7.396
 5478POPC   NC369455  41.300  11.581   5.392
 5478POPC   PO469456  41.879  11.258   5.652
 5478POPC   GL169457  41.574  11.472   5.879
 5478POPC   GL269458  41.350  11.211   5.845
 5478POPC   C1A69459  41.554  11.390   6.339
 5478POPC   D2A69460  41.923  11.425   6.628
 5478POPC   C3A69461  41.782  11.572   7.034
 5478POPC   C4A69462  41.305  11.603   7.055
 5478POPC   C1B69463  41.290  10.900   6.182
 5478POPC   C2B69464  41.434  10.860   6.596
 5478POPC   C3B69465  41.548  11.153   6.885
 5478POPC   C4B69466  41.505  11.215   7.317
 5479POPC   NC369467  14.275  40.956   5.287
 5479POPC   PO469468  14.285  40.297   5.224
 5479POPC   GL169469  14.401  40.595   5.625
 5479POPC   GL269470  14.174  40.894   5.758
 5479POPC   C1A69471  14.561  40.730   6.055
 5479POPC   D2A69472  14.503  40.844   6.484
 5479POPC   C3A69473  14.606  40.571   6.836
 5479POPC   C4A69474  14.718  40.708   7.245
 5479POPC   C1B69475  14.072  40.933   6.195
 5479POPC   C2B69476  14.057  41.047   6.646
 5479POPC   C3B69477  14.359  41.015   6.976
 5479POPC   C4B69478  14.346  40.995   7.432
 5480POPC   NC369479  12.669  36.005   5.462
 5480POPC   PO469480  13.262  36.134   5.526
 5480POPC   GL169481  13.037  35.924   5.866
 5480POPC   GL269482  12.858  36.235   5.901
 5480POPC   C1A69483  12.743  35.882   6.245
 5480POPC   D2A69484  12.654  36.080   6.645
 5480POPC   C3A69485  12.647  35.839   7.033
 5480POPC   C4A69486  12.990  35.844   7.341
 5480POPC   C1B69487  12.740  36.454   6.274
 5480POPC   C2B69488  12.773  36.578   6.704
 5480POPC   C3B69489  12.629  36.381   7.066
 5480POPC   C4B69490  12.505  36.513   7.468
 5481POPC   NC369491   5.342  31.642   5.503
 5481POPC   PO469492   4.919  31.118   5.390
 5481POPC   GL169493   5.158  31.178   5.760
 5481POPC   GL269494   4.981  31.465   5.822
 5481POPC   C1A69495   5.241  31.282   6.209
 5481POPC   D2A69496   5.048  31.421   6.589
 5481POPC   C3A69497   5.246  31.298   6.965
 5481POPC   C4A69498   5.096  31.154   7.350
 5481POPC   C1B69499   5.137  31.789   6.132
 5481POPC   C2B69500   5.131  31.932   6.538
 5481POPC   C3B69501   5.357  31.815   6.883
 5481POPC   C4B69502   5.217  31.690   7.297
 5482POPC   NC369503  10.922   6.521   5.427
 5482POPC   PO469504  10.501   6.989   5.521
 5482POPC   GL169505  10.407   6.689   5.816
 5482POPC   GL269506  10.459   7.003   6.018
 5482POPC   C1A69507  10.524   6.509   6.215
 5482POPC   D2A69508  10.349   6.519   6.621
 5482POPC   C3A69509  10.648   6.483   6.919
 5482POPC   C4A69510  10.569   6.310   7.288
 5482POPC   C1B69511  10.176   7.212   6.259
 5482POPC   C2B69512  10.470   7.026   6.542
 5482POPC   C3B69513  10.462   6.953   6.937
 5482POPC   C4B69514  10.489   6.800   7.332
 5483POPC   NC369515   1.381  34.840   5.362
 5483POPC   PO469516   2.018  34.637   5.567
 5483POPC   GL169517   1.894  34.601   5.976
 5483POPC   GL269518   2.230  34.677   6.045
 5483POPC   C1A69519   1.921  34.649   6.443
 5483POPC   D2A69520   2.026  34.369   6.742
 5483POPC   C3A69521   2.138  34.516   7.101
 5483POPC   C4A69522   1.782  34.426   7.337
 5483POPC   C1B69523   2.253  35.022   6.307
 5483POPC   C2B69524   2.185  34.998   6.718
 5483POPC   C3B69525   2.334  35.139   7.043
 5483POPC   C4B69526   2.548  34.846   7.139
 5484POPC   NC369527   2.392  10.011   5.384
 5484POPC   PO469528   1.727   9.775   5.307
 5484POPC   GL169529   1.986   9.834   5.685
 5484POPC   GL269530   2.245   9.558   5.728
 5484POPC   C1A69531   2.010  10.030   6.106
 5484POPC   D2A69532   2.200   9.947   6.519
 5484POPC   C3A69533   1.968   9.961   6.899
 5484POPC   C4A69534   2.096  10.135   7.299
 5484POPC   C1B69535   2.210   9.546   6.187
 5484POPC   C2B69536   1.862   9.489   6.515
 5484POPC   C3B69537   1.677   9.457   6.935
 5484POPC   C4B69538   1.958   9.591   7.264
 5485POPC   NC369539  39.978  18.079   5.469
 5485POPC   PO469540  39.923  18.713   5.377
 5485POPC   GL169541  40.014  18.523   5.825
 5485POPC   GL269542  40.127  18.181   5.952
 5485POPC   C1A69543  39.828  18.451   6.270
 5485POPC   D2A69544  39.760  18.230   6.688
 5485POPC   C3A69545  39.806  18.519   7.063
 5485POPC   C4A69546  39.682  18.568   7.522
 5485POPC   C1B69547  40.107  17.964   6.371
 5485POPC   C2B69548  40.344  17.968   6.781
 5485POPC   C3B69549  40.376  18.144   7.210
 5485POPC   C4B69550  40.388  18.159   7.706
 5486POPC   NC369551   4.440  24.213   5.500
 5486POPC   PO469552   4.156  24.792   5.386
 5486POPC   GL169553   4.201  24.642   5.798
 5486POPC   GL269554   3.994  24.388   5.871
 5486POPC   C1A69555   4.426  24.410   6.147
 5486POPC   D2A69556   4.360  24.282   6.575
 5486POPC   C3A69557   4.364  24.632   6.905
 5486POPC   C4A69558   4.435  24.786   7.353
 5486POPC   C1B69559   3.967  24.098   6.191
 5486POPC   C2B69560   3.956  23.957   6.609
 5486POPC   C3B69561   3.961  24.254   6.927
 5486POPC   C4B69562   4.034  24.498   7.288
 5487POPC   NC369563  20.764  40.549   5.528
 5487POPC   PO469564  20.061  40.512   5.287
 5487POPC   GL169565  20.331  40.826   5.648
 5487POPC   GL269566  20.692  40.921   5.858
 5487POPC   C1A69567  20.308  40.848   6.148
 5487POPC   D2A69568  20.575  40.912   6.516
 5487POPC   C3A69569  20.369  40.931   6.895
 5487POPC   C4A69570  20.293  40.768   7.278
 5487POPC   C1B69571  20.928  40.681   6.200
 5487POPC   C2B69572  21.044  40.499   6.618
 5487POPC   C3B69573  20.821  40.571   7.025
 5487POPC   C4B69574  20.767  40.919   7.253
 5488POPC   NC369575   2.352  31.051   5.419
 5488POPC   PO469576   2.730  30.522   5.453
 5488POPC   GL169577   2.633  30.535   5.891
 5488POPC   GL269578   2.938  30.383   5.946
 5488POPC   C1A69579   2.748  30.705   6.325
 5488POPC   D2A69580   3.033  30.945   6.612
 5488POPC   C3A69581   3.076  30.961   7.070
 5488POPC   C4A69582   2.835  30.852   7.416
 5488POPC   C1B69583   2.786  30.217   6.345
 5488POPC   C2B69584   2.764  30.338   6.751
 5488POPC   C3B69585   3.040  30.472   7.070
 5488POPC   C4B69586   3.122  30.431   7.529
 5489POPC   NC369587  31.523   5.950   5.430
 5489POPC   PO469588  30.927   5.678   5.475
 5489POPC   GL169589  31.238   5.772   5.824
 5489POPC   GL269590  31.615   5.640   5.840
 5489POPC   C1A69591  31.402   6.027   6.170
 5489POPC   D2A69592  31.568   5.878   6.584
 5489POPC   C3A69593  31.305   5.902   6.954
 5489POPC   C4A69594  31.449   6.197   7.286
 5489POPC   C1B69595  31.910   5.920   6.102
 5489POPC   C2B69596  32.024   6.111   6.505
 5489POPC   C3B69597  31.887   6.131   6.942
 5489POPC   C4B69598  31.723   5.775   7.188
 5490POPC   NC369599  33.137  15.855   5.608
 5490POPC   PO469600  32.711  16.391   5.352
 5490POPC   GL169601  32.717  16.099   5.748
 5490POPC   GL269602  32.991  16.222   5.954
 5490POPC   C1A69603  32.804  15.778   6.169
 5490POPC   D2A69604  33.085  15.592   6.510
 5490POPC   C3A69605  33.201  15.760   6.933
 5490POPC   C4A69606  33.012  15.754   7.359
 5490POPC   C1B69607  33.091  16.139   6.384
 5490POPC   C2B69608  32.812  16.025   6.719
 5490POPC   C3B69609  32.792  16.173   7.136
 5490POPC   C4B69610  32.768  16.206   7.588
 5491POPC   NC369611  25.130   3.855   5.482
 5491POPC   PO469612  25.765   3.664   5.514
 5491POPC   GL169613  25.391   3.542   5.816
 5491POPC   GL269614  25.155   3.244   5.822
 5491POPC   C1A69615  25.103   3.638   6.179
 5491POPC   D2A69616  25.310   3.710   6.578
 5491POPC   C3A69617  25.392   3.609   7.016
 5491POPC   C4A69618  25.725   3.775   7.266
 5491POPC   C1B69619  25.001   3.129   6.268
 5491POPC   C2B69620  25.182   3.217   6.686
 5491POPC   C3B69621  25.109   3.203   7.141
 5491POPC   C4B69622  25.126   3.373   7.535
 5492POPC   NC369623  34.192  24.498   5.455
 5492POPC   PO469624  34.541  24.016   5.600
 5492POPC   GL169625  34.602  24.384   5.879
 5492POPC   GL269626  34.713  24.720   5.768
 5492POPC   C1A69627  34.500  24.425   6.322
 5492POPC   D2A69628  34.466  24.168   6.692
 5492POPC   C3A69629  34.354  24.476   6.974
 5492POPC   C4A69630  34.538  24.607   7.327
 5492POPC   C1B69631  34.895  24.712   6.187
 5492POPC   C2B69632  34.737  24.869   6.610
 5492POPC   C3B69633  34.919  24.835   7.015
 5492POPC   C4B69634  34.883  24.942   7.437
 5493POPC   NC369635  16.999   2.634   5.562
 5493POPC   PO469636  17.531   2.921   5.274
 5493POPC   GL169637  17.466   3.092   5.725
 5493POPC   GL269638  17.143   3.048   5.865
 5493POPC   C1A69639  17.555   2.905   6.175
 5493POPC   D2A69640  17.575   2.633   6.569
 5493POPC   C3A69641  17.681   2.749   7.012
 5493POPC   C4A69642  17.713   2.496   7.401
 5493POPC   C1B69643  17.102   3.096   6.304
 5493POPC   C2B69644  17.336   3.148   6.674
 5493POPC   C3B69645  17.261   3.023   7.101
 5493POPC   C4B69646  17.226   2.646   7.388
 5494POPC   NC369647  42.562   5.852   5.459
 5494POPC   PO469648  41.844   5.725   5.473
 5494POPC   GL169649  42.121   5.840   5.836
 5494POPC   GL269650  42.421   5.663   5.901
 5494POPC   C1A69651  42.290   5.971   6.278
 5494POPC   D2A69652  42.363   6.162   6.709
 5494POPC   C3A69653  42.185   5.973   7.075
 5494POPC   C4A69654  42.088   5.941   7.514
 5494POPC   C1B69655  42.513   5.493   6.309
 5494POPC   C2B69656  42.467   5.646   6.755
 5494POPC   C3B69657  42.496   5.591   7.230
 5494POPC   C4B69658  42.580   5.386   7.638
 5495POPC   NC369659   1.790  24.813   5.472
 5495POPC   PO469660   1.774  24.167   5.489
 5495POPC   GL169661   1.879  24.442   5.849
 5495POPC   GL269662   2.167  24.695   5.807
 5495POPC   C1A69663   1.836  24.592   6.288
 5495POPC   D2A69664   1.794  24.817   6.684
 5495POPC   C3A69665   1.922  24.556   7.026
 5495POPC   C4A69666   1.702  24.490   7.433
 5495POPC   C1B69667   2.296  24.888   6.213
 5495POPC   C2B69668   2.312  24.765   6.638
 5495POPC   C3B69669   2.292  24.921   7.060
 5495POPC   C4B69670   2.275  24.679   7.432
 5496POPC   NC369671   9.154  23.070   5.428
 5496POPC   PO469672   8.521  22.711   5.406
 5496POPC   GL169673   8.783  22.894   5.730
 5496POPC   GL269674   9.016  22.638   5.670
 5496POPC   C1A69675   9.106  22.991   6.079
 5496POPC   D2A69676   9.252  22.907   6.503
 5496POPC   C3A69677   9.112  23.141   6.871
 5496POPC   C4A69678   9.051  23.039   7.276
 5496POPC   C1B69679   8.794  22.470   6.020
 5496POPC   C2B69680   8.830  22.459   6.451
 5496POPC   C3B69681   8.657  22.335   6.832
 5496POPC   C4B69682   8.685  22.605   7.176
 5497POPC   NC369683  15.442  27.011   5.291
 5497POPC   PO469684  15.067  26.480   5.304
 5497POPC   GL169685  15.064  26.762   5.670
 5497POPC   GL269686  15.437  26.818   5.776
 5497POPC   C1A69687  14.851  26.733   6.099
 5497POPC   D2A69688  14.787  26.833   6.551
 5497POPC   C3A69689  15.054  26.709   6.886
 5497POPC   C4A69690  15.046  26.481   7.273
 5497POPC   C1B69691  15.331  26.836   6.219
 5497POPC   C2B69692  15.233  27.118   6.583
 5497POPC   C3B69693  15.362  27.077   7.000
 5497POPC   C4B69694  15.503  26.737   7.271
 5498POPC   NC369695   2.327  12.590   5.419
 5498POPC   PO469696   1.748  12.195   5.431
 5498POPC   GL169697   2.140  12.116   5.732
 5498POPC   GL269698   2.352  12.366   5.878
 5498POPC   C1A69699   2.144  11.916   6.163
 5498POPC   D2A69700   1.777  11.730   6.427
 5498POPC   C3A69701   1.739  11.791   6.872
 5498POPC   C4A69702   2.021  11.969   7.175
 5498POPC   C1B69703   2.019  12.439   6.159
 5498POPC   C2B69704   1.909  12.255   6.553
 5498POPC   C3B69705   1.889  12.419   6.952
 5498POPC   C4B69706   2.262  12.464   7.158
 5499POPC   NC369707  32.465   5.402   5.409
 5499POPC   PO469708  32.016   4.903   5.466
 5499POPC   GL169709  32.193   4.844   5.836
 5499POPC   GL269710  32.311   5.172   5.843
 5499POPC   C1A69711  32.077   4.848   6.267
 5499POPC   D2A69712  32.314   4.893   6.654
 5499POPC   C3A69713  32.084   4.854   7.013
 5499POPC   C4A69714  31.797   4.871   7.365
 5499POPC   C1B69715  32.442   5.199   6.257
 5499POPC   C2B69716  32.564   5.362   6.631
 5499POPC   C3B69717  32.413   5.268   7.048
 5499POPC   C4B69718  32.543   5.350   7.459
 5500POPC   NC369719  33.218  39.382   5.442
 5500POPC   PO469720  32.846  38.953   5.165
 5500POPC   GL169721  32.913  39.019   5.667
 5500POPC   GL269722  32.937  39.379   5.882
 5500POPC   C1A69723  33.058  38.950   6.099
 5500POPC   D2A69724  32.995  39.242   6.436
 5500POPC   C3A69725  33.017  39.190   6.877
 5500POPC   C4A69726  32.870  39.460   7.228
 5500POPC   C1B69727  33.357  39.397   6.126
 5500POPC   C2B69728  33.484  39.377   6.549
 5500POPC   C3B69729  33.379  39.585   6.925
 5500POPC   C4B69730  33.402  39.385   7.309
 5501POPC   NC369731  40.324  27.659   5.079
 5501POPC   PO469732  40.830  27.423   5.495
 5501POPC   GL169733  40.694  27.716   5.839
 5501POPC   GL269734  40.620  27.480   6.064
 5501POPC   C1A69735  40.451  27.937   6.185
 5501POPC   D2A69736  40.457  27.970   6.623
 5501POPC   C3A69737  40.884  27.922   6.807
 5501POPC   C4A69738  40.920  28.002   7.237
 5501POPC   C1B69739  40.975  27.267   6.219
 5501POPC   C2B69740  41.094  27.146   6.631
 5501POPC   C3B69741  40.978  27.159   7.054
 5501POPC   C4B69742  40.908  27.504   7.335
 5502POPC   NC369743   9.274  15.580   5.457
 5502POPC   PO469744   8.779  15.031   5.519
 5502POPC   GL169745   8.858  15.294   5.889
 5502POPC   GL269746   9.211  15.368   5.918
 5502POPC   C1A69747   8.645  15.234   6.270
 5502POPC   D2A69748   8.752  15.133   6.675
 5502POPC   C3A69749   8.809  15.386   7.007
 5502POPC   C4A69750   8.884  15.015   7.209
 5502POPC   C1B69751   9.134  15.299   6.357
 5502POPC   C2B69752   9.270  15.040   6.702
 5502POPC   C3B69753   9.383  15.131   7.107
 5502POPC   C4B69754   9.247  15.521   7.265
 5503POPC   NC369755  36.636  21.656   5.517
 5503POPC   PO469756  36.009  21.501   5.345
 5503POPC   GL169757  36.117  21.375   5.731
 5503POPC   GL269758  36.354  21.112   5.681
 5503POPC   C1A69759  35.989  21.552   6.108
 5503POPC   D2A69760  36.184  21.454   6.484
 5503POPC   C3A69761  35.976  21.386   6.865
 5503POPC   C4A69762  36.102  21.705   7.138
 5503POPC   C1B69763  36.330  21.072   6.150
 5503POPC   C2B69764  36.245  20.942   6.590
 5503POPC   C3B69765  36.307  20.993   7.054
 5503POPC   C4B69766  36.168  21.247   7.416
 5504POPC   NC369767  13.436  31.309   5.354
 5504POPC   PO469768  13.927  31.846   5.372
 5504POPC   GL169769  13.651  31.611   5.711
 5504POPC   GL269770  13.586  31.257   5.821
 5504POPC   C1A69771  13.453  31.665   6.126
 5504POPC   D2A69772  13.496  31.932   6.508
 5504POPC   C3A69773  13.595  31.688   6.876
 5504POPC   C4A69774  13.427  31.592   7.248
 5504POPC   C1B69775  13.726  31.233   6.224
 5504POPC   C2B69776  13.482  31.296   6.574
 5504POPC   C3B69777  13.482  31.151   6.999
 5504POPC   C4B69778  13.531  31.140   7.480
 5505POPC   NC369779  13.378  15.442   5.580
 5505POPC   PO469780  13.902  14.996   5.332
 5505POPC   GL169781  13.662  15.038   5.778
 5505POPC   GL269782  13.670  15.347   5.994
 5505POPC   C1A69783  13.470  14.942   6.227
 5505POPC   D2A69784  13.650  14.948   6.660
 5505POPC   C3A69785  13.501  15.107   7.091
 5505POPC   C4A69786  13.753  15.228   7.475
 5505POPC   C1B69787  13.403  15.545   6.250
 5505POPC   C2B69788  13.324  15.349   6.604
 5505POPC   C3B69789  13.188  15.503   6.955
 5505POPC   C4B69790  13.360  15.589   7.320
 5506POPC   NC369791  29.346   2.340   5.450
 5506POPC   PO469792  29.270   1.651   5.634
 5506POPC   GL169793  29.159   2.039   5.856
 5506POPC   GL269794  28.826   2.129   5.710
 5506POPC   C1A69795  29.138   2.006   6.305
 5506POPC   D2A69796  29.011   1.752   6.644
 5506POPC   C3A69797  29.105   2.079   6.908
 5506POPC   C4A69798  29.330   2.172   7.244
 5506POPC   C1B69799  28.637   2.036   6.113
 5506POPC   C2B69800  28.676   2.147   6.558
 5506POPC   C3B69801  28.617   1.943   6.968
 5506POPC   C4B69802  28.826   1.897   7.372
 5507POPC   NC369803  44.758   4.658   5.001
 5507POPC   PO469804  44.801   4.057   5.416
 5507POPC   GL169805  44.592   4.159   5.793
 5507POPC   GL269806  44.924   4.049   5.909
 5507POPC   C1A69807  44.585   4.362   6.200
 5507POPC   D2A69808  44.356   4.485   6.593
 5507POPC   C3A69809  44.509   4.386   7.027
 5507POPC   C4A69810  44.853   4.639   7.200
 5507POPC   C1B69811  44.811   3.893   6.287
 5507POPC   C2B69812  44.578   3.954   6.673
 5507POPC   C3B69813  44.708   3.898   7.103
 5507POPC   C4B69814  44.868   4.198   7.428
 5508POPC   NC369815  35.887   0.496   5.383
 5508POPC   PO469816  36.566   0.560   5.415
 5508POPC   GL169817  36.439   0.322   5.821
 5508POPC   GL269818  36.067   0.250   5.810
 5508POPC   C1A69819  36.302   0.241   6.281
 5508POPC   D2A69820  36.124   0.172   6.693
 5508POPC   C3A69821  36.223   0.358   7.080
 5508POPC   C4A69822  36.080   0.546   7.491
 5508POPC   C1B69823  36.067   0.656   6.062
 5508POPC   C2B69824  36.047   0.671   6.524
 5508POPC   C3B69825  35.839   0.637   6.923
 5508POPC   C4B69826  35.615   0.625   7.322
 5509POPC   NC369827  10.354  40.454   5.642
 5509POPC   PO469828  10.739  39.997   5.319
 5509POPC   GL169829  10.800  40.136   5.768
 5509POPC   GL269830  10.519  40.185   6.027
 5509POPC   C1A69831  10.939  40.017   6.223
 5509POPC   D2A69832  10.665  39.990   6.609
 5509POPC   C3A69833  10.739  40.172   7.018
 5509POPC   C4A69834  10.820  39.873   7.338
 5509POPC   C1B69835  10.303  39.857   6.260
 5509POPC   C2B69836  10.143  39.807   6.671
 5509POPC   C3B69837  10.349  39.792   7.078
 5509POPC   C4B69838  10.335  39.840   7.541
 5510POPC   NC369839  28.605  35.927   5.588
 5510POPC   PO469840  28.088  36.096   5.174
 5510POPC   GL169841  28.118  36.357   5.636
 5510POPC   GL269842  28.418  36.286   5.893
 5510POPC   C1A69843  27.971  36.423   6.111
 5510POPC   D2A69844  28.031  36.156   6.504
 5510POPC   C3A69845  28.089  36.303   6.959
 5510POPC   C4A69846  28.037  36.176   7.397
 5510POPC   C1B69847  28.487  35.961   6.260
 5510POPC   C2B69848  28.759  35.722   6.577
 5510POPC   C3B69849  28.710  35.700   7.028
 5510POPC   C4B69850  28.498  36.057   7.219
 5511POPC   NC369851  12.417  27.340   5.529
 5511POPC   PO469852  11.830  27.726   5.361
 5511POPC   GL169853  12.006  27.605   5.750
 5511POPC   GL269854  12.046  27.967   5.796
 5511POPC   C1A69855  12.071  27.495   6.193
 5511POPC   D2A69856  11.917  27.331   6.601
 5511POPC   C3A69857  12.199  27.367   6.935
 5511POPC   C4A69858  12.566  27.335   7.150
 5511POPC   C1B69859  11.789  27.918   6.142
 5511POPC   C2B69860  11.929  27.860   6.551
 5511POPC   C3B69861  12.055  27.862   6.970
 5511POPC   C4B69862  11.787  27.693   7.268
 5512POPC   NC369863   2.075  42.136   5.478
 5512POPC   PO469864   1.667  42.745   5.485
 5512POPC   GL169865   1.853  42.541   5.848
 5512POPC   GL269866   2.173  42.664   5.859
 5512POPC   C1A69867   2.008  42.365   6.266
 5512POPC   D2A69868   2.134  42.137   6.630
 5512POPC   C3A69869   2.123  42.300   7.031
 5512POPC   C4A69870   2.159  42.129   7.427
 5512POPC   C1B69871   2.075  42.864   6.251
 5512POPC   C2B69872   1.978  42.691   6.677
 5512POPC   C3B69873   2.069  42.805   7.100
 5512POPC   C4B69874   2.228  42.654   7.511
 5513POPC   NC369875   5.142  13.683   5.452
 5513POPC   PO469876   4.576  13.271   5.416
 5513POPC   GL169877   4.735  13.566   5.811
 5513POPC   GL269878   5.042  13.847   5.909
 5513POPC   C1A69879   4.858  13.578   6.277
 5513POPC   D2A69880   5.113  13.883   6.506
 5513POPC   C3A69881   4.976  13.899   6.933
 5513POPC   C4A69882   5.024  13.763   7.353
 5513POPC   C1B69883   5.343  13.529   6.146
 5513POPC   C2B69884   5.549  13.576   6.567
 5513POPC   C3B69885   5.437  13.629   7.005
 5513POPC   C4B69886   5.375  13.350   7.361
 5514POPC   NC369887  19.682  40.207   5.235
 5514POPC   PO469888  18.960  40.118   5.389
 5514POPC   GL169889  19.088  40.129   5.795
 5514POPC   GL269890  18.820  40.300   5.944
 5514POPC   C1A69891  19.256  40.174   6.204
 5514POPC   D2A69892  19.106  40.108   6.613
 5514POPC   C3A69893  19.446  40.100   6.876
 5514POPC   C4A69894  19.499  40.283   7.260
 5514POPC   C1B69895  18.840  39.868   6.205
 5514POPC   C2B69896  18.969  39.604   6.595
 5514POPC   C3B69897  19.012  39.751   7.032
 5514POPC   C4B69898  19.002  40.214   7.116
 5515POPC   NC369899   8.344   4.206   5.618
 5515POPC   PO469900   7.642   4.182   5.561
 5515POPC   GL169901   7.916   4.376   5.834
 5515POPC   GL269902   7.995   3.980   5.886
 5515POPC   C1A69903   8.183   4.483   6.209
 5515POPC   D2A69904   8.324   4.203   6.534
 5515POPC   C3A69905   8.349   4.391   6.922
 5515POPC   C4A69906   8.001   4.571   7.131
 5515POPC   C1B69907   7.855   4.112   6.265
 5515POPC   C2B69908   7.868   4.018   6.667
 5515POPC   C3B69909   7.957   4.072   7.094
 5515POPC   C4B69910   7.885   3.998   7.498
 5516POPC   NC369911  35.307  35.579   4.961
 5516POPC   PO469912  35.212  35.734   5.623
 5516POPC   GL169913  35.402  35.341   5.884
 5516POPC   GL269914  35.203  34.984   6.000
 5516POPC   C1A69915  35.496  35.265   6.330
 5516POPC   D2A69916  35.547  34.947   6.636
 5516POPC   C3A69917  35.602  35.109   7.054
 5516POPC   C4A69918  35.654  35.537   7.226
 5516POPC   C1B69919  35.062  35.049   6.475
 5516POPC   C2B69920  35.228  35.349   6.781
 5516POPC   C3B69921  35.187  35.369   7.224
 5516POPC   C4B69922  35.155  35.073   7.575
 5517POPC   NC369923  14.747  40.211   5.426
 5517POPC   PO469924  14.149  40.157   5.720
 5517POPC   GL169925  14.403  40.001   5.976
 5517POPC   GL269926  14.608  40.246   5.947
 5517POPC   C1A69927  14.302  39.732   6.310
 5517POPC   D2A69928  14.114  39.623   6.679
 5517POPC   C3A69929  14.253  39.725   7.073
 5517POPC   C4A69930  13.990  39.814   7.395
 5517POPC   C1B69931  14.609  40.311   6.376
 5517POPC   C2B69932  14.396  40.102   6.707
 5517POPC   C3B69933  14.337  40.236   7.146
 5517POPC   C4B69934  14.722  40.233   7.397
 5518POPC   NC369935  19.476  26.893   5.453
 5518POPC   PO469936  19.991  26.530   5.204
 5518POPC   GL169937  19.941  26.697   5.648
 5518POPC   GL269938  19.871  27.080   5.735
 5518POPC   C1A69939  19.963  26.735   6.120
 5518POPC   D2A69940  19.966  27.010   6.495
 5518POPC   C3A69941  19.821  26.744   6.838
 5518POPC   C4A69942  19.989  26.823   7.219
 5518POPC   C1B69943  19.603  27.129   6.131
 5518POPC   C2B69944  19.463  27.070   6.581
 5518POPC   C3B69945  19.705  27.209   6.992
 5518POPC   C4B69946  19.728  27.190   7.451
 5519POPC   NC369947  29.461   9.322   5.531
 5519POPC   PO469948  30.073   8.968   5.589
 5519POPC   GL169949  29.930   8.939   5.975
 5519POPC   GL269950  29.689   9.193   5.953
 5519POPC   C1A69951  29.979   9.166   6.363
 5519POPC   D2A69952  30.159   9.121   6.755
 5519POPC   C3A69953  30.026   9.164   7.171
 5519POPC   C4A69954  30.085   8.863   7.487
 5519POPC   C1B69955  29.501   8.954   6.261
 5519POPC   C2B69956  29.524   9.104   6.646
 5519POPC   C3B69957  29.506   8.936   7.013
 5519POPC   C4B69958  29.581   9.086   7.392
 5520POPC   NC369959  19.616   7.788   5.519
 5520POPC   PO469960  19.958   8.409   5.449
 5520POPC   GL169961  19.796   8.214   5.788
 5520POPC   GL269962  20.124   8.087   5.916
 5520POPC   C1A69963  19.701   8.106   6.210
 5520POPC   D2A69964  19.950   8.051   6.588
 5520POPC   C3A69965  19.668   7.917   6.910
 5520POPC   C4A69966  19.620   8.090   7.314
 5520POPC   C1B69967  20.118   8.440   6.222
 5520POPC   C2B69968  20.107   8.586   6.664
 5520POPC   C3B69969  19.913   8.392   6.992
 5520POPC   C4B69970  20.105   7.995   7.177
 5521POPC   NC369971  27.613  41.478   5.410
 5521POPC   PO469972  27.899  42.017   5.532
 5521POPC   GL169973  27.578  41.991   5.864
 5521POPC   GL269974  27.484  41.632   5.908
 5521POPC   C1A69975  27.469  41.963   6.308
 5521POPC   D2A69976  27.411  41.799   6.770
 5521POPC   C3A69977  27.789  41.713   7.061
 5521POPC   C4A69978  27.865  41.922   7.465
 5521POPC   C1B69979  27.498  41.456   6.361
 5521POPC   C2B69980  27.642  41.319   6.779
 5521POPC   C3B69981  27.565  41.112   7.174
 5521POPC   C4B69982  27.863  40.987   7.535
 5522POPC   NC369983  23.164  32.512   5.542
 5522POPC   PO469984  22.970  31.822   5.398
 5522POPC   GL169985  22.810  32.091   5.769
 5522POPC   GL269986  23.146  32.088   5.885
 5522POPC   C1A69987  22.727  32.400   6.167
 5522POPC   D2A69988  22.537  32.416   6.632
 5522POPC   C3A69989  22.762  32.473   7.064
 5522POPC   C4A69990  23.176  32.470   7.351
 5522POPC   C1B69991  22.964  31.974   6.296
 5522POPC   C2B69992  23.013  32.126   6.716
 5522POPC   C3B69993  23.013  32.033   7.136
 5522POPC   C4B69994  22.841  31.751   7.298
 5523POPC   NC369995  26.386   0.168   5.606
 5523POPC   PO469996  26.908   0.531   5.333
 5523POPC   GL169997  26.953   0.742   5.741
 5523POPC   GL269998  26.657   0.826   5.866
 5523POPC   C1A69999  27.081   0.801   6.184
 5523POPC   D2A70000  26.991   0.527   6.534
 5523POPC   C3A70001  27.036   0.673   6.926
 5523POPC   C4A70002  27.031   0.442   7.259
 5523POPC   C1B70003  26.603   0.558   6.204
 5523POPC   C2B70004  26.483   0.601   6.645
 5523POPC   C3B70005  26.545   0.440   7.061
 5523POPC   C4B70006  26.527  44.990   7.196
 5524POPC   NC370007  14.344  31.675   5.294
 5524POPC   PO470008  13.874  31.100   5.405
 5524POPC   GL170009  14.089  31.220   5.873
 5524POPC   GL270010  14.161  31.540   5.756
 5524POPC   C1A70011  14.404  31.453   6.198
 5524POPC   D2A70012  14.693  31.354   6.580
 5524POPC   C3A70013  14.533  31.448   7.008
 5524POPC   C4A70014  14.643  31.401   7.442
 5524POPC   C1B70015  13.963  31.738   6.122
 5524POPC   C2B70016  14.012  31.876   6.565
 5524POPC   C3B70017  14.088  31.726   6.992
 5524POPC   C4B70018  13.909  31.371   7.201
 5525POPC   NC370019  11.734  36.157   5.419
 5525POPC   PO470020  12.318  36.003   5.160
 5525POPC   GL170021  12.188  35.996   5.671
 5525POPC   GL270022  11.894  36.143   5.888
 5525POPC   C1A70023  12.333  36.172   6.116
 5525POPC   D2A70024  12.278  36.438   6.500
 5525POPC   C3A70025  12.155  36.185   6.816
 5525POPC   C4A70026  12.220  36.139   7.227
 5525POPC   C1B70027  11.824  36.448   6.247
 5525POPC   C2B70028  11.745  36.542   6.687
 5525POPC   C3B70029  11.802  36.407   7.110
 5525POPC   C4B70030  11.749  35.989   7.176
 5526POPC   NC370031  12.520  12.596   5.374
 5526POPC   PO470032  11.833  12.708   5.428
 5526POPC   GL170033  11.808  12.731   5.878
 5526POPC   GL270034  11.998  12.432   5.908
 5526POPC   C1A70035  11.862  12.743   6.338
 5526POPC   D2A70036  12.125  12.945   6.610
 5526POPC   C3A70037  12.036  12.967   7.029
 5526POPC   C4A70038  12.278  13.161   7.350
 5526POPC   C1B70039  12.331  12.711   6.070
 5526POPC   C2B70040  12.540  12.696   6.474
 5526POPC   C3B70041  12.392  12.580   6.884
 5526POPC   C4B70042  12.228  12.609   7.321
 5527POPC   NC370043   5.364  42.899   5.391
 5527POPC   PO470044   4.730  43.181   5.402
 5527POPC   GL170045   4.964  43.222   5.764
 5527POPC   GL270046   5.035  42.900   5.847
 5527POPC   C1A70047   5.055  43.288   6.209
 5527POPC   D2A70048   5.171  42.998   6.543
 5527POPC   C3A70049   5.052  43.085   6.982
 5527POPC   C4A70050   5.030  43.385   7.335
 5527POPC   C1B70051   4.702  42.917   6.172
 5527POPC   C2B70052   4.586  43.015   6.606
 5527POPC   C3B70053   4.606  42.822   7.024
 5527POPC   C4B70054   4.796  42.923   7.406
 5528POPC   NC370055  27.181  37.572   5.407
 5528POPC   PO470056  26.691  37.797   5.025
 5528POPC   GL170057  26.832  37.848   5.595
 5528POPC   GL270058  26.823  37.492   5.772
 5528POPC   C1A70059  26.725  37.860   6.079
 5528POPC   D2A70060  26.486  37.809   6.497
 5528POPC   C3A70061  26.674  37.625   6.902
 5528POPC   C4A70062  26.571  37.573   7.353
 5528POPC   C1B70063  27.138  37.506   6.088
 5528POPC   C2B70064  27.275  37.513   6.516
 5528POPC   C3B70065  27.188  37.349   6.880
 5528POPC   C4B70066  27.067  37.492   7.254
 5529POPC   NC370067  38.811   7.107   5.465
 5529POPC   PO470068  39.440   7.138   5.635
 5529POPC   GL170069  39.246   6.774   5.799
 5529POPC   GL270070  38.967   6.934   5.926
 5529POPC   C1A70071  39.250   6.500   6.181
 5529POPC   D2A70072  39.406   6.652   6.592
 5529POPC   C3A70073  39.430   6.436   6.972
 5529POPC   C4A70074  39.417   6.469   7.412
 5529POPC   C1B70075  38.986   6.896   6.373
 5529POPC   C2B70076  38.929   6.734   6.794
 5529POPC   C3B70077  38.962   6.942   7.211
 5529POPC   C4B70078  39.104   6.796   7.620
 5530POPC   NC370079  28.414  24.661   5.484
 5530POPC   PO470080  27.865  24.378   5.531
 5530POPC   GL170081  28.114  24.530   5.871
 5530POPC   GL270082  28.323  24.261   5.919
 5530POPC   C1A70083  28.429  24.634   6.245
 5530POPC   D2A70084  28.475  24.432   6.681
 5530POPC   C3A70085  28.558  24.709   7.011
 5530POPC   C4A70086  28.518  24.620   7.436
 5530POPC   C1B70087  28.066  24.288   6.322
 5530POPC   C2B70088  28.006  24.229   6.783
 5530POPC   C3B70089  28.199  24.255   7.198
 5530POPC   C4B70090  28.010  24.193   7.622
 5531POPC   NC370091   4.500   0.031   5.490
 5531POPC   PO470092   4.109  44.547   5.259
 5531POPC   GL170093   4.272  44.610   5.690
 5531POPC   GL270094   4.579  44.423   5.730
 5531POPC   C1A70095   4.356  44.769   6.124
 5531POPC   D2A70096   4.156  44.758   6.534
 5531POPC   C3A70097   4.262  44.784   6.965
 5531POPC   C4A70098   4.021  44.545   7.314
 5531POPC   C1B70099   4.768  44.450   6.146
 5531POPC   C2B70100   4.653  44.550   6.552
 5531POPC   C3B70101   4.790  44.470   6.954
 5531POPC   C4B70102   4.585  44.630   7.301
 5532POPC   NC370103  36.645  32.887   5.510
 5532POPC   PO470104  37.202  32.561   5.738
 5532POPC   GL170105  37.116  32.993   5.883
 5532POPC   GL270106  36.781  33.127   5.936
 5532POPC   C1A70107  37.115  33.134   6.315
 5532POPC   D2A70108  37.402  33.146   6.635
 5532POPC   C3A70109  37.226  33.060   7.020
 5532POPC   C4A70110  37.088  33.329   7.331
 5532POPC   C1B70111  36.597  32.994   6.319
 5532POPC   C2B70112  36.576  32.816   6.724
 5532POPC   C3B70113  36.732  33.043   7.079
 5532POPC   C4B70114  36.580  33.114   7.485
 5533POPC   NC370115  21.020  36.078   5.558
 5533POPC   PO470116  21.618  36.121   5.262
 5533POPC   GL170117  21.485  36.126   5.731
 5533POPC   GL270118  21.361  36.480   5.747
 5533POPC   C1A70119  21.302  35.934   6.155
 5533POPC   D2A70120  21.501  35.792   6.558
 5533POPC   C3A70121  21.276  35.732   6.962
 5533POPC   C4A70122  21.301  36.076   7.282
 5533POPC   C1B70123  21.109  36.403   6.142
 5533POPC   C2B70124  21.164  36.229   6.560
 5533POPC   C3B70125  21.079  36.414   6.977
 5533POPC   C4B70126  20.982  36.548   7.416
 5534POPC   NC370127  19.489  38.705   5.498
 5534POPC   PO470128  20.167  38.848   5.490
 5534POPC   GL170129  20.079  38.543   5.805
 5534POPC   GL270130  19.731  38.357   5.799
 5534POPC   C1A70131  19.949  38.605   6.223
 5534POPC   D2A70132  20.095  38.447   6.613
 5534POPC   C3A70133  20.005  38.749   6.941
 5534POPC   C4A70134  20.093  38.626   7.358
 5534POPC   C1B70135  19.647  38.195   6.224
 5534POPC   C2B70136  19.589  38.414   6.639
 5534POPC   C3B70137  19.725  38.352   7.067
 5534POPC   C4B70138  19.496  38.362   7.438
 5535POPC   NC370139  10.139  34.429   5.222
 5535POPC   PO470140  10.713  34.783   5.370
 5535POPC   GL170141  10.591  34.414   5.627
 5535POPC   GL270142  10.358  34.621   5.734
 5535POPC   C1A70143  10.607  34.350   6.101
 5535POPC   D2A70144  10.682  34.442   6.545
 5535POPC   C3A70145  10.459  34.245   6.908
 5535POPC   C4A70146  10.381  34.456   7.345
 5535POPC   C1B70147  10.487  34.848   6.106
 5535POPC   C2B70148  10.352  34.832   6.520
 5535POPC   C3B70149  10.454  34.754   6.930
 5535POPC   C4B70150  10.244  34.947   7.248
 5536POPC   NC370151   9.601  17.954   5.545
 5536POPC   PO470152   9.105  18.337   5.295
 5536POPC   GL170153   8.991  18.209   5.773
 5536POPC   GL270154   9.249  18.021   5.918
 5536POPC   C1A70155   8.820  18.236   6.206
 5536POPC   D2A70156   8.601  18.310   6.607
 5536POPC   C3A70157   8.810  18.563   6.902
 5536POPC   C4A70158   8.934  18.484   7.309
 5536POPC   C1B70159   9.279  17.940   6.349
 5536POPC   C2B70160   9.123  18.214   6.647
 5536POPC   C3B70161   8.952  18.079   7.005
 5536POPC   C4B70162   9.264  18.074   7.340
 5537POPC   NC370163  32.573  23.526   5.237
 5537POPC   PO470164  32.060  24.076   5.369
 5537POPC   GL170165  32.095  23.782   5.725
 5537POPC   GL270166  32.373  23.959   5.828
 5537POPC   C1A70167  32.161  23.659   6.170
 5537POPC   D2A70168  32.229  23.808   6.581
 5537POPC   C3A70169  32.280  23.608   6.965
 5537POPC   C4A70170  31.915  23.494   7.189
 5537POPC   C1B70171  32.466  24.112   6.242
 5537POPC   C2B70172  32.628  24.094   6.691
 5537POPC   C3B70173  32.591  24.013   7.129
 5537POPC   C4B70174  32.675  24.091   7.569
 5538POPC   NC370175  15.101  25.605   5.586
 5538POPC   PO470176  14.852  25.021   5.529
 5538POPC   GL170177  15.187  25.059   5.798
 5538POPC   GL270178  15.462  25.298   5.769
 5538POPC   C1A70179  15.157  25.222   6.206
 5538POPC   D2A70180  15.149  25.010   6.577
 5538POPC   C3A70181  15.101  25.212   6.953
 5538POPC   C4A70182  15.319  25.042   7.259
 5538POPC   C1B70183  15.614  25.411   6.151
 5538POPC   C2B70184  15.459  25.417   6.571
 5538POPC   C3B70185  15.591  25.399   6.984
 5538POPC   C4B70186  15.317  25.556   7.265
 5539POPC   NC370187   6.368   2.174   5.508
 5539POPC   PO470188   6.945   1.886   5.381
 5539POPC   GL170189   6.736   1.851   5.765
 5539POPC   GL270190   6.800   2.193   5.862
 5539POPC   C1A70191   6.508   1.929   6.176
 5539POPC   D2A70192   6.655   2.199   6.530
 5539POPC   C3A70193   6.504   2.102   6.961
 5539POPC   C4A70194   6.502   2.320   7.338
 5539POPC   C1B70195   7.023   1.972   6.223
 5539POPC   C2B70196   7.249   1.856   6.621
 5539POPC   C3B70197   7.182   1.819   7.067
 5539POPC   C4B70198   6.858   1.925   7.348
 5540POPC   NC370199  39.571  44.705   5.265
 5540POPC   PO470200  40.244  44.809   5.362
 5540POPC   GL170201  39.897  44.695   5.665
 5540POPC   GL270202  39.881  44.323   5.674
 5540POPC   C1A70203  39.819  44.713   6.114
 5540POPC   D2A70204  40.081  44.821   6.463
 5540POPC   C3A70205  40.065  44.669   6.889
 5540POPC   C4A70206  40.008  44.924   7.263
 5540POPC   C1B70207  39.721  44.210   6.084
 5540POPC   C2B70208  39.852  44.285   6.495
 5540POPC   C3B70209  39.803  44.202   6.919
 5540POPC   C4B70210  39.660  44.527   7.184
 5541POPC   NC370211  15.673  16.352   5.570
 5541POPC   PO470212  16.220  15.892   5.500
 5541POPC   GL170213  15.873  15.918   5.762
 5541POPC   GL270214  15.699  15.630   5.760
 5541POPC   C1A70215  15.777  15.932   6.183
 5541POPC   D2A70216  15.960  16.017   6.568
 5541POPC   C3A70217  15.770  16.064   6.957
 5541POPC   C4A70218  16.088  16.149   7.254
 5541POPC   C1B70219  15.978  15.467   6.098
 5541POPC   C2B70220  15.930  15.505   6.540
 5541POPC   C3B70221  16.106  15.661   6.931
 5541POPC   C4B70222  15.903  15.695   7.289
 5542POPC   NC370223  26.180  26.618   5.642
 5542POPC   PO470224  26.359  27.203   5.670
 5542POPC   GL170225  26.129  26.982   5.996
 5542POPC   GL270226  25.763  26.879   5.870
 5542POPC   C1A70227  26.134  26.738   6.386
 5542POPC   D2A70228  26.435  26.503   6.644
 5542POPC   C3A70229  26.322  26.487   7.080
 5542POPC   C4A70230  26.298  26.829   7.387
 5542POPC   C1B70231  25.726  27.076   6.294
 5542POPC   C2B70232  25.966  27.164   6.689
 5542POPC   C3B70233  25.959  26.846   6.988
 5542POPC   C4B70234  25.617  26.656   7.140
 5543POPC   NC370235  43.834  26.412   5.611
 5543POPC   PO470236  44.194  27.050   5.592
 5543POPC   GL170237  43.808  26.898   5.841
 5543POPC   GL270238  43.464  27.058   5.778
 5543POPC   C1A70239  43.762  26.626   6.227
 5543POPC   D2A70240  43.801  26.392   6.621
 5543POPC   C3A70241  43.771  26.653   6.996
 5543POPC   C4A70242  44.044  26.763   7.368
 5543POPC   C1B70243  43.379  26.971   6.194
 5543POPC   C2B70244  43.560  26.961   6.603
 5543POPC   C3B70245  43.524  27.218   6.962
 5543POPC   C4B70246  43.593  27.016   7.333
 5544POPC   NC370247  31.462   6.839   4.957
 5544POPC   PO470248  31.711   6.373   5.412
 5544POPC   GL170249  31.519   6.547   5.781
 5544POPC   GL270250  31.144   6.504   5.769
 5544POPC   C1A70251  31.546   6.712   6.200
 5544POPC   D2A70252  31.486   6.393   6.525
 5544POPC   C3A70253  31.554   6.554   6.914
 5544POPC   C4A70254  31.813   6.551   7.244
 5544POPC   C1B70255  31.066   6.590   6.213
 5544POPC   C2B70256  31.147   6.759   6.628
 5544POPC   C3B70257  31.155   6.848   7.062
 5544POPC   C4B70258  31.365   6.692   7.406
 5545POPC   NC370259  34.734   5.247   5.205
 5545POPC   PO470260  34.534   4.588   5.333
 5545POPC   GL170261  34.702   4.775   5.717
 5545POPC   GL270262  34.674   5.145   5.720
 5545POPC   C1A70263  34.543   4.794   6.146
 5545POPC   D2A70264  34.412   4.708   6.566
 5545POPC   C3A70265  34.709   4.845   6.916
 5545POPC   C4A70266  34.666   4.828   7.375
 5545POPC   C1B70267  34.467   5.308   6.110
 5545POPC   C2B70268  34.479   5.224   6.552
 5545POPC   C3B70269  34.645   5.339   6.962
 5545POPC   C4B70270  34.712   5.659   7.232
 5546POPC   NC370271  26.315   0.235   5.034
 5546POPC   PO470272  26.304   0.628   5.562
 5546POPC   GL170273  26.037   0.455   5.881
 5546POPC   GL270274  25.697   0.559   5.777
 5546POPC   C1A70275  26.117   0.378   6.319
 5546POPC   D2A70276  26.223   0.068   6.645
 5546POPC   C3A70277  26.051   0.223   7.023
 5546POPC   C4A70278  25.989   0.689   7.112
 5546POPC   C1B70279  25.568   0.413   6.169
 5546POPC   C2B70280  25.674   0.336   6.591
 5546POPC   C3B70281  25.524   0.452   6.962
 5546POPC   C4B70282  25.672   0.367   7.343
 5547POPC   NC370283  38.870  40.898   5.570
 5547POPC   PO470284  38.238  40.805   5.554
 5547POPC   GL170285  38.450  40.533   5.828
 5547POPC   GL270286  38.134  40.335   5.869
 5547POPC   C1A70287  38.644  40.724   6.223
 5547POPC   D2A70288  38.577  41.053   6.551
 5547POPC   C3A70289  38.542  40.853   6.948
 5547POPC   C4A70290  38.789  40.846   7.271
 5547POPC   C1B70291  38.110  40.659   6.194
 5547POPC   C2B70292  38.279  40.617   6.571
 5547POPC   C3B70293  38.259  40.406   6.937
 5547POPC   C4B70294  38.180  40.530   7.314
 5548POPC   NC370295  26.881   1.017   5.293
 5548POPC   PO470296  26.477   1.543   5.633
 5548POPC   GL170297  26.653   1.341   5.918
 5548POPC   GL270298  26.941   1.269   5.750
 5548POPC   C1A70299  26.676   1.126   6.270
 5548POPC   D2A70300  26.793   1.027   6.650
 5548POPC   C3A70301  26.783   1.351   6.958
 5548POPC   C4A70302  26.839   1.144   7.348
 5548POPC   C1B70303  27.138   1.387   6.148
 5548POPC   C2B70304  27.277   1.167   6.524
 5548POPC   C3B70305  27.260   1.145   6.968
 5548POPC   C4B70306  27.215   1.529   7.215
 5549POPC   NC370307   3.573  32.612   4.928
 5549POPC   PO470308   3.718  32.152   5.430
 5549POPC   GL170309   3.645  32.310   5.860
 5549POPC   GL270310   3.526  32.013   5.873
 5549POPC   C1A70311   3.367  32.283   6.248
 5549POPC   D2A70312   3.300  32.459   6.639
 5549POPC   C3A70313   3.226  32.187   6.985
 5549POPC   C4A70314   3.448  32.119   7.382
 5549POPC   C1B70315   3.762  31.949   6.238
 5549POPC   C2B70316   3.702  32.132   6.627
 5549POPC   C3B70317   3.648  31.895   6.987
 5549POPC   C4B70318   3.790  31.664   7.323
 5550POPC   NC370319  26.365  10.008   5.339
 5550POPC   PO470320  27.018  10.010   5.488
 5550POPC   GL170321  26.720   9.990   5.766
 5550POPC   GL270322  26.729   9.614   5.763
 5550POPC   C1A70323  26.757   9.939   6.214
 5550POPC   D2A70324  27.103   9.918   6.501
 5550POPC   C3A70325  27.093   9.767   6.921
 5550POPC   C4A70326  26.792   9.979   7.134
 5550POPC   C1B70327  26.944   9.476   6.155
 5550POPC   C2B70328  26.767   9.531   6.577
 5550POPC   C3B70329  26.580   9.520   6.997
 5550POPC   C4B70330  26.515   9.223   7.317
 5551POPC   NC370331  11.623   8.717   5.577
 5551POPC   PO470332  11.356   9.388   5.620
 5551POPC   GL170333  11.271   9.173   5.977
 5551POPC   GL270334  11.166   8.826   5.890
 5551POPC   C1A70335  11.154   9.353   6.353
 5551POPC   D2A70336  11.029   9.140   6.716
 5551POPC   C3A70337  11.368   8.973   6.928
 5551POPC   C4A70338  11.427   9.052   7.340
 5551POPC   C1B70339  11.010   8.526   6.220
 5551POPC   C2B70340  10.984   8.613   6.691
 5551POPC   C3B70341  11.027   8.662   7.135
 5551POPC   C4B70342  11.431   8.553   7.302
 5552POPC   NC370343  33.401  11.194   5.088
 5552POPC   PO470344  32.774  11.004   5.259
 5552POPC   GL170345  32.933  11.224   5.686
 5552POPC   GL270346  32.982  11.580   5.770
 5552POPC   C1A70347  33.027  11.119   6.148
 5552POPC   D2A70348  32.826  11.207   6.563
 5552POPC   C3A70349  33.172  11.210   6.850
 5552POPC   C4A70350  33.459  10.964   7.142
 5552POPC   C1B70351  32.801  11.560   6.174
 5552POPC   C2B70352  32.915  11.702   6.585
 5552POPC   C3B70353  32.776  11.595   6.987
 5552POPC   C4B70354  33.111  11.518   7.279
 5553POPC   NC370355   9.277   7.482   5.423
 5553POPC   PO470356   9.907   7.415   5.433
 5553POPC   GL170357   9.725   7.417   5.810
 5553POPC   GL270358   9.474   7.204   5.826
 5553POPC   C1A70359   9.782   7.561   6.217
 5553POPC   D2A70360   9.826   7.399   6.612
 5553POPC   C3A70361   9.905   7.645   6.965
 5553POPC   C4A70362   9.767   7.533   7.366
 5553POPC   C1B70363   9.665   7.074   6.218
 5553POPC   C2B70364   9.502   6.989   6.612
 5553POPC   C3B70365   9.639   7.132   7.017
 5553POPC   C4B70366   9.381   7.213   7.375
 5554POPC   NC370367  42.343   3.812   5.516
 5554POPC   PO470368  42.053   3.250   5.432
 5554POPC   GL170369  42.291   3.301   5.828
 5554POPC   GL270370  42.226   3.638   5.966
 5554POPC   C1A70371  42.201   3.298   6.308
 5554POPC   D2A70372  42.032   3.397   6.688
 5554POPC   C3A70373  42.318   3.313   7.015
 5554POPC   C4A70374  42.411   3.479   7.413
 5554POPC   C1B70375  42.193   3.860   6.364
 5554POPC   C2B70376  42.452   4.063   6.667
 5554POPC   C3B70377  42.350   3.847   7.014
 5554POPC   C4B70378  42.103   3.902   7.329
 5555POPC   NC370379  11.554  29.067   5.378
 5555POPC   PO470380  11.013  29.405   5.476
 5555POPC   GL170381  11.155  29.029   5.763
 5555POPC   GL270382  11.525  28.957   5.874
 5555POPC   C1A70383  11.138  28.933   6.231
 5555POPC   D2A70384  11.143  29.106   6.673
 5555POPC   C3A70385  11.259  28.857   7.054
 5555POPC   C4A70386  11.500  28.958   7.432
 5555POPC   C1B70387  11.487  29.333   6.161
 5555POPC   C2B70388  11.527  29.493   6.603
 5555POPC   C3B70389  11.473  29.347   7.036
 5555POPC   C4B70390  11.508  29.496   7.465
 5556POPC   NC370391  30.281  28.590   5.378
 5556POPC   PO470392  30.924  28.338   5.328
 5556POPC   GL170393  30.750  28.500   5.684
 5556POPC   GL270394  30.441  28.334   5.804
 5556POPC   C1A70395  30.831  28.457   6.116
 5556POPC   D2A70396  30.661  28.595   6.516
 5556POPC   C3A70397  30.863  28.510   6.884
 5556POPC   C4A70398  30.618  28.287   7.153
 5556POPC   C1B70399  30.324  28.682   6.114
 5556POPC   C2B70400  30.243  28.892   6.552
 5556POPC   C3B70401  30.353  28.701   6.986
 5556POPC   C4B70402  30.317  28.560   7.468
 5557POPC   NC370403   1.710  25.580   5.506
 5557POPC   PO470404   2.165  25.100   5.432
 5557POPC   GL170405   1.914  25.178   5.795
 5557POPC   GL270406   2.123  25.395   5.875
 5557POPC   C1A70407   1.852  25.148   6.253
 5557POPC   D2A70408   2.131  25.238   6.613
 5557POPC   C3A70409   1.903  25.258   6.995
 5557POPC   C4A70410   1.703  24.961   7.233
 5557POPC   C1B70411   2.223  25.595   6.254
 5557POPC   C2B70412   2.401  25.698   6.659
 5557POPC   C3B70413   2.252  25.636   7.086
 5557POPC   C4B70414   2.054  25.786   7.495
 5558POPC   NC370415  44.839  20.458   5.307
 5558POPC   PO470416  44.464  20.860   5.529
 5558POPC   GL170417  44.747  20.665   5.815
 5558POPC   GL270418  44.841  20.946   6.032
 5558POPC   C1A70419  44.879  20.437   6.200
 5558POPC   D2A70420   0.042  20.563   6.624
 5558POPC   C3A70421  44.856  20.452   7.034
 5558POPC   C4A70422  44.903  20.656   7.421
 5558POPC   C1B70423  44.636  20.824   6.411
 5558POPC   C2B70424  44.536  20.801   6.829
 5558POPC   C3B70425  44.475  20.901   7.252
 5558POPC   C4B70426  44.310  21.016   7.651
 5559POPC   NC370427  22.002  34.521   5.166
 5559POPC   PO470428  22.336  34.837   5.626
 5559POPC   GL170429  22.058  34.567   5.861
 5559POPC   GL270430  21.798  34.768   5.791
 5559POPC   C1A70431  21.955  34.466   6.310
 5559POPC   D2A70432  22.136  34.455   6.727
 5559POPC   C3A70433  22.261  34.815   7.007
 5559POPC   C4A70434  22.107  34.501   7.271
 5559POPC   C1B70435  21.715  34.889   6.185
 5559POPC   C2B70436  21.956  34.927   6.567
 5559POPC   C3B70437  21.767  34.785   6.942
 5559POPC   C4B70438  21.822  34.914   7.355
 5560POPC   NC370439  42.517  39.359   5.328
 5560POPC   PO470440  42.650  38.796   5.623
 5560POPC   GL170441  42.405  39.108   5.865
 5560POPC   GL270442  42.285  39.475   5.817
 5560POPC   C1A70443  42.271  39.113   6.304
 5560POPC   D2A70444  42.153  39.092   6.739
 5560POPC   C3A70445  42.451  39.031   7.079
 5560POPC   C4A70446  42.542  39.281   7.472
 5560POPC   C1B70447  42.122  39.591   6.250
 5560POPC   C2B70448  41.993  39.571   6.679
 5560POPC   C3B70449  42.211  39.497   7.068
 5560POPC   C4B70450  42.166  39.621   7.493
 5561POPC   NC370451  40.262   9.077   5.506
 5561POPC   PO470452  39.675   9.429   5.482
 5561POPC   GL170453  39.900   9.315   5.861
 5561POPC   GL270454  40.276   9.405   5.894
 5561POPC   C1A70455  39.778   9.003   6.180
 5561POPC   D2A70456  39.585   9.038   6.592
 5561POPC   C3A70457  39.792   8.821   6.919
 5561POPC   C4A70458  39.870   8.791   7.368
 5561POPC   C1B70459  40.162   9.308   6.318
 5561POPC   C2B70460  40.082   9.204   6.729
 5561POPC   C3B70461  40.001   9.235   7.146
 5561POPC   C4B70462  40.311   9.036   7.341
 5562POPC   NC370463   1.802  18.185   5.483
 5562POPC   PO470464   2.374  18.412   5.404
 5562POPC   GL170465   2.094  18.445   5.815
 5562POPC   GL270466   2.014  18.085   5.930
 5562POPC   C1A70467   1.913  18.465   6.268
 5562POPC   D2A70468   2.148  18.443   6.686
 5562POPC   C3A70469   1.991  18.342   7.103
 5562POPC   C4A70470   2.092  18.047   7.454
 5562POPC   C1B70471   1.750  17.970   6.296
 5562POPC   C2B70472   1.697  18.164   6.692
 5562POPC   C3B70473   1.707  17.927   7.082
 5562POPC   C4B70474   1.571  18.193   7.416
 5563POPC   NC370475   4.353  23.405   5.543
 5563POPC   PO470476   3.985  24.087   5.478
 5563POPC   GL170477   4.175  23.850   5.774
 5563POPC   GL270478   3.952  23.603   5.812
 5563POPC   C1A70479   4.413  23.891   6.132
 5563POPC   D2A70480   4.447  23.738   6.538
 5563POPC   C3A70481   4.373  23.915   6.927
 5563POPC   C4A70482   4.477  23.773   7.323
 5563POPC   C1B70483   4.019  23.582   6.251
 5563POPC   C2B70484   4.070  23.411   6.651
 5563POPC   C3B70485   4.066  23.530   7.082
 5563POPC   C4B70486   4.106  23.485   7.533
 5564POPC   NC370487  21.561  22.658   5.308
 5564POPC   PO470488  21.752  23.291   5.453
 5564POPC   GL170489  21.536  23.117   5.824
 5564POPC   GL270490  21.400  22.795   5.830
 5564POPC   C1A70491  21.625  22.993   6.273
 5564POPC   D2A70492  21.781  22.712   6.612
 5564POPC   C3A70493  21.582  22.717   7.038
 5564POPC   C4A70494  21.424  23.101   7.168
 5564POPC   C1B70495  21.176  22.736   6.248
 5564POPC   C2B70496  21.247  22.925   6.670
 5564POPC   C3B70497  20.961  23.041   6.990
 5564POPC   C4B70498  21.036  22.637   7.178
 5565POPC   NC370499  34.782   3.162   5.406
 5565POPC   PO470500  34.274   2.650   5.434
 5565POPC   GL170501  34.394   2.674   5.855
 5565POPC   GL270502  34.702   2.785   5.792
 5565POPC   C1A70503  34.449   2.788   6.305
 5565POPC   D2A70504  34.623   3.083   6.620
 5565POPC   C3A70505  34.487   3.008   7.031
 5565POPC   C4A70506  34.629   2.624   7.199
 5565POPC   C1B70507  34.878   3.013   6.145
 5565POPC   C2B70508  35.062   2.821   6.523
 5565POPC   C3B70509  35.073   2.705   6.946
 5565POPC   C4B70510  34.981   2.983   7.282
 5566POPC   NC370511  31.777  29.015   5.276
 5566POPC   PO470512  31.176  29.274   5.354
 5566POPC   GL170513  31.413  29.113   5.718
 5566POPC   GL270514  31.127  28.874   5.830
 5566POPC   C1A70515  31.699  29.248   6.155
 5566POPC   D2A70516  31.839  29.397   6.616
 5566POPC   C3A70517  31.668  29.115   6.968
 5566POPC   C4A70518  31.263  28.855   7.054
 5566POPC   C1B70519  31.187  29.196   6.157
 5566POPC   C2B70520  31.334  29.273   6.563
 5566POPC   C3B70521  31.185  29.364   6.952
 5566POPC   C4B70522  31.016  29.251   7.319
 5567POPC   NC370523  11.830  19.116   5.408
 5567POPC   PO470524  12.061  18.660   5.826
 5567POPC   GL170525  11.986  19.089   5.895
 5567POPC   GL270526  12.248  19.332   5.864
 5567POPC   C1A70527  11.758  19.338   6.187
 5567POPC   D2A70528  11.751  19.471   6.618
 5567POPC   C3A70529  11.930  19.202   6.924
 5567POPC   C4A70530  12.193  19.258   7.241
 5567POPC   C1B70531  12.362  19.100   6.260
 5567POPC   C2B70532  12.653  18.987   6.599
 5567POPC   C3B70533  12.523  18.918   7.028
 5567POPC   C4B70534  12.155  18.723   7.242
 5568POPC   NC370535   6.325  24.725   5.573
 5568POPC   PO470536   5.761  24.387   5.291
 5568POPC   GL170537   5.879  24.500   5.729
 5568POPC   GL270538   5.842  24.870   5.718
 5568POPC   C1A70539   6.086  24.356   6.148
 5568POPC   D2A70540   6.182  24.177   6.560
 5568POPC   C3A70541   5.961  24.261   6.949
 5568POPC   C4A70542   6.150  24.284   7.358
 5568POPC   C1B70543   5.783  24.768   6.174
 5568POPC   C2B70544   5.936  24.672   6.601
 5568POPC   C3B70545   5.759  24.725   7.026
 5568POPC   C4B70546   5.678  24.472   7.360
 5569POPC   NC370547  18.111  11.928   5.086
 5569POPC   PO470548  18.524  12.383   5.395
 5569POPC   GL170549  18.422  12.112   5.773
 5569POPC   GL270550  18.075  11.932   5.748
 5569POPC   C1A70551  18.547  11.987   6.183
 5569POPC   D2A70552  18.446  11.718   6.500
 5569POPC   C3A70553  18.224  11.827   6.839
 5569POPC   C4A70554  18.451  12.019   7.165
 5569POPC   C1B70555  18.023  11.974   6.207
 5569POPC   C2B70556  17.870  12.205   6.585
 5569POPC   C3B70557  17.972  12.235   7.044
 5569POPC   C4B70558  17.992  11.864   7.310
 5570POPC   NC370559  17.570   4.137   5.110
 5570POPC   PO470560  17.473   4.651   5.430
 5570POPC   GL170561  17.438   4.391   5.824
 5570POPC   GL270562  17.735   4.310   5.915
 5570POPC   C1A70563  17.339   4.462   6.271
 5570POPC   D2A70564  17.175   4.546   6.696
 5570POPC   C3A70565  17.176   4.249   7.025
 5570POPC   C4A70566  17.466   4.479   7.330
 5570POPC   C1B70567  17.500   3.975   6.181
 5570POPC   C2B70568  17.443   4.076   6.611
 5570POPC   C3B70569  17.664   4.164   6.980
 5570POPC   C4B70570  17.762   3.822   7.195
 5571POPC   NC370571  23.146  39.619   5.137
 5571POPC   PO470572  22.956  39.037   5.507
 5571POPC   GL170573  22.749  39.126   5.873
 5571POPC   GL270574  22.619  39.464   5.880
 5571POPC   C1A70575  22.828  38.979   6.272
 5571POPC   D2A70576  23.048  39.046   6.622
 5571POPC   C3A70577  22.799  38.966   6.965
 5571POPC   C4A70578  22.883  39.058   7.340
 5571POPC   C1B70579  22.947  39.470   6.246
 5571POPC   C2B70580  23.151  39.606   6.592
 5571POPC   C3B70581  23.054  39.448   6.971
 5571POPC   C4B70582  22.948  39.605   7.389
 5572POPC   NC370583   3.114   5.402   5.692
 5572POPC   PO470584   3.562   5.026   5.336
 5572POPC   GL170585   3.609   5.213   5.762
 5572POPC   GL270586   3.363   4.968   5.883
 5572POPC   C1A70587   3.533   5.320   6.239
 5572POPC   D2A70588   3.528   5.155   6.703
 5572POPC   C3A70589   3.516   5.472   7.075
 5572POPC   C4A70590   3.304   5.438   7.501
 5572POPC   C1B70591   3.725   4.844   6.171
 5572POPC   C2B70592   3.684   4.645   6.593
 5572POPC   C3B70593   3.385   4.691   6.916
 5572POPC   C4B70594   3.405   5.000   7.222
 5573POPC   NC370595  36.443   5.390   4.998
 5573POPC   PO470596  35.983   5.407   5.498
 5573POPC   GL170597  36.153   4.988   5.714
 5573POPC   GL270598  36.463   4.812   5.700
 5573POPC   C1A70599  36.078   4.790   6.131
 5573POPC   D2A70600  35.919   4.991   6.534
 5573POPC   C3A70601  35.873   4.844   6.973
 5573POPC   C4A70602  35.860   5.182   7.316
 5573POPC   C1B70603  36.584   4.947   6.103
 5573POPC   C2B70604  36.458   4.895   6.512
 5573POPC   C3B70605  36.385   4.978   6.904
 5573POPC   C4B70606  36.680   5.053   7.201
 5574POPC   NC370607  36.780  26.461   5.381
 5574POPC   PO470608  37.228  26.920   5.441
 5574POPC   GL170609  37.020  26.642   5.804
 5574POPC   GL270610  36.641  26.486   5.856
 5574POPC   C1A70611  36.829  26.849   6.173
 5574POPC   D2A70612  36.671  26.951   6.581
 5574POPC   C3A70613  36.967  27.081   6.887
 5574POPC   C4A70614  36.857  26.975   7.294
 5574POPC   C1B70615  36.852  26.332   6.210
 5574POPC   C2B70616  37.024  26.541   6.556
 5574POPC   C3B70617  36.895  26.575   6.967
 5574POPC   C4B70618  37.137  26.534   7.327
 5575POPC   NC370619   2.452  25.548   5.455
 5575POPC   PO470620   3.029  25.975   5.331
 5575POPC   GL170621   2.847  25.864   5.749
 5575POPC   GL270622   2.847  26.189   5.879
 5575POPC   C1A70623   2.671  25.850   6.204
 5575POPC   D2A70624   2.864  25.926   6.613
 5575POPC   C3A70625   2.621  26.075   6.981
 5575POPC   C4A70626   2.538  25.933   7.382
 5575POPC   C1B70627   3.152  26.109   6.202
 5575POPC   C2B70628   3.321  26.351   6.573
 5575POPC   C3B70629   3.153  26.192   6.959
 5575POPC   C4B70630   2.972  26.173   7.387
 5576POPC   NC370631  12.771  32.692   5.339
 5576POPC   PO470632  12.687  33.401   5.396
 5576POPC   GL170633  12.725  33.177   5.787
 5576POPC   GL270634  12.483  32.872   5.787
 5576POPC   C1A70635  13.063  33.347   6.077
 5576POPC   D2A70636  13.165  33.387   6.522
 5576POPC   C3A70637  12.982  33.181   6.889
 5576POPC   C4A70638  12.949  33.283   7.338
 5576POPC   C1B70639  12.670  32.881   6.227
 5576POPC   C2B70640  12.762  32.696   6.647
 5576POPC   C3B70641  12.717  32.791   7.082
 5576POPC   C4B70642  12.832  32.556   7.425
 5577POPC   NC370643  19.107  15.823   5.518
 5577POPC   PO470644  18.824  16.441   5.500
 5577POPC   GL170645  18.872  16.097   5.869
 5577POPC   GL270646  19.257  16.079   5.976
 5577POPC   C1A70647  18.964  15.922   6.329
 5577POPC   D2A70648  19.302  16.204   6.510
 5577POPC   C3A70649  19.268  16.170   6.950
 5577POPC   C4A70650  18.900  16.063   7.221
 5577POPC   C1B70651  19.345  15.633   6.152
 5577POPC   C2B70652  19.190  15.340   6.484
 5577POPC   C3B70653  19.003  15.544   6.825
 5577POPC   C4B70654  19.267  15.686   7.139
 5578POPC   NC370655  14.246  36.635   5.502
 5578POPC   PO470656  14.265  37.247   5.596
 5578POPC   GL170657  14.527  37.004   5.851
 5578POPC   GL270658  14.321  36.729   5.995
 5578POPC   C1A70659  14.648  37.055   6.289
 5578POPC   D2A70660  14.379  37.063   6.650
 5578POPC   C3A70661  14.507  37.132   7.081
 5578POPC   C4A70662  14.155  37.032   7.358
 5578POPC   C1B70663  14.756  36.583   6.081
 5578POPC   C2B70664  14.949  36.663   6.485
 5578POPC   C3B70665  14.719  36.704   6.868
 5578POPC   C4B70666  14.490  36.650   7.273
 5579POPC   NC370667  19.671  36.231   5.445
 5579POPC   PO470668  20.229  35.890   5.286
 5579POPC   GL170669  20.095  36.032   5.736
 5579POPC   GL270670  19.983  36.364   5.848
 5579POPC   C1A70671  19.918  35.974   6.176
 5579POPC   D2A70672  19.939  36.283   6.536
 5579POPC   C3A70673  19.861  36.026   6.897
 5579POPC   C4A70674  19.965  35.928   7.326
 5579POPC   C1B70675  19.586  36.377   6.132
 5579POPC   C2B70676  19.445  36.207   6.555
 5579POPC   C3B70677  19.529  36.415   6.923
 5579POPC   C4B70678  19.801  36.412   7.275
 5580POPC   NC370679  18.592  32.791   5.387
 5580POPC   PO470680  19.234  32.451   5.391
 5580POPC   GL170681  19.253  32.135   5.763
 5580POPC   GL270682  18.939  32.227   5.859
 5580POPC   C1A70683  19.127  31.956   6.225
 5580POPC   D2A70684  18.711  32.076   6.451
 5580POPC   C3A70685  18.789  32.237   6.842
 5580POPC   C4A70686  18.993  32.118   7.201
 5580POPC   C1B70687  18.982  32.456   6.245
 5580POPC   C2B70688  19.251  32.363   6.619
 5580POPC   C3B70689  19.292  32.518   7.073
 5580POPC   C4B70690  19.274  32.376   7.533
 5581POPC   NC370691  29.032  20.297   5.448
 5581POPC   PO470692  29.124  19.656   5.291
 5581POPC   GL170693  28.938  19.736   5.718
 5581POPC   GL270694  29.230  19.577   5.902
 5581POPC   C1A70695  28.865  19.814   6.193
 5581POPC   D2A70696  29.065  20.015   6.582
 5581POPC   C3A70697  28.993  19.948   7.039
 5581POPC   C4A70698  28.765  19.848   7.453
 5581POPC   C1B70699  29.059  19.330   6.260
 5581POPC   C2B70700  29.102  19.290   6.714
 5581POPC   C3B70701  29.163  19.483   7.136
 5581POPC   C4B70702  29.237  19.669   7.552
 5582POPC   NC370703  29.415  37.858   5.537
 5582POPC   PO470704  29.067  37.316   5.343
 5582POPC   GL170705  28.941  37.488   5.747
 5582POPC   GL270706  28.634  37.320   5.864
 5582POPC   C1A70707  29.158  37.535   6.164
 5582POPC   D2A70708  29.123  37.440   6.591
 5582POPC   C3A70709  29.396  37.326   6.883
 5582POPC   C4A70710  29.302  37.523   7.272
 5582POPC   C1B70711  28.645  37.677   6.198
 5582POPC   C2B70712  28.775  37.792   6.677
 5582POPC   C3B70713  28.828  37.698   7.142
 5582POPC   C4B70714  29.065  37.907   7.509
 5583POPC   NC370715  27.559  11.100   5.440
 5583POPC   PO470716  27.756  11.752   5.503
 5583POPC   GL170717  27.613  11.449   5.849
 5583POPC   GL270718  27.328  11.198   5.883
 5583POPC   C1A70719  27.475  11.461   6.296
 5583POPC   D2A70720  27.345  11.356   6.706
 5583POPC   C3A70721  27.693  11.238   6.959
 5583POPC   C4A70722  27.817  11.410   7.368
 5583POPC   C1B70723  27.186  11.043   6.272
 5583POPC   C2B70724  27.267  10.835   6.642
 5583POPC   C3B70725  27.240  10.955   7.073
 5583POPC   C4B70726  27.298  10.757   7.454
 5584POPC   NC370727  23.352  38.838   5.316
 5584POPC   PO470728  23.755  38.286   5.413
 5584POPC   GL170729  23.750  38.624   5.737
 5584POPC   GL270730  24.091  38.780   5.678
 5584POPC   C1A70731  23.552  38.606   6.179
 5584POPC   D2A70732  23.649  38.381   6.600
 5584POPC   C3A70733  23.630  38.512   7.045
 5584POPC   C4A70734  23.676  38.334   7.467
 5584POPC   C1B70735  24.072  38.927   6.098
 5584POPC   C2B70736  23.870  38.846   6.499
 5584POPC   C3B70737  23.999  38.866   6.918
 5584POPC   C4B70738  23.786  38.928   7.309
 5585POPC   NC370739  32.449  26.703   5.505
 5585POPC   PO470740  32.417  27.375   5.779
 5585POPC   GL170741  32.315  26.994   5.914
 5585POPC   GL270742  32.676  26.888   5.923
 5585POPC   C1A70743  32.054  26.969   6.274
 5585POPC   D2A70744  32.072  27.144   6.695
 5585POPC   C3A70745  32.020  26.846   6.997
 5585POPC   C4A70746  32.189  26.715   7.380
 5585POPC   C1B70747  32.527  26.708   6.302
 5585POPC   C2B70748  32.557  26.570   6.718
 5585POPC   C3B70749  32.540  26.836   7.043
 5585POPC   C4B70750  32.704  26.910   7.455
 5586POPC   NC370751  41.794   6.190   5.572
 5586POPC   PO470752  41.195   6.053   5.246
 5586POPC   GL170753  41.420   5.910   5.774
 5586POPC   GL270754  41.517   5.536   5.834
 5586POPC   C1A70755  41.730   5.923   6.161
 5586POPC   D2A70756  41.920   5.831   6.591
 5586POPC   C3A70757  41.682   5.936   6.942
 5586POPC   C4A70758  41.651   5.694   7.304
 5586POPC   C1B70759  41.267   5.592   6.194
 5586POPC   C2B70760  41.354   5.919   6.499
 5586POPC   C3B70761  41.227   6.195   6.809
 5586POPC   C4B70762  41.247   5.997   7.207
 5587POPC   NC370763   5.828  37.188   5.459
 5587POPC   PO470764   5.743  36.461   5.424
 5587POPC   GL170765   5.788  36.750   5.778
 5587POPC   GL270766   5.522  36.980   5.840
 5587POPC   C1A70767   5.913  36.745   6.210
 5587POPC   D2A70768   6.124  36.569   6.567
 5587POPC   C3A70769   6.022  36.810   6.897
 5587POPC   C4A70770   5.708  36.714   7.116
 5587POPC   C1B70771   5.768  37.237   6.121
 5587POPC   C2B70772   5.887  37.154   6.536
 5587POPC   C3B70773   5.604  37.195   6.881
 5587POPC   C4B70774   5.720  37.217   7.276
 5588POPC   NC370775  28.057  25.710   5.484
 5588POPC   PO470776  27.618  26.300   5.401
 5588POPC   GL170777  27.620  26.113   5.801
 5588POPC   GL270778  27.537  25.744   5.857
 5588POPC   C1A70779  27.695  26.208   6.215
 5588POPC   D2A70780  27.674  25.976   6.595
 5588POPC   C3A70781  27.673  26.169   6.993
 5588POPC   C4A70782  27.892  25.957   7.318
 5588POPC   C1B70783  27.307  25.811   6.275
 5588POPC   C2B70784  27.174  25.847   6.733
 5588POPC   C3B70785  27.208  25.963   7.140
 5588POPC   C4B70786  27.227  25.958   7.624
 5589POPC   NC370787  40.302  22.402   5.538
 5589POPC   PO470788  39.819  22.017   5.377
 5589POPC   GL170789  39.851  22.172   5.804
 5589POPC   GL270790  40.176  22.079   5.899
 5589POPC   C1A70791  39.875  22.378   6.231
 5589POPC   D2A70792  39.767  22.147   6.620
 5589POPC   C3A70793  39.887  22.128   7.080
 5589POPC   C4A70794  39.848  21.947   7.522
 5589POPC   C1B70795  40.289  22.118   6.318
 5589POPC   C2B70796  40.259  22.402   6.627
 5589POPC   C3B70797  40.372  22.297   7.021
 5589POPC   C4B70798  40.533  22.512   7.348
 5590POPC   NC370799  31.740   4.536   5.546
 5590POPC   PO470800  31.392   3.968   5.577
 5590POPC   GL170801  31.599   4.192   5.882
 5590POPC   GL270802  31.343   4.458   5.946
 5590POPC   C1A70803  31.748   4.411   6.263
 5590POPC   D2A70804  31.452   4.490   6.613
 5590POPC   C3A70805  31.653   4.493   7.027
 5590POPC   C4A70806  31.579   4.406   7.482
 5590POPC   C1B70807  31.196   4.055   6.186
 5590POPC   C2B70808  31.188   3.914   6.624
 5590POPC   C3B70809  31.262   4.148   7.013
 5590POPC   C4B70810  31.205   4.057   7.445
 5591POPC   NC370811  43.666  11.657   5.314
 5591POPC   PO470812  44.051  12.128   5.687
 5591POPC   GL170813  43.703  12.042   5.898
 5591POPC   GL270814  43.520  12.329   5.752
 5591POPC   C1A70815  43.796  12.010   6.341
 5591POPC   D2A70816  43.971  12.252   6.704
 5591POPC   C3A70817  43.900  11.971   7.051
 5591POPC   C4A70818  44.241  11.703   7.132
 5591POPC   C1B70819  43.478  12.397   6.199
 5591POPC   C2B70820  43.455  12.256   6.623
 5591POPC   C3B70821  43.603  12.404   7.034
 5591POPC   C4B70822  43.997  12.416   7.270
 5592POPC   NC370823  35.495  18.652   5.099
 5592POPC   PO470824  34.959  18.906   5.323
 5592POPC   GL170825  35.110  19.037   5.788
 5592POPC   GL270826  35.420  19.133   5.880
 5592POPC   C1A70827  35.187  18.890   6.259
 5592POPC   D2A70828  35.130  19.112   6.660
 5592POPC   C3A70829  35.293  19.045   7.089
 5592POPC   C4A70830  35.100  19.152   7.489
 5592POPC   C1B70831  35.663  19.111   6.261
 5592POPC   C2B70832  35.662  19.042   6.703
 5592POPC   C3B70833  35.724  19.317   7.026
 5592POPC   C4B70834  35.580  19.334   7.402
 5593POPC   NC370835  13.349  35.651   5.545
 5593POPC   PO470836  13.609  35.049   5.754
 5593POPC   GL170837  13.474  35.325   6.018
 5593POPC   GL270838  13.679  35.555   5.910
 5593POPC   C1A70839  13.541  35.385   6.481
 5593POPC   D2A70840  13.818  35.147   6.758
 5593POPC   C3A70841  13.636  34.947   7.088
 5593POPC   C4A70842  13.270  35.098   7.269
 5593POPC   C1B70843  13.467  35.801   6.206
 5593POPC   C2B70844  13.591  35.898   6.625
 5593POPC   C3B70845  13.665  35.604   6.972
 5593POPC   C4B70846  13.854  35.358   7.302
 5594POPC   NC370847  32.370  10.908   5.019
 5594POPC   PO470848  32.301  11.459   5.418
 5594POPC   GL170849  32.378  11.545   5.869
 5594POPC   GL270850  32.086  11.716   6.006
 5594POPC   C1A70851  32.356  11.285   6.285
 5594POPC   D2A70852  32.138  11.192   6.705
 5594POPC   C3A70853  32.460  11.175   7.057
 5594POPC   C4A70854  32.616  11.400   7.449
 5594POPC   C1B70855  31.923  11.571   6.398
 5594POPC   C2B70856  31.892  11.659   6.834
 5594POPC   C3B70857  32.180  11.568   7.178
 5594POPC   C4B70858  32.182  11.612   7.655
 5595POPC   NC370859   9.244   5.318   5.400
 5595POPC   PO470860   8.825   4.756   5.465
 5595POPC   GL170861   8.989   5.039   5.752
 5595POPC   GL270862   9.154   4.799   5.936
 5595POPC   C1A70863   8.897   5.244   6.134
 5595POPC   D2A70864   8.859   5.069   6.526
 5595POPC   C3A70865   9.062   5.222   6.900
 5595POPC   C4A70866   9.161   4.980   7.243
 5595POPC   C1B70867   8.751   4.608   6.097
 5595POPC   C2B70868   8.608   4.616   6.534
 5595POPC   C3B70869   8.661   4.827   6.930
 5595POPC   C4B70870   8.684   4.642   7.322
 5596POPC   NC370871  28.287  30.887   5.556
 5596POPC   PO470872  28.539  30.344   5.324
 5596POPC   GL170873  28.579  30.450   5.744
 5596POPC   GL270874  28.737  30.765   5.768
 5596POPC   C1A70875  28.447  30.459   6.183
 5596POPC   D2A70876  28.432  30.188   6.571
 5596POPC   C3A70877  28.409  30.466   6.894
 5596POPC   C4A70878  28.093  30.556   7.187
 5596POPC   C1B70879  28.590  30.990   6.152
 5596POPC   C2B70880  28.673  30.979   6.586
 5596POPC   C3B70881  28.504  30.952   7.018
 5596POPC   C4B70882  28.571  30.676   7.363
 5597POPC   NC370883  36.977  22.528   5.164
 5597POPC   PO470884  36.710  23.022   5.532
 5597POPC   GL170885  36.658  22.771   5.876
 5597POPC   GL270886  36.452  22.867   6.073
 5597POPC   C1A70887  36.889  22.722   6.286
 5597POPC   D2A70888  37.172  22.647   6.635
 5597POPC   C3A70889  36.983  22.773   7.031
 5597POPC   C4A70890  37.217  22.643   7.385
 5597POPC   C1B70891  36.543  23.110   6.465
 5597POPC   C2B70892  36.852  23.240   6.816
 5597POPC   C3B70893  37.219  23.338   7.083
 5597POPC   C4B70894  37.269  23.132   7.527
 5598POPC   NC370895  28.969  12.148   5.561
 5598POPC   PO470896  28.314  12.095   5.257
 5598POPC   GL170897  28.484  12.006   5.693
 5598POPC   GL270898  28.634  12.257   5.934
 5598POPC   C1A70899  28.297  11.913   6.114
 5598POPC   D2A70900  28.313  12.209   6.466
 5598POPC   C3A70901  28.054  12.099   6.814
 5598POPC   C4A70902  28.167  12.296   7.171
 5598POPC   C1B70903  28.816  11.890   6.146
 5598POPC   C2B70904  28.647  11.786   6.537
 5598POPC   C3B70905  28.553  12.030   6.909
 5598POPC   C4B70906  28.419  11.859   7.298
 5599POPC   NC370907  31.297  15.345   5.552
 5599POPC   PO470908  30.612  15.134   5.613
 5599POPC   GL170909  30.931  15.120   5.940
 5599POPC   GL270910  31.011  15.444   5.943
 5599POPC   C1A70911  30.917  15.229   6.405
 5599POPC   D2A70912  30.487  15.167   6.565
 5599POPC   C3A70913  30.507  15.017   6.962
 5599POPC   C4A70914  30.790  15.080   7.277
 5599POPC   C1B70915  30.632  15.569   6.135
 5599POPC   C2B70916  30.636  15.655   6.556
 5599POPC   C3B70917  30.724  15.484   6.944
 5599POPC   C4B70918  30.537  15.594   7.331
 5600POPC   NC370919   7.910  42.765   5.415
 5600POPC   PO470920   8.364  43.239   5.308
 5600POPC   GL170921   8.369  43.181   5.760
 5600POPC   GL270922   8.150  42.923   5.842
 5600POPC   C1A70923   8.482  43.035   6.220
 5600POPC   D2A70924   8.237  42.945   6.607
 5600POPC   C3A70925   8.406  42.875   7.019
 5600POPC   C4A70926   8.284  43.069   7.402
 5600POPC   C1B70927   7.987  43.157   6.196
 5600POPC   C2B70928   8.032  43.422   6.581
 5600POPC   C3B70929   7.988  43.222   7.011
 5600POPC   C4B70930   7.772  43.121   7.422
 5601POPC   NC370931  38.866  20.013   5.468
 5601POPC   PO470932  38.204  19.733   5.458
 5601POPC   GL170933  38.510  19.754   5.739
 5601POPC   GL270934  38.495  20.094   5.802
 5601POPC   C1A70935  38.500  19.715   6.184
 5601POPC   D2A70936  38.254  19.618   6.577
 5601POPC   C3A70937  38.393  19.754   7.032
 5601POPC   C4A70938  38.400  19.649   7.520
 5601POPC   C1B70939  38.582  20.234   6.196
 5601POPC   C2B70940  38.513  20.080   6.611
 5601POPC   C3B70941  38.696  20.209   7.016
 5601POPC   C4B70942  38.496  20.125   7.403
 5602POPC   NC370943  41.966  34.406   5.581
 5602POPC   PO470944  41.309  34.285   5.406
 5602POPC   GL170945  41.495  34.482   5.783
 5602POPC   GL270946  41.383  34.817   5.887
 5602POPC   C1A70947  41.684  34.519   6.194
 5602POPC   D2A70948  41.586  34.293   6.552
 5602POPC   C3A70949  41.740  34.429   6.943
 5602POPC   C4A70950  41.423  34.473   7.268
 5602POPC   C1B70951  41.443  34.964   6.270
 5602POPC   C2B70952  41.589  34.830   6.672
 5602POPC   C3B70953  41.576  34.921   7.121
 5602POPC   C4B70954  41.757  34.928   7.540
 5603POPC   NC370955  23.475   6.762   5.434
 5603POPC   PO470956  23.963   6.214   5.448
 5603POPC   GL170957  23.909   6.511   5.784
 5603POPC   GL270958  23.596   6.624   5.888
 5603POPC   C1A70959  23.940   6.378   6.179
 5603POPC   D2A70960  23.816   6.419   6.581
 5603POPC   C3A70961  23.891   6.751   6.851
 5603POPC   C4A70962  24.113   6.775   7.263
 5603POPC   C1B70963  23.688   6.819   6.267
 5603POPC   C2B70964  23.412   6.736   6.587
 5603POPC   C3B70965  23.395   6.571   6.981
 5603POPC   C4B70966  23.583   6.843   7.235
 5604POPC   NC370967  32.439  17.842   5.402
 5604POPC   PO470968  32.142  17.213   5.359
 5604POPC   GL170969  32.259  17.440   5.728
 5604POPC   GL270970  32.588  17.301   5.716
 5604POPC   C1A70971  32.185  17.510   6.181
 5604POPC   D2A70972  32.270  17.745   6.554
 5604POPC   C3A70973  32.150  17.549   6.910
 5604POPC   C4A70974  32.044  17.449   7.306
 5604POPC   C1B70975  32.681  17.567   6.081
 5604POPC   C2B70976  32.771  17.603   6.524
 5604POPC   C3B70977  32.677  17.479   6.936
 5604POPC   C4B70978  32.599  17.513   7.356
 5605POPC   NC370979  33.682  22.099   5.557
 5605POPC   PO470980  33.988  22.676   5.589
 5605POPC   GL170981  33.961  22.454   5.916
 5605POPC   GL270982  34.124  22.161   5.880
 5605POPC   C1A70983  34.152  22.470   6.314
 5605POPC   D2A70984  33.810  22.469   6.586
 5605POPC   C3A70985  33.789  22.273   6.942
 5605POPC   C4A70986  33.625  22.258   7.339
 5605POPC   C1B70987  33.864  22.044   6.237
 5605POPC   C2B70988  33.862  21.826   6.635
 5605POPC   C3B70989  33.682  21.804   7.043
 5605POPC   C4B70990  33.991  21.922   7.342
 5606POPC   NC370991  40.610   1.723   5.553
 5606POPC   PO470992  40.328   2.333   5.615
 5606POPC   GL170993  40.736   2.173   5.844
 5606POPC   GL270994  40.906   1.848   5.920
 5606POPC   C1A70995  40.975   2.246   6.215
 5606POPC   D2A70996  40.755   2.191   6.585
 5606POPC   C3A70997  40.954   2.215   6.933
 5606POPC   C4A70998  40.703   2.240   7.258
 5606POPC   C1B70999  40.710   1.805   6.262
 5606POPC   C2B71000  40.911   1.704   6.629
 5606POPC   C3B71001  40.757   1.742   7.035
 5606POPC   C4B71002  40.889   1.803   7.442
 5607POPC   NC371003  34.182  37.529   5.330
 5607POPC   PO471004  34.690  37.930   5.187
 5607POPC   GL171005  34.628  37.956   5.715
 5607POPC   GL271006  34.257  37.929   5.758
 5607POPC   C1A71007  34.760  37.727   6.144
 5607POPC   D2A71008  34.600  37.539   6.566
 5607POPC   C3A71009  34.866  37.628   6.944
 5607POPC   C4A71010  34.952  38.060   7.160
 5607POPC   C1B71011  34.258  37.773   6.198
 5607POPC   C2B71012  34.194  37.902   6.615
 5607POPC   C3B71013  34.479  37.973   6.921
 5607POPC   C4B71014  34.526  37.808   7.323
 5608POPC   NC371015   6.629   7.882   5.570
 5608POPC   PO471016   6.389   8.513   5.485
 5608POPC   GL171017   6.629   8.413   5.878
 5608POPC   GL271018   6.565   8.096   6.031
 5608POPC   C1A71019   6.909   8.429   6.265
 5608POPC   D2A71020   6.715   8.613   6.649
 5608POPC   C3A71021   6.478   8.311   6.892
 5608POPC   C4A71022   6.815   8.140   7.137
 5608POPC   C1B71023   6.503   7.834   6.402
 5608POPC   C2B71024   6.602   7.761   6.831
 5608POPC   C3B71025   6.365   7.883   7.168
 5608POPC   C4B71026   6.408   8.254   7.425
 5609POPC   NC371027  40.765   0.068   5.310
 5609POPC   PO471028  40.883  44.379   5.309
 5609POPC   GL171029  40.946  44.662   5.622
 5609POPC   GL271030  41.024  44.427   5.855
 5609POPC   C1A71031  40.847  44.908   6.001
 5609POPC   D2A71032  40.583  44.896   6.389
 5609POPC   C3A71033  40.582  44.790   6.841
 5609POPC   C4A71034  40.881  44.848   7.156
 5609POPC   C1B71035  40.752  44.433   6.210
 5609POPC   C2B71036  40.885  44.417   6.645
 5609POPC   C3B71037  40.818  44.349   7.095
 5609POPC   C4B71038  41.169  44.354   7.396
 5610POPC   NC371039  30.749  17.140   5.484
 5610POPC   PO471040  30.574  17.701   5.744
 5610POPC   GL171041  30.847  17.433   5.925
 5610POPC   GL271042  30.593  17.165   5.966
 5610POPC   C1A71043  30.859  17.443   6.379
 5610POPC   D2A71044  30.522  17.657   6.640
 5610POPC   C3A71045  30.553  17.782   7.086
 5610POPC   C4A71046  30.620  17.519   7.464
 5610POPC   C1B71047  30.988  16.979   6.083
 5610POPC   C2B71048  31.054  16.974   6.517
 5610POPC   C3B71049  30.879  17.240   6.875
 5610POPC   C4B71050  31.051  17.304   7.285
 5611POPC   NC371051  15.383   8.588   5.494
 5611POPC   PO471052  15.474   7.970   5.241
 5611POPC   GL171053  15.491   8.178   5.770
 5611POPC   GL271054  15.382   7.878   6.069
 5611POPC   C1A71055  15.383   8.351   6.211
 5611POPC   D2A71056  15.301   8.140   6.618
 5611POPC   C3A71057  15.326   8.288   7.034
 5611POPC   C4A71058  15.100   8.425   7.384
 5611POPC   C1B71059  14.970   7.916   6.299
 5611POPC   C2B71060  14.798   7.931   6.725
 5611POPC   C3B71061  14.885   7.989   7.181
 5611POPC   C4B71062  15.215   7.912   7.504
 5612POPC   NC371063  12.593  11.648   5.501
 5612POPC   PO471064  12.976  11.137   5.235
 5612POPC   GL171065  12.946  11.291   5.676
 5612POPC   GL271066  13.268  11.425   5.744
 5612POPC   C1A71067  12.761  11.336   6.125
 5612POPC   D2A71068  12.786  11.454   6.551
 5612POPC   C3A71069  12.618  11.421   6.985
 5612POPC   C4A71070  12.822  11.242   7.362
 5612POPC   C1B71071  13.210  11.079   6.068
 5612POPC   C2B71072  13.271  11.200   6.490
 5612POPC   C3B71073  13.082  11.191   6.890
 5612POPC   C4B71074  13.068  10.848   7.140
 5613POPC   NC371075  38.814  28.680   5.551
 5613POPC   PO471076  38.235  28.204   5.387
 5613POPC   GL171077  38.362  28.486   5.729
 5613POPC   GL271078  38.445  28.200   5.901
 5613POPC   C1A71079  38.492  28.633   6.179
 5613POPC   D2A71080  38.530  28.382   6.567
 5613POPC   C3A71081  38.467  28.592   6.977
 5613POPC   C4A71082  38.270  28.712   7.410
 5613POPC   C1B71083  38.389  27.946   6.256
 5613POPC   C2B71084  38.061  27.940   6.569
 5613POPC   C3B71085  38.167  28.188   6.913
 5613POPC   C4B71086  38.433  28.200   7.330
 5614POPC   NC371087  35.653  11.605   5.421
 5614POPC   PO471088  35.223  11.088   5.353
 5614POPC   GL171089  35.445  11.171   5.780
 5614POPC   GL271090  35.381  11.477   5.848
 5614POPC   C1A71091  35.194  11.203   6.231
 5614POPC   D2A71092  35.100  11.058   6.670
 5614POPC   C3A71093  35.441  11.148   6.979
 5614POPC   C4A71094  35.457  11.262   7.381
 5614POPC   C1B71095  35.559  11.583   6.233
 5614POPC   C2B71096  35.619  11.501   6.673
 5614POPC   C3B71097  35.411  11.676   7.080
 5614POPC   C4B71098  35.263  11.700   7.546
 5615POPC   NC371099  21.556  40.415   5.546
 5615POPC   PO471100  21.132  40.867   5.586
 5615POPC   GL171101  21.364  40.781   5.918
 5615POPC   GL271102  21.699  40.821   5.858
 5615POPC   C1A71103  21.458  40.637   6.315
 5615POPC   D2A71104  21.596  40.476   6.703
 5615POPC   C3A71105  21.330  40.675   7.023
 5615POPC   C4A71106  21.146  40.609   7.434
 5615POPC   C1B71107  21.753  41.051   6.262
 5615POPC   C2B71108  21.606  40.991   6.682
 5615POPC   C3B71109  21.719  40.995   7.118
 5615POPC   C4B71110  21.635  41.067   7.567
 5616POPC   NC371111  29.203  31.749   4.906
 5616POPC   PO471112  29.088  31.179   5.352
 5616POPC   GL171113  29.241  31.218   5.790
 5616POPC   GL271114  28.889  31.254   5.811
 5616POPC   C1A71115  29.379  31.500   6.148
 5616POPC   D2A71116  29.223  31.805   6.480
 5616POPC   C3A71117  29.263  31.668   6.917
 5616POPC   C4A71118  29.491  31.651   7.310
 5616POPC   C1B71119  28.878  31.453   6.173
 5616POPC   C2B71120  28.822  31.486   6.598
 5616POPC   C3B71121  28.754  31.650   6.985
 5616POPC   C4B71122  28.994  31.423   7.303
 5617POPC   NC371123   1.650   6.228   5.638
 5617POPC   PO471124   1.300   5.787   5.304
 5617POPC   GL171125   1.331   5.853   5.750
 5617POPC   GL271126   1.406   5.526   5.763
 5617POPC   C1A71127   1.400   5.998   6.217
 5617POPC   D2A71128   1.229   5.902   6.658
 5617POPC   C3A71129   1.325   6.155   7.033
 5617POPC   C4A71130   1.312   6.144   7.528
 5617POPC   C1B71131   1.151   5.532   6.137
 5617POPC   C2B71132   0.970   5.470   6.546
 5617POPC   C3B71133   1.143   5.429   6.938
 5617POPC   C4B71134   1.225   5.718   7.259
 5618POPC   NC371135  24.333  14.967   5.577
 5618POPC   PO471136  24.812  15.272   5.215
 5618POPC   GL171137  24.837  15.383   5.715
 5618POPC   GL271138  24.488  15.344   5.890
 5618POPC   C1A71139  24.898  15.369   6.196
 5618POPC   D2A71140  24.604  15.300   6.552
 5618POPC   C3A71141  24.708  15.183   6.986
 5618POPC   C4A71142  24.415  14.993   7.216
 5618POPC   C1B71143  24.196  15.184   6.235
 5618POPC   C2B71144  24.144  15.056   6.674
 5618POPC   C3B71145  24.146  15.352   7.021
 5618POPC   C4B71146  24.043  15.272   7.434
 5619POPC   NC371147  32.668   1.778   5.500
 5619POPC   PO471148  33.104   1.317   5.261
 5619POPC   GL171149  33.128   1.293   5.727
 5619POPC   GL271150  32.848   1.112   5.863
 5619POPC   C1A71151  33.205   1.299   6.191
 5619POPC   D2A71152  33.319   1.097   6.609
 5619POPC   C3A71153  33.085   1.199   6.992
 5619POPC   C4A71154  33.222   1.286   7.419
 5619POPC   C1B71155  32.683   0.920   6.242
 5619POPC   C2B71156  32.823   0.826   6.677
 5619POPC   C3B71157  32.703   0.826   7.120
 5619POPC   C4B71158  32.715   0.796   7.574
 5620POPC   NC371159  19.403  32.980   5.396
 5620POPC   PO471160  18.762  33.243   5.430
 5620POPC   GL171161  18.901  32.948   5.809
 5620POPC   GL271162  19.191  32.703   5.832
 5620POPC   C1A71163  19.028  33.011   6.286
 5620POPC   D2A71164  19.152  33.328   6.668
 5620POPC   C3A71165  18.970  33.264   7.112
 5620POPC   C4A71166  18.966  32.829   7.344
 5620POPC   C1B71167  19.432  32.696   6.235
 5620POPC   C2B71168  19.381  32.859   6.660
 5620POPC   C3B71169  19.411  33.036   7.081
 5620POPC   C4B71170  19.325  33.189   7.537
 5621POPC   NC371171  44.901  40.111   5.533
 5621POPC   PO471172  44.547  39.594   5.526
 5621POPC   GL171173  44.561  39.879   5.881
 5621POPC   GL271174  44.432  40.194   5.800
 5621POPC   C1A71175  44.650  40.015   6.317
 5621POPC   D2A71176  44.982  39.941   6.635
 5621POPC   C3A71177  44.919  39.739   7.046
 5621POPC   C4A71178  44.769  39.892   7.432
 5621POPC   C1B71179  44.327  40.423   6.165
 5621POPC   C2B71180  44.587  40.480   6.519
 5621POPC   C3B71181  44.632  40.227   6.895
 5621POPC   C4B71182  44.633  40.367   7.325
 5622POPC   NC371183  39.710  32.604   5.419
 5622POPC   PO471184  40.288  32.292   5.288
 5622POPC   GL171185  39.997  32.234   5.670
 5622POPC   GL271186  39.969  32.539   5.876
 5622POPC   C1A71187  39.800  32.061   6.093
 5622POPC   D2A71188  39.965  32.045   6.535
 5622POPC   C3A71189  39.760  32.102   6.923
 5622POPC   C4A71190  39.699  32.392   7.292
 5622POPC   C1B71191  40.245  32.312   6.163
 5622POPC   C2B71192  40.415  32.294   6.562
 5622POPC   C3B71193  40.275  32.287   6.967
 5622POPC   C4B71194  40.103  32.122   7.344
 5623POPC   NC371195  43.041   5.315   5.440
 5623POPC   PO471196  42.944   4.701   5.624
 5623POPC   GL171197  42.845   5.025   5.833
 5623POPC   GL271198  43.177   5.071   5.912
 5623POPC   C1A71199  42.693   5.001   6.234
 5623POPC   D2A71200  42.684   5.149   6.640
 5623POPC   C3A71201  42.987   4.992   6.878
 5623POPC   C4A71202  42.868   5.236   7.223
 5623POPC   C1B71203  43.151   5.273   6.336
 5623POPC   C2B71204  43.282   5.398   6.767
 5623POPC   C3B71205  43.331   5.411   7.197
 5623POPC   C4B71206  43.292   4.955   7.304
 5624POPC   NC371207  33.429  33.438   5.712
 5624POPC   PO471208  33.876  33.405   5.225
 5624POPC   GL171209  33.796  33.808   5.692
 5624POPC   GL271210  33.701  33.670   6.044
 5624POPC   C1A71211  34.035  33.989   6.156
 5624POPC   D2A71212  33.919  33.797   6.622
 5624POPC   C3A71213  33.962  34.020   7.083
 5624POPC   C4A71214  34.111  34.144   7.534
 5624POPC   C1B71215  33.462  33.512   6.365
 5624POPC   C2B71216  33.424  33.633   6.775
 5624POPC   C3B71217  33.619  33.643   7.161
 5624POPC   C4B71218  33.632  33.836   7.591
 5625POPC   NC371219  17.846  22.412   5.480
 5625POPC   PO471220  18.210  21.857   5.501
 5625POPC   GL171221  18.073  22.038   5.859
 5625POPC   GL271222  18.286  22.339   5.886
 5625POPC   C1A71223  18.251  22.016   6.275
 5625POPC   D2A71224  18.464  22.119   6.642
 5625POPC   C3A71225  18.164  22.300   6.876
 5625POPC   C4A71226  18.065  22.295   7.287
 5625POPC   C1B71227  18.646  22.429   6.217
 5625POPC   C2B71228  18.679  22.660   6.627
 5625POPC   C3B71229  18.564  22.556   7.062
 5625POPC   C4B71230  18.541  22.120   7.205
 5626POPC   NC371231  12.642  44.507   5.076
 5626POPC   PO471232  12.818  43.919   5.376
 5626POPC   GL171233  12.956  43.752   5.777
 5626POPC   GL271234  12.833  44.064   5.902
 5626POPC   C1A71235  12.830  43.559   6.159
 5626POPC   D2A71236  12.559  43.562   6.523
 5626POPC   C3A71237  12.763  43.708   6.864
 5626POPC   C4A71238  12.699  43.620   7.282
 5626POPC   C1B71239  12.643  44.035   6.315
 5626POPC   C2B71240  12.443  44.122   6.724
 5626POPC   C3B71241  12.587  44.087   7.148
 5626POPC   C4B71242  13.072  43.977   7.210
 5627POPC   NC371243  24.830  10.262   5.497
 5627POPC   PO471244  24.472  10.796   5.295
 5627POPC   GL171245  24.506  10.663   5.735
 5627POPC   GL271246  24.867  10.691   5.755
 5627POPC   C1A71247  24.262  10.519   6.143
 5627POPC   D2A71248  24.163  10.304   6.563
 5627POPC   C3A71249  24.449  10.333   6.936
 5627POPC   C4A71250  24.571  10.650   7.250
 5627POPC   C1B71251  24.762  10.441   6.123
 5627POPC   C2B71252  24.679  10.574   6.528
 5627POPC   C3B71253  24.926  10.571   6.885
 5627POPC   C4B71254  24.931  10.277   7.213
 5628POPC   NC371255  41.738  28.002   5.498
 5628POPC   PO471256  41.154  28.369   5.519
 5628POPC   GL171257  41.487  28.358   5.781
 5628POPC   GL271258  41.403  28.032   5.876
 5628POPC   C1A71259  41.791  28.536   6.066
 5628POPC   D2A71260  41.848  28.657   6.490
 5628POPC   C3A71261  41.770  28.393   6.824
 5628POPC   C4A71262  41.683  28.515   7.242
 5628POPC   C1B71263  41.578  28.110   6.267
 5628POPC   C2B71264  41.344  28.140   6.627
 5628POPC   C3B71265  41.412  28.068   7.040
 5628POPC   C4B71266  41.304  28.244   7.463
 5629POPC   NC371267  17.613  36.702   5.103
 5629POPC   PO471268  17.320  37.159   5.511
 5629POPC   GL171269  17.486  36.898   5.845
 5629POPC   GL271270  17.234  36.654   5.880
 5629POPC   C1A71271  17.628  36.920   6.287
 5629POPC   D2A71272  17.750  37.235   6.569
 5629POPC   C3A71273  17.707  37.165   7.022
 5629POPC   C4A71274  17.754  36.779   7.282
 5629POPC   C1B71275  17.122  36.917   6.256
 5629POPC   C2B71276  17.290  36.985   6.692
 5629POPC   C3B71277  17.267  36.858   7.125
 5629POPC   C4B71278  17.305  36.567   7.479
 5630POPC   NC371279  15.986   1.095   5.227
 5630POPC   PO471280  16.240   1.657   5.214
 5630POPC   GL171281  16.042   1.436   5.634
 5630POPC   GL271282  15.848   1.088   5.717
 5630POPC   C1A71283  16.004   1.392   6.109
 5630POPC   D2A71284  16.208   1.400   6.532
 5630POPC   C3A71285  16.002   1.202   6.870
 5630POPC   C4A71286  16.160   1.000   7.234
 5630POPC   C1B71287  15.555   1.161   6.064
 5630POPC   C2B71288  15.622   1.279   6.501
 5630POPC   C3B71289  15.490   1.059   6.906
 5630POPC   C4B71290  15.661   1.112   7.299
 5631POPC   NC371291   0.625   1.437   5.347
 5631POPC   PO471292   0.164   0.955   5.402
 5631POPC   GL171293   0.377   1.146   5.756
 5631POPC   GL271294   0.657   0.903   5.757
 5631POPC   C1A71295   0.357   1.409   6.158
 5631POPC   D2A71296   0.175   1.445   6.603
 5631POPC   C3A71297   0.432   1.269   6.957
 5631POPC   C4A71298   0.694   1.455   7.274
 5631POPC   C1B71299   0.480   0.896   6.192
 5631POPC   C2B71300   0.634   0.914   6.607
 5631POPC   C3B71301   0.835   0.854   6.991
 5631POPC   C4B71302   0.655   0.962   7.344
 5632POPC   NC371303  33.932  36.282   5.515
 5632POPC   PO471304  33.415  35.856   5.284
 5632POPC   GL171305  33.631  35.894   5.763
 5632POPC   GL271306  33.947  36.056   5.951
 5632POPC   C1A71307  33.632  35.813   6.231
 5632POPC   D2A71308  33.924  35.931   6.568
 5632POPC   C3A71309  33.777  36.160   6.925
 5632POPC   C4A71310  33.618  36.009   7.294
 5632POPC   C1B71311  34.103  36.397   6.216
 5632POPC   C2B71312  34.223  36.368   6.641
 5632POPC   C3B71313  34.133  36.534   7.037
 5632POPC   C4B71314  33.885  36.449   7.360
 5633POPC   NC371315  22.187  24.895   5.469
 5633POPC   PO471316  22.068  24.235   5.547
 5633POPC   GL171317  22.267  24.529   5.825
 5633POPC   GL271318  21.944  24.709   5.897
 5633POPC   C1A71319  22.436  24.611   6.237
 5633POPC   D2A71320  22.208  24.518   6.639
 5633POPC   C3A71321  22.343  24.549   7.068
 5633POPC   C4A71322  22.279  24.599   7.515
 5633POPC   C1B71323  21.966  24.359   6.212
 5633POPC   C2B71324  21.832  24.145   6.600
 5633POPC   C3B71325  21.907  24.263   7.022
 5633POPC   C4B71326  22.083  24.113   7.423
 5634POPC   NC371327  15.464  19.271   5.453
 5634POPC   PO471328  15.255  19.992   5.342
 5634POPC   GL171329  15.241  19.916   5.789
 5634POPC   GL271330  15.199  19.566   5.804
 5634POPC   C1A71331  15.373  20.083   6.224
 5634POPC   D2A71332  15.319  20.290   6.643
 5634POPC   C3A71333  14.932  20.132   6.866
 5634POPC   C4A71334  14.841  19.700   7.018
 5634POPC   C1B71335  15.381  19.563   6.221
 5634POPC   C2B71336  15.500  19.749   6.652
 5634POPC   C3B71337  15.337  19.815   7.083
 5634POPC   C4B71338  15.153  19.505   7.393
 5635POPC   NC371339  25.110  36.555   5.304
 5635POPC   PO471340  25.426  37.036   5.539
 5635POPC   GL171341  25.379  36.926   5.933
 5635POPC   GL271342  25.387  36.582   5.839
 5635POPC   C1A71343  25.280  37.037   6.332
 5635POPC   D2A71344  25.100  36.919   6.709
 5635POPC   C3A71345  25.206  37.252   6.987
 5635POPC   C4A71346  25.435  37.338   7.351
 5635POPC   C1B71347  25.116  36.542   6.211
 5635POPC   C2B71348  25.173  36.392   6.639
 5635POPC   C3B71349  25.315  36.565   7.030
 5635POPC   C4B71350  25.173  36.868   7.305
 5636POPC   NC371351  34.051   8.533   5.418
 5636POPC   PO471352  33.533   8.988   5.457
 5636POPC   GL171353  33.762   8.969   5.843
 5636POPC   GL271354  33.779   8.628   5.865
 5636POPC   C1A71355  33.762   9.146   6.278
 5636POPC   D2A71356  33.723   8.977   6.702
 5636POPC   C3A71357  33.426   9.195   6.961
 5636POPC   C4A71358  33.585   9.403   7.341
 5636POPC   C1B71359  34.093   8.754   6.209
 5636POPC   C2B71360  34.171   8.669   6.660
 5636POPC   C3B71361  34.009   8.758   7.081
 5636POPC   C4B71362  33.640   8.859   7.266
 5637POPC   NC371363  16.173  16.994   5.503
 5637POPC   PO471364  15.875  17.657   5.395
 5637POPC   GL171365  15.975  17.394   5.749
 5637POPC   GL271366  15.675  17.360   5.912
 5637POPC   C1A71367  16.147  17.264   6.146
 5637POPC   D2A71368  16.101  17.383   6.581
 5637POPC   C3A71369  16.389  17.291   6.889
 5637POPC   C4A71370  16.258  17.376   7.308
 5637POPC   C1B71371  15.711  17.532   6.288
 5637POPC   C2B71372  15.570  17.363   6.672
 5637POPC   C3B71373  15.805  17.410   7.055
 5637POPC   C4B71374  15.956  17.801   7.257
 5638POPC   NC371375   3.045  42.130   5.464
 5638POPC   PO471376   2.746  41.532   5.326
 5638POPC   GL171377   2.789  41.588   5.778
 5638POPC   GL271378   2.812  41.930   5.908
 5638POPC   C1A71379   2.790  41.477   6.223
 5638POPC   D2A71380   2.536  41.344   6.554
 5638POPC   C3A71381   2.601  41.514   6.969
 5638POPC   C4A71382   2.471  41.693   7.358
 5638POPC   C1B71383   2.992  41.937   6.341
 5638POPC   C2B71384   3.038  41.809   6.802
 5638POPC   C3B71385   2.961  41.805   7.267
 5638POPC   C4B71386   2.995  41.978   7.695
 5639POPC   NC371387  40.495  41.130   5.550
 5639POPC   PO471388  40.896  41.615   5.687
 5639POPC   GL171389  40.851  41.447   6.041
 5639POPC   GL271390  40.530  41.316   6.014
 5639POPC   C1A71391  40.631  41.711   6.347
 5639POPC   D2A71392  40.435  41.635   6.720
 5639POPC   C3A71393  40.489  41.833   7.090
 5639POPC   C4A71394  40.821  41.660   7.299
 5639POPC   C1B71395  40.676  41.103   6.377
 5639POPC   C2B71396  40.727  41.205   6.791
 5639POPC   C3B71397  40.994  41.049   7.095
 5639POPC   C4B71398  40.806  41.131   7.458
 5640POPC   NC371399   7.766  15.511   5.536
 5640POPC   PO471400   7.280  15.106   5.296
 5640POPC   GL171401   7.220  15.061   5.750
 5640POPC   GL271402   7.318  15.408   5.808
 5640POPC   C1A71403   7.110  15.129   6.195
 5640POPC   D2A71404   7.401  15.085   6.547
 5640POPC   C3A71405   7.264  15.101   6.987
 5640POPC   C4A71406   7.573  14.956   7.283
 5640POPC   C1B71407   7.630  15.337   6.137
 5640POPC   C2B71408   7.777  15.457   6.523
 5640POPC   C3B71409   7.779  15.230   6.881
 5640POPC   C4B71410   7.579  15.461   7.215
 5641POPC   NC371411  28.497  13.670   5.330
 5641POPC   PO471412  28.047  13.268   5.496
 5641POPC   GL171413  28.248  13.584   5.796
 5641POPC   GL271414  28.593  13.593   5.838
 5641POPC   C1A71415  28.344  13.436   6.250
 5641POPC   D2A71416  28.717  13.335   6.512
 5641POPC   C3A71417  28.540  13.424   6.933
 5641POPC   C4A71418  28.121  13.512   7.073
 5641POPC   C1B71419  28.541  13.914   6.188
 5641POPC   C2B71420  28.752  14.105   6.547
 5641POPC   C3B71421  28.677  13.952   6.975
 5641POPC   C4B71422  28.246  14.011   7.117
 5642POPC   NC371423  28.428   8.408   5.402
 5642POPC   PO471424  28.046   8.038   5.727
 5642POPC   GL171425  28.202   8.385   5.869
 5642POPC   GL271426  28.532   8.218   5.901
 5642POPC   C1A71427  28.155   8.548   6.263
 5642POPC   D2A71428  28.208   8.222   6.520
 5642POPC   C3A71429  28.238   8.264   6.933
 5642POPC   C4A71430  28.045   8.386   7.312
 5642POPC   C1B71431  28.673   7.984   6.252
 5642POPC   C2B71432  28.596   7.930   6.669
 5642POPC   C3B71433  28.628   7.919   7.093
 5642POPC   C4B71434  28.480   8.156   7.402
 5643POPC   NC371435   2.035  33.453   5.449
 5643POPC   PO471436   2.339  32.898   5.378
 5643POPC   GL171437   2.204  33.130   5.816
 5643POPC   GL271438   1.846  33.288   5.883
 5643POPC   C1A71439   2.115  33.149   6.309
 5643POPC   D2A71440   2.052  32.926   6.730
 5643POPC   C3A71441   2.253  33.110   7.094
 5643POPC   C4A71442   2.077  33.260   7.496
 5643POPC   C1B71443   1.630  33.393   6.269
 5643POPC   C2B71444   1.762  33.334   6.695
 5643POPC   C3B71445   1.745  33.130   7.118
 5643POPC   C4B71446   1.558  33.345   7.467
 5644POPC   NC371447  14.484   5.674   5.584
 5644POPC   PO471448  14.794   6.173   5.247
 5644POPC   GL171449  14.817   6.052   5.777
 5644POPC   GL271450  14.472   6.164   6.022
 5644POPC   C1A71451  14.761   5.855   6.236
 5644POPC   D2A71452  14.571   6.141   6.560
 5644POPC   C3A71453  14.600   5.981   6.964
 5644POPC   C4A71454  14.753   5.580   7.061
 5644POPC   C1B71455  14.226   5.847   6.290
 5644POPC   C2B71456  14.340   5.613   6.692
 5644POPC   C3B71457  14.153   5.715   7.068
 5644POPC   C4B71458  14.039   6.125   7.081
 5645POPC   NC371459  28.268  11.648   5.403
 5645POPC   PO471460  28.058  10.930   5.466
 5645POPC   GL171461  28.131  11.282   5.768
 5645POPC   GL271462  28.456  11.490   5.849
 5645POPC   C1A71463  28.055  11.404   6.191
 5645POPC   D2A71464  28.136  11.242   6.610
 5645POPC   C3A71465  28.146  11.506   6.990
 5645POPC   C4A71466  28.277  11.213   7.314
 5645POPC   C1B71467  28.536  11.162   6.127
 5645POPC   C2B71468  28.647  11.125   6.540
 5645POPC   C3B71469  28.624  11.391   6.877
 5645POPC   C4B71470  28.763  11.436   7.266
 5646POPC   NC371471  15.014  24.619   5.374
 5646POPC   PO471472  15.615  24.867   5.539
 5646POPC   GL171473  15.425  24.588   5.795
 5646POPC   GL271474  15.064  24.512   5.861
 5646POPC   C1A71475  15.348  24.709   6.215
 5646POPC   D2A71476  15.070  24.479   6.467
 5646POPC   C3A71477  15.200  24.291   6.859
 5646POPC   C4A71478  15.435  24.550   7.122
 5646POPC   C1B71479  14.841  24.837   6.135
 5646POPC   C2B71480  14.688  24.826   6.535
 5646POPC   C3B71481  14.897  24.730   6.918
 5646POPC   C4B71482  14.847  24.867   7.313
 5647POPC   NC371483  12.952  27.924   4.991
 5647POPC   PO471484  12.970  28.467   5.396
 5647POPC   GL171485  12.960  28.379   5.840
 5647POPC   GL271486  12.969  28.023   5.863
 5647POPC   C1A71487  12.738  28.327   6.214
 5647POPC   D2A71488  12.886  28.450   6.594
 5647POPC   C3A71489  12.749  28.324   6.962
 5647POPC   C4A71490  12.708  28.455   7.350
 5647POPC   C1B71491  13.187  28.090   6.275
 5647POPC   C2B71492  13.204  28.088   6.756
 5647POPC   C3B71493  13.121  28.058   7.212
 5647POPC   C4B71494  12.865  28.048   7.598
 5648POPC   NC371495  44.611   8.842   5.310
 5648POPC   PO471496   0.004   9.369   5.379
 5648POPC   GL171497  44.925   9.057   5.711
 5648POPC   GL271498  44.565   9.074   5.756
 5648POPC   C1A71499  44.838   8.966   6.188
 5648POPC   D2A71500  44.745   9.215   6.603
 5648POPC   C3A71501  44.922   9.073   6.999
 5648POPC   C4A71502  44.813   8.706   7.198
 5648POPC   C1B71503  44.410   9.297   6.143
 5648POPC   C2B71504  44.234   9.158   6.559
 5648POPC   C3B71505  44.395   9.011   6.969
 5648POPC   C4B71506  44.316   9.286   7.306
 5649POPC   NC371507   4.393  11.376   5.327
 5649POPC   PO471508   3.824  11.106   5.453
 5649POPC   GL171509   4.159  11.184   5.739
 5649POPC   GL271510   4.203  11.561   5.790
 5649POPC   C1A71511   4.412  11.197   6.099
 5649POPC   D2A71512   4.259  11.134   6.500
 5649POPC   C3A71513   4.556  11.153   6.826
 5649POPC   C4A71514   4.386  11.120   7.233
 5649POPC   C1B71515   4.157  11.612   6.264
 5649POPC   C2B71516   4.430  11.611   6.632
 5649POPC   C3B71517   4.468  11.611   7.081
 5649POPC   C4B71518   4.247  11.583   7.432
 5650POPC   NC371519   6.566  38.816   5.491
 5650POPC   PO471520   6.870  38.194   5.397
 5650POPC   GL171521   6.741  38.383   5.782
 5650POPC   GL271522   6.955  38.648   5.871
 5650POPC   C1A71523   6.677  38.325   6.240
 5650POPC   D2A71524   6.454  38.510   6.612
 5650POPC   C3A71525   6.537  38.384   7.044
 5650POPC   C4A71526   6.441  38.672   7.360
 5650POPC   C1B71527   7.046  38.863   6.251
 5650POPC   C2B71528   7.011  38.623   6.631
 5650POPC   C3B71529   7.056  38.528   7.059
 5650POPC   C4B71530   7.334  38.773   7.289
 5651POPC   NC371531  33.255   4.245   5.386
 5651POPC   PO471532  33.946   4.298   5.383
 5651POPC   GL171533  33.767   4.243   5.799
 5651POPC   GL271534  33.406   4.368   5.877
 5651POPC   C1A71535  33.767   4.076   6.218
 5651POPC   D2A71536  33.609   4.243   6.589
 5651POPC   C3A71537  33.702   4.143   6.984
 5651POPC   C4A71538  33.600   4.482   7.222
 5651POPC   C1B71539  33.634   4.598   6.216
 5651POPC   C2B71540  33.889   4.673   6.585
 5651POPC   C3B71541  34.057   4.533   6.962
 5651POPC   C4B71542  34.171   4.693   7.336
 5652POPC   NC371543  43.696  41.453   5.213
 5652POPC   PO471544  44.311  41.702   5.404
 5652POPC   GL171545  44.095  41.447   5.730
 5652POPC   GL271546  43.775  41.617   5.797
 5652POPC   C1A71547  44.030  41.333   6.175
 5652POPC   D2A71548  43.858  41.554   6.562
 5652POPC   C3A71549  43.877  41.456   7.026
 5652POPC   C4A71550  43.893  41.525   7.463
 5652POPC   C1B71551  43.892  41.920   6.161
 5652POPC   C2B71552  43.827  42.044   6.605
 5652POPC   C3B71553  43.547  41.826   6.879
 5652POPC   C4B71554  43.450  41.699   7.282
 5653POPC   NC371555  13.810  41.738   5.213
 5653POPC   PO471556  13.276  41.765   5.500
 5653POPC   GL171557  13.519  41.576   5.783
 5653POPC   GL271558  13.313  41.256   5.812
 5653POPC   C1A71559  13.724  41.302   6.087
 5653POPC   D2A71560  13.587  41.221   6.500
 5653POPC   C3A71561  13.802  41.479   6.811
 5653POPC   C4A71562  13.963  41.309   7.173
 5653POPC   C1B71563  13.227  41.484   6.195
 5653POPC   C2B71564  13.167  41.564   6.607
 5653POPC   C3B71565  13.331  41.346   6.936
 5653POPC   C4B71566  13.468  41.476   7.349
 5654POPC   NC371567  10.369  14.014   5.460
 5654POPC   PO471568  10.329  14.678   5.266
 5654POPC   GL171569  10.531  14.608   5.693
 5654POPC   GL271570  10.651  14.258   5.801
 5654POPC   C1A71571  10.499  14.756   6.134
 5654POPC   D2A71572  10.306  14.602   6.541
 5654POPC   C3A71573  10.514  14.602   6.955
 5654POPC   C4A71574  10.477  14.475   7.429
 5654POPC   C1B71575  10.534  14.242   6.230
 5654POPC   C2B71576  10.713  14.255   6.647
 5654POPC   C3B71577  10.516  14.096   7.056
 5654POPC   C4B71578  10.611  13.936   7.486
 5655POPC   NC371579   6.031  39.235   5.422
 5655POPC   PO471580   5.453  39.287   5.078
 5655POPC   GL171581   5.621  39.489   5.590
 5655POPC   GL271582   5.997  39.567   5.785
 5655POPC   C1A71583   5.622  39.515   6.090
 5655POPC   D2A71584   5.715  39.299   6.495
 5655POPC   C3A71585   5.590  39.363   6.925
 5655POPC   C4A71586   5.910  39.376   7.214
 5655POPC   C1B71587   5.986  39.148   6.074
 5655POPC   C2B71588   6.117  38.949   6.486
 5655POPC   C3B71589   6.256  39.187   6.866
 5655POPC   C4B71590   6.364  39.167   7.318
 5656POPC   NC371591  12.527  31.597   5.395
 5656POPC   PO471592  12.604  32.271   5.240
 5656POPC   GL171593  12.709  32.251   5.686
 5656POPC   GL271594  13.058  32.185   5.769
 5656POPC   C1A71595  12.727  32.356   6.149
 5656POPC   D2A71596  12.527  32.220   6.539
 5656POPC   C3A71597  12.713  32.119   6.958
 5656POPC   C4A71598  12.441  32.097   7.305
 5656POPC   C1B71599  13.087  32.007   6.193
 5656POPC   C2B71600  13.048  32.245   6.577
 5656POPC   C3B71601  13.128  32.428   6.985
 5656POPC   C4B71602  13.317  32.085   7.169
 5657POPC   NC371603  44.431  16.042   5.467
 5657POPC   PO471604  44.996  15.676   5.514
 5657POPC   GL171605  44.803  15.496   5.866
 5657POPC   GL271606  44.448  15.590   5.813
 5657POPC   C1A71607  44.848  15.641   6.277
 5657POPC   D2A71608  44.800  15.997   6.519
 5657POPC   C3A71609  44.756  15.903   6.937
 5657POPC   C4A71610  44.935  16.068   7.288
 5657POPC   C1B71611  44.327  15.745   6.225
 5657POPC   C2B71612  44.391  15.631   6.662
 5657POPC   C3B71613  44.271  15.791   7.077
 5657POPC   C4B71614  44.420  15.983   7.451
 5658POPC   NC371615  44.250   5.090   5.381
 5658POPC   PO471616  43.696   4.753   5.320
 5658POPC   GL171617  43.739   5.035   5.672
 5658POPC   GL271618  44.061   5.064   5.846
 5658POPC   C1A71619  43.624   5.176   6.088
 5658POPC   D2A71620  43.587   5.009   6.493
 5658POPC   C3A71621  43.920   5.128   6.776
 5658POPC   C4A71622  43.761   5.106   7.176
 5658POPC   C1B71623  44.060   5.040   6.290
 5658POPC   C2B71624  44.213   5.441   6.445
 5658POPC   C3B71625  44.284   5.620   6.834
 5658POPC   C4B71626  44.202   5.335   7.184
 5659POPC   NC371627  30.177   2.978   5.006
 5659POPC   PO471628  30.668   2.664   5.376
 5659POPC   GL171629  30.857   2.775   5.770
 5659POPC   GL271630  30.599   2.604   5.942
 5659POPC   C1A71631  30.971   2.796   6.218
 5659POPC   D2A71632  30.884   2.505   6.553
 5659POPC   C3A71633  30.984   2.767   6.890
 5659POPC   C4A71634  31.036   2.709   7.288
 5659POPC   C1B71635  30.416   2.650   6.352
 5659POPC   C2B71636  30.455   2.682   6.818
 5659POPC   C3B71637  30.493   2.811   7.268
 5659POPC   C4B71638  30.350   2.760   7.717
 5660POPC   NC371639  36.859  25.578   5.330
 5660POPC   PO471640  36.634  24.986   5.520
 5660POPC   GL171641  36.823  25.285   5.754
 5660POPC   GL271642  36.507  25.459   5.819
 5660POPC   C1A71643  36.919  25.435   6.168
 5660POPC   D2A71644  36.880  25.226   6.581
 5660POPC   C3A71645  37.205  25.170   6.907
 5660POPC   C4A71646  37.092  25.131   7.352
 5660POPC   C1B71647  36.422  25.343   6.268
 5660POPC   C2B71648  36.406  25.387   6.733
 5660POPC   C3B71649  36.687  25.319   7.088
 5660POPC   C4B71650  36.647  25.403   7.543
 5661POPC   NC371651   0.842  17.625   5.543
 5661POPC   PO471652   0.273  17.338   5.379
 5661POPC   GL171653   0.433  17.434   5.801
 5661POPC   GL271654   0.761  17.283   5.902
 5661POPC   C1A71655   0.239  17.449   6.224
 5661POPC   D2A71656   0.404  17.459   6.629
 5661POPC   C3A71657   0.353  17.734   6.954
 5661POPC   C4A71658   0.474  17.664   7.366
 5661POPC   C1B71659   0.736  17.609   6.209
 5661POPC   C2B71660   0.894  17.639   6.616
 5661POPC   C3B71661   0.844  17.360   6.925
 5661POPC   C4B71662   0.898  17.344   7.325
 5662POPC   NC371663  44.161  40.382   5.412
 5662POPC   PO471664  43.907  41.044   5.402
 5662POPC   GL171665  43.894  40.804   5.803
 5662POPC   GL271666  43.795  40.438   5.811
 5662POPC   C1A71667  43.922  40.802   6.265
 5662POPC   D2A71668  44.033  41.091   6.635
 5662POPC   C3A71669  44.300  41.176   7.005
 5662POPC   C4A71670  44.102  40.872   7.280
 5662POPC   C1B71671  43.619  40.367   6.246
 5662POPC   C2B71672  43.709  40.538   6.676
 5662POPC   C3B71673  43.620  40.756   7.070
 5662POPC   C4B71674  43.675  40.644   7.502
 5663POPC   NC371675  14.056  18.185   5.378
 5663POPC   PO471676  14.716  18.442   5.204
 5663POPC   GL171677  14.471  18.440   5.607
 5663POPC   GL271678  14.702  18.391   5.915
 5663POPC   C1A71679  14.226  18.393   6.025
 5663POPC   D2A71680  14.473  18.406   6.431
 5663POPC   C3A71681  14.277  18.328   6.816
 5663POPC   C4A71682  14.360  18.442   7.221
 5663POPC   C1B71683  14.547  17.996   6.146
 5663POPC   C2B71684  14.435  17.886   6.616
 5663POPC   C3B71685  14.521  17.954   7.106
 5663POPC   C4B71686  14.851  17.839   7.450
 5664POPC   NC371687   8.619   7.389   5.455
 5664POPC   PO471688   9.184   7.017   5.446
 5664POPC   GL171689   8.918   7.104   5.756
 5664POPC   GL271690   8.982   7.439   5.836
 5664POPC   C1A71691   8.682   7.172   6.124
 5664POPC   D2A71692   8.772   7.534   6.368
 5664POPC   C3A71693   8.775   7.450   6.800
 5664POPC   C4A71694   8.920   7.505   7.188
 5664POPC   C1B71695   9.271   7.528   6.160
 5664POPC   C2B71696   9.290   7.464   6.600
 5664POPC   C3B71697   9.383   7.581   7.018
 5664POPC   C4B71698   9.264   7.721   7.488
 5665POPC   NC371699   7.521  10.216   5.495
 5665POPC   PO471700   7.155  10.668   5.461
 5665POPC   GL171701   7.224  10.473   5.822
 5665POPC   GL271702   7.551  10.536   5.913
 5665POPC   C1A71703   7.137  10.621   6.214
 5665POPC   D2A71704   7.139  10.419   6.590
 5665POPC   C3A71705   7.108  10.681   6.931
 5665POPC   C4A71706   7.242  10.727   7.331
 5665POPC   C1B71707   7.502  10.263   6.255
 5665POPC   C2B71708   7.617  10.180   6.690
 5665POPC   C3B71709   7.501  10.254   7.123
 5665POPC   C4B71710   7.638  10.464   7.512
 5666POPC   NC371711   9.820   0.039   5.414
 5666POPC   PO471712   9.547   0.620   5.341
 5666POPC   GL171713   9.604   0.445   5.762
 5666POPC   GL271714   9.957   0.407   5.763
 5666POPC   C1A71715   9.700   0.238   6.195
 5666POPC   D2A71716   9.718   0.413   6.643
 5666POPC   C3A71717   9.704   0.285   7.085
 5666POPC   C4A71718   9.610   0.256   7.530
 5666POPC   C1B71719   9.943   0.690   6.141
 5666POPC   C2B71720  10.135   0.694   6.561
 5666POPC   C3B71721  10.070   0.786   6.992
 5666POPC   C4B71722  10.079   0.516   7.332
 5667POPC   NC371723  11.551  40.662   5.420
 5667POPC   PO471724  10.957  40.965   5.198
 5667POPC   GL171725  11.133  41.022   5.659
 5667POPC   GL271726  11.334  40.804   5.835
 5667POPC   C1A71727  11.100  41.122   6.134
 5667POPC   D2A71728  11.120  40.864   6.512
 5667POPC   C3A71729  10.883  40.949   6.879
 5667POPC   C4A71730  10.990  40.628   7.135
 5667POPC   C1B71731  11.587  40.655   6.127
 5667POPC   C2B71732  11.623  40.691   6.564
 5667POPC   C3B71733  11.487  40.758   6.966
 5667POPC   C4B71734  11.287  41.071   7.188
 5668POPC   NC371735   1.360  24.056   5.288
 5668POPC   PO471736   0.954  23.524   5.216
 5668POPC   GL171737   1.070  23.724   5.642
 5668POPC   GL271738   1.419  23.850   5.745
 5668POPC   C1A71739   1.075  23.775   6.114
 5668POPC   D2A71740   1.188  23.975   6.512
 5668POPC   C3A71741   1.356  23.771   6.858
 5668POPC   C4A71742   1.119  23.659   7.210
 5668POPC   C1B71743   1.488  24.148   6.106
 5668POPC   C2B71744   1.685  24.113   6.531
 5668POPC   C3B71745   1.523  24.254   6.930
 5668POPC   C4B71746   1.431  24.068   7.301
 5669POPC   NC371747  34.377  12.059   5.506
 5669POPC   PO471748  34.881  11.990   5.159
 5669POPC   GL171749  34.817  11.914   5.697
 5669POPC   GL271750  34.516  11.754   5.873
 5669POPC   C1A71751  34.787  12.080   6.175
 5669POPC   D2A71752  35.022  11.980   6.576
 5669POPC   C3A71753  34.848  12.079   6.988
 5669POPC   C4A71754  34.572  12.224   7.333
 5669POPC   C1B71755  34.309  11.922   6.248
 5669POPC   C2B71756  34.511  11.880   6.647
 5669POPC   C3B71757  34.379  11.832   7.068
 5669POPC   C4B71758  34.306  11.830   7.537
 5670POPC   NC371759   6.135  36.465   5.104
 5670POPC   PO471760   5.931  35.892   5.436
 5670POPC   GL171761   6.019  35.949   5.843
 5670POPC   GL271762   5.771  36.206   5.915
 5670POPC   C1A71763   5.923  35.857   6.272
 5670POPC   D2A71764   5.857  35.941   6.696
 5670POPC   C3A71765   5.979  36.276   6.972
 5670POPC   C4A71766   5.895  36.048   7.320
 5670POPC   C1B71767   5.516  36.423   6.223
 5670POPC   C2B71768   5.584  36.402   6.680
 5670POPC   C3B71769   5.457  36.261   7.095
 5670POPC   C4B71770   5.553  36.425   7.495
 5671POPC   NC371771  14.342  10.791   5.067
 5671POPC   PO471772  14.341  11.344   5.467
 5671POPC   GL171773  14.571  11.307   5.853
 5671POPC   GL271774  14.738  10.990   5.850
 5671POPC   C1A71775  14.559  11.493   6.290
 5671POPC   D2A71776  14.316  11.318   6.635
 5671POPC   C3A71777  14.079  11.527   6.956
 5671POPC   C4A71778  14.371  11.426   7.261
 5671POPC   C1B71779  14.589  10.971   6.269
 5671POPC   C2B71780  14.767  10.834   6.644
 5671POPC   C3B71781  14.700  10.982   7.036
 5671POPC   C4B71782  14.349  10.901   7.215
 5672POPC   NC371783  12.932  38.358   5.433
 5672POPC   PO471784  12.438  38.902   5.372
 5672POPC   GL171785  12.701  38.752   5.748
 5672POPC   GL271786  13.081  38.773   5.745
 5672POPC   C1A71787  12.688  38.513   6.169
 5672POPC   D2A71788  12.964  38.329   6.522
 5672POPC   C3A71789  12.866  38.422   6.981
 5672POPC   C4A71790  12.824  38.289   7.406
 5672POPC   C1B71791  13.150  38.738   6.206
 5672POPC   C2B71792  13.386  38.681   6.603
 5672POPC   C3B71793  13.285  38.772   7.022
 5672POPC   C4B71794  13.059  38.748   7.391
 5673POPC   NC371795  23.497  15.543   5.602
 5673POPC   PO471796  23.526  16.264   5.625
 5673POPC   GL171797  23.745  16.230   5.988
 5673POPC   GL271798  23.747  15.880   5.927
 5673POPC   C1A71799  23.778  16.110   6.410
 5673POPC   D2A71800  23.504  16.060   6.733
 5673POPC   C3A71801  23.631  16.262   7.140
 5673POPC   C4A71802  23.964  16.138   7.505
 5673POPC   C1B71803  24.036  15.685   6.196
 5673POPC   C2B71804  23.942  15.556   6.616
 5673POPC   C3B71805  23.850  15.795   7.006
 5673POPC   C4B71806  23.394  15.802   7.157
 5674POPC   NC371807   0.739  14.656   5.557
 5674POPC   PO471808   1.305  14.197   5.573
 5674POPC   GL171809   1.157  14.509   5.838
 5674POPC   GL271810   1.330  14.786   5.666
 5674POPC   C1A71811   1.123  14.415   6.276
 5674POPC   D2A71812   0.913  14.463   6.671
 5674POPC   C3A71813   1.152  14.442   7.070
 5674POPC   C4A71814   1.466  14.319   7.389
 5674POPC   C1B71815   1.411  14.871   6.116
 5674POPC   C2B71816   1.384  14.738   6.573
 5674POPC   C3B71817   1.365  14.902   6.994
 5674POPC   C4B71818   1.659  14.791   7.318
 5675POPC   NC371819   0.356   9.390   5.691
 5675POPC   PO471820   0.488   8.717   5.471
 5675POPC   GL171821   0.629   8.956   5.866
 5675POPC   GL271822   0.763   9.287   5.961
 5675POPC   C1A71823   0.414   9.087   6.267
 5675POPC   D2A71824   0.207   8.923   6.612
 5675POPC   C3A71825   0.403   8.801   7.011
 5675POPC   C4A71826   0.249   8.446   7.254
 5675POPC   C1B71827   0.916   9.225   6.341
 5675POPC   C2B71828   0.691   9.215   6.691
 5675POPC   C3B71829   0.697   9.307   7.088
 5675POPC   C4B71830   0.832   9.171   7.487
 5676POPC   NC371831   1.705  34.204   5.631
 5676POPC   PO471832   2.053  33.840   5.200
 5676POPC   GL171833   2.167  33.852   5.733
 5676POPC   GL271834   2.206  34.198   5.820
 5676POPC   C1A71835   2.037  33.692   6.206
 5676POPC   D2A71836   1.880  33.863   6.649
 5676POPC   C3A71837   1.780  33.655   7.086
 5676POPC   C4A71838   1.886  33.723   7.534
 5676POPC   C1B71839   2.150  34.185   6.280
 5676POPC   C2B71840   2.371  33.999   6.683
 5676POPC   C3B71841   2.144  34.010   7.120
 5676POPC   C4B71842   2.225  34.095   7.578
 5677POPC   NC371843  18.641   7.566   5.498
 5677POPC   PO471844  19.269   7.395   5.456
 5677POPC   GL171845  19.169   7.309   5.883
 5677POPC   GL271846  18.810   7.365   5.937
 5677POPC   C1A71847  19.092   7.172   6.305
 5677POPC   D2A71848  18.887   7.273   6.677
 5677POPC   C3A71849  19.188   7.320   7.012
 5677POPC   C4A71850  19.341   7.680   7.242
 5677POPC   C1B71851  18.985   7.672   6.254
 5677POPC   C2B71852  19.172   7.737   6.673
 5677POPC   C3B71853  18.899   7.737   7.017
 5677POPC   C4B71854  18.674   7.387   7.128
 5678POPC   NC371855   9.009  24.830   5.501
 5678POPC   PO471856   8.963  24.124   5.556
 5678POPC   GL171857   8.961  24.360   5.872
 5678POPC   GL271858   9.196  24.633   5.944
 5678POPC   C1A71859   8.997  24.233   6.280
 5678POPC   D2A71860   9.170  24.203   6.659
 5678POPC   C3A71861   8.857  24.120   6.965
 5678POPC   C4A71862   8.681  24.279   7.320
 5678POPC   C1B71863   8.791  24.705   6.182
 5678POPC   C2B71864   8.689  24.538   6.585
 5678POPC   C3B71865   8.814  24.654   6.995
 5678POPC   C4B71866   8.754  24.958   7.302
 5679POPC   NC371867  38.654   3.735   5.356
 5679POPC   PO471868  38.087   3.368   5.331
 5679POPC   GL171869  38.237   3.433   5.791
 5679POPC   GL271870  38.486   3.678   5.823
 5679POPC   C1A71871  38.167   3.254   6.241
 5679POPC   D2A71872  38.040   3.292   6.705
 5679POPC   C3A71873  38.344   3.181   7.042
 5679POPC   C4A71874  38.223   3.166   7.503
 5679POPC   C1B71875  38.632   3.481   6.185
 5679POPC   C2B71876  38.531   3.440   6.611
 5679POPC   C3B71877  38.534   3.668   6.965
 5679POPC   C4B71878  38.597   3.575   7.376
 5680POPC   NC371879  36.238  40.364   5.662
 5680POPC   PO471880  36.191  40.948   5.613
 5680POPC   GL171881  36.094  40.732   5.956
 5680POPC   GL271882  35.803  40.547   5.842
 5680POPC   C1A71883  36.267  40.627   6.345
 5680POPC   D2A71884  36.492  40.816   6.678
 5680POPC   C3A71885  36.312  40.738   7.064
 5680POPC   C4A71886  36.396  40.905   7.476
 5680POPC   C1B71887  35.819  40.349   6.227
 5680POPC   C2B71888  35.837  40.491   6.629
 5680POPC   C3B71889  35.964  40.384   7.050
 5680POPC   C4B71890  35.892  40.630   7.445
 5681POPC   NC371891  34.814  10.062   5.439
 5681POPC   PO471892  34.344   9.568   5.521
 5681POPC   GL171893  34.440   9.883   5.799
 5681POPC   GL271894  34.781   9.814   5.868
 5681POPC   C1A71895  34.414   9.785   6.228
 5681POPC   D2A71896  34.503   9.576   6.572
 5681POPC   C3A71897  34.297   9.712   6.927
 5681POPC   C4A71898  34.462   9.543   7.284
 5681POPC   C1B71899  34.817  10.089   6.194
 5681POPC   C2B71900  34.734  10.021   6.611
 5681POPC   C3B71901  34.803   9.830   6.990
 5681POPC   C4B71902  34.777   9.967   7.399
 5682POPC   NC371903   7.567  35.376   5.335
 5682POPC   PO471904   6.988  35.019   5.335
 5682POPC   GL171905   7.166  35.211   5.764
 5682POPC   GL271906   7.283  35.535   5.767
 5682POPC   C1A71907   7.343  35.191   6.209
 5682POPC   D2A71908   7.576  35.168   6.626
 5682POPC   C3A71909   7.352  35.175   7.027
 5682POPC   C4A71910   7.267  35.278   7.468
 5682POPC   C1B71911   7.506  35.687   6.137
 5682POPC   C2B71912   7.425  35.682   6.564
 5682POPC   C3B71913   7.587  35.633   6.969
 5682POPC   C4B71914   7.430  35.790   7.356
 5683POPC   NC371915  16.674  20.187   5.634
 5683POPC   PO471916  16.624  20.833   5.407
 5683POPC   GL171917  16.771  20.922   5.823
 5683POPC   GL271918  16.573  20.646   5.903
 5683POPC   C1A71919  16.606  21.046   6.276
 5683POPC   D2A71920  16.594  20.792   6.663
 5683POPC   C3A71921  16.581  20.837   7.162
 5683POPC   C4A71922  16.525  20.998   7.617
 5683POPC   C1B71923  16.501  20.361   6.228
 5683POPC   C2B71924  16.258  20.387   6.556
 5683POPC   C3B71925  16.440  20.376   6.907
 5683POPC   C4B71926  16.613  20.328   7.259
 5684POPC   NC371927  12.482  15.046   5.380
 5684POPC   PO471928  11.922  15.312   5.233
 5684POPC   GL171929  12.049  15.226   5.694
 5684POPC   GL271930  12.376  15.365   5.744
 5684POPC   C1A71931  11.943  15.124   6.176
 5684POPC   D2A71932  11.896  15.269   6.657
 5684POPC   C3A71933  11.862  14.956   7.016
 5684POPC   C4A71934  11.824  14.859   7.468
 5684POPC   C1B71935  12.435  15.042   6.061
 5684POPC   C2B71936  12.358  15.174   6.464
 5684POPC   C3B71937  12.348  15.096   6.883
 5684POPC   C4B71938  12.413  15.196   7.290
 5685POPC   NC371939  27.991   1.456   5.563
 5685POPC   PO471940  27.314   1.189   5.412
 5685POPC   GL171941  27.521   1.335   5.786
 5685POPC   GL271942  27.695   1.027   5.737
 5685POPC   C1A71943  27.794   1.433   6.181
 5685POPC   D2A71944  27.842   1.641   6.592
 5685POPC   C3A71945  27.695   1.433   6.963
 5685POPC   C4A71946  27.590   1.224   7.376
 5685POPC   C1B71947  27.604   0.964   6.172
 5685POPC   C2B71948  27.790   1.087   6.582
 5685POPC   C3B71949  27.750   0.924   6.985
 5685POPC   C4B71950  27.451   0.731   7.253
 5686POPC   NC371951  24.319  36.455   5.463
 5686POPC   PO471952  24.601  37.089   5.417
 5686POPC   GL171953  24.541  36.778   5.793
 5686POPC   GL271954  24.169  36.718   5.892
 5686POPC   C1A71955  24.559  36.751   6.258
 5686POPC   D2A71956  24.425  37.126   6.471
 5686POPC   C3A71957  24.326  37.186   6.855
 5686POPC   C4A71958  24.225  37.053   7.240
 5686POPC   C1B71959  24.037  36.816   6.330
 5686POPC   C2B71960  24.247  36.692   6.698
 5686POPC   C3B71961  24.653  36.595   6.849
 5686POPC   C4B71962  24.741  36.975   7.070
 5687POPC   NC371963   6.292  18.887   5.407
 5687POPC   PO471964   6.671  19.374   5.150
 5687POPC   GL171965   6.662  19.155   5.619
 5687POPC   GL271966   6.344  19.191   5.804
 5687POPC   C1A71967   6.732  19.141   6.105
 5687POPC   D2A71968   6.775  19.351   6.528
 5687POPC   C3A71969   6.649  19.223   6.937
 5687POPC   C4A71970   6.922  19.096   7.304
 5687POPC   C1B71971   6.258  18.935   6.168
 5687POPC   C2B71972   6.327  18.771   6.575
 5687POPC   C3B71973   6.241  18.914   6.996
 5687POPC   C4B71974   6.451  18.958   7.395
 5688POPC   NC371975  31.241  37.460   5.543
 5688POPC   PO471976  30.576  37.384   5.427
 5688POPC   GL171977  30.592  37.587   5.834
 5688POPC   GL271978  30.359  37.476   6.111
 5688POPC   C1A71979  30.845  37.513   6.195
 5688POPC   D2A71980  30.638  37.501   6.583
 5688POPC   C3A71981  30.884  37.497   6.930
 5688POPC   C4A71982  30.816  37.650   7.302
 5688POPC   C1B71983  30.489  37.885   6.280
 5688POPC   C2B71984  30.496  37.973   6.724
 5688POPC   C3B71985  30.385  37.758   7.095
 5688POPC   C4B71986  30.466  37.912   7.564
 5689POPC   NC371987  35.851  13.797   5.607
 5689POPC   PO471988  36.075  13.203   5.507
 5689POPC   GL171989  36.099  13.438   5.892
 5689POPC   GL271990  36.427  13.558   5.973
 5689POPC   C1A71991  36.059  13.616   6.323
 5689POPC   D2A71992  36.421  13.707   6.609
 5689POPC   C3A71993  36.261  13.821   7.016
 5689POPC   C4A71994  36.076  13.674   7.418
 5689POPC   C1B71995  36.441  13.267   6.291
 5689POPC   C2B71996  36.210  13.237   6.675
 5689POPC   C3B71997  36.258  13.302   7.103
 5689POPC   C4B71998  36.357  13.273   7.520
 5690POPC   NC371999  22.744   6.080   5.433
 5690POPC   PO472000  23.209   5.606   5.462
 5690POPC   GL172001  22.952   5.810   5.801
 5690POPC   GL272002  23.099   6.148   5.857
 5690POPC   C1A72003  22.711   6.032   6.152
 5690POPC   D2A72004  22.877   6.119   6.577
 5690POPC   C3A72005  22.871   5.762   6.840
 5690POPC   C4A72006  22.542   5.648   7.095
 5690POPC   C1B72007  23.259   5.842   6.204
 5690POPC   C2B72008  23.365   5.657   6.610
 5690POPC   C3B72009  23.330   5.797   7.039
 5690POPC   C4B72010  23.075   6.167   7.114
 5691POPC   NC372011  32.896  22.616   5.496
 5691POPC   PO472012  32.629  22.038   5.572
 5691POPC   GL172013  32.880  22.264   5.877
 5691POPC   GL272014  32.609  22.474   5.940
 5691POPC   C1A72015  33.254  22.246   6.167
 5691POPC   D2A72016  33.440  22.098   6.571
 5691POPC   C3A72017  33.289  22.171   6.988
 5691POPC   C4A72018  33.147  21.974   7.377
 5691POPC   C1B72019  32.832  22.510   6.346
 5691POPC   C2B72020  32.916  22.236   6.656
 5691POPC   C3B72021  32.802  22.240   7.077
 5691POPC   C4B72022  32.852  22.479   7.446
 5692POPC   NC372023  44.874  37.974   5.475
 5692POPC   PO472024  44.795  37.290   5.520
 5692POPC   GL172025  44.737  37.425   5.886
 5692POPC   GL272026  44.448  37.616   5.949
 5692POPC   C1A72027  44.884  37.524   6.259
 5692POPC   D2A72028  44.714  37.584   6.662
 5692POPC   C3A72029  44.987  37.668   7.015
 5692POPC   C4A72030  44.835  37.525   7.388
 5692POPC   C1B72031  44.378  37.276   6.274
 5692POPC   C2B72032  44.349  37.227   6.753
 5692POPC   C3B72033  44.433  37.539   7.092
 5692POPC   C4B72034  44.281  37.488   7.521
 5693POPC   NC372035  42.685  15.526   5.619
 5693POPC   PO472036  42.228  14.994   5.453
 5693POPC   GL172037  42.310  15.121   5.871
 5693POPC   GL272038  42.158  15.427   5.828
 5693POPC   C1A72039  42.413  15.366   6.264
 5693POPC   D2A72040  42.246  15.563   6.633
 5693POPC   C3A72041  42.289  15.276   6.958
 5693POPC   C4A72042  42.452  15.225   7.355
 5693POPC   C1B72043  41.902  15.524   6.175
 5693POPC   C2B72044  41.768  15.352   6.563
 5693POPC   C3B72045  41.826  15.512   6.963
 5693POPC   C4B72046  41.896  15.270   7.316
 5694POPC   NC372047  16.865   0.629   5.333
 5694POPC   PO472048  16.649  44.998   5.237
 5694POPC   GL172049  16.743   0.288   5.706
 5694POPC   GL272050  16.934   0.638   5.840
 5694POPC   C1A72051  16.639   0.334   6.189
 5694POPC   D2A72052  16.455   0.329   6.626
 5694POPC   C3A72053  16.708   0.276   6.995
 5694POPC   C4A72054  16.713   0.300   7.459
 5694POPC   C1B72055  16.913   0.769   6.296
 5694POPC   C2B72056  16.624   0.830   6.672
 5694POPC   C3B72057  16.617   0.752   7.120
 5694POPC   C4B72058  17.044   0.619   7.199
 5695POPC   NC372059  16.649  11.310   5.467
 5695POPC   PO472060  17.138  11.725   5.453
 5695POPC   GL172061  17.019  11.465   5.801
 5695POPC   GL272062  16.679  11.556   5.912
 5695POPC   C1A72063  16.992  11.208   6.182
 5695POPC   D2A72064  16.631  11.162   6.473
 5695POPC   C3A72065  16.727  11.246   6.899
 5695POPC   C4A72066  16.591  11.198   7.308
 5695POPC   C1B72067  16.835  11.685   6.315
 5695POPC   C2B72068  16.847  11.727   6.755
 5695POPC   C3B72069  16.775  11.676   7.194
 5695POPC   C4B72070  16.727  11.633   7.638
 5696POPC   NC372071   0.395  27.655   5.595
 5696POPC   PO472072   0.307  28.333   5.479
 5696POPC   GL172073   0.339  28.064   5.904
 5696POPC   GL272074   0.714  28.042   5.928
 5696POPC   C1A72075   0.285  27.661   6.237
 5696POPC   D2A72076   0.212  27.304   6.581
 5696POPC   C3A72077   0.377  27.405   6.978
 5696POPC   C4A72078   0.301  27.732   7.245
 5696POPC   C1B72079   0.839  27.696   6.174
 5696POPC   C2B72080   0.677  27.550   6.554
 5696POPC   C3B72081   0.701  27.797   6.897
 5696POPC   C4B72082   0.797  27.769   7.292
 5697POPC   NC372083   5.410   6.111   5.571
 5697POPC   PO472084   6.065   6.018   5.349
 5697POPC   GL172085   5.943   5.812   5.745
 5697POPC   GL272086   5.621   5.625   5.753
 5697POPC   C1A72087   5.855   5.991   6.142
 5697POPC   D2A72088   6.047   6.019   6.531
 5697POPC   C3A72089   5.858   6.105   6.913
 5697POPC   C4A72090   6.027   6.016   7.326
 5697POPC   C1B72091   5.571   5.568   6.182
 5697POPC   C2B72092   5.597   5.776   6.575
 5697POPC   C3B72093   5.463   5.764   6.980
 5697POPC   C4B72094   5.636   5.708   7.408
 5698POPC   NC372095   2.123  37.856   5.368
 5698POPC   PO472096   1.501  37.939   5.574
 5698POPC   GL172097   1.822  37.775   5.847
 5698POPC   GL272098   2.161  37.965   5.860
 5698POPC   C1A72099   1.568  37.599   6.196
 5698POPC   D2A72100   1.608  37.346   6.553
 5698POPC   C3A72101   1.595  37.580   6.904
 5698POPC   C4A72102   1.843  37.558   7.252
 5698POPC   C1B72103   2.339  37.805   6.221
 5698POPC   C2B72104   2.063  37.656   6.523
 5698POPC   C3B72105   2.106  37.814   6.907
 5698POPC   C4B72106   2.349  37.672   7.236
 5699POPC   NC372107  34.340  40.685   5.596
 5699POPC   PO472108  34.870  41.008   5.285
 5699POPC   GL172109  34.890  41.141   5.762
 5699POPC   GL272110  34.598  40.997   5.923
 5699POPC   C1A72111  34.918  41.171   6.262
 5699POPC   D2A72112  34.902  40.773   6.527
 5699POPC   C3A72113  34.682  40.713   6.945
 5699POPC   C4A72114  34.592  40.835   7.403
 5699POPC   C1B72115  34.423  40.793   6.308
 5699POPC   C2B72116  34.215  40.654   6.707
 5699POPC   C3B72117  34.211  40.585   7.167
 5699POPC   C4B72118  34.161  40.632   7.661
 5700POPC   NC372119  25.531  34.309   5.508
 5700POPC   PO472120  26.220  34.435   5.388
 5700POPC   GL172121  25.997  34.603   5.803
 5700POPC   GL272122  26.256  34.879   5.881
 5700POPC   C1A72123  25.795  34.536   6.230
 5700POPC   D2A72124  25.912  34.341   6.646
 5700POPC   C3A72125  25.972  34.529   7.072
 5700POPC   C4A72126  26.226  34.374   7.442
 5700POPC   C1B72127  26.284  34.659   6.243
 5700POPC   C2B72128  26.233  34.752   6.661
 5700POPC   C3B72129  26.366  34.908   7.043
 5700POPC   C4B72130  26.172  34.909   7.397
 5701POPC   NC372131  15.541  30.336   5.615
 5701POPC   PO472132  16.276  30.476   5.416
 5701POPC   GL172133  15.983  30.608   5.755
 5701POPC   GL272134  15.656  30.815   5.771
 5701POPC   C1A72135  15.954  30.701   6.217
 5701POPC   D2A72136  16.087  30.910   6.621
 5701POPC   C3A72137  15.870  30.871   7.070
 5701POPC   C4A72138  15.954  30.845   7.556
 5701POPC   C1B72139  15.450  30.765   6.184
 5701POPC   C2B72140  15.614  30.741   6.608
 5701POPC   C3B72141  15.549  30.471   6.936
 5701POPC   C4B72142  15.567  30.573   7.360
 5702POPC   NC372143  36.548  17.394   5.486
 5702POPC   PO472144  37.182  17.293   5.458
 5702POPC   GL172145  37.049  17.562   5.785
 5702POPC   GL272146  36.768  17.805   5.706
 5702POPC   C1A72147  37.106  17.426   6.221
 5702POPC   D2A72148  36.927  17.286   6.579
 5702POPC   C3A72149  37.114  17.355   6.982
 5702POPC   C4A72150  36.855  17.326   7.332
 5702POPC   C1B72151  36.658  17.648   6.119
 5702POPC   C2B72152  36.727  17.770   6.517
 5702POPC   C3B72153  36.643  17.588   6.913
 5702POPC   C4B72154  36.716  17.808   7.283
 5703POPC   NC372155  20.984   2.201   5.455
 5703POPC   PO472156  20.545   1.736   5.351
 5703POPC   GL172157  20.681   1.909   5.765
 5703POPC   GL272158  20.375   1.909   5.917
 5703POPC   C1A72159  20.802   2.057   6.209
 5703POPC   D2A72160  20.880   1.953   6.655
 5703POPC   C3A72161  20.715   2.164   7.047
 5703POPC   C4A72162  20.427   2.187   7.420
 5703POPC   C1B72163  20.324   2.227   6.253
 5703POPC   C2B72164  20.360   2.103   6.688
 5703POPC   C3B72165  20.409   1.726   6.933
 5703POPC   C4B72166  20.147   1.477   7.202
 5704POPC   NC372167  19.791  44.206   5.576
 5704POPC   PO472168  19.851  43.520   5.638
 5704POPC   GL172169  20.007  43.740   5.960
 5704POPC   GL272170  20.085  44.097   5.979
 5704POPC   C1A72171  20.024  43.734   6.396
 5704POPC   D2A72172  19.639  43.691   6.612
 5704POPC   C3A72173  19.687  43.646   7.034
 5704POPC   C4A72174  20.076  43.807   7.201
 5704POPC   C1B72175  19.695  44.091   6.217
 5704POPC   C2B72176  19.601  44.248   6.591
 5704POPC   C3B72177  19.817  44.157   6.922
 5704POPC   C4B72178  19.628  44.118   7.275
 5705POPC   NC372179   2.213   1.111   5.379
 5705POPC   PO472180   1.586   0.960   5.511
 5705POPC   GL172181   1.891   1.142   5.848
 5705POPC   GL272182   2.283   1.047   5.879
 5705POPC   C1A72183   1.909   1.496   6.198
 5705POPC   D2A72184   1.928   1.731   6.634
 5705POPC   C3A72185   2.049   1.419   6.968
 5705POPC   C4A72186   1.932   1.364   7.392
 5705POPC   C1B72187   2.193   1.061   6.298
 5705POPC   C2B72188   2.074   0.859   6.654
 5705POPC   C3B72189   2.363   0.955   6.946
 5705POPC   C4B72190   2.368   1.135   7.314
 5706POPC   NC372191  31.831   8.499   5.414
 5706POPC   PO472192  31.359   8.082   5.428
 5706POPC   GL172193  31.407   8.382   5.777
 5706POPC   GL272194  31.720   8.496   5.922
 5706POPC   C1A72195  31.195   8.298   6.162
 5706POPC   D2A72196  31.206   8.106   6.572
 5706POPC   C3A72197  31.435   8.285   6.917
 5706POPC   C4A72198  31.374   8.041   7.251
 5706POPC   C1B72199  31.684   8.099   6.153
 5706POPC   C2B72200  31.777   8.064   6.591
 5706POPC   C3B72201  31.902   7.991   7.019
 5706POPC   C4B72202  31.828   8.260   7.345
 5707POPC   NC372203  18.320  29.547   5.405
 5707POPC   PO472204  18.580  28.903   5.365
 5707POPC   GL172205  18.284  29.107   5.732
 5707POPC   GL272206  18.132  29.420   5.860
 5707POPC   C1A72207  17.991  28.986   6.076
 5707POPC   D2A72208  17.967  29.128   6.504
 5707POPC   C3A72209  18.272  29.137   6.828
 5707POPC   C4A72210  18.195  29.413   7.148
 5707POPC   C1B72211  18.403  29.300   6.240
 5707POPC   C2B72212  18.722  29.307   6.628
 5707POPC   C3B72213  18.710  29.430   7.106
 5707POPC   C4B72214  18.495  29.506   7.562
 5708POPC   NC372215  17.356   5.090   5.457
 5708POPC   PO472216  17.737   5.566   5.551
 5708POPC   GL172217  17.750   5.274   5.885
 5708POPC   GL272218  17.606   4.906   5.878
 5708POPC   C1A72219  17.511   5.310   6.262
 5708POPC   D2A72220  17.418   5.498   6.661
 5708POPC   C3A72221  17.622   5.307   7.004
 5708POPC   C4A72222  17.532   5.045   7.359
 5708POPC   C1B72223  17.183   4.929   6.096
 5708POPC   C2B72224  17.127   5.056   6.529
 5708POPC   C3B72225  17.196   5.013   6.961
 5708POPC   C4B72226  17.017   5.138   7.338
 5709POPC   NC372227  33.497  32.888   5.368
 5709POPC   PO472228  33.888  33.319   5.739
 5709POPC   GL172229  33.656  32.991   5.873
 5709POPC   GL272230  33.948  32.844   5.969
 5709POPC   C1A72231  33.541  32.993   6.300
 5709POPC   D2A72232  33.793  33.222   6.639
 5709POPC   C3A72233  33.679  33.115   7.049
 5709POPC   C4A72234  33.404  32.799   7.193
 5709POPC   C1B72235  34.158  32.888   6.349
 5709POPC   C2B72236  34.142  32.624   6.700
 5709POPC   C3B72237  34.039  32.736   7.071
 5709POPC   C4B72238  34.155  33.156   7.240
 5710POPC   NC372239  44.310  37.381   5.497
 5710POPC   PO472240  44.084  37.989   5.303
 5710POPC   GL172241  43.996  37.730   5.732
 5710POPC   GL272242  43.609  37.670   5.823
 5710POPC   C1A72243  43.980  37.606   6.182
 5710POPC   D2A72244  44.178  37.675   6.597
 5710POPC   C3A72245  43.946  37.516   6.985
 5710POPC   C4A72246  43.975  37.828   7.344
 5710POPC   C1B72247  43.453  37.636   6.211
 5710POPC   C2B72248  43.665  37.761   6.583
 5710POPC   C3B72249  43.750  37.978   6.908
 5710POPC   C4B72250  43.501  37.706   7.178
 5711POPC   NC372251  40.453   7.301   5.273
 5711POPC   PO472252  41.136   7.343   5.492
 5711POPC   GL172253  40.885   7.390   5.828
 5711POPC   GL272254  40.630   7.169   5.774
 5711POPC   C1A72255  40.998   7.455   6.255
 5711POPC   D2A72256  41.088   7.707   6.602
 5711POPC   C3A72257  41.038   7.434   6.911
 5711POPC   C4A72258  40.897   7.723   7.198
 5711POPC   C1B72259  40.503   7.364   6.177
 5711POPC   C2B72260  40.610   7.368   6.631
 5711POPC   C3B72261  40.482   7.425   7.074
 5711POPC   C4B72262  40.252   7.802   7.168
 5712POPC   NC372263   8.974  25.858   5.650
 5712POPC   PO472264   8.860  25.267   5.420
 5712POPC   GL172265   8.860  25.248   5.835
 5712POPC   GL272266   8.632  25.540   5.840
 5712POPC   C1A72267   9.118  25.096   6.192
 5712POPC   D2A72268   9.134  24.815   6.587
 5712POPC   C3A72269   9.263  24.998   6.998
 5712POPC   C4A72270   9.264  25.266   7.386
 5712POPC   C1B72271   8.710  25.466   6.278
 5712POPC   C2B72272   8.984  25.344   6.615
 5712POPC   C3B72273   8.875  25.355   7.028
 5712POPC   C4B72274   8.797  25.431   7.479
 5713POPC   NC372275  22.791  18.444   5.384
 5713POPC   PO472276  22.946  17.794   5.507
 5713POPC   GL172277  22.963  18.190   5.796
 5713POPC   GL272278  22.646  18.415   5.878
 5713POPC   C1A72279  23.035  18.167   6.232
 5713POPC   D2A72280  22.753  17.959   6.530
 5713POPC   C3A72281  22.793  18.182   6.894
 5713POPC   C4A72282  22.982  18.208   7.268
 5713POPC   C1B72283  22.629  18.462   6.326
 5713POPC   C2B72284  22.586  18.632   6.718
 5713POPC   C3B72285  22.606  18.610   7.167
 5713POPC   C4B72286  22.668  18.467   7.596
 5714POPC   NC372287  13.925  26.818   5.594
 5714POPC   PO472288  14.572  26.893   5.518
 5714POPC   GL172289  14.368  26.681   5.862
 5714POPC   GL272290  14.043  26.528   5.981
 5714POPC   C1A72291  14.353  26.859   6.263
 5714POPC   D2A72292  14.334  27.168   6.567
 5714POPC   C3A72293  14.451  26.978   6.907
 5714POPC   C4A72294  14.630  26.737   7.190
 5714POPC   C1B72295  14.273  26.348   6.312
 5714POPC   C2B72296  14.433  26.484   6.716
 5714POPC   C3B72297  14.174  26.556   7.085
 5714POPC   C4B72298  14.227  26.582   7.530
 5715POPC   NC372299  41.691  36.520   5.240
 5715POPC   PO472300  41.333  35.985   5.403
 5715POPC   GL172301  41.615  35.962   5.762
 5715POPC   GL272302  41.902  36.195   5.696
 5715POPC   C1A72303  41.516  36.023   6.203
 5715POPC   D2A72304  41.325  36.245   6.546
 5715POPC   C3A72305  41.458  36.113   6.924
 5715POPC   C4A72306  41.523  36.182   7.351
 5715POPC   C1B72307  41.966  36.348   6.141
 5715POPC   C2B72308  41.876  36.225   6.541
 5715POPC   C3B72309  41.911  36.335   6.946
 5715POPC   C4B72310  42.040  36.261   7.349
 5716POPC   NC372311  34.191  20.011   5.453
 5716POPC   PO472312  33.563  20.098   5.327
 5716POPC   GL172313  33.785  19.903   5.746
 5716POPC   GL272314  34.041  19.611   5.767
 5716POPC   C1A72315  33.707  19.588   6.119
 5716POPC   D2A72316  33.554  19.556   6.517
 5716POPC   C3A72317  33.711  19.802   6.818
 5716POPC   C4A72318  33.921  19.677   7.149
 5716POPC   C1B72319  34.142  19.885   6.154
 5716POPC   C2B72320  34.053  20.090   6.563
 5716POPC   C3B72321  34.038  20.148   7.035
 5716POPC   C4B72322  34.087  20.217   7.495
 5717POPC   NC372323  28.539  15.652   5.576
 5717POPC   PO472324  28.022  16.142   5.466
 5717POPC   GL172325  28.272  16.072   5.848
 5717POPC   GL272326  28.582  15.919   5.989
 5717POPC   C1A72327  28.144  16.022   6.271
 5717POPC   D2A72328  27.886  15.821   6.548
 5717POPC   C3A72329  28.003  16.022   6.920
 5717POPC   C4A72330  28.187  15.935   7.313
 5717POPC   C1B72331  28.313  15.565   6.162
 5717POPC   C2B72332  28.331  15.552   6.583
 5717POPC   C3B72333  28.479  15.824   6.872
 5717POPC   C4B72334  28.696  15.820   7.249
 5718POPC   NC372335   9.717  17.116   5.242
 5718POPC   PO472336   9.939  17.788   5.252
 5718POPC   GL172337   9.959  17.593   5.730
 5718POPC   GL272338   9.683  17.737   5.985
 5718POPC   C1A72339  10.018  17.460   6.215
 5718POPC   D2A72340   9.767  17.676   6.545
 5718POPC   C3A72341   9.864  17.534   6.947
 5718POPC   C4A72342  10.065  17.382   7.341
 5718POPC   C1B72343   9.447  17.434   6.246
 5718POPC   C2B72344   9.173  17.476   6.602
 5718POPC   C3B72345   9.330  17.733   6.935
 5718POPC   C4B72346   9.550  17.648   7.336
 5719POPC   NC372347  25.279  20.769   5.414
 5719POPC   PO472348  25.093  20.203   5.335
 5719POPC   GL172349  25.194  20.384   5.766
 5719POPC   GL272350  25.066  20.739   5.874
 5719POPC   C1A72351  25.211  20.415   6.210
 5719POPC   D2A72352  25.262  20.604   6.571
 5719POPC   C3A72353  25.362  20.390   6.915
 5719POPC   C4A72354  25.268  20.488   7.304
 5719POPC   C1B72355  25.251  20.969   6.182
 5719POPC   C2B72356  25.277  21.118   6.578
 5719POPC   C3B72357  25.235  20.920   6.974
 5719POPC   C4B72358  24.951  20.906   7.270
 5720POPC   NC372359  22.593  30.814   5.616
 5720POPC   PO472360  22.202  30.374   5.289
 5720POPC   GL172361  22.155  30.592   5.747
 5720POPC   GL272362  22.102  30.995   5.835
 5720POPC   C1A72363  22.253  30.620   6.220
 5720POPC   D2A72364  21.952  30.532   6.544
 5720POPC   C3A72365  22.036  30.570   6.988
 5720POPC   C4A72366  21.957  30.175   7.165
 5720POPC   C1B72367  22.007  31.058   6.309
 5720POPC   C2B72368  22.269  30.937   6.693
 5720POPC   C3B72369  22.309  31.094   7.149
 5720POPC   C4B72370  22.219  30.795   7.486
 5721POPC   NC372371  38.460  31.512   5.083
 5721POPC   PO472372  38.696  31.844   5.633
 5721POPC   GL172373  38.466  31.519   5.742
 5721POPC   GL272374  38.712  31.236   5.607
 5721POPC   C1A72375  38.303  31.502   6.190
 5721POPC   D2A72376  38.255  31.375   6.647
 5721POPC   C3A72377  38.307  31.515   7.086
 5721POPC   C4A72378  38.096  31.265   7.394
 5721POPC   C1B72379  38.742  31.243   6.057
 5721POPC   C2B72380  38.736  31.385   6.454
 5721POPC   C3B72381  38.756  31.367   6.878
 5721POPC   C4B72382  38.815  31.364   7.293
 5722POPC   NC372383  40.395   8.117   5.467
 5722POPC   PO472384  41.088   8.328   5.326
 5722POPC   GL172385  40.893   8.170   5.699
 5722POPC   GL272386  41.068   7.918   5.914
 5722POPC   C1A72387  40.652   8.274   6.069
 5722POPC   D2A72388  40.732   8.146   6.478
 5722POPC   C3A72389  40.637   8.431   6.838
 5722POPC   C4A72390  40.598   8.167   7.188
 5722POPC   C1B72391  41.163   8.331   6.135
 5722POPC   C2B72392  41.099   8.508   6.546
 5722POPC   C3B72393  41.066   8.167   6.866
 5722POPC   C4B72394  41.099   8.223   7.248
 5723POPC   NC372395  32.572  36.989   5.228
 5723POPC   PO472396  31.973  37.088   5.624
 5723POPC   GL172397  32.231  36.850   5.845
 5723POPC   GL272398  32.513  36.944   5.748
 5723POPC   C1A72399  32.162  36.752   6.254
 5723POPC   D2A72400  32.329  36.535   6.573
 5723POPC   C3A72401  32.193  36.740   6.914
 5723POPC   C4A72402  32.241  36.528   7.273
 5723POPC   C1B72403  32.402  37.195   6.161
 5723POPC   C2B72404  32.415  37.086   6.577
 5723POPC   C3B72405  32.610  37.110   6.956
 5723POPC   C4B72406  32.432  36.983   7.332
 5724POPC   NC372407  38.588  17.181   5.344
 5724POPC   PO472408  38.753  17.836   5.540
 5724POPC   GL172409  38.645  17.715   5.948
 5724POPC   GL272410  38.573  17.391   5.830
 5724POPC   C1A72411  38.297  17.581   6.223
 5724POPC   D2A72412  38.285  17.441   6.629
 5724POPC   C3A72413  38.229  17.724   6.941
 5724POPC   C4A72414  38.521  17.683   7.238
 5724POPC   C1B72415  38.609  17.194   6.222
 5724POPC   C2B72416  38.779  17.244   6.639
 5724POPC   C3B72417  38.584  17.078   6.970
 5724POPC   C4B72418  38.647  17.035   7.379
 5725POPC   NC372419  35.567  33.174   5.423
 5725POPC   PO472420  36.179  32.950   5.432
 5725POPC   GL172421  35.952  33.134   5.783
 5725POPC   GL272422  36.275  33.147   5.912
 5725POPC   C1A72423  35.866  33.000   6.221
 5725POPC   D2A72424  36.084  32.980   6.648
 5725POPC   C3A72425  35.858  32.937   7.066
 5725POPC   C4A72426  35.700  33.260   7.348
 5725POPC   C1B72427  36.228  33.356   6.293
 5725POPC   C2B72428  36.346  33.465   6.711
 5725POPC   C3B72429  36.266  33.229   7.087
 5725POPC   C4B72430  36.324  32.758   7.186
 5726POPC   NC372431   4.181   6.476   5.149
 5726POPC   PO472432   4.186   5.809   5.401
 5726POPC   GL172433   4.278   5.859   5.854
 5726POPC   GL272434   4.546   5.645   5.913
 5726POPC   C1A72435   4.417   6.058   6.272
 5726POPC   D2A72436   4.223   5.935   6.701
 5726POPC   C3A72437   4.338   5.873   7.152
 5726POPC   C4A72438   4.219   5.531   7.460
 5726POPC   C1B72439   4.460   5.567   6.381
 5726POPC   C2B72440   4.641   5.608   6.796
 5726POPC   C3B72441   4.680   5.472   7.239
 5726POPC   C4B72442   4.657   5.762   7.567
 5727POPC   NC372443  27.422  27.629   5.313
 5727POPC   PO472444  26.709  27.624   5.361
 5727POPC   GL172445  26.711  27.611   5.805
 5727POPC   GL272446  27.065  27.648   5.776
 5727POPC   C1A72447  26.657  27.384   6.223
 5727POPC   D2A72448  26.753  27.165   6.612
 5727POPC   C3A72449  26.905  27.299   7.032
 5727POPC   C4A72450  26.586  27.263   7.314
 5727POPC   C1B72451  27.080  27.664   6.224
 5727POPC   C2B72452  27.017  27.630   6.662
 5727POPC   C3B72453  26.842  27.829   7.037
 5727POPC   C4B72454  26.862  27.701   7.475
 5728POPC   NC372455   9.960  43.514   5.389
 5728POPC   PO472456   9.385  43.921   5.352
 5728POPC   GL172457   9.643  43.946   5.748
 5728POPC   GL272458   9.343  43.927   5.925
 5728POPC   C1A72459   9.738  43.739   6.203
 5728POPC   D2A72460   9.657  43.494   6.612
 5728POPC   C3A72461   9.733  43.653   7.067
 5728POPC   C4A72462   9.852  43.905   7.423
 5728POPC   C1B72463   9.443  44.147   6.309
 5728POPC   C2B72464   9.574  44.005   6.711
 5728POPC   C3B72465   9.489  44.149   7.134
 5728POPC   C4B72466   9.405  44.055   7.600
 5729POPC   NC372467  40.017   9.732   5.564
 5729POPC   PO472468  40.565   9.884   5.481
 5729POPC   GL172469  40.372   9.899   5.895
 5729POPC   GL272470  40.032  10.035   5.970
 5729POPC   C1A72471  40.383   9.771   6.311
 5729POPC   D2A72472  40.140   9.704   6.680
 5729POPC   C3A72473  40.119   9.886   7.078
 5729POPC   C4A72474  39.989   9.658   7.458
 5729POPC   C1B72475  39.864   9.717   6.225
 5729POPC   C2B72476  39.626   9.753   6.577
 5729POPC   C3B72477  39.702   9.597   6.957
 5729POPC   C4B72478  39.559   9.437   7.327
 5730POPC   NC372479  40.538  10.340   5.372
 5730POPC   PO472480  39.831  10.161   5.477
 5730POPC   GL172481  40.079  10.487   5.733
 5730POPC   GL272482  40.379  10.400   5.834
 5730POPC   C1A72483  40.168  10.714   6.143
 5730POPC   D2A72484  40.040  10.768   6.553
 5730POPC   C3A72485  39.998  10.450   6.866
 5730POPC   C4A72486  40.122  10.714   7.175
 5730POPC   C1B72487  40.488  10.278   6.233
 5730POPC   C2B72488  40.474  10.459   6.643
 5730POPC   C3B72489  40.441  10.306   7.092
 5730POPC   C4B72490  40.431  10.475   7.489
 5731POPC   NC372491   6.439  26.343   5.512
 5731POPC   PO472492   6.934  26.742   5.244
 5731POPC   GL172493   6.754  26.697   5.688
 5731POPC   GL272494   6.504  26.947   5.765
 5731POPC   C1A72495   6.586  26.536   6.118
 5731POPC   D2A72496   6.440  26.335   6.506
 5731POPC   C3A72497   6.575  26.398   6.928
 5731POPC   C4A72498   6.798  26.665   7.205
 5731POPC   C1B72499   6.738  27.018   6.157
 5731POPC   C2B72500   6.678  26.811   6.559
 5731POPC   C3B72501   6.447  26.897   6.902
 5731POPC   C4B72502   6.574  27.165   7.216
 5732POPC   NC372503  31.758  32.751   5.497
 5732POPC   PO472504  31.540  33.310   5.126
 5732POPC   GL172505  31.540  33.212   5.616
 5732POPC   GL272506  31.804  33.373   5.806
 5732POPC   C1A72507  31.600  32.989   6.077
 5732POPC   D2A72508  31.445  33.028   6.508
 5732POPC   C3A72509  31.537  32.789   6.887
 5732POPC   C4A72510  31.326  32.905   7.265
 5732POPC   C1B72511  31.922  33.335   6.261
 5732POPC   C2B72512  31.758  33.411   6.663
 5732POPC   C3B72513  31.766  33.231   7.060
 5732POPC   C4B72514  31.879  33.421   7.448
 5733POPC   NC372515   2.360  13.341   5.595
 5733POPC   PO472516   1.873  13.713   5.253
 5733POPC   GL172517   1.946  13.610   5.724
 5733POPC   GL272518   1.825  13.268   5.811
 5733POPC   C1A72519   2.104  13.506   6.186
 5733POPC   D2A72520   2.024  13.315   6.612
 5733POPC   C3A72521   2.233  13.498   6.983
 5733POPC   C4A72522   2.228  13.863   7.275
 5733POPC   C1B72523   1.588  13.514   6.116
 5733POPC   C2B72524   1.657  13.690   6.537
 5733POPC   C3B72525   1.636  13.562   6.972
 5733POPC   C4B72526   1.849  13.387   7.323
 5734POPC   NC372527  22.567  30.090   5.413
 5734POPC   PO472528  23.275  30.027   5.291
 5734POPC   GL172529  23.063  30.059   5.793
 5734POPC   GL272530  22.784  29.872   5.838
 5734POPC   C1A72531  22.900  30.091   6.276
 5734POPC   D2A72532  22.824  29.979   6.697
 5734POPC   C3A72533  22.825  30.234   7.072
 5734POPC   C4A72534  23.136  30.097   7.271
 5734POPC   C1B72535  22.839  29.585   6.185
 5734POPC   C2B72536  22.910  29.464   6.586
 5734POPC   C3B72537  23.040  29.590   6.960
 5734POPC   C4B72538  22.745  29.738   7.183
 5735POPC   NC372539  29.895  44.299   5.159
 5735POPC   PO472540  30.047  44.912   5.434
 5735POPC   GL172541  30.128  44.747   5.862
 5735POPC   GL272542  29.841  44.756   5.914
 5735POPC   C1A72543  30.107  44.624   6.307
 5735POPC   D2A72544  29.867  44.426   6.623
 5735POPC   C3A72545  30.076  44.517   6.990
 5735POPC   C4A72546  30.077  44.914   7.131
 5735POPC   C1B72547  29.575  44.593   6.232
 5735POPC   C2B72548  29.371  44.600   6.634
 5735POPC   C3B72549  29.549  44.593   6.999
 5735POPC   C4B72550  29.610  44.563   7.394
 5736POPC   NC372551   7.288  12.783   5.735
 5736POPC   PO472552   7.618  13.250   5.283
 5736POPC   GL172553   7.798  13.305   5.716
 5736POPC   GL272554   7.740  12.986   5.758
 5736POPC   C1A72555   7.756  13.246   6.188
 5736POPC   D2A72556   7.350  13.195   6.468
 5736POPC   C3A72557   7.299  12.912   6.838
 5736POPC   C4A72558   7.499  12.845   7.228
 5736POPC   C1B72559   7.735  12.731   6.169
 5736POPC   C2B72560   7.751  12.847   6.585
 5736POPC   C3B72561   7.828  12.598   6.927
 5736POPC   C4B72562   7.736  12.379   7.282
 5737POPC   NC372563  14.706  14.279   5.472
 5737POPC   PO472564  15.410  14.440   5.583
 5737POPC   GL172565  15.232  14.493   5.970
 5737POPC   GL272566  15.287  14.841   5.986
 5737POPC   C1A72567  15.322  14.553   6.416
 5737POPC   D2A72568  15.585  14.590   6.783
 5737POPC   C3A72569  15.563  14.362   7.158
 5737POPC   C4A72570  15.128  14.338   7.273
 5737POPC   C1B72571  14.833  14.796   6.084
 5737POPC   C2B72572  14.720  14.792   6.506
 5737POPC   C3B72573  15.042  14.717   6.831
 5737POPC   C4B72574  14.932  14.807   7.237
 5738POPC   NC372575  34.989  42.113   5.598
 5738POPC   PO472576  34.373  41.845   5.514
 5738POPC   GL172577  34.564  42.055   5.885
 5738POPC   GL272578  34.528  42.423   5.803
 5738POPC   C1A72579  34.810  42.263   6.213
 5738POPC   D2A72580  34.900  42.352   6.620
 5738POPC   C3A72581  34.697  42.123   6.950
 5738POPC   C4A72582  34.765  42.186   7.413
 5738POPC   C1B72583  34.306  42.597   6.177
 5738POPC   C2B72584  34.049  42.554   6.575
 5738POPC   C3B72585  34.154  42.280   6.915
 5738POPC   C4B72586  34.314  42.363   7.323
 5739POPC   NC372587  38.724  19.167   5.387
 5739POPC   PO472588  38.353  18.751   5.574
 5739POPC   GL172589  38.441  19.054   5.916
 5739POPC   GL272590  38.719  19.288   5.906
 5739POPC   C1A72591  38.575  18.895   6.325
 5739POPC   D2A72592  38.395  18.615   6.623
 5739POPC   C3A72593  38.425  18.674   7.070
 5739POPC   C4A72594  38.674  18.884   7.365
 5739POPC   C1B72595  38.780  19.352   6.378
 5739POPC   C2B72596  38.670  19.202   6.793
 5739POPC   C3B72597  38.710  19.372   7.209
 5739POPC   C4B72598  38.769  19.322   7.675
 5740POPC   NC372599  17.730  26.406   5.516
 5740POPC   PO472600  17.349  25.900   5.473
 5740POPC   GL172601  17.572  25.901   5.890
 5740POPC   GL272602  17.945  26.037   5.859
 5740POPC   C1A72603  17.394  25.982   6.340
 5740POPC   D2A72604  17.082  26.158   6.665
 5740POPC   C3A72605  17.241  26.143   7.082
 5740POPC   C4A72606  17.506  25.779   7.205
 5740POPC   C1B72607  17.758  26.331   6.169
 5740POPC   C2B72608  17.754  26.442   6.600
 5740POPC   C3B72609  17.719  26.395   7.045
 5740POPC   C4B72610  17.927  26.062   7.310
 5741POPC   NC372611   5.630   8.370   5.410
 5741POPC   PO472612   4.948   8.277   5.402
 5741POPC   GL172613   5.154   8.373   5.785
 5741POPC   GL272614   5.201   8.058   5.867
 5741POPC   C1A72615   5.257   8.444   6.243
 5741POPC   D2A72616   5.242   8.171   6.591
 5741POPC   C3A72617   5.368   8.342   6.983
 5741POPC   C4A72618   5.126   8.629   7.235
 5741POPC   C1B72619   4.876   8.124   6.187
 5741POPC   C2B72620   4.743   7.982   6.581
 5741POPC   C3B72621   4.904   8.141   6.986
 5741POPC   C4B72622   4.909   7.938   7.376
 5742POPC   NC372623  17.707   6.037   5.527
 5742POPC   PO472624  17.019   6.131   5.424
 5742POPC   GL172625  17.320   6.189   5.828
 5742POPC   GL272626  17.481   5.826   5.938
 5742POPC   C1A72627  17.253   6.113   6.293
 5742POPC   D2A72628  17.543   6.022   6.680
 5742POPC   C3A72629  17.469   5.809   7.095
 5742POPC   C4A72630  17.592   5.542   7.461
 5742POPC   C1B72631  17.768   6.080   6.211
 5742POPC   C2B72632  17.920   6.377   6.521
 5742POPC   C3B72633  17.977   6.200   6.929
 5742POPC   C4B72634  17.651   6.284   7.195
 5743POPC   NC372635   4.249  13.038   5.169
 5743POPC   PO472636   4.438  12.489   5.467
 5743POPC   GL172637   4.176  12.669   5.737
 5743POPC   GL272638   4.245  12.999   5.758
 5743POPC   C1A72639   4.257  12.692   6.166
 5743POPC   D2A72640   4.438  12.936   6.464
 5743POPC   C3A72641   4.295  12.869   6.864
 5743POPC   C4A72642   4.533  12.982   7.198
 5743POPC   C1B72643   4.027  13.152   6.195
 5743POPC   C2B72644   4.101  13.319   6.649
 5743POPC   C3B72645   4.166  13.310   7.112
 5743POPC   C4B72646   4.005  12.940   7.331
 5744POPC   NC372647  27.357  29.522   5.039
 5744POPC   PO472648  27.765  29.870   5.374
 5744POPC   GL172649  27.587  29.897   5.815
 5744POPC   GL272650  27.878  29.795   6.009
 5744POPC   C1A72651  27.401  29.839   6.258
 5744POPC   D2A72652  27.589  29.884   6.695
 5744POPC   C3A72653  27.321  29.878   7.059
 5744POPC   C4A72654  27.458  30.032   7.480
 5744POPC   C1B72655  27.775  29.519   6.352
 5744POPC   C2B72656  27.786  29.425   6.776
 5744POPC   C3B72657  27.751  29.669   7.186
 5744POPC   C4B72658  27.787  29.703   7.660
 5745POPC   NC372659  10.016  16.348   5.437
 5745POPC   PO472660   9.683  15.795   5.483
 5745POPC   GL172661   9.820  16.040   5.799
 5745POPC   GL272662  10.072  15.846   5.938
 5745POPC   C1A72663   9.698  16.047   6.217
 5745POPC   D2A72664   9.822  15.854   6.600
 5745POPC   C3A72665   9.952  16.054   6.970
 5745POPC   C4A72666   9.849  15.914   7.382
 5745POPC   C1B72667  10.092  15.552   6.288
 5745POPC   C2B72668  10.240  15.617   6.731
 5745POPC   C3B72669  10.312  15.743   7.166
 5745POPC   C4B72670  10.232  15.784   7.666
 5746POPC   NC372671  25.776  16.043   5.535
 5746POPC   PO472672  26.375  15.942   5.480
 5746POPC   GL172673  26.159  15.791   5.853
 5746POPC   GL272674  25.853  15.592   5.803
 5746POPC   C1A72675  26.233  15.994   6.256
 5746POPC   D2A72676  26.411  16.111   6.655
 5746POPC   C3A72677  26.150  16.039   6.986
 5746POPC   C4A72678  26.205  15.904   7.378
 5746POPC   C1B72679  25.984  15.461   6.230
 5746POPC   C2B72680  26.156  15.636   6.625
 5746POPC   C3B72681  25.949  15.572   7.022
 5746POPC   C4B72682  25.726  15.891   7.275
 5747POPC   NC372683   8.975  10.706   5.220
 5747POPC   PO472684   8.664  10.137   5.456
 5747POPC   GL172685   8.854  10.501   5.745
 5747POPC   GL272686   8.993  10.847   5.706
 5747POPC   C1A72687   9.100  10.535   6.134
 5747POPC   D2A72688   8.883  10.533   6.527
 5747POPC   C3A72689   9.069  10.693   6.916
 5747POPC   C4A72690   9.180  10.574   7.346
 5747POPC   C1B72691   8.771  10.930   6.091
 5747POPC   C2B72692   8.806  11.065   6.511
 5747POPC   C3B72693   8.660  11.050   6.919
 5747POPC   C4B72694   8.871  10.991   7.287
 5748POPC   NC372695  12.973  29.114   5.368
 5748POPC   PO472696  12.391  29.235   5.673
 5748POPC   GL172697  12.801  29.199   5.867
 5748POPC   GL272698  13.038  28.904   5.821
 5748POPC   C1A72699  12.955  29.324   6.257
 5748POPC   D2A72700  12.746  29.425   6.654
 5748POPC   C3A72701  12.926  29.279   7.032
 5748POPC   C4A72702  12.901  29.425   7.463
 5748POPC   C1B72703  12.950  28.809   6.230
 5748POPC   C2B72704  13.122  28.931   6.614
 5748POPC   C3B72705  13.021  28.770   7.015
 5748POPC   C4B72706  12.955  28.912   7.439
 5749POPC   NC372707   9.870  14.631   5.126
 5749POPC   PO472708   9.452  14.292   5.551
 5749POPC   GL172709   9.742  14.364   5.860
 5749POPC   GL272710  10.117  14.283   5.830
 5749POPC   C1A72711   9.580  14.495   6.258
 5749POPC   D2A72712   9.335  14.382   6.609
 5749POPC   C3A72713   9.539  14.645   6.875
 5749POPC   C4A72714   9.665  14.683   7.251
 5749POPC   C1B72715   9.971  14.141   6.249
 5749POPC   C2B72716   9.873  14.312   6.665
 5749POPC   C3B72717  10.052  14.380   7.079
 5749POPC   C4B72718  10.123  14.081   7.402
 5750POPC   NC372719  12.573  39.269   5.632
 5750POPC   PO472720  11.926  39.321   5.449
 5750POPC   GL172721  11.950  39.137   5.869
 5750POPC   GL272722  12.268  38.958   5.930
 5750POPC   C1A72723  12.086  39.294   6.285
 5750POPC   D2A72724  12.363  39.299   6.652
 5750POPC   C3A72725  12.115  39.288   7.031
 5750POPC   C4A72726  11.696  39.312   7.215
 5750POPC   C1B72727  12.175  38.800   6.365
 5750POPC   C2B72728  11.872  38.865   6.725
 5750POPC   C3B72729  11.906  38.832   7.185
 5750POPC   C4B72730  11.813  38.991   7.615
 5751POPC   NC372731  43.999  38.450   5.392
 5751POPC   PO472732  44.546  38.228   5.699
 5751POPC   GL172733  44.118  38.230   5.890
 5751POPC   GL272734  43.767  38.167   5.778
 5751POPC   C1A72735  43.921  38.548   6.185
 5751POPC   D2A72736  44.002  38.777   6.609
 5751POPC   C3A72737  44.024  38.673   7.073
 5751POPC   C4A72738  43.766  38.752   7.435
 5751POPC   C1B72739  43.731  38.082   6.210
 5751POPC   C2B72740  43.626  38.368   6.578
 5751POPC   C3B72741  43.543  38.504   6.992
 5751POPC   C4B72742  43.675  38.251   7.323
 5752POPC   NC372743  28.861  44.573   5.659
 5752POPC   PO472744  28.269  44.585   5.348
 5752POPC   GL172745  28.304  44.718   5.775
 5752POPC   GL272746  28.574  44.815   5.990
 5752POPC   C1A72747  28.140  44.681   6.191
 5752POPC   D2A72748  28.408  44.635   6.504
 5752POPC   C3A72749  28.222  44.657   6.877
 5752POPC   C4A72750  28.247  44.440   7.257
 5752POPC   C1B72751  28.610   0.095   6.295
 5752POPC   C2B72752  28.710   0.003   6.707
 5752POPC   C3B72753  28.665  44.778   7.085
 5752POPC   C4B72754  28.614  44.860   7.501
 5753POPC   NC372755  32.799   0.933   5.383
 5753POPC   PO472756  32.365   1.419   5.519
 5753POPC   GL172757  32.438   1.435   5.920
 5753POPC   GL272758  32.754   1.615   5.964
 5753POPC   C1A72759  32.227   1.234   6.277
 5753POPC   D2A72760  32.351   1.019   6.649
 5753POPC   C3A72761  32.112   1.108   7.012
 5753POPC   C4A72762  31.856   1.048   7.376
 5753POPC   C1B72763  32.710   1.419   6.353
 5753POPC   C2B72764  32.440   1.515   6.668
 5753POPC   C3B72765  32.542   1.426   7.091
 5753POPC   C4B72766  32.238   1.395   7.417
 5754POPC   NC372767  11.131  39.843   5.494
 5754POPC   PO472768  11.109  40.504   5.479
 5754POPC   GL172769  11.397  40.263   5.747
 5754POPC   GL272770  11.619  39.943   5.691
 5754POPC   C1A72771  11.439  40.171   6.183
 5754POPC   D2A72772  11.212  40.330   6.558
 5754POPC   C3A72773  11.371  40.259   6.972
 5754POPC   C4A72774  11.171  40.227   7.375
 5754POPC   C1B72775  11.760  39.763   6.104
 5754POPC   C2B72776  11.505  39.759   6.496
 5754POPC   C3B72777  11.635  39.803   6.915
 5754POPC   C4B72778  11.453  39.797   7.316
 5755POPC   NC372779  10.048  24.030   5.395
 5755POPC   PO472780   9.686  23.455   5.381
 5755POPC   GL172781   9.728  23.737   5.715
 5755POPC   GL272782  10.061  23.649   5.793
 5755POPC   C1A72783   9.699  23.806   6.176
 5755POPC   D2A72784   9.619  23.916   6.632
 5755POPC   C3A72785   9.645  23.678   7.045
 5755POPC   C4A72786   9.763  23.723   7.482
 5755POPC   C1B72787  10.032  23.437   6.252
 5755POPC   C2B72788  10.030  23.569   6.722
 5755POPC   C3B72789  10.137  23.796   7.148
 5755POPC   C4B72790  10.247  23.822   7.649
 5756POPC   NC372791   0.695  17.096   5.278
 5756POPC   PO472792   0.656  16.415   5.373
 5756POPC   GL172793   0.507  16.526   5.794
 5756POPC   GL272794   0.437  16.892   5.868
 5756POPC   C1A72795   0.367  16.497   6.224
 5756POPC   D2A72796   0.601  16.477   6.592
 5756POPC   C3A72797   0.373  16.575   6.956
 5756POPC   C4A72798   0.544  16.554   7.323
 5756POPC   C1B72799   0.559  17.057   6.306
 5756POPC   C2B72800   0.576  16.980   6.747
 5756POPC   C3B72801   0.463  17.065   7.198
 5756POPC   C4B72802   0.118  17.091   7.493
 5757POPC   NC372803  22.304  43.516   5.580
 5757POPC   PO472804  22.075  44.027   5.197
 5757POPC   GL172805  22.233  44.019   5.671
 5757POPC   GL272806  21.976  44.014   5.927
 5757POPC   C1A72807  22.413  44.012   6.135
 5757POPC   D2A72808  22.202  44.087   6.514
 5757POPC   C3A72809  22.457  44.133   6.873
 5757POPC   C4A72810  22.233  44.229   7.223
 5757POPC   C1B72811  21.932  43.719   6.257
 5757POPC   C2B72812  22.089  43.562   6.588
 5757POPC   C3B72813  22.080  43.775   6.956
 5757POPC   C4B72814  22.138  43.603   7.318
 5758POPC   NC372815  18.506  22.364   5.419
 5758POPC   PO472816  19.203  22.315   5.425
 5758POPC   GL172817  19.176  22.292   5.872
 5758POPC   GL272818  19.007  21.962   5.945
 5758POPC   C1A72819  19.366  22.522   6.208
 5758POPC   D2A72820  19.190  22.572   6.621
 5758POPC   C3A72821  18.934  22.257   6.820
 5758POPC   C4A72822  19.062  22.119   7.196
 5758POPC   C1B72823  19.139  22.089   6.367
 5758POPC   C2B72824  19.403  22.035   6.741
 5758POPC   C3B72825  19.457  21.784   7.124
 5758POPC   C4B72826  19.210  21.718   7.449
 5759POPC   NC372827   3.620   0.833   5.122
 5759POPC   PO472828   3.515   1.397   5.501
 5759POPC   GL172829   3.617   1.242   5.873
 5759POPC   GL272830   3.490   0.896   6.000
 5759POPC   C1A72831   3.801   1.239   6.251
 5759POPC   D2A72832   3.619   1.074   6.595
 5759POPC   C3A72833   3.880   1.234   6.904
 5759POPC   C4A72834   3.794   1.233   7.322
 5759POPC   C1B72835   3.275   1.259   6.237
 5759POPC   C2B72836   3.131   1.344   6.637
 5759POPC   C3B72837   3.336   1.271   7.024
 5759POPC   C4B72838   3.209   1.415   7.436
 5760POPC   NC372839  19.206  22.822   5.349
 5760POPC   PO472840  18.569  22.786   5.589
 5760POPC   GL172841  18.991  22.789   5.824
 5760POPC   GL272842  19.295  23.063   5.799
 5760POPC   C1A72843  18.989  22.904   6.253
 5760POPC   D2A72844  18.755  23.190   6.526
 5760POPC   C3A72845  18.917  23.057   6.910
 5760POPC   C4A72846  19.052  22.665   7.108
 5760POPC   C1B72847  19.474  23.109   6.222
 5760POPC   C2B72848  19.626  22.820   6.552
 5760POPC   C3B72849  19.557  22.730   6.990
 5760POPC   C4B72850  19.352  23.074   7.178
 5761POPC   NC372851  12.702  37.385   5.412
 5761POPC   PO472852  13.052  37.909   5.289
 5761POPC   GL172853  13.102  37.687   5.706
 5761POPC   GL272854  12.774  37.591   5.873
 5761POPC   C1A72855  13.177  37.675   6.171
 5761POPC   D2A72856  12.879  37.561   6.490
 5761POPC   C3A72857  12.987  37.796   6.865
 5761POPC   C4A72858  13.068  37.655   7.269
 5761POPC   C1B72859  12.759  37.976   6.150
 5761POPC   C2B72860  12.589  37.963   6.567
 5761POPC   C3B72861  12.511  37.617   6.886
 5761POPC   C4B72862  12.571  37.765   7.316
 5762POPC   NC372863  26.624   7.380   5.593
 5762POPC   PO472864  27.259   7.076   5.486
 5762POPC   GL172865  27.125   7.335   5.878
 5762POPC   GL272866  26.790   7.294   6.044
 5762POPC   C1A72867  27.084   7.639   6.260
 5762POPC   D2A72868  26.887   7.784   6.682
 5762POPC   C3A72869  26.662   7.494   6.987
 5762POPC   C4A72870  26.728   7.424   7.428
 5762POPC   C1B72871  26.749   7.312   6.486
 5762POPC   C2B72872  27.025   7.114   6.763
 5762POPC   C3B72873  26.945   6.965   7.179
 5762POPC   C4B72874  27.077   7.101   7.604
 5763POPC   NC372875  39.255  12.555   5.593
 5763POPC   PO472876  38.846  13.101   5.561
 5763POPC   GL172877  38.999  13.140   5.944
 5763POPC   GL272878  39.327  13.024   5.853
 5763POPC   C1A72879  39.036  13.066   6.373
 5763POPC   D2A72880  39.393  12.977   6.618
 5763POPC   C3A72881  39.282  12.871   6.977
 5763POPC   C4A72882  39.401  13.090   7.315
 5763POPC   C1B72883  39.394  12.723   6.185
 5763POPC   C2B72884  39.393  12.443   6.527
 5763POPC   C3B72885  39.642  12.459   6.870
 5763POPC   C4B72886  39.570  12.567   7.289
 5764POPC   NC372887  32.785  27.254   5.553
 5764POPC   PO472888  32.327  27.796   5.420
 5764POPC   GL172889  32.185  27.820   5.824
 5764POPC   GL272890  32.075  28.074   5.963
 5764POPC   C1A72891  32.033  27.633   6.256
 5764POPC   D2A72892  31.948  27.652   6.712
 5764POPC   C3A72893  32.189  27.612   7.097
 5764POPC   C4A72894  32.276  27.207   7.277
 5764POPC   C1B72895  32.461  27.924   6.211
 5764POPC   C2B72896  32.455  27.728   6.589
 5764POPC   C3B72897  32.649  27.841   6.943
 5764POPC   C4B72898  32.603  27.934   7.328
 5765POPC   NC372899   7.162  29.701   5.426
 5765POPC   PO472900   7.354  30.330   5.316
 5765POPC   GL172901   7.250  30.124   5.725
 5765POPC   GL272902   7.414  29.794   5.864
 5765POPC   C1A72903   7.142  30.146   6.165
 5765POPC   D2A72904   7.362  29.933   6.523
 5765POPC   C3A72905   7.349  30.141   6.947
 5765POPC   C4A72906   7.428  30.097   7.404
 5765POPC   C1B72907   7.653  29.506   6.153
 5765POPC   C2B72908   7.593  29.425   6.583
 5765POPC   C3B72909   7.492  29.643   6.943
 5765POPC   C4B72910   7.590  29.622   7.354
 5766POPC   NC372911  29.918  29.429   5.357
 5766POPC   PO472912  29.460  28.964   5.337
 5766POPC   GL172913  29.808  28.983   5.681
 5766POPC   GL272914  30.075  29.257   5.785
 5766POPC   C1A72915  29.881  28.949   6.141
 5766POPC   D2A72916  29.699  28.836   6.529
 5766POPC   C3A72917  29.802  29.047   6.907
 5766POPC   C4A72918  30.021  28.936   7.293
 5766POPC   C1B72919  29.724  29.428   6.017
 5766POPC   C2B72920  29.830  29.400   6.455
 5766POPC   C3B72921  29.895  29.570   6.869
 5766POPC   C4B72922  29.780  29.426   7.258
 5767POPC   NC372923  31.824   6.895   5.532
 5767POPC   PO472924  32.444   6.528   5.295
 5767POPC   GL172925  32.193   6.556   5.676
 5767POPC   GL272926  32.315   6.906   5.699
 5767POPC   C1A72927  31.978   6.472   6.099
 5767POPC   D2A72928  31.937   6.605   6.562
 5767POPC   C3A72929  32.213   6.589   6.929
 5767POPC   C4A72930  32.261   6.678   7.392
 5767POPC   C1B72931  32.320   7.118   6.119
 5767POPC   C2B72932  32.296   6.952   6.534
 5767POPC   C3B72933  32.433   7.059   6.927
 5767POPC   C4B72934  32.455   7.195   7.328
 5768POPC   NC372935  40.385  16.514   5.370
 5768POPC   PO472936  40.681  17.052   5.570
 5768POPC   GL172937  40.594  16.708   5.865
 5768POPC   GL272938  40.818  16.430   5.809
 5768POPC   C1A72939  40.730  16.647   6.306
 5768POPC   D2A72940  40.496  16.572   6.690
 5768POPC   C3A72941  40.607  16.605   7.138
 5768POPC   C4A72942  40.513  16.694   7.579
 5768POPC   C1B72943  41.103  16.299   6.155
 5768POPC   C2B72944  41.067  16.134   6.586
 5768POPC   C3B72945  41.260  16.366   6.931
 5768POPC   C4B72946  41.113  16.658   7.266
 5769POPC   NC372947  17.327  31.081   5.338
 5769POPC   PO472948  17.768  31.593   5.391
 5769POPC   GL172949  17.677  31.336   5.778
 5769POPC   GL272950  17.317  31.296   5.818
 5769POPC   C1A72951  17.698  31.312   6.254
 5769POPC   D2A72952  17.646  31.484   6.697
 5769POPC   C3A72953  17.506  31.175   6.997
 5769POPC   C4A72954  17.807  30.972   7.200
 5769POPC   C1B72955  17.189  31.438   6.232
 5769POPC   C2B72956  17.159  31.298   6.655
 5769POPC   C3B72957  17.047  31.449   7.075
 5769POPC   C4B72958  17.211  31.358   7.484
 5770POPC   NC372959  44.959  39.388   5.426
 5770POPC   PO472960  44.504  38.946   5.685
 5770POPC   GL172961  44.845  39.101   5.866
 5770POPC   GL272962  44.848  39.454   5.935
 5770POPC   C1A72963  44.864  39.108   6.299
 5770POPC   D2A72964  44.995  39.407   6.586
 5770POPC   C3A72965  44.875  39.236   6.961
 5770POPC   C4A72966  44.554  39.053   7.191
 5770POPC   C1B72967  44.558  39.526   6.319
 5770POPC   C2B72968  44.527  39.696   6.739
 5770POPC   C3B72969  44.428  39.553   7.155
 5770POPC   C4B72970  44.089  39.239   7.240
 5771POPC   NC372971  10.291  21.333   5.420
 5771POPC   PO472972  10.925  21.383   5.342
 5771POPC   GL172973  10.745  21.214   5.768
 5771POPC   GL272974  10.383  21.138   5.886
 5771POPC   C1A72975  10.751  21.136   6.231
 5771POPC   D2A72976  10.472  21.206   6.555
 5771POPC   C3A72977  10.570  21.202   6.982
 5771POPC   C4A72978  10.628  21.407   7.362
 5771POPC   C1B72979  10.354  21.550   6.182
 5771POPC   C2B72980  10.273  21.770   6.618
 5771POPC   C3B72981  10.440  21.769   7.067
 5771POPC   C4B72982  10.326  21.782   7.552
 5772POPC   NC372983  38.155  16.447   5.392
 5772POPC   PO472984  37.508  16.483   5.528
 5772POPC   GL172985  37.426  16.706   5.919
 5772POPC   GL272986  37.722  16.929   5.917
 5772POPC   C1A72987  37.159  16.577   6.286
 5772POPC   D2A72988  37.267  16.268   6.612
 5772POPC   C3A72989  37.422  16.479   7.009
 5772POPC   C4A72990  37.817  16.539   7.232
 5772POPC   C1B72991  37.492  17.064   6.298
 5772POPC   C2B72992  37.525  17.149   6.741
 5772POPC   C3B72993  37.648  17.013   7.171
 5772POPC   C4B72994  37.809  17.038   7.616
 5773POPC   NC372995  19.391  37.878   5.527
 5773POPC   PO472996  18.885  37.393   5.334
 5773POPC   GL172997  18.954  37.623   5.743
 5773POPC   GL272998  19.305  37.523   5.894
 5773POPC   C1A72999  18.732  37.664   6.153
 5773POPC   D2A73000  18.678  37.448   6.533
 5773POPC   C3A73001  18.944  37.589   6.857
 5773POPC   C4A73002  18.758  37.548   7.241
 5773POPC   C1B73003  19.195  37.881   6.165
 5773POPC   C2B73004  19.251  38.037   6.556
 5773POPC   C3B73005  19.323  38.069   6.966
 5773POPC   C4B73006  19.175  37.834   7.268
 5774POPC   NC373007  21.171  33.301   5.101
 5774POPC   PO473008  20.818  32.823   5.415
 5774POPC   GL173009  20.674  33.010   5.816
 5774POPC   GL273010  20.308  32.960   5.891
 5774POPC   C1A73011  20.577  33.256   6.200
 5774POPC   D2A73012  20.570  33.118   6.625
 5774POPC   C3A73013  20.495  33.341   6.966
 5774POPC   C4A73014  20.709  33.282   7.337
 5774POPC   C1B73015  20.331  32.801   6.321
 5774POPC   C2B73016  20.263  32.737   6.771
 5774POPC   C3B73017  20.526  32.856   7.120
 5774POPC   C4B73018  20.479  32.870   7.586
 5775POPC   NC373019  16.085  27.868   5.413
 5775POPC   PO473020  15.464  27.601   5.567
 5775POPC   GL173021  15.724  27.825   5.812
 5775POPC   GL273022  16.075  27.702   5.892
 5775POPC   C1A73023  15.703  27.706   6.238
 5775POPC   D2A73024  15.917  27.809   6.576
 5775POPC   C3A73025  15.674  27.850   6.946
 5775POPC   C4A73026  15.899  27.845   7.317
 5775POPC   C1B73027  16.156  27.405   6.237
 5775POPC   C2B73028  16.303  27.449   6.637
 5775POPC   C3B73029  16.116  27.536   6.990
 5775POPC   C4B73030  16.156  27.400   7.409
 5776POPC   NC373031   3.638  38.846   5.717
 5776POPC   PO473032   3.476  39.335   5.323
 5776POPC   GL173033   3.533  39.348   5.799
 5776POPC   GL273034   3.301  39.150   5.941
 5776POPC   C1A73035   3.726  39.394   6.233
 5776POPC   D2A73036   3.805  39.494   6.681
 5776POPC   C3A73037   3.532  39.302   7.001
 5776POPC   C4A73038   3.649  38.870   7.098
 5776POPC   C1B73039   3.322  39.128   6.399
 5776POPC   C2B73040   3.084  39.161   6.763
 5776POPC   C3B73041   3.063  39.037   7.184
 5776POPC   C4B73042   3.182  39.276   7.563
 5777POPC   NC373043  24.007  13.170   5.530
 5777POPC   PO473044  23.559  13.617   5.481
 5777POPC   GL173045  23.809  13.572   5.842
 5777POPC   GL273046  24.171  13.455   5.909
 5777POPC   C1A73047  23.695  13.746   6.206
 5777POPC   D2A73048  23.786  13.542   6.550
 5777POPC   C3A73049  23.803  13.454   6.975
 5777POPC   C4A73050  23.543  13.457   7.363
 5777POPC   C1B73051  24.198  13.816   6.172
 5777POPC   C2B73052  24.034  14.018   6.516
 5777POPC   C3B73053  24.091  14.038   6.927
 5777POPC   C4B73054  24.055  13.765   7.274
 5778POPC   NC373055  40.310  23.869   5.513
 5778POPC   PO473056  39.780  23.447   5.535
 5778POPC   GL173057  39.974  23.682   5.869
 5778POPC   GL273058  39.931  24.059   5.829
 5778POPC   C1A73059  40.272  23.649   6.216
 5778POPC   D2A73060  40.435  23.767   6.606
 5778POPC   C3A73061  40.280  23.546   6.999
 5778POPC   C4A73062  39.849  23.587   7.159
 5778POPC   C1B73063  39.866  23.967   6.282
 5778POPC   C2B73064  39.947  23.837   6.714
 5778POPC   C3B73065  39.968  24.072   7.108
 5778POPC   C4B73066  39.759  24.117   7.544
 5779POPC   NC373067   6.141  13.640   5.431
 5779POPC   PO473068   5.495  13.396   5.450
 5779POPC   GL173069   5.584  13.785   5.753
 5779POPC   GL273070   5.952  13.762   5.889
 5779POPC   C1A73071   5.623  13.948   6.214
 5779POPC   D2A73072   6.013  13.831   6.476
 5779POPC   C3A73073   5.946  13.781   6.939
 5779POPC   C4A73074   5.849  13.503   7.312
 5779POPC   C1B73075   5.916  13.414   6.206
 5779POPC   C2B73076   5.994  13.323   6.668
 5779POPC   C3B73077   6.142  13.159   7.077
 5779POPC   C4B73078   6.174  13.198   7.564
 5780POPC   NC373079  40.378  27.395   5.609
 5780POPC   PO473080  39.901  27.718   5.272
 5780POPC   GL173081  39.891  27.532   5.726
 5780POPC   GL273082  40.093  27.298   5.994
 5780POPC   C1A73083  39.920  27.759   6.125
 5780POPC   D2A73084  39.939  27.961   6.523
 5780POPC   C3A73085  39.993  27.672   6.870
 5780POPC   C4A73086  39.622  27.489   7.104
 5780POPC   C1B73087  40.254  27.450   6.409
 5780POPC   C2B73088  40.607  27.484   6.709
 5780POPC   C3B73089  40.487  27.708   7.091
 5780POPC   C4B73090  40.138  27.542   7.366
 5781POPC   NC373091  27.449  33.165   5.299
 5781POPC   PO473092  27.865  32.764   5.435
 5781POPC   GL173093  27.608  32.884   5.771
 5781POPC   GL273094  27.557  33.228   5.801
 5781POPC   C1A73095  27.584  32.890   6.239
 5781POPC   D2A73096  27.652  33.200   6.593
 5781POPC   C3A73097  27.607  33.065   7.018
 5781POPC   C4A73098  27.583  32.700   7.271
 5781POPC   C1B73099  27.456  33.461   6.192
 5781POPC   C2B73100  27.210  33.507   6.601
 5781POPC   C3B73101  27.314  33.467   7.061
 5781POPC   C4B73102  27.273  33.116   7.413
 5782POPC   NC373103  31.831  31.139   5.430
 5782POPC   PO473104  31.312  31.612   5.416
 5782POPC   GL173105  31.539  31.421   5.793
 5782POPC   GL273106  31.602  31.050   5.874
 5782POPC   C1A73107  31.654  31.398   6.242
 5782POPC   D2A73108  31.732  31.449   6.676
 5782POPC   C3A73109  31.489  31.717   6.917
 5782POPC   C4A73110  31.484  31.704   7.367
 5782POPC   C1B73111  31.259  31.061   6.202
 5782POPC   C2B73112  31.224  31.256   6.641
 5782POPC   C3B73113  31.395  31.238   7.086
 5782POPC   C4B73114  31.204  31.293   7.519
 5783POPC   NC373115  35.451  14.919   5.294
 5783POPC   PO473116  34.803  15.164   5.312
 5783POPC   GL173117  35.127  15.103   5.666
 5783POPC   GL273118  35.437  15.337   5.740
 5783POPC   C1A73119  35.339  14.909   6.030
 5783POPC   D2A73120  35.566  14.927   6.431
 5783POPC   C3A73121  35.338  14.950   6.827
 5783POPC   C4A73122  35.476  14.907   7.232
 5783POPC   C1B73123  35.582  15.396   6.206
 5783POPC   C2B73124  35.488  15.456   6.688
 5783POPC   C3B73125  35.395  15.421   7.149
 5783POPC   C4B73126  35.499  15.313   7.589
 5784POPC   NC373127  44.567  23.587   5.361
 5784POPC   PO473128  44.740  24.249   5.185
 5784POPC   GL173129  44.643  23.964   5.657
 5784POPC   GL273130  44.755  23.583   5.809
 5784POPC   C1A73131  44.664  23.893   6.178
 5784POPC   D2A73132  44.737  23.995   6.656
 5784POPC   C3A73133  44.635  23.818   7.094
 5784POPC   C4A73134  44.493  23.972   7.520
 5784POPC   C1B73135  44.497  23.389   6.131
 5784POPC   C2B73136  44.542  23.498   6.559
 5784POPC   C3B73137  44.357  23.349   6.955
 5784POPC   C4B73138  44.414  23.430   7.383
 5785POPC   NC373139  39.021  14.110   5.364
 5785POPC   PO473140  39.479  14.628   5.589
 5785POPC   GL173141  39.272  14.428   5.914
 5785POPC   GL273142  38.953  14.367   5.801
 5785POPC   C1A73143  39.139  14.171   6.269
 5785POPC   D2A73144  38.996  13.997   6.675
 5785POPC   C3A73145  39.282  14.175   6.981
 5785POPC   C4A73146  39.356  14.666   7.117
 5785POPC   C1B73147  38.804  14.551   6.187
 5785POPC   C2B73148  38.982  14.565   6.612
 5785POPC   C3B73149  38.887  14.484   7.041
 5785POPC   C4B73150  38.899  14.072   7.293
 5786POPC   NC373151  32.024  27.412   5.562
 5786POPC   PO473152  31.399  27.617   5.407
 5786POPC   GL173153  31.345  27.830   5.792
 5786POPC   GL273154  31.687  27.722   5.853
 5786POPC   C1A73155  31.182  27.768   6.225
 5786POPC   D2A73156  31.449  27.675   6.578
 5786POPC   C3A73157  31.558  27.779   7.004
 5786POPC   C4A73158  31.286  27.699   7.296
 5786POPC   C1B73159  31.567  27.374   6.149
 5786POPC   C2B73160  31.288  27.194   6.495
 5786POPC   C3B73161  31.330  27.180   6.951
 5786POPC   C4B73162  31.759  27.277   7.109
 5787POPC   NC373163   9.492  31.157   5.406
 5787POPC   PO473164  10.003  31.658   5.470
 5787POPC   GL173165   9.848  31.436   5.842
 5787POPC   GL273166   9.644  31.148   5.925
 5787POPC   C1A73167  10.001  31.367   6.276
 5787POPC   D2A73168   9.826  31.459   6.704
 5787POPC   C3A73169   9.995  31.249   7.055
 5787POPC   C4A73170  10.039  31.105   7.475
 5787POPC   C1B73171   9.494  31.351   6.301
 5787POPC   C2B73172   9.283  31.257   6.670
 5787POPC   C3B73173   9.282  31.278   7.089
 5787POPC   C4B73174   9.596  31.488   7.342
 5788POPC   NC373175  16.738  40.222   5.290
 5788POPC   PO473176  16.166  40.021   5.473
 5788POPC   GL173177  16.493  39.921   5.767
 5788POPC   GL273178  16.779  40.120   5.780
 5788POPC   C1A73179  16.470  39.959   6.203
 5788POPC   D2A73180  16.554  39.782   6.596
 5788POPC   C3A73181  16.469  39.993   6.945
 5788POPC   C4A73182  16.617  39.914   7.322
 5788POPC   C1B73183  16.972  40.004   6.137
 5788POPC   C2B73184  16.992  40.063   6.555
 5788POPC   C3B73185  16.979  39.914   6.950
 5788POPC   C4B73186  17.127  40.038   7.316
 5789POPC   NC373187  10.063  26.215   5.557
 5789POPC   PO473188   9.346  26.114   5.512
 5789POPC   GL173189   9.413  26.005   5.931
 5789POPC   GL273190   9.737  25.887   5.833
 5789POPC   C1A73191   9.644  26.192   6.305
 5789POPC   D2A73192   9.894  26.344   6.685
 5789POPC   C3A73193   9.689  26.179   7.051
 5789POPC   C4A73194   9.271  26.052   7.189
 5789POPC   C1B73195   9.856  25.752   6.209
 5789POPC   C2B73196   9.767  25.830   6.662
 5789POPC   C3B73197  10.081  25.850   6.999
 5789POPC   C4B73198  10.120  25.507   7.324
 5790POPC   NC373199   4.649   8.578   5.170
 5790POPC   PO473200   4.344   7.933   5.276
 5790POPC   GL173201   4.249   8.051   5.743
 5790POPC   GL273202   4.515   8.116   5.858
 5790POPC   C1A73203   4.226   7.915   6.210
 5790POPC   D2A73204   4.079   8.061   6.627
 5790POPC   C3A73205   4.398   8.142   6.941
 5790POPC   C4A73206   4.626   7.712   7.017
 5790POPC   C1B73207   4.432   8.374   6.265
 5790POPC   C2B73208   4.751   8.498   6.551
 5790POPC   C3B73209   4.670   8.619   6.954
 5790POPC   C4B73210   4.304   8.616   7.216
 5791POPC   NC373211  40.725  31.442   5.408
 5791POPC   PO473212  41.050  30.977   5.756
 5791POPC   GL173213  40.831  31.383   5.901
 5791POPC   GL273214  40.514  31.598   5.843
 5791POPC   C1A73215  40.721  31.523   6.289
 5791POPC   D2A73216  40.493  31.292   6.561
 5791POPC   C3A73217  40.618  31.499   6.929
 5791POPC   C4A73218  40.850  31.514   7.239
 5791POPC   C1B73219  40.276  31.797   6.179
 5791POPC   C2B73220  40.411  31.806   6.593
 5791POPC   C3B73221  40.203  31.788   6.990
 5791POPC   C4B73222  40.326  31.635   7.425
 5792POPC   NC373223   3.484   1.881   5.428
 5792POPC   PO473224   3.384   2.559   5.249
 5792POPC   GL173225   3.317   2.318   5.715
 5792POPC   GL273226   3.569   2.070   5.881
 5792POPC   C1A73227   3.294   2.241   6.231
 5792POPC   D2A73228   3.624   2.117   6.537
 5792POPC   C3A73229   3.475   2.171   6.965
 5792POPC   C4A73230   3.681   2.141   7.339
 5792POPC   C1B73231   3.593   1.716   6.199
 5792POPC   C2B73232   3.567   1.593   6.637
 5792POPC   C3B73233   3.686   1.683   7.053
 5792POPC   C4B73234   3.620   1.679   7.489
 5793POPC   NC373235  16.782  35.383   5.428
 5793POPC   PO473236  16.376  35.080   5.771
 5793POPC   GL173237  16.667  35.409   5.924
 5793POPC   GL273238  16.999  35.243   5.876
 5793POPC   C1A73239  16.881  35.504   6.315
 5793POPC   D2A73240  16.705  35.315   6.723
 5793POPC   C3A73241  16.713  35.502   7.139
 5793POPC   C4A73242  16.347  35.638   7.390
 5793POPC   C1B73243  17.027  35.029   6.305
 5793POPC   C2B73244  17.203  35.204   6.700
 5793POPC   C3B73245  17.047  35.123   7.115
 5793POPC   C4B73246  16.702  34.845   7.259
 5794POPC   NC373247  23.190   3.761   5.477
 5794POPC   PO473248  23.000   3.076   5.318
 5794POPC   GL173249  22.975   3.359   5.719
 5794POPC   GL273250  22.638   3.460   5.868
 5794POPC   C1A73251  23.106   3.586   6.127
 5794POPC   D2A73252  23.126   3.299   6.512
 5794POPC   C3A73253  23.032   3.277   6.951
 5794POPC   C4A73254  22.954   3.608   7.195
 5794POPC   C1B73255  22.670   3.449   6.323
 5794POPC   C2B73256  22.860   3.741   6.625
 5794POPC   C3B73257  22.602   3.842   6.936
 5794POPC   C4B73258  22.533   3.392   6.975
 5795POPC   NC373259  24.474  15.526   5.392
 5795POPC   PO473260  24.491  16.208   5.366
 5795POPC   GL173261  24.429  16.105   5.787
 5795POPC   GL273262  24.652  15.856   5.765
 5795POPC   C1A73263  24.257  16.204   6.209
 5795POPC   D2A73264  24.231  15.967   6.606
 5795POPC   C3A73265  24.333  16.098   7.014
 5795POPC   C4A73266  24.475  16.227   7.411
 5795POPC   C1B73267  24.556  15.775   6.183
 5795POPC   C2B73268  24.709  15.799   6.577
 5795POPC   C3B73269  24.569  15.663   6.957
 5795POPC   C4B73270  24.725  15.789   7.336
 5796POPC   NC373271   4.868  28.514   5.475
 5796POPC   PO473272   5.413  28.051   5.483
 5796POPC   GL173273   5.147  28.231   5.813
 5796POPC   GL273274   4.911  27.981   5.903
 5796POPC   C1A73275   4.972  28.432   6.217
 5796POPC   D2A73276   5.140  28.392   6.666
 5796POPC   C3A73277   4.886  28.317   7.047
 5796POPC   C4A73278   4.670  28.597   7.317
 5796POPC   C1B73279   5.155  27.957   6.287
 5796POPC   C2B73280   4.974  27.885   6.689
 5796POPC   C3B73281   5.263  27.983   6.984
 5796POPC   C4B73282   5.276  28.071   7.361
 5797POPC   NC373283  34.701  22.795   5.436
 5797POPC   PO473284  34.196  23.208   5.406
 5797POPC   GL173285  34.353  22.964   5.795
 5797POPC   GL273286  34.452  22.596   5.843
 5797POPC   C1A73287  34.397  22.996   6.231
 5797POPC   D2A73288  34.778  23.053   6.509
 5797POPC   C3A73289  34.701  23.122   6.966
 5797POPC   C4A73290  34.908  23.225   7.364
 5797POPC   C1B73291  34.654  22.566   6.256
 5797POPC   C2B73292  34.512  22.651   6.674
 5797POPC   C3B73293  34.648  22.588   7.104
 5797POPC   C4B73294  34.947  22.704   7.416
 5798POPC   NC373295  25.554  16.965   5.216
 5798POPC   PO473296  24.966  16.656   5.275
 5798POPC   GL173297  25.165  16.686   5.697
 5798POPC   GL273298  25.368  16.366   5.730
 5798POPC   C1A73299  25.060  16.753   6.170
 5798POPC   D2A73300  25.044  16.639   6.623
 5798POPC   C3A73301  25.025  16.917   7.015
 5798POPC   C4A73302  25.312  16.849   7.411
 5798POPC   C1B73303  25.378  16.331   6.181
 5798POPC   C2B73304  25.585  16.552   6.528
 5798POPC   C3B73305  25.459  16.663   6.935
 5798POPC   C4B73306  25.199  16.397   7.208
 5799POPC   NC373307   7.957  44.229   5.493
 5799POPC   PO473308   8.316  44.740   5.350
 5799POPC   GL173309   8.327  44.606   5.804
 5799POPC   GL273310   8.116  44.348   5.952
 5799POPC   C1A73311   8.419  44.612   6.263
 5799POPC   D2A73312   8.259  44.715   6.680
 5799POPC   C3A73313   8.529  44.631   7.049
 5799POPC   C4A73314   8.485  44.386   7.417
 5799POPC   C1B73315   7.758  44.451   6.179
 5799POPC   C2B73316   7.702  44.589   6.613
 5799POPC   C3B73317   7.850  44.653   7.012
 5799POPC   C4B73318   8.017  44.579   7.409
 5800POPC   NC373319   4.225  31.988   5.361
 5800POPC   PO473320   4.636  32.490   5.437
 5800POPC   GL173321   4.372  32.223   5.787
 5800POPC   GL273322   4.064  32.012   5.838
 5800POPC   C1A73323   4.460  32.015   6.231
 5800POPC   D2A73324   4.662  32.118   6.651
 5800POPC   C3A73325   4.485  32.340   7.044
 5800POPC   C4A73326   4.557  32.144   7.442
 5800POPC   C1B73327   4.081  32.345   6.172
 5800POPC   C2B73328   4.191  32.309   6.593
 5800POPC   C3B73329   4.105  32.061   6.938
 5800POPC   C4B73330   3.797  32.367   7.116
 5801POPC   NC373331  23.325   2.002   5.438
 5801POPC   PO473332  22.659   2.135   5.443
 5801POPC   GL173333  22.744   1.947   5.867
 5801POPC   GL273334  23.075   1.768   5.861
 5801POPC   C1A73335  22.860   1.963   6.326
 5801POPC   D2A73336  23.018   1.822   6.735
 5801POPC   C3A73337  22.797   1.947   7.117
 5801POPC   C4A73338  22.810   1.765   7.541
 5801POPC   C1B73339  23.313   2.085   6.119
 5801POPC   C2B73340  23.414   2.095   6.548
 5801POPC   C3B73341  23.385   2.192   6.986
 5801POPC   C4B73342  23.256   1.999   7.352
 5802POPC   NC373343  36.958  42.576   5.468
 5802POPC   PO473344  37.272  41.944   5.471
 5802POPC   GL173345  37.045  42.078   5.857
 5802POPC   GL273346  36.711  42.232   5.790
 5802POPC   C1A73347  36.880  42.171   6.302
 5802POPC   D2A73348  37.052  42.408   6.689
 5802POPC   C3A73349  36.982  42.205   7.109
 5802POPC   C4A73350  36.842  42.315   7.534
 5802POPC   C1B73351  36.686  42.614   6.091
 5802POPC   C2B73352  36.655  42.744   6.539
 5802POPC   C3B73353  36.660  42.611   7.005
 5802POPC   C4B73354  36.467  42.664   7.433
 5803POPC   NC373355  10.741  33.654   5.326
 5803POPC   PO473356  10.189  33.970   5.292
 5803POPC   GL173357  10.424  33.802   5.721
 5803POPC   GL273358  10.794  33.627   5.817
 5803POPC   C1A73359  10.369  33.559   6.137
 5803POPC   D2A73360  10.544  33.462   6.586
 5803POPC   C3A73361  10.546  33.704   6.983
 5803POPC   C4A73362  10.450  33.589   7.444
 5803POPC   C1B73363  10.770  33.876   6.173
 5803POPC   C2B73364  10.835  33.966   6.584
 5803POPC   C3B73365  10.939  34.086   6.995
 5803POPC   C4B73366  10.677  34.057   7.320
 5804POPC   NC373367  31.779  17.519   5.230
 5804POPC   PO473368  31.219  17.193   5.458
 5804POPC   GL173369  31.427  17.210   5.852
 5804POPC   GL273370  31.753  17.307   5.732
 5804POPC   C1A73371  31.411  17.257   6.306
 5804POPC   D2A73372  31.293  17.474   6.683
 5804POPC   C3A73373  31.533  17.498   7.063
 5804POPC   C4A73374  31.441  17.548   7.499
 5804POPC   C1B73375  31.701  17.620   6.108
 5804POPC   C2B73376  31.726  17.760   6.569
 5804POPC   C3B73377  31.820  17.913   6.989
 5804POPC   C4B73378  31.828  17.859   7.477
 5805POPC   NC373379   9.188  28.110   5.096
 5805POPC   PO473380   9.719  28.341   5.481
 5805POPC   GL173381   9.876  28.268   5.855
 5805POPC   GL273382   9.922  28.610   5.881
 5805POPC   C1A73383   9.785  28.353   6.301
 5805POPC   D2A73384   9.740  28.120   6.664
 5805POPC   C3A73385   9.981  28.282   6.990
 5805POPC   C4A73386   9.865  28.407   7.382
 5805POPC   C1B73387   9.541  28.767   6.108
 5805POPC   C2B73388   9.395  28.648   6.520
 5805POPC   C3B73389   9.480  28.486   6.931
 5805POPC   C4B73390   9.394  28.632   7.314
 5806POPC   NC373391  16.212  10.927   5.286
 5806POPC   PO473392  15.721  10.494   5.310
 5806POPC   GL173393  15.836  10.540   5.763
 5806POPC   GL273394  16.038  10.835   5.875
 5806POPC   C1A73395  16.051  10.346   6.128
 5806POPC   D2A73396  16.059  10.470   6.564
 5806POPC   C3A73397  15.865  10.341   6.931
 5806POPC   C4A73398  15.949  10.401   7.387
 5806POPC   C1B73399  15.983  11.025   6.300
 5806POPC   C2B73400  16.179  10.964   6.716
 5806POPC   C3B73401  16.053  10.810   7.118
 5806POPC   C4B73402  16.061  10.849   7.603
 5807POPC   NC373403   6.262  44.657   5.605
 5807POPC   PO473404   6.814  44.363   5.393
 5807POPC   GL173405   6.745  44.526   5.803
 5807POPC   GL273406   6.691  44.872   5.793
 5807POPC   C1A73407   6.826  44.686   6.244
 5807POPC   D2A73408   6.587  44.787   6.591
 5807POPC   C3A73409   6.585  44.570   6.964
 5807POPC   C4A73410   6.894  44.781   7.228
 5807POPC   C1B73411   6.415   0.028   6.155
 5807POPC   C2B73412   6.187   0.111   6.561
 5807POPC   C3B73413   6.355   0.032   6.986
 5807POPC   C4B73414   6.376  44.784   7.368
 5808POPC   NC373415   3.817  42.410   5.480
 5808POPC   PO473416   3.191  42.558   5.355
 5808POPC   GL173417   3.368  42.492   5.809
 5808POPC   GL273418   3.678  42.295   5.969
 5808POPC   C1A73419   3.259  42.356   6.247
 5808POPC   D2A73420   3.084  42.327   6.671
 5808POPC   C3A73421   3.361  42.555   6.941
 5808POPC   C4A73422   3.635  42.343   7.258
 5808POPC   C1B73423   3.629  42.014   6.368
 5808POPC   C2B73424   3.667  42.020   6.830
 5808POPC   C3B73425   4.000  42.000   7.149
 5808POPC   C4B73426   3.993  42.130   7.583
 5809POPC   NC373427   2.589  40.257   5.487
 5809POPC   PO473428   3.059  39.811   5.409
 5809POPC   GL173429   2.950  39.992   5.836
 5809POPC   GL273430   2.589  39.999   5.917
 5809POPC   C1A73431   2.930  39.991   6.320
 5809POPC   D2A73432   3.048  40.040   6.748
 5809POPC   C3A73433   2.894  40.337   6.998
 5809POPC   C4A73434   2.898  40.234   7.428
 5809POPC   C1B73435   2.396  40.146   6.306
 5809POPC   C2B73436   2.544  40.008   6.688
 5809POPC   C3B73437   2.581  39.939   7.135
 5809POPC   C4B73438   2.388  40.297   7.358
 5810POPC   NC373439   9.466  13.921   5.272
 5810POPC   PO473440  10.158  13.596   5.425
 5810POPC   GL173441  10.004  13.778   5.793
 5810POPC   GL273442   9.636  13.850   5.759
 5810POPC   C1A73443   9.837  13.641   6.190
 5810POPC   D2A73444   9.987  13.531   6.577
 5810POPC   C3A73445   9.666  13.438   6.835
 5810POPC   C4A73446   9.508  13.478   7.212
 5810POPC   C1B73447   9.463  14.000   6.164
 5810POPC   C2B73448   9.560  13.890   6.588
 5810POPC   C3B73449   9.718  13.936   7.023
 5810POPC   C4B73450   9.633  14.207   7.378
 5811POPC   NC373451  16.076  26.242   5.511
 5811POPC   PO473452  15.548  25.737   5.474
 5811POPC   GL173453  15.610  25.870   5.895
 5811POPC   GL273454  15.744  26.206   5.904
 5811POPC   C1A73455  15.769  25.858   6.331
 5811POPC   D2A73456  16.069  25.886   6.666
 5811POPC   C3A73457  15.848  25.831   7.071
 5811POPC   C4A73458  15.692  25.778   7.524
 5811POPC   C1B73459  16.132  26.214   6.206
 5811POPC   C2B73460  16.214  26.401   6.624
 5811POPC   C3B73461  16.183  26.244   7.069
 5811POPC   C4B73462  15.787  26.252   7.362
 5812POPC   NC373463   2.809  27.036   5.180
 5812POPC   PO473464   2.904  27.679   5.314
 5812POPC   GL173465   2.688  27.593   5.747
 5812POPC   GL273466   2.678  27.925   5.914
 5812POPC   C1A73467   2.849  27.508   6.208
 5812POPC   D2A73468   3.065  27.392   6.626
 5812POPC   C3A73469   2.843  27.427   7.049
 5812POPC   C4A73470   2.756  27.465   7.533
 5812POPC   C1B73471   2.532  27.923   6.349
 5812POPC   C2B73472   2.627  27.835   6.780
 5812POPC   C3B73473   2.542  27.840   7.233
 5812POPC   C4B73474   2.509  27.905   7.689
 5813POPC   NC373475  31.488  10.913   5.488
 5813POPC   PO473476  31.198  11.479   5.322
 5813POPC   GL173477  31.337  11.503   5.765
 5813POPC   GL273478  31.713  11.437   5.781
 5813POPC   C1A73479  31.408  11.308   6.175
 5813POPC   D2A73480  31.588  11.223   6.572
 5813POPC   C3A73481  31.432  11.384   6.959
 5813POPC   C4A73482  31.708  11.445   7.272
 5813POPC   C1B73483  31.880  11.107   6.112
 5813POPC   C2B73484  31.806  10.792   6.463
 5813POPC   C3B73485  31.591  10.811   6.862
 5813POPC   C4B73486  31.753  10.874   7.245
 5814POPC   NC373487  41.880  44.801   5.686
 5814POPC   PO473488  42.456  44.735   5.468
 5814POPC   GL173489  42.467  44.731   5.918
 5814POPC   GL273490  42.143  44.687   6.094
 5814POPC   C1A73491  42.601  44.928   6.296
 5814POPC   D2A73492  42.827  44.877   6.661
 5814POPC   C3A73493  42.499  44.754   6.912
 5814POPC   C4A73494  42.540  44.795   7.293
 5814POPC   C1B73495  41.924  44.417   6.370
 5814POPC   C2B73496  42.037  44.648   6.661
 5814POPC   C3B73497  42.154   0.056   6.699
 5814POPC   C4B73498  42.092   0.035   7.134
 5815POPC   NC373499  44.755  27.376   5.325
 5815POPC   PO473500  44.913  26.640   5.270
 5815POPC   GL173501  44.849  26.783   5.710
 5815POPC   GL273502  44.730  27.086   5.801
 5815POPC   C1A73503  44.934  26.795   6.183
 5815POPC   D2A73504  44.742  26.873   6.606
 5815POPC   C3A73505   0.013  26.901   6.964
 5815POPC   C4A73506   0.010  26.692   7.361
 5815POPC   C1B73507  44.442  26.928   6.172
 5815POPC   C2B73508  44.145  26.842   6.502
 5815POPC   C3B73509  44.262  26.778   6.905
 5815POPC   C4B73510  44.554  26.937   7.192
 5816POPC   NC373511   5.452   9.170   5.548
 5816POPC   PO473512   4.768   8.953   5.452
 5816POPC   GL173513   5.024   8.927   5.846
 5816POPC   GL273514   5.366   8.821   5.921
 5816POPC   C1A73515   5.033   8.912   6.305
 5816POPC   D2A73516   5.171   8.749   6.702
 5816POPC   C3A73517   4.960   9.039   6.950
 5816POPC   C4A73518   4.755   9.008   7.323
 5816POPC   C1B73519   5.552   9.030   6.276
 5816POPC   C2B73520   5.377   9.218   6.627
 5816POPC   C3B73521   5.419   9.211   7.059
 5816POPC   C4B73522   5.153   9.344   7.368
 5817POPC   NC373523  38.688  36.361   5.638
 5817POPC   PO473524  38.371  35.830   5.344
 5817POPC   GL173525  38.493  35.884   5.759
 5817POPC   GL273526  38.247  36.125   5.841
 5817POPC   C1A73527  38.583  35.962   6.212
 5817POPC   D2A73528  38.638  36.278   6.561
 5817POPC   C3A73529  38.402  36.170   6.949
 5817POPC   C4A73530  38.520  36.107   7.383
 5817POPC   C1B73531  38.222  36.349   6.246
 5817POPC   C2B73532  38.115  36.546   6.626
 5817POPC   C3B73533  37.900  36.469   7.000
 5817POPC   C4B73534  38.005  36.154   7.310
 5818POPC   NC373535  15.284  43.754   5.438
 5818POPC   PO473536  14.812  44.263   5.340
 5818POPC   GL173537  15.070  44.082   5.787
 5818POPC   GL273538  15.318  43.804   5.925
 5818POPC   C1A73539  15.186  44.118   6.286
 5818POPC   D2A73540  15.072  43.962   6.716
 5818POPC   C3A73541  15.200  44.014   7.171
 5818POPC   C4A73542  15.328  44.083   7.606
 5818POPC   C1B73543  15.295  43.547   6.276
 5818POPC   C2B73544  15.245  43.455   6.708
 5818POPC   C3B73545  15.139  43.504   7.134
 5818POPC   C4B73546  15.251  43.516   7.569
 5819POPC   NC373547  39.952   0.195   5.386
 5819POPC   PO473548  40.250   0.763   5.378
 5819POPC   GL173549  40.283   0.436   5.746
 5819POPC   GL273550  39.931   0.410   5.843
 5819POPC   C1A73551  40.223   0.267   6.208
 5819POPC   D2A73552  40.042   0.524   6.566
 5819POPC   C3A73553  40.129   0.387   7.006
 5819POPC   C4A73554  39.822   0.379   7.374
 5819POPC   C1B73555  39.715   0.679   6.137
 5819POPC   C2B73556  39.541   0.712   6.552
 5819POPC   C3B73557  39.706   0.714   6.966
 5819POPC   C4B73558  39.690   1.054   7.264
 5820POPC   NC373559   4.683   8.545   5.680
 5820POPC   PO473560   4.192   8.782   5.318
 5820POPC   GL173561   4.251   8.833   5.762
 5820POPC   GL273562   4.107   8.536   5.872
 5820POPC   C1A73563   4.310   9.007   6.192
 5820POPC   D2A73564   4.117   9.049   6.626
 5820POPC   C3A73565   4.357   9.059   6.982
 5820POPC   C4A73566   4.231   9.267   7.350
 5820POPC   C1B73567   3.966   8.629   6.293
 5820POPC   C2B73568   4.096   8.558   6.729
 5820POPC   C3B73569   3.840   8.709   7.057
 5820POPC   C4B73570   3.929   8.874   7.478
 5821POPC   NC373571   9.535  20.720   5.650
 5821POPC   PO473572   9.885  20.128   5.488
 5821POPC   GL173573   9.917  20.421   5.857
 5821POPC   GL273574   9.957  20.785   5.926
 5821POPC   C1A73575   9.856  20.421   6.317
 5821POPC   D2A73576   9.510  20.225   6.588
 5821POPC   C3A73577   9.604  20.288   7.021
 5821POPC   C4A73578  10.007  20.482   7.144
 5821POPC   C1B73579   9.615  20.870   6.285
 5821POPC   C2B73580   9.609  20.735   6.742
 5821POPC   C3B73581   9.566  20.776   7.215
 5821POPC   C4B73582   9.355  20.897   7.613
 5822POPC   NC373583  39.462   5.340   5.452
 5822POPC   PO473584  39.063   4.852   5.524
 5822POPC   GL173585  39.189   5.112   5.880
 5822POPC   GL273586  39.543   5.122   5.894
 5822POPC   C1A73587  39.322   5.065   6.328
 5822POPC   D2A73588  39.200   5.214   6.691
 5822POPC   C3A73589  39.246   4.958   7.006
 5822POPC   C4A73590  39.150   5.044   7.391
 5822POPC   C1B73591  39.636   5.478   6.196
 5822POPC   C2B73592  39.492   5.638   6.612
 5822POPC   C3B73593  39.475   5.445   7.041
 5822POPC   C4B73594  39.658   5.101   7.298
 5823POPC   NC373595  35.385  44.456   5.232
 5823POPC   PO473596  35.741   0.053   5.430
 5823POPC   GL173597  35.685  44.898   5.871
 5823POPC   GL273598  35.738  44.537   5.900
 5823POPC   C1A73599  35.442  44.904   6.294
 5823POPC   D2A73600  35.248   0.020   6.701
 5823POPC   C3A73601  35.284  44.751   7.028
 5823POPC   C4A73602  35.632  44.639   7.217
 5823POPC   C1B73603  35.665  44.430   6.352
 5823POPC   C2B73604  35.544  44.295   6.791
 5823POPC   C3B73605  35.301  44.200   7.186
 5823POPC   C4B73606  35.443  43.962   7.566
 5824POPC   NC373607  21.166   6.427   5.236
 5824POPC   PO473608  20.521   6.639   5.399
 5824POPC   GL173609  20.685   6.595   5.858
 5824POPC   GL273610  21.003   6.750   5.860
 5824POPC   C1A73611  20.671   6.652   6.339
 5824POPC   D2A73612  20.400   6.780   6.727
 5824POPC   C3A73613  20.493   6.580   7.139
 5824POPC   C4A73614  20.416   6.559   7.578
 5824POPC   C1B73615  21.087   7.000   6.235
 5824POPC   C2B73616  21.032   6.876   6.668
 5824POPC   C3B73617  20.864   6.973   7.065
 5824POPC   C4B73618  20.860   6.921   7.516
 5825POPC   NC373619  26.871  36.461   5.567
 5825POPC   PO473620  27.261  35.873   5.526
 5825POPC   GL173621  26.829  35.951   5.765
 5825POPC   GL273622  26.805  36.261   6.007
 5825POPC   C1A73623  26.636  35.839   6.191
 5825POPC   D2A73624  26.804  36.017   6.589
 5825POPC   C3A73625  26.761  35.946   7.011
 5825POPC   C4A73626  26.900  36.200   7.370
 5825POPC   C1B73627  26.528  36.334   6.337
 5825POPC   C2B73628  26.548  36.434   6.796
 5825POPC   C3B73629  26.366  36.233   7.174
 5825POPC   C4B73630  26.350  35.811   7.333
 5826POPC   NC373631  21.255   7.216   5.264
 5826POPC   PO473632  21.607   7.654   5.617
 5826POPC   GL173633  21.306   7.463   5.836
 5826POPC   GL273634  21.355   7.123   5.755
 5826POPC   C1A73635  21.417   7.465   6.277
 5826POPC   D2A73636  21.627   7.687   6.610
 5826POPC   C3A73637  21.497   7.662   7.043
 5826POPC   C4A73638  21.607   7.373   7.365
 5826POPC   C1B73639  21.647   7.052   6.082
 5826POPC   C2B73640  21.533   6.985   6.518
 5826POPC   C3B73641  21.399   7.161   6.909
 5826POPC   C4B73642  21.334   6.935   7.275
 5827POPC   NC373643   0.562   5.024   5.042
 5827POPC   PO473644   0.351   5.532   5.495
 5827POPC   GL173645   0.553   5.207   5.749
 5827POPC   GL273646   0.321   4.892   5.800
 5827POPC   C1A73647   0.724   5.223   6.169
 5827POPC   D2A73648   0.480   5.283   6.560
 5827POPC   C3A73649   0.663   5.257   6.976
 5827POPC   C4A73650   0.813   5.454   7.364
 5827POPC   C1B73651   0.419   4.831   6.259
 5827POPC   C2B73652   0.421   4.687   6.699
 5827POPC   C3B73653   0.309   4.869   7.117
 5827POPC   C4B73654   0.207   4.713   7.556
 5828POPC   NC373655  33.364  32.019   5.373
 5828POPC   PO473656  32.735  32.130   5.580
 5828POPC   GL173657  32.949  32.315   5.892
 5828POPC   GL273658  33.295  32.241   5.846
 5828POPC   C1A73659  33.053  32.237   6.308
 5828POPC   D2A73660  33.293  32.209   6.681
 5828POPC   C3A73661  33.035  32.207   7.053
 5828POPC   C4A73662  33.162  32.421   7.424
 5828POPC   C1B73663  33.392  31.877   6.158
 5828POPC   C2B73664  33.433  31.718   6.598
 5828POPC   C3B73665  33.302  31.760   7.041
 5828POPC   C4B73666  33.343  31.952   7.479
 5829POPC   NC373667  27.786   3.451   5.220
 5829POPC   PO473668  28.288   3.268   5.682
 5829POPC   GL173669  28.071   3.564   5.900
 5829POPC   GL273670  27.837   3.766   5.717
 5829POPC   C1A73671  28.288   3.680   6.271
 5829POPC   D2A73672  28.599   3.472   6.504
 5829POPC   C3A73673  28.586   3.503   6.947
 5829POPC   C4A73674  28.484   3.258   7.306
 5829POPC   C1B73675  27.925   4.022   6.112
 5829POPC   C2B73676  27.964   3.958   6.558
 5829POPC   C3B73677  28.107   3.593   6.807
 5829POPC   C4B73678  28.209   3.700   7.245
 5830POPC   NC373679  32.480  10.798   5.552
 5830POPC   PO473680  31.828  10.602   5.453
 5830POPC   GL173681  32.099  10.500   5.750
 5830POPC   GL273682  32.287  10.219   5.717
 5830POPC   C1A73683  32.156  10.599   6.151
 5830POPC   D2A73684  32.184  10.420   6.535
 5830POPC   C3A73685  32.090  10.674   6.884
 5830POPC   C4A73686  32.281  10.719   7.237
 5830POPC   C1B73687  32.558  10.265   6.108
 5830POPC   C2B73688  32.707  10.371   6.537
 5830POPC   C3B73689  32.519  10.343   6.945
 5830POPC   C4B73690  32.479  10.081   7.284
 5831POPC   NC373691  41.865   7.439   5.351
 5831POPC   PO473692  42.545   7.317   5.500
 5831POPC   GL173693  42.187   7.440   5.765
 5831POPC   GL273694  42.049   7.091   5.800
 5831POPC   C1A73695  42.098   7.657   6.164
 5831POPC   D2A73696  42.246   7.535   6.586
 5831POPC   C3A73697  42.041   7.512   6.997
 5831POPC   C4A73698  42.167   7.663   7.420
 5831POPC   C1B73699  42.290   7.154   6.188
 5831POPC   C2B73700  42.572   7.145   6.537
 5831POPC   C3B73701  42.376   7.112   6.917
 5831POPC   C4B73702  42.435   7.234   7.302
 5832POPC   NC373703  23.060  26.932   5.241
 5832POPC   PO473704  22.601  26.496   5.326
 5832POPC   GL173705  22.959  26.640   5.650
 5832POPC   GL273706  22.983  27.019   5.763
 5832POPC   C1A73707  23.000  26.558   6.112
 5832POPC   D2A73708  22.970  26.751   6.541
 5832POPC   C3A73709  22.965  26.598   6.963
 5832POPC   C4A73710  22.894  26.787   7.369
 5832POPC   C1B73711  23.145  27.076   6.191
 5832POPC   C2B73712  23.273  27.156   6.635
 5832POPC   C3B73713  23.082  27.127   7.048
 5832POPC   C4B73714  23.130  27.212   7.511
 5833POPC   NC373715  25.432  26.026   5.503
 5833POPC   PO473716  24.832  25.560   5.581
 5833POPC   GL173717  25.031  25.825   5.880
 5833POPC   GL273718  25.148  26.151   5.898
 5833POPC   C1A73719  25.257  25.854   6.287
 5833POPC   D2A73720  25.475  26.028   6.649
 5833POPC   C3A73721  25.339  25.811   7.004
 5833POPC   C4A73722  24.954  25.907   7.229
 5833POPC   C1B73723  25.431  26.369   6.183
 5833POPC   C2B73724  25.468  26.547   6.598
 5833POPC   C3B73725  25.211  26.405   6.920
 5833POPC   C4B73726  25.336  26.258   7.290
 5834POPC   NC373727   4.336  17.624   5.373
 5834POPC   PO473728   4.797  17.168   5.536
 5834POPC   GL173729   4.339  17.266   5.771
 5834POPC   GL273730   4.192  17.623   5.837
 5834POPC   C1A73731   4.096  17.322   6.207
 5834POPC   D2A73732   4.155  17.562   6.583
 5834POPC   C3A73733   4.101  17.302   6.930
 5834POPC   C4A73734   4.229  17.409   7.324
 5834POPC   C1B73735   4.520  17.600   6.135
 5834POPC   C2B73736   4.672  17.659   6.533
 5834POPC   C3B73737   4.573  17.515   6.941
 5834POPC   C4B73738   4.742  17.432   7.331
 5835POPC   NC373739  41.485   8.466   5.096
 5835POPC   PO473740  41.765   7.919   5.399
 5835POPC   GL173741  41.660   7.956   5.815
 5835POPC   GL273742  41.438   8.216   5.701
 5835POPC   C1A73743  41.789   8.086   6.242
 5835POPC   D2A73744  41.460   8.159   6.542
 5835POPC   C3A73745  41.572   8.176   6.952
 5835POPC   C4A73746  41.915   8.003   7.136
 5835POPC   C1B73747  41.630   8.497   5.982
 5835POPC   C2B73748  41.696   8.588   6.418
 5835POPC   C3B73749  41.744   8.613   6.825
 5835POPC   C4B73750  41.436   8.642   7.175
 5836POPC   NC373751  17.050   4.520   5.541
 5836POPC   PO473752  16.660   4.174   5.146
 5836POPC   GL173753  16.747   4.136   5.652
 5836POPC   GL273754  16.483   4.252   5.832
 5836POPC   C1A73755  16.916   4.207   6.113
 5836POPC   D2A73756  16.885   4.128   6.581
 5836POPC   C3A73757  16.710   4.414   6.900
 5836POPC   C4A73758  16.930   4.633   7.229
 5836POPC   C1B73759  16.442   4.315   6.290
 5836POPC   C2B73760  16.320   4.128   6.667
 5836POPC   C3B73761  16.339   4.123   7.096
 5836POPC   C4B73762  16.411   4.480   7.338
 5837POPC   NC373763  22.688  22.052   5.478
 5837POPC   PO473764  23.049  22.544   5.505
 5837POPC   GL173765  22.855  22.371   5.872
 5837POPC   GL273766  22.956  22.016   5.899
 5837POPC   C1A73767  22.929  22.302   6.318
 5837POPC   D2A73768  22.734  22.495   6.654
 5837POPC   C3A73769  22.897  22.379   7.016
 5837POPC   C4A73770  22.671  22.218   7.322
 5837POPC   C1B73771  22.908  21.788   6.286
 5837POPC   C2B73772  22.954  21.916   6.715
 5837POPC   C3B73773  22.991  21.874   7.159
 5837POPC   C4B73774  23.105  21.765   7.566
 5838POPC   NC373775   7.937  31.610   5.468
 5838POPC   PO473776   8.392  31.161   5.375
 5838POPC   GL173777   8.311  31.423   5.761
 5838POPC   GL273778   7.954  31.297   5.865
 5838POPC   C1A73779   8.263  31.513   6.195
 5838POPC   D2A73780   8.261  31.274   6.563
 5838POPC   C3A73781   8.278  31.553   6.935
 5838POPC   C4A73782   8.540  31.816   7.205
 5838POPC   C1B73783   7.772  31.383   6.267
 5838POPC   C2B73784   7.810  31.535   6.668
 5838POPC   C3B73785   7.902  31.151   6.899
 5838POPC   C4B73786   8.226  31.038   7.145
 5839POPC   NC373787  42.030  43.492   5.422
 5839POPC   PO473788  41.428  43.064   5.411
 5839POPC   GL173789  41.420  43.197   5.845
 5839POPC   GL273790  41.758  43.407   5.869
 5839POPC   C1A73791  41.129  43.080   6.205
 5839POPC   D2A73792  40.991  42.969   6.626
 5839POPC   C3A73793  41.289  43.007   6.952
 5839POPC   C4A73794  41.506  43.213   7.299
 5839POPC   C1B73795  41.795  43.400   6.333
 5839POPC   C2B73796  41.766  43.111   6.726
 5839POPC   C3B73797  41.958  43.051   7.150
 5839POPC   C4B73798  41.935  43.209   7.598
 5840POPC   NC373799  31.829  36.656   5.633
 5840POPC   PO473800  31.335  37.044   5.350
 5840POPC   GL173801  31.432  36.978   5.778
 5840POPC   GL273802  31.078  36.849   5.802
 5840POPC   C1A73803  31.655  36.957   6.210
 5840POPC   D2A73804  31.726  36.656   6.567
 5840POPC   C3A73805  31.674  36.897   6.951
 5840POPC   C4A73806  31.900  36.904   7.306
 5840POPC   C1B73807  31.147  37.016   6.198
 5840POPC   C2B73808  31.259  36.883   6.614
 5840POPC   C3B73809  31.160  36.966   7.032
 5840POPC   C4B73810  31.226  36.999   7.471
 5841POPC   NC373811  39.560  16.979   5.224
 5841POPC   PO473812  39.284  16.402   5.607
 5841POPC   GL173813  39.158  16.812   5.889
 5841POPC   GL273814  39.463  17.052   6.015
 5841POPC   C1A73815  39.051  16.938   6.320
 5841POPC   D2A73816  38.875  16.692   6.670
 5841POPC   C3A73817  39.162  16.528   6.974
 5841POPC   C4A73818  39.144  16.914   7.210
 5841POPC   C1B73819  39.552  16.810   6.370
 5841POPC   C2B73820  39.442  16.901   6.782
 5841POPC   C3B73821  39.657  16.984   7.178
 5841POPC   C4B73822  39.528  16.828   7.578
 5842POPC   NC373823  18.209   0.741   5.331
 5842POPC   PO473824  18.189   0.152   5.221
 5842POPC   GL173825  18.260   0.348   5.671
 5842POPC   GL273826  17.999   0.551   5.790
 5842POPC   C1A73827  18.337   0.308   6.131
 5842POPC   D2A73828  18.305  44.990   6.456
 5842POPC   C3A73829  18.501   0.089   6.813
 5842POPC   C4A73830  18.420   0.073   7.216
 5842POPC   C1B73831  17.888   0.547   6.207
 5842POPC   C2B73832  18.063   0.434   6.576
 5842POPC   C3B73833  17.879   0.493   6.944
 5842POPC   C4B73834  18.122   0.469   7.311
 5843POPC   NC373835  18.668   8.400   5.456
 5843POPC   PO473836  19.290   8.132   5.536
 5843POPC   GL173837  19.064   8.364   5.855
 5843POPC   GL273838  18.763   8.612   5.910
 5843POPC   C1A73839  19.190   8.350   6.286
 5843POPC   D2A73840  19.120   8.505   6.730
 5843POPC   C3A73841  19.202   8.146   7.003
 5843POPC   C4A73842  19.131   8.103   7.456
 5843POPC   C1B73843  18.705   8.498   6.340
 5843POPC   C2B73844  18.809   8.109   6.570
 5843POPC   C3B73845  18.703   8.199   6.963
 5843POPC   C4B73846  18.876   8.509   7.258
 5844POPC   NC373847  34.913  32.993   5.409
 5844POPC   PO473848  35.308  33.447   5.665
 5844POPC   GL173849  35.436  33.113   5.923
 5844POPC   GL273850  35.176  32.932   5.839
 5844POPC   C1A73851  35.389  33.082   6.374
 5844POPC   D2A73852  35.500  33.172   6.790
 5844POPC   C3A73853  35.156  33.184   7.066
 5844POPC   C4A73854  35.198  33.209   7.514
 5844POPC   C1B73855  35.059  32.733   6.240
 5844POPC   C2B73856  35.134  32.738   6.712
 5844POPC   C3B73857  35.019  32.708   7.180
 5844POPC   C4B73858  35.061  32.739   7.667
 5845POPC   NC373859  40.204   4.110   5.144
 5845POPC   PO473860  40.044   4.657   5.514
 5845POPC   GL173861  40.248   4.344   5.794
 5845POPC   GL273862  39.942   4.347   6.006
 5845POPC   C1A73863  40.363   4.210   6.246
 5845POPC   D2A73864  40.003   4.357   6.551
 5845POPC   C3A73865  39.949   4.213   6.993
 5845POPC   C4A73866  40.243   4.201   7.336
 5845POPC   C1B73867  39.616   4.617   6.210
 5845POPC   C2B73868  39.453   4.657   6.637
 5845POPC   C3B73869  39.575   4.585   7.080
 5845POPC   C4B73870  39.921   4.629   7.325
 5846POPC   NC373871  40.234  23.138   5.377
 5846POPC   PO473872  39.905  22.648   5.611
 5846POPC   GL173873  40.214  22.823   5.888
 5846POPC   GL273874  40.216  23.223   5.933
 5846POPC   C1A73875  40.150  22.825   6.334
 5846POPC   D2A73876  40.242  23.085   6.700
 5846POPC   C3A73877  40.276  22.792   6.993
 5846POPC   C4A73878  40.002  22.583   7.241
 5846POPC   C1B73879  39.941  23.286   6.341
 5846POPC   C2B73880  39.755  23.190   6.780
 5846POPC   C3B73881  39.953  23.105   7.185
 5846POPC   C4B73882  40.091  23.300   7.554
 5847POPC   NC373883   5.643  33.239   5.441
 5847POPC   PO473884   6.147  32.784   5.446
 5847POPC   GL173885   5.928  32.776   5.841
 5847POPC   GL273886   5.597  32.954   5.879
 5847POPC   C1A73887   5.953  32.872   6.276
 5847POPC   D2A73888   6.074  33.159   6.588
 5847POPC   C3A73889   6.061  32.977   7.007
 5847POPC   C4A73890   5.832  32.710   7.292
 5847POPC   C1B73891   5.459  32.747   6.287
 5847POPC   C2B73892   5.634  32.778   6.730
 5847POPC   C3B73893   5.545  33.058   7.085
 5847POPC   C4B73894   5.477  32.974   7.569
 5848POPC   NC373895  10.653  26.089   5.224
 5848POPC   PO473896  10.105  25.757   5.455
 5848POPC   GL173897  10.509  25.845   5.686
 5848POPC   GL273898  10.549  26.194   5.748
 5848POPC   C1A73899  10.630  25.864   6.136
 5848POPC   D2A73900  10.326  25.907   6.520
 5848POPC   C3A73901  10.550  26.038   6.914
 5848POPC   C4A73902  10.504  25.865   7.328
 5848POPC   C1B73903  10.767  26.353   6.122
 5848POPC   C2B73904  10.975  26.227   6.537
 5848POPC   C3B73905  10.986  26.325   6.983
 5848POPC   C4B73906  10.675  26.334   7.379
 5849POPC   NC373907  17.821   0.166   5.495
 5849POPC   PO473908  17.308   0.569   5.445
 5849POPC   GL173909  17.260   0.248   5.772
 5849POPC   GL273910  17.549   0.316   5.907
 5849POPC   C1A73911  17.185   0.207   6.251
 5849POPC   D2A73912  17.110   0.434   6.671
 5849POPC   C3A73913  17.407   0.286   6.998
 5849POPC   C4A73914  17.399   0.039   7.383
 5849POPC   C1B73915  17.401   0.671   6.148
 5849POPC   C2B73916  17.545   0.693   6.576
 5849POPC   C3B73917  17.469   0.827   6.981
 5849POPC   C4B73918  17.704   0.740   7.352
 5850POPC   NC373919   3.359  28.688   5.485
 5850POPC   PO473920   3.822  28.137   5.416
 5850POPC   GL173921   3.662  28.201   5.819
 5850POPC   GL273922   3.339  28.197   5.842
 5850POPC   C1A73923   3.609  28.031   6.250
 5850POPC   D2A73924   3.611  28.232   6.666
 5850POPC   C3A73925   3.622  28.009   7.058
 5850POPC   C4A73926   3.945  28.022   7.383
 5850POPC   C1B73927   3.278  28.445   6.211
 5850POPC   C2B73928   3.313  28.629   6.617
 5850POPC   C3B73929   3.277  28.440   7.027
 5850POPC   C4B73930   3.385  28.725   7.332
 5851POPC   NC373931  38.236   0.684   5.389
 5851POPC   PO473932  38.907   0.653   5.585
 5851POPC   GL173933  38.637   0.392   5.784
 5851POPC   GL273934  38.288   0.272   5.756
 5851POPC   C1A73935  38.638   0.263   6.192
 5851POPC   D2A73936  38.297   0.246   6.464
 5851POPC   C3A73937  38.412   0.080   6.858
 5851POPC   C4A73938  38.252   0.217   7.257
 5851POPC   C1B73939  38.260   0.603   6.059
 5851POPC   C2B73940  38.195   0.767   6.474
 5851POPC   C3B73941  38.219   0.580   6.869
 5851POPC   C4B73942  38.048   0.667   7.250
 5852POPC   NC373943  44.467  43.090   5.454
 5852POPC   PO473944   0.158  43.001   5.460
 5852POPC   GL173945  44.898  43.215   5.765
 5852POPC   GL273946  44.650  43.045   5.920
 5852POPC   C1A73947  44.847  43.427   6.182
 5852POPC   D2A73948  44.562  43.509   6.509
 5852POPC   C3A73949  44.681  43.416   6.930
 5852POPC   C4A73950  44.444  43.438   7.299
 5852POPC   C1B73951  44.870  42.953   6.332
 5852POPC   C2B73952  44.755  42.941   6.756
 5852POPC   C3B73953  44.790  42.979   7.216
 5852POPC   C4B73954  44.836  42.750   7.632
 5853POPC   NC373955   6.060  32.331   5.401
 5853POPC   PO473956   5.696  31.921   5.674
 5853POPC   GL173957   5.861  32.265   5.874
 5853POPC   GL273958   5.518  32.434   5.881
 5853POPC   C1A73959   6.075  32.364   6.261
 5853POPC   D2A73960   6.185  32.585   6.664
 5853POPC   C3A73961   6.075  32.347   7.055
 5853POPC   C4A73962   5.857  32.054   7.355
 5853POPC   C1B73963   5.565  32.188   6.280
 5853POPC   C2B73964   5.754  32.230   6.671
 5853POPC   C3B73965   5.553  32.293   7.049
 5853POPC   C4B73966   5.339  32.614   7.180
 5854POPC   NC373967  41.595  31.935   5.382
 5854POPC   PO473968  41.224  32.564   5.511
 5854POPC   GL173969  41.476  32.482   5.877
 5854POPC   GL273970  41.604  32.121   5.884
 5854POPC   C1A73971  41.305  32.365   6.278
 5854POPC   D2A73972  41.396  32.290   6.719
 5854POPC   C3A73973  41.102  32.451   7.005
 5854POPC   C4A73974  41.230  32.476   7.414
 5854POPC   C1B73975  41.642  32.008   6.340
 5854POPC   C2B73976  41.641  31.833   6.742
 5854POPC   C3B73977  41.618  31.989   7.178
 5854POPC   C4B73978  41.763  31.769   7.563
 5855POPC   NC373979  41.721  13.958   5.545
 5855POPC   PO473980  41.337  13.521   5.357
 5855POPC   GL173981  41.495  13.410   5.814
 5855POPC   GL273982  41.852  13.334   5.854
 5855POPC   C1A73983  41.602  13.256   6.292
 5855POPC   D2A73984  41.447  13.225   6.728
 5855POPC   C3A73985  41.622  13.545   7.013
 5855POPC   C4A73986  41.389  13.790   7.281
 5855POPC   C1B73987  41.739  13.720   6.130
 5855POPC   C2B73988  41.725  13.808   6.555
 5855POPC   C3B73989  41.987  13.943   6.875
 5855POPC   C4B73990  41.939  13.877   7.313
 5856POPC   NC373991  14.700  43.916   5.048
 5856POPC   PO473992  14.128  43.804   5.362
 5856POPC   GL173993  14.277  43.805   5.764
 5856POPC   GL273994  14.555  44.007   5.743
 5856POPC   C1A73995  14.328  43.727   6.194
 5856POPC   D2A73996  14.074  43.681   6.545
 5856POPC   C3A73997  14.147  43.857   6.932
 5856POPC   C4A73998  14.051  43.581   7.243
 5856POPC   C1B73999  14.704  44.048   6.178
 5856POPC   C2B74000  14.546  43.971   6.602
 5856POPC   C3B74001  14.655  43.952   7.018
 5856POPC   C4B74002  14.771  44.316   7.181
 5857POPC   NC374003  34.317  27.064   5.616
 5857POPC   PO474004  33.800  26.737   5.291
 5857POPC   GL174005  33.715  26.720   5.749
 5857POPC   GL274006  33.971  26.502   5.892
 5857POPC   C1A74007  33.553  26.632   6.180
 5857POPC   D2A74008  33.606  26.787   6.613
 5857POPC   C3A74009  33.888  26.578   6.894
 5857POPC   C4A74010  33.795  26.614   7.317
 5857POPC   C1B74011  34.037  26.817   6.237
 5857POPC   C2B74012  34.043  27.108   6.602
 5857POPC   C3B74013  33.941  27.054   7.047
 5857POPC   C4B74014  34.008  27.052   7.497
 5858POPC   NC374015  36.822  41.820   5.449
 5858POPC   PO474016  36.983  41.273   5.097
 5858POPC   GL174017  36.893  41.304   5.587
 5858POPC   GL274018  37.124  41.535   5.774
 5858POPC   C1A74019  36.767  41.363   6.077
 5858POPC   D2A74020  36.977  41.496   6.498
 5858POPC   C3A74021  36.765  41.512   6.924
 5858POPC   C4A74022  36.471  41.214   7.067
 5858POPC   C1B74023  37.281  41.241   6.101
 5858POPC   C2B74024  37.454  41.301   6.518
 5858POPC   C3B74025  37.275  41.369   6.926
 5858POPC   C4B74026  37.068  41.427   7.349
 5859POPC   NC374027  43.342  13.148   5.490
 5859POPC   PO474028  43.072  13.810   5.325
 5859POPC   GL174029  43.102  13.745   5.800
 5859POPC   GL274030  43.370  13.536   5.868
 5859POPC   C1A74031  43.115  13.766   6.278
 5859POPC   D2A74032  43.241  13.583   6.673
 5859POPC   C3A74033  43.139  13.592   7.113
 5859POPC   C4A74034  43.200  13.821   7.534
 5859POPC   C1B74035  43.578  13.443   6.265
 5859POPC   C2B74036  43.522  13.171   6.642
 5859POPC   C3B74037  43.576  13.342   7.054
 5859POPC   C4B74038  43.573  13.472   7.461
 5860POPC   NC374039   3.258  12.905   5.184
 5860POPC   PO474040   2.618  13.040   5.368
 5860POPC   GL174041   2.897  12.880   5.609
 5860POPC   GL274042   2.835  12.540   5.729
 5860POPC   C1A74043   2.947  12.925   6.085
 5860POPC   D2A74044   2.855  12.787   6.540
 5860POPC   C3A74045   3.045  12.892   6.927
 5860POPC   C4A74046   2.920  12.998   7.329
 5860POPC   C1B74047   2.905  12.410   6.156
 5860POPC   C2B74048   2.988  12.299   6.606
 5860POPC   C3B74049   2.784  12.445   6.991
 5860POPC   C4B74050   2.710  12.498   7.444
 5861POPC   NC374051  25.141  41.876   5.499
 5861POPC   PO474052  25.567  41.345   5.456
 5861POPC   GL174053  25.271  41.443   5.809
 5861POPC   GL274054  25.602  41.481   5.944
 5861POPC   C1A74055  24.954  41.495   6.186
 5861POPC   D2A74056  25.052  41.848   6.489
 5861POPC   C3A74057  25.011  41.795   6.945
 5861POPC   C4A74058  24.982  41.432   7.250
 5861POPC   C1B74059  25.424  41.441   6.333
 5861POPC   C2B74060  25.242  41.413   6.718
 5861POPC   C3B74061  25.446  41.578   7.096
 5861POPC   C4B74062  25.554  41.627   7.537
 5862POPC   NC374063  24.196   6.601   5.380
 5862POPC   PO474064  24.766   6.388   5.455
 5862POPC   GL174065  24.692   6.566   5.845
 5862POPC   GL274066  24.852   6.879   5.762
 5862POPC   C1A74067  24.331   6.707   6.074
 5862POPC   D2A74068  24.195   6.907   6.458
 5862POPC   C3A74069  24.400   6.758   6.847
 5862POPC   C4A74070  24.525   6.487   7.230
 5862POPC   C1B74071  24.753   6.991   6.169
 5862POPC   C2B74072  24.799   6.853   6.564
 5862POPC   C3B74073  24.887   6.812   7.013
 5862POPC   C4B74074  24.591   6.982   7.263
 5863POPC   NC374075  13.913  27.719   5.161
 5863POPC   PO474076  13.246  27.766   5.314
 5863POPC   GL174077  13.368  27.704   5.751
 5863POPC   GL274078  13.708  27.852   5.714
 5863POPC   C1A74079  13.456  27.650   6.219
 5863POPC   D2A74080  13.398  27.607   6.690
 5863POPC   C3A74081  13.477  27.366   7.107
 5863POPC   C4A74082  13.544  27.762   7.339
 5863POPC   C1B74083  13.950  27.707   6.091
 5863POPC   C2B74084  13.883  27.442   6.497
 5863POPC   C3B74085  13.892  27.590   6.946
 5863POPC   C4B74086  13.955  27.463   7.382
 5864POPC   NC374087  24.745  20.159   5.653
 5864POPC   PO474088  24.305  19.729   5.312
 5864POPC   GL174089  24.415  19.776   5.774
 5864POPC   GL274090  24.683  19.582   5.941
 5864POPC   C1A74091  24.449  19.993   6.212
 5864POPC   D2A74092  24.345  20.217   6.587
 5864POPC   C3A74093  24.471  20.065   6.976
 5864POPC   C4A74094  24.363  19.808   7.315
 5864POPC   C1B74095  24.761  19.506   6.339
 5864POPC   C2B74096  25.040  19.535   6.670
 5864POPC   C3B74097  24.742  19.560   6.974
 5864POPC   C4B74098  24.699  19.405   7.358
 5865POPC   NC374099  19.929  40.984   5.336
 5865POPC   PO474100  19.495  40.429   5.594
 5865POPC   GL174101  19.633  40.748   5.852
 5865POPC   GL274102  19.890  40.930   5.866
 5865POPC   C1A74103  19.605  41.001   6.285
 5865POPC   D2A74104  19.971  40.995   6.564
 5865POPC   C3A74105  19.860  40.804   6.970
 5865POPC   C4A74106  19.855  40.991   7.377
 5865POPC   C1B74107  19.888  40.590   6.242
 5865POPC   C2B74108  20.030  40.451   6.618
 5865POPC   C3B74109  20.195  40.359   7.005
 5865POPC   C4B74110  19.989  40.302   7.354
 5866POPC   NC374111  22.874  21.074   5.469
 5866POPC   PO474112  23.179  21.776   5.493
 5866POPC   GL174113  23.059  21.511   5.799
 5866POPC   GL274114  22.701  21.565   5.751
 5866POPC   C1A74115  22.922  21.292   6.145
 5866POPC   D2A74116  22.713  21.314   6.536
 5866POPC   C3A74117  22.952  21.300   6.935
 5866POPC   C4A74118  23.240  21.333   7.311
 5866POPC   C1B74119  22.462  21.569   6.142
 5866POPC   C2B74120  22.285  21.583   6.569
 5866POPC   C3B74121  22.554  21.620   6.940
 5866POPC   C4B74122  22.712  21.497   7.362
 5867POPC   NC374123  18.500  21.472   5.471
 5867POPC   PO474124  18.314  20.866   5.417
 5867POPC   GL174125  18.095  21.050   5.784
 5867POPC   GL274126  18.032  21.436   5.802
 5867POPC   C1A74127  18.222  21.169   6.188
 5867POPC   D2A74128  18.423  21.529   6.361
 5867POPC   C3A74129  18.447  21.593   6.788
 5867POPC   C4A74130  18.296  21.376   7.115
 5867POPC   C1B74131  17.917  21.616   6.232
 5867POPC   C2B74132  17.977  21.812   6.669
 5867POPC   C3B74133  18.099  21.834   7.114
 5867POPC   C4B74134  17.850  21.810   7.505
 5868POPC   NC374135  10.480  42.874   5.451
 5868POPC   PO474136  10.305  43.454   5.686
 5868POPC   GL174137  10.324  43.105   5.882
 5868POPC   GL274138  10.675  43.119   5.881
 5868POPC   C1A74139  10.333  42.982   6.298
 5868POPC   D2A74140  10.261  43.300   6.607
 5868POPC   C3A74141  10.451  43.224   7.026
 5868POPC   C4A74142  10.450  43.364   7.462
 5868POPC   C1B74143  10.845  42.933   6.201
 5868POPC   C2B74144  10.780  43.033   6.597
 5868POPC   C3B74145  10.902  42.938   6.976
 5868POPC   C4B74146  10.908  43.227   7.312
 5869POPC   NC374147   5.754  20.012   5.716
 5869POPC   PO474148   6.255  19.583   5.485
 5869POPC   GL174149   6.009  19.585   5.856
 5869POPC   GL274150   5.665  19.508   5.752
 5869POPC   C1A74151   5.994  19.794   6.289
 5869POPC   D2A74152   5.845  20.155   6.552
 5869POPC   C3A74153   5.794  20.054   6.991
 5869POPC   C4A74154   5.790  20.125   7.433
 5869POPC   C1B74155   5.523  19.615   6.198
 5869POPC   C2B74156   5.644  19.673   6.644
 5869POPC   C3B74157   5.511  19.637   7.076
 5869POPC   C4B74158   5.435  19.368   7.396
 5870POPC   NC374159  17.268  20.012   5.346
 5870POPC   PO474160  17.736  19.611   5.632
 5870POPC   GL174161  17.374  19.750   5.814
 5870POPC   GL274162  17.407  20.120   5.853
 5870POPC   C1A74163  17.283  19.827   6.251
 5870POPC   D2A74164  17.212  19.974   6.642
 5870POPC   C3A74165  17.502  19.837   6.907
 5870POPC   C4A74166  17.443  20.083   7.237
 5870POPC   C1B74167  17.702  20.192   6.224
 5870POPC   C2B74168  17.674  20.291   6.695
 5870POPC   C3B74169  17.921  20.102   7.065
 5870POPC   C4B74170  17.830  19.987   7.538
 5871POPC   NC374171  25.527  35.646   5.313
 5871POPC   PO474172  24.922  35.505   5.520
 5871POPC   GL174173  25.318  35.392   5.754
 5871POPC   GL274174  25.644  35.603   5.815
 5871POPC   C1A74175  25.361  35.279   6.187
 5871POPC   D2A74176  25.149  35.150   6.581
 5871POPC   C3A74177  25.322  35.208   6.993
 5871POPC   C4A74178  25.121  34.972   7.334
 5871POPC   C1B74179  25.717  35.626   6.292
 5871POPC   C2B74180  25.618  35.571   6.783
 5871POPC   C3B74181  25.445  35.678   7.247
 5871POPC   C4B74182  25.481  35.806   7.726
 5872POPC   NC374183  34.174   3.907   5.564
 5872POPC   PO474184  34.618   3.537   5.182
 5872POPC   GL174185  34.534   3.559   5.644
 5872POPC   GL274186  34.430   3.235   5.774
 5872POPC   C1A74187  34.496   3.732   6.094
 5872POPC   D2A74188  34.626   3.579   6.503
 5872POPC   C3A74189  34.453   3.574   6.914
 5872POPC   C4A74190  34.748   3.441   7.251
 5872POPC   C1B74191  34.328   3.266   6.209
 5872POPC   C2B74192  34.130   3.258   6.615
 5872POPC   C3B74193  33.994   3.230   7.034
 5872POPC   C4B74194  34.261   3.365   7.348
 5873POPC   NC374195   3.675  13.792   5.436
 5873POPC   PO474196   3.290  13.215   5.513
 5873POPC   GL174197   3.306  13.564   5.768
 5873POPC   GL274198   3.648  13.519   5.879
 5873POPC   C1A74199   3.199  13.559   6.204
 5873POPC   D2A74200   3.090  13.238   6.517
 5873POPC   C3A74201   3.249  13.365   6.926
 5873POPC   C4A74202   3.222  13.638   7.259
 5873POPC   C1B74203   3.570  13.915   6.110
 5873POPC   C2B74204   3.411  13.939   6.541
 5873POPC   C3B74205   3.587  13.847   6.943
 5873POPC   C4B74206   3.743  13.568   7.243
 5874POPC   NC374207  28.495  10.753   5.372
 5874POPC   PO474208  29.134  10.522   5.365
 5874POPC   GL174209  29.025  10.465   5.770
 5874POPC   GL274210  29.347  10.583   5.929
 5874POPC   C1A74211  28.857  10.727   6.094
 5874POPC   D2A74212  29.115  10.787   6.457
 5874POPC   C3A74213  29.045  10.622   6.842
 5874POPC   C4A74214  28.927  10.612   7.261
 5874POPC   C1B74215  29.545  10.435   6.325
 5874POPC   C2B74216  29.463  10.313   6.757
 5874POPC   C3B74217  29.432  10.524   7.151
 5874POPC   C4B74218  29.342  10.569   7.580
 5875POPC   NC374219  27.166  17.124   5.391
 5875POPC   PO474220  26.937  16.474   5.294
 5875POPC   GL174221  26.825  16.510   5.746
 5875POPC   GL274222  26.881  16.878   5.765
 5875POPC   C1A74223  26.564  16.682   6.112
 5875POPC   D2A74224  26.673  16.783   6.544
 5875POPC   C3A74225  26.613  16.523   6.915
 5875POPC   C4A74226  26.651  16.696   7.336
 5875POPC   C1B74227  26.978  17.034   6.183
 5875POPC   C2B74228  27.103  17.124   6.608
 5875POPC   C3B74229  26.906  16.979   6.972
 5875POPC   C4B74230  27.126  16.945   7.349
 5876POPC   NC374231   7.175  27.449   5.035
 5876POPC   PO474232   7.628  27.789   5.317
 5876POPC   GL174233   7.595  27.746   5.764
 5876POPC   GL274234   7.318  27.506   5.739
 5876POPC   C1A74235   7.711  27.705   6.194
 5876POPC   D2A74236   7.585  27.333   6.424
 5876POPC   C3A74237   7.449  27.483   6.804
 5876POPC   C4A74238   7.614  27.734   7.154
 5876POPC   C1B74239   7.215  27.209   6.084
 5876POPC   C2B74240   7.115  27.121   6.523
 5876POPC   C3B74241   7.035  27.178   6.958
 5876POPC   C4B74242   7.045  27.611   7.107
 5877POPC   NC374243   5.252  39.858   5.492
 5877POPC   PO474244   4.608  39.807   5.206
 5877POPC   GL174245   4.862  40.129   5.638
 5877POPC   GL274246   5.286  40.204   5.843
 5877POPC   C1A74247   4.900  40.094   6.124
 5877POPC   D2A74248   4.923  39.824   6.531
 5877POPC   C3A74249   4.888  40.008   6.958
 5877POPC   C4A74250   5.002  39.883   7.394
 5877POPC   C1B74251   5.361  39.931   6.224
 5877POPC   C2B74252   5.452  39.741   6.610
 5877POPC   C3B74253   5.374  39.840   7.018
 5877POPC   C4B74254   5.468  39.645   7.380
 5878POPC   NC374255   6.423   6.106   5.624
 5878POPC   PO474256   6.379   5.508   5.661
 5878POPC   GL174257   6.668   5.734   5.917
 5878POPC   GL274258   6.857   6.071   5.916
 5878POPC   C1A74259   6.497   5.934   6.278
 5878POPC   D2A74260   6.641   5.968   6.659
 5878POPC   C3A74261   6.375   5.984   6.947
 5878POPC   C4A74262   6.458   5.657   7.225
 5878POPC   C1B74263   7.015   5.835   6.285
 5878POPC   C2B74264   7.100   5.809   6.729
 5878POPC   C3B74265   6.919   5.908   7.124
 5878POPC   C4B74266   6.967   5.935   7.567
 5879POPC   NC374267  33.537  18.622   5.612
 5879POPC   PO474268  33.557  17.817   5.518
 5879POPC   GL174269  33.462  17.991   5.915
 5879POPC   GL274270  33.706  18.227   5.948
 5879POPC   C1A74271  33.538  18.023   6.387
 5879POPC   D2A74272  33.881  18.179   6.671
 5879POPC   C3A74273  33.890  18.249   7.137
 5879POPC   C4A74274  33.631  18.186   7.544
 5879POPC   C1B74275  33.757  18.530   6.268
 5879POPC   C2B74276  33.865  18.698   6.662
 5879POPC   C3B74277  33.683  18.750   7.078
 5879POPC   C4B74278  33.851  18.632   7.487
 5880POPC   NC374279  35.296  41.193   5.440
 5880POPC   PO474280  35.710  41.717   5.300
 5880POPC   GL174281  35.569  41.746   5.772
 5880POPC   GL274282  35.343  41.460   5.867
 5880POPC   C1A74283  35.479  41.743   6.255
 5880POPC   D2A74284  35.195  41.544   6.581
 5880POPC   C3A74285  35.358  41.553   6.989
 5880POPC   C4A74286  35.401  41.898   7.250
 5880POPC   C1B74287  35.424  41.242   6.227
 5880POPC   C2B74288  35.374  41.040   6.623
 5880POPC   C3B74289  35.011  41.140   6.857
 5880POPC   C4B74290  34.916  41.197   7.251
 5881POPC   NC374291  32.013   0.314   5.389
 5881POPC   PO474292  32.641   0.473   5.350
 5881POPC   GL174293  32.339   0.601   5.711
 5881POPC   GL274294  32.177   0.303   5.877
 5881POPC   C1A74295  32.212   0.706   6.172
 5881POPC   D2A74296  32.414   0.524   6.508
 5881POPC   C3A74297  32.299   0.577   6.908
 5881POPC   C4A74298  32.442   0.313   7.200
 5881POPC   C1B74299  31.975   0.172   6.265
 5881POPC   C2B74300  31.932   0.323   6.648
 5881POPC   C3B74301  32.000   0.151   7.033
 5881POPC   C4B74302  32.014   0.291   7.479
 5882POPC   NC374303  18.289  25.753   5.555
 5882POPC   PO474304  18.190  26.441   5.456
 5882POPC   GL174305  18.327  26.437   5.845
 5882POPC   GL274306  18.472  26.129   5.857
 5882POPC   C1A74307  18.258  26.358   6.262
 5882POPC   D2A74308  18.111  26.056   6.538
 5882POPC   C3A74309  18.288  26.125   6.934
 5882POPC   C4A74310  18.349  26.358   7.321
 5882POPC   C1B74311  18.445  25.820   6.198
 5882POPC   C2B74312  18.743  25.673   6.513
 5882POPC   C3B74313  18.655  25.672   6.929
 5882POPC   C4B74314  18.545  25.889   7.300
 5883POPC   NC374315  29.136  10.047   5.410
 5883POPC   PO474316  28.985   9.383   5.517
 5883POPC   GL174317  29.203   9.661   5.828
 5883POPC   GL274318  29.325  10.040   5.901
 5883POPC   C1A74319  29.004   9.788   6.200
 5883POPC   D2A74320  29.123   9.769   6.637
 5883POPC   C3A74321  28.848   9.700   6.985
 5883POPC   C4A74322  28.935   9.709   7.457
 5883POPC   C1B74323  29.056  10.280   6.266
 5883POPC   C2B74324  28.834  10.187   6.670
 5883POPC   C3B74325  29.057  10.151   7.058
 5883POPC   C4B74326  29.356   9.829   7.124
 5884POPC   NC374327  41.303  12.375   5.540
 5884POPC   PO474328  41.747  11.930   5.409
 5884POPC   GL174329  41.688  12.055   5.810
 5884POPC   GL274330  41.375  11.957   5.846
 5884POPC   C1A74331  41.716  11.887   6.240
 5884POPC   D2A74332  41.510  11.832   6.644
 5884POPC   C3A74333  41.695  12.072   7.004
 5884POPC   C4A74334  41.767  12.013   7.406
 5884POPC   C1B74335  41.329  12.239   6.184
 5884POPC   C2B74336  41.175  12.228   6.586
 5884POPC   C3B74337  41.205  12.113   7.003
 5884POPC   C4B74338  41.363  12.351   7.351
 5885POPC   NC374339  31.048   4.405   5.518
 5885POPC   PO474340  30.641   3.991   5.257
 5885POPC   GL174341  30.759   4.129   5.789
 5885POPC   GL274342  30.489   4.308   5.935
 5885POPC   C1A74343  30.867   4.443   6.203
 5885POPC   D2A74344  30.567   4.595   6.541
 5885POPC   C3A74345  30.675   4.473   6.989
 5885POPC   C4A74346  31.004   4.499   7.317
 5885POPC   C1B74347  30.240   4.155   6.272
 5885POPC   C2B74348  30.206   4.221   6.664
 5885POPC   C3B74349  30.464   3.999   6.917
 5885POPC   C4B74350  30.510   4.008   7.338
 5886POPC   NC374351   0.301  18.579   5.540
 5886POPC   PO474352   0.560  17.981   5.492
 5886POPC   GL174353   0.429  18.165   5.834
 5886POPC   GL274354   0.666  18.457   5.883
 5886POPC   C1A74355   0.289  18.305   6.210
 5886POPC   D2A74356   0.220  18.507   6.585
 5886POPC   C3A74357   0.285  18.278   6.924
 5886POPC   C4A74358   0.439  18.180   7.306
 5886POPC   C1B74359   0.683  18.614   6.324
 5886POPC   C2B74360   0.762  18.501   6.748
 5886POPC   C3B74361   0.634  18.646   7.163
 5886POPC   C4B74362   0.758  18.514   7.615
 5887POPC   NC374363  21.671  32.483   5.384
 5887POPC   PO474364  21.071  32.089   5.396
 5887POPC   GL174365  21.326  32.230   5.766
 5887POPC   GL274366  21.686  32.158   5.764
 5887POPC   C1A74367  21.214  32.392   6.201
 5887POPC   D2A74368  21.256  32.613   6.590
 5887POPC   C3A74369  21.161  32.442   6.965
 5887POPC   C4A74370  20.996  32.707   7.260
 5887POPC   C1B74371  21.713  32.349   6.162
 5887POPC   C2B74372  21.561  32.211   6.578
 5887POPC   C3B74373  21.613  32.202   7.036
 5887POPC   C4B74374  21.571  31.823   7.292
 5888POPC   NC374375  28.086  26.422   5.307
 5888POPC   PO474376  28.476  25.888   5.356
 5888POPC   GL174377  28.377  26.134   5.706
 5888POPC   GL274378  28.696  26.080   5.832
 5888POPC   C1A74379  28.228  26.162   6.144
 5888POPC   D2A74380  28.068  26.304   6.554
 5888POPC   C3A74381  28.182  26.092   6.902
 5888POPC   C4A74382  28.412  26.037   7.262
 5888POPC   C1B74383  28.619  25.834   6.240
 5888POPC   C2B74384  28.557  25.809   6.698
 5888POPC   C3B74385  28.689  25.651   7.104
 5888POPC   C4B74386  28.839  25.830   7.521
 5889POPC   NC374387  11.563  15.428   5.485
 5889POPC   PO474388  11.372  16.014   5.610
 5889POPC   GL174389  11.627  15.845   5.910
 5889POPC   GL274390  11.744  15.535   5.965
 5889POPC   C1A74391  11.532  15.874   6.331
 5889POPC   D2A74392  11.380  16.260   6.485
 5889POPC   C3A74393  11.459  16.271   6.901
 5889POPC   C4A74394  11.334  15.987   7.260
 5889POPC   C1B74395  11.333  15.430   6.132
 5889POPC   C2B74396  11.164  15.459   6.553
 5889POPC   C3B74397  11.201  15.564   7.005
 5889POPC   C4B74398  11.168  15.534   7.478
 5890POPC   NC374399  27.336   5.110   5.324
 5890POPC   PO474400  26.721   5.186   5.543
 5890POPC   GL174401  26.784   5.342   5.913
 5890POPC   GL274402  27.096   5.134   5.883
 5890POPC   C1A74403  26.579   5.338   6.297
 5890POPC   D2A74404  26.384   5.117   6.599
 5890POPC   C3A74405  26.589   4.968   6.972
 5890POPC   C4A74406  26.915   4.999   7.299
 5890POPC   C1B74407  26.883   4.938   6.231
 5890POPC   C2B74408  26.988   5.080   6.641
 5890POPC   C3B74409  27.152   4.747   6.896
 5890POPC   C4B74410  27.103   4.529   7.290
 5891POPC   NC374411  30.030   6.697   5.277
 5891POPC   PO474412  29.487   6.440   5.586
 5891POPC   GL174413  29.793   6.660   5.859
 5891POPC   GL274414  30.158   6.731   5.752
 5891POPC   C1A74415  29.776   6.625   6.318
 5891POPC   D2A74416  29.641   6.386   6.698
 5891POPC   C3A74417  29.805   6.612   7.057
 5891POPC   C4A74418  29.862   6.944   7.361
 5891POPC   C1B74419  30.230   6.801   6.147
 5891POPC   C2B74420  30.146   6.930   6.534
 5891POPC   C3B74421  30.242   6.888   6.935
 5891POPC   C4B74422  30.277   6.666   7.306
 5892POPC   NC374423  32.415  38.966   5.016
 5892POPC   PO474424  32.014  39.341   5.447
 5892POPC   GL174425  32.350  39.223   5.765
 5892POPC   GL274426  32.372  39.538   5.974
 5892POPC   C1A74427  32.570  39.132   6.169
 5892POPC   D2A74428  32.513  39.428   6.528
 5892POPC   C3A74429  32.438  39.306   6.967
 5892POPC   C4A74430  32.320  39.469   7.402
 5892POPC   C1B74431  32.053  39.437   6.292
 5892POPC   C2B74432  31.965  39.370   6.760
 5892POPC   C3B74433  31.891  39.262   7.221
 5892POPC   C4B74434  31.725  39.092   7.629
 5893POPC   NC374435  27.861  10.607   5.728
 5893POPC   PO474436  28.346  10.266   5.405
 5893POPC   GL174437  28.335  10.397   5.822
 5893POPC   GL274438  28.354  10.765   5.871
 5893POPC   C1A74439  28.512  10.341   6.234
 5893POPC   D2A74440  28.631  10.629   6.546
 5893POPC   C3A74441  28.505  10.581   6.968
 5893POPC   C4A74442  28.529  10.272   7.278
 5893POPC   C1B74443  28.208  10.782   6.303
 5893POPC   C2B74444  28.155  10.432   6.619
 5893POPC   C3B74445  28.037  10.296   7.050
 5893POPC   C4B74446  28.087  10.513   7.453
 5894POPC   NC374447   2.345  41.463   5.517
 5894POPC   PO474448   1.781  41.751   5.480
 5894POPC   GL174449   2.042  41.733   5.850
 5894POPC   GL274450   1.844  42.022   5.935
 5894POPC   C1A74451   2.126  41.377   6.187
 5894POPC   D2A74452   1.844  41.058   6.431
 5894POPC   C3A74453   1.819  41.157   6.892
 5894POPC   C4A74454   2.179  41.244   7.148
 5894POPC   C1B74455   1.859  41.813   6.334
 5894POPC   C2B74456   2.105  41.605   6.670
 5894POPC   C3B74457   2.058  41.753   7.077
 5894POPC   C4B74458   1.704  41.908   7.301
 5895POPC   NC374459   0.157  21.987   5.467
 5895POPC   PO474460   0.728  22.259   5.622
 5895POPC   GL174461   0.631  21.935   5.968
 5895POPC   GL274462   0.298  21.767   6.003
 5895POPC   C1A74463   0.565  21.916   6.439
 5895POPC   D2A74464   0.305  22.111   6.790
 5895POPC   C3A74465   0.539  22.328   7.111
 5895POPC   C4A74466   0.588  22.101   7.478
 5895POPC   C1B74467   0.103  22.117   6.298
 5895POPC   C2B74468  44.909  22.416   6.631
 5895POPC   C3B74469   0.049  22.524   7.078
 5895POPC   C4B74470   0.160  22.383   7.493
 5896POPC   NC374471  13.636  20.691   5.490
 5896POPC   PO474472  13.225  20.189   5.610
 5896POPC   GL174473  13.475  20.377   5.941
 5896POPC   GL274474  13.455  20.747   5.981
 5896POPC   C1A74475  13.548  20.370   6.395
 5896POPC   D2A74476  13.406  20.692   6.662
 5896POPC   C3A74477  13.478  20.517   7.035
 5896POPC   C4A74478  13.687  20.373   7.386
 5896POPC   C1B74479  13.869  20.692   6.174
 5896POPC   C2B74480  13.918  20.817   6.623
 5896POPC   C3B74481  13.893  20.831   7.095
 5896POPC   C4B74482  14.012  20.715   7.538
 5897POPC   NC374483  40.640  30.457   5.259
 5897POPC   PO474484  41.153  30.791   5.263
 5897POPC   GL174485  40.622  30.846   5.578
 5897POPC   GL274486  40.575  30.537   5.832
 5897POPC   C1A74487  40.512  30.967   6.085
 5897POPC   D2A74488  40.762  30.826   6.465
 5897POPC   C3A74489  40.732  30.963   6.886
 5897POPC   C4A74490  40.859  30.852   7.276
 5897POPC   C1B74491  40.419  30.304   6.206
 5897POPC   C2B74492  40.481  30.401   6.661
 5897POPC   C3B74493  40.807  30.409   6.985
 5897POPC   C4B74494  40.871  30.306   7.421
 5898POPC   NC374495  27.692  35.959   5.741
 5898POPC   PO474496  27.483  35.373   5.370
 5898POPC   GL174497  27.645  35.369   5.795
 5898POPC   GL274498  27.349  35.538   5.908
 5898POPC   C1A74499  27.790  35.128   6.183
 5898POPC   D2A74500  27.591  34.983   6.569
 5898POPC   C3A74501  27.785  34.992   6.964
 5898POPC   C4A74502  27.644  35.119   7.376
 5898POPC   C1B74503  27.583  35.580   6.295
 5898POPC   C2B74504  27.762  35.460   6.673
 5898POPC   C3B74505  27.617  35.513   7.057
 5898POPC   C4B74506  27.733  35.764   7.391
 5899POPC   NC374507  42.664   4.340   5.606
 5899POPC   PO474508  42.105   4.510   5.398
 5899POPC   GL174509  42.241   4.471   5.873
 5899POPC   GL274510  42.443   4.120   5.989
 5899POPC   C1A74511  42.193   4.394   6.329
 5899POPC   D2A74512  41.958   4.233   6.681
 5899POPC   C3A74513  42.168   4.345   7.064
 5899POPC   C4A74514  42.341   4.589   7.392
 5899POPC   C1B74515  42.729   4.337   6.306
 5899POPC   C2B74516  42.767   4.485   6.747
 5899POPC   C3B74517  42.678   4.238   7.130
 5899POPC   C4B74518  42.632   3.927   7.447
 5900POPC   NC374519  34.661  27.984   5.129
 5900POPC   PO474520  34.222  27.570   5.314
 5900POPC   GL174521  34.351  27.590   5.742
 5900POPC   GL274522  34.657  27.406   5.833
 5900POPC   C1A74523  34.305  27.613   6.199
 5900POPC   D2A74524  34.507  27.858   6.530
 5900POPC   C3A74525  34.375  27.764   6.965
 5900POPC   C4A74526  34.295  27.461   7.251
 5900POPC   C1B74527  34.796  27.434   6.284
 5900POPC   C2B74528  34.697  27.405   6.739
 5900POPC   C3B74529  34.838  27.642   7.108
 5900POPC   C4B74530  35.060  27.534   7.499
 5901POPC   NC374531  35.749  29.800   5.093
 5901POPC   PO474532  35.156  30.011   5.200
 5901POPC   GL174533  35.401  30.002   5.636
 5901POPC   GL274534  35.443  29.726   5.872
 5901POPC   C1A74535  35.514  30.192   6.079
 5901POPC   D2A74536  35.411  30.075   6.533
 5901POPC   C3A74537  35.431  30.185   6.988
 5901POPC   C4A74538  35.086  30.262   7.245
 5901POPC   C1B74539  35.163  29.746   6.204
 5901POPC   C2B74540  35.023  29.700   6.634
 5901POPC   C3B74541  35.255  29.689   7.018
 5901POPC   C4B74542  35.618  29.416   7.150
 5902POPC   NC374543  20.603  12.607   5.436
 5902POPC   PO474544  20.813  13.255   5.520
 5902POPC   GL174545  20.567  12.991   5.800
 5902POPC   GL274546  20.844  13.042   5.996
 5902POPC   C1A74547  20.402  12.703   6.146
 5902POPC   D2A74548  20.323  12.565   6.583
 5902POPC   C3A74549  20.307  12.724   7.025
 5902POPC   C4A74550  20.486  12.497   7.388
 5902POPC   C1B74551  20.587  13.139   6.336
 5902POPC   C2B74552  20.646  12.954   6.726
 5902POPC   C3B74553  20.847  12.764   7.077
 5902POPC   C4B74554  21.160  12.943   7.343
 5903POPC   NC374555  22.864   7.805   5.535
 5903POPC   PO474556  23.205   7.191   5.320
 5903POPC   GL174557  23.126   7.404   5.726
 5903POPC   GL274558  22.745   7.346   5.736
 5903POPC   C1A74559  22.980   7.491   6.176
 5903POPC   D2A74560  23.222   7.548   6.586
 5903POPC   C3A74561  23.041   7.696   6.947
 5903POPC   C4A74562  22.913   7.435   7.221
 5903POPC   C1B74563  22.669   7.036   6.104
 5903POPC   C2B74564  22.531   6.968   6.590
 5903POPC   C3B74565  22.548   7.092   7.086
 5903POPC   C4B74566  22.532   7.367   7.533
 5904POPC   NC374567  12.224   8.366   5.496
 5904POPC   PO474568  11.844   7.870   5.451
 5904POPC   GL174569  11.940   7.789   5.884
 5904POPC   GL274570  12.193   8.029   5.893
 5904POPC   C1A74571  11.916   8.038   6.307
 5904POPC   D2A74572  11.694   8.150   6.715
 5904POPC   C3A74573  11.823   8.254   7.146
 5904POPC   C4A74574  12.061   8.328   7.551
 5904POPC   C1B74575  12.288   8.403   6.138
 5904POPC   C2B74576  12.203   8.399   6.563
 5904POPC   C3B74577  12.258   8.455   6.972
 5904POPC   C4B74578  12.608   8.503   7.210
 5905POPC   NC374579   4.740  12.852   5.563
 5905POPC   PO474580   5.161  12.458   5.356
 5905POPC   GL174581   5.288  12.704   5.720
 5905POPC   GL274582   5.183  13.071   5.736
 5905POPC   C1A74583   5.312  12.612   6.156
 5905POPC   D2A74584   5.150  12.646   6.568
 5905POPC   C3A74585   4.863  12.881   6.801
 5905POPC   C4A74586   5.012  12.822   7.212
 5905POPC   C1B74587   5.056  13.071   6.195
 5905POPC   C2B74588   5.123  13.283   6.598
 5905POPC   C3B74589   5.002  13.339   7.017
 5905POPC   C4B74590   4.855  13.297   7.437
 5906POPC   NC374591  34.842  34.549   5.565
 5906POPC   PO474592  34.327  34.170   5.453
 5906POPC   GL174593  34.280  34.350   5.871
 5906POPC   GL274594  34.410  34.682   5.882
 5906POPC   C1A74595  34.393  34.357   6.319
 5906POPC   D2A74596  34.799  34.319   6.574
 5906POPC   C3A74597  34.741  34.420   7.042
 5906POPC   C4A74598  34.311  34.472   7.201
 5906POPC   C1B74599  34.686  34.770   6.256
 5906POPC   C2B74600  34.675  34.815   6.719
 5906POPC   C3B74601  34.428  34.951   7.090
 5906POPC   C4B74602  34.286  35.075   7.527
 5907POPC   NC374603  42.159  26.905   5.480
 5907POPC   PO474604  42.682  26.511   5.401
 5907POPC   GL174605  42.507  26.650   5.789
 5907POPC   GL274606  42.207  26.445   5.711
 5907POPC   C1A74607  42.382  27.023   6.108
 5907POPC   D2A74608  42.309  27.262   6.518
 5907POPC   C3A74609  42.283  27.028   6.907
 5907POPC   C4A74610  41.974  26.808   7.166
 5907POPC   C1B74611  42.142  26.580   6.140
 5907POPC   C2B74612  42.318  26.645   6.547
 5907POPC   C3B74613  42.348  26.520   6.964
 5907POPC   C4B74614  42.249  26.421   7.366
 5908POPC   NC374615  13.511  13.865   5.440
 5908POPC   PO474616  13.935  13.406   5.222
 5908POPC   GL174617  13.868  13.533   5.660
 5908POPC   GL274618  13.560  13.518   5.847
 5908POPC   C1A74619  13.961  13.612   6.127
 5908POPC   D2A74620  13.756  13.695   6.519
 5908POPC   C3A74621  13.895  13.536   6.947
 5908POPC   C4A74622  13.568  13.275   7.157
 5908POPC   C1B74623  13.314  13.785   6.075
 5908POPC   C2B74624  13.208  13.813   6.498
 5908POPC   C3B74625  13.396  13.682   6.886
 5908POPC   C4B74626  13.359  13.744   7.300
 5909POPC   NC374627   3.968  18.365   5.446
 5909POPC   PO474628   4.591  18.085   5.342
 5909POPC   GL174629   4.429  18.319   5.693
 5909POPC   GL274630   4.474  18.052   5.879
 5909POPC   C1A74631   4.247  18.505   6.086
 5909POPC   D2A74632   4.043  18.646   6.505
 5909POPC   C3A74633   4.332  18.549   6.889
 5909POPC   C4A74634   4.364  18.220   7.259
 5909POPC   C1B74635   4.162  18.003   6.170
 5909POPC   C2B74636   4.304  18.200   6.504
 5909POPC   C3B74637   4.424  18.007   6.820
 5909POPC   C4B74638   4.113  17.810   7.061
 5910POPC   NC374639  34.106  33.792   5.313
 5910POPC   PO474640  34.718  33.423   5.393
 5910POPC   GL174641  34.592  33.771   5.657
 5910POPC   GL274642  34.278  33.716   5.784
 5910POPC   C1A74643  34.622  33.971   6.075
 5910POPC   D2A74644  34.429  33.863   6.481
 5910POPC   C3A74645  34.379  34.124   6.804
 5910POPC   C4A74646  34.483  33.984   7.199
 5910POPC   C1B74647  34.379  33.490   6.138
 5910POPC   C2B74648  34.296  33.355   6.556
 5910POPC   C3B74649  34.288  33.574   6.936
 5910POPC   C4B74650  34.561  33.494   7.282
 5911POPC   NC374651   2.830  35.822   5.407
 5911POPC   PO474652   2.721  35.172   5.596
 5911POPC   GL174653   2.746  35.547   5.839
 5911POPC   GL274654   2.403  35.708   5.737
 5911POPC   C1A74655   2.836  35.396   6.286
 5911POPC   D2A74656   2.689  35.155   6.667
 5911POPC   C3A74657   2.875  35.225   7.086
 5911POPC   C4A74658   2.936  35.577   7.381
 5911POPC   C1B74659   2.371  35.507   6.151
 5911POPC   C2B74660   2.387  35.552   6.587
 5911POPC   C3B74661   2.527  35.597   7.020
 5911POPC   C4B74662   2.488  35.814   7.416
 5912POPC   NC374663  13.041   8.163   5.371
 5912POPC   PO474664  12.479   7.970   5.491
 5912POPC   GL174665  12.697   8.170   5.856
 5912POPC   GL274666  13.071   8.136   5.896
 5912POPC   C1A74667  12.706   8.177   6.328
 5912POPC   D2A74668  12.718   8.469   6.707
 5912POPC   C3A74669  13.080   8.448   6.985
 5912POPC   C4A74670  13.010   8.143   7.314
 5912POPC   C1B74671  13.151   7.855   6.269
 5912POPC   C2B74672  12.914   7.830   6.654
 5912POPC   C3B74673  12.485   8.001   6.790
 5912POPC   C4B74674  12.342   8.031   7.232
 5913POPC   NC374675   4.193  33.846   5.289
 5913POPC   PO474676   4.723  34.012   5.554
 5913POPC   GL174677   4.421  33.816   5.825
 5913POPC   GL274678   4.058  33.762   5.804
 5913POPC   C1A74679   4.401  33.804   6.259
 5913POPC   D2A74680   4.230  34.057   6.594
 5913POPC   C3A74681   4.449  33.842   6.890
 5913POPC   C4A74682   4.439  33.754   7.310
 5913POPC   C1B74683   3.883  33.864   6.236
 5913POPC   C2B74684   3.892  33.677   6.680
 5913POPC   C3B74685   3.950  33.734   7.145
 5913POPC   C4B74686   3.897  33.738   7.590
 5914POPC   NC374687  40.672  11.630   5.427
 5914POPC   PO474688  41.021  11.014   5.491
 5914POPC   GL174689  40.832  11.302   5.792
 5914POPC   GL274690  41.014  11.610   5.846
 5914POPC   C1A74691  40.573  11.565   6.098
 5914POPC   D2A74692  40.432  11.669   6.504
 5914POPC   C3A74693  40.620  11.458   6.867
 5914POPC   C4A74694  40.421  11.650   7.216
 5914POPC   C1B74695  41.036  11.371   6.252
 5914POPC   C2B74696  41.110  11.300   6.687
 5914POPC   C3B74697  41.055  11.092   7.098
 5914POPC   C4B74698  41.063  11.045   7.569
 5915POPC   NC374699  18.773  15.047   5.562
 5915POPC   PO474700  19.382  15.423   5.522
 5915POPC   GL174701  19.050  15.376   5.830
 5915POPC   GL274702  19.066  15.028   5.979
 5915POPC   C1A74703  18.798  15.449   6.200
 5915POPC   D2A74704  18.678  15.134   6.532
 5915POPC   C3A74705  18.852  15.062   6.933
 5915POPC   C4A74706  18.908  15.317   7.289
 5915POPC   C1B74707  19.302  14.842   6.325
 5915POPC   C2B74708  19.311  14.891   6.771
 5915POPC   C3B74709  19.390  15.165   7.127
 5915POPC   C4B74710  19.508  14.954   7.546
 5916POPC   NC374711  21.827  36.666   5.509
 5916POPC   PO474712  22.144  37.233   5.369
 5916POPC   GL174713  22.180  37.067   5.777
 5916POPC   GL274714  22.244  36.711   5.817
 5916POPC   C1A74715  22.430  37.025   6.181
 5916POPC   D2A74716  22.274  36.916   6.592
 5916POPC   C3A74717  22.481  36.909   6.979
 5916POPC   C4A74718  22.249  37.004   7.318
 5916POPC   C1B74719  21.952  36.826   6.175
 5916POPC   C2B74720  21.820  36.692   6.589
 5916POPC   C3B74721  21.989  36.628   7.009
 5916POPC   C4B74722  22.343  36.501   7.267
 5917POPC   NC374723  22.429  31.837   5.469
 5917POPC   PO474724  22.118  32.426   5.313
 5917POPC   GL174725  22.084  32.477   5.771
 5917POPC   GL274726  22.210  32.145   5.806
 5917POPC   C1A74727  22.211  32.417   6.221
 5917POPC   D2A74728  22.076  32.179   6.578
 5917POPC   C3A74729  22.087  32.442   6.950
 5917POPC   C4A74730  22.303  32.492   7.336
 5917POPC   C1B74731  22.456  31.952   6.153
 5917POPC   C2B74732  22.526  31.904   6.610
 5917POPC   C3B74733  22.442  32.071   7.030
 5917POPC   C4B74734  22.065  32.047   7.295
 5918POPC   NC374735  14.545   9.997   5.198
 5918POPC   PO474736  14.435   9.345   5.362
 5918POPC   GL174737  14.419   9.636   5.703
 5918POPC   GL274738  14.767   9.554   5.806
 5918POPC   C1A74739  14.188   9.818   6.096
 5918POPC   D2A74740  14.197   9.682   6.535
 5918POPC   C3A74741  14.194  10.003   6.857
 5918POPC   C4A74742  14.394   9.929   7.224
 5918POPC   C1B74743  14.568   9.489   6.176
 5918POPC   C2B74744  14.714   9.493   6.566
 5918POPC   C3B74745  14.536   9.535   6.921
 5918POPC   C4B74746  14.664   9.529   7.332
 5919POPC   NC374747  20.257  11.165   5.286
 5919POPC   PO474748  19.713  10.796   5.435
 5919POPC   GL174749  19.760  11.157   5.749
 5919POPC   GL274750  19.931  11.510   5.710
 5919POPC   C1A74751  19.782  11.238   6.225
 5919POPC   D2A74752  19.840  11.073   6.667
 5919POPC   C3A74753  19.698  11.259   7.050
 5919POPC   C4A74754  19.793  11.172   7.489
 5919POPC   C1B74755  19.979  11.697   6.171
 5919POPC   C2B74756  20.072  11.558   6.624
 5919POPC   C3B74757  20.167  11.763   7.034
 5919POPC   C4B74758  19.961  11.633   7.421
 5920POPC   NC374759   0.508  38.075   5.097
 5920POPC   PO474760   0.075  37.606   5.211
 5920POPC   GL174761   0.181  37.703   5.759
 5920POPC   GL274762   0.506  37.670   5.826
 5920POPC   C1A74763   0.281  37.868   6.246
 5920POPC   D2A74764   0.634  37.681   6.535
 5920POPC   C3A74765   0.553  37.716   6.968
 5920POPC   C4A74766   0.347  38.078   7.153
 5920POPC   C1B74767   0.377  37.382   6.190
 5920POPC   C2B74768   0.213  37.383   6.627
 5920POPC   C3B74769   0.306  37.244   7.048
 5920POPC   C4B74770   0.548  37.368   7.375
 5921POPC   NC374771  14.016  13.004   5.416
 5921POPC   PO474772  13.592  12.542   5.081
 5921POPC   GL174773  13.406  12.701   5.601
 5921POPC   GL274774  13.593  13.011   5.729
 5921POPC   C1A74775  13.349  12.722   6.073
 5921POPC   D2A74776  13.535  12.658   6.515
 5921POPC   C3A74777  13.395  12.922   6.832
 5921POPC   C4A74778  13.166  12.958   7.214
 5921POPC   C1B74779  13.673  13.136   6.180
 5921POPC   C2B74780  13.912  13.147   6.575
 5921POPC   C3B74781  14.018  13.008   7.006
 5921POPC   C4B74782  13.699  12.757   7.200
 5922POPC   NC374783   4.686   4.450   5.380
 5922POPC   PO474784   4.061   4.159   5.332
 5922POPC   GL174785   4.104   4.409   5.736
 5922POPC   GL274786   4.454   4.500   5.830
 5922POPC   C1A74787   4.071   4.443   6.201
 5922POPC   D2A74788   4.274   4.296   6.581
 5922POPC   C3A74789   4.054   4.352   6.948
 5922POPC   C4A74790   4.099   4.231   7.385
 5922POPC   C1B74791   4.626   4.400   6.219
 5922POPC   C2B74792   4.694   4.624   6.607
 5922POPC   C3B74793   4.525   4.593   7.010
 5922POPC   C4B74794   4.592   4.309   7.305
 5923POPC   NC374795   3.503  39.760   5.507
 5923POPC   PO474796   3.916  40.322   5.472
 5923POPC   GL174797   3.624  40.146   5.812
 5923POPC   GL274798   3.591  39.839   5.997
 5923POPC   C1A74799   3.313  40.249   6.098
 5923POPC   D2A74800   3.463  40.087   6.477
 5923POPC   C3A74801   3.577  40.350   6.843
 5923POPC   C4A74802   3.892  40.320   7.197
 5923POPC   C1B74803   3.243  39.619   6.159
 5923POPC   C2B74804   3.303  39.600   6.591
 5923POPC   C3B74805   3.475  39.820   6.921
 5923POPC   C4B74806   3.335  40.100   7.220
 5924POPC   NC374807  11.141   9.795   5.600
 5924POPC   PO474808  11.750  10.111   5.456
 5924POPC   GL174809  11.615   9.932   5.847
 5924POPC   GL274810  11.335  10.151   5.913
 5924POPC   C1A74811  11.600   9.707   6.261
 5924POPC   D2A74812  11.733   9.728   6.714
 5924POPC   C3A74813  11.438   9.484   7.006
 5924POPC   C4A74814  11.399   9.559   7.446
 5924POPC   C1B74815  11.130   9.956   6.257
 5924POPC   C2B74816  11.206   9.772   6.642
 5924POPC   C3B74817  11.185   9.916   7.055
 5924POPC   C4B74818  11.050   9.920   7.454
 5925POPC   NC374819  26.982   6.618   5.341
 5925POPC   PO474820  26.345   6.925   5.405
 5925POPC   GL174821  26.633   6.687   5.738
 5925POPC   GL274822  26.957   6.834   5.824
 5925POPC   C1A74823  26.842   6.412   6.109
 5925POPC   D2A74824  26.920   6.190   6.530
 5925POPC   C3A74825  26.616   6.273   6.891
 5925POPC   C4A74826  26.476   6.638   7.146
 5925POPC   C1B74827  26.970   6.892   6.278
 5925POPC   C2B74828  26.822   6.675   6.650
 5925POPC   C3B74829  27.098   6.471   6.943
 5925POPC   C4B74830  27.381   6.669   7.221
 5926POPC   NC374831  35.438   2.421   5.581
 5926POPC   PO474832  35.636   1.848   5.485
 5926POPC   GL174833  35.300   1.925   5.767
 5926POPC   GL274834  35.056   1.677   5.638
 5926POPC   C1A74835  35.207   2.131   6.162
 5926POPC   D2A74836  35.180   2.239   6.623
 5926POPC   C3A74837  35.535   2.025   6.887
 5926POPC   C4A74838  35.669   2.150   7.336
 5926POPC   C1B74839  34.979   1.650   6.075
 5926POPC   C2B74840  35.165   1.731   6.463
 5926POPC   C3B74841  35.039   1.759   6.870
 5926POPC   C4B74842  34.965   1.742   7.302
 5927POPC   NC374843   4.018  21.790   5.625
 5927POPC   PO474844   4.602  21.530   5.442
 5927POPC   GL174845   4.338  21.379   5.730
 5927POPC   GL274846   4.115  21.151   5.575
 5927POPC   C1A74847   4.308  21.505   6.166
 5927POPC   D2A74848   4.551  21.409   6.498
 5927POPC   C3A74849   4.368  21.397   6.905
 5927POPC   C4A74850   4.304  21.639   7.284
 5927POPC   C1B74851   4.050  21.085   6.024
 5927POPC   C2B74852   4.141  21.079   6.463
 5927POPC   C3B74853   4.081  20.946   6.888
 5927POPC   C4B74854   4.063  21.179   7.283
 5928POPC   NC374855   3.751  12.993   5.606
 5928POPC   PO474856   3.482  12.500   5.173
 5928POPC   GL174857   3.330  12.738   5.790
 5928POPC   GL274858   3.706  12.769   6.053
 5928POPC   C1A74859   3.308  12.666   6.302
 5928POPC   D2A74860   3.469  12.879   6.643
 5928POPC   C3A74861   3.549  12.689   7.072
 5928POPC   C4A74862   3.202  12.549   7.312
 5928POPC   C1B74863   3.493  13.142   6.193
 5928POPC   C2B74864   3.602  13.399   6.554
 5928POPC   C3B74865   3.710  13.167   6.961
 5928POPC   C4B74866   3.458  13.121   7.368
 5929POPC   NC374867  17.569   8.880   5.484
 5929POPC   PO474868  17.078   9.371   5.677
 5929POPC   GL174869  17.204   8.966   5.839
 5929POPC   GL274870  17.545   9.003   5.976
 5929POPC   C1A74871  17.145   8.782   6.237
 5929POPC   D2A74872  17.052   9.062   6.574
 5929POPC   C3A74873  17.362   9.022   6.881
 5929POPC   C4A74874  17.406   8.736   7.212
 5929POPC   C1B74875  17.592   8.976   6.407
 5929POPC   C2B74876  17.771   8.735   6.720
 5929POPC   C3B74877  17.886   8.896   7.070
 5929POPC   C4B74878  17.643   9.210   7.282
 5930POPC   NC374879  21.280  36.421   5.088
 5930POPC   PO474880  21.458  36.953   5.411
 5930POPC   GL174881  21.607  37.027   5.803
 5930POPC   GL274882  21.498  37.375   5.752
 5930POPC   C1A74883  21.448  36.779   6.162
 5930POPC   D2A74884  21.176  36.751   6.544
 5930POPC   C3A74885  21.438  36.762   6.908
 5930POPC   C4A74886  21.539  36.529   7.240
 5930POPC   C1B74887  21.354  37.295   6.164
 5930POPC   C2B74888  21.541  37.128   6.517
 5930POPC   C3B74889  21.690  37.198   6.902
 5930POPC   C4B74890  21.744  37.022   7.284
 5931POPC   NC374891  14.798  21.287   5.050
 5931POPC   PO474892  15.172  21.656   5.401
 5931POPC   GL174893  14.880  21.423   5.669
 5931POPC   GL274894  15.037  21.143   5.862
 5931POPC   C1A74895  14.787  21.490   6.129
 5931POPC   D2A74896  15.036  21.560   6.537
 5931POPC   C3A74897  14.953  21.491   7.008
 5931POPC   C4A74898  15.156  21.481   7.412
 5931POPC   C1B74899  14.994  21.073   6.322
 5931POPC   C2B74900  15.190  21.135   6.751
 5931POPC   C3B74901  15.391  21.115   7.169
 5931POPC   C4B74902  15.321  20.836   7.551
 5932POPC   NC374903  13.628  36.216   5.271
 5932POPC   PO474904  13.873  35.626   5.426
 5932POPC   GL174905  13.784  36.021   5.732
 5932POPC   GL274906  13.633  36.363   5.793
 5932POPC   C1A74907  13.848  36.139   6.193
 5932POPC   D2A74908  14.109  36.065   6.578
 5932POPC   C3A74909  13.925  36.073   6.988
 5932POPC   C4A74910  13.842  35.863   7.387
 5932POPC   C1B74911  13.343  36.273   6.142
 5932POPC   C2B74912  13.138  36.241   6.519
 5932POPC   C3B74913  13.158  36.327   6.954
 5932POPC   C4B74914  13.428  36.042   7.123
 5933POPC   NC374915  18.864   1.381   5.497
 5933POPC   PO474916  19.531   1.217   5.392
 5933POPC   GL174917  19.274   1.241   5.793
 5933POPC   GL274918  19.007   0.931   5.813
 5933POPC   C1A74919  19.119   1.488   6.185
 5933POPC   D2A74920  18.981   1.700   6.605
 5933POPC   C3A74921  19.140   1.450   6.968
 5933POPC   C4A74922  19.213   1.312   7.396
 5933POPC   C1B74923  19.303   0.918   6.191
 5933POPC   C2B74924  19.377   1.152   6.600
 5933POPC   C3B74925  19.423   0.979   7.031
 5933POPC   C4B74926  19.090   0.733   7.190
 5934POPC   NC374927   6.835   0.690   5.194
 5934POPC   PO474928   6.516   0.112   5.350
 5934POPC   GL174929   6.580   0.363   5.776
 5934POPC   GL274930   6.763   0.661   5.762
 5934POPC   C1A74931   6.799   0.364   6.189
 5934POPC   D2A74932   6.647   0.305   6.603
 5934POPC   C3A74933   6.656   0.464   7.029
 5934POPC   C4A74934   6.788   0.249   7.430
 5934POPC   C1B74935   7.012   0.822   6.148
 5934POPC   C2B74936   6.852   0.795   6.563
 5934POPC   C3B74937   7.075   0.750   6.934
 5934POPC   C4B74938   6.954   0.722   7.364
 5935POPC   NC374939  14.508   0.444   5.377
 5935POPC   PO474940  14.159   0.940   5.432
 5935POPC   GL174941  14.374   0.665   5.814
 5935POPC   GL274942  14.287   0.276   5.825
 5935POPC   C1A74943  14.633   0.447   6.189
 5935POPC   D2A74944  14.732   0.258   6.641
 5935POPC   C3A74945  14.523   0.528   6.976
 5935POPC   C4A74946  14.304   0.707   7.339
 5935POPC   C1B74947  14.449  44.922   6.123
 5935POPC   C2B74948  14.367  44.752   6.547
 5935POPC   C3B74949  14.265   0.068   6.879
 5935POPC   C4B74950  14.084   0.229   7.265
 5936POPC   NC374951  21.093  18.667   5.671
 5936POPC   PO474952  21.546  18.411   5.340
 5936POPC   GL174953  21.436  18.147   5.721
 5936POPC   GL274954  21.112  18.200   5.917
 5936POPC   C1A74955  21.571  18.127   6.162
 5936POPC   D2A74956  21.339  18.133   6.563
 5936POPC   C3A74957  21.494  18.048   6.961
 5936POPC   C4A74958  21.346  18.024   7.384
 5936POPC   C1B74959  21.219  18.525   6.261
 5936POPC   C2B74960  21.006  18.653   6.613
 5936POPC   C3B74961  21.194  18.509   6.958
 5936POPC   C4B74962  21.147  18.480   7.376
 5937POPC   NC374963  42.015  41.147   5.472
 5937POPC   PO474964  42.066  40.464   5.307
 5937POPC   GL174965  42.120  40.694   5.728
 5937POPC   GL274966  42.478  40.635   5.780
 5937POPC   C1A74967  42.247  40.912   6.135
 5937POPC   D2A74968  42.455  41.063   6.488
 5937POPC   C3A74969  42.353  40.893   6.870
 5937POPC   C4A74970  42.144  41.104   7.157
 5937POPC   C1B74971  42.379  40.409   6.131
 5937POPC   C2B74972  42.302  40.475   6.550
 5937POPC   C3B74973  42.272  40.374   6.978
 5937POPC   C4B74974  42.250  40.619   7.316
 5938POPC   NC374975  41.717  18.068   5.575
 5938POPC   PO474976  41.233  18.476   5.528
 5938POPC   GL174977  41.502  18.392   5.921
 5938POPC   GL274978  41.860  18.501   5.884
 5938POPC   C1A74979  41.717  18.050   6.222
 5938POPC   D2A74980  41.815  17.897   6.653
 5938POPC   C3A74981  41.448  17.991   6.865
 5938POPC   C4A74982  41.273  17.979   7.263
 5938POPC   C1B74983  41.975  18.464   6.315
 5938POPC   C2B74984  41.762  18.425   6.697
 5938POPC   C3B74985  41.880  18.261   7.079
 5938POPC   C4B74986  42.046  18.519   7.425
 5939POPC   NC374987  44.149  12.559   5.535
 5939POPC   PO474988  43.431  12.698   5.372
 5939POPC   GL174989  43.660  12.835   5.768
 5939POPC   GL274990  43.908  12.604   5.975
 5939POPC   C1A74991  43.568  12.921   6.198
 5939POPC   D2A74992  43.775  12.707   6.557
 5939POPC   C3A74993  43.790  12.884   6.991
 5939POPC   C4A74994  43.592  12.949   7.401
 5939POPC   C1B74995  44.057  13.022   6.119
 5939POPC   C2B74996  44.139  13.103   6.535
 5939POPC   C3B74997  44.257  12.785   6.794
 5939POPC   C4B74998  44.258  12.844   7.221
 5940POPC   NC374999   4.400  40.159   5.440
 5940POPC   PO475000   3.936  39.667   5.664
 5940POPC   GL175001   4.105  39.982   5.883
 5940POPC   GL275002   4.451  39.901   5.880
 5940POPC   C1A75003   3.943  40.033   6.311
 5940POPC   D2A75004   3.933  40.007   6.771
 5940POPC   C3A75005   4.164  39.702   6.984
 5940POPC   C4A75006   4.564  39.657   7.137
 5940POPC   C1B75007   4.432  40.133   6.256
 5940POPC   C2B75008   4.447  40.023   6.677
 5940POPC   C3B75009   4.377  40.171   7.078
 5940POPC   C4B75010   4.604  40.218   7.448
 5941POPC   NC375011  40.344  36.509   5.517
 5941POPC   PO475012  39.919  36.959   5.719
 5941POPC   GL175013  40.147  36.994   5.990
 5941POPC   GL275014  40.442  36.925   5.830
 5941POPC   C1A75015  39.965  37.026   6.383
 5941POPC   D2A75016  40.133  37.036   6.746
 5941POPC   C3A75017  39.907  36.943   7.078
 5941POPC   C4A75018  39.628  37.214   7.219
 5941POPC   C1B75019  40.488  36.750   6.249
 5941POPC   C2B75020  40.230  36.554   6.562
 5941POPC   C3B75021  40.344  36.642   6.981
 5941POPC   C4B75022  40.249  36.677   7.406
 5942POPC   NC375023  23.089  39.472   5.636
 5942POPC   PO475024  23.577  39.255   5.241
 5942POPC   GL175025  23.765  39.186   5.661
 5942POPC   GL275026  23.899  39.510   5.782
 5942POPC   C1A75027  23.604  39.145   6.092
 5942POPC   D2A75028  23.581  39.304   6.516
 5942POPC   C3A75029  23.505  39.049   6.877
 5942POPC   C4A75030  23.362  39.198   7.261
 5942POPC   C1B75031  23.982  39.510   6.210
 5942POPC   C2B75032  24.163  39.639   6.587
 5942POPC   C3B75033  23.937  39.392   6.888
 5942POPC   C4B75034  23.845  39.418   7.292
 5943POPC   NC375035  10.143  19.003   5.531
 5943POPC   PO475036   9.577  19.010   5.087
 5943POPC   GL175037   9.636  18.945   5.579
 5943POPC   GL275038   9.757  19.268   5.768
 5943POPC   C1A75039   9.667  18.850   6.065
 5943POPC   D2A75040   9.520  19.105   6.436
 5943POPC   C3A75041   9.658  18.981   6.846
 5943POPC   C4A75042   9.658  18.929   7.256
 5943POPC   C1B75043   9.969  19.389   6.185
 5943POPC   C2B75044   9.971  19.332   6.625
 5943POPC   C3B75045   9.874  19.411   7.072
 5943POPC   C4B75046   9.943  19.276   7.488
 5944POPC   NC375047  40.231  29.091   5.236
 5944POPC   PO475048  40.929  29.064   5.419
 5944POPC   GL175049  41.020  29.135   5.819
 5944POPC   GL275050  40.677  29.072   5.864
 5944POPC   C1A75051  40.993  28.931   6.229
 5944POPC   D2A75052  41.069  29.102   6.618
 5944POPC   C3A75053  40.861  28.862   6.898
 5944POPC   C4A75054  40.820  29.006   7.279
 5944POPC   C1B75055  40.494  29.100   6.254
 5944POPC   C2B75056  40.431  28.918   6.635
 5944POPC   C3B75057  40.414  29.128   7.027
 5944POPC   C4B75058  40.370  29.063   7.482
 5945POPC   NC375059  41.207  15.944   5.275
 5945POPC   PO475060  40.584  16.083   5.343
 5945POPC   GL175061  40.856  15.916   5.723
 5945POPC   GL275062  40.993  15.554   5.826
 5945POPC   C1A75063  40.747  15.924   6.175
 5945POPC   D2A75064  40.554  15.825   6.581
 5945POPC   C3A75065  40.647  16.130   6.907
 5945POPC   C4A75066  40.921  16.171   7.263
 5945POPC   C1B75067  40.914  15.412   6.292
 5945POPC   C2B75068  40.898  15.440   6.760
 5945POPC   C3B75069  40.630  15.662   7.088
 5945POPC   C4B75070  40.655  15.797   7.528
 5946POPC   NC375071  35.918  37.590   5.449
 5946POPC   PO475072  36.469  37.884   5.672
 5946POPC   GL175073  36.474  37.631   6.016
 5946POPC   GL275074  36.221  37.467   5.942
 5946POPC   C1A75075  36.473  37.585   6.460
 5946POPC   D2A75076  36.151  37.686   6.718
 5946POPC   C3A75077  36.293  37.666   7.095
 5946POPC   C4A75078  36.052  37.638   7.461
 5946POPC   C1B75079  36.004  37.411   6.296
 5946POPC   C2B75080  35.675  37.461   6.597
 5946POPC   C3B75081  35.811  37.449   7.019
 5946POPC   C4B75082  36.143  37.175   7.143
 5947POPC   NC375083  18.732  20.702   5.446
 5947POPC   PO475084  19.205  20.369   5.414
 5947POPC   GL175085  19.166  20.700   5.749
 5947POPC   GL275086  18.922  20.474   5.864
 5947POPC   C1A75087  19.099  20.840   6.192
 5947POPC   D2A75088  19.045  20.603   6.580
 5947POPC   C3A75089  19.139  20.744   7.002
 5947POPC   C4A75090  18.910  20.834   7.350
 5947POPC   C1B75091  18.693  20.445   6.224
 5947POPC   C2B75092  18.463  20.515   6.565
 5947POPC   C3B75093  18.660  20.573   6.925
 5947POPC   C4B75094  18.870  20.341   7.213
 5948POPC   NC375095   8.130  41.838   5.136
 5948POPC   PO475096   8.289  42.532   5.252
 5948POPC   GL175097   8.411  42.482   5.735
 5948POPC   GL275098   8.089  42.404   5.905
 5948POPC   C1A75099   8.485  42.102   6.071
 5948POPC   D2A75100   8.256  42.122   6.473
 5948POPC   C3A75101   8.411  42.001   6.901
 5948POPC   C4A75102   8.028  41.918   7.131
 5948POPC   C1B75103   7.990  42.637   6.264
 5948POPC   C2B75104   7.944  42.518   6.680
 5948POPC   C3B75105   8.145  42.415   7.031
 5948POPC   C4B75106   7.984  42.704   7.248
 5949POPC   NC375107  23.510  34.291   5.535
 5949POPC   PO475108  23.884  34.897   5.321
 5949POPC   GL175109  23.744  34.857   5.761
 5949POPC   GL275110  23.421  34.690   5.860
 5949POPC   C1A75111  23.877  34.754   6.199
 5949POPC   D2A75112  23.932  34.456   6.555
 5949POPC   C3A75113  23.930  34.577   6.981
 5949POPC   C4A75114  23.661  34.743   7.231
 5949POPC   C1B75115  23.454  34.485   6.278
 5949POPC   C2B75116  23.435  34.317   6.701
 5949POPC   C3B75117  23.245  34.509   7.065
 5949POPC   C4B75118  23.188  34.760   7.418
 5950POPC   NC375119  37.717   3.496   5.099
 5950POPC   PO475120  37.482   3.649   5.697
 5950POPC   GL175121  37.763   3.553   5.966
 5950POPC   GL275122  37.954   3.846   5.989
 5950POPC   C1A75123  37.666   3.386   6.358
 5950POPC   D2A75124  37.544   3.028   6.597
 5950POPC   C3A75125  37.447   3.251   6.913
 5950POPC   C4A75126  37.572   3.554   7.165
 5950POPC   C1B75127  37.578   3.922   6.294
 5950POPC   C2B75128  37.510   3.824   6.739
 5950POPC   C3B75129  37.755   4.013   7.098
 5950POPC   C4B75130  38.228   3.988   7.200
 5951POPC   NC375131   3.873  16.952   5.509
 5951POPC   PO475132   3.348  16.472   5.440
 5951POPC   GL175133   3.444  16.725   5.751
 5951POPC   GL275134   3.767  16.598   5.895
 5951POPC   C1A75135   3.326  16.663   6.170
 5951POPC   D2A75136   3.588  16.663   6.540
 5951POPC   C3A75137   3.404  16.431   6.859
 5951POPC   C4A75138   3.460  16.606   7.235
 5951POPC   C1B75139   3.714  16.999   6.162
 5951POPC   C2B75140   3.678  17.247   6.581
 5951POPC   C3B75141   3.651  16.993   6.944
 5951POPC   C4B75142   3.967  16.795   7.146
 5952POPC   NC375143   7.282  17.172   5.207
 5952POPC   PO475144   7.159  16.462   5.162
 5952POPC   GL175145   7.505  16.470   5.613
 5952POPC   GL275146   7.418  16.748   5.826
 5952POPC   C1A75147   7.460  16.343   6.124
 5952POPC   D2A75148   7.472  16.586   6.527
 5952POPC   C3A75149   7.458  16.434   6.912
 5952POPC   C4A75150   7.303  16.467   7.289
 5952POPC   C1B75151   7.473  16.967   6.215
 5952POPC   C2B75152   7.411  17.134   6.626
 5952POPC   C3B75153   7.392  16.959   7.041
 5952POPC   C4B75154   7.658  16.839   7.335
 5953POPC   NC375155   2.856  15.824   5.484
 5953POPC   PO475156   2.372  16.251   5.457
 5953POPC   GL175157   2.552  16.067   5.839
 5953POPC   GL275158   2.401  15.760   5.861
 5953POPC   C1A75159   2.720  15.940   6.270
 5953POPC   D2A75160   3.020  16.114   6.618
 5953POPC   C3A75161   2.884  16.003   7.020
 5953POPC   C4A75162   2.562  16.200   7.240
 5953POPC   C1B75163   2.205  15.550   6.186
 5953POPC   C2B75164   2.236  15.635   6.599
 5953POPC   C3B75165   2.439  15.738   6.995
 5953POPC   C4B75166   2.567  15.708   7.441
 5954POPC   NC375167   5.764  16.487   5.217
 5954POPC   PO475168   5.245  16.613   5.556
 5954POPC   GL175169   5.011  16.683   5.918
 5954POPC   GL275170   5.275  16.476   6.049
 5954POPC   C1A75171   4.965  16.675   6.394
 5954POPC   D2A75172   5.264  16.484   6.665
 5954POPC   C3A75173   5.194  16.658   7.066
 5954POPC   C4A75174   4.948  17.023   7.105
 5954POPC   C1B75175   5.419  16.869   6.276
 5954POPC   C2B75176   5.573  16.896   6.706
 5954POPC   C3B75177   5.499  17.075   7.136
 5954POPC   C4B75178   5.451  16.958   7.611
 5955POPC   NC375179   9.831   0.927   5.522
 5955POPC   PO475180   9.646   1.533   5.345
 5955POPC   GL175181   9.580   1.296   5.772
 5955POPC   GL275182   9.382   0.950   5.739
 5955POPC   C1A75183   9.787   1.258   6.172
 5955POPC   D2A75184   9.634   1.433   6.564
 5955POPC   C3A75185   9.840   1.266   6.905
 5955POPC   C4A75186   9.825   1.189   7.309
 5955POPC   C1B75187   9.447   0.884   6.170
 5955POPC   C2B75188   9.684   0.912   6.566
 5955POPC   C3B75189   9.562   0.825   7.019
 5955POPC   C4B75190   9.657   0.754   7.499
 5956POPC   NC375191   1.629  17.328   5.002
 5956POPC   PO475192   1.182  17.812   5.313
 5956POPC   GL175193   1.193  17.587   5.871
 5956POPC   GL275194   1.300  17.251   5.941
 5956POPC   C1A75195   1.242  17.749   6.258
 5956POPC   D2A75196   1.435  17.735   6.651
 5956POPC   C3A75197   1.246  17.649   7.009
 5956POPC   C4A75198   1.330  17.717   7.407
 5956POPC   C1B75199   1.098  17.243   6.314
 5956POPC   C2B75200   1.315  17.226   6.693
 5956POPC   C3B75201   1.323  17.160   7.122
 5956POPC   C4B75202   1.424  17.233   7.559
 5957POPC   NC375203  43.187  35.690   5.551
 5957POPC   PO475204  42.684  35.229   5.414
 5957POPC   GL175205  42.935  35.163   5.790
 5957POPC   GL275206  43.298  35.224   5.835
 5957POPC   C1A75207  42.901  35.329   6.180
 5957POPC   D2A75208  43.101  35.278   6.565
 5957POPC   C3A75209  42.862  35.370   6.866
 5957POPC   C4A75210  42.914  35.352   7.281
 5957POPC   C1B75211  43.366  35.532   6.190
 5957POPC   C2B75212  43.348  35.718   6.603
 5957POPC   C3B75213  43.355  35.499   7.022
 5957POPC   C4B75214  43.581  35.655   7.371
 5958POPC   NC375215   5.124   7.822   5.384
 5958POPC   PO475216   5.409   7.248   5.206
 5958POPC   GL175217   5.320   7.387   5.698
 5958POPC   GL275218   4.999   7.580   5.835
 5958POPC   C1A75219   5.215   7.230   6.143
 5958POPC   D2A75220   4.912   7.258   6.502
 5958POPC   C3A75221   5.046   7.300   6.935
 5958POPC   C4A75222   4.900   7.439   7.363
 5958POPC   C1B75223   5.152   7.718   6.256
 5958POPC   C2B75224   5.301   7.658   6.650
 5958POPC   C3B75225   5.282   7.731   7.073
 5958POPC   C4B75226   5.473   7.974   7.342
 5959POPC   NC375227  42.849   8.705   5.659
 5959POPC   PO475228  43.007   9.097   5.215
 5959POPC   GL175229  43.084   9.147   5.719
 5959POPC   GL275230  43.261   8.883   5.899
 5959POPC   C1A75231  42.864   9.087   6.152
 5959POPC   D2A75232  42.917   9.262   6.542
 5959POPC   C3A75233  43.074   9.082   6.902
 5959POPC   C4A75234  42.814   9.116   7.240
 5959POPC   C1B75235  43.124   8.599   6.212
 5959POPC   C2B75236  43.246   8.731   6.571
 5959POPC   C3B75237  43.181   8.496   6.888
 5959POPC   C4B75238  43.175   8.463   7.288
 5960POPC   NC375239  26.607  32.914   5.064
 5960POPC   PO475240  27.174  32.785   5.277
 5960POPC   GL175241  27.067  33.081   5.636
 5960POPC   GL275242  26.754  32.949   5.788
 5960POPC   C1A75243  27.120  33.076   6.117
 5960POPC   D2A75244  27.188  32.961   6.573
 5960POPC   C3A75245  27.011  33.040   6.991
 5960POPC   C4A75246  26.923  32.722   7.336
 5960POPC   C1B75247  26.672  32.840   6.251
 5960POPC   C2B75248  26.614  32.880   6.715
 5960POPC   C3B75249  26.502  33.020   7.147
 5960POPC   C4B75250  26.181  33.164   7.447
 5961POPC   NC375251   2.276   2.986   5.449
 5961POPC   PO475252   1.711   2.579   5.335
 5961POPC   GL175253   1.928   2.713   5.720
 5961POPC   GL275254   1.830   2.517   6.024
 5961POPC   C1A75255   2.035   2.969   6.104
 5961POPC   D2A75256   2.181   2.733   6.445
 5961POPC   C3A75257   2.062   2.869   6.807
 5961POPC   C4A75258   2.219   2.912   7.215
 5961POPC   C1B75259   1.621   2.712   6.356
 5961POPC   C2B75260   1.576   2.699   6.804
 5961POPC   C3B75261   1.724   2.844   7.185
 5961POPC   C4B75262   1.749   2.518   7.414
 5962POPC   NC375263   8.643  11.691   5.404
 5962POPC   PO475264   9.003  11.155   5.266
 5962POPC   GL175265   9.017  11.371   5.677
 5962POPC   GL275266   8.669  11.322   5.769
 5962POPC   C1A75267   9.080  11.377   6.140
 5962POPC   D2A75268   9.028  11.525   6.580
 5962POPC   C3A75269   9.143  11.262   6.921
 5962POPC   C4A75270   9.141  11.417   7.328
 5962POPC   C1B75271   8.525  11.383   6.184
 5962POPC   C2B75272   8.469  11.467   6.607
 5962POPC   C3B75273   8.705  11.555   6.973
 5962POPC   C4B75274   8.623  11.464   7.366
 5963POPC   NC375275  13.333  44.625   5.425
 5963POPC   PO475276  13.477   0.229   5.603
 5963POPC   GL175277  13.841  44.901   5.806
 5963POPC   GL275278  13.882  44.500   5.837
 5963POPC   C1A75279  13.948  44.751   6.255
 5963POPC   D2A75280  13.772  44.592   6.645
 5963POPC   C3A75281  13.837  44.765   7.078
 5963POPC   C4A75282  13.790  44.898   7.534
 5963POPC   C1B75283  13.541  44.375   6.145
 5963POPC   C2B75284  13.307  44.373   6.541
 5963POPC   C3B75285  13.373  44.540   6.969
 5963POPC   C4B75286  13.537  44.455   7.376
 5964POPC   NC375287  36.831   0.170   5.424
 5964POPC   PO475288  37.100   0.809   5.445
 5964POPC   GL175289  36.968   0.482   5.798
 5964POPC   GL275290  37.030   0.116   5.880
 5964POPC   C1A75291  36.785   0.384   6.240
 5964POPC   D2A75292  36.567   0.588   6.591
 5964POPC   C3A75293  36.753   0.514   7.005
 5964POPC   C4A75294  36.579   0.496   7.401
 5964POPC   C1B75295  37.239   0.111   6.249
 5964POPC   C2B75296  37.159   0.260   6.633
 5964POPC   C3B75297  37.194   0.202   7.045
 5964POPC   C4B75298  37.046   0.312   7.432
 5965POPC   NC375299  20.344   8.155   5.418
 5965POPC   PO475300  20.948   8.285   5.566
 5965POPC   GL175301  20.621   8.351   5.814
 5965POPC   GL275302  20.627   7.997   5.866
 5965POPC   C1A75303  20.625   8.335   6.238
 5965POPC   D2A75304  20.453   8.217   6.601
 5965POPC   C3A75305  20.676   8.299   6.945
 5965POPC   C4A75306  20.418   8.478   7.217
 5965POPC   C1B75307  20.528   7.822   6.279
 5965POPC   C2B75308  20.663   7.767   6.717
 5965POPC   C3B75309  20.597   7.838   7.168
 5965POPC   C4B75310  20.796   7.768   7.571
 5966POPC   NC375311  44.696  30.226   5.407
 5966POPC   PO475312  44.797  29.533   5.441
 5966POPC   GL175313  44.822  29.870   5.773
 5966POPC   GL275314  44.515  30.099   5.875
 5966POPC   C1A75315  44.938  29.954   6.196
 5966POPC   D2A75316  44.735  30.011   6.578
 5966POPC   C3A75317  44.948  30.140   6.939
 5966POPC   C4A75318   0.061  29.910   7.276
 5966POPC   C1B75319  44.425  29.791   6.209
 5966POPC   C2B75320  44.290  29.748   6.654
 5966POPC   C3B75321  44.461  29.960   7.031
 5966POPC   C4B75322  44.345  30.076   7.407
 5967POPC   NC375323  24.247  12.362   5.474
 5967POPC   PO475324  24.821  12.391   5.208
 5967POPC   GL175325  24.833  12.417   5.679
 5967POPC   GL275326  24.576  12.203   5.856
 5967POPC   C1A75327  24.887  12.445   6.178
 5967POPC   D2A75328  24.838  12.181   6.610
 5967POPC   C3A75329  24.701  12.160   7.083
 5967POPC   C4A75330  24.424  12.256   7.458
 5967POPC   C1B75331  24.834  11.901   6.169
 5967POPC   C2B75332  24.805  11.579   6.549
 5967POPC   C3B75333  24.695  11.486   7.004
 5967POPC   C4B75334  24.594  11.233   7.398
 5968POPC   NC375335  19.734  28.716   5.288
 5968POPC   PO475336  20.069  28.175   5.331
 5968POPC   GL175337  19.816  28.202   5.672
 5968POPC   GL275338  19.849  28.546   5.767
 5968POPC   C1A75339  19.840  28.107   6.108
 5968POPC   D2A75340  19.806  28.338   6.491
 5968POPC   C3A75341  19.942  28.124   6.853
 5968POPC   C4A75342  19.767  28.303   7.204
 5968POPC   C1B75343  20.107  28.545   6.124
 5968POPC   C2B75344  20.294  28.485   6.530
 5968POPC   C3B75345  20.183  28.577   6.960
 5968POPC   C4B75346  20.312  28.582   7.371
 5969POPC   NC375347  42.022  25.570   5.424
 5969POPC   PO475348  42.732  25.716   5.486
 5969POPC   GL175349  42.547  25.416   5.788
 5969POPC   GL275350  42.261  25.179   5.705
 5969POPC   C1A75351  42.502  25.178   6.197
 5969POPC   D2A75352  42.296  24.969   6.568
 5969POPC   C3A75353  42.479  25.144   6.938
 5969POPC   C4A75354  42.638  25.163   7.360
 5969POPC   C1B75355  42.087  25.440   6.055
 5969POPC   C2B75356  42.021  25.406   6.503
 5969POPC   C3B75357  42.186  25.587   6.839
 5969POPC   C4B75358  42.326  25.524   7.241
 5970POPC   NC375359  33.335  17.398   5.391
 5970POPC   PO475360  32.888  17.912   5.306
 5970POPC   GL175361  33.062  17.729   5.724
 5970POPC   GL275362  33.091  17.370   5.819
 5970POPC   C1A75363  33.170  17.685   6.195
 5970POPC   D2A75364  33.252  17.392   6.542
 5970POPC   C3A75365  33.174  17.590   6.867
 5970POPC   C4A75366  33.091  17.558   7.243
 5970POPC   C1B75367  33.041  17.109   6.162
 5970POPC   C2B75368  32.862  17.071   6.560
 5970POPC   C3B75369  33.037  17.089   6.973
 5970POPC   C4B75370  32.793  17.055   7.325
 5971POPC   NC375371  13.747  30.615   5.388
 5971POPC   PO475372  13.101  30.465   5.402
 5971POPC   GL175373  13.448  30.528   5.779
 5971POPC   GL275374  13.792  30.775   5.853
 5971POPC   C1A75375  13.437  30.723   6.194
 5971POPC   D2A75376  13.704  30.807   6.549
 5971POPC   C3A75377  13.532  30.656   6.914
 5971POPC   C4A75378  13.447  30.667   7.339
 5971POPC   C1B75379  13.865  30.401   6.136
 5971POPC   C2B75380  13.796  30.289   6.582
 5971POPC   C3B75381  13.955  30.411   6.985
 5971POPC   C4B75382  13.914  30.827   7.230
 5972POPC   NC375383  13.496  33.009   5.325
 5972POPC   PO475384  14.079  32.705   5.493
 5972POPC   GL175385  13.837  32.831   5.837
 5972POPC   GL275386  13.723  33.168   5.779
 5972POPC   C1A75387  13.827  32.758   6.291
 5972POPC   D2A75388  13.847  32.873   6.732
 5972POPC   C3A75389  13.433  32.909   6.884
 5972POPC   C4A75390  13.231  32.866   7.258
 5972POPC   C1B75391  13.603  33.311   6.227
 5972POPC   C2B75392  13.663  33.376   6.702
 5972POPC   C3B75393  13.409  33.400   7.081
 5972POPC   C4B75394  13.414  33.323   7.537
 5973POPC   NC375395  27.756  29.471   5.597
 5973POPC   PO475396  27.180  29.217   5.346
 5973POPC   GL175397  27.460  29.055   5.725
 5973POPC   GL275398  27.779  28.876   5.696
 5973POPC   C1A75399  27.516  29.109   6.190
 5973POPC   D2A75400  27.445  29.036   6.660
 5973POPC   C3A75401  27.419  29.278   7.091
 5973POPC   C4A75402  27.319  29.530   7.469
 5973POPC   C1B75403  27.864  28.754   6.154
 5973POPC   C2B75404  27.888  28.717   6.626
 5973POPC   C3B75405  27.825  28.974   7.013
 5973POPC   C4B75406  27.640  28.920   7.442
 5974POPC   NC375407  27.165  43.354   5.370
 5974POPC   PO475408  26.656  42.945   5.390
 5974POPC   GL175409  26.754  43.175   5.764
 5974POPC   GL275410  27.098  43.216   5.857
 5974POPC   C1A75411  26.630  42.999   6.166
 5974POPC   D2A75412  26.517  42.820   6.538
 5974POPC   C3A75413  26.509  43.112   6.800
 5974POPC   C4A75414  26.548  43.038   7.197
 5974POPC   C1B75415  27.034  43.309   6.238
 5974POPC   C2B75416  26.976  43.097   6.578
 5974POPC   C3B75417  26.975  43.196   6.975
 5974POPC   C4B75418  27.102  42.985   7.299
 5975POPC   NC375419  41.964  23.977   5.766
 5975POPC   PO475420  42.377  23.644   5.385
 5975POPC   GL175421  42.427  23.787   5.791
 5975POPC   GL275422  42.445  24.160   5.737
 5975POPC   C1A75423  42.361  23.680   6.242
 5975POPC   D2A75424  42.482  23.535   6.651
 5975POPC   C3A75425  42.270  23.663   7.007
 5975POPC   C4A75426  42.059  23.593   7.414
 5975POPC   C1B75427  42.575  24.151   6.166
 5975POPC   C2B75428  42.683  24.007   6.582
 5975POPC   C3B75429  42.551  24.111   7.009
 5975POPC   C4B75430  42.188  24.074   7.294
 5976POPC   NC375431  32.837  14.417   5.371
 5976POPC   PO475432  33.357  13.984   5.387
 5976POPC   GL175433  33.208  14.201   5.801
 5976POPC   GL275434  32.983  14.502   5.851
 5976POPC   C1A75435  33.096  14.295   6.286
 5976POPC   D2A75436  33.033  14.525   6.686
 5976POPC   C3A75437  32.972  14.247   7.028
 5976POPC   C4A75438  33.191  14.214   7.432
 5976POPC   C1B75439  32.774  14.700   6.223
 5976POPC   C2B75440  32.587  14.769   6.635
 5976POPC   C3B75441  32.711  14.722   7.072
 5976POPC   C4B75442  32.834  14.581   7.492
 5977POPC   NC375443   1.781  22.466   5.320
 5977POPC   PO475444   1.500  21.916   5.395
 5977POPC   GL175445   1.919  21.967   5.669
 5977POPC   GL275446   1.814  22.141   5.943
 5977POPC   C1A75447   2.273  21.985   6.057
 5977POPC   D2A75448   2.070  22.064   6.489
 5977POPC   C3A75449   2.130  22.103   6.955
 5977POPC   C4A75450   1.996  22.275   7.375
 5977POPC   C1B75451   1.748  22.406   6.285
 5977POPC   C2B75452   1.648  22.472   6.714
 5977POPC   C3B75453   1.631  22.182   7.043
 5977POPC   C4B75454   1.452  22.178   7.420
 5978POPC   NC375455  42.394  24.721   5.252
 5978POPC   PO475456  41.978  24.313   5.452
 5978POPC   GL175457  42.171  24.601   5.769
 5978POPC   GL275458  42.084  24.385   6.046
 5978POPC   C1A75459  42.474  24.656   6.176
 5978POPC   D2A75460  42.393  24.450   6.610
 5978POPC   C3A75461  42.474  24.636   7.030
 5978POPC   C4A75462  42.238  24.846   7.366
 5978POPC   C1B75463  42.104  24.090   6.394
 5978POPC   C2B75464  42.024  24.116   6.821
 5978POPC   C3B75465  41.991  24.497   7.083
 5978POPC   C4B75466  41.939  24.466   7.549
 5979POPC   NC375467  19.245   4.403   5.169
 5979POPC   PO475468  19.707   4.432   5.721
 5979POPC   GL175469  19.410   4.240   5.914
 5979POPC   GL275470  19.127   4.274   5.690
 5979POPC   C1A75471  19.252   4.376   6.309
 5979POPC   D2A75472  18.964   4.264   6.607
 5979POPC   C3A75473  19.132   4.368   6.997
 5979POPC   C4A75474  19.025   4.254   7.466
 5979POPC   C1B75475  18.963   4.634   5.958
 5979POPC   C2B75476  18.899   4.781   6.400
 5979POPC   C3B75477  18.741   4.691   6.797
 5979POPC   C4B75478  18.739   4.590   7.223
 5980POPC   NC375479  17.000  38.142   5.409
 5980POPC   PO475480  16.603  37.648   5.205
 5980POPC   GL175481  16.649  37.563   5.661
 5980POPC   GL275482  16.769  37.868   5.761
 5980POPC   C1A75483  16.382  37.540   6.052
 5980POPC   D2A75484  16.495  37.614   6.461
 5980POPC   C3A75485  16.437  37.443   6.861
 5980POPC   C4A75486  16.769  37.604   7.114
 5980POPC   C1B75487  16.752  37.953   6.162
 5980POPC   C2B75488  16.988  37.807   6.494
 5980POPC   C3B75489  17.040  37.970   6.894
 5980POPC   C4B75490  16.755  38.124   7.204
 5981POPC   NC375491  15.546  17.333   5.426
 5981POPC   PO475492  14.869  17.222   5.481
 5981POPC   GL175493  15.170  17.486   5.757
 5981POPC   GL275494  15.419  17.788   5.781
 5981POPC   C1A75495  15.204  17.480   6.199
 5981POPC   D2A75496  14.848  17.666   6.420
 5981POPC   C3A75497  14.825  17.618   6.883
 5981POPC   C4A75498  14.893  17.374   7.264
 5981POPC   C1B75499  15.402  17.938   6.249
 5981POPC   C2B75500  15.268  17.819   6.657
 5981POPC   C3B75501  15.328  17.621   7.051
 5981POPC   C4B75502  15.456  17.783   7.436
 5982POPC   NC375503  31.002  13.453   5.402
 5982POPC   PO475504  30.388  13.503   5.115
 5982POPC   GL175505  30.562  13.701   5.599
 5982POPC   GL275506  30.802  13.517   5.847
 5982POPC   C1A75507  30.555  13.864   6.074
 5982POPC   D2A75508  30.837  13.759   6.471
 5982POPC   C3A75509  30.591  13.725   6.861
 5982POPC   C4A75510  30.353  13.996   7.226
 5982POPC   C1B75511  30.620  13.363   6.246
 5982POPC   C2B75512  30.739  13.213   6.659
 5982POPC   C3B75513  30.757  13.313   7.098
 5982POPC   C4B75514  30.809  13.755   7.306
 5983POPC   NC375515  23.918  37.025   5.190
 5983POPC   PO475516  23.865  36.412   5.449
 5983POPC   GL175517  23.708  36.819   5.674
 5983POPC   GL275518  23.910  37.148   5.707
 5983POPC   C1A75519  23.609  36.987   6.107
 5983POPC   D2A75520  23.534  36.902   6.557
 5983POPC   C3A75521  23.841  36.981   6.882
 5983POPC   C4A75522  23.706  37.117   7.284
 5983POPC   C1B75523  24.056  37.287   6.131
 5983POPC   C2B75524  23.926  37.372   6.553
 5983POPC   C3B75525  23.984  37.532   6.981
 5983POPC   C4B75526  24.013  37.472   7.443
 5984POPC   NC375527  15.208   6.305   5.109
 5984POPC   PO475528  15.258   6.988   5.235
 5984POPC   GL175529  15.218   6.749   5.634
 5984POPC   GL275530  15.001   6.926   5.852
 5984POPC   C1A75531  15.172   6.476   6.054
 5984POPC   D2A75532  15.216   6.468   6.535
 5984POPC   C3A75533  14.913   6.427   6.874
 5984POPC   C4A75534  15.034   6.495   7.278
 5984POPC   C1B75535  15.146   6.929   6.317
 5984POPC   C2B75536  15.134   6.924   6.797
 5984POPC   C3B75537  15.025   7.007   7.256
 5984POPC   C4B75538  14.832   7.103   7.680
 5985POPC   NC375539  18.579   2.269   5.338
 5985POPC   PO475540  18.060   1.841   5.336
 5985POPC   GL175541  18.299   1.926   5.751
 5985POPC   GL275542  18.543   2.171   5.827
 5985POPC   C1A75543  18.420   1.825   6.192
 5985POPC   D2A75544  18.256   2.002   6.590
 5985POPC   C3A75545  18.449   1.844   6.979
 5985POPC   C4A75546  18.383   1.817   7.434
 5985POPC   C1B75547  18.494   2.349   6.190
 5985POPC   C2B75548  18.678   2.432   6.561
 5985POPC   C3B75549  18.452   2.355   6.929
 5985POPC   C4B75550  18.579   2.254   7.301
 5986POPC   NC375551  39.668  39.118   5.385
 5986POPC   PO475552  40.235  39.396   5.185
 5986POPC   GL175553  40.086  39.331   5.616
 5986POPC   GL275554  40.278  39.065   5.736
 5986POPC   C1A75555  39.935  39.268   6.061
 5986POPC   D2A75556  40.167  39.288   6.464
 5986POPC   C3A75557  39.962  39.336   6.861
 5986POPC   C4A75558  39.677  39.154   7.136
 5986POPC   C1B75559  40.335  38.893   6.125
 5986POPC   C2B75560  40.554  38.910   6.483
 5986POPC   C3B75561  40.342  38.959   6.872
 5986POPC   C4B75562  40.482  39.027   7.276
 5987POPC   NC375563  35.730  26.042   5.620
 5987POPC   PO475564  36.313  25.691   5.384
 5987POPC   GL175565  36.177  25.863   5.754
 5987POPC   GL275566  36.218  26.193   5.796
 5987POPC   C1A75567  36.025  25.891   6.175
 5987POPC   D2A75568  36.211  25.845   6.552
 5987POPC   C3A75569  36.087  26.148   6.831
 5987POPC   C4A75570  36.031  25.989   7.219
 5987POPC   C1B75571  36.334  26.306   6.246
 5987POPC   C2B75572  36.579  26.242   6.663
 5987POPC   C3B75573  36.485  26.313   7.131
 5987POPC   C4B75574  36.623  26.560   7.491
 5988POPC   NC375575  27.944  17.398   5.458
 5988POPC   PO475576  27.342  17.629   5.403
 5988POPC   GL175577  27.595  17.651   5.805
 5988POPC   GL275578  27.656  17.327   5.874
 5988POPC   C1A75579  27.753  17.662   6.259
 5988POPC   D2A75580  27.504  17.594   6.669
 5988POPC   C3A75581  27.733  17.548   7.084
 5988POPC   C4A75582  27.725  17.697   7.540
 5988POPC   C1B75583  27.464  17.230   6.253
 5988POPC   C2B75584  27.641  17.085   6.642
 5988POPC   C3B75585  27.827  17.038   7.065
 5988POPC   C4B75586  27.610  17.179   7.443
 5989POPC   NC375587  34.983  32.427   5.105
 5989POPC   PO475588  34.660  31.920   5.373
 5989POPC   GL175589  34.663  32.165   5.738
 5989POPC   GL275590  34.959  32.223   5.933
 5989POPC   C1A75591  34.492  32.065   6.137
 5989POPC   D2A75592  34.431  32.198   6.556
 5989POPC   C3A75593  34.513  31.869   6.811
 5989POPC   C4A75594  34.636  32.015   7.184
 5989POPC   C1B75595  34.909  32.278   6.374
 5989POPC   C2B75596  34.895  32.269   6.816
 5989POPC   C3B75597  35.103  32.204   7.208
 5989POPC   C4B75598  35.141  32.231   7.667
 5990POPC   NC375599  11.386  33.629   5.519
 5990POPC   PO475600  11.073  34.146   5.317
 5990POPC   GL175601  11.216  34.065   5.769
 5990POPC   GL275602  11.592  34.002   5.831
 5990POPC   C1A75603  11.271  33.771   6.147
 5990POPC   D2A75604  11.338  33.777   6.578
 5990POPC   C3A75605  11.024  33.588   6.855
 5990POPC   C4A75606  10.941  33.618   7.296
 5990POPC   C1B75607  11.612  34.164   6.272
 5990POPC   C2B75608  11.776  34.073   6.699
 5990POPC   C3B75609  11.867  34.001   7.141
 5990POPC   C4B75610  11.647  34.000   7.556
 5991POPC   NC375611   0.230  29.691   5.495
 5991POPC   PO475612   0.213  30.353   5.480
 5991POPC   GL175613   0.324  30.073   5.860
 5991POPC   GL275614   0.584  29.814   5.843
 5991POPC   C1A75615   0.541  30.049   6.302
 5991POPC   D2A75616   0.778  30.134   6.695
 5991POPC   C3A75617   0.478  30.101   7.044
 5991POPC   C4A75618   0.302  30.355   7.378
 5991POPC   C1B75619   0.326  29.614   6.169
 5991POPC   C2B75620   0.210  29.728   6.600
 5991POPC   C3B75621   0.348  29.585   7.018
 5991POPC   C4B75622   0.508  29.736   7.416
 5992POPC   NC375623  35.122  13.121   5.501
 5992POPC   PO475624  35.424  13.794   5.434
 5992POPC   GL175625  35.394  13.533   5.801
 5992POPC   GL275626  35.075  13.707   5.889
 5992POPC   C1A75627  35.603  13.367   6.207
 5992POPC   D2A75628  35.669  13.465   6.672
 5992POPC   C3A75629  35.288  13.647   6.885
 5992POPC   C4A75630  35.089  13.508   7.260
 5992POPC   C1B75631  35.412  13.920   6.165
 5992POPC   C2B75632  35.619  13.972   6.593
 5992POPC   C3B75633  35.650  13.968   7.042
 5992POPC   C4B75634  35.251  14.014   7.284
 5993POPC   NC375635   3.955  21.721   5.110
 5993POPC   PO475636   4.347  22.119   5.522
 5993POPC   GL175637   4.083  22.245   5.874
 5993POPC   GL275638   4.005  22.606   5.876
 5993POPC   C1A75639   4.077  22.020   6.263
 5993POPC   D2A75640   4.420  21.901   6.523
 5993POPC   C3A75641   4.387  22.016   6.932
 5993POPC   C4A75642   4.657  22.032   7.267
 5993POPC   C1B75643   4.243  22.547   6.255
 5993POPC   C2B75644   4.114  22.362   6.644
 5993POPC   C3B75645   4.096  22.500   7.047
 5993POPC   C4B75646   4.481  22.521   7.321
 5994POPC   NC375647  14.784  27.260   5.337
 5994POPC   PO475648  14.277  27.670   5.422
 5994POPC   GL175649  14.484  27.663   5.820
 5994POPC   GL275650  14.604  27.306   5.841
 5994POPC   C1A75651  14.410  27.573   6.266
 5994POPC   D2A75652  14.293  27.698   6.657
 5994POPC   C3A75653  14.385  27.468   7.030
 5994POPC   C4A75654  14.472  27.598   7.444
 5994POPC   C1B75655  14.793  27.239   6.243
 5994POPC   C2B75656  14.795  27.391   6.675
 5994POPC   C3B75657  14.859  27.228   7.091
 5994POPC   C4B75658  14.686  27.143   7.509
 5995POPC   NC375659  36.366  11.018   5.596
 5995POPC   PO475660  35.922  10.424   5.515
 5995POPC   GL175661  36.157  10.621   5.828
 5995POPC   GL275662  35.922  10.883   5.889
 5995POPC   C1A75663  36.367  10.614   6.253
 5995POPC   D2A75664  36.485  10.399   6.641
 5995POPC   C3A75665  36.349  10.478   7.026
 5995POPC   C4A75666  36.325  10.773   7.317
 5995POPC   C1B75667  35.856  10.494   6.208
 5995POPC   C2B75668  35.988  10.545   6.641
 5995POPC   C3B75669  35.846  10.597   7.072
 5995POPC   C4B75670  36.024  10.379   7.430
 5996POPC   NC375671  17.312   6.561   5.428
 5996POPC   PO475672  17.866   6.453   5.675
 5996POPC   GL175673  17.576   6.757   5.874
 5996POPC   GL275674  17.228   6.856   5.869
 5996POPC   C1A75675  17.558   6.931   6.295
 5996POPC   D2A75676  17.348   7.008   6.703
 5996POPC   C3A75677  17.453   6.742   7.026
 5996POPC   C4A75678  17.614   6.757   7.395
 5996POPC   C1B75679  17.109   6.638   6.240
 5996POPC   C2B75680  17.304   6.492   6.615
 5996POPC   C3B75681  17.186   6.260   6.981
 5996POPC   C4B75682  17.214   6.420   7.396
 5997POPC   NC375683   4.282   7.465   5.262
 5997POPC   PO475684   4.889   7.279   5.437
 5997POPC   GL175685   4.504   7.271   5.707
 5997POPC   GL275686   4.231   7.546   5.774
 5997POPC   C1A75687   4.408   7.262   6.168
 5997POPC   D2A75688   4.380   7.550   6.540
 5997POPC   C3A75689   4.296   7.321   6.897
 5997POPC   C4A75690   4.592   7.144   7.093
 5997POPC   C1B75691   3.944   7.497   6.181
 5997POPC   C2B75692   3.879   7.536   6.666
 5997POPC   C3B75693   4.108   7.746   7.053
 5997POPC   C4B75694   4.338   7.495   7.395
 5998POPC   NC375695   1.045   8.808   5.264
 5998POPC   PO475696   0.804   9.436   5.487
 5998POPC   GL175697   1.211   9.233   5.770
 5998POPC   GL275698   1.148   8.897   5.746
 5998POPC   C1A75699   1.410   9.153   6.218
 5998POPC   D2A75700   1.289   9.187   6.698
 5998POPC   C3A75701   1.398   8.945   7.074
 5998POPC   C4A75702   1.331   8.988   7.544
 5998POPC   C1B75703   1.066   8.772   6.125
 5998POPC   C2B75704   1.115   8.721   6.558
 5998POPC   C3B75705   0.920   8.831   6.951
 5998POPC   C4B75706   0.959   8.687   7.356
 5999POPC   NC375707  44.102  35.795   5.689
 5999POPC   PO475708  43.797  36.159   5.169
 5999POPC   GL175709  43.852  36.264   5.619
 5999POPC   GL275710  44.178  36.462   5.659
 5999POPC   C1A75711  43.675  36.265   6.056
 5999POPC   D2A75712  43.699  36.457   6.465
 5999POPC   C3A75713  43.527  36.205   6.808
 5999POPC   C4A75714  43.701  36.110   7.196
 5999POPC   C1B75715  44.173  36.356   6.095
 5999POPC   C2B75716  44.239  36.473   6.534
 5999POPC   C3B75717  44.057  36.404   6.938
 5999POPC   C4B75718  44.214  36.177   7.265
 6000POPC   NC375719  11.806  11.454   5.481
 6000POPC   PO475720  12.444  11.197   5.571
 6000POPC   GL175721  12.263  11.474   5.877
 6000POPC   GL275722  11.924  11.422   5.962
 6000POPC   C1A75723  12.288  11.462   6.312
 6000POPC   D2A75724  12.353  11.140   6.593
 6000POPC   C3A75725  12.175  11.142   6.999
 6000POPC   C4A75726  12.335  11.137   7.413
 6000POPC   C1B75727  11.694  11.427   6.331
 6000POPC   C2B75728  11.930  11.525   6.696
 6000POPC   C3B75729  12.123  11.654   7.065
 6000POPC   C4B75730  11.922  11.444   7.327
 6001POPC   NC375731   4.434   3.119   5.558
 6001POPC   PO475732   4.131   2.569   5.335
 6001POPC   GL175733   4.250   2.653   5.781
 6001POPC   GL275734   4.075   2.945   5.850
 6001POPC   C1A75735   4.462   2.823   6.165
 6001POPC   D2A75736   4.300   2.737   6.575
 6001POPC   C3A75737   4.480   2.837   6.962
 6001POPC   C4A75738   4.208   2.527   7.124
 6001POPC   C1B75739   4.037   3.083   6.264
 6001POPC   C2B75740   3.926   3.239   6.649
 6001POPC   C3B75741   3.988   2.997   6.985
 6001POPC   C4B75742   3.946   2.976   7.408
 6002POPC   NC375743  32.433  40.817   5.399
 6002POPC   PO475744  31.846  41.174   5.487
 6002POPC   GL175745  32.059  40.929   5.822
 6002POPC   GL275746  32.289  40.617   5.841
 6002POPC   C1A75747  32.251  40.947   6.247
 6002POPC   D2A75748  32.227  41.161   6.652
 6002POPC   C3A75749  32.341  40.925   7.028
 6002POPC   C4A75750  32.546  41.158   7.381
 6002POPC   C1B75751  32.385  40.402   6.225
 6002POPC   C2B75752  32.374  40.541   6.643
 6002POPC   C3B75753  32.525  40.428   7.039
 6002POPC   C4B75754  32.396  40.491   7.447
 6003POPC   NC375755  39.508  24.297   5.550
 6003POPC   PO475756  40.131  24.356   5.310
 6003POPC   GL175757  40.187  24.555   5.701
 6003POPC   GL275758  40.393  24.301   5.800
 6003POPC   C1A75759  39.995  24.499   6.115
 6003POPC   D2A75760  39.718  24.434   6.464
 6003POPC   C3A75761  39.887  24.536   6.845
 6003POPC   C4A75762  39.776  24.530   7.236
 6003POPC   C1B75763  40.365  24.149   6.188
 6003POPC   C2B75764  40.218  24.258   6.571
 6003POPC   C3B75765  40.408  24.392   6.952
 6003POPC   C4B75766  40.348  24.281   7.375
 6004POPC   NC375767  21.787  27.312   5.491
 6004POPC   PO475768  21.279  27.713   5.353
 6004POPC   GL175769  21.314  27.417   5.709
 6004POPC   GL275770  20.954  27.350   5.819
 6004POPC   C1A75771  21.548  27.315   6.099
 6004POPC   D2A75772  21.813  27.371   6.451
 6004POPC   C3A75773  21.642  27.311   6.885
 6004POPC   C4A75774  21.595  27.558   7.276
 6004POPC   C1B75775  21.119  27.601   6.143
 6004POPC   C2B75776  21.315  27.544   6.533
 6004POPC   C3B75777  21.178  27.602   6.933
 6004POPC   C4B75778  21.082  27.460   7.330
 6005POPC   NC375779  29.527  10.739   5.436
 6005POPC   PO475780  30.148  10.513   5.479
 6005POPC   GL175781  29.901  10.618   5.840
 6005POPC   GL275782  29.761  10.923   5.867
 6005POPC   C1A75783  30.015  10.681   6.278
 6005POPC   D2A75784  30.178  10.471   6.645
 6005POPC   C3A75785  29.934  10.492   6.996
 6005POPC   C4A75786  29.761  10.143   7.171
 6005POPC   C1B75787  29.556  10.951   6.260
 6005POPC   C2B75788  29.551  10.846   6.719
 6005POPC   C3B75789  29.737  10.973   7.103
 6005POPC   C4B75790  29.815  10.701   7.454
 6006POPC   NC375791  25.531  20.005   5.385
 6006POPC   PO475792  24.889  19.739   5.532
 6006POPC   GL175793  25.234  19.832   5.779
 6006POPC   GL275794  25.219  19.583   6.064
 6006POPC   C1A75795  25.499  20.019   6.090
 6006POPC   D2A75796  25.372  20.045   6.528
 6006POPC   C3A75797  25.483  19.787   6.877
 6006POPC   C4A75798  25.393  19.988   7.271
 6006POPC   C1B75799  24.975  19.953   6.210
 6006POPC   C2B75800  24.868  20.217   6.552
 6006POPC   C3B75801  25.002  20.028   6.904
 6006POPC   C4B75802  24.881  19.929   7.272
 6007POPC   NC375803  10.286   3.157   5.376
 6007POPC   PO475804  10.210   3.858   5.345
 6007POPC   GL175805  10.507   3.540   5.610
 6007POPC   GL275806  10.505   3.660   5.908
 6007POPC   C1A75807  10.424   3.207   6.029
 6007POPC   D2A75808  10.493   3.455   6.407
 6007POPC   C3A75809  10.556   3.394   6.888
 6007POPC   C4A75810  10.412   3.098   7.239
 6007POPC   C1B75811  10.796   3.859   6.185
 6007POPC   C2B75812  10.709   3.893   6.599
 6007POPC   C3B75813  10.857   3.804   6.987
 6007POPC   C4B75814  10.761   3.817   7.423
 6008POPC   NC375815  16.593   6.390   5.347
 6008POPC   PO475816  17.070   6.919   5.288
 6008POPC   GL175817  16.796   6.791   5.614
 6008POPC   GL275818  16.888   6.477   5.770
 6008POPC   C1A75819  16.669   6.892   6.047
 6008POPC   D2A75820  16.534   6.889   6.478
 6008POPC   C3A75821  16.878   6.795   6.721
 6008POPC   C4A75822  16.960   6.802   7.149
 6008POPC   C1B75823  16.683   6.347   6.137
 6008POPC   C2B75824  16.819   6.283   6.565
 6008POPC   C3B75825  16.700   6.397   6.979
 6008POPC   C4B75826  16.415   6.325   7.275
 6009POPC   NC375827  10.211  35.058   5.468
 6009POPC   PO475828  10.566  35.597   5.282
 6009POPC   GL175829  10.707  35.299   5.640
 6009POPC   GL275830  10.397  35.289   5.882
 6009POPC   C1A75831  10.851  35.222   6.082
 6009POPC   D2A75832  10.514  35.299   6.429
 6009POPC   C3A75833  10.669  35.211   6.839
 6009POPC   C4A75834  10.793  35.049   7.233
 6009POPC   C1B75835  10.179  35.590   6.139
 6009POPC   C2B75836  10.100  35.713   6.571
 6009POPC   C3B75837  10.287  35.523   6.916
 6009POPC   C4B75838  10.442  35.434   7.312
 6010POPC   NC375839   5.492  36.071   5.508
 6010POPC   PO475840   4.866  36.390   5.500
 6010POPC   GL175841   4.863  36.080   5.851
 6010POPC   GL275842   5.206  35.967   5.900
 6010POPC   C1A75843   4.907  36.120   6.293
 6010POPC   D2A75844   5.085  36.414   6.566
 6010POPC   C3A75845   4.968  36.241   6.924
 6010POPC   C4A75846   5.043  35.941   7.216
 6010POPC   C1B75847   5.405  35.934   6.277
 6010POPC   C2B75848   5.316  35.946   6.691
 6010POPC   C3B75849   5.509  35.746   7.020
 6010POPC   C4B75850   5.474  35.778   7.412
 6011POPC   NC375851   5.014   2.304   5.558
 6011POPC   PO475852   4.695   1.797   5.370
 6011POPC   GL175853   4.915   1.782   5.737
 6011POPC   GL275854   5.273   1.911   5.764
 6011POPC   C1A75855   4.925   1.930   6.148
 6011POPC   D2A75856   5.103   2.124   6.500
 6011POPC   C3A75857   4.959   1.944   6.882
 6011POPC   C4A75858   5.080   2.061   7.278
 6011POPC   C1B75859   5.379   1.717   6.195
 6011POPC   C2B75860   5.253   1.595   6.642
 6011POPC   C3B75861   5.452   1.810   7.025
 6011POPC   C4B75862   5.563   2.091   7.377
 6012POPC   NC375863   4.762  12.189   5.293
 6012POPC   PO475864   5.189  11.840   5.638
 6012POPC   GL175865   5.129  12.211   5.856
 6012POPC   GL275866   4.830  12.390   5.793
 6012POPC   C1A75867   5.039  12.180   6.290
 6012POPC   D2A75868   5.272  12.141   6.653
 6012POPC   C3A75869   5.060  12.326   6.986
 6012POPC   C4A75870   4.798  12.001   7.154
 6012POPC   C1B75871   4.769  12.603   6.201
 6012POPC   C2B75872   4.636  12.460   6.621
 6012POPC   C3B75873   4.588  12.492   7.081
 6012POPC   C4B75874   4.799  12.393   7.476
 6013POPC   NC375875  28.102  44.141   5.339
 6013POPC   PO475876  28.813  44.233   5.338
 6013POPC   GL175877  28.470  44.221   5.673
 6013POPC   GL275878  28.351  43.860   5.715
 6013POPC   C1A75879  28.271  44.202   6.087
 6013POPC   D2A75880  28.529  44.125   6.436
 6013POPC   C3A75881  28.429  44.173   6.860
 6013POPC   C4A75882  28.614  44.056   7.250
 6013POPC   C1B75883  28.324  43.688   6.159
 6013POPC   C2B75884  28.211  43.753   6.612
 6013POPC   C3B75885  28.404  43.639   6.996
 6013POPC   C4B75886  28.452  43.583   7.412
 6014POPC   NC375887  24.613   7.794   4.990
 6014POPC   PO475888  24.753   8.476   5.301
 6014POPC   GL175889  24.527   8.237   5.699
 6014POPC   GL275890  24.262   8.389   5.872
 6014POPC   C1A75891  24.426   7.951   6.111
 6014POPC   D2A75892  24.721   7.858   6.465
 6014POPC   C3A75893  24.741   8.089   6.845
 6014POPC   C4A75894  24.764   8.115   7.249
 6014POPC   C1B75895  24.501   8.403   6.288
 6014POPC   C2B75896  24.308   8.128   6.593
 6014POPC   C3B75897  24.218   8.132   7.013
 6014POPC   C4B75898  24.329   8.401   7.341
 6015POPC   NC375899  10.417  13.348   5.137
 6015POPC   PO475900  10.801  13.811   5.429
 6015POPC   GL175901  10.574  13.722   5.820
 6015POPC   GL275902  10.429  13.415   5.855
 6015POPC   C1A75903  10.337  13.769   6.218
 6015POPC   D2A75904  10.261  13.972   6.631
 6015POPC   C3A75905  10.199  13.717   7.002
 6015POPC   C4A75906  10.539  13.524   7.230
 6015POPC   C1B75907  10.331  13.255   6.288
 6015POPC   C2B75908  10.460  13.340   6.731
 6015POPC   C3B75909  10.881  13.351   6.903
 6015POPC   C4B75910  11.066  13.136   7.222
 6016POPC   NC375911  11.043  31.134   5.532
 6016POPC   PO475912  11.479  31.581   5.269
 6016POPC   GL175913  11.453  31.460   5.744
 6016POPC   GL275914  11.134  31.514   5.868
 6016POPC   C1A75915  11.668  31.494   6.179
 6016POPC   D2A75916  11.704  31.806   6.562
 6016POPC   C3A75917  11.543  31.717   6.983
 6016POPC   C4A75918  11.347  31.403   7.238
 6016POPC   C1B75919  11.224  31.226   6.239
 6016POPC   C2B75920  11.186  31.312   6.696
 6016POPC   C3B75921  10.885  31.294   7.037
 6016POPC   C4B75922  10.906  31.371   7.529
 6017POPC   NC375923  37.473   2.848   5.317
 6017POPC   PO475924  36.957   2.993   5.691
 6017POPC   GL175925  36.851   2.738   5.987
 6017POPC   GL275926  36.823   2.434   5.794
 6017POPC   C1A75927  37.087   2.876   6.329
 6017POPC   D2A75928  36.879   2.999   6.654
 6017POPC   C3A75929  37.059   2.927   6.984
 6017POPC   C4A75930  36.937   2.809   7.338
 6017POPC   C1B75931  36.689   2.274   6.197
 6017POPC   C2B75932  36.526   2.409   6.614
 6017POPC   C3B75933  36.669   2.543   6.991
 6017POPC   C4B75934  36.732   2.348   7.375
 6018POPC   NC375935   3.926  23.665   5.293
 6018POPC   PO475936   3.264  23.507   5.272
 6018POPC   GL175937   3.470  23.691   5.658
 6018POPC   GL275938   3.171  23.724   5.822
 6018POPC   C1A75939   3.548  23.814   6.153
 6018POPC   D2A75940   3.576  23.622   6.594
 6018POPC   C3A75941   3.640  23.817   7.017
 6018POPC   C4A75942   3.291  23.941   7.270
 6018POPC   C1B75943   3.151  23.483   6.225
 6018POPC   C2B75944   3.126  23.353   6.641
 6018POPC   C3B75945   3.231  23.486   7.026
 6018POPC   C4B75946   3.078  23.334   7.393
 6019POPC   NC375947  32.451  42.533   5.371
 6019POPC   PO475948  32.061  42.060   5.588
 6019POPC   GL175949  32.256  42.436   5.878
 6019POPC   GL275950  32.622  42.616   5.846
 6019POPC   C1A75951  32.128  42.461   6.343
 6019POPC   D2A75952  32.153  42.256   6.768
 6019POPC   C3A75953  32.023  42.456   7.161
 6019POPC   C4A75954  31.934  42.140   7.443
 6019POPC   C1B75955  32.657  42.411   6.228
 6019POPC   C2B75956  32.566  42.526   6.621
 6019POPC   C3B75957  32.604  42.332   7.022
 6019POPC   C4B75958  32.482  42.437   7.412
 6020POPC   NC375959  27.552  14.326   5.290
 6020POPC   PO475960  28.078  14.709   5.271
 6020POPC   GL175961  27.739  14.629   5.666
 6020POPC   GL275962  27.672  14.254   5.778
 6020POPC   C1A75963  27.455  14.617   6.090
 6020POPC   D2A75964  27.357  14.373   6.505
 6020POPC   C3A75965  27.360  14.554   6.940
 6020POPC   C4A75966  27.629  14.609   7.292
 6020POPC   C1B75967  27.806  14.253   6.215
 6020POPC   C2B75968  28.022  14.290   6.608
 6020POPC   C3B75969  27.792  14.242   6.976
 6020POPC   C4B75970  27.842  14.137   7.408
 6021POPC   NC375971  15.929   6.130   5.568
 6021POPC   PO475972  16.002   5.486   5.295
 6021POPC   GL175973  16.129   5.628   5.725
 6021POPC   GL275974  15.773   5.594   5.810
 6021POPC   C1A75975  16.136   5.891   6.132
 6021POPC   D2A75976  15.915   6.022   6.500
 6021POPC   C3A75977  16.076   6.100   6.927
 6021POPC   C4A75978  15.793   6.045   7.260
 6021POPC   C1B75979  15.690   5.623   6.251
 6021POPC   C2B75980  15.900   5.523   6.644
 6021POPC   C3B75981  15.987   5.582   7.096
 6021POPC   C4B75982  15.847   5.630   7.562
 6022POPC   NC375983  20.129  37.286   5.518
 6022POPC   PO475984  19.963  36.627   5.414
 6022POPC   GL175985  19.949  36.878   5.810
 6022POPC   GL275986  19.707  37.164   5.819
 6022POPC   C1A75987  19.950  36.743   6.244
 6022POPC   D2A75988  19.601  36.766   6.544
 6022POPC   C3A75989  19.731  36.876   6.956
 6022POPC   C4A75990  20.127  36.788   7.117
 6022POPC   C1B75991  19.927  37.264   6.221
 6022POPC   C2B75992  19.848  37.341   6.673
 6022POPC   C3B75993  19.971  37.300   7.113
 6022POPC   C4B75994  19.768  37.351   7.520
 6023POPC   NC375995  44.260   1.911   5.422
 6023POPC   PO475996  43.612   1.809   5.344
 6023POPC   GL175997  43.880   1.964   5.757
 6023POPC   GL275998  44.126   1.662   5.839
 6023POPC   C1A75999  43.959   2.145   6.233
 6023POPC   D2A76000  43.737   2.188   6.665
 6023POPC   C3A76001  43.886   2.002   7.062
 6023POPC   C4A76002  44.180   2.099   7.385
 6023POPC   C1B76003  44.318   1.757   6.239
 6023POPC   C2B76004  44.200   1.893   6.649
 6023POPC   C3B76005  44.354   1.728   7.037
 6023POPC   C4B76006  44.150   1.568   7.373
 6024POPC   NC376007   8.650  15.502   5.480
 6024POPC   PO476008   8.051  15.101   5.495
 6024POPC   GL176009   8.243  15.262   5.849
 6024POPC   GL276010   8.211  15.611   5.785
 6024POPC   C1A76011   8.138  15.188   6.286
 6024POPC   D2A76012   8.295  15.365   6.675
 6024POPC   C3A76013   8.357  15.107   7.022
 6024POPC   C4A76014   8.054  15.189   7.295
 6024POPC   C1B76015   8.421  15.675   6.177
 6024POPC   C2B76016   8.666  15.705   6.541
 6024POPC   C3B76017   8.496  15.813   6.937
 6024POPC   C4B76018   8.396  15.561   7.284
 6025POPC   NC376019  40.728  37.918   5.430
 6025POPC   PO476020  40.808  38.583   5.280
 6025POPC   GL176021  40.805  38.378   5.689
 6025POPC   GL276022  41.087  38.124   5.716
 6025POPC   C1A76023  40.743  38.564   6.105
 6025POPC   D2A76024  40.734  38.371   6.505
 6025POPC   C3A76025  40.742  38.633   6.869
 6025POPC   C4A76026  40.783  38.486   7.254
 6025POPC   C1B76027  41.118  38.228   6.138
 6025POPC   C2B76028  41.190  38.118   6.543
 6025POPC   C3B76029  41.141  38.314   6.911
 6025POPC   C4B76030  41.206  38.154   7.266
 6026POPC   NC376031   5.251   2.964   5.347
 6026POPC   PO476032   4.689   2.634   5.549
 6026POPC   GL176033   5.051   2.753   5.810
 6026POPC   GL276034   5.219   3.083   5.847
 6026POPC   C1A76035   5.206   2.653   6.226
 6026POPC   D2A76036   5.367   2.730   6.668
 6026POPC   C3A76037   5.131   2.428   6.933
 6026POPC   C4A76038   4.744   2.452   7.227
 6026POPC   C1B76039   5.416   3.135   6.260
 6026POPC   C2B76040   5.484   3.356   6.674
 6026POPC   C3B76041   5.331   3.203   7.069
 6026POPC   C4B76042   5.083   2.844   7.201
 6027POPC   NC376043  10.455  36.046   5.350
 6027POPC   PO476044  10.679  36.472   5.752
 6027POPC   GL176045  10.502  36.107   5.918
 6027POPC   GL276046  10.523  35.775   5.776
 6027POPC   C1A76047  10.400  36.074   6.338
 6027POPC   D2A76048  10.369  36.278   6.710
 6027POPC   C3A76049  10.564  36.129   7.055
 6027POPC   C4A76050  10.242  36.376   7.268
 6027POPC   C1B76051  10.692  35.698   6.179
 6027POPC   C2B76052  10.665  35.760   6.647
 6027POPC   C3B76053  10.840  35.661   7.063
 6027POPC   C4B76054  10.857  35.744   7.512
 6028POPC   NC376055   9.416  42.743   5.651
 6028POPC   PO476056   9.883  43.000   5.234
 6028POPC   GL176057   9.802  43.131   5.709
 6028POPC   GL276058   9.586  43.438   5.791
 6028POPC   C1A76059   9.879  43.222   6.174
 6028POPC   D2A76060   9.772  43.008   6.571
 6028POPC   C3A76061   9.921  43.178   6.970
 6028POPC   C4A76062  10.089  42.977   7.318
 6028POPC   C1B76063   9.367  43.298   6.190
 6028POPC   C2B76064   9.245  43.166   6.607
 6028POPC   C3B76065   9.414  43.247   7.000
 6028POPC   C4B76066   9.590  43.143   7.372
 6029POPC   NC376067  14.059   5.993   5.227
 6029POPC   PO476068  13.528   5.647   5.431
 6029POPC   GL176069  13.702   5.703   5.845
 6029POPC   GL276070  13.893   6.034   5.840
 6029POPC   C1A76071  13.667   5.883   6.279
 6029POPC   D2A76072  13.710   6.072   6.654
 6029POPC   C3A76073  13.496   5.843   6.966
 6029POPC   C4A76074  13.664   5.846   7.370
 6029POPC   C1B76075  13.422   6.182   5.967
 6029POPC   C2B76076  13.252   6.228   6.418
 6029POPC   C3B76077  13.340   6.338   6.866
 6029POPC   C4B76078  13.255   6.158   7.273
 6030POPC   NC376079  43.122  31.391   5.382
 6030POPC   PO476080  43.666  31.070   5.462
 6030POPC   GL176081  43.283  31.082   5.796
 6030POPC   GL276082  43.013  31.366   5.940
 6030POPC   C1A76083  43.346  31.123   6.242
 6030POPC   D2A76084  43.391  31.311   6.632
 6030POPC   C3A76085  43.277  31.103   7.003
 6030POPC   C4A76086  43.043  31.294   7.304
 6030POPC   C1B76087  43.008  31.653   6.380
 6030POPC   C2B76088  42.660  31.776   6.703
 6030POPC   C3B76089  42.735  31.686   7.140
 6030POPC   C4B76090  43.077  31.884   7.391
 6031POPC   NC376091  41.262   7.010   5.782
 6031POPC   PO476092  41.315   6.378   5.632
 6031POPC   GL176093  41.522   6.401   5.977
 6031POPC   GL276094  41.715   6.678   5.823
 6031POPC   C1A76095  41.246   6.455   6.324
 6031POPC   D2A76096  41.310   6.803   6.572
 6031POPC   C3A76097  41.548   6.611   6.860
 6031POPC   C4A76098  41.411   6.462   7.243
 6031POPC   C1B76099  41.801   6.834   6.239
 6031POPC   C2B76100  41.955   7.064   6.613
 6031POPC   C3B76101  41.951   6.857   7.031
 6031POPC   C4B76102  41.931   6.411   7.217
 6032POPC   NC376103  25.637  43.469   5.623
 6032POPC   PO476104  26.066  42.945   5.394
 6032POPC   GL176105  26.295  42.879   5.762
 6032POPC   GL276106  26.250  43.226   5.868
 6032POPC   C1A76107  26.123  42.835   6.188
 6032POPC   D2A76108  25.842  43.021   6.494
 6032POPC   C3A76109  26.019  43.121   6.875
 6032POPC   C4A76110  26.059  42.907   7.262
 6032POPC   C1B76111  26.094  43.383   6.262
 6032POPC   C2B76112  26.242  43.552   6.674
 6032POPC   C3B76113  26.054  43.617   7.087
 6032POPC   C4B76114  25.766  43.344   7.243
 6033POPC   NC376115   8.845  34.197   5.407
 6033POPC   PO476116   9.034  34.846   5.522
 6033POPC   GL176117   8.812  34.542   5.782
 6033POPC   GL276118   9.070  34.304   5.872
 6033POPC   C1A76119   8.628  34.407   6.188
 6033POPC   D2A76120   8.641  34.544   6.629
 6033POPC   C3A76121   8.817  34.301   6.938
 6033POPC   C4A76122   8.768  34.347   7.344
 6033POPC   C1B76123   9.113  34.570   6.251
 6033POPC   C2B76124   9.184  34.605   6.714
 6033POPC   C3B76125   9.033  34.765   7.124
 6033POPC   C4B76126   8.944  34.753   7.574
 6034POPC   NC376127  23.905  40.220   5.592
 6034POPC   PO476128  23.307  39.874   5.490
 6034POPC   GL176129  23.535  39.877   5.796
 6034POPC   GL276130  23.472  40.189   5.914
 6034POPC   C1A76131  23.484  39.747   6.211
 6034POPC   D2A76132  23.690  39.800   6.591
 6034POPC   C3A76133  23.516  39.665   6.966
 6034POPC   C4A76134  23.281  39.929   7.178
 6034POPC   C1B76135  23.556  40.294   6.320
 6034POPC   C2B76136  23.868  40.274   6.638
 6034POPC   C3B76137  23.896  40.053   7.037
 6034POPC   C4B76138  23.699  40.173   7.443
 6035POPC   NC376139  37.297  36.103   5.439
 6035POPC   PO476140  36.750  35.789   5.340
 6035POPC   GL176141  36.853  36.044   5.710
 6035POPC   GL276142  36.508  36.077   5.768
 6035POPC   C1A76143  37.160  36.039   6.101
 6035POPC   D2A76144  37.159  36.269   6.517
 6035POPC   C3A76145  37.101  36.036   6.935
 6035POPC   C4A76146  36.998  36.262   7.319
 6035POPC   C1B76147  36.680  36.178   6.195
 6035POPC   C2B76148  36.716  35.997   6.614
 6035POPC   C3B76149  36.590  36.070   7.056
 6035POPC   C4B76150  36.478  36.355   7.399
 6036POPC   NC376151  21.147  18.610   5.148
 6036POPC   PO476152  20.596  18.541   5.471
 6036POPC   GL176153  20.615  18.496   5.853
 6036POPC   GL276154  20.586  18.150   5.827
 6036POPC   C1A76155  20.711  18.423   6.243
 6036POPC   D2A76156  20.390  18.449   6.484
 6036POPC   C3A76157  20.516  18.573   6.845
 6036POPC   C4A76158  20.683  18.533   7.186
 6036POPC   C1B76159  20.425  17.946   6.194
 6036POPC   C2B76160  20.379  17.969   6.642
 6036POPC   C3B76161  20.367  18.126   7.054
 6036POPC   C4B76162  20.275  18.004   7.453
 6037POPC   NC376163   8.811  20.838   5.421
 6037POPC   PO476164   9.336  20.483   5.302
 6037POPC   GL176165   9.026  20.657   5.819
 6037POPC   GL276166   8.765  20.359   5.950
 6037POPC   C1A76167   8.762  20.769   6.217
 6037POPC   D2A76168   8.774  20.786   6.668
 6037POPC   C3A76169   9.128  20.719   6.919
 6037POPC   C4A76170   8.958  20.853   7.285
 6037POPC   C1B76171   9.011  20.369   6.364
 6037POPC   C2B76172   8.919  20.275   6.766
 6037POPC   C3B76173   8.951  20.303   7.184
 6037POPC   C4B76174   9.131  20.072   7.485
 6038POPC   NC376175  21.323  14.658   5.313
 6038POPC   PO476176  21.553  15.296   5.537
 6038POPC   GL176177  21.315  15.173   5.877
 6038POPC   GL276178  21.273  14.832   5.788
 6038POPC   C1A76179  21.316  15.262   6.320
 6038POPC   D2A76180  21.625  15.282   6.677
 6038POPC   C3A76181  21.432  15.396   7.063
 6038POPC   C4A76182  21.163  15.433   7.423
 6038POPC   C1B76183  21.404  14.749   6.215
 6038POPC   C2B76184  21.178  14.843   6.597
 6038POPC   C3B76185  21.170  14.941   7.029
 6038POPC   C4B76186  21.535  14.940   7.267
 6039POPC   NC376187  17.026  13.285   5.535
 6039POPC   PO476188  16.825  13.873   5.474
 6039POPC   GL176189  16.701  13.682   5.864
 6039POPC   GL276190  16.465  13.959   5.882
 6039POPC   C1A76191  16.766  13.449   6.255
 6039POPC   D2A76192  16.663  13.258   6.650
 6039POPC   C3A76193  16.722  13.549   6.995
 6039POPC   C4A76194  16.920  13.447   7.379
 6039POPC   C1B76195  16.378  13.785   6.277
 6039POPC   C2B76196  16.196  13.915   6.660
 6039POPC   C3B76197  16.373  13.949   7.089
 6039POPC   C4B76198  16.349  13.658   7.418
 6040POPC   NC376199  21.390  26.373   5.378
 6040POPC   PO476200  21.761  26.860   5.554
 6040POPC   GL176201  21.595  26.799   5.939
 6040POPC   GL276202  21.255  26.919   5.880
 6040POPC   C1A76203  21.633  26.877   6.389
 6040POPC   D2A76204  21.435  26.685   6.736
 6040POPC   C3A76205  21.488  26.867   7.145
 6040POPC   C4A76206  21.533  26.663   7.546
 6040POPC   C1B76207  21.129  27.091   6.306
 6040POPC   C2B76208  21.119  27.112   6.778
 6040POPC   C3B76209  20.986  26.967   7.199
 6040POPC   C4B76210  21.174  27.017   7.613
 6041POPC   NC376211   3.061  20.609   5.377
 6041POPC   PO476212   2.539  20.928   5.427
 6041POPC   GL176213   2.751  20.677   5.789
 6041POPC   GL276214   2.862  20.316   5.792
 6041POPC   C1A76215   2.800  20.591   6.243
 6041POPC   D2A76216   2.631  20.790   6.621
 6041POPC   C3A76217   2.688  20.616   7.039
 6041POPC   C4A76218   2.813  20.772   7.460
 6041POPC   C1B76219   3.159  20.212   6.145
 6041POPC   C2B76220   3.130  20.318   6.556
 6041POPC   C3B76221   3.180  20.531   6.912
 6041POPC   C4B76222   3.073  20.365   7.269
 6042POPC   NC376223   3.183   5.271   5.115
 6042POPC   PO476224   2.691   5.493   5.491
 6042POPC   GL176225   2.558   5.224   5.822
 6042POPC   GL276226   2.733   4.882   5.805
 6042POPC   C1A76227   2.670   5.194   6.263
 6042POPC   D2A76228   2.475   5.038   6.639
 6042POPC   C3A76229   2.532   5.175   7.074
 6042POPC   C4A76230   2.371   4.962   7.472
 6042POPC   C1B76231   2.973   4.773   6.201
 6042POPC   C2B76232   3.016   4.925   6.612
 6042POPC   C3B76233   2.904   4.846   7.021
 6042POPC   C4B76234   3.069   4.651   7.354
 6043POPC   NC376235  39.174  37.860   5.532
 6043POPC   PO476236  39.682  37.450   5.450
 6043POPC   GL176237  39.441  37.540   5.844
 6043POPC   GL276238  39.384  37.901   6.001
 6043POPC   C1A76239  39.318  37.460   6.264
 6043POPC   D2A76240  39.292  37.649   6.662
 6043POPC   C3A76241  39.213  37.397   7.014
 6043POPC   C4A76242  39.247  37.447   7.467
 6043POPC   C1B76243  38.947  37.937   6.206
 6043POPC   C2B76244  38.685  37.920   6.592
 6043POPC   C3B76245  38.886  37.781   6.962
 6043POPC   C4B76246  39.072  37.902   7.346
 6044POPC   NC376247  18.574  41.449   5.648
 6044POPC   PO476248  18.071  41.182   5.258
 6044POPC   GL176249  18.040  41.292   5.801
 6044POPC   GL276250  18.312  41.470   6.061
 6044POPC   C1A76251  17.984  41.208   6.298
 6044POPC   D2A76252  18.230  41.479   6.623
 6044POPC   C3A76253  18.088  41.623   7.043
 6044POPC   C4A76254  18.226  41.760   7.439
 6044POPC   C1B76255  18.626  41.748   6.281
 6044POPC   C2B76256  18.624  42.009   6.658
 6044POPC   C3B76257  18.733  41.896   7.060
 6044POPC   C4B76258  18.603  41.531   7.162
 6045POPC   NC376259   5.874  17.842   5.607
 6045POPC   PO476260   6.001  17.121   5.518
 6045POPC   GL176261   5.868  17.385   5.879
 6045POPC   GL276262   5.531  17.348   5.955
 6045POPC   C1A76263   5.830  17.442   6.359
 6045POPC   D2A76264   5.763  17.355   6.772
 6045POPC   C3A76265   6.031  17.422   7.067
 6045POPC   C4A76266   6.223  17.740   7.303
 6045POPC   C1B76267   5.482  17.761   6.178
 6045POPC   C2B76268   5.606  17.848   6.646
 6045POPC   C3B76269   5.574  17.677   7.104
 6045POPC   C4B76270   5.734  17.394   7.477
 6046POPC   NC376271  41.391   5.657   5.353
 6046POPC   PO476272  41.635   4.994   5.461
 6046POPC   GL176273  41.735   4.891   5.882
 6046POPC   GL276274  41.419   5.044   5.944
 6046POPC   C1A76275  41.729   5.099   6.319
 6046POPC   D2A76276  41.573   5.418   6.590
 6046POPC   C3A76277  41.572   5.222   6.995
 6046POPC   C4A76278  41.916   4.975   7.184
 6046POPC   C1B76279  41.213   5.041   6.327
 6046POPC   C2B76280  41.030   5.345   6.592
 6046POPC   C3B76281  41.194   5.607   6.891
 6046POPC   C4B76282  41.183   5.429   7.273
 6047POPC   NC376283   5.417  44.557   5.202
 6047POPC   PO476284   4.953   0.059   5.418
 6047POPC   GL176285   4.897  44.879   5.839
 6047POPC   GL276286   5.287  44.892   5.881
 6047POPC   C1A76287   4.800  44.997   6.289
 6047POPC   D2A76288   5.018  44.899   6.683
 6047POPC   C3A76289   4.862  44.992   7.048
 6047POPC   C4A76290   4.996  44.842   7.468
 6047POPC   C1B76291   5.225  44.688   6.277
 6047POPC   C2B76292   5.431  44.604   6.689
 6047POPC   C3B76293   5.311  44.630   7.085
 6047POPC   C4B76294   5.159  44.263   7.242
 6048POPC   NC376295   3.123  22.270   5.430
 6048POPC   PO476296   3.789  22.103   5.337
 6048POPC   GL176297   3.620  22.117   5.732
 6048POPC   GL276298   3.534  22.399   5.853
 6048POPC   C1A76299   3.578  21.984   6.185
 6048POPC   D2A76300   3.682  22.092   6.626
 6048POPC   C3A76301   3.361  22.005   6.908
 6048POPC   C4A76302   3.292  21.870   7.294
 6048POPC   C1B76303   3.737  22.457   6.263
 6048POPC   C2B76304   3.642  22.638   6.637
 6048POPC   C3B76305   3.500  22.491   6.989
 6048POPC   C4B76306   3.696  22.212   7.258
 6049POPC   NC376307  44.328  11.769   5.613
 6049POPC   PO476308  44.701  12.343   5.423
 6049POPC   GL176309  44.550  12.228   5.819
 6049POPC   GL276310  44.826  11.996   5.844
 6049POPC   C1A76311  44.462  12.066   6.252
 6049POPC   D2A76312  44.664  11.860   6.641
 6049POPC   C3A76313  44.795  12.088   7.000
 6049POPC   C4A76314  44.454  12.154   7.297
 6049POPC   C1B76315  44.977  12.097   6.279
 6049POPC   C2B76316   0.180  11.884   6.647
 6049POPC   C3B76317   0.057  11.631   7.008
 6049POPC   C4B76318  44.876  11.793   7.408
 6050POPC   NC376319  13.438  13.010   5.230
 6050POPC   PO476320  12.769  12.980   5.271
 6050POPC   GL176321  12.924  12.853   5.669
 6050POPC   GL276322  12.972  12.484   5.724
 6050POPC   C1A76323  12.860  12.918   6.095
 6050POPC   D2A76324  13.040  12.831   6.478
 6050POPC   C3A76325  12.799  12.997   6.811
 6050POPC   C4A76326  12.670  12.860   7.189
 6050POPC   C1B76327  12.774  12.403   6.108
 6050POPC   C2B76328  12.889  12.339   6.526
 6050POPC   C3B76329  12.993  12.539   6.915
 6050POPC   C4B76330  13.280  12.444   7.243
 6051POPC   NC376331  37.115  32.130   5.562
 6051POPC   PO476332  36.520  32.425   5.452
 6051POPC   GL176333  36.726  32.287   5.848
 6051POPC   GL276334  36.732  32.613   5.989
 6051POPC   C1A76335  37.004  32.017   6.185
 6051POPC   D2A76336  36.984  31.809   6.606
 6051POPC   C3A76337  36.954  32.056   6.981
 6051POPC   C4A76338  36.772  32.033   7.379
 6051POPC   C1B76339  36.609  32.317   6.335
 6051POPC   C2B76340  36.515  32.057   6.674
 6051POPC   C3B76341  36.455  32.260   7.051
 6051POPC   C4B76342  36.792  32.531   7.171
 6052POPC   NC376343  25.607  13.993   5.293
 6052POPC   PO476344  25.227  13.356   5.211
 6052POPC   GL176345  25.293  13.463   5.664
 6052POPC   GL276346  25.299  13.848   5.683
 6052POPC   C1A76347  25.332  13.519   6.128
 6052POPC   D2A76348  25.535  13.818   6.474
 6052POPC   C3A76349  25.493  13.728   6.933
 6052POPC   C4A76350  25.577  13.333   7.174
 6052POPC   C1B76351  25.212  14.029   6.103
 6052POPC   C2B76352  25.027  13.807   6.447
 6052POPC   C3B76353  24.941  13.810   6.851
 6052POPC   C4B76354  25.108  13.811   7.271
 6053POPC   NC376355  35.764  15.611   5.423
 6053POPC   PO476356  36.201  16.077   5.410
 6053POPC   GL176357  36.235  15.974   5.828
 6053POPC   GL276358  35.939  15.838   5.831
 6053POPC   C1A76359  36.028  16.143   6.236
 6053POPC   D2A76360  36.173  16.184   6.651
 6053POPC   C3A76361  36.018  16.280   7.056
 6053POPC   C4A76362  36.293  16.265   7.352
 6053POPC   C1B76363  36.032  15.642   6.216
 6053POPC   C2B76364  35.896  15.751   6.568
 6053POPC   C3B76365  35.981  15.790   6.974
 6053POPC   C4B76366  35.820  15.630   7.345
 6054POPC   NC376367   9.866  38.789   5.490
 6054POPC   PO476368   9.644  39.417   5.267
 6054POPC   GL176369   9.846  39.308   5.658
 6054POPC   GL276370   9.573  39.107   5.795
 6054POPC   C1A76371  10.000  39.261   6.114
 6054POPC   D2A76372   9.746  39.211   6.521
 6054POPC   C3A76373   9.813  39.394   6.982
 6054POPC   C4A76374  10.042  39.428   7.389
 6054POPC   C1B76375   9.390  38.961   6.177
 6054POPC   C2B76376   9.466  38.788   6.584
 6054POPC   C3B76377   9.417  38.973   6.978
 6054POPC   C4B76378   9.592  39.086   7.343
 6055POPC   NC376379  28.344  18.333   5.410
 6055POPC   PO476380  28.346  17.681   5.175
 6055POPC   GL176381  28.560  17.932   5.631
 6055POPC   GL276382  28.303  18.207   5.879
 6055POPC   C1A76383  28.568  17.884   6.105
 6055POPC   D2A76384  28.227  18.024   6.397
 6055POPC   C3A76385  28.328  18.189   6.824
 6055POPC   C4A76386  28.464  18.211   7.270
 6055POPC   C1B76387  28.411  18.482   6.248
 6055POPC   C2B76388  28.289  18.692   6.644
 6055POPC   C3B76389  28.334  18.673   7.117
 6055POPC   C4B76390  28.111  18.575   7.526
 6056POPC   NC376391  43.065  37.192   5.562
 6056POPC   PO476392  43.157  36.601   5.391
 6056POPC   GL176393  43.136  36.692   5.804
 6056POPC   GL276394  42.798  36.725   5.913
 6056POPC   C1A76395  43.261  36.846   6.213
 6056POPC   D2A76396  43.176  37.022   6.630
 6056POPC   C3A76397  43.212  36.764   6.984
 6056POPC   C4A76398  42.907  36.661   7.301
 6056POPC   C1B76399  42.758  37.075   6.254
 6056POPC   C2B76400  42.750  37.301   6.686
 6056POPC   C3B76401  42.919  37.166   7.109
 6056POPC   C4B76402  42.761  37.090   7.522
 6057POPC   NC376403  42.362  16.339   5.097
 6057POPC   PO476404  42.355  15.843   5.570
 6057POPC   GL176405  42.296  16.063   5.914
 6057POPC   GL276406  42.071  16.315   5.726
 6057POPC   C1A76407  42.484  15.934   6.325
 6057POPC   D2A76408  42.757  15.679   6.602
 6057POPC   C3A76409  42.629  15.668   7.047
 6057POPC   C4A76410  42.228  15.674   7.281
 6057POPC   C1B76411  42.076  16.446   6.175
 6057POPC   C2B76412  42.066  16.189   6.539
 6057POPC   C3B76413  42.163  16.257   6.963
 6057POPC   C4B76414  42.007  16.114   7.323
 6058POPC   NC376415  20.409  26.567   5.400
 6058POPC   PO476416  21.031  26.818   5.343
 6058POPC   GL176417  20.772  26.778   5.719
 6058POPC   GL276418  20.707  26.407   5.798
 6058POPC   C1A76419  20.631  27.018   6.100
 6058POPC   D2A76420  20.643  26.953   6.550
 6058POPC   C3A76421  20.341  27.014   6.875
 6058POPC   C4A76422  20.489  26.784   7.206
 6058POPC   C1B76423  20.421  26.479   6.163
 6058POPC   C2B76424  20.224  26.569   6.582
 6058POPC   C3B76425  20.229  26.388   7.025
 6058POPC   C4B76426  20.599  26.303   7.344
 6059POPC   NC376427  44.124  35.802   5.158
 6059POPC   PO476428  43.632  35.752   5.624
 6059POPC   GL176429  43.793  35.443   5.916
 6059POPC   GL276430  43.819  35.072   5.864
 6059POPC   C1A76431  43.864  35.564   6.342
 6059POPC   D2A76432  43.791  35.491   6.754
 6059POPC   C3A76433  44.011  35.777   6.980
 6059POPC   C4A76434  44.078  35.728   7.416
 6059POPC   C1B76435  44.143  35.163   6.224
 6059POPC   C2B76436  44.280  35.293   6.685
 6059POPC   C3B76437  44.099  35.293   7.128
 6059POPC   C4B76438  43.705  35.163   7.201
 6060POPC   NC376439  41.980   9.336   5.483
 6060POPC   PO476440  41.888   8.682   5.172
 6060POPC   GL176441  41.888   8.839   5.661
 6060POPC   GL276442  41.525   8.951   5.742
 6060POPC   C1A76443  41.842   8.983   6.140
 6060POPC   D2A76444  41.964   9.025   6.619
 6060POPC   C3A76445  41.836   9.027   7.084
 6060POPC   C4A76446  41.827   9.383   7.360
 6060POPC   C1B76447  41.323   8.849   6.174
 6060POPC   C2B76448  41.440   9.033   6.573
 6060POPC   C3B76449  41.466   9.319   6.934
 6060POPC   C4B76450  41.320   9.141   7.341
 6061POPC   NC376451  14.945   9.206   5.414
 6061POPC   PO476452  15.535   9.004   5.374
 6061POPC   GL176453  15.334   9.001   5.795
 6061POPC   GL276454  15.257   9.316   5.818
 6061POPC   C1A76455  15.201   8.830   6.222
 6061POPC   D2A76456  15.408   8.663   6.628
 6061POPC   C3A76457  15.290   8.815   7.047
 6061POPC   C4A76458  14.902   8.866   7.236
 6061POPC   C1B76459  15.062   9.318   6.218
 6061POPC   C2B76460  15.035   9.103   6.653
 6061POPC   C3B76461  15.049   9.308   7.055
 6061POPC   C4B76462  15.417   9.277   7.330
 6062POPC   NC376463  38.474  37.246   5.484
 6062POPC   PO476464  38.309  36.617   5.663
 6062POPC   GL176465  38.633  36.815   5.865
 6062POPC   GL276466  38.477  37.117   5.976
 6062POPC   C1A76467  38.640  36.747   6.295
 6062POPC   D2A76468  38.467  36.912   6.635
 6062POPC   C3A76469  38.531  36.657   6.964
 6062POPC   C4A76470  38.283  36.583   7.310
 6062POPC   C1B76471  38.907  37.165   6.139
 6062POPC   C2B76472  39.038  37.151   6.572
 6062POPC   C3B76473  38.804  37.099   6.938
 6062POPC   C4B76474  38.396  37.091   7.195
 6063POPC   NC376475   4.361   9.213   5.440
 6063POPC   PO476476   4.487   9.896   5.276
 6063POPC   GL176477   4.338   9.932   5.694
 6063POPC   GL276478   4.625   9.810   5.836
 6063POPC   C1A76479   4.202   9.672   6.088
 6063POPC   D2A76480   4.353   9.476   6.475
 6063POPC   C3A76481   4.174   9.529   6.881
 6063POPC   C4A76482   3.908   9.691   7.193
 6063POPC   C1B76483   4.648   9.855   6.285
 6063POPC   C2B76484   4.419   9.996   6.629
 6063POPC   C3B76485   4.424   9.948   7.048
 6063POPC   C4B76486   4.569  10.017   7.422
 6064POPC   NC376487  37.139  18.852   5.406
 6064POPC   PO476488  36.735  19.401   5.366
 6064POPC   GL176489  36.779  19.097   5.715
 6064POPC   GL276490  37.118  19.199   5.797
 6064POPC   C1A76491  36.691  19.203   6.183
 6064POPC   D2A76492  36.634  19.404   6.606
 6064POPC   C3A76493  36.835  19.119   6.884
 6064POPC   C4A76494  36.797  18.910   7.286
 6064POPC   C1B76495  37.099  18.893   6.115
 6064POPC   C2B76496  37.156  18.833   6.555
 6064POPC   C3B76497  37.313  18.947   6.971
 6064POPC   C4B76498  37.176  19.281   7.230
 6065POPC   NC376499  39.947   2.067   5.680
 6065POPC   PO476500  40.195   1.530   5.402
 6065POPC   GL176501  40.215   1.748   5.934
 6065POPC   GL276502  39.870   1.798   6.097
 6065POPC   C1A76503  40.216   1.709   6.432
 6065POPC   D2A76504  39.812   1.894   6.663
 6065POPC   C3A76505  39.899   2.022   7.089
 6065POPC   C4A76506  40.323   1.910   7.241
 6065POPC   C1B76507  40.069   2.190   6.307
 6065POPC   C2B76508  40.263   2.163   6.708
 6065POPC   C3B76509  40.264   2.385   7.062
 6065POPC   C4B76510  40.146   2.303   7.503
 6066POPC   NC376511   5.319   3.722   5.345
 6066POPC   PO476512   4.688   3.455   5.355
 6066POPC   GL176513   4.879   3.476   5.793
 6066POPC   GL276514   5.187   3.632   5.825
 6066POPC   C1A76515   4.998   3.441   6.264
 6066POPC   D2A76516   4.791   3.547   6.659
 6066POPC   C3A76517   4.832   3.234   6.940
 6066POPC   C4A76518   4.954   3.525   7.213
 6066POPC   C1B76519   5.322   3.828   6.209
 6066POPC   C2B76520   5.217   3.816   6.650
 6066POPC   C3B76521   5.387   3.738   7.043
 6066POPC   C4B76522   5.662   3.896   7.342
 6067POPC   NC376523  20.234  41.787   5.394
 6067POPC   PO476524  20.632  41.267   5.495
 6067POPC   GL176525  20.629  41.438   5.864
 6067POPC   GL276526  20.787  41.755   5.868
 6067POPC   C1A76527  20.437  41.342   6.219
 6067POPC   D2A76528  20.230  41.540   6.533
 6067POPC   C3A76529  20.544  41.421   6.794
 6067POPC   C4A76530  20.470  41.340   7.208
 6067POPC   C1B76531  20.909  41.582   6.291
 6067POPC   C2B76532  21.047  41.717   6.711
 6067POPC   C3B76533  20.815  41.817   7.102
 6067POPC   C4B76534  20.875  41.782   7.547
 6068POPC   NC376535   0.223   0.499   5.442
 6068POPC   PO476536   0.906   0.361   5.578
 6068POPC   GL176537   0.583   0.393   5.871
 6068POPC   GL276538   0.437   0.080   5.710
 6068POPC   C1A76539   0.662   0.444   6.337
 6068POPC   D2A76540   0.585   0.433   6.810
 6068POPC   C3A76541   0.312   0.719   7.060
 6068POPC   C4A76542   0.277   0.661   7.533
 6068POPC   C1B76543   0.445  44.990   6.140
 6068POPC   C2B76544   0.413   0.034   6.549
 6068POPC   C3B76545   0.314  44.979   6.939
 6068POPC   C4B76546   0.148   0.261   7.235
 6069POPC   NC376547   5.756  43.819   5.400
 6069POPC   PO476548   6.378  43.538   5.398
 6069POPC   GL176549   6.072  43.537   5.726
 6069POPC   GL276550   6.256  43.851   5.839
 6069POPC   C1A76551   5.917  43.601   6.162
 6069POPC   D2A76552   5.800  43.996   6.418
 6069POPC   C3A76553   5.968  44.100   6.830
 6069POPC   C4A76554   5.754  44.085   7.225
 6069POPC   C1B76555   6.319  43.918   6.295
 6069POPC   C2B76556   6.164  43.656   6.622
 6069POPC   C3B76557   5.883  43.605   6.944
 6069POPC   C4B76558   6.107  43.703   7.295
 6070POPC   NC376559  43.579  25.882   5.371
 6070POPC   PO476560  44.210  26.131   5.526
 6070POPC   GL176561  44.099  25.952   5.862
 6070POPC   GL276562  43.753  25.924   5.844
 6070POPC   C1A76563  44.114  26.171   6.243
 6070POPC   D2A76564  44.183  26.002   6.621
 6070POPC   C3A76565  44.182  26.248   6.960
 6070POPC   C4A76566  43.960  26.241   7.310
 6070POPC   C1B76567  43.617  26.075   6.227
 6070POPC   C2B76568  43.696  25.847   6.584
 6070POPC   C3B76569  43.702  25.930   6.997
 6070POPC   C4B76570  43.763  25.702   7.377
 6071POPC   NC376571  22.652  15.361   5.389
 6071POPC   PO476572  23.231  15.057   5.688
 6071POPC   GL176573  22.863  15.259   5.830
 6071POPC   GL276574  22.858  15.065   6.080
 6071POPC   C1A76575  22.622  15.498   6.138
 6071POPC   D2A76576  22.959  15.499   6.443
 6071POPC   C3A76577  22.925  15.527   6.886
 6071POPC   C4A76578  22.816  15.305   7.256
 6071POPC   C1B76579  23.204  15.052   6.352
 6071POPC   C2B76580  23.104  15.007   6.755
 6071POPC   C3B76581  23.230  15.009   7.148
 6071POPC   C4B76582  23.467  14.703   7.372
 6072POPC   NC376583  44.281  39.326   5.783
 6072POPC   PO476584  43.888  38.976   5.312
 6072POPC   GL176585  43.825  39.071   5.780
 6072POPC   GL276586  43.806  39.420   5.948
 6072POPC   C1A76587  43.688  39.010   6.235
 6072POPC   D2A76588  43.500  38.902   6.653
 6072POPC   C3A76589  43.666  39.088   7.008
 6072POPC   C4A76590  43.630  39.251   7.432
 6072POPC   C1B76591  43.940  39.481   6.379
 6072POPC   C2B76592  44.013  39.592   6.825
 6072POPC   C3B76593  43.814  39.688   7.223
 6072POPC   C4B76594  43.470  39.722   7.566
 6073POPC   NC376595  12.239  41.504   5.424
 6073POPC   PO476596  12.423  42.097   5.762
 6073POPC   GL176597  12.283  41.668   5.891
 6073POPC   GL276598  11.894  41.526   5.803
 6073POPC   C1A76599  12.144  41.450   6.232
 6073POPC   D2A76600  11.887  41.594   6.506
 6073POPC   C3A76601  12.099  41.537   6.845
 6073POPC   C4A76602  12.457  41.687   7.118
 6073POPC   C1B76603  11.602  41.227   6.007
 6073POPC   C2B76604  11.509  41.204   6.433
 6073POPC   C3B76605  11.592  41.314   6.829
 6073POPC   C4B76606  11.816  41.148   7.122
 6074POPC   NC376607  26.367  42.615   5.259
 6074POPC   PO476608  26.296  42.009   5.457
 6074POPC   GL176609  26.027  42.225   5.765
 6074POPC   GL276610  25.647  42.253   5.771
 6074POPC   C1A76611  25.949  42.187   6.196
 6074POPC   D2A76612  26.017  42.442   6.525
 6074POPC   C3A76613  25.983  42.205   6.897
 6074POPC   C4A76614  26.140  42.171   7.310
 6074POPC   C1B76615  25.618  42.587   6.116
 6074POPC   C2B76616  25.482  42.677   6.543
 6074POPC   C3B76617  25.761  42.684   6.882
 6074POPC   C4B76618  25.757  42.487   7.234
 6075POPC   NC376619  10.360   7.365   5.315
 6075POPC   PO476620  10.859   7.732   5.553
 6075POPC   GL176621  10.587   7.498   5.858
 6075POPC   GL276622  10.246   7.462   5.818
 6075POPC   C1A76623  10.620   7.446   6.293
 6075POPC   D2A76624  10.334   7.509   6.654
 6075POPC   C3A76625  10.449   7.438   7.062
 6075POPC   C4A76626  10.129   7.194   7.274
 6075POPC   C1B76627  10.237   7.764   6.180
 6075POPC   C2B76628  10.159   7.989   6.570
 6075POPC   C3B76629  10.320   7.949   7.010
 6075POPC   C4B76630  10.531   7.786   7.422
 6076POPC   NC376631   5.031  27.711   5.486
 6076POPC   PO476632   5.608  27.357   5.422
 6076POPC   GL176633   5.330  27.403   5.780
 6076POPC   GL276634   5.406  27.741   5.879
 6076POPC   C1A76635   5.013  27.481   6.143
 6076POPC   D2A76636   4.976  27.296   6.581
 6076POPC   C3A76637   4.721  27.473   6.935
 6076POPC   C4A76638   4.846  27.806   7.216
 6076POPC   C1B76639   5.490  27.541   6.249
 6076POPC   C2B76640   5.407  27.634   6.633
 6076POPC   C3B76641   5.251  27.477   7.014
 6076POPC   C4B76642   5.464  27.606   7.360
 6077POPC   NC376643  28.763  12.216   5.110
 6077POPC   PO476644  29.367  11.912   5.433
 6077POPC   GL176645  29.393  12.063   5.856
 6077POPC   GL276646  29.410  12.406   5.858
 6077POPC   C1A76647  29.342  12.064   6.312
 6077POPC   D2A76648  29.350  11.839   6.708
 6077POPC   C3A76649  28.995  11.771   6.926
 6077POPC   C4A76650  28.915  11.961   7.278
 6077POPC   C1B76651  29.054  12.461   6.133
 6077POPC   C2B76652  28.838  12.297   6.487
 6077POPC   C3B76653  29.025  12.290   6.881
 6077POPC   C4B76654  29.193  12.393   7.269
 6078POPC   NC376655  32.205  34.338   5.443
 6078POPC   PO476656  32.344  33.681   5.222
 6078POPC   GL176657  32.151  33.716   5.637
 6078POPC   GL276658  32.392  33.955   5.735
 6078POPC   C1A76659  32.085  33.792   6.108
 6078POPC   D2A76660  32.189  33.715   6.543
 6078POPC   C3A76661  32.127  33.602   6.987
 6078POPC   C4A76662  32.377  33.682   7.338
 6078POPC   C1B76663  32.606  33.844   6.113
 6078POPC   C2B76664  32.596  34.013   6.504
 6078POPC   C3B76665  32.488  33.983   6.923
 6078POPC   C4B76666  32.790  34.138   7.227
 6079POPC   NC376667   7.065  16.268   5.574
 6079POPC   PO476668   6.719  15.912   5.111
 6079POPC   GL176669   6.591  15.759   5.543
 6079POPC   GL276670   6.576  16.086   5.672
 6079POPC   C1A76671   6.600  15.669   6.013
 6079POPC   D2A76672   6.429  15.748   6.457
 6079POPC   C3A76673   6.680  15.860   6.836
 6079POPC   C4A76674   6.604  15.737   7.284
 6079POPC   C1B76675   6.512  16.144   6.133
 6079POPC   C2B76676   6.526  16.275   6.546
 6079POPC   C3B76677   6.260  16.195   6.885
 6079POPC   C4B76678   6.468  16.237   7.266
 6080POPC   NC376679  18.867  11.874   5.477
 6080POPC   PO476680  19.493  12.141   5.439
 6080POPC   GL176681  19.228  12.020   5.861
 6080POPC   GL276682  18.956  11.762   5.958
 6080POPC   C1A76683  19.039  12.166   6.286
 6080POPC   D2A76684  18.808  12.057   6.717
 6080POPC   C3A76685  18.976  12.312   7.077
 6080POPC   C4A76686  18.877  12.434   7.484
 6080POPC   C1B76687  18.963  11.670   6.382
 6080POPC   C2B76688  19.276  11.870   6.631
 6080POPC   C3B76689  19.233  11.902   7.025
 6080POPC   C4B76690  18.888  11.764   7.190
 6081POPC   NC376691  15.268  30.083   4.990
 6081POPC   PO476692  15.098  30.092   5.656
 6081POPC   GL176693  15.406  29.949   5.948
 6081POPC   GL276694  15.439  30.251   6.140
 6081POPC   C1A76695  15.324  29.794   6.363
 6081POPC   D2A76696  15.209  30.049   6.736
 6081POPC   C3A76697  15.201  29.789   7.079
 6081POPC   C4A76698  15.461  29.721   7.420
 6081POPC   C1B76699  14.978  30.140   6.283
 6081POPC   C2B76700  14.697  30.313   6.595
 6081POPC   C3B76701  14.745  30.152   6.995
 6081POPC   C4B76702  14.683  29.748   7.111
 6082POPC   NC376703  13.005  26.429   5.543
 6082POPC   PO476704  12.773  27.032   5.590
 6082POPC   GL176705  12.856  26.739   5.924
 6082POPC   GL276706  12.554  26.538   5.898
 6082POPC   C1A76707  12.937  26.641   6.364
 6082POPC   D2A76708  12.883  26.917   6.716
 6082POPC   C3A76709  12.707  26.837   7.131
 6082POPC   C4A76710  12.941  26.649   7.504
 6082POPC   C1B76711  12.429  26.529   6.341
 6082POPC   C2B76712  12.626  26.467   6.750
 6082POPC   C3B76713  12.882  26.362   7.092
 6082POPC   C4B76714  12.645  26.209   7.462
 6083POPC   NC376715  44.073  10.945   5.567
 6083POPC   PO476716  44.119  11.547   5.256
 6083POPC   GL176717  43.812  11.422   5.716
 6083POPC   GL276718  43.658  11.088   5.843
 6083POPC   C1A76719  43.688  11.512   6.168
 6083POPC   D2A76720  43.508  11.570   6.621
 6083POPC   C3A76721  43.783  11.460   6.999
 6083POPC   C4A76722  44.175  11.199   7.144
 6083POPC   C1B76723  43.909  11.029   6.251
 6083POPC   C2B76724  43.868  11.008   6.699
 6083POPC   C3B76725  43.735  10.970   7.116
 6083POPC   C4B76726  43.546  11.197   7.396
 6084POPC   NC376727  22.152  13.443   5.340
 6084POPC   PO476728  21.949  14.030   5.163
 6084POPC   GL176729  22.156  13.893   5.633
 6084POPC   GL276730  22.159  13.535   5.846
 6084POPC   C1A76731  22.162  13.975   6.107
 6084POPC   D2A76732  22.053  13.751   6.496
 6084POPC   C3A76733  22.275  13.764   6.883
 6084POPC   C4A76734  22.192  13.632   7.329
 6084POPC   C1B76735  22.052  13.303   6.269
 6084POPC   C2B76736  22.029  13.292   6.756
 6084POPC   C3B76737  22.077  13.116   7.164
 6084POPC   C4B76738  21.795  13.258   7.438
 6085POPC   NC376739   0.857  25.711   5.046
 6085POPC   PO476740   1.415  26.080   5.261
 6085POPC   GL176741   1.285  26.008   5.714
 6085POPC   GL276742   1.423  25.760   5.884
 6085POPC   C1A76743   1.077  26.229   6.070
 6085POPC   D2A76744   1.199  26.276   6.513
 6085POPC   C3A76745   0.907  26.139   6.839
 6085POPC   C4A76746   0.853  26.243   7.307
 6085POPC   C1B76747   1.564  26.121   6.143
 6085POPC   C2B76748   1.731  26.135   6.539
 6085POPC   C3B76749   1.552  26.282   6.902
 6085POPC   C4B76750   1.297  26.073   7.159
 6086POPC   NC376751  41.130  29.546   5.467
 6086POPC   PO476752  40.748  30.112   5.550
 6086POPC   GL176753  40.704  29.912   5.911
 6086POPC   GL276754  40.696  29.583   5.794
 6086POPC   C1A76755  40.792  29.933   6.318
 6086POPC   D2A76756  41.105  29.751   6.559
 6086POPC   C3A76757  40.894  29.915   6.874
 6086POPC   C4A76758  40.618  29.938   7.181
 6086POPC   C1B76759  40.848  29.449   6.198
 6086POPC   C2B76760  40.674  29.441   6.614
 6086POPC   C3B76761  40.833  29.439   7.021
 6086POPC   C4B76762  40.631  29.483   7.417
 6087POPC   NC376763  26.331  40.326   5.384
 6087POPC   PO476764  25.832  39.901   5.176
 6087POPC   GL176765  25.780  39.873   5.685
 6087POPC   GL276766  26.101  39.724   5.832
 6087POPC   C1A76767  25.785  40.001   6.166
 6087POPC   D2A76768  26.110  40.024   6.526
 6087POPC   C3A76769  26.302  40.233   6.894
 6087POPC   C4A76770  26.306  40.348   7.335
 6087POPC   C1B76771  26.101  39.576   6.278
 6087POPC   C2B76772  25.826  39.622   6.679
 6087POPC   C3B76773  25.953  39.865   7.034
 6087POPC   C4B76774  26.344  39.842   7.237
 6088POPC   NC376775  37.890  15.282   5.169
 6088POPC   PO476776  37.516  15.493   5.665
 6088POPC   GL176777  37.601  15.087   5.779
 6088POPC   GL276778  37.944  15.183   5.659
 6088POPC   C1A76779  37.412  14.993   6.185
 6088POPC   D2A76780  37.538  15.157   6.588
 6088POPC   C3A76781  37.331  15.083   6.979
 6088POPC   C4A76782  37.360  15.034   7.405
 6088POPC   C1B76783  38.054  15.181   6.064
 6088POPC   C2B76784  38.058  15.137   6.516
 6088POPC   C3B76785  38.112  15.142   6.944
 6088POPC   C4B76786  37.829  15.125   7.264
 6089POPC   NC376787  18.083  36.335   5.456
 6089POPC   PO476788  18.529  35.833   5.470
 6089POPC   GL176789  18.301  36.050   5.814
 6089POPC   GL276790  18.436  36.377   5.856
 6089POPC   C1A76791  18.095  36.029   6.229
 6089POPC   D2A76792  17.969  35.873   6.645
 6089POPC   C3A76793  18.208  35.776   7.044
 6089POPC   C4A76794  18.044  35.957   7.440
 6089POPC   C1B76795  18.171  36.536   6.167
 6089POPC   C2B76796  17.954  36.411   6.536
 6089POPC   C3B76797  18.051  36.277   6.942
 6089POPC   C4B76798  18.175  36.488   7.287
 6090POPC   NC376799  36.628  18.186   5.361
 6090POPC   PO476800  37.267  18.419   5.294
 6090POPC   GL176801  37.060  18.242   5.691
 6090POPC   GL276802  36.918  18.544   5.769
 6090POPC   C1A76803  36.725  18.161   6.073
 6090POPC   D2A76804  36.529  18.297   6.481
 6090POPC   C3A76805  36.640  18.146   6.881
 6090POPC   C4A76806  36.578  18.311   7.289
 6090POPC   C1B76807  37.159  18.393   6.175
 6090POPC   C2B76808  37.056  18.326   6.606
 6090POPC   C3B76809  36.996  18.530   6.987
 6090POPC   C4B76810  37.202  18.624   7.379
 6091POPC   NC376811  22.520  40.930   5.593
 6091POPC   PO476812  22.032  40.435   5.538
 6091POPC   GL176813  22.182  40.646   5.875
 6091POPC   GL276814  22.169  41.020   5.948
 6091POPC   C1A76815  21.983  40.585   6.253
 6091POPC   D2A76816  22.086  40.778   6.606
 6091POPC   C3A76817  22.004  40.602   6.985
 6091POPC   C4A76818  22.146  40.669   7.368
 6091POPC   C1B76819  22.223  41.263   6.329
 6091POPC   C2B76820  22.128  41.249   6.774
 6091POPC   C3B76821  22.403  41.278   7.119
 6091POPC   C4B76822  22.433  41.065   7.501
 6092POPC   NC376823  31.129  29.735   5.497
 6092POPC   PO476824  31.785  30.025   5.513
 6092POPC   GL176825  31.510  29.868   5.825
 6092POPC   GL276826  31.384  30.147   5.982
 6092POPC   C1A76827  31.608  29.749   6.264
 6092POPC   D2A76828  31.802  29.960   6.634
 6092POPC   C3A76829  31.537  30.076   7.015
 6092POPC   C4A76830  31.481  29.659   7.264
 6092POPC   C1B76831  31.139  29.964   6.307
 6092POPC   C2B76832  31.291  29.788   6.678
 6092POPC   C3B76833  31.077  29.869   7.054
 6092POPC   C4B76834  31.173  29.997   7.501
 6093POPC   NC376835  43.288   3.562   5.542
 6093POPC   PO476836  42.637   3.488   5.383
 6093POPC   GL176837  42.746   3.664   5.839
 6093POPC   GL276838  43.117   3.766   5.988
 6093POPC   C1A76839  42.712   3.794   6.286
 6093POPC   D2A76840  42.552   3.559   6.627
 6093POPC   C3A76841  42.775   3.558   7.019
 6093POPC   C4A76842  42.864   3.151   7.126
 6093POPC   C1B76843  43.292   3.553   6.352
 6093POPC   C2B76844  43.249   3.525   6.814
 6093POPC   C3B76845  43.325   3.409   7.228
 6093POPC   C4B76846  43.405   3.641   7.596
 6094POPC   NC376847  35.389  25.120   5.440
 6094POPC   PO476848  34.952  25.707   5.403
 6094POPC   GL176849  35.201  25.474   5.754
 6094POPC   GL276850  35.086  25.094   5.850
 6094POPC   C1A76851  35.470  25.292   6.099
 6094POPC   D2A76852  35.444  25.381   6.533
 6094POPC   C3A76853  35.411  25.027   6.809
 6094POPC   C4A76854  35.626  25.220   7.114
 6094POPC   C1B76855  35.011  25.184   6.305
 6094POPC   C2B76856  34.993  25.326   6.747
 6094POPC   C3B76857  35.138  25.302   7.186
 6094POPC   C4B76858  35.372  25.262   7.595
 6095POPC   NC376859  14.470  38.094   5.410
 6095POPC   PO476860  14.327  38.727   5.673
 6095POPC   GL176861  14.206  38.491   5.960
 6095POPC   GL276862  14.472  38.280   5.911
 6095POPC   C1A76863  14.310  38.460   6.370
 6095POPC   D2A76864  14.288  38.735   6.705
 6095POPC   C3A76865  14.513  38.456   6.929
 6095POPC   C4A76866  14.412  38.315   7.302
 6095POPC   C1B76867  14.548  37.998   6.288
 6095POPC   C2B76868  14.668  38.002   6.742
 6095POPC   C3B76869  14.905  38.047   7.145
 6095POPC   C4B76870  14.778  38.147   7.597
 6096POPC   NC376871  27.773  15.669   5.405
 6096POPC   PO476872  27.264  16.004   5.669
 6096POPC   GL176873  27.499  15.724   5.853
 6096POPC   GL276874  27.815  15.855   5.888
 6096POPC   C1A76875  27.458  15.658   6.267
 6096POPC   D2A76876  27.368  15.896   6.615
 6096POPC   C3A76877  27.568  15.755   6.980
 6096POPC   C4A76878  27.370  15.862   7.353
 6096POPC   C1B76879  27.654  16.156   6.195
 6096POPC   C2B76880  27.687  16.309   6.594
 6096POPC   C3B76881  27.527  16.271   6.982
 6096POPC   C4B76882  27.745  16.180   7.327
 6097POPC   NC376883   4.647  34.456   5.616
 6097POPC   PO476884   4.003  34.584   5.359
 6097POPC   GL176885   4.145  34.291   5.702
 6097POPC   GL276886   4.217  34.643   5.836
 6097POPC   C1A76887   4.364  34.280   6.144
 6097POPC   D2A76888   4.376  34.637   6.397
 6097POPC   C3A76889   4.350  34.545   6.835
 6097POPC   C4A76890   4.440  34.260   7.167
 6097POPC   C1B76891   4.000  34.912   6.123
 6097POPC   C2B76892   3.952  34.879   6.570
 6097POPC   C3B76893   4.087  34.956   6.993
 6097POPC   C4B76894   3.846  34.812   7.355
 6098POPC   NC376895  32.058  14.381   5.369
 6098POPC   PO476896  32.604  14.012   5.349
 6098POPC   GL176897  32.452  14.378   5.682
 6098POPC   GL276898  32.201  14.195   5.829
 6098POPC   C1A76899  32.278  14.617   6.088
 6098POPC   D2A76900  32.152  14.508   6.510
 6098POPC   C3A76901  32.162  14.740   6.920
 6098POPC   C4A76902  32.060  14.493   7.266
 6098POPC   C1B76903  32.581  14.196   6.121
 6098POPC   C2B76904  32.638  14.240   6.536
 6098POPC   C3B76905  32.451  14.313   6.902
 6098POPC   C4B76906  32.527  14.205   7.304
 6099POPC   NC376907  19.750  43.563   5.194
 6099POPC   PO476908  19.899  42.900   5.389
 6099POPC   GL176909  19.889  43.054   5.823
 6099POPC   GL276910  20.168  43.231   5.989
 6099POPC   C1A76911  19.728  43.264   6.229
 6099POPC   D2A76912  19.938  43.225   6.608
 6099POPC   C3A76913  19.710  43.113   6.969
 6099POPC   C4A76914  19.929  43.266   7.313
 6099POPC   C1B76915  20.079  42.839   6.240
 6099POPC   C2B76916  20.116  42.698   6.657
 6099POPC   C3B76917  20.101  42.809   7.095
 6099POPC   C4B76918  20.166  42.883   7.550
 6100POPC   NC376919  26.246  15.491   5.400
 6100POPC   PO476920  25.749  15.165   5.547
 6100POPC   GL176921  26.131  15.148   5.799
 6100POPC   GL276922  26.045  14.830   5.826
 6100POPC   C1A76923  26.272  15.011   6.251
 6100POPC   D2A76924  26.142  15.131   6.661
 6100POPC   C3A76925  26.254  15.005   7.073
 6100POPC   C4A76926  26.249  15.357   7.367
 6100POPC   C1B76927  25.746  15.001   6.196
 6100POPC   C2B76928  25.630  15.163   6.653
 6100POPC   C3B76929  25.732  15.049   7.120
 6100POPC   C4B76930  25.847  15.111   7.602
 6101POPC   NC376931  36.772   3.739   5.314
 6101POPC   PO476932  37.327   3.301   5.255
 6101POPC   GL176933  37.016   3.495   5.662
 6101POPC   GL276934  36.674   3.384   5.760
 6101POPC   C1A76935  37.038   3.606   6.142
 6101POPC   D2A76936  37.158   3.415   6.518
 6101POPC   C3A76937  37.074   3.573   6.926
 6101POPC   C4A76938  37.140   3.315   7.336
 6101POPC   C1B76939  36.667   3.288   6.245
 6101POPC   C2B76940  36.615   3.432   6.702
 6101POPC   C3B76941  36.660   3.469   7.178
 6101POPC   C4B76942  36.437   3.399   7.562
 6102POPC   NC376943   7.372  14.661   5.417
 6102POPC   PO476944   7.543  14.033   5.182
 6102POPC   GL176945   7.441  14.182   5.653
 6102POPC   GL276946   7.199  14.386   5.812
 6102POPC   C1A76947   7.586  14.286   6.126
 6102POPC   D2A76948   7.417  14.335   6.575
 6102POPC   C3A76949   7.659  14.348   6.957
 6102POPC   C4A76950   7.618  14.477   7.393
 6102POPC   C1B76951   7.182  14.621   6.205
 6102POPC   C2B76952   7.079  14.705   6.652
 6102POPC   C3B76953   7.215  14.602   7.075
 6102POPC   C4B76954   7.083  14.796   7.445
 6103POPC   NC376955  42.642  10.084   5.515
 6103POPC   PO476956  43.218   9.609   5.500
 6103POPC   GL176957  43.064   9.827   5.782
 6103POPC   GL276958  42.850   9.584   5.925
 6103POPC   C1A76959  43.150   9.982   6.193
 6103POPC   D2A76960  42.859   9.846   6.473
 6103POPC   C3A76961  42.770  10.021   6.885
 6103POPC   C4A76962  42.974  10.012   7.287
 6103POPC   C1B76963  43.223   9.458   6.149
 6103POPC   C2B76964  43.301   9.606   6.554
 6103POPC   C3B76965  43.046   9.604   6.907
 6103POPC   C4B76966  43.134   9.502   7.284
 6104POPC   NC376967   4.759  33.545   5.539
 6104POPC   PO476968   5.158  32.931   5.465
 6104POPC   GL176969   5.094  32.887   5.875
 6104POPC   GL276970   4.815  33.095   5.856
 6104POPC   C1A76971   4.944  32.837   6.278
 6104POPC   D2A76972   4.842  33.065   6.585
 6104POPC   C3A76973   5.091  32.959   6.885
 6104POPC   C4A76974   5.066  33.074   7.263
 6104POPC   C1B76975   4.730  33.402   6.183
 6104POPC   C2B76976   4.511  33.426   6.581
 6104POPC   C3B76977   4.761  33.438   7.002
 6104POPC   C4B76978   4.704  33.359   7.469
 6105POPC   NC376979  32.199   2.437   5.398
 6105POPC   PO476980  32.176   3.114   5.320
 6105POPC   GL176981  32.239   2.858   5.709
 6105POPC   GL276982  31.922   2.671   5.788
 6105POPC   C1A76983  32.304   2.777   6.161
 6105POPC   D2A76984  32.382   2.976   6.567
 6105POPC   C3A76985  32.340   2.771   6.989
 6105POPC   C4A76986  32.607   2.939   7.303
 6105POPC   C1B76987  31.798   2.653   6.231
 6105POPC   C2B76988  31.943   2.634   6.691
 6105POPC   C3B76989  32.014   2.322   7.082
 6105POPC   C4B76990  31.937   2.351   7.562
 6106POPC   NC376991   1.474  17.450   5.500
 6106POPC   PO476992   2.025  17.507   5.165
 6106POPC   GL176993   2.048  17.595   5.672
 6106POPC   GL276994   1.794  17.428   5.887
 6106POPC   C1A76995   2.162  17.666   6.169
 6106POPC   D2A76996   2.181  17.919   6.604
 6106POPC   C3A76997   2.200  17.691   7.037
 6106POPC   C4A76998   2.225  17.218   7.153
 6106POPC   C1B76999   1.657  17.419   6.314
 6106POPC   C2B77000   1.836  17.452   6.751
 6106POPC   C3B77001   1.753  17.432   7.201
 6106POPC   C4B77002   1.790  17.666   7.589
 6107POPC   NC377003  30.868  35.179   5.548
 6107POPC   PO477004  31.438  35.543   5.378
 6107POPC   GL177005  31.409  35.407   5.763
 6107POPC   GL277006  31.423  35.729   5.890
 6107POPC   C1A77007  31.210  35.313   6.146
 6107POPC   D2A77008  31.301  35.484   6.550
 6107POPC   C3A77009  31.496  35.218   6.823
 6107POPC   C4A77010  31.445  35.346   7.193
 6107POPC   C1B77011  31.678  35.548   6.214
 6107POPC   C2B77012  31.895  35.463   6.621
 6107POPC   C3B77013  31.870  35.620   7.062
 6107POPC   C4B77014  31.703  35.671   7.505
 6108POPC   NC377015   5.410  20.338   5.332
 6108POPC   PO477016   4.819  20.656   5.346
 6108POPC   GL177017   5.143  20.721   5.671
 6108POPC   GL277018   5.318  20.417   5.841
 6108POPC   C1A77019   5.127  20.804   6.125
 6108POPC   D2A77020   5.019  20.531   6.478
 6108POPC   C3A77021   4.991  20.653   6.918
 6108POPC   C4A77022   4.823  20.410   7.260
 6108POPC   C1B77023   5.534  20.481   6.263
 6108POPC   C2B77024   5.465  20.454   6.725
 6108POPC   C3B77025   5.405  20.403   7.149
 6108POPC   C4B77026   5.630  20.581   7.503
 6109POPC   NC377027  10.325  42.028   5.036
 6109POPC   PO477028  10.728  42.485   5.431
 6109POPC   GL177029  10.422  42.370   5.713
 6109POPC   GL277030  10.510  42.626   5.922
 6109POPC   C1A77031  10.250  42.221   6.126
 6109POPC   D2A77032  10.473  42.235   6.551
 6109POPC   C3A77033  10.321  42.047   6.946
 6109POPC   C4A77034  10.462  42.182   7.365
 6109POPC   C1B77035  10.809  42.422   6.182
 6109POPC   C2B77036  10.927  42.538   6.606
 6109POPC   C3B77037  10.760  42.439   7.006
 6109POPC   C4B77038  10.555  42.746   7.287
 6110POPC   NC377039  40.828  32.372   5.391
 6110POPC   PO477040  41.109  31.735   5.413
 6110POPC   GL177041  40.846  31.968   5.732
 6110POPC   GL277042  41.007  32.270   5.866
 6110POPC   C1A77043  40.719  32.040   6.197
 6110POPC   D2A77044  40.908  32.233   6.562
 6110POPC   C3A77045  40.760  32.027   6.906
 6110POPC   C4A77046  40.604  32.056   7.296
 6110POPC   C1B77047  41.194  31.884   6.090
 6110POPC   C2B77048  41.178  31.801   6.517
 6110POPC   C3B77049  41.194  31.746   6.955
 6110POPC   C4B77050  41.109  31.993   7.301
 6111POPC   NC377051  37.146  39.058   5.429
 6111POPC   PO477052  36.520  39.289   5.173
 6111POPC   GL177053  36.571  39.092   5.629
 6111POPC   GL277054  36.867  39.234   5.812
 6111POPC   C1A77055  36.501  39.111   6.135
 6111POPC   D2A77056  36.646  39.325   6.557
 6111POPC   C3A77057  36.570  39.094   6.958
 6111POPC   C4A77058  36.751  39.130   7.379
 6111POPC   C1B77059  37.050  39.292   6.217
 6111POPC   C2B77060  37.139  39.103   6.620
 6111POPC   C3B77061  37.100  39.253   7.035
 6111POPC   C4B77062  37.158  39.516   7.382
 6112POPC   NC377063   5.855  15.017   5.508
 6112POPC   PO477064   5.547  15.660   5.588
 6112POPC   GL177065   5.701  15.469   5.961
 6112POPC   GL277066   5.979  15.195   5.974
 6112POPC   C1A77067   5.627  15.311   6.360
 6112POPC   D2A77068   5.949  15.233   6.663
 6112POPC   C3A77069   5.799  15.351   7.071
 6112POPC   C4A77070   5.608  15.118   7.407
 6112POPC   C1B77071   6.169  14.816   6.232
 6112POPC   C2B77072   6.147  14.707   6.686
 6112POPC   C3B77073   6.225  15.018   7.058
 6112POPC   C4B77074   6.105  15.246   7.468
 6113POPC   NC377075   4.760  38.231   4.964
 6113POPC   PO477076   5.121  38.660   5.404
 6113POPC   GL177077   5.053  38.369   5.753
 6113POPC   GL277078   5.108  38.627   6.000
 6113POPC   C1A77079   5.165  38.118   6.130
 6113POPC   D2A77080   5.236  38.331   6.537
 6113POPC   C3A77081   5.139  38.173   6.923
 6113POPC   C4A77082   5.140  38.378   7.278
 6113POPC   C1B77083   5.525  38.530   6.162
 6113POPC   C2B77084   5.729  38.557   6.565
 6113POPC   C3B77085   5.525  38.571   6.960
 6113POPC   C4B77086   5.552  38.645   7.393
 6114POPC   NC377087  15.649  41.698   5.351
 6114POPC   PO477088  16.243  41.572   5.486
 6114POPC   GL177089  15.963  41.656   5.793
 6114POPC   GL277090  15.653  41.455   5.804
 6114POPC   C1A77091  16.074  41.749   6.194
 6114POPC   D2A77092  15.920  41.643   6.574
 6114POPC   C3A77093  16.206  41.479   6.848
 6114POPC   C4A77094  16.158  41.544   7.273
 6114POPC   C1B77095  15.901  41.223   6.114
 6114POPC   C2B77096  15.804  41.150   6.551
 6114POPC   C3B77097  15.727  41.351   6.984
 6114POPC   C4B77098  15.569  41.239   7.400
 6115POPC   NC377099  22.613  17.464   5.474
 6115POPC   PO477100  21.974  17.642   5.322
 6115POPC   GL177101  22.154  17.533   5.706
 6115POPC   GL277102  22.057  17.223   5.639
 6115POPC   C1A77103  22.335  17.533   6.127
 6115POPC   D2A77104  22.240  17.772   6.506
 6115POPC   C3A77105  22.319  17.599   6.919
 6115POPC   C4A77106  22.126  17.776   7.276
 6115POPC   C1B77107  21.951  17.162   6.068
 6115POPC   C2B77108  22.072  17.258   6.495
 6115POPC   C3B77109  21.900  17.104   6.891
 6115POPC   C4B77110  22.050  17.281   7.234
 6116POPC   NC377111  33.186  16.392   5.297
 6116POPC   PO477112  33.080  16.995   5.457
 6116POPC   GL177113  33.003  16.713   5.809
 6116POPC   GL277114  32.662  16.621   5.826
 6116POPC   C1A77115  33.248  16.633   6.228
 6116POPC   D2A77116  33.327  16.875   6.597
 6116POPC   C3A77117  33.325  16.621   6.960
 6116POPC   C4A77118  33.017  16.606   7.232
 6116POPC   C1B77119  32.742  16.651   6.254
 6116POPC   C2B77120  32.910  16.558   6.639
 6116POPC   C3B77121  32.649  16.727   6.910
 6116POPC   C4B77122  32.505  16.622   7.296
 6117POPC   NC377123   2.736  38.502   5.437
 6117POPC   PO477124   2.391  38.996   5.746
 6117POPC   GL177125   2.710  38.696   5.930
 6117POPC   GL277126   2.770  38.315   5.896
 6117POPC   C1A77127   2.828  38.630   6.362
 6117POPC   D2A77128   2.858  38.713   6.797
 6117POPC   C3A77129   2.645  38.490   7.069
 6117POPC   C4A77130   2.602  38.742   7.403
 6117POPC   C1B77131   2.800  38.116   6.276
 6117POPC   C2B77132   2.915  38.222   6.691
 6117POPC   C3B77133   2.944  38.092   7.084
 6117POPC   C4B77134   2.639  38.044   7.407
 6118POPC   NC377135  38.477  25.573   5.368
 6118POPC   PO477136  38.316  24.915   5.374
 6118POPC   GL177137  38.320  25.237   5.754
 6118POPC   GL277138  38.649  25.372   5.864
 6118POPC   C1A77139  38.236  25.524   6.142
 6118POPC   D2A77140  37.970  25.568   6.519
 6118POPC   C3A77141  38.149  25.728   6.892
 6118POPC   C4A77142  38.196  25.585   7.279
 6118POPC   C1B77143  38.615  25.236   6.343
 6118POPC   C2B77144  38.514  25.382   6.794
 6118POPC   C3B77145  38.627  25.326   7.251
 6118POPC   C4B77146  38.734  25.150   7.667
 6119POPC   NC377147  37.862  19.420   5.490
 6119POPC   PO477148  37.574  19.987   5.520
 6119POPC   GL177149  37.738  19.770   5.901
 6119POPC   GL277150  38.052  19.639   5.938
 6119POPC   C1A77151  37.713  19.719   6.372
 6119POPC   D2A77152  37.414  19.981   6.624
 6119POPC   C3A77153  37.434  20.071   7.049
 6119POPC   C4A77154  37.495  19.678   7.221
 6119POPC   C1B77155  38.103  20.021   6.187
 6119POPC   C2B77156  38.015  20.088   6.599
 6119POPC   C3B77157  37.872  19.834   6.885
 6119POPC   C4B77158  37.969  20.017   7.234
 6120POPC   NC377159  39.257  23.333   5.459
 6120POPC   PO477160  39.164  24.004   5.488
 6120POPC   GL177161  39.292  23.755   5.799
 6120POPC   GL277162  38.986  23.599   5.812
 6120POPC   C1A77163  39.319  23.503   6.171
 6120POPC   D2A77164  39.553  23.556   6.496
 6120POPC   C3A77165  39.407  23.560   6.893
 6120POPC   C4A77166  39.370  23.783   7.257
 6120POPC   C1B77167  38.879  23.784   6.201
 6120POPC   C2B77168  39.037  23.779   6.614
 6120POPC   C3B77169  38.907  23.598   7.019
 6120POPC   C4B77170  38.880  23.759   7.426
 6121POPC   NC377171   7.902  22.327   5.558
 6121POPC   PO477172   8.438  21.918   5.403
 6121POPC   GL177173   8.279  21.991   5.812
 6121POPC   GL277174   8.647  21.987   5.869
 6121POPC   C1A77175   8.023  22.087   6.211
 6121POPC   D2A77176   8.146  22.304   6.604
 6121POPC   C3A77177   8.012  22.119   6.983
 6121POPC   C4A77178   7.879  22.458   7.217
 6121POPC   C1B77179   8.537  22.074   6.275
 6121POPC   C2B77180   8.404  21.869   6.626
 6121POPC   C3B77181   8.579  21.834   6.994
 6121POPC   C4B77182   8.367  22.008   7.351
 6122POPC   NC377183  36.871   1.964   5.285
 6122POPC   PO477184  37.360   2.406   5.424
 6122POPC   GL177185  37.148   2.036   5.728
 6122POPC   GL277186  36.759   1.902   5.773
 6122POPC   C1A77187  37.062   1.867   6.165
 6122POPC   D2A77188  37.206   1.979   6.558
 6122POPC   C3A77189  36.918   2.038   6.869
 6122POPC   C4A77190  36.990   1.935   7.275
 6122POPC   C1B77191  36.574   1.706   6.155
 6122POPC   C2B77192  36.532   1.914   6.539
 6122POPC   C3B77193  36.470   1.838   6.973
 6122POPC   C4B77194  36.404   1.958   7.399
 6123POPC   NC377195   9.060  37.482   5.198
 6123POPC   PO477196   8.505  37.888   5.436
 6123POPC   GL177197   8.763  37.818   5.821
 6123POPC   GL277198   9.115  37.938   5.814
 6123POPC   C1A77199   9.016  37.539   6.151
 6123POPC   D2A77200   9.167  37.674   6.589
 6123POPC   C3A77201   8.913  37.597   6.961
 6123POPC   C4A77202   9.179  37.473   7.299
 6123POPC   C1B77203   8.954  38.034   6.255
 6123POPC   C2B77204   8.838  38.067   6.687
 6123POPC   C3B77205   9.130  38.045   7.029
 6123POPC   C4B77206   9.052  37.961   7.440
 6124POPC   NC377207  19.377  13.397   5.397
 6124POPC   PO477208  18.668  13.358   5.391
 6124POPC   GL177209  18.792  13.666   5.692
 6124POPC   GL277210  19.098  13.603   5.750
 6124POPC   C1A77211  18.873  13.826   6.138
 6124POPC   D2A77212  19.017  13.615   6.524
 6124POPC   C3A77213  19.173  13.769   6.901
 6124POPC   C4A77214  18.902  13.693   7.225
 6124POPC   C1B77215  19.147  13.347   6.106
 6124POPC   C2B77216  19.098  13.110   6.512
 6124POPC   C3B77217  19.065  13.259   6.939
 6124POPC   C4B77218  19.360  13.154   7.240
 6125POPC   NC377219  20.463  23.911   5.460
 6125POPC   PO477220  20.745  23.351   5.370
 6125POPC   GL177221  20.698  23.599   5.797
 6125POPC   GL277222  20.801  23.980   5.829
 6125POPC   C1A77223  20.833  23.653   6.250
 6125POPC   D2A77224  20.740  23.463   6.661
 6125POPC   C3A77225  20.709  23.679   7.063
 6125POPC   C4A77226  20.915  23.701   7.466
 6125POPC   C1B77227  20.470  23.998   6.137
 6125POPC   C2B77228  20.587  23.996   6.575
 6125POPC   C3B77229  20.367  24.045   6.946
 6125POPC   C4B77230  20.256  23.816   7.348
 6126POPC   NC377231  25.612  23.997   5.462
 6126POPC   PO477232  26.132  23.539   5.328
 6126POPC   GL177233  26.219  23.665   5.744
 6126POPC   GL277234  25.876  23.722   5.811
 6126POPC   C1A77235  26.211  23.532   6.151
 6126POPC   D2A77236  25.985  23.555   6.506
 6126POPC   C3A77237  26.286  23.457   6.808
 6126POPC   C4A77238  26.356  23.624   7.185
 6126POPC   C1B77239  25.790  23.960   6.196
 6126POPC   C2B77240  25.652  23.929   6.625
 6126POPC   C3B77241  25.793  23.747   6.958
 6126POPC   C4B77242  25.953  23.900   7.301
 6127POPC   NC377243  20.460   6.213   5.596
 6127POPC   PO477244  20.898   5.695   5.476
 6127POPC   GL177245  20.513   5.660   5.780
 6127POPC   GL277246  20.450   5.944   6.008
 6127POPC   C1A77247  20.410   5.514   6.232
 6127POPC   D2A77248  20.381   5.775   6.599
 6127POPC   C3A77249  20.331   5.544   6.972
 6127POPC   C4A77250  20.555   5.569   7.328
 6127POPC   C1B77251  20.649   6.132   6.314
 6127POPC   C2B77252  20.513   6.271   6.695
 6127POPC   C3B77253  20.419   6.056   7.052
 6127POPC   C4B77254  20.697   6.126   7.387
 6128POPC   NC377255   2.973  23.968   5.258
 6128POPC   PO477256   2.497  24.320   5.546
 6128POPC   GL177257   2.862  24.327   5.817
 6128POPC   GL277258   2.652  24.577   5.985
 6128POPC   C1A77259   3.033  24.392   6.259
 6128POPC   D2A77260   2.784  24.310   6.639
 6128POPC   C3A77261   3.000  24.323   7.046
 6128POPC   C4A77262   3.074  24.465   7.457
 6128POPC   C1B77263   2.308  24.362   6.209
 6128POPC   C2B77264   2.168  24.270   6.637
 6128POPC   C3B77265   2.407  24.385   6.996
 6128POPC   C4B77266   2.606  24.259   7.349
 6129POPC   NC377267  38.367   3.029   5.501
 6129POPC   PO477268  38.887   2.558   5.441
 6129POPC   GL177269  38.540   2.593   5.759
 6129POPC   GL277270  38.211   2.382   5.809
 6129POPC   C1A77271  38.624   2.668   6.196
 6129POPC   D2A77272  38.518   2.941   6.527
 6129POPC   C3A77273  38.730   2.828   6.900
 6129POPC   C4A77274  38.598   2.824   7.318
 6129POPC   C1B77275  38.120   2.658   6.194
 6129POPC   C2B77276  38.029   2.780   6.639
 6129POPC   C3B77277  38.071   2.643   7.070
 6129POPC   C4B77278  37.756   2.387   7.257
 6130POPC   NC377279  35.142  43.715   5.131
 6130POPC   PO477280  35.455  44.140   5.553
 6130POPC   GL177281  35.176  43.810   5.692
 6130POPC   GL277282  35.427  43.600   5.779
 6130POPC   C1A77283  34.988  43.826   6.117
 6130POPC   D2A77284  35.186  43.958   6.535
 6130POPC   C3A77285  35.146  43.695   6.911
 6130POPC   C4A77286  35.053  43.739   7.326
 6130POPC   C1B77287  35.497  43.685   6.207
 6130POPC   C2B77288  35.624  43.698   6.645
 6130POPC   C3B77289  35.604  43.832   7.051
 6130POPC   C4B77290  35.568  43.537   7.353
 6131POPC   NC377291   6.455  41.938   5.581
 6131POPC   PO477292   6.662  41.267   5.386
 6131POPC   GL177293   6.785  41.326   5.821
 6131POPC   GL277294   6.804  41.664   5.888
 6131POPC   C1A77295   6.640  41.383   6.259
 6131POPC   D2A77296   6.821  41.452   6.627
 6131POPC   C3A77297   6.497  41.337   6.904
 6131POPC   C4A77298   6.676  41.409   7.281
 6131POPC   C1B77299   6.930  41.867   6.258
 6131POPC   C2B77300   6.940  41.982   6.688
 6131POPC   C3B77301   6.969  41.780   7.090
 6131POPC   C4B77302   6.820  41.919   7.531
 6132POPC   NC377303  30.998   8.390   5.469
 6132POPC   PO477304  30.402   8.063   5.624
 6132POPC   GL177305  30.699   8.219   5.907
 6132POPC   GL277306  30.667   8.555   5.801
 6132POPC   C1A77307  30.668   8.169   6.368
 6132POPC   D2A77308  30.347   8.226   6.724
 6132POPC   C3A77309  30.416   7.985   7.112
 6132POPC   C4A77310  30.690   8.172   7.413
 6132POPC   C1B77311  30.819   8.642   6.192
 6132POPC   C2B77312  30.776   8.598   6.625
 6132POPC   C3B77313  30.914   8.330   6.973
 6132POPC   C4B77314  31.101   8.502   7.368
 6133POPC   NC377315  37.032  28.896   5.564
 6133POPC   PO477316  36.735  29.420   5.403
 6133POPC   GL177317  37.031  29.359   5.809
 6133POPC   GL277318  36.951  29.043   6.031
 6133POPC   C1A77319  37.046  29.451   6.290
 6133POPC   D2A77320  37.161  29.095   6.587
 6133POPC   C3A77321  37.281  29.219   7.000
 6133POPC   C4A77322  36.966  29.367   7.302
 6133POPC   C1B77323  36.637  29.026   6.364
 6133POPC   C2B77324  36.662  29.081   6.795
 6133POPC   C3B77325  36.861  28.888   7.132
 6133POPC   C4B77326  36.876  28.915   7.583
 6134POPC   NC377327  36.213  28.850   5.442
 6134POPC   PO477328  35.916  29.494   5.395
 6134POPC   GL177329  36.045  29.248   5.744
 6134POPC   GL277330  35.736  29.104   5.839
 6134POPC   C1A77331  36.149  29.220   6.194
 6134POPC   D2A77332  36.033  29.430   6.593
 6134POPC   C3A77333  36.310  29.439   6.934
 6134POPC   C4A77334  36.467  29.228   7.281
 6134POPC   C1B77335  35.630  29.237   6.258
 6134POPC   C2B77336  35.672  29.065   6.687
 6134POPC   C3B77337  35.964  29.071   7.044
 6134POPC   C4B77338  35.960  28.985   7.464
 6135POPC   NC377339  26.135   3.957   5.471
 6135POPC   PO477340  26.037   4.619   5.393
 6135POPC   GL177341  25.897   4.400   5.785
 6135POPC   GL277342  25.697   4.662   5.976
 6135POPC   C1A77343  26.003   4.019   6.093
 6135POPC   D2A77344  26.303   3.959   6.435
 6135POPC   C3A77345  26.266   4.188   6.834
 6135POPC   C4A77346  25.971   4.212   7.176
 6135POPC   C1B77347  25.972   4.465   6.302
 6135POPC   C2B77348  25.804   4.341   6.692
 6135POPC   C3B77349  25.609   4.563   7.041
 6135POPC   C4B77350  25.648   4.474   7.467
 6136POPC   NC377351  30.015  42.349   5.442
 6136POPC   PO477352  29.613  41.862   5.499
 6136POPC   GL177353  29.781  42.162   5.866
 6136POPC   GL277354  30.151  42.241   5.918
 6136POPC   C1A77355  29.817  42.556   6.157
 6136POPC   D2A77356  29.816  42.574   6.626
 6136POPC   C3A77357  29.627  42.736   6.992
 6136POPC   C4A77358  29.580  42.352   7.213
 6136POPC   C1B77359  30.153  42.234   6.379
 6136POPC   C2B77360  30.279  42.361   6.779
 6136POPC   C3B77361  30.254  42.259   7.204
 6136POPC   C4B77362  29.945  42.097   7.498
 6137POPC   NC377363  34.887  20.091   5.504
 6137POPC   PO477364  34.412  19.582   5.439
 6137POPC   GL177365  34.523  19.825   5.819
 6137POPC   GL277366  34.707  20.069   5.963
 6137POPC   C1A77367  34.640  19.674   6.254
 6137POPC   D2A77368  34.963  19.736   6.591
 6137POPC   C3A77369  34.785  19.752   7.004
 6137POPC   C4A77370  34.398  19.857   7.231
 6137POPC   C1B77371  34.559  20.176   6.365
 6137POPC   C2B77372  34.508  20.132   6.805
 6137POPC   C3B77373  34.640  20.388   7.163
 6137POPC   C4B77374  34.537  20.410   7.607
 6138POPC   NC377375  10.212  10.985   5.290
 6138POPC   PO477376  10.731  11.328   5.522
 6138POPC   GL177377  10.492  11.285   5.850
 6138POPC   GL277378  10.362  10.953   5.782
 6138POPC   C1A77379  10.677  11.318   6.243
 6138POPC   D2A77380  10.903  11.136   6.609
 6138POPC   C3A77381  10.692  11.296   7.002
 6138POPC   C4A77382  10.258  11.288   7.113
 6138POPC   C1B77383  10.465  10.872   6.203
 6138POPC   C2B77384  10.397  11.050   6.624
 6138POPC   C3B77385  10.477  10.824   6.985
 6138POPC   C4B77386  10.493  10.919   7.408
 6139POPC   NC377387  16.352  28.559   5.444
 6139POPC   PO477388  15.745  28.216   5.326
 6139POPC   GL177389  15.992  28.266   5.713
 6139POPC   GL277390  15.941  28.588   5.784
 6139POPC   C1A77391  15.951  28.260   6.184
 6139POPC   D2A77392  16.224  28.332   6.563
 6139POPC   C3A77393  16.145  28.092   6.940
 6139POPC   C4A77394  16.183  28.267   7.354
 6139POPC   C1B77395  15.720  28.778   6.139
 6139POPC   C2B77396  15.799  28.688   6.577
 6139POPC   C3B77397  16.010  28.591   6.972
 6139POPC   C4B77398  15.959  28.736   7.369
 6140POPC   NC377399  30.041  36.394   5.098
 6140POPC   PO477400  29.789  35.959   5.596
 6140POPC   GL177401  29.820  36.079   5.950
 6140POPC   GL277402  29.750  36.416   5.830
 6140POPC   C1A77403  30.009  35.974   6.315
 6140POPC   D2A77404  29.996  35.784   6.728
 6140POPC   C3A77405  30.218  35.815   7.141
 6140POPC   C4A77406  29.963  35.944   7.472
 6140POPC   C1B77407  29.965  36.481   6.217
 6140POPC   C2B77408  30.206  36.349   6.576
 6140POPC   C3B77409  30.066  36.251   6.968
 6140POPC   C4B77410  30.071  36.429   7.354
 6141POPC   NC377411  33.253  20.336   5.570
 6141POPC   PO477412  32.739  19.774   5.479
 6141POPC   GL177413  32.957  19.973   5.826
 6141POPC   GL277414  33.283  19.813   5.785
 6141POPC   C1A77415  33.020  19.812   6.254
 6141POPC   D2A77416  32.675  19.703   6.533
 6141POPC   C3A77417  32.664  19.838   6.959
 6141POPC   C4A77418  32.924  19.659   7.269
 6141POPC   C1B77419  33.488  20.049   6.134
 6141POPC   C2B77420  33.371  20.070   6.548
 6141POPC   C3B77421  33.184  19.806   6.847
 6141POPC   C4B77422  33.422  19.662   7.216
 6142POPC   NC377423   6.160   9.217   5.450
 6142POPC   PO477424   5.729   8.781   5.586
 6142POPC   GL177425   5.886   8.971   5.897
 6142POPC   GL277426   5.827   9.312   5.852
 6142POPC   C1A77427   6.141   8.886   6.240
 6142POPC   D2A77428   6.210   8.637   6.568
 6142POPC   C3A77429   6.109   8.799   6.946
 6142POPC   C4A77430   6.077   8.586   7.304
 6142POPC   C1B77431   5.990   9.366   6.266
 6142POPC   C2B77432   5.911   9.178   6.654
 6142POPC   C3B77433   5.905   9.358   7.062
 6142POPC   C4B77434   5.735   9.269   7.481
 6143POPC   NC377435  30.023  16.457   5.395
 6143POPC   PO477436  29.652  17.020   5.498
 6143POPC   GL177437  29.922  16.868   5.808
 6143POPC   GL277438  29.839  16.533   5.857
 6143POPC   C1A77439  29.900  16.858   6.259
 6143POPC   D2A77440  29.621  16.671   6.567
 6143POPC   C3A77441  29.806  16.730   6.964
 6143POPC   C4A77442  30.139  16.970   7.170
 6143POPC   C1B77443  30.190  16.434   6.122
 6143POPC   C2B77444  30.129  16.520   6.573
 6143POPC   C3B77445  30.247  16.458   7.008
 6143POPC   C4B77446  29.917  16.354   7.305
 6144POPC   NC377447   0.685  34.802   5.502
 6144POPC   PO477448   1.245  34.386   5.420
 6144POPC   GL177449   1.378  34.563   5.827
 6144POPC   GL277450   1.270  34.891   5.862
 6144POPC   C1A77451   1.461  34.568   6.280
 6144POPC   D2A77452   1.497  34.251   6.636
 6144POPC   C3A77453   1.295  34.400   7.026
 6144POPC   C4A77454   1.434  34.775   7.210
 6144POPC   C1B77455   0.990  34.723   6.189
 6144POPC   C2B77456   1.064  34.743   6.652
 6144POPC   C3B77457   0.914  34.816   7.087
 6144POPC   C4B77458   1.038  34.839   7.515
 6145POPC   NC377459   0.775  38.401   5.556
 6145POPC   PO477460   0.226  38.779   5.503
 6145POPC   GL177461   0.432  38.551   5.898
 6145POPC   GL277462   0.562  38.177   5.952
 6145POPC   C1A77463   0.323  38.436   6.343
 6145POPC   D2A77464   0.221  38.447   6.792
 6145POPC   C3A77465   0.436  38.580   7.177
 6145POPC   C4A77466   0.171  38.510   7.576
 6145POPC   C1B77467   0.736  38.148   6.336
 6145POPC   C2B77468   0.702  38.211   6.766
 6145POPC   C3B77469   0.891  38.176   7.160
 6145POPC   C4B77470   0.663  38.316   7.541
 6146POPC   NC377471  44.724  11.163   5.386
 6146POPC   PO477472  44.289  11.323   5.778
 6146POPC   GL177473  44.710  11.481   5.795
 6146POPC   GL277474  44.987  11.258   5.844
 6146POPC   C1A77475  44.757  11.619   6.193
 6146POPC   D2A77476  44.891  11.409   6.552
 6146POPC   C3A77477  44.573  11.334   6.828
 6146POPC   C4A77478  44.644  11.395   7.250
 6146POPC   C1B77479  44.793  11.060   6.181
 6146POPC   C2B77480  44.928  10.896   6.585
 6146POPC   C3B77481  44.977  11.050   6.967
 6146POPC   C4B77482  44.648  10.909   7.151
 6147POPC   NC377483  15.760  24.379   5.425
 6147POPC   PO477484  16.139  24.948   5.307
 6147POPC   GL177485  16.051  24.644   5.742
 6147POPC   GL277486  16.134  24.243   5.760
 6147POPC   C1A77487  15.790  24.408   6.102
 6147POPC   D2A77488  15.600  24.398   6.530
 6147POPC   C3A77489  15.884  24.449   6.841
 6147POPC   C4A77490  15.922  24.463   7.263
 6147POPC   C1B77491  16.381  24.166   6.159
 6147POPC   C2B77492  16.504  24.205   6.618
 6147POPC   C3B77493  16.317  24.216   7.051
 6147POPC   C4B77494  16.385  24.443   7.442
 6148POPC   NC377495  33.664  38.841   5.342
 6148POPC   PO477496  33.664  39.490   5.371
 6148POPC   GL177497  33.685  39.317   5.758
 6148POPC   GL277498  33.450  39.050   5.771
 6148POPC   C1A77499  33.881  39.281   6.177
 6148POPC   D2A77500  34.036  39.207   6.590
 6148POPC   C3A77501  33.863  39.403   6.936
 6148POPC   C4A77502  33.982  39.364   7.330
 6148POPC   C1B77503  33.547  38.900   6.188
 6148POPC   C2B77504  33.350  38.882   6.576
 6148POPC   C3B77505  33.499  39.007   6.968
 6148POPC   C4B77506  33.539  38.802   7.353
 6149POPC   NC377507  29.692  34.398   5.143
 6149POPC   PO477508  29.693  34.967   5.517
 6149POPC   GL177509  29.907  34.614   5.753
 6149POPC   GL277510  29.731  34.371   6.019
 6149POPC   C1A77511  30.030  34.734   6.186
 6149POPC   D2A77512  30.022  34.566   6.617
 6149POPC   C3A77513  29.919  34.915   6.902
 6149POPC   C4A77514  30.219  34.913   7.227
 6149POPC   C1B77515  30.097  34.157   6.264
 6149POPC   C2B77516  30.427  34.158   6.620
 6149POPC   C3B77517  30.238  34.180   7.032
 6149POPC   C4B77518  29.906  34.478   7.146
 6150POPC   NC377519  19.883  11.921   5.328
 6150POPC   PO477520  20.136  12.556   5.354
 6150POPC   GL177521  19.974  12.292   5.734
 6150POPC   GL277522  19.759  11.994   5.830
 6150POPC   C1A77523  20.105  12.216   6.192
 6150POPC   D2A77524  20.284  12.055   6.603
 6150POPC   C3A77525  20.140  12.251   7.009
 6150POPC   C4A77526  20.154  12.098   7.474
 6150POPC   C1B77527  19.588  12.123   6.221
 6150POPC   C2B77528  19.770  11.961   6.575
 6150POPC   C3B77529  19.690  11.751   6.932
 6150POPC   C4B77530  19.674  12.053   7.254
 6151POPC   NC377531   7.143  44.755   5.367
 6151POPC   PO477532   7.528  44.125   5.357
 6151POPC   GL177533   7.532  44.500   5.656
 6151POPC   GL277534   7.833  44.718   5.707
 6151POPC   C1A77535   7.316  44.657   6.034
 6151POPC   D2A77536   7.260  44.420   6.423
 6151POPC   C3A77537   7.184  44.636   6.811
 6151POPC   C4A77538   7.383  44.617   7.218
 6151POPC   C1B77539   7.986  44.895   6.138
 6151POPC   C2B77540   7.906   0.074   6.559
 6151POPC   C3B77541   7.585   0.072   6.888
 6151POPC   C4B77542   7.649   0.027   7.337
 6152POPC   NC377543  25.436  44.941   5.394
 6152POPC   PO477544  25.058  44.366   5.381
 6152POPC   GL177545  24.966  44.510   5.800
 6152POPC   GL277546  25.206  44.781   5.864
 6152POPC   C1A77547  25.017  44.387   6.237
 6152POPC   D2A77548  24.962  44.612   6.627
 6152POPC   C3A77549  25.227  44.558   7.005
 6152POPC   C4A77550  25.126  44.631   7.444
 6152POPC   C1B77551  25.338  44.803   6.318
 6152POPC   C2B77552  25.305  44.999   6.736
 6152POPC   C3B77553  25.311   0.042   7.184
 6152POPC   C4B77554  25.399   0.048   7.612
 6153POPC   NC377555  32.630   9.963   5.427
 6153POPC   PO477556  31.972   9.820   5.470
 6153POPC   GL177557  32.158   9.725   5.843
 6153POPC   GL277558  32.463   9.763   5.894
 6153POPC   C1A77559  32.127   9.980   6.237
 6153POPC   D2A77560  32.358   9.956   6.645
 6153POPC   C3A77561  32.082   9.942   7.032
 6153POPC   C4A77562  32.041   9.967   7.543
 6153POPC   C1B77563  32.409   9.550   6.269
 6153POPC   C2B77564  32.489   9.451   6.681
 6153POPC   C3B77565  32.666   9.690   6.983
 6153POPC   C4B77566  32.717   9.654   7.392
 6154POPC   NC377567   8.649  18.274   5.413
 6154POPC   PO477568   7.985  18.233   5.375
 6154POPC   GL177569   8.124  18.355   5.808
 6154POPC   GL277570   8.425  18.136   5.859
 6154POPC   C1A77571   8.273  18.471   6.233
 6154POPC   D2A77572   8.295  18.745   6.593
 6154POPC   C3A77573   8.309  18.518   6.994
 6154POPC   C4A77574   8.083  18.285   7.278
 6154POPC   C1B77575   8.181  17.954   6.207
 6154POPC   C2B77576   8.299  17.883   6.664
 6154POPC   C3B77577   8.440  17.971   7.115
 6154POPC   C4B77578   8.290  17.916   7.586
 6155POPC   NC377579  43.342  28.003   5.484
 6155POPC   PO477580  43.291  27.388   5.427
 6155POPC   GL177581  43.185  27.578   5.853
 6155POPC   GL277582  42.913  27.850   5.769
 6155POPC   C1A77583  43.281  27.473   6.320
 6155POPC   D2A77584  43.093  27.205   6.671
 6155POPC   C3A77585  42.868  27.348   7.054
 6155POPC   C4A77586  43.177  27.389   7.378
 6155POPC   C1B77587  42.877  27.941   6.221
 6155POPC   C2B77588  43.172  27.924   6.568
 6155POPC   C3B77589  43.242  27.695   6.947
 6155POPC   C4B77590  42.966  27.837   7.308
 6156POPC   NC377591   8.546   9.648   5.381
 6156POPC   PO477592   7.860   9.900   5.409
 6156POPC   GL177593   7.911   9.656   5.765
 6156POPC   GL277594   8.250   9.774   5.772
 6156POPC   C1A77595   8.075   9.556   6.183
 6156POPC   D2A77596   8.238   9.698   6.603
 6156POPC   C3A77597   7.950   9.850   6.939
 6156POPC   C4A77598   8.076   9.744   7.356
 6156POPC   C1B77599   8.343  10.020   6.154
 6156POPC   C2B77600   8.455  10.182   6.574
 6156POPC   C3B77601   8.432  10.023   7.002
 6156POPC   C4B77602   8.511   9.987   7.441
 6157POPC   NC377603  33.176  36.178   4.970
 6157POPC   PO477604  33.450  36.347   5.560
 6157POPC   GL177605  33.217  36.167   5.911
 6157POPC   GL277606  32.864  36.252   5.967
 6157POPC   C1A77607  33.144  35.968   6.303
 6157POPC   D2A77608  33.372  35.986   6.676
 6157POPC   C3A77609  33.161  35.970   7.065
 6157POPC   C4A77610  33.119  36.113   7.510
 6157POPC   C1B77611  32.669  36.614   6.172
 6157POPC   C2B77612  32.793  36.750   6.587
 6157POPC   C3B77613  32.692  36.603   6.982
 6157POPC   C4B77614  32.736  36.443   7.391
 6158POPC   NC377615  44.935  12.765   5.348
 6158POPC   PO477616  44.376  12.987   5.527
 6158POPC   GL177617  44.480  12.756   5.878
 6158POPC   GL277618  44.822  12.679   5.835
 6158POPC   C1A77619  44.378  12.612   6.295
 6158POPC   D2A77620  44.645  12.396   6.607
 6158POPC   C3A77621  44.670  12.579   6.999
 6158POPC   C4A77622  44.759  12.962   7.146
 6158POPC   C1B77623  44.899  12.701   6.267
 6158POPC   C2B77624   0.065  12.778   6.663
 6158POPC   C3B77625   0.175  12.552   6.991
 6158POPC   C4B77626   0.079  12.534   7.388
 6159POPC   NC377627  18.297   4.757   5.406
 6159POPC   PO477628  18.503   5.352   5.326
 6159POPC   GL177629  18.267   5.186   5.699
 6159POPC   GL277630  18.569   4.979   5.835
 6159POPC   C1A77631  18.149   4.971   6.111
 6159POPC   D2A77632  18.407   4.989   6.508
 6159POPC   C3A77633  18.140   5.161   6.825
 6159POPC   C4A77634  18.014   5.006   7.219
 6159POPC   C1B77635  18.473   5.364   6.135
 6159POPC   C2B77636  18.406   5.539   6.565
 6159POPC   C3B77637  18.545   5.452   6.981
 6159POPC   C4B77638  18.516   5.033   7.158
 6160POPC   NC377639   9.370  34.531   5.491
 6160POPC   PO477640   9.926  34.841   5.143
 6160POPC   GL177641   9.874  34.522   5.643
 6160POPC   GL277642   9.594  34.578   5.927
 6160POPC   C1A77643  10.048  34.584   6.132
 6160POPC   D2A77644  10.111  34.392   6.564
 6160POPC   C3A77645   9.991  34.445   7.025
 6160POPC   C4A77646   9.901  34.315   7.493
 6160POPC   C1B77647   9.607  34.493   6.369
 6160POPC   C2B77648   9.717  34.751   6.700
 6160POPC   C3B77649   9.546  34.663   7.104
 6160POPC   C4B77650   9.290  34.320   7.178
 6161POPC   NC377651  30.307   2.069   5.401
 6161POPC   PO477652  30.922   1.805   5.473
 6161POPC   GL177653  30.987   2.153   5.747
 6161POPC   GL277654  30.646   2.132   5.776
 6161POPC   C1A77655  30.986   2.059   6.206
 6161POPC   D2A77656  30.836   1.684   6.472
 6161POPC   C3A77657  30.626   1.772   6.874
 6161POPC   C4A77658  30.789   1.829   7.279
 6161POPC   C1B77659  30.470   1.981   6.158
 6161POPC   C2B77660  30.470   2.166   6.565
 6161POPC   C3B77661  30.201   2.216   6.912
 6161POPC   C4B77662  30.277   2.336   7.339
 6162POPC   NC377663  28.393  27.390   5.652
 6162POPC   PO477664  28.241  26.866   5.290
 6162POPC   GL177665  28.341  26.845   5.711
 6162POPC   GL277666  28.679  26.934   5.777
 6162POPC   C1A77667  28.198  26.684   6.100
 6162POPC   D2A77668  28.111  26.797   6.507
 6162POPC   C3A77669  28.412  26.732   6.858
 6162POPC   C4A77670  28.502  26.565   7.265
 6162POPC   C1B77671  28.903  26.949   6.181
 6162POPC   C2B77672  28.786  27.025   6.614
 6162POPC   C3B77673  28.688  27.245   6.995
 6162POPC   C4B77674  28.627  27.075   7.389
 6163POPC   NC377675  44.324   0.626   5.554
 6163POPC   PO477676  43.964   0.101   5.254
 6163POPC   GL177677  43.950   0.207   5.734
 6163POPC   GL277678  43.960   0.542   5.921
 6163POPC   C1A77679  43.967   0.101   6.211
 6163POPC   D2A77680  43.783   0.059   6.655
 6163POPC   C3A77681  43.933   0.375   6.955
 6163POPC   C4A77682  43.751   0.638   7.263
 6163POPC   C1B77683  44.245   0.731   6.264
 6163POPC   C2B77684  44.336   0.643   6.726
 6163POPC   C3B77685  44.285   0.701   7.183
 6163POPC   C4B77686  44.140   0.769   7.605
 6164POPC   NC377687   6.341  35.547   5.442
 6164POPC   PO477688   6.384  34.958   5.816
 6164POPC   GL177689   6.661  35.308   5.895
 6164POPC   GL277690   6.754  35.648   5.791
 6164POPC   C1A77691   6.878  35.435   6.255
 6164POPC   D2A77692   7.037  35.344   6.659
 6164POPC   C3A77693   6.862  35.044   6.958
 6164POPC   C4A77694   6.744  35.184   7.356
 6164POPC   C1B77695   6.418  35.693   6.131
 6164POPC   C2B77696   6.388  35.458   6.535
 6164POPC   C3B77697   6.500  35.439   6.984
 6164POPC   C4B77698   6.454  35.610   7.440
 6165POPC   NC377699  13.349  18.440   5.481
 6165POPC   PO477700  13.992  18.665   5.403
 6165POPC   GL177701  13.773  18.430   5.780
 6165POPC   GL277702  13.519  18.149   5.889
 6165POPC   C1A77703  13.639  18.494   6.225
 6165POPC   D2A77704  13.818  18.307   6.574
 6165POPC   C3A77705  13.604  18.235   6.966
 6165POPC   C4A77706  13.884  18.547   7.102
 6165POPC   C1B77707  13.881  18.017   6.127
 6165POPC   C2B77708  13.927  17.828   6.534
 6165POPC   C3B77709  14.021  17.913   6.942
 6165POPC   C4B77710  13.987  18.071   7.329
 6166POPC   NC377711   2.060  36.024   5.476
 6166POPC   PO477712   1.747  36.589   5.308
 6166POPC   GL177713   1.759  36.367   5.765
 6166POPC   GL277714   2.101  36.232   5.931
 6166POPC   C1A77715   1.675  36.143   6.195
 6166POPC   D2A77716   1.743  35.979   6.655
 6166POPC   C3A77717   1.776  36.248   7.007
 6166POPC   C4A77718   2.096  36.455   7.239
 6166POPC   C1B77719   2.384  36.018   6.246
 6166POPC   C2B77720   2.486  36.040   6.708
 6166POPC   C3B77721   2.180  35.963   7.051
 6166POPC   C4B77722   1.922  35.992   7.446
 6167POPC   NC377723  22.528   5.169   5.463
 6167POPC   PO477724  21.840   5.363   5.417
 6167POPC   GL177725  22.044   5.144   5.813
 6167POPC   GL277726  22.350   4.897   5.867
 6167POPC   C1A77727  22.178   5.141   6.254
 6167POPC   D2A77728  22.019   5.073   6.619
 6167POPC   C3A77729  22.223   5.260   6.925
 6167POPC   C4A77730  22.037   5.094   7.263
 6167POPC   C1B77731  22.443   4.673   6.243
 6167POPC   C2B77732  22.478   4.828   6.629
 6167POPC   C3B77733  22.347   4.758   7.004
 6167POPC   C4B77734  22.462   4.510   7.300
 6168POPC   NC377735   3.933  30.223   5.443
 6168POPC   PO477736   4.511  30.589   5.418
 6168POPC   GL177737   4.261  30.709   5.794
 6168POPC   GL277738   4.182  30.396   5.934
 6168POPC   C1A77739   4.234  30.843   6.246
 6168POPC   D2A77740   4.131  30.605   6.647
 6168POPC   C3A77741   4.313  30.847   6.995
 6168POPC   C4A77742   4.506  31.031   7.343
 6168POPC   C1B77743   4.583  30.480   6.195
 6168POPC   C2B77744   4.649  30.585   6.657
 6168POPC   C3B77745   4.456  30.355   7.021
 6168POPC   C4B77746   4.417  30.316   7.466
 6169POPC   NC377747  40.006  33.559   5.421
 6169POPC   PO477748  39.800  34.211   5.462
 6169POPC   GL177749  39.776  33.893   5.809
 6169POPC   GL277750  39.582  33.556   5.741
 6169POPC   C1A77751  40.039  33.876   6.197
 6169POPC   D2A77752  40.085  33.615   6.560
 6169POPC   C3A77753  40.271  33.711   6.938
 6169POPC   C4A77754  40.103  33.975   7.260
 6169POPC   C1B77755  39.699  33.477   6.185
 6169POPC   C2B77756  39.604  33.449   6.643
 6169POPC   C3B77757  39.730  33.720   6.991
 6169POPC   C4B77758  39.773  33.640   7.444
 6170POPC   NC377759  21.245  19.477   5.316
 6170POPC   PO477760  21.506  18.911   5.652
 6170POPC   GL177761  21.328  19.080   5.952
 6170POPC   GL277762  21.119  19.358   5.838
 6170POPC   C1A77763  21.589  19.104   6.303
 6170POPC   D2A77764  21.454  18.909   6.638
 6170POPC   C3A77765  21.731  18.959   6.925
 6170POPC   C4A77766  21.601  18.707   7.226
 6170POPC   C1B77767  21.223  19.456   6.290
 6170POPC   C2B77768  21.480  19.433   6.698
 6170POPC   C3B77769  21.280  19.276   7.083
 6170POPC   C4B77770  21.255  19.431   7.535
 6171POPC   NC377771   4.392   0.624   5.374
 6171POPC   PO477772   4.025   0.055   5.527
 6171POPC   GL177773   4.181   0.209   5.890
 6171POPC   GL277774   4.351   0.525   5.872
 6171POPC   C1A77775   4.168   0.251   6.323
 6171POPC   D2A77776   4.412   0.214   6.695
 6171POPC   C3A77777   4.125   0.346   7.030
 6171POPC   C4A77778   4.212   0.435   7.457
 6171POPC   C1B77779   4.616   0.510   6.244
 6171POPC   C2B77780   4.553   0.712   6.644
 6171POPC   C3B77781   4.588   0.603   7.121
 6171POPC   C4B77782   4.636   0.688   7.624
 6172POPC   NC377783  29.349  18.289   5.530
 6172POPC   PO477784  28.802  18.417   5.287
 6172POPC   GL177785  28.915  18.280   5.803
 6172POPC   GL277786  29.254  18.412   6.015
 6172POPC   C1A77787  28.973  18.107   6.286
 6172POPC   D2A77788  28.884  18.224   6.739
 6172POPC   C3A77789  28.916  17.949   7.114
 6172POPC   C4A77790  28.838  18.018   7.565
 6172POPC   C1B77791  29.437  18.301   6.432
 6172POPC   C2B77792  29.537  17.968   6.744
 6172POPC   C3B77793  29.419  18.057   7.125
 6172POPC   C4B77794  29.245  18.438   7.158
 6173POPC   NC377795  39.628   7.536   5.735
 6173POPC   PO477796  39.009   7.532   5.387
 6173POPC   GL177797  39.124   7.475   5.856
 6173POPC   GL277798  39.274   7.809   5.961
 6173POPC   C1A77799  39.313   7.312   6.292
 6173POPC   D2A77800  39.215   7.183   6.747
 6173POPC   C3A77801  39.432   7.387   7.106
 6173POPC   C4A77802  39.305   7.255   7.517
 6173POPC   C1B77803  39.295   8.004   6.378
 6173POPC   C2B77804  39.321   7.709   6.726
 6173POPC   C3B77805  39.067   7.728   7.125
 6173POPC   C4B77806  39.033   7.684   7.584
 6174POPC   NC377807  36.528   2.796   5.541
 6174POPC   PO477808  35.857   2.606   5.581
 6174POPC   GL177809  36.056   2.858   5.896
 6174POPC   GL277810  36.336   2.644   5.998
 6174POPC   C1A77811  35.932   2.883   6.338
 6174POPC   D2A77812  36.027   2.591   6.689
 6174POPC   C3A77813  36.011   2.767   7.127
 6174POPC   C4A77814  36.016   3.107   7.434
 6174POPC   C1B77815  36.462   2.843   6.364
 6174POPC   C2B77816  36.393   2.939   6.796
 6174POPC   C3B77817  36.482   2.992   7.216
 6174POPC   C4B77818  36.467   2.762   7.587
 6175POPC   NC377819  24.858  25.293   5.189
 6175POPC   PO477820  24.277  25.287   5.541
 6175POPC   GL177821  24.338  25.053   5.929
 6175POPC   GL277822  24.510  25.404   5.984
 6175POPC   C1A77823  24.459  25.090   6.360
 6175POPC   D2A77824  24.549  25.461   6.565
 6175POPC   C3A77825  24.415  25.282   6.917
 6175POPC   C4A77826  24.538  25.006   7.228
 6175POPC   C1B77827  24.915  25.442   6.204
 6175POPC   C2B77828  25.104  25.460   6.602
 6175POPC   C3B77829  24.905  25.465   6.967
 6175POPC   C4B77830  24.668  25.502   7.308
 6176POPC   NC377831  19.106  17.594   5.411
 6176POPC   PO477832  19.540  17.117   5.589
 6176POPC   GL177833  19.280  17.377   5.873
 6176POPC   GL277834  19.293  17.746   5.870
 6176POPC   C1A77835  18.982  17.370   6.237
 6176POPC   D2A77836  18.975  17.544   6.652
 6176POPC   C3A77837  18.804  17.409   7.057
 6176POPC   C4A77838  18.948  17.368   7.491
 6176POPC   C1B77839  19.410  17.681   6.289
 6176POPC   C2B77840  19.385  17.834   6.695
 6176POPC   C3B77841  19.321  17.561   7.043
 6176POPC   C4B77842  19.398  17.740   7.418
 6177POPC   NC377843  40.080  15.052   5.331
 6177POPC   PO477844  39.777  15.581   5.651
 6177POPC   GL177845  39.603  15.281   5.911
 6177POPC   GL277846  39.806  15.011   5.796
 6177POPC   C1A77847  39.584  15.234   6.305
 6177POPC   D2A77848  39.948  15.340   6.454
 6177POPC   C3A77849  39.882  15.341   6.865
 6177POPC   C4A77850  40.105  15.299   7.210
 6177POPC   C1B77851  39.998  14.910   6.191
 6177POPC   C2B77852  39.861  14.860   6.621
 6177POPC   C3B77853  39.915  14.846   7.059
 6177POPC   C4B77854  40.279  14.814   7.334
 6178POPC   NC377855  34.552   1.485   5.514
 6178POPC   PO477856  33.929   1.628   5.509
 6178POPC   GL177857  34.147   1.319   5.832
 6178POPC   GL277858  34.401   1.013   5.786
 6178POPC   C1A77859  34.349   1.290   6.255
 6178POPC   D2A77860  34.739   1.428   6.486
 6178POPC   C3A77861  34.694   1.360   6.905
 6178POPC   C4A77862  34.299   1.300   7.078
 6178POPC   C1B77863  34.713   0.934   6.153
 6178POPC   C2B77864  34.856   0.913   6.601
 6178POPC   C3B77865  34.580   0.860   6.955
 6178POPC   C4B77866  34.485   0.878   7.382
 6179POPC   NC377867  18.862  31.158   5.468
 6179POPC   PO477868  19.017  30.481   5.384
 6179POPC   GL177869  19.185  30.614   5.781
 6179POPC   GL277870  19.445  30.353   5.884
 6179POPC   C1A77871  19.056  30.879   6.152
 6179POPC   D2A77872  19.059  30.717   6.585
 6179POPC   C3A77873  19.112  30.907   6.993
 6179POPC   C4A77874  18.799  30.863   7.319
 6179POPC   C1B77875  19.491  30.645   6.268
 6179POPC   C2B77876  19.553  30.716   6.714
 6179POPC   C3B77877  19.364  30.460   7.006
 6179POPC   C4B77878  19.199  30.533   7.383
 6180POPC   NC377879  29.600  26.647   5.468
 6180POPC   PO477880  30.333  26.477   5.359
 6180POPC   GL177881  30.229  26.607   5.785
 6180POPC   GL277882  29.992  26.884   5.757
 6180POPC   C1A77883  29.967  26.554   6.194
 6180POPC   D2A77884  29.657  26.702   6.540
 6180POPC   C3A77885  29.859  26.588   6.958
 6180POPC   C4A77886  30.316  26.738   7.009
 6180POPC   C1B77887  29.909  27.049   6.196
 6180POPC   C2B77888  30.040  27.010   6.656
 6180POPC   C3B77889  29.941  27.055   7.132
 6180POPC   C4B77890  30.003  27.226   7.557
 6181POPC   NC377891  29.357  35.952   5.431
 6181POPC   PO477892  28.838  36.323   5.496
 6181POPC   GL177893  28.992  36.136   5.844
 6181POPC   GL277894  29.314  36.161   5.885
 6181POPC   C1A77895  28.974  36.096   6.273
 6181POPC   D2A77896  29.196  36.061   6.656
 6181POPC   C3A77897  28.984  36.174   7.053
 6181POPC   C4A77898  28.900  36.240   7.513
 6181POPC   C1B77899  29.464  36.319   6.265
 6181POPC   C2B77900  29.687  36.206   6.623
 6181POPC   C3B77901  29.587  36.077   7.018
 6181POPC   C4B77902  29.444  36.292   7.347
 6182POPC   NC377903   8.345   1.801   5.300
 6182POPC   PO477904   8.093   2.390   5.333
 6182POPC   GL177905   8.284   2.190   5.744
 6182POPC   GL277906   8.405   1.827   5.805
 6182POPC   C1A77907   8.095   2.066   6.158
 6182POPC   D2A77908   8.254   2.158   6.567
 6182POPC   C3A77909   8.063   2.146   6.973
 6182POPC   C4A77910   8.353   2.346   7.268
 6182POPC   C1B77911   8.252   1.591   6.173
 6182POPC   C2B77912   8.096   1.668   6.574
 6182POPC   C3B77913   8.306   1.711   6.956
 6182POPC   C4B77914   8.068   1.742   7.336
 6183POPC   NC377915  42.755   0.966   5.376
 6183POPC   PO477916  43.348   1.236   5.236
 6183POPC   GL177917  43.203   1.237   5.697
 6183POPC   GL277918  42.964   1.486   5.831
 6183POPC   C1A77919  43.423   1.246   6.127
 6183POPC   D2A77920  43.357   1.388   6.565
 6183POPC   C3A77921  43.469   1.183   6.918
 6183POPC   C4A77922  43.297   0.827   7.120
 6183POPC   C1B77923  42.933   1.298   6.249
 6183POPC   C2B77924  42.861   1.337   6.680
 6183POPC   C3B77925  42.934   1.241   7.101
 6183POPC   C4B77926  42.886   1.412   7.497
 6184POPC   NC377927  14.330  10.900   5.570
 6184POPC   PO477928  14.242  10.183   5.520
 6184POPC   GL177929  14.390  10.491   5.852
 6184POPC   GL277930  14.163  10.720   6.007
 6184POPC   C1A77931  14.527  10.460   6.275
 6184POPC   D2A77932  14.403  10.454   6.691
 6184POPC   C3A77933  14.732  10.426   7.013
 6184POPC   C4A77934  14.697  10.588   7.437
 6184POPC   C1B77935  13.998  10.367   6.220
 6184POPC   C2B77936  13.778  10.399   6.602
 6184POPC   C3B77937  13.981  10.529   6.961
 6184POPC   C4B77938  14.268  10.403   7.214
 6185POPC   NC377939   8.555   2.489   5.425
 6185POPC   PO477940   9.277   2.703   5.391
 6185POPC   GL177941   9.069   2.571   5.779
 6185POPC   GL277942   8.681   2.621   5.911
 6185POPC   C1A77943   9.108   2.651   6.219
 6185POPC   D2A77944   9.075   2.958   6.544
 6185POPC   C3A77945   9.114   2.711   6.912
 6185POPC   C4A77946   9.350   2.862   7.209
 6185POPC   C1B77947   8.584   2.848   6.340
 6185POPC   C2B77948   8.628   2.861   6.830
 6185POPC   C3B77949   8.780   2.862   7.279
 6185POPC   C4B77950   8.623   2.602   7.657
 6186POPC   NC377951  20.255  31.495   5.201
 6186POPC   PO477952  20.861  31.305   5.197
 6186POPC   GL177953  20.652  31.526   5.587
 6186POPC   GL277954  20.330  31.686   5.807
 6186POPC   C1A77955  20.765  31.509   6.038
 6186POPC   D2A77956  20.646  31.669   6.456
 6186POPC   C3A77957  20.811  31.408   6.779
 6186POPC   C4A77958  20.770  31.484   7.203
 6186POPC   C1B77959  20.282  31.395   6.214
 6186POPC   C2B77960  20.289  31.189   6.622
 6186POPC   C3B77961  20.290  31.381   7.034
 6186POPC   C4B77962  20.239  31.562   7.428
 6187POPC   NC377963  29.228  16.022   5.011
 6187POPC   PO477964  28.963  15.837   5.618
 6187POPC   GL177965  29.120  15.853   6.019
 6187POPC   GL277966  29.035  16.203   6.080
 6187POPC   C1A77967  29.321  15.939   6.431
 6187POPC   D2A77968  29.438  16.244   6.792
 6187POPC   C3A77969  29.503  16.038   7.191
 6187POPC   C4A77970  29.184  15.703   7.264
 6187POPC   C1B77971  28.802  15.987   6.436
 6187POPC   C2B77972  28.980  15.951   6.831
 6187POPC   C3B77973  29.028  16.190   7.174
 6187POPC   C4B77974  29.083  16.071   7.591
 6188POPC   NC377975  26.113   1.631   5.364
 6188POPC   PO477976  26.183   2.209   5.227
 6188POPC   GL177977  26.054   2.056   5.660
 6188POPC   GL277978  25.778   1.789   5.717
 6188POPC   C1A77979  26.140   2.051   6.124
 6188POPC   D2A77980  26.148   1.839   6.550
 6188POPC   C3A77981  26.020   2.086   6.936
 6188POPC   C4A77982  26.134   2.318   7.341
 6188POPC   C1B77983  25.763   1.685   6.167
 6188POPC   C2B77984  25.626   1.878   6.572
 6188POPC   C3B77985  25.659   1.695   6.986
 6188POPC   C4B77986  25.968   1.690   7.310
 6189POPC   NC377987   8.610  42.853   5.327
 6189POPC   PO477988   9.206  43.159   5.582
 6189POPC   GL177989   8.887  43.248   5.871
 6189POPC   GL277990   8.778  42.895   5.829
 6189POPC   C1A77991   8.855  43.386   6.304
 6189POPC   D2A77992   8.707  43.175   6.681
 6189POPC   C3A77993   8.697  43.262   7.129
 6189POPC   C4A77994   8.756  42.943   7.485
 6189POPC   C1B77995   8.998  42.877   6.239
 6189POPC   C2B77996   8.974  42.722   6.678
 6189POPC   C3B77997   9.052  42.905   7.082
 6189POPC   C4B77998   9.107  43.280   7.430
 6190POPC   NC377999  10.667  40.478   5.224
 6190POPC   PO478000  10.369  40.923   5.670
 6190POPC   GL178001  10.689  40.915   5.943
 6190POPC   GL278002  10.881  40.608   5.970
 6190POPC   C1A78003  10.633  41.037   6.372
 6190POPC   D2A78004  10.304  40.819   6.580
 6190POPC   C3A78005  10.485  40.633   6.905
 6190POPC   C4A78006  10.551  40.863   7.296
 6190POPC   C1B78007  10.689  40.504   6.385
 6190POPC   C2B78008  10.258  40.322   6.479
 6190POPC   C3B78009  10.078  40.283   6.870
 6190POPC   C4B78010  10.264  40.342   7.245
 6191POPC   NC378011  15.654   5.186   5.377
 6191POPC   PO478012  14.981   5.315   5.497
 6191POPC   GL178013  15.209   5.230   5.908
 6191POPC   GL278014  15.515   5.099   5.862
 6191POPC   C1A78015  15.393   5.153   6.364
 6191POPC   D2A78016  15.139   5.051   6.718
 6191POPC   C3A78017  15.159   5.209   7.123
 6191POPC   C4A78018  15.257   4.962   7.478
 6191POPC   C1B78019  15.625   4.738   6.148
 6191POPC   C2B78020  15.442   4.663   6.585
 6191POPC   C3B78021  15.519   4.700   7.063
 6191POPC   C4B78022  15.543   4.563   7.516
 6192POPC   NC378023  30.894  18.728   5.386
 6192POPC   PO478024  30.463  19.260   5.346
 6192POPC   GL178025  30.585  19.009   5.699
 6192POPC   GL278026  30.925  19.020   5.812
 6192POPC   C1A78027  30.527  18.974   6.137
 6192POPC   D2A78028  30.750  18.957   6.563
 6192POPC   C3A78029  30.567  19.114   6.946
 6192POPC   C4A78030  30.580  18.898   7.292
 6192POPC   C1B78031  31.062  18.806   6.182
 6192POPC   C2B78032  31.234  18.772   6.620
 6192POPC   C3B78033  31.044  18.723   7.038
 6192POPC   C4B78034  31.040  18.800   7.481
 6193POPC   NC378035  23.464  41.172   5.361
 6193POPC   PO478036  23.907  40.674   5.505
 6193POPC   GL178037  23.739  40.637   5.869
 6193POPC   GL278038  23.385  40.685   5.788
 6193POPC   C1A78039  23.925  40.632   6.265
 6193POPC   D2A78040  24.090  40.803   6.616
 6193POPC   C3A78041  23.954  40.626   7.004
 6193POPC   C4A78042  24.161  40.887   7.278
 6193POPC   C1B78043  23.456  40.817   6.236
 6193POPC   C2B78044  23.561  40.730   6.666
 6193POPC   C3B78045  23.396  40.864   7.095
 6193POPC   C4B78046  23.269  40.918   7.555
 6194POPC   NC378047  33.166   6.227   5.591
 6194POPC   PO478048  32.847   5.620   5.557
 6194POPC   GL178049  33.063   5.768   5.915
 6194POPC   GL278050  32.810   6.012   5.911
 6194POPC   C1A78051  32.961   5.799   6.387
 6194POPC   D2A78052  32.815   5.757   6.852
 6194POPC   C3A78053  33.076   5.732   7.230
 6194POPC   C4A78054  33.445   5.653   7.499
 6194POPC   C1B78055  32.914   6.286   6.231
 6194POPC   C2B78056  33.030   6.277   6.634
 6194POPC   C3B78057  33.073   6.217   7.054
 6194POPC   C4B78058  32.825   6.240   7.425
 6195POPC   NC378059  34.091   7.534   5.431
 6195POPC   PO478060  33.419   7.632   5.479
 6195POPC   GL178061  33.715   7.512   5.798
 6195POPC   GL278062  33.579   7.349   6.064
 6195POPC   C1A78063  33.940   7.737   6.138
 6195POPC   D2A78064  34.150   7.919   6.513
 6195POPC   C3A78065  34.050   7.710   6.878
 6195POPC   C4A78066  33.714   7.467   7.030
 6195POPC   C1B78067  33.996   7.248   6.237
 6195POPC   C2B78068  33.977   7.148   6.672
 6195POPC   C3B78069  33.579   7.030   6.809
 6195POPC   C4B78070  33.458   7.051   7.228
 6196POPC   NC378071  39.568  18.712   5.671
 6196POPC   PO478072  39.038  18.818   5.236
 6196POPC   GL178073  39.096  18.972   5.682
 6196POPC   GL278074  38.831  18.753   5.774
 6196POPC   C1A78075  39.193  19.243   6.099
 6196POPC   D2A78076  39.263  19.457   6.523
 6196POPC   C3A78077  39.214  19.202   6.911
 6196POPC   C4A78078  39.131  19.148   7.369
 6196POPC   C1B78079  39.060  18.746   6.143
 6196POPC   C2B78080  39.058  18.914   6.536
 6196POPC   C3B78081  38.947  18.776   6.962
 6196POPC   C4B78082  39.193  18.651   7.352
 6197POPC   NC378083  42.541   6.850   5.500
 6197POPC   PO478084  42.251   6.286   5.589
 6197POPC   GL178085  42.057   6.332   5.987
 6197POPC   GL278086  42.228   6.651   6.025
 6197POPC   C1A78087  41.998   6.393   6.424
 6197POPC   D2A78088  42.301   6.684   6.628
 6197POPC   C3A78089  42.457   6.566   7.043
 6197POPC   C4A78090  42.399   6.333   7.427
 6197POPC   C1B78091  42.649   6.734   6.218
 6197POPC   C2B78092  42.847   6.687   6.635
 6197POPC   C3B78093  42.832   6.924   7.009
 6197POPC   C4B78094  42.730   6.812   7.443
 6198POPC   NC378095  21.568  16.537   5.391
 6198POPC   PO478096  20.992  16.703   5.656
 6198POPC   GL178097  21.415  16.722   5.852
 6198POPC   GL278098  21.571  17.015   5.712
 6198POPC   C1A78099  21.579  16.732   6.289
 6198POPC   D2A78100  21.377  16.811   6.712
 6198POPC   C3A78101  21.438  16.705   7.160
 6198POPC   C4A78102  21.144  16.528   7.515
 6198POPC   C1B78103  21.433  17.199   6.099
 6198POPC   C2B78104  21.567  17.260   6.530
 6198POPC   C3B78105  21.422  17.239   6.992
 6198POPC   C4B78106  21.596  17.148   7.411
 6199POPC   NC378107  22.733  36.333   5.495
 6199POPC   PO478108  23.096  35.782   5.346
 6199POPC   GL178109  23.092  35.990   5.754
 6199POPC   GL278110  22.739  36.014   5.900
 6199POPC   C1A78111  23.108  35.843   6.203
 6199POPC   D2A78112  22.980  36.037   6.613
 6199POPC   C3A78113  23.261  36.080   6.984
 6199POPC   C4A78114  23.269  35.990   7.452
 6199POPC   C1B78115  22.538  35.969   6.317
 6199POPC   C2B78116  22.510  35.843   6.759
 6199POPC   C3B78117  22.721  36.129   7.084
 6199POPC   C4B78118  22.790  36.166   7.532
 6200POPC   NC378119  26.031  14.934   5.248
 6200POPC   PO478120  26.034  14.266   5.460
 6200POPC   GL178121  26.138  14.337   5.898
 6200POPC   GL278122  26.429  14.569   6.036
 6200POPC   C1A78123  25.950  14.521   6.247
 6200POPC   D2A78124  25.865  14.708   6.621
 6200POPC   C3A78125  25.790  14.454   6.955
 6200POPC   C4A78126  25.939  14.604   7.324
 6200POPC   C1B78127  26.380  14.216   6.310
 6200POPC   C2B78128  26.192  14.277   6.683
 6200POPC   C3B78129  26.343  14.437   7.060
 6200POPC   C4B78130  26.391  14.173   7.430
 6201POPC   NC378131  20.059   3.971   5.316
 6201POPC   PO478132  19.659   3.454   5.519
 6201POPC   GL178133  19.699   3.300   5.901
 6201POPC   GL278134  20.013   3.445   5.919
 6201POPC   C1A78135  19.624   3.440   6.275
 6201POPC   D2A78136  19.771   3.543   6.651
 6201POPC   C3A78137  19.512   3.452   6.985
 6201POPC   C4A78138  19.745   3.752   7.188
 6201POPC   C1B78139  20.037   3.119   6.230
 6201POPC   C2B78140  20.144   3.055   6.626
 6201POPC   C3B78141  20.082   3.221   7.019
 6201POPC   C4B78142  20.345   3.081   7.352
 6202POPC   NC378143  11.062  20.948   5.434
 6202POPC   PO478144  11.517  20.467   5.191
 6202POPC   GL178145  11.425  20.596   5.652
 6202POPC   GL278146  11.214  20.322   5.766
 6202POPC   C1A78147  11.462  20.600   6.138
 6202POPC   D2A78148  11.266  20.824   6.453
 6202POPC   C3A78149  11.303  20.817   6.888
 6202POPC   C4A78150  11.032  21.034   7.178
 6202POPC   C1B78151  11.146  20.187   6.201
 6202POPC   C2B78152  11.247  20.344   6.612
 6202POPC   C3B78153  11.472  20.334   7.013
 6202POPC   C4B78154  11.298  20.190   7.359
 6203POPC   NC378155  37.481  31.698   5.171
 6203POPC   PO478156  38.030  31.405   5.419
 6203POPC   GL178157  37.936  31.585   5.808
 6203POPC   GL278158  37.608  31.696   5.731
 6203POPC   C1A78159  37.818  31.349   6.199
 6203POPC   D2A78160  37.575  31.376   6.570
 6203POPC   C3A78161  37.816  31.493   6.925
 6203POPC   C4A78162  37.642  31.491   7.332
 6203POPC   C1B78163  37.547  31.790   6.179
 6203POPC   C2B78164  37.526  31.883   6.623
 6203POPC   C3B78165  37.346  31.700   6.975
 6203POPC   C4B78166  37.246  31.836   7.407
 6204POPC   NC378167  26.242  44.263   5.697
 6204POPC   PO478168  26.167  44.864   5.252
 6204POPC   GL178169  26.036  44.839   5.754
 6204POPC   GL278170  25.707   0.037   5.828
 6204POPC   C1A78171  26.277  44.761   6.192
 6204POPC   D2A78172  26.245  44.459   6.558
 6204POPC   C3A78173  26.221  44.641   6.961
 6204POPC   C4A78174  26.110  44.536   7.361
 6204POPC   C1B78175  25.820  44.962   6.264
 6204POPC   C2B78176  25.784  44.778   6.680
 6204POPC   C3B78177  25.740  44.800   7.127
 6204POPC   C4B78178  25.912  44.977   7.517
 6205POPC   NC378179   8.453   0.826   5.496
 6205POPC   PO478180   8.124   1.391   5.328
 6205POPC   GL178181   8.176   1.206   5.756
 6205POPC   GL278182   8.504   1.311   5.834
 6205POPC   C1A78183   8.239   1.057   6.208
 6205POPC   D2A78184   8.357   1.246   6.626
 6205POPC   C3A78185   8.127   1.242   7.032
 6205POPC   C4A78186   7.876   0.998   7.278
 6205POPC   C1B78187   8.725   1.431   6.251
 6205POPC   C2B78188   8.829   1.385   6.698
 6205POPC   C3B78189   8.768   1.545   7.101
 6205POPC   C4B78190   8.463   1.442   7.413
 6206POPC   NC378191   6.191  34.776   5.441
 6206POPC   PO478192   5.772  34.246   5.470
 6206POPC   GL178193   5.836  34.550   5.796
 6206POPC   GL278194   6.147  34.534   5.950
 6206POPC   C1A78195   5.733  34.856   6.138
 6206POPC   D2A78196   5.544  34.841   6.566
 6206POPC   C3A78197   5.864  34.767   6.898
 6206POPC   C4A78198   5.961  34.748   7.355
 6206POPC   C1B78199   5.926  34.388   6.317
 6206POPC   C2B78200   5.989  34.208   6.727
 6206POPC   C3B78201   5.867  34.304   7.137
 6206POPC   C4B78202   6.136  34.311   7.485
 6207POPC   NC378203  24.925  23.346   5.271
 6207POPC   PO478204  25.143  23.960   5.473
 6207POPC   GL178205  25.286  23.588   5.645
 6207POPC   GL278206  25.382  23.824   5.915
 6207POPC   C1A78207  25.236  23.361   6.039
 6207POPC   D2A78208  25.423  23.531   6.405
 6207POPC   C3A78209  25.349  23.386   6.801
 6207POPC   C4A78210  25.403  23.500   7.198
 6207POPC   C1B78211  25.260  23.991   6.310
 6207POPC   C2B78212  25.112  23.845   6.710
 6207POPC   C3B78213  25.071  23.883   7.150
 6207POPC   C4B78214  25.464  24.040   7.290
 6208POPC   NC378215  13.953  21.564   5.344
 6208POPC   PO478216  13.514  21.118   5.379
 6208POPC   GL178217  13.546  21.431   5.697
 6208POPC   GL278218  13.862  21.534   5.860
 6208POPC   C1A78219  13.448  21.353   6.133
 6208POPC   D2A78220  13.516  21.199   6.541
 6208POPC   C3A78221  13.559  21.482   6.882
 6208POPC   C4A78222  13.697  21.319   7.239
 6208POPC   C1B78223  13.811  21.678   6.309
 6208POPC   C2B78224  13.946  21.827   6.734
 6208POPC   C3B78225  13.964  21.737   7.173
 6208POPC   C4B78226  14.136  21.461   7.466
 6209POPC   NC378227  17.865  10.692   5.553
 6209POPC   PO478228  17.437  10.175   5.496
 6209POPC   GL178229  17.522  10.404   5.839
 6209POPC   GL278230  17.190  10.514   5.906
 6209POPC   C1A78231  17.611  10.724   6.150
 6209POPC   D2A78232  17.419  10.834   6.539
 6209POPC   C3A78233  17.510  10.626   6.941
 6209POPC   C4A78234  17.417  10.614   7.386
 6209POPC   C1B78235  17.294  10.351   6.330
 6209POPC   C2B78236  17.492  10.114   6.689
 6209POPC   C3B78237  17.468  10.149   7.147
 6209POPC   C4B78238  17.221  10.164   7.519
 6210POPC   NC378239   6.686  26.394   5.062
 6210POPC   PO478240   6.323  25.900   5.427
 6210POPC   GL178241   6.590  25.934   5.802
 6210POPC   GL278242   6.940  25.808   5.805
 6210POPC   C1A78243   6.540  25.858   6.258
 6210POPC   D2A78244   6.352  25.857   6.683
 6210POPC   C3A78245   6.635  25.903   7.062
 6210POPC   C4A78246   6.476  26.016   7.499
 6210POPC   C1B78247   6.953  26.153   6.134
 6210POPC   C2B78248   6.889  26.114   6.591
 6210POPC   C3B78249   7.075  26.208   6.997
 6210POPC   C4B78250   6.954  26.169   7.404
 6211POPC   NC378251  24.599  42.087   5.427
 6211POPC   PO478252  24.353  42.702   5.451
 6211POPC   GL178253  24.612  42.445   5.755
 6211POPC   GL278254  24.287  42.350   5.836
 6211POPC   C1A78255  24.695  42.307   6.153
 6211POPC   D2A78256  24.679  42.473   6.557
 6211POPC   C3A78257  24.635  42.158   6.846
 6211POPC   C4A78258  24.485  42.255   7.258
 6211POPC   C1B78259  24.147  42.115   6.168
 6211POPC   C2B78260  24.025  41.905   6.526
 6211POPC   C3B78261  24.151  42.011   6.913
 6211POPC   C4B78262  24.094  41.924   7.311
 6212POPC   NC378263   8.704  31.593   5.447
 6212POPC   PO478264   9.351  31.496   5.681
 6212POPC   GL178265   8.987  31.394   5.854
 6212POPC   GL278266   8.768  31.165   5.704
 6212POPC   C1A78267   8.748  31.652   6.123
 6212POPC   D2A78268   8.627  31.630   6.553
 6212POPC   C3A78269   8.936  31.614   6.874
 6212POPC   C4A78270   9.061  31.699   7.283
 6212POPC   C1B78271   8.641  31.145   6.141
 6212POPC   C2B78272   8.806  31.139   6.525
 6212POPC   C3B78273   8.649  31.194   6.898
 6212POPC   C4B78274   8.740  31.266   7.282
 6213POPC   NC378275  17.511  14.082   5.046
 6213POPC   PO478276  17.424  13.527   5.426
 6213POPC   GL178277  17.549  13.620   5.850
 6213POPC   GL278278  17.200  13.637   5.901
 6213POPC   C1A78279  17.718  13.594   6.281
 6213POPC   D2A78280  17.592  13.465   6.699
 6213POPC   C3A78281  17.756  13.677   7.050
 6213POPC   C4A78282  17.660  13.943   7.400
 6213POPC   C1B78283  17.235  13.655   6.316
 6213POPC   C2B78284  17.132  13.737   6.708
 6213POPC   C3B78285  17.252  13.724   7.096
 6213POPC   C4B78286  17.378  13.344   7.190
 6214POPC   NC378287   6.229   0.559   5.473
 6214POPC   PO478288   5.911  44.939   5.526
 6214POPC   GL178289   5.728   0.222   5.843
 6214POPC   GL278290   6.064   0.335   5.910
 6214POPC   C1A78291   5.696   0.495   6.224
 6214POPC   D2A78292   5.877   0.531   6.634
 6214POPC   C3A78293   5.628   0.727   6.944
 6214POPC   C4A78294   5.579   0.556   7.334
 6214POPC   C1B78295   6.316   0.527   6.243
 6214POPC   C2B78296   6.351   0.729   6.657
 6214POPC   C3B78297   6.175   0.685   7.066
 6214POPC   C4B78298   6.007   0.309   7.222
 6215POPC   NC378299  20.098   6.526   5.228
 6215POPC   PO478300  19.429   6.708   5.301
 6215POPC   GL178301  19.693   6.505   5.674
 6215POPC   GL278302  20.070   6.481   5.798
 6215POPC   C1A78303  19.684   6.528   6.144
 6215POPC   D2A78304  19.896   6.746   6.502
 6215POPC   C3A78305  19.731   6.694   6.934
 6215POPC   C4A78306  19.989   6.845   7.299
 6215POPC   C1B78307  20.168   6.337   6.257
 6215POPC   C2B78308  19.985   6.222   6.689
 6215POPC   C3B78309  19.983   6.314   7.154
 6215POPC   C4B78310  20.191   6.138   7.495
 6216POPC   NC378311  27.015  40.794   5.494
 6216POPC   PO478312  26.340  40.762   5.206
 6216POPC   GL178313  26.546  40.705   5.648
 6216POPC   GL278314  26.649  40.975   5.860
 6216POPC   C1A78315  26.571  40.544   6.125
 6216POPC   D2A78316  26.825  40.564   6.556
 6216POPC   C3A78317  26.710  40.556   7.007
 6216POPC   C4A78318  27.023  40.558   7.381
 6216POPC   C1B78319  26.733  41.041   6.335
 6216POPC   C2B78320  26.648  41.021   6.806
 6216POPC   C3B78321  26.767  40.985   7.288
 6216POPC   C4B78322  26.786  41.069   7.736
 6217POPC   NC378323   9.656  18.044   4.973
 6217POPC   PO478324   9.849  18.361   5.537
 6217POPC   GL178325   9.675  18.326   5.896
 6217POPC   GL278326   9.386  18.521   5.750
 6217POPC   C1A78327   9.726  18.166   6.320
 6217POPC   D2A78328   9.644  18.123   6.772
 6217POPC   C3A78329   9.851  18.341   7.115
 6217POPC   C4A78330   9.807  18.056   7.451
 6217POPC   C1B78331   9.304  18.456   6.193
 6217POPC   C2B78332   9.487  18.575   6.583
 6217POPC   C3B78333   9.376  18.505   7.038
 6217POPC   C4B78334   9.538  18.494   7.491
 6218POPC   NC378335   4.038  15.242   5.529
 6218POPC   PO478336   4.617  14.926   5.273
 6218POPC   GL178337   4.507  15.118   5.721
 6218POPC   GL278338   4.452  15.491   5.786
 6218POPC   C1A78339   4.311  15.007   6.141
 6218POPC   D2A78340   4.447  14.786   6.526
 6218POPC   C3A78341   4.345  14.989   6.925
 6218POPC   C4A78342   4.536  15.015   7.328
 6218POPC   C1B78343   4.381  15.527   6.246
 6218POPC   C2B78344   4.218  15.459   6.701
 6218POPC   C3B78345   4.369  15.491   7.159
 6218POPC   C4B78346   4.120  15.543   7.553
 6219POPC   NC378347  41.586  33.852   5.344
 6219POPC   PO478348  41.090  33.676   5.673
 6219POPC   GL178349  41.372  33.967   5.833
 6219POPC   GL278350  41.296  33.777   6.148
 6219POPC   C1A78351  41.739  34.011   6.134
 6219POPC   D2A78352  41.714  33.771   6.541
 6219POPC   C3A78353  41.564  33.944   6.942
 6219POPC   C4A78354  41.736  34.082   7.338
 6219POPC   C1B78355  41.230  33.328   6.229
 6219POPC   C2B78356  41.328  33.208   6.633
 6219POPC   C3B78357  41.254  33.433   7.035
 6219POPC   C4B78358  41.532  33.626   7.349
 6220POPC   NC378359  18.544  24.570   5.538
 6220POPC   PO478360  17.919  24.387   5.435
 6220POPC   GL178361  18.147  24.390   5.841
 6220POPC   GL278362  18.113  24.764   5.842
 6220POPC   C1A78363  18.510  24.310   6.166
 6220POPC   D2A78364  18.740  24.506   6.542
 6220POPC   C3A78365  18.646  24.318   6.955
 6220POPC   C4A78366  18.298  24.427   7.234
 6220POPC   C1B78367  18.024  24.647   6.280
 6220POPC   C2B78368  18.073  24.614   6.729
 6220POPC   C3B78369  18.010  24.836   7.083
 6220POPC   C4B78370  18.008  24.715   7.539
 6221POPC   NC378371   6.230  17.472   5.316
 6221POPC   PO478372   6.943  17.427   5.380
 6221POPC   GL178373   6.694  17.668   5.740
 6221POPC   GL278374   6.318  17.658   5.838
 6221POPC   C1A78375   6.681  17.695   6.219
 6221POPC   D2A78376   6.835  17.551   6.620
 6221POPC   C3A78377   6.631  17.694   6.989
 6221POPC   C4A78378   6.727  17.531   7.391
 6221POPC   C1B78379   6.298  17.355   6.187
 6221POPC   C2B78380   6.334  17.434   6.638
 6221POPC   C3B78381   6.479  17.197   7.025
 6221POPC   C4B78382   6.315  17.254   7.466
 6222POPC   NC378383   5.188  15.519   5.339
 6222POPC   PO478384   5.405  14.825   5.499
 6222POPC   GL178385   5.392  15.081   5.846
 6222POPC   GL278386   5.140  15.329   5.855
 6222POPC   C1A78387   5.220  14.969   6.259
 6222POPC   D2A78388   5.010  14.869   6.615
 6222POPC   C3A78389   5.267  15.013   6.920
 6222POPC   C4A78390   5.128  15.013   7.307
 6222POPC   C1B78391   4.784  15.182   6.158
 6222POPC   C2B78392   4.668  15.258   6.578
 6222POPC   C3B78393   4.832  15.288   6.976
 6222POPC   C4B78394   4.840  15.410   7.407
 6223POPC   NC378395  37.018  33.971   5.502
 6223POPC   PO478396  36.714  33.362   5.470
 6223POPC   GL178397  36.996  33.555   5.794
 6223POPC   GL278398  36.689  33.700   5.907
 6223POPC   C1A78399  37.121  33.806   6.179
 6223POPC   D2A78400  37.102  34.091   6.536
 6223POPC   C3A78401  37.070  33.963   6.957
 6223POPC   C4A78402  36.743  34.169   7.194
 6223POPC   C1B78403  36.744  33.492   6.326
 6223POPC   C2B78404  36.889  33.469   6.773
 6223POPC   C3B78405  36.664  33.570   7.173
 6223POPC   C4B78406  36.633  33.579   7.645
 6224POPC   NC378407  31.822   3.776   5.582
 6224POPC   PO478408  31.339   3.291   5.402
 6224POPC   GL178409  31.220   3.515   5.803
 6224POPC   GL278410  31.556   3.629   5.974
 6224POPC   C1A78411  31.180   3.520   6.268
 6224POPC   D2A78412  31.544   3.509   6.568
 6224POPC   C3A78413  31.470   3.624   6.980
 6224POPC   C4A78414  31.729   3.435   7.293
 6224POPC   C1B78415  31.670   3.918   6.308
 6224POPC   C2B78416  31.685   4.047   6.736
 6224POPC   C3B78417  31.740   4.013   7.195
 6224POPC   C4B78418  31.620   3.843   7.603
 6225POPC   NC378419  16.924  26.717   5.492
 6225POPC   PO478420  17.601  26.835   5.384
 6225POPC   GL178421  17.485  26.972   5.787
 6225POPC   GL278422  17.752  27.202   5.792
 6225POPC   C1A78423  17.331  26.749   6.151
 6225POPC   D2A78424  17.268  26.622   6.582
 6225POPC   C3A78425  17.378  26.866   6.932
 6225POPC   C4A78426  17.370  26.738   7.335
 6225POPC   C1B78427  17.688  27.094   6.261
 6225POPC   C2B78428  17.799  26.937   6.671
 6225POPC   C3B78429  17.834  26.930   7.144
 6225POPC   C4B78430  17.909  26.610   7.471
 6226POPC   NC378431  21.985  23.776   5.501
 6226POPC   PO478432  22.477  23.347   5.671
 6226POPC   GL178433  22.205  23.579   5.916
 6226POPC   GL278434  21.875  23.490   5.911
 6226POPC   C1A78435  22.093  23.859   6.234
 6226POPC   D2A78436  22.157  23.726   6.633
 6226POPC   C3A78437  22.311  23.908   6.995
 6226POPC   C4A78438  22.282  23.661   7.401
 6226POPC   C1B78439  21.723  23.498   6.305
 6226POPC   C2B78440  21.647  23.665   6.675
 6226POPC   C3B78441  21.846  23.704   7.058
 6226POPC   C4B78442  21.878  23.317   7.248
 6227POPC   NC378443  21.258  30.588   5.477
 6227POPC   PO478444  21.483  31.185   5.511
 6227POPC   GL178445  21.437  30.907   5.865
 6227POPC   GL278446  21.071  30.846   5.901
 6227POPC   C1A78447  21.464  30.805   6.315
 6227POPC   D2A78448  21.601  30.831   6.754
 6227POPC   C3A78449  21.384  30.830   7.157
 6227POPC   C4A78450  21.706  30.556   7.405
 6227POPC   C1B78451  20.986  30.583   6.261
 6227POPC   C2B78452  21.230  30.423   6.608
 6227POPC   C3B78453  21.480  30.369   6.982
 6227POPC   C4B78454  21.210  30.416   7.388
 6228POPC   NC378455  43.439   8.020   5.267
 6228POPC   PO478456  43.257   8.610   5.475
 6228POPC   GL178457  43.094   8.290   5.806
 6228POPC   GL278458  43.299   8.042   5.789
 6228POPC   C1A78459  42.916   8.090   6.222
 6228POPC   D2A78460  42.728   8.230   6.656
 6228POPC   C3A78461  42.874   8.099   7.084
 6228POPC   C4A78462  42.823   8.163   7.560
 6228POPC   C1B78463  43.419   8.135   6.217
 6228POPC   C2B78464  43.264   8.051   6.643
 6228POPC   C3B78465  43.457   8.095   7.064
 6228POPC   C4B78466  43.285   8.018   7.480
 6229POPC   NC378467  21.858  18.085   5.392
 6229POPC   PO478468  22.340  18.573   5.347
 6229POPC   GL178469  22.142  18.370   5.720
 6229POPC   GL278470  21.807  18.482   5.863
 6229POPC   C1A78471  22.120  18.159   6.137
 6229POPC   D2A78472  22.172  18.336   6.542
 6229POPC   C3A78473  22.288  18.118   6.899
 6229POPC   C4A78474  22.452  18.140   7.304
 6229POPC   C1B78475  21.742  18.579   6.326
 6229POPC   C2B78476  21.741  18.462   6.790
 6229POPC   C3B78477  21.882  18.244   7.212
 6229POPC   C4B78478  21.804  17.988   7.603
 6230POPC   NC378479   4.393  13.733   5.405
 6230POPC   PO478480   3.949  13.335   5.365
 6230POPC   GL178481   4.160  13.488   5.792
 6230POPC   GL278482   4.077  13.804   5.798
 6230POPC   C1A78483   4.363  13.527   6.253
 6230POPC   D2A78484   4.603  13.366   6.691
 6230POPC   C3A78485   4.573  13.616   7.113
 6230POPC   C4A78486   4.550  13.697   7.588
 6230POPC   C1B78487   4.116  13.966   6.157
 6230POPC   C2B78488   3.967  13.810   6.538
 6230POPC   C3B78489   4.106  13.791   6.941
 6230POPC   C4B78490   4.123  14.029   7.325
 6231POPC   NC378491  40.046  43.411   5.342
 6231POPC   PO478492  39.820  42.820   5.431
 6231POPC   GL178493  40.021  42.990   5.782
 6231POPC   GL278494  40.055  43.344   5.867
 6231POPC   C1A78495  40.186  42.958   6.189
 6231POPC   D2A78496  40.010  43.090   6.604
 6231POPC   C3A78497  40.132  42.808   6.953
 6231POPC   C4A78498  40.037  42.856   7.366
 6231POPC   C1B78499  40.186  43.493   6.289
 6231POPC   C2B78500  40.345  43.478   6.715
 6231POPC   C3B78501  40.141  43.311   7.123
 6231POPC   C4B78502  40.268  43.263   7.574
 6232POPC   NC378503  14.015  35.228   5.647
 6232POPC   PO478504  14.644  35.489   5.496
 6232POPC   GL178505  14.409  35.474   5.865
 6232POPC   GL278506  14.169  35.696   5.842
 6232POPC   C1A78507  14.379  35.301   6.305
 6232POPC   D2A78508  14.566  35.318   6.739
 6232POPC   C3A78509  14.260  35.163   7.006
 6232POPC   C4A78510  14.119  34.928   7.300
 6232POPC   C1B78511  14.005  35.660   6.267
 6232POPC   C2B78512  14.096  35.566   6.680
 6232POPC   C3B78513  14.233  35.658   7.078
 6232POPC   C4B78514  14.276  35.593   7.522
 6233POPC   NC378515  41.727  37.949   5.479
 6233POPC   PO478516  41.130  37.633   5.466
 6233POPC   GL178517  41.424  37.724   5.832
 6233POPC   GL278518  41.589  37.408   5.864
 6233POPC   C1A78519  41.800  37.888   6.116
 6233POPC   D2A78520  41.872  37.945   6.569
 6233POPC   C3A78521  41.652  37.646   6.834
 6233POPC   C4A78522  41.486  37.532   7.246
 6233POPC   C1B78523  41.542  37.498   6.315
 6233POPC   C2B78524  41.204  37.598   6.576
 6233POPC   C3B78525  41.083  37.379   6.928
 6233POPC   C4B78526  40.871  37.219   7.246
 6234POPC   NC378527  24.236  41.158   5.495
 6234POPC   PO478528  24.742  41.669   5.549
 6234POPC   GL178529  24.532  41.882   5.888
 6234POPC   GL278530  24.189  41.835   5.734
 6234POPC   C1A78531  24.550  41.839   6.351
 6234POPC   D2A78532  24.667  41.533   6.674
 6234POPC   C3A78533  24.531  41.687   7.091
 6234POPC   C4A78534  24.747  41.841   7.446
 6234POPC   C1B78535  24.212  41.537   6.081
 6234POPC   C2B78536  24.191  41.414   6.502
 6234POPC   C3B78537  24.284  41.263   6.899
 6234POPC   C4B78538  24.156  41.395   7.285
 6235POPC   NC378539  39.637  11.693   5.674
 6235POPC   PO478540  38.998  12.112   5.554
 6235POPC   GL178541  39.194  11.942   5.898
 6235POPC   GL278542  39.167  12.285   6.036
 6235POPC   C1A78543  39.308  11.897   6.330
 6235POPC   D2A78544  39.242  12.004   6.756
 6235POPC   C3A78545  39.271  11.643   7.058
 6235POPC   C4A78546  39.001  11.500   7.383
 6235POPC   C1B78547  38.933  12.549   6.330
 6235POPC   C2B78548  38.925  12.544   6.764
 6235POPC   C3B78549  39.133  12.392   7.061
 6235POPC   C4B78550  39.027  12.027   7.237
 6236POPC   NC378551  42.835  34.761   5.481
 6236POPC   PO478552  43.393  34.529   5.497
 6236POPC   GL178553  43.147  34.662   5.870
 6236POPC   GL278554  42.873  34.419   5.925
 6236POPC   C1A78555  43.171  34.888   6.244
 6236POPC   D2A78556  43.369  34.846   6.665
 6236POPC   C3A78557  43.251  34.979   7.088
 6236POPC   C4A78558  43.452  34.766   7.503
 6236POPC   C1B78559  42.689  34.700   6.220
 6236POPC   C2B78560  42.839  34.829   6.631
 6236POPC   C3B78561  42.994  34.562   6.924
 6236POPC   C4B78562  42.997  34.630   7.343
 6237POPC   NC378563   5.563   2.020   5.329
 6237POPC   PO478564   6.117   1.756   5.472
 6237POPC   GL178565   5.789   1.783   5.779
 6237POPC   GL278566   5.738   2.148   5.789
 6237POPC   C1A78567   5.883   1.873   6.225
 6237POPC   D2A78568   6.176   1.944   6.570
 6237POPC   C3A78569   6.178   1.678   6.924
 6237POPC   C4A78570   5.904   1.671   7.277
 6237POPC   C1B78571   5.511   2.228   6.173
 6237POPC   C2B78572   5.609   2.097   6.617
 6237POPC   C3B78573   5.896   2.101   6.986
 6237POPC   C4B78574   6.051   2.138   7.444
 6238POPC   NC378575  34.671  39.874   5.115
 6238POPC   PO478576  34.176  40.294   5.384
 6238POPC   GL178577  34.525  40.034   5.636
 6238POPC   GL278578  34.318  39.762   5.776
 6238POPC   C1A78579  34.761  40.081   6.088
 6238POPC   D2A78580  34.609  40.336   6.504
 6238POPC   C3A78581  34.514  40.194   6.953
 6238POPC   C4A78582  34.754  39.931   7.271
 6238POPC   C1B78583  34.285  39.973   6.209
 6238POPC   C2B78584  34.344  39.815   6.639
 6238POPC   C3B78585  34.306  39.700   7.067
 6238POPC   C4B78586  34.161  39.806   7.507
 6239POPC   NC378587  43.143  15.068   5.245
 6239POPC   PO478588  43.115  15.673   5.572
 6239POPC   GL178589  43.226  15.408   5.897
 6239POPC   GL278590  43.382  15.121   5.732
 6239POPC   C1A78591  43.004  15.320   6.301
 6239POPC   D2A78592  42.719  15.155   6.633
 6239POPC   C3A78593  42.898  15.074   7.020
 6239POPC   C4A78594  42.980  15.273   7.435
 6239POPC   C1B78595  43.166  14.885   6.052
 6239POPC   C2B78596  43.191  14.855   6.514
 6239POPC   C3B78597  43.377  14.810   6.923
 6239POPC   C4B78598  43.247  14.813   7.318
 6240POPC   NC378599  42.462   3.037   5.338
 6240POPC   PO478600  41.992   2.541   5.362
 6240POPC   GL178601  42.214   2.744   5.691
 6240POPC   GL278602  42.287   2.409   5.799
 6240POPC   C1A78603  42.310   2.842   6.143
 6240POPC   D2A78604  42.492   2.976   6.583
 6240POPC   C3A78605  42.453   2.825   7.020
 6240POPC   C4A78606  42.132   2.894   7.282
 6240POPC   C1B78607  42.505   2.387   6.217
 6240POPC   C2B78608  42.475   2.447   6.673
 6240POPC   C3B78609  42.546   2.333   7.137
 6240POPC   C4B78610  42.418   2.537   7.524
 6241POPC   NC378611  29.313  25.097   5.454
 6241POPC   PO478612  28.735  24.924   5.293
 6241POPC   GL178613  28.902  25.155   5.744
 6241POPC   GL278614  29.272  25.331   5.907
 6241POPC   C1A78615  28.933  25.072   6.205
 6241POPC   D2A78616  29.178  25.130   6.585
 6241POPC   C3A78617  28.925  25.083   6.983
 6241POPC   C4A78618  28.992  24.763   7.324
 6241POPC   C1B78619  29.108  25.568   6.270
 6241POPC   C2B78620  29.022  25.581   6.719
 6241POPC   C3B78621  29.162  25.497   7.164
 6241POPC   C4B78622  28.860  25.303   7.463
 6242POPC   NC378623  40.780  10.989   5.091
 6242POPC   PO478624  40.983  10.407   5.270
 6242POPC   GL178625  40.875  10.453   5.755
 6242POPC   GL278626  40.829  10.123   5.847
 6242POPC   C1A78627  40.766  10.705   6.171
 6242POPC   D2A78628  40.844  10.879   6.611
 6242POPC   C3A78629  40.641  10.785   7.005
 6242POPC   C4A78630  40.869  10.659   7.324
 6242POPC   C1B78631  41.029  10.263   6.222
 6242POPC   C2B78632  41.096  10.445   6.561
 6242POPC   C3B78633  40.907  10.355   6.906
 6242POPC   C4B78634  41.023  10.193   7.261
 6243POPC   NC378635   3.021   0.034   5.080
 6243POPC   PO478636   2.461  44.897   5.455
 6243POPC   GL178637   2.682   0.046   5.817
 6243POPC   GL278638   3.041   0.093   5.901
 6243POPC   C1A78639   2.714  44.894   6.235
 6243POPC   D2A78640   2.870  44.724   6.587
 6243POPC   C3A78641   2.705  44.939   6.945
 6243POPC   C4A78642   2.651  44.674   7.296
 6243POPC   C1B78643   3.278  44.991   6.298
 6243POPC   C2B78644   3.286  44.936   6.770
 6243POPC   C3B78645   3.155  44.864   7.210
 6243POPC   C4B78646   3.102  44.840   7.703
 6244POPC   NC378647  40.764  24.554   5.055
 6244POPC   PO478648  40.744  24.012   5.564
 6244POPC   GL178649  40.910  24.390   5.768
 6244POPC   GL278650  40.693  24.711   5.807
 6244POPC   C1A78651  40.923  24.454   6.204
 6244POPC   D2A78652  40.737  24.240   6.554
 6244POPC   C3A78653  41.043  24.239   6.854
 6244POPC   C4A78654  41.159  24.283   7.267
 6244POPC   C1B78655  40.481  24.689   6.225
 6244POPC   C2B78656  40.734  24.763   6.616
 6244POPC   C3B78657  40.956  24.719   7.014
 6244POPC   C4B78658  40.878  24.953   7.370
 6245POPC   NC378659  34.305  13.832   5.533
 6245POPC   PO478660  34.710  13.337   5.612
 6245POPC   GL178661  34.543  13.611   5.966
 6245POPC   GL278662  34.622  13.984   5.916
 6245POPC   C1A78663  34.466  13.587   6.450
 6245POPC   D2A78664  34.428  13.277   6.807
 6245POPC   C3A78665  34.602  13.446   7.170
 6245POPC   C4A78666  34.776  13.863   7.049
 6245POPC   C1B78667  34.253  13.978   6.190
 6245POPC   C2B78668  34.115  13.945   6.610
 6245POPC   C3B78669  34.253  13.780   6.993
 6245POPC   C4B78670  34.357  13.972   7.386
 6246W        W78671  39.094   0.541   0.979
 6247W        W78672   6.275  17.638  11.356
 6248W        W78673   5.212  28.930   4.688
 6249W        W78674  41.420  39.423  13.882
 6250W        W78675  19.011  17.922   4.558
 6251W        W78676  28.612  40.030  14.841
 6252W        W78677  38.278  35.854   1.799
 6253W        W78678  23.770  27.607   0.277
 6254W        W78679   4.869  30.995  13.460
 6255W        W78680  19.431  16.271  11.611
 6256W        W78681  34.364  13.637  13.401
 6257W        W78682  31.138  18.757  14.413
 6258W        W78683   4.278  33.704   2.827
 6259W        W78684  34.895  21.657   1.468
 6260W        W78685  11.154   4.407  11.944
 6261W        W78686  15.236   9.543  12.966
 6262W        W78687  36.590  41.080   3.504
 6263W        W78688  43.855  20.628  12.165
 6264W        W78689   5.720  32.305   2.902
 6265W        W78690   3.901  35.958   4.259
 6266W        W78691  27.963  15.498  11.365
 6267W        W78692   9.335  19.480   4.169
 6268W        W78693  22.403  12.236  11.587
 6269W        W78694  38.776  14.399   0.003
 6270W        W78695  24.025  27.388  13.914
 6271W        W78696  44.950   1.247  11.926
 6272W        W78697  18.074   9.790   2.556
 6273W        W78698  27.755  32.632   2.861
 6274W        W78699   4.482  39.986   3.283
 6275W        W78700  35.689  22.315  14.360
 6276W        W78701  25.046  42.857   2.636
 6277W        W78702   7.731   9.915   1.353
 6278W        W78703   3.788  42.503  10.998
 6279W        W78704  38.346  23.263   4.789
 6280W        W78705   8.518  13.691  13.109
 6281W        W78706  20.031  39.960   1.208
 6282W        W78707  35.586  24.226  13.541
 6283W        W78708   6.947  16.077  12.045
 6284W        W78709  41.942  14.558   1.366
 6285W        W78710  24.585  44.249   5.180
 6286W        W78711  35.220  31.597  11.575
 6287W        W78712   8.810   9.095  11.487
 6288W        W78713  34.537  23.234  10.918
 6289W        W78714   3.764  33.925  14.801
 6290W        W78715  35.162   7.778  10.758
 6291W        W78716   9.897  18.584   0.504
 6292W        W78717  33.170  32.636   1.822
 6293W        W78718  21.331  17.677  11.495
 6294W        W78719  32.361  33.321   2.253
 6295W        W78720  15.650  33.702   0.702
 6296W        W78721  12.546  31.657  14.075
 6297W        W78722  40.847  25.677   4.955
 6298W        W78723   0.287  31.220   2.261
 6299W        W78724  35.986   4.628   2.568
 6300W        W78725  21.615  12.386  10.926
 6301W        W78726  10.510  23.356  10.208
 6302W        W78727   1.260   8.480   1.341
 6303W        W78728  12.409   1.379   5.416
 6304W        W78729   2.792   0.534  14.390
 6305W        W78730  29.006  29.206   3.105
 6306W        W78731  24.798  10.257  11.072
 6307W        W78732  44.301  16.561   3.117
 6308W        W78733  26.563  18.123  14.792
 6309W        W78734   3.651  35.575  11.481
 6310W        W78735  28.035   5.866  14.976
 6311W        W78736  29.485  17.726  13.842
 6312W        W78737  44.425  30.635   4.303
 6313W        W78738  33.728  24.898  11.108
 6314W        W78739  23.384  17.800  14.559
 6315W        W78740   8.865  38.834  13.422
 6316W        W78741  44.902  37.071  11.557
 6317W        W78742  44.262  31.403   4.652
 6318W        W78743  43.427   8.688   1.405
 6319W        W78744  18.688  32.048   4.167
 6320W        W78745  22.294  19.199  10.448
 6321W        W78746  30.476  25.518   3.121
 6322W        W78747   0.232  34.980  10.396
 6323W        W78748  10.602  41.537   4.510
 6324W        W78749  43.291  10.776   0.268
 6325W        W78750  34.651  38.125   3.217
 6326W        W78751   9.253  42.925  12.766
 6327W        W78752  38.736  30.484  11.676
 6328W        W78753  19.697  25.419   2.835
 6329W        W78754  24.483  36.415  14.466
 6330W        W78755   6.656   8.826   2.762
 6331W        W78756  10.379  37.799  12.672
 6332W        W78757  15.821  33.938   1.178
 6333W        W78758  34.718  25.795   2.538
 6334W        W78759  29.199  30.130  14.478
 6335W        W78760  43.231  16.721  10.771
 6336W        W78761  38.554   6.675  12.406
 6337W        W78762   9.829  20.042  11.592
 6338W        W78763   6.923  32.322   4.564
 6339W        W78764   8.302  24.540   2.204
 6340W        W78765  16.737  26.669   1.838
 6341W        W78766  31.956  21.454  11.039
 6342W        W78767  34.091   8.175   2.771
 6343W        W78768  35.366  42.807   4.547
 6344W        W78769   5.131  39.313  10.671
 6345W        W78770  33.993  43.833   3.012
 6346W        W78771  39.933  21.122  13.266
 6347W        W78772   2.239  11.340   0.014
 6348W        W78773   2.762  31.565  11.884
 6349W        W78774  33.184  28.593   1.897
 6350W        W78775  23.061  44.540   2.515
 6351W        W78776  18.149  27.246  13.977
 6352W        W78777  42.933  36.491   4.061
 6353W        W78778  37.424  23.920  10.592
 6354W        W78779   6.915   4.173  14.376
 6355W        W78780   7.090  28.067  13.999
 6356W        W78781  23.509  40.760  11.227
 6357W        W78782  10.774  20.628  14.031
 6358W        W78783  16.592  37.311   2.659
 6359W        W78784  12.924  11.067  13.540
 6360W        W78785  34.378  34.126  11.234
 6361W        W78786  18.760  16.568   2.326
 6362W        W78787  20.166  31.878  12.043
 6363W        W78788  18.507   8.353   4.321
 6364W        W78789  21.600  42.091   4.584
 6365W        W78790  15.289   6.411  12.071
 6366W        W78791  20.835  30.597   2.184
 6367W        W78792  20.558  33.435   3.612
 6368W        W78793  23.248  14.259   2.698
 6369W        W78794  17.822  36.573  12.194
 6370W        W78795   1.912  26.430   1.342
 6371W        W78796  28.410  20.652  11.674
 6372W        W78797   3.388   7.998  10.444
 6373W        W78798  37.901  29.731  11.276
 6374W        W78799  11.939   1.014  10.610
 6375W        W78800   1.730  39.982  13.871
 6376W        W78801  17.160   9.253   9.882
 6377W        W78802  40.953   5.899  11.723
 6378W        W78803  16.303  30.320   3.814
 6379W        W78804   6.738  14.195   4.924
 6380W        W78805  44.361  38.027   4.248
 6381W        W78806   9.931   5.393   3.204
 6382W        W78807  39.647   6.283   2.763
 6383W        W78808  30.184  42.582   0.042
 6384W        W78809  10.653  37.409  11.132
 6385W        W78810  38.650  21.607  11.369
 6386W        W78811  34.165  30.925   4.575
 6387W        W78812   2.659  26.657  13.341
 6388W        W78813  44.067  28.698   3.102
 6389W        W78814  32.202  36.874  12.013
 6390W        W78815  34.027   3.735   2.135
 6391W        W78816   8.188  32.876   3.649
 6392W        W78817   2.053  29.381  11.069
 6393W        W78818  10.672  28.401   1.568
 6394W        W78819   9.885  40.949  14.072
 6395W        W78820  12.848   4.659   2.843
 6396W        W78821  33.852  34.060  11.536
 6397W        W78822  17.484   7.263  14.495
 6398W        W78823  16.677  36.084  12.893
 6399W        W78824  39.893   9.364   4.116
 6400W        W78825  29.392  20.835  12.038
 6401W        W78826  26.244  30.660  11.430
 6402W        W78827  26.484  22.548  10.689
 6403W        W78828   9.504  33.794  12.879
 6404W        W78829   9.860  41.091   0.705
 6405W        W78830  41.731   6.147  11.117
 6406W        W78831  17.711  30.330  12.124
 6407W        W78832   0.761  26.862   2.301
 6408W        W78833  16.740  21.189  13.141
 6409W        W78834   5.980   2.861   0.250
 6410W        W78835   1.995  24.650  12.356
 6411W        W78836   7.881  18.773  10.608
 6412W        W78837  43.953  13.809  13.928
 6413W        W78838   0.408   0.426   2.739
 6414W        W78839  28.325   0.787  14.052
 6415W        W78840  35.088  20.765   2.718
 6416W        W78841  11.142  16.258   4.196
 6417W        W78842   4.464  22.081   4.545
 6418W        W78843   6.235  43.240   4.656
 6419W        W78844   0.990  11.353  13.683
 6420W        W78845  27.897  19.626  12.326
 6421W        W78846  44.483  43.470   4.520
 6422W        W78847  20.594  36.111  14.110
 6423W        W78848  35.472   6.135   2.156
 6424W        W78849  14.705  20.265   4.580
 6425W        W78850  10.242  17.291   5.150
 6426W        W78851  35.991   9.797   3.190
 6427W        W78852  10.688  32.681  13.294
 6428W        W78853  38.050  26.638   5.001
 6429W        W78854  18.771  40.024   0.730
 6430W        W78855  16.638  40.561   4.376
 6431W        W78856  33.252  40.433  10.124
 6432W        W78857  41.842   3.993   4.195
 6433W        W78858   7.405  16.121   2.804
 6434W        W78859  17.891  17.674   2.212
 6435W        W78860  33.645  44.936  10.294
 6436W        W78861  35.989  38.824  12.174
 6437W        W78862   2.306  28.259  10.859
 6438W        W78863   1.021  27.084   0.309
 6439W        W78864  12.239   9.393   2.627
 6440W        W78865  37.760  41.237  13.379
 6441W        W78866  30.659  25.993  13.930
 6442W        W78867  37.554  19.370  13.466
 6443W        W78868  15.861  24.668   0.934
 6444W        W78869  43.434  25.309  11.574
 6445W        W78870  35.650  42.519   0.839
 6446W        W78871   5.068  29.664   0.384
 6447W        W78872   2.176   9.072   4.396
 6448W        W78873   9.162  15.265   0.192
 6449W        W78874   6.120   2.060   0.774
 6450W        W78875  42.809  12.280   3.751
 6451W        W78876   4.529  32.057  12.310
 6452W        W78877   6.222  37.995   3.439
 6453W        W78878   9.436   3.838   0.313
 6454W        W78879   8.285  42.119  12.434
 6455W        W78880   4.966  27.201   3.774
 6456W        W78881  41.864   1.964   3.058
 6457W        W78882  31.726  14.782   4.571
 6458W        W78883   2.808  18.846  13.726
 6459W        W78884  39.308   1.023   3.155
 6460W        W78885  17.170  22.499  12.492
 6461W        W78886  40.766  19.748   0.358
 6462W        W78887   7.378  30.896   4.140
 6463W        W78888  11.484  28.042   4.108
 6464W        W78889  23.787  28.990   4.070
 6465W        W78890  29.128  22.196  13.522
 6466W        W78891  38.903  14.382   2.213
 6467W        W78892  27.761  15.326  12.070
 6468W        W78893  20.689  24.790  11.645
 6469W        W78894  20.145   3.674  14.377
 6470W        W78895  20.131  15.791   4.207
 6471W        W78896  43.377   2.453   0.012
 6472W        W78897  43.403  30.147  14.706
 6473W        W78898   2.025  21.083   2.337
 6474W        W78899  30.162  33.684   0.352
 6475W        W78900   4.908   3.181  14.567
 6476W        W78901  26.284  31.866   3.784
 6477W        W78902  23.254  35.058   1.305
 6478W        W78903  33.565  36.326   1.401
 6479W        W78904  18.347  28.387  13.237
 6480W        W78905   4.657   3.670  10.587
 6481W        W78906  21.962  34.658   2.159
 6482W        W78907  13.292   8.313   0.225
 6483W        W78908   1.071  30.281   2.656
 6484W        W78909   6.746  12.907   3.766
 6485W        W78910  23.426  35.883   4.562
 6486W        W78911  43.349  38.242  14.855
 6487W        W78912  19.442   4.717   4.704
 6488W        W78913  30.581  27.845   4.098
 6489W        W78914  14.850  11.287   3.088
 6490W        W78915  15.735   2.029   4.819
 6491W        W78916  41.246  23.107  14.315
 6492W        W78917  27.050  10.886  11.477
 6493W        W78918  36.939   5.853  13.044
 6494W        W78919   6.676  41.965   4.309
 6495W        W78920   1.342   6.285   4.670
 6496W        W78921   5.397  44.325   1.793
 6497W        W78922  42.539   1.786  12.580
 6498W        W78923   8.052  10.079   4.613
 6499W        W78924  10.285   6.274  14.971
 6500W        W78925  23.104  37.326   1.387
 6501W        W78926  35.904  18.517   3.801
 6502W        W78927  29.547  39.676  14.757
 6503W        W78928  30.458  11.993   2.221
 6504W        W78929  11.593  38.021   4.026
 6505W        W78930  43.268  32.709   1.534
 6506W        W78931  11.173  13.643  13.718
 6507W        W78932  21.729  34.009  10.691
 6508W        W78933  38.756  29.313  10.936
 6509W        W78934   9.209   2.847   2.696
 6510W        W78935  11.301   7.256   3.920
 6511W        W78936   0.439  14.159   4.663
 6512W        W78937  26.036  21.045  14.322
 6513W        W78938  29.393   4.636  10.477
 6514W        W78939   5.604  35.579   2.450
 6515W        W78940  33.330  18.457   0.895
 6516W        W78941  43.401   3.057  11.713
 6517W        W78942  26.462  31.526  14.368
 6518W        W78943   5.420  11.887   4.781
 6519W        W78944   3.145  22.054   0.753
 6520W        W78945   2.162  40.503  13.838
 6521W        W78946  24.176  22.200   0.709
 6522W        W78947  33.078   1.057   0.474
 6523W        W78948  18.726  41.536  12.064
 6524W        W78949   9.710  43.029   1.409
 6525W        W78950  43.154  10.299   2.327
 6526W        W78951  41.050  12.539  14.515
 6527W        W78952  17.342  42.970   2.976
 6528W        W78953  37.469  42.512  10.716
 6529W        W78954  34.084   2.204   1.072
 6530W        W78955  34.355  27.116  10.616
 6531W        W78956  37.963   5.425   4.196
 6532W        W78957  38.893  17.296  14.864
 6533W        W78958   2.789   2.904   2.105
 6534W        W78959   4.695  34.223  13.380
 6535W        W78960  33.902  30.897   1.456
 6536W        W78961  17.023  38.581   1.870
 6537W        W78962  25.087  42.962   0.710
 6538W        W78963  21.260  21.708   0.314
 6539W        W78964  37.914  33.573  14.345
 6540W        W78965   3.861  38.402   4.640
 6541W        W78966  39.943  10.282  12.447
 6542W        W78967  13.517  18.852   1.146
 6543W        W78968   6.482   6.824  12.579
 6544W        W78969  10.950  31.728   1.459
 6545W        W78970  32.181  15.216  11.048
 6546W        W78971   7.895   6.475  11.760
 6547W        W78972  12.332   6.707  14.887
 6548W        W78973  22.231  23.892   0.661
 6549W        W78974  26.934  17.213   2.405
 6550W        W78975  41.371  14.148  12.033
 6551W        W78976   0.439  17.535   3.588
 6552W        W78977  29.945  21.717   1.767
 6553W        W78978  13.510  38.685  12.862
 6554W        W78979  24.486   8.219   4.708
 6555W        W78980   1.855   7.682  13.789
 6556W        W78981  13.108  16.351   4.106
 6557W        W78982  21.306   5.181  13.893
 6558W        W78983  13.688  44.097  14.207
 6559W        W78984  18.401  37.032  11.560
 6560W        W78985  42.801  37.901   4.455
 6561W        W78986  32.109  10.863   2.308
 6562W        W78987   5.190  14.073  13.112
 6563W        W78988  11.094  37.241  11.478
 6564W        W78989  24.628  21.328  11.843
 6565W        W78990  32.764   3.346  10.609
 6566W        W78991   5.181  44.339   3.281
 6567W        W78992   2.236  41.558   1.236
 6568W        W78993  19.252  15.561  11.913
 6569W        W78994  27.490  30.650  12.100
 6570W        W78995   5.777   7.214  13.391
 6571W        W78996  23.773   3.695  13.027
 6572W        W78997  37.292  34.505   3.846
 6573W        W78998   5.310  25.541  13.406
 6574W        W78999  30.019  24.578  10.924
 6575W        W79000  22.874   4.236  10.692
 6576W        W79001  23.467  14.848   1.866
 6577W        W79002   1.396  19.367  11.161
 6578W        W79003  16.932  20.004  11.497
 6579W        W79004  26.153  26.909  14.574
 6580W        W79005  35.481   7.972   0.420
 6581W        W79006  25.176  31.650  11.562
 6582W        W79007   7.841  31.077   2.651
 6583W        W79008  10.702  39.483   3.704
 6584W        W79009   0.925  18.734   2.304
 6585W        W79010  32.060  27.956   3.384
 6586W        W79011  31.501  10.921  12.120
 6587W        W79012  11.882  32.548   4.726
 6588W        W79013  14.950   1.258  14.954
 6589W        W79014  22.839  17.178  10.719
 6590W        W79015  33.036   3.330  11.125
 6591W        W79016  25.556  30.436  11.950
 6592W        W79017   0.754   1.057   1.248
 6593W        W79018   1.494  20.083  11.884
 6594W        W79019  17.219  16.867  12.098
 6595W        W79020  44.518  32.491   3.286
 6596W        W79021  38.459   2.503   4.372
 6597W        W79022  22.128  38.904   0.376
 6598W        W79023  31.819  36.684  11.219
 6599W        W79024  28.089  21.761   4.888
 6600W        W79025  22.361  30.354   0.313
 6601W        W79026   5.299  36.771   0.365
 6602W        W79027  32.662   7.242  12.955
 6603W        W79028  32.860   1.581   1.729
 6604W        W79029  19.467  38.372   0.406
 6605W        W79030  26.636  17.294   4.642
 6606W        W79031   3.042  17.274  14.769
 6607W        W79032  20.162  34.425  11.489
 6608W        W79033  22.266   9.058   5.282
 6609W        W79034  35.962   3.491   0.303
 6610W        W79035  26.369   8.896   4.169
 6611W        W79036  39.981  24.926   3.156
 6612W        W79037   1.443  22.765  14.567
 6613W        W79038  34.305   1.827  11.149
 6614W        W79039   1.866  42.943   1.767
 6615W        W79040  20.999  30.843  13.911
 6616W        W79041  35.354   7.897   2.395
 6617W        W79042  29.526  24.512   4.705
 6618W        W79043  23.694  38.074  14.025
 6619W        W79044  42.388  29.962  13.547
 6620W        W79045  36.023  33.562  10.855
 6621W        W79046  16.286  40.907   3.200
 6622W        W79047  15.281   5.477  10.906
 6623W        W79048  16.792  12.197   2.485
 6624W        W79049  17.333  22.444  14.061
 6625W        W79050  19.611  20.492   3.099
 6626W        W79051  43.071  38.556  12.486
 6627W        W79052  21.372  13.346  10.613
 6628W        W79053  42.782  33.282   2.255
 6629W        W79054   7.655   5.964  13.534
 6630W        W79055  19.022  25.169  14.056
 6631W        W79056  43.362  39.667  12.991
 6632W        W79057  32.808  31.588  12.661
 6633W        W79058  32.466  15.925  10.163
 6634W        W79059  20.203   6.959   2.248
 6635W        W79060  28.985  10.754  12.756
 6636W        W79061   5.958   6.152  12.648
 6637W        W79062   8.879  37.667  11.183
 6638W        W79063   2.389  28.940  14.379
 6639W        W79064  41.465  18.219  14.368
 6640W        W79065  17.217   8.816  13.284
 6641W        W79066  10.850  11.994  10.740
 6642W        W79067   2.940  19.243  14.539
 6643W        W79068  30.148  42.168  12.314
 6644W        W79069   5.449  43.035   3.611
 6645W        W79070   4.020  13.119  13.489
 6646W        W79071  34.577  10.734  12.803
 6647W        W79072  33.597  41.876   3.763
 6648W        W79073  27.138  26.047  12.027
 6649W        W79074  38.831  25.514  13.631
 6650W        W79075   2.984  44.110  14.563
 6651W        W79076  26.967  21.849   0.495
 6652W        W79077  33.914  36.288  14.702
 6653W        W79078  35.539  31.991  12.676
 6654W        W79079   4.621   2.987   0.332
 6655W        W79080  21.736  37.042  11.732
 6656W        W79081   5.758  25.138  11.236
 6657W        W79082  20.334  32.859   1.398
 6658W        W79083  22.755   4.763  13.905
 6659W        W79084  11.172  31.413   3.383
 6660W        W79085  20.635  44.006  12.991
 6661W        W79086  26.959  25.607   3.673
 6662W        W79087  44.362  43.904  12.949
 6663W        W79088  38.764  42.275  11.052
 6664W        W79089   0.859  36.005  11.560
 6665W        W79090   8.953  34.233   2.291
 6666W        W79091   5.340   6.351   0.370
 6667W        W79092  43.077  36.889   2.661
 6668W        W79093  18.389  39.592   2.657
 6669W        W79094  34.255   1.951   4.741
 6670W        W79095   1.631  17.958   3.763
 6671W        W79096  43.282  40.882   0.748
 6672W        W79097   6.921  39.997  12.018
 6673W        W79098   2.048  12.515   2.403
 6674W        W79099  36.620  44.492   4.574
 6675W        W79100  26.937  25.645  13.966
 6676W        W79101   5.864  18.390  12.502
 6677W        W79102  44.448   4.129   0.934
 6678W        W79103  31.682  11.317  13.066
 6679W        W79104  40.255  42.006  12.577
 6680W        W79105  26.482  17.500  11.469
 6681W        W79106   6.425  26.560  12.976
 6682W        W79107  23.104  18.321   3.642
 6683W        W79108  28.414  10.714   3.780
 6684W        W79109  35.333  26.532   4.630
 6685W        W79110  14.901  27.033   1.295
 6686W        W79111   6.885   9.821  13.054
 6687W        W79112   6.820   8.946   1.285
 6688W        W79113   4.922   0.028  10.518
 6689W        W79114  16.920  36.043   4.743
 6690W        W79115  40.814  44.800  11.469
 6691W        W79116  14.527  22.982   3.105
 6692W        W79117   9.427   6.456   0.730
 6693W        W79118  11.663   3.739  12.757
 6694W        W79119  28.700  41.818   2.300
 6695W        W79120  29.179   0.987  14.769
 6696W        W79121  21.194  44.338  12.176
 6697W        W79122  22.987  26.055  11.308
 6698W        W79123  17.967  40.549   0.937
 6699W        W79124  35.831  34.632   1.339
 6700W        W79125   2.759   2.767   3.626
 6701W        W79126  11.623  21.667   3.686
 6702W        W79127  30.613   2.751   3.071
 6703W        W79128  29.535  17.948  13.385
 6704W        W79129   8.557  43.997   2.211
 6705W        W79130  43.561  28.221  14.728
 6706W        W79131   0.934  25.941   4.049
 6707W        W79132  28.748  28.109   4.524
 6708W        W79133  41.386  39.425   0.176
 6709W        W79134  17.217  40.980  11.050
 6710W        W79135  11.435  35.806   2.092
 6711W        W79136   9.070  13.256  11.136
 6712W        W79137   1.749  22.016   4.555
 6713W        W79138  23.467  39.000   1.341
 6714W        W79139  26.024  33.073  14.007
 6715W        W79140  33.914  27.383   4.563
 6716W        W79141  10.198  35.863  14.117
 6717W        W79142  33.713  11.287  13.950
 6718W        W79143   9.359  21.435  10.726
 6719W        W79144  40.102  43.769  12.496
 6720W        W79145  35.398  21.486   3.295
 6721W        W79146  21.511  15.686   0.512
 6722W        W79147  22.693  11.640  14.428
 6723W        W79148   3.470  44.698   3.193
 6724W        W79149  40.787   4.818  10.854
 6725W        W79150  29.145  31.948  12.144
 6726W        W79151  30.530  17.781   1.435
 6727W        W79152  25.428  31.195  14.923
 6728W        W79153   3.242  32.399   1.346
 6729W        W79154  16.739  16.679  10.481
 6730W        W79155  26.533  16.157   2.173
 6731W        W79156  41.874  20.120  14.064
 6732W        W79157  40.307   4.865  14.374
 6733W        W79158  20.548  36.017  11.074
 6734W        W79159  35.298  12.315   3.702
 6735W        W79160   5.843  44.873  11.889
 6736W        W79161  44.294  34.107   1.226
 6737W        W79162  24.236  16.777   2.834
 6738W        W79163  29.836  19.064  10.728
 6739W        W79164  17.967  15.988   2.871
 6740W        W79165  10.772   1.315  12.063
 6741W        W79166  23.746  30.500   4.080
 6742W        W79167   1.198   9.719   2.436
 6743W        W79168  35.842  32.233   3.436
 6744W        W79169  37.326  17.612   2.299
 6745W        W79170   9.154  23.164  14.495
 6746W        W79171  10.094  10.776   2.333
 6747W        W79172  40.923   3.859  11.247
 6748W        W79173  13.549  39.908   3.691
 6749W        W79174  23.157  31.909   2.904
 6750W        W79175  15.890  24.394   4.290
 6751W        W79176  43.728  36.544   3.795
 6752W        W79177   0.114  24.015   3.685
 6753W        W79178   0.903   4.769   2.451
 6754W        W79179  17.347  36.029  11.671
 6755W        W79180  37.062  29.921   1.446
 6756W        W79181  31.034  35.453   2.162
 6757W        W79182   3.027  22.074  10.719
 6758W        W79183  27.677  18.128   4.799
 6759W        W79184  34.528  20.406   0.236
 6760W        W79185  11.391  42.091   4.206
 6761W        W79186  21.637  34.505   1.329
 6762W        W79187  26.180  32.459  14.475
 6763W        W79188   9.287  36.840   4.418
 6764W        W79189  18.664   7.905   1.140
 6765W        W79190  31.996  12.284   3.153
 6766W        W79191  32.857  23.513   2.838
 6767W        W79192  28.587   6.989  14.792
 6768W        W79193   9.840  24.428   2.363
 6769W        W79194   5.948  21.107  13.043
 6770W        W79195  30.931  19.802   5.060
 6771W        W79196  33.990  25.805  14.929
 6772W        W79197  11.252  42.320   2.952
 6773W        W79198  17.340  11.962   2.070
 6774W        W79199  28.176   4.187   1.267
 6775W        W79200  19.253   6.566  14.721
 6776W        W79201  24.623   9.152  11.901
 6777W        W79202   0.074  35.716   1.384
 6778W        W79203  10.182  34.452   9.910
 6779W        W79204   8.591  36.578  13.434
 6780W        W79205  26.595  36.208   4.082
 6781W        W79206  11.403  38.796   0.444
 6782W        W79207  13.599  38.016   0.839
 6783W        W79208  37.093  41.762   5.024
 6784W        W79209  16.671  17.602   3.556
 6785W        W79210  22.078  41.762  13.567
 6786W        W79211  25.143  42.521  13.863
 6787W        W79212  26.733  37.984  13.388
 6788W        W79213  42.257  43.610  14.812
 6789W        W79214  16.083  40.579  14.927
 6790W        W79215  10.942  39.763   0.920
 6791W        W79216  22.190   2.222  11.469
 6792W        W79217  35.043  34.370   4.583
 6793W        W79218  15.904  40.460   2.238
 6794W        W79219  15.517  16.748   0.451
 6795W        W79220  30.715  33.015   0.908
 6796W        W79221  12.721  43.858   1.002
 6797W        W79222   5.384  21.851  11.122
 6798W        W79223   4.729  12.353   0.863
 6799W        W79224  37.914  30.774  14.340
 6800W        W79225   5.357  35.445  11.131
 6801W        W79226  24.753  14.151   1.354
 6802W        W79227   1.482  41.994  13.533
 6803W        W79228  39.588  36.408  11.620
 6804W        W79229  15.214  33.592  12.462
 6805W        W79230   5.333  17.818   0.776
 6806W        W79231   0.967  33.005   1.756
 6807W        W79232  30.063  35.154   0.876
 6808W        W79233  19.436  32.224   1.824
 6809W        W79234   1.143  12.303   0.997
 6810W        W79235  38.840  19.212   4.122
 6811W        W79236  31.216  31.168  13.154
 6812W        W79237  15.315  32.359  14.912
 6813W        W79238  36.519   8.403  11.169
 6814W        W79239  14.732  44.972  12.305
 6815W        W79240  20.608  38.805  13.554
 6816W        W79241  31.661   3.833   4.172
 6817W        W79242   1.436  29.182   2.405
 6818W        W79243   0.094  18.230  12.064
 6819W        W79244  30.337   3.891  12.438
 6820W        W79245  26.237  44.488  14.471
 6821W        W79246  17.622   9.887  14.059
 6822W        W79247  21.315  14.697  10.540
 6823W        W79248   2.784  13.639  12.497
 6824W        W79249  16.777  42.527   1.282
 6825W        W79250  32.664  10.096   4.865
 6826W        W79251  31.217   2.903   0.366
 6827W        W79252  42.066  17.295  11.823
 6828W        W79253   7.041  28.126  12.687
 6829W        W79254  19.577   4.239   1.289
 6830W        W79255  31.869  43.960   3.527
 6831W        W79256  44.302  43.877  13.891
 6832W        W79257  21.649  23.380  14.949
 6833W        W79258  15.709  12.503  10.263
 6834W        W79259  12.792  30.177   4.468
 6835W        W79260  27.502  23.938  12.493
 6836W        W79261  36.411   9.644  10.795
 6837W        W79262   4.148   2.250  14.435
 6838W        W79263  40.467   0.380  13.290
 6839W        W79264  14.015  43.049  11.215
 6840W        W79265   9.402   6.930   2.804
 6841W        W79266  20.718  27.927   4.569
 6842W        W79267  32.854  37.833  11.208
 6843W        W79268  42.506  18.740  14.989
 6844W        W79269  39.532  12.343   3.379
 6845W        W79270  31.158   5.892   1.227
 6846W        W79271  43.341  27.931  13.340
 6847W        W79272   9.309   9.307   4.713
 6848W        W79273  11.083  16.314   0.742
 6849W        W79274  20.160   4.944  13.918
 6850W        W79275  25.155   0.635  10.761
 6851W        W79276  32.626   7.395   3.365
 6852W        W79277  11.547  42.347  14.787
 6853W        W79278  43.391  34.090  13.808
 6854W        W79279  38.514  28.092  12.920
 6855W        W79280  34.402  15.359   4.331
 6856W        W79281  28.405  11.901   3.332
 6857W        W79282  37.072  37.968  11.070
 6858W        W79283  40.923  28.569   3.970
 6859W        W79284  33.522  12.644   4.570
 6860W        W79285  15.748  31.755   2.401
 6861W        W79286  40.422  33.080   4.040
 6862W        W79287  12.581  36.867   4.044
 6863W        W79288  29.962  43.794   2.276
 6864W        W79289  14.024  30.105  13.732
 6865W        W79290  29.926  37.102   1.756
 6866W        W79291  38.265  15.721   0.957
 6867W        W79292  27.485   4.937   1.898
 6868W        W79293  37.755  39.839   4.639
 6869W        W79294   9.080   1.344  13.487
 6870W        W79295  37.171  29.153  10.607
 6871W        W79296  14.662   9.070   4.386
 6872W        W79297  36.016   6.076   2.288
 6873W        W79298  34.466  23.158   3.123
 6874W        W79299  42.467  13.573   4.381
 6875W        W79300  17.233  28.973  12.184
 6876W        W79301  16.078  30.474   3.386
 6877W        W79302  43.017  34.668   2.332
 6878W        W79303   9.666  39.572   3.679
 6879W        W79304   4.888   3.897   2.236
 6880W        W79305  29.552   4.763  12.075
 6881W        W79306   2.310  37.436   3.863
 6882W        W79307  43.609  17.177   3.251
 6883W        W79308  12.552   2.410   2.709
 6884W        W79309  23.055  29.645  12.417
 6885W        W79310   3.831  42.785  13.747
 6886W        W79311  33.644  13.957   0.425
 6887W        W79312   4.471  18.041  11.273
 6888W        W79313  40.763   7.306   3.549
 6889W        W79314  23.697  20.440  13.803
 6890W        W79315  43.953  16.644  14.840
 6891W        W79316  18.146  34.677  12.907
 6892W        W79317  34.899  20.237  13.467
 6893W        W79318  22.792  13.969  11.772
 6894W        W79319  24.160  29.857  11.052
 6895W        W79320  31.870  35.552   0.482
 6896W        W79321   9.681  34.964   3.416
 6897W        W79322  39.490  19.334  13.545
 6898W        W79323   5.744  29.681   4.803
 6899W        W79324  16.503   2.862   0.266
 6900W        W79325  26.093  16.538   4.600
 6901W        W79326  13.001  37.370   1.276
 6902W        W79327  24.313  18.448   2.212
 6903W        W79328  42.272  26.855  11.992
 6904W        W79329  19.719   1.479  11.920
 6905W        W79330  26.803  27.594   1.568
 6906W        W79331   2.866  12.274   1.747
 6907W        W79332  15.996  23.078   4.370
 6908W        W79333   2.938  22.082  11.588
 6909W        W79334  42.912  36.059  13.499
 6910W        W79335  23.273  34.566   0.979
 6911W        W79336  14.107  40.264  13.114
 6912W        W79337  42.222  41.832   1.997
 6913W        W79338  18.716  43.134   1.821
 6914W        W79339  20.033  31.405   3.110
 6915W        W79340  15.297  37.641  13.976
 6916W        W79341  25.636   4.523  14.465
 6917W        W79342   7.326  16.855   4.830
 6918W        W79343   8.886  20.229  14.846
 6919W        W79344  33.414  21.971  12.250
 6920W        W79345   5.911  17.373   0.361
 6921W        W79346   3.413   3.701   2.298
 6922W        W79347  33.088  27.239   2.317
 6923W        W79348   4.322  30.781   1.460
 6924W        W79349  44.383  17.602  14.774
 6925W        W79350  14.222  10.947   4.593
 6926W        W79351  30.944  25.178  11.201
 6927W        W79352  26.246  12.787  13.904
 6928W        W79353  20.996  31.424   4.407
 6929W        W79354  28.397  37.944   0.530
 6930W        W79355   5.662  20.495  14.007
 6931W        W79356   9.684  21.602  11.971
 6932W        W79357  17.027  13.800  12.364
 6933W        W79358   0.590  13.745  11.075
 6934W        W79359   5.297  15.012  13.548
 6935W        W79360  43.079  41.345  11.561
 6936W        W79361  32.948   0.414   4.832
 6937W        W79362  29.525  38.253   0.798
 6938W        W79363   2.889  26.941  12.632
 6939W        W79364  34.668  27.470   2.762
 6940W        W79365  35.281  13.344  14.617
 6941W        W79366  34.567  32.721  14.470
 6942W        W79367  12.160  25.982   1.694
 6943W        W79368  24.010  36.781  11.598
 6944W        W79369  38.000   0.032   4.577
 6945W        W79370  22.565  41.985   1.276
 6946W        W79371  39.156  20.255   0.433
 6947W        W79372   5.866  27.740   4.642
 6948W        W79373  22.693  36.465   4.485
 6949W        W79374  43.846   1.598  14.106
 6950W        W79375   0.836   6.073   1.872
 6951W        W79376  26.500   2.862   0.754
 6952W        W79377   8.661   3.291   0.770
 6953W        W79378  33.621  12.628  11.614
 6954W        W79379  25.173  20.355   3.952
 6955W        W79380  20.013   5.894   4.186
 6956W        W79381  31.568  10.112   0.909
 6957W        W79382   1.528  17.990   0.965
 6958W        W79383  31.075  38.841  10.671
 6959W        W79384  13.909   1.409  13.339
 6960W        W79385   5.556   1.443  13.014
 6961W        W79386  31.497  11.769   1.312
 6962W        W79387  44.333  17.495  11.131
 6963W        W79388  41.337  34.013  10.781
 6964W        W79389   0.739  42.356   2.768
 6965W        W79390  32.501  39.768  10.718
 6966W        W79391  43.818  12.259  13.015
 6967W        W79392  36.326  26.659   9.988
 6968W        W79393  37.890  23.761   4.043
 6969W        W79394  25.778   2.434  13.962
 6970W        W79395  24.385  26.979  12.116
 6971W        W79396  22.081  44.697  14.344
 6972W        W79397  35.321  37.449  10.517
 6973W        W79398   1.457  10.911   1.015
 6974W        W79399  11.202  35.532   1.336
 6975W        W79400  35.893   4.483   1.695
 6976W        W79401  18.367  35.068  13.948
 6977W        W79402  37.882  19.076   3.730
 6978W        W79403  15.013  21.305  14.316
 6979W        W79404  41.988  13.735  10.611
 6980W        W79405  22.417  12.360   4.710
 6981W        W79406   5.371  23.259  14.520
 6982W        W79407  30.697  37.453   2.742
 6983W        W79408  20.664  16.217  13.548
 6984W        W79409  11.657  17.525   2.061
 6985W        W79410  15.702   1.161  11.430
 6986W        W79411  16.637  13.618   3.680
 6987W        W79412  38.656  40.015  14.025
 6988W        W79413   7.771  30.478  13.990
 6989W        W79414  42.165  15.335  13.359
 6990W        W79415  12.877  14.067   3.258
 6991W        W79416   0.206  35.324  11.683
 6992W        W79417   1.384  21.801  10.988
 6993W        W79418  43.080  19.973  12.391
 6994W        W79419  38.368  13.459   1.764
 6995W        W79420  28.570  44.326  10.625
 6996W        W79421  37.387  18.902   3.775
 6997W        W79422  14.771  35.591  13.206
 6998W        W79423  22.152  39.857  14.069
 6999W        W79424  23.677  16.546   0.895
 7000W        W79425  32.323  43.940  14.959
 7001W        W79426  26.214  36.007   4.413
 7002W        W79427  41.702  17.247   3.614
 7003W        W79428  43.837  31.207   3.045
 7004W        W79429  39.993   0.028  10.871
 7005W        W79430   9.177  42.918   1.321
 7006W        W79431  20.914   1.583   4.382
 7007W        W79432  18.683  23.447   5.087
 7008W        W79433   3.438  29.454  13.074
 7009W        W79434  20.105   5.132   0.477
 7010W        W79435  18.302   8.265  14.593
 7011W        W79436   9.658   6.871  10.367
 7012W        W79437   7.918  41.519   3.203
 7013W        W79438  24.313  40.233  11.368
 7014W        W79439  43.856  34.412   2.673
 7015W        W79440  13.816  15.761  14.067
 7016W        W79441  22.018  12.979  13.334
 7017W        W79442  44.238  24.533   1.902
 7018W        W79443  11.165  40.364  13.489
 7019W        W79444  25.687  17.736   4.078
 7020W        W79445  14.521  16.110  11.452
 7021W        W79446  37.205   1.171  12.593
 7022W        W79447  44.737  15.154   0.330
 7023W        W79448  37.072  15.352  11.407
 7024W        W79449   0.566  42.403  11.533
 7025W        W79450  36.957  37.648  13.218
 7026W        W79451  31.963  24.089   1.331
 7027W        W79452  21.717   7.956   1.420
 7028W        W79453   5.895   7.876   4.287
 7029W        W79454  18.324   1.834   3.451
 7030W        W79455  30.875  31.993  14.948
 7031W        W79456  41.417  18.161   0.241
 7032W        W79457   8.631   1.951  12.568
 7033W        W79458   3.840   7.424  11.981
 7034W        W79459  16.169  29.113  14.874
 7035W        W79460  42.965  12.864   3.206
 7036W        W79461  12.857  32.165  10.299
 7037W        W79462  27.274  17.602   2.386
 7038W        W79463  44.817   3.418   1.363
 7039W        W79464  26.317  26.965   0.433
 7040W        W79465  35.689  35.117   1.282
 7041W        W79466  31.006  10.136  11.956
 7042W        W79467  36.188   9.760   4.751
 7043W        W79468   0.360   6.884  10.202
 7044W        W79469  19.387  24.356   2.124
 7045W        W79470  23.737  14.105   0.883
 7046W        W79471  20.164  35.650   0.496
 7047W        W79472  36.618   1.904   4.227
 7048W        W79473  44.519  29.214  13.454
 7049W        W79474   2.342  10.201  10.193
 7050W        W79475  44.255   6.858  14.455
 7051W        W79476  12.851  31.359   1.072
 7052W        W79477  11.152  19.703   3.648
 7053W        W79478   7.761  43.781   0.570
 7054W        W79479  15.556  39.235   5.008
 7055W        W79480  36.553  27.577   1.788
 7056W        W79481  19.052   8.413  11.079
 7057W        W79482  32.919  42.728   0.402
 7058W        W79483   7.746  32.565  13.813
 7059W        W79484  22.798  29.867   3.831
 7060W        W79485  44.899  16.181  14.225
 7061W        W79486   0.376  21.645  13.397
 7062W        W79487  18.399  44.185   1.246
 7063W        W79488  32.988  29.176   4.145
 7064W        W79489  29.287  32.230  10.335
 7065W        W79490  13.633  11.586  13.045
 7066W        W79491  41.487  33.202   4.140
 7067W        W79492  16.216   7.152  14.228
 7068W        W79493   6.393  12.128  12.486
 7069W        W79494   8.960  17.934   2.708
 7070W        W79495   8.000   4.000  11.251
 7071W        W79496  21.465  18.959   0.401
 7072W        W79497   4.367  19.357  12.368
 7073W        W79498  27.408  11.725  14.035
 7074W        W79499   6.418  23.200  13.051
 7075W        W79500  32.683  15.099  11.315
 7076W        W79501   6.223  24.061   1.737
 7077W        W79502   5.655  41.484  12.401
 7078W        W79503  37.255  26.655  13.838
 7079W        W79504  34.084  22.634   4.785
 7080W        W79505  21.738  11.815   4.775
 7081W        W79506   8.951  36.511   2.730
 7082W        W79507  21.698  30.669  14.853
 7083W        W79508  34.624   3.893   4.788
 7084W        W79509  43.390   8.693  12.613
 7085W        W79510  19.597  10.261  10.949
 7086W        W79511  44.756  25.906  12.778
 7087W        W79512  18.719  38.530  12.506
 7088W        W79513  32.029  43.773   2.312
 7089W        W79514  40.534  19.796   0.833
 7090W        W79515   4.970  34.368   4.596
 7091W        W79516  28.705  19.618   4.147
 7092W        W79517  21.758  23.778   2.136
 7093W        W79518  19.285  20.269   0.852
 7094W        W79519  34.801  17.303   0.727
 7095W        W79520  35.151  12.189  12.411
 7096W        W79521  14.446  19.217   3.857
 7097W        W79522   1.526  12.114   1.316
 7098W        W79523   9.164  15.870  14.548
 7099W        W79524   4.606  19.222  14.497
 7100W        W79525  28.858  15.682  13.898
 7101W        W79526   5.311  23.081   4.379
 7102W        W79527  16.016  42.980   0.966
 7103W        W79528  43.475   4.230   0.663
 7104W        W79529  21.168  22.769   4.526
 7105W        W79530  13.288  21.567   2.878
 7106W        W79531  33.168   0.364   2.929
 7107W        W79532  35.528  44.388  12.902
 7108W        W79533  17.467  16.025  13.987
 7109W        W79534  11.127  38.985  13.531
 7110W        W79535  37.541  12.898  13.493
 7111W        W79536  39.619  14.916   2.314
 7112W        W79537  14.912  21.622  13.771
 7113W        W79538   7.684  27.255  11.142
 7114W        W79539  16.126  22.616  12.969
 7115W        W79540   6.689  41.508  11.669
 7116W        W79541  31.500  12.814   1.344
 7117W        W79542   9.276  12.202  12.415
 7118W        W79543  31.967   5.468   1.324
 7119W        W79544  11.123  29.150  12.247
 7120W        W79545  41.563  44.816   1.909
 7121W        W79546   0.663  44.523   1.066
 7122W        W79547   5.522  37.603  13.892
 7123W        W79548   7.253  11.570  13.903
 7124W        W79549  13.592  20.987  10.216
 7125W        W79550  37.867  44.708   4.145
 7126W        W79551  10.008   6.650  11.643
 7127W        W79552   3.886   8.998  11.597
 7128W        W79553   9.454  11.615   1.449
 7129W        W79554  22.232  18.992  14.773
 7130W        W79555  10.878   4.958   3.789
 7131W        W79556  18.725  15.057  11.110
 7132W        W79557  29.019   8.028   3.771
 7133W        W79558  19.785  21.630   4.113
 7134W        W79559  22.775  11.580   1.384
 7135W        W79560  13.432  18.541   1.870
 7136W        W79561  31.116  22.001  11.534
 7137W        W79562  16.162   4.152  13.063
 7138W        W79563  33.768  15.845  13.624
 7139W        W79564  15.533   0.330  11.372
 7140W        W79565  14.689  24.990   1.386
 7141W        W79566  43.069  40.357   0.715
 7142W        W79567  11.039  20.562  12.919
 7143W        W79568  12.620  28.440  11.184
 7144W        W79569  18.191  35.895  11.137
 7145W        W79570  16.425  18.292   4.203
 7146W        W79571  34.595  21.030  11.053
 7147W        W79572  29.085  38.818   3.285
 7148W        W79573   7.698  29.178  13.321
 7149W        W79574  42.905   6.160  11.859
 7150W        W79575  27.674  31.631  11.083
 7151W        W79576  39.361  10.411  14.944
 7152W        W79577   7.853  17.558   0.238
 7153W        W79578  10.709  21.729  12.479
 7154W        W79579  21.663  21.545  14.267
 7155W        W79580  36.199   5.604   2.410
 7156W        W79581  14.227  16.245   2.410
 7157W        W79582  14.857  18.841   0.387
 7158W        W79583  33.547   5.229   3.800
 7159W        W79584  37.303  37.897  12.926
 7160W        W79585  31.131   0.220   0.434
 7161W        W79586  34.059   6.007  10.691
 7162W        W79587  18.921  26.670   5.007
 7163W        W79588  16.413  21.022   0.951
 7164W        W79589   3.102  15.124  11.670
 7165W        W79590  10.844  15.915  14.886
 7166W        W79591  23.570  33.457  13.316
 7167W        W79592  33.358   2.182   1.331
 7168W        W79593  20.275  15.779  14.763
 7169W        W79594   5.403  11.093  14.390
 7170W        W79595  26.764  31.055   3.206
 7171W        W79596  40.552   9.406  13.444
 7172W        W79597  11.652  15.689   2.488
 7173W        W79598   0.819  26.010  13.984
 7174W        W79599  16.236  30.655  13.356
 7175W        W79600   4.646  22.189   0.692
 7176W        W79601  19.234  30.862   4.556
 7177W        W79602   2.324  17.069   2.673
 7178W        W79603  16.269  25.989   4.552
 7179W        W79604  40.026  35.550  12.343
 7180W        W79605  27.977  35.950   3.623
 7181W        W79606   9.882  44.420   0.893
 7182W        W79607  14.069  35.386  11.506
 7183W        W79608  24.875  15.691   4.559
 7184W        W79609  26.495   1.182   3.681
 7185W        W79610  25.173  36.467   3.943
 7186W        W79611   3.800   4.328   4.599
 7187W        W79612  39.401  12.452  14.022
 7188W        W79613  37.379  36.886   3.792
 7189W        W79614   7.673   8.643  14.333
 7190W        W79615  14.739  30.446   1.361
 7191W        W79616  42.219  19.087   5.031
 7192W        W79617  43.229   9.176  12.507
 7193W        W79618  17.313  29.428   3.419
 7194W        W79619   9.008  36.449  13.162
 7195W        W79620   0.260  12.096  13.581
 7196W        W79621  43.566  12.141   4.197
 7197W        W79622  36.332  24.216   0.459
 7198W        W79623  14.857  12.510   4.550
 7199W        W79624  29.436  10.548   1.281
 7200W        W79625  44.739  25.676   2.854
 7201W        W79626   1.336  25.989   2.439
 7202W        W79627  40.539  15.301  13.071
 7203W        W79628   5.804  33.423  11.656
 7204W        W79629  15.397  33.764   4.153
 7205W        W79630  32.596  27.425   3.262
 7206W        W79631  18.139   3.989   3.857
 7207W        W79632  38.921   6.119  10.986
 7208W        W79633  10.427  31.462   2.249
 7209W        W79634   3.901  18.558   2.464
 7210W        W79635  30.115   0.782   2.055
 7211W        W79636  35.667  23.170  14.389
 7212W        W79637  17.294  21.585   3.266
 7213W        W79638  39.274  18.269   2.903
 7214W        W79639  34.152  19.100   4.076
 7215W        W79640  31.692  39.266   0.358
 7216W        W79641  42.455   9.206  13.578
 7217W        W79642  36.256  36.088  13.361
 7218W        W79643  12.806   8.427   3.275
 7219W        W79644  11.779  13.561  13.312
 7220W        W79645   0.746  12.978   0.693
 7221W        W79646  18.068  17.648   4.104
 7222W        W79647  12.426   4.909   5.143
 7223W        W79648  32.060  15.542   2.464
 7224W        W79649  18.578   2.280   1.717
 7225W        W79650   6.487  25.093   4.141
 7226W        W79651  21.658  42.468  13.259
 7227W        W79652   5.377  19.941   4.412
 7228W        W79653  20.541  26.224   1.242
 7229W        W79654  27.050  20.783   3.832
 7230W        W79655  15.922   4.839   4.529
 7231W        W79656  21.695  40.957   1.245
 7232W        W79657  15.646   5.632   1.600
 7233W        W79658  22.184  39.843   1.894
 7234W        W79659   6.589  28.192  12.408
 7235W        W79660  29.122  40.418  14.190
 7236W        W79661  40.403  44.026   4.060
 7237W        W79662   5.731   6.732   2.307
 7238W        W79663   0.522  14.435  10.810
 7239W        W79664   4.668  12.022   4.742
 7240W        W79665  30.673  34.017   2.629
 7241W        W79666  30.545   7.773   2.740
 7242W        W79667  18.375  18.755   1.227
 7243W        W79668  11.574  33.004   4.733
 7244W        W79669   5.826  36.481   3.559
 7245W        W79670  22.232  39.387  14.309
 7246W        W79671  32.083  20.959   1.897
 7247W        W79672  24.465  16.762   1.402
 7248W        W79673  37.470  39.792   1.042
 7249W        W79674   8.629  22.463  11.029
 7250W        W79675   9.089  43.334  14.839
 7251W        W79676  12.282   5.368  11.883
 7252W        W79677  31.669   7.219   2.882
 7253W        W79678  15.755  40.783   4.564
 7254W        W79679  43.265  40.495   2.052
 7255W        W79680  27.923   8.092  13.776
 7256W        W79681  15.868  35.946  12.409
 7257W        W79682  20.583  15.686  13.453
 7258W        W79683  28.125   5.830   0.478
 7259W        W79684  31.459   7.144   1.472
 7260W        W79685  29.408  13.376  11.501
 7261W        W79686   4.318   9.350   2.825
 7262W        W79687  44.650  36.481  12.112
 7263W        W79688  20.972  24.164   2.161
 7264W        W79689  42.228  19.019   3.071
 7265W        W79690  23.621   8.201  12.226
 7266W        W79691  27.537   2.449   0.379
 7267W        W79692  43.342  30.554   4.971
 7268W        W79693   2.995   6.801   0.359
 7269W        W79694  33.576  25.984   2.266
 7270W        W79695  26.290  20.008  12.808
 7271W        W79696  29.154  15.956   2.758
 7272W        W79697  20.063  40.077   3.691
 7273W        W79698  34.596   9.239   0.338
 7274W        W79699  11.440   5.646  13.810
 7275W        W79700  10.684   8.422   3.967
 7276W        W79701  43.671  11.230   3.089
 7277W        W79702  35.656  23.578   4.376
 7278W        W79703   9.862  29.483   1.895
 7279W        W79704  37.920   8.333  14.087
 7280W        W79705  19.711   6.846   2.444
 7281W        W79706   3.719  19.581   2.199
 7282W        W79707  39.086  28.180  12.065
 7283W        W79708  16.802  37.429   1.686
 7284W        W79709  13.562   0.760  11.614
 7285W        W79710  25.736   8.297  14.942
 7286W        W79711  37.272  21.515   4.647
 7287W        W79712  10.902  40.125   1.334
 7288W        W79713   2.678   9.691  11.169
 7289W        W79714  23.508  42.236   0.909
 7290W        W79715  28.328  36.553  12.014
 7291W        W79716   6.814  10.127   4.172
 7292W        W79717  19.681  27.407  14.495
 7293W        W79718  22.146  36.093  12.786
 7294W        W79719  27.437  10.855   1.241
 7295W        W79720  12.451  16.041  12.032
 7296W        W79721   7.781   4.274  12.872
 7297W        W79722  19.324  18.234  13.376
 7298W        W79723  15.634  39.843   2.882
 7299W        W79724  32.402   6.721  14.572
 7300W        W79725  34.067  22.960  14.037
 7301W        W79726  24.064   0.823   3.137
 7302W        W79727  33.545  21.056   4.276
 7303W        W79728  11.347  20.982  11.584
 7304W        W79729   5.456   9.132  10.976
 7305W        W79730  34.608  33.380   2.671
 7306W        W79731  21.524  37.495  11.933
 7307W        W79732   3.156   2.950   1.749
 7308W        W79733  11.037   5.490   2.387
 7309W        W79734   8.197  12.769  14.862
 7310W        W79735   4.969  20.661  10.755
 7311W        W79736  27.071  37.537   4.567
 7312W        W79737  20.354  13.054   5.319
 7313W        W79738   8.094  42.185  13.997
 7314W        W79739  30.395  28.041   1.396
 7315W        W79740   1.010  14.790   0.932
 7316W        W79741  24.585  22.169  11.980
 7317W        W79742  30.153   9.837   2.362
 7318W        W79743   2.920  41.959   2.268
 7319W        W79744  34.944  44.327   0.804
 7320W        W79745  35.413  37.272   3.535
 7321W        W79746  14.680  29.667  11.742
 7322W        W79747  25.312  18.583  14.933
 7323W        W79748   6.328  34.891   0.304
 7324W        W79749  34.306  19.182  13.015
 7325W        W79750  12.256   6.166   3.313
 7326W        W79751  27.189   8.626  14.907
 7327W        W79752  15.740  10.138  13.551
 7328W        W79753  18.102  36.546  14.773
 7329W        W79754  34.906  19.521  14.269
 7330W        W79755  42.257  36.060  12.456
 7331W        W79756  12.266  35.350   1.652
 7332W        W79757  39.963  40.732   3.180
 7333W        W79758  30.614  41.042  13.553
 7334W        W79759  44.295  22.764   3.636
 7335W        W79760  12.655  21.428  13.504
 7336W        W79761  21.579   4.595  14.363
 7337W        W79762   7.354  29.672   2.169
 7338W        W79763  41.603  44.598   4.582
 7339W        W79764  11.655  27.424  13.838
 7340W        W79765  35.822  14.325  12.586
 7341W        W79766  14.975  10.250   4.516
 7342W        W79767   4.391   8.798   2.658
 7343W        W79768  40.250  23.109   3.050
 7344W        W79769  36.453  16.226  10.350
 7345W        W79770  33.136  12.403  12.488
 7346W        W79771  24.288  19.219   1.782
 7347W        W79772   6.874   4.932  10.639
 7348W        W79773   2.737  12.970  13.808
 7349W        W79774   6.660  18.627   4.606
 7350W        W79775  11.779  22.089  10.985
 7351W        W79776  28.050   2.810   1.144
 7352W        W79777  42.899  19.182   3.236
 7353W        W79778  18.469  19.793   4.661
 7354W        W79779  17.878   5.670  11.458
 7355W        W79780  31.057  26.996   2.806
 7356W        W79781   2.468  15.056   2.736
 7357W        W79782  29.702   2.787  11.866
 7358W        W79783   7.682  28.508   0.812
 7359W        W79784   9.327  18.431  13.369
 7360W        W79785  13.119  42.986  13.031
 7361W        W79786  43.526  20.974  14.824
 7362W        W79787  23.398  18.619   4.413
 7363W        W79788  26.959  36.235   3.673
 7364W        W79789  19.677   3.749  14.103
 7365W        W79790   4.631  32.285   4.228
 7366W        W79791  14.501   1.289  14.045
 7367W        W79792  34.077  39.665   1.416
 7368W        W79793  43.235  41.918  13.514
 7369W        W79794  38.391   6.739   1.947
 7370W        W79795   6.656  44.392   1.306
 7371W        W79796  41.480   2.834   1.744
 7372W        W79797  18.823  25.708  12.032
 7373W        W79798  34.358  27.793  13.944
 7374W        W79799  28.731  35.207   2.085
 7375W        W79800  20.054  29.237  12.443
 7376W        W79801   9.608   4.877   4.371
 7377W        W79802  33.446  37.926  14.308
 7378W        W79803  27.522  44.472  10.651
 7379W        W79804  35.055   4.383   0.335
 7380W        W79805  12.390  34.458  12.464
 7381W        W79806  32.565  23.332  13.090
 7382W        W79807  39.439  17.549   0.795
 7383W        W79808  21.712  37.461  13.777
 7384W        W79809  21.533   2.349   3.689
 7385W        W79810  26.500  38.967   4.325
 7386W        W79811  35.115  17.756  12.446
 7387W        W79812  43.953  14.676   4.100
 7388W        W79813  25.844  38.074  11.582
 7389W        W79814  35.093  20.512  12.637
 7390W        W79815   2.338  23.191  14.803
 7391W        W79816  29.682  37.329  12.522
 7392W        W79817   6.759   7.117   2.242
 7393W        W79818  21.612  39.487   3.594
 7394W        W79819  11.323  24.391  11.498
 7395W        W79820  20.970  19.445  10.717
 7396W        W79821  15.545   2.839  13.799
 7397W        W79822  24.615  31.638  14.839
 7398W        W79823  12.108  17.064  12.951
 7399W        W79824  14.931  37.833  12.522
 7400W        W79825  31.607  13.088   4.117
 7401W        W79826  29.157  37.391  11.341
 7402W        W79827  19.996   0.413  12.427
 7403W        W79828   9.740  15.603  13.895
 7404W        W79829   8.769   3.119  13.538
 7405W        W79830  17.118  27.546   3.963
 7406W        W79831  40.495  42.698   2.818
 7407W        W79832  34.405  26.449   4.710
 7408W        W79833  44.352  36.627  12.527
 7409W        W79834   2.490  10.802  11.614
 7410W        W79835  29.411  22.163   0.310
 7411W        W79836  29.846  15.708   0.736
 7412W        W79837   7.239   6.289  13.421
 7413W        W79838   4.453  25.745   3.793
 7414W        W79839  37.925  15.329  13.529
 7415W        W79840  41.176  39.977   0.376
 7416W        W79841   2.681  11.322  13.366
 7417W        W79842  42.935  10.132   4.416
 7418W        W79843  18.069  19.284  10.699
 7419W        W79844  27.605  38.448   0.731
 7420W        W79845   2.887  24.499   3.673
 7421W        W79846  23.527   4.932  13.500
 7422W        W79847  14.720  13.427   2.459
 7423W        W79848  18.071   7.905   2.014
 7424W        W79849  39.030  30.268  11.113
 7425W        W79850  10.739   5.539   1.928
 7426W        W79851  19.748  19.069   4.292
 7427W        W79852  19.656  39.329   0.804
 7428W        W79853  13.710   8.170   0.504
 7429W        W79854  26.651  29.204  14.505
 7430W        W79855  29.066  18.368   3.548
 7431W        W79856  41.208  37.618  11.116
 7432W        W79857  40.499   4.406  14.306
 7433W        W79858  26.924  11.837   4.409
 7434W        W79859  32.079  12.165   1.603
 7435W        W79860  14.496  42.512  13.574
 7436W        W79861   1.435  31.986   4.629
 7437W        W79862   0.367  14.671   1.412
 7438W        W79863  12.876   3.812   5.088
 7439W        W79864  13.158  16.761   4.647
 7440W        W79865  18.193  39.879  10.471
 7441W        W79866  28.555  28.741   2.149
 7442W        W79867   1.940  14.352  11.585
 7443W        W79868  39.581   9.244   3.169
 7444W        W79869   6.210  29.368  12.016
 7445W        W79870  13.168  39.970  11.623
 7446W        W79871   7.481   4.066  11.278
 7447W        W79872  22.744   7.128  11.371
 7448W        W79873  44.071  27.114   1.339
 7449W        W79874  38.511  42.874   4.530
 7450W        W79875  30.487   3.315   3.205
 7451W        W79876  35.417   6.949   4.552
 7452W        W79877  44.304   4.209  13.852
 7453W        W79878   0.407   2.852  13.700
 7454W        W79879  42.809  23.043   4.056
 7455W        W79880  31.240   4.223   1.253
 7456W        W79881   7.660   3.715   1.776
 7457W        W79882  22.445  11.719  12.422
 7458W        W79883  30.954  40.499   0.714
 7459W        W79884   6.239  20.162   3.797
 7460W        W79885  35.119  29.417   3.197
 7461W        W79886  27.178   7.880   0.427
 7462W        W79887   2.212  42.872   3.078
 7463W        W79888  26.942  22.967   4.190
 7464W        W79889  27.999  17.225   3.246
 7465W        W79890   7.853  29.573   1.785
 7466W        W79891   1.322  36.524   3.658
 7467W        W79892  10.277  21.222   0.992
 7468W        W79893  39.948  43.682   4.295
 7469W        W79894  44.505  11.104   0.420
 7470W        W79895  12.660  27.668  10.660
 7471W        W79896  36.450   6.651   0.383
 7472W        W79897  37.031   8.950  13.968
 7473W        W79898   9.400  43.687   1.836
 7474W        W79899  17.177  35.460   0.488
 7475W        W79900  19.073  43.377   3.962
 7476W        W79901  44.011   0.799   3.741
 7477W        W79902  38.636  30.412  13.405
 7478W        W79903  42.322  20.976  11.506
 7479W        W79904  23.218  17.757   4.497
 7480W        W79905  37.344  30.106   4.764
 7481W        W79906  42.248  36.944  12.688
 7482W        W79907   0.329  26.165  14.677
 7483W        W79908  42.457  25.212  14.142
 7484W        W79909  36.828  44.742  12.351
 7485W        W79910  41.304  36.133  11.160
 7486W        W79911  24.111  21.582  13.552
 7487W        W79912  34.184  29.007   4.496
 7488W        W79913  35.142  32.955   4.122
 7489W        W79914  19.720  31.233   1.821
 7490W        W79915  21.084   9.464  10.846
 7491W        W79916  43.033  20.298  12.782
 7492W        W79917  17.707  31.391   3.276
 7493W        W79918  36.613  33.771   5.179
 7494W        W79919  27.219  41.475  11.575
 7495W        W79920  27.328   6.545  13.462
 7496W        W79921  16.451   7.313   4.896
 7497W        W79922   8.702  20.261   4.121
 7498W        W79923  22.731  37.429   3.889
 7499W        W79924  35.398   5.894  11.264
 7500W        W79925  12.120  18.831   3.669
 7501W        W79926  20.664  41.594   4.178
 7502W        W79927  23.977  36.369  14.488
 7503W        W79928   9.321  14.420  11.980
 7504W        W79929   6.858  15.036  12.044
 7505W        W79930  42.059  21.297   1.861
 7506W        W79931  44.212  16.066   0.526
 7507W        W79932   5.174  14.693   2.287
 7508W        W79933  15.747   9.376  12.992
 7509W        W79934   2.599  42.330  14.229
 7510W        W79935  14.201  16.583   1.664
 7511W        W79936  39.341  42.793   3.416
 7512W        W79937  40.498   6.649  10.894
 7513W        W79938  33.487  38.811  14.414
 7514W        W79939  37.927  34.706   1.344
 7515W        W79940  16.324   9.559   3.892
 7516W        W79941  40.741   8.213   1.816
 7517W        W79942  24.999  39.115   4.629
 7518W        W79943   0.308  40.329  13.886
 7519W        W79944  10.792  35.024  11.538
 7520W        W79945  32.193  34.513  13.594
 7521W        W79946   4.918   0.248  11.914
 7522W        W79947  35.589  35.075   0.452
 7523W        W79948  28.030  35.576   5.058
 7524W        W79949  41.848  41.192  13.414
 7525W        W79950  38.516  20.535   0.761
 7526W        W79951  28.445   8.511   3.227
 7527W        W79952  30.937  24.552  12.628
 7528W        W79953  40.753  10.280  11.569
 7529W        W79954   9.236  18.935  13.348
 7530W        W79955  13.188  32.408  11.881
 7531W        W79956   4.503  13.770  14.942
 7532W        W79957  36.376  43.455  13.901
 7533W        W79958  24.999   5.261  11.579
 7534W        W79959  27.965  20.839  10.396
 7535W        W79960  30.024  39.079   5.037
 7536W        W79961  15.720  38.373  14.665
 7537W        W79962  43.753  17.318   1.215
 7538W        W79963   5.750  12.865   2.168
 7539W        W79964   7.116  42.858   5.226
 7540W        W79965  19.207  17.745  11.728
 7541W        W79966  17.798  42.503   4.555
 7542W        W79967   7.856  34.480   3.039
 7543W        W79968  31.701  24.170  11.056
 7544W        W79969   8.400  44.335   4.391
 7545W        W79970   3.150  22.951  11.673
 7546W        W79971  10.694   6.812  13.141
 7547W        W79972   3.199  27.155  13.929
 7548W        W79973  44.011  15.606   0.661
 7549W        W79974  11.632   6.278  11.003
 7550W        W79975  26.573  33.834   4.684
 7551W        W79976  27.492   2.231  10.739
 7552W        W79977   2.779  14.722  13.229
 7553W        W79978  12.151  27.113   0.775
 7554W        W79979  28.747  39.437  14.454
 7555W        W79980  41.806  10.778  10.914
 7556W        W79981  20.724   8.059  11.300
 7557W        W79982   3.986  37.312   3.664
 7558W        W79983  25.632  35.835  13.005
 7559W        W79984  23.209  40.450   4.548
 7560W        W79985   7.863  34.726   1.989
 7561W        W79986   7.325  16.635   2.917
 7562W        W79987  42.722  44.112  10.856
 7563W        W79988  30.001  20.438   0.332
 7564W        W79989  31.956   7.950  13.894
 7565W        W79990  34.456  12.451   1.809
 7566W        W79991   7.918  33.987   0.604
 7567W        W79992   1.871  14.873   3.844
 7568W        W79993  35.475  24.449  13.069
 7569W        W79994  12.153   3.560   1.403
 7570W        W79995   5.992   5.888   0.327
 7571W        W79996   3.906   4.823   4.272
 7572W        W79997   4.806   9.185  11.808
 7573W        W79998  39.036   9.883   2.897
 7574W        W79999  11.560  44.040   1.092
 7575W        W80000  10.433  43.657   3.305
 7576W        W80001  24.915  29.932  11.468
 7577W        W80002   6.908   5.778  11.935
 7578W        W80003  24.104  19.722  10.803
 7579W        W80004  24.982   6.778  14.818
 7580W        W80005   2.930  35.858   2.607
 7581W        W80006  21.452  11.161  14.744
 7582W        W80007  14.301  13.051  12.049
 7583W        W80008  27.431  33.740  13.085
 7584W        W80009  39.376  13.568   1.608
 7585W        W80010  29.582  10.202  10.301
 7586W        W80011  20.261   9.131   3.753
 7587W        W80012   2.838  34.146  13.321
 7588W        W80013  13.303  16.530   2.686
 7589W        W80014  23.797   0.224   0.197
 7590W        W80015   7.793  30.070   1.935
 7591W        W80016   9.336  25.620  14.500
 7592W        W80017   8.881  20.781   4.112
 7593W        W80018  31.570  14.363   2.624
 7594W        W80019  10.274  19.215   1.767
 7595W        W80020  22.270  29.903  11.067
 7596W        W80021   4.297  40.871  10.750
 7597W        W80022   4.650  18.770   2.791
 7598W        W80023  34.331  18.284  13.365
 7599W        W80024  18.935  40.483  14.353
 7600W        W80025   3.765  13.581  13.437
 7601W        W80026  35.497  39.712   0.992
 7602W        W80027  21.081  40.689   1.772
 7603W        W80028  29.124  44.481   4.833
 7604W        W80029   1.945  10.699   1.326
 7605W        W80030  32.172  32.510  13.296
 7606W        W80031  29.187  23.067   4.787
 7607W        W80032   8.364  31.653  13.991
 7608W        W80033  29.557  38.653   5.803
 7609W        W80034   9.088  27.005  14.791
 7610W        W80035   9.325  12.260  11.903
 7611W        W80036  26.546  20.661   0.051
 7612W        W80037  18.191  26.443  13.319
 7613W        W80038   0.314  16.653  11.541
 7614W        W80039   3.266  15.152  11.179
 7615W        W80040  41.919   9.062  11.296
 7616W        W80041  34.581   1.353   2.444
 7617W        W80042   0.743  15.017   1.300
 7618W        W80043  34.900  35.043   0.766
 7619W        W80044  21.495  29.393   4.571
 7620W        W80045  24.622  15.837   4.998
 7621W        W80046  35.453  17.681   1.081
 7622W        W80047  38.503  44.472  11.682
 7623W        W80048  11.636   2.194   9.784
 7624W        W80049   9.094   2.071   0.425
 7625W        W80050  20.521  16.765  11.867
 7626W        W80051  37.626  14.098   0.337
 7627W        W80052  21.935   6.218  11.397
 7628W        W80053  31.967  30.372  14.003
 7629W        W80054  35.260  14.170  14.413
 7630W        W80055   1.175  12.143  11.257
 7631W        W80056  38.053  19.313   1.723
 7632W        W80057  23.207  38.056  13.609
 7633W        W80058  29.110  32.156   3.697
 7634W        W80059  12.876  28.991   1.347
 7635W        W80060   8.425  10.989  13.504
 7636W        W80061  38.176  24.536   1.408
 7637W        W80062  28.407   4.343  14.392
 7638W        W80063  36.491  29.279   2.350
 7639W        W80064   2.318  38.508  14.266
 7640W        W80065  40.458  43.723   4.472
 7641W        W80066  41.979  35.741   4.644
 7642W        W80067  36.847   6.125   4.624
 7643W        W80068  29.652  22.670   0.252
 7644W        W80069  33.435  11.408  12.621
 7645W        W80070  31.534  32.291   3.278
 7646W        W80071  41.224  44.604   0.959
 7647W        W80072  19.039  21.838  12.564
 7648W        W80073  36.516  21.068   1.860
 7649W        W80074  41.947   4.967   1.240
 7650W        W80075   7.651  14.857  14.246
 7651W        W80076  34.021   0.422   1.767
 7652W        W80077   1.480   6.766   4.569
 7653W        W80078  14.660   7.411   4.612
 7654W        W80079  30.384   6.814   3.395
 7655W        W80080  31.554  38.625  14.090
 7656W        W80081  27.632  44.982  13.621
 7657W        W80082   7.906  17.832   3.178
 7658W        W80083   0.231  25.200   0.298
 7659W        W80084  36.830  20.526  11.493
 7660W        W80085  22.995  35.705   0.994
 7661W        W80086  38.909  33.538  13.999
 7662W        W80087  23.603   8.474   2.742
 7663W        W80088  18.014   1.379   1.713
 7664W        W80089  41.989  15.333   0.565
 7665W        W80090   0.570  18.265   3.956
 7666W        W80091   9.620  34.107   3.705
 7667W        W80092   8.036  28.972   2.392
 7668W        W80093  42.005  30.069  11.385
 7669W        W80094   9.207  34.001  10.583
 7670W        W80095  35.733  39.162   2.211
 7671W        W80096  25.575  12.142   3.117
 7672W        W80097  28.416  41.987  11.628
 7673W        W80098  38.012  29.200   1.706
 7674W        W80099   1.197  36.140  12.378
 7675W        W80100  26.289  27.878   2.344
 7676W        W80101  13.649  37.555   3.171
 7677W        W80102  21.113  44.350  14.798
 7678W        W80103  32.652   6.486   4.037
 7679W        W80104   8.268  39.104  11.512
 7680W        W80105  23.562  24.015   4.709
 7681W        W80106  36.305  21.303  12.507
 7682W        W80107   6.917   4.308   3.771
 7683W        W80108   2.418  25.554  11.337
 7684W        W80109  14.830  16.217   4.659
 7685W        W80110  11.821  27.214   2.336
 7686W        W80111  12.595  32.216   1.251
 7687W        W80112   0.904  27.137   2.721
 7688W        W80113  15.062  35.119   2.141
 7689W        W80114  12.634   6.393  11.111
 7690W        W80115  34.800  15.546  11.646
 7691W        W80116   0.147  27.436   3.113
 7692W        W80117   2.255  23.033  10.744
 7693W        W80118  11.093  40.262   0.858
 7694W        W80119   0.172  29.480  11.579
 7695W        W80120  27.348  10.627   4.494
 7696W        W80121  23.849  10.569  10.943
 7697W        W80122  14.284  22.855   3.552
 7698W        W80123  40.929  23.456   2.965
 7699W        W80124   8.099  25.435   2.261
 7700W        W80125  10.879  25.679   1.740
 7701W        W80126  10.111   4.161   0.699
 7702W        W80127  15.573  35.601   1.951
 7703W        W80128   6.065  32.327   4.235
 7704W        W80129  42.351  41.244  13.804
 7705W        W80130  31.548   8.754   0.779
 7706W        W80131  39.603  35.975   1.419
 7707W        W80132  11.826  37.992  11.180
 7708W        W80133  24.162   7.146   2.760
 7709W        W80134  26.233  14.845   0.780
 7710W        W80135  20.819  31.814   2.097
 7711W        W80136  28.075  21.995  11.781
 7712W        W80137  13.815  14.897  11.819
 7713W        W80138  30.987  42.891   1.823
 7714W        W80139   3.171   8.632   1.734
 7715W        W80140   4.597  31.397   1.995
 7716W        W80141  27.008  11.900  13.107
 7717W        W80142  13.107  32.488  13.344
 7718W        W80143   6.975  37.975  10.410
 7719W        W80144  22.631  30.952   0.702
 7720W        W80145   9.879  21.886   1.336
 7721W        W80146  26.672   2.147  12.305
 7722W        W80147  43.424   8.335  14.707
 7723W        W80148  11.984   4.123   3.637
 7724W        W80149  15.760  16.456  11.693
 7725W        W80150   2.690  41.528  14.573
 7726W        W80151   5.967  26.219   0.416
 7727W        W80152  10.285   8.973   2.452
 7728W        W80153   1.684   0.206   2.183
 7729W        W80154  18.710   7.815  12.596
 7730W        W80155   9.942   0.668   5.016
 7731W        W80156   9.314  34.437   2.671
 7732W        W80157  37.959   5.823   0.742
 7733W        W80158  18.528  10.991  14.548
 7734W        W80159   8.579  10.335  10.503
 7735W        W80160  16.211  37.871   0.786
 7736W        W80161  12.404   7.438  11.538
 7737W        W80162  25.355  34.989   0.152
 7738W        W80163   2.868  18.691   0.253
 7739W        W80164  23.507  10.626   2.847
 7740W        W80165  18.271   8.086   3.683
 7741W        W80166  25.410  15.557  14.035
 7742W        W80167  35.950  22.662   4.511
 7743W        W80168   2.386   3.876   1.277
 7744W        W80169  27.190  13.346   2.177
 7745W        W80170  24.989  19.043  12.557
 7746W        W80171  16.638  13.378   0.801
 7747W        W80172  24.840   9.145   0.690
 7748W        W80173  31.324  34.386   2.693
 7749W        W80174   3.218  44.885   4.129
 7750W        W80175  20.722  18.856   2.647
 7751W        W80176   6.535  35.678  13.815
 7752W        W80177   3.860  34.238  10.768
 7753W        W80178   2.481  27.163   3.241
 7754W        W80179  38.533   9.931  12.384
 7755W        W80180   0.171  36.002  13.187
 7756W        W80181  35.451  30.793  13.750
 7757W        W80182  40.893  27.517   0.069
 7758W        W80183  24.876   2.854  14.326
 7759W        W80184  20.257  33.577  13.140
 7760W        W80185  34.524   4.019   3.302
 7761W        W80186  12.356  21.169   1.696
 7762W        W80187  23.762  36.000  10.474
 7763W        W80188  18.224  37.987  12.031
 7764W        W80189  12.193  30.048   1.741
 7765W        W80190  22.506  24.217   2.370
 7766W        W80191  40.141  32.643   0.911
 7767W        W80192  14.353   7.406  12.956
 7768W        W80193  13.658  29.057   1.748
 7769W        W80194  17.264  35.109   1.802
 7770W        W80195  41.985  33.110   2.650
 7771W        W80196   5.874  16.070   0.023
 7772W        W80197  15.902   0.202   9.939
 7773W        W80198  10.796  23.933  12.024
 7774W        W80199  37.790  15.761   0.781
 7775W        W80200  23.803  31.604  12.337
 7776W        W80201  30.725  13.105   5.148
 7777W        W80202   8.806  19.325  10.595
 7778W        W80203  30.746  39.842  14.455
 7779W        W80204  27.923  42.492  11.026
 7780W        W80205  17.310   0.946   2.286
 7781W        W80206  33.453  39.479  11.812
 7782W        W80207   4.732  12.865  11.604
 7783W        W80208  20.208  10.670   9.776
 7784W        W80209  16.238  42.917   4.693
 7785W        W80210  12.935   8.750   2.390
 7786W        W80211  23.528  37.564   2.215
 7787W        W80212   7.963  33.182   2.333
 7788W        W80213  12.564  19.068  12.569
 7789W        W80214  30.104  25.523   0.459
 7790W        W80215  38.002   8.693   4.999
 7791W        W80216  36.834   2.050   3.782
 7792W        W80217  30.951  21.423   5.600
 7793W        W80218  16.094   9.034  11.616
 7794W        W80219   6.488   0.139   4.540
 7795W        W80220  21.749  43.966  11.541
 7796W        W80221  16.614  21.003   2.317
 7797W        W80222   8.260  17.691  13.474
 7798W        W80223  16.346  31.955   0.754
 7799W        W80224  19.127   4.284  11.236
 7800W        W80225  34.692  39.887  11.646
 7801W        W80226  16.044  24.548  13.571
 7802W        W80227  13.137  25.021   0.775
 7803W        W80228  38.221  39.973  12.180
 7804W        W80229  25.848  43.236   0.830
 7805W        W80230  13.225  30.917   4.229
 7806W        W80231   5.883   4.476  11.487
 7807W        W80232  34.282  10.545  10.995
 7808W        W80233  30.969  26.334  13.078
 7809W        W80234  22.589  11.213  12.061
 7810W        W80235  13.629  20.925   3.602
 7811W        W80236  10.142   0.871   3.321
 7812W        W80237   0.508  15.110  12.490
 7813W        W80238  16.714   5.990  14.413
 7814W        W80239  25.071  15.709  13.642
 7815W        W80240   9.776   5.720  14.969
 7816W        W80241   2.989  29.912   0.823
 7817W        W80242  26.153  11.176  10.373
 7818W        W80243  30.182   0.841  14.544
 7819W        W80244  29.887  30.147  10.611
 7820W        W80245  40.945  18.109  11.938
 7821W        W80246   8.848   0.277   0.283
 7822W        W80247  44.241   8.579   2.898
 7823W        W80248  24.484   7.227   3.602
 7824W        W80249  38.526  16.336  14.931
 7825W        W80250  24.137  32.300   1.892
 7826W        W80251  37.519  28.391  13.006
 7827W        W80252  40.867  28.459   0.289
 7828W        W80253  21.291  35.417  12.961
 7829W        W80254  35.813  43.399  12.957
 7830W        W80255  33.583   3.939  14.925
 7831W        W80256  21.807  10.286   2.775
 7832W        W80257  22.261   8.859   1.406
 7833W        W80258  37.500  16.231   0.820
 7834W        W80259  28.722   5.797  11.086
 7835W        W80260   6.498  37.891  11.465
 7836W        W80261  24.718   3.991   4.885
 7837W        W80262  14.601  13.845   4.599
 7838W        W80263  25.518   0.705  11.115
 7839W        W80264  40.838  40.448   4.420
 7840W        W80265  16.952  28.681   2.922
 7841W        W80266  30.506  25.077   3.401
 7842W        W80267  10.250   6.943  12.885
 7843W        W80268  41.770  24.679   4.156
 7844W        W80269  23.668  13.036  11.884
 7845W        W80270  12.589  19.181   2.679
 7846W        W80271   4.712  32.054   3.643
 7847W        W80272  13.040   0.514   1.774
 7848W        W80273  33.524  21.636  13.986
 7849W        W80274  27.957  16.886  12.983
 7850W        W80275  32.672  36.702  14.898
 7851W        W80276  35.512  34.902  13.337
 7852W        W80277  21.854  22.428  14.700
 7853W        W80278  17.227  37.057  12.090
 7854W        W80279  13.951  18.419   1.921
 7855W        W80280  26.607  35.847  14.202
 7856W        W80281  21.690  36.633   3.325
 7857W        W80282  31.611  11.317  13.933
 7858W        W80283  37.491   4.415  10.630
 7859W        W80284  25.483   0.278  14.933
 7860W        W80285  35.953  26.541   2.226
 7861W        W80286  17.116  32.919  11.490
 7862W        W80287  38.630  23.131  12.203
 7863W        W80288  23.700   5.645   0.913
 7864W        W80289  11.316  23.927  10.716
 7865W        W80290  40.114  21.364   2.711
 7866W        W80291   2.305  29.097   4.585
 7867W        W80292   4.672  18.983   3.260
 7868W        W80293  31.380   8.736   1.305
 7869W        W80294  34.918  22.961   2.895
 7870W        W80295  11.556   3.717   3.632
 7871W        W80296  20.731  28.417  13.887
 7872W        W80297  14.154   7.035   1.766
 7873W        W80298  38.495  35.422   4.554
 7874W        W80299  22.556  10.833   2.199
 7875W        W80300   3.001  26.744  14.390
 7876W        W80301  17.044  39.417   0.884
 7877W        W80302  33.090  21.712   2.770
 7878W        W80303  12.672  34.561  12.887
 7879W        W80304  28.441  10.034  10.766
 7880W        W80305  14.230  36.051   0.034
 7881W        W80306  10.335  30.857  13.491
 7882W        W80307  25.162  24.986   3.088
 7883W        W80308   6.917   9.598   4.105
 7884W        W80309  21.820   4.552   4.198
 7885W        W80310  13.115  17.220   2.171
 7886W        W80311   6.294  16.545   2.717
 7887W        W80312  20.837  25.159   0.521
 7888W        W80313  18.826  24.179   1.321
 7889W        W80314   8.919  43.875   1.873
 7890W        W80315  16.508   0.067   3.887
 7891W        W80316  15.172   9.394  14.884
 7892W        W80317   4.407  43.190   3.236
 7893W        W80318  21.809  15.071  12.279
 7894W        W80319  21.117  18.992   0.806
 7895W        W80320  33.607  12.158   0.939
 7896W        W80321  27.384   6.342  11.365
 7897W        W80322  25.559  22.547  12.061
 7898W        W80323  30.926   7.790  13.643
 7899W        W80324  20.767  18.203  13.657
 7900W        W80325  15.485  10.671   2.602
 7901W        W80326  17.243   3.359   2.936
 7902W        W80327  17.337  16.094  12.579
 7903W        W80328  26.092  27.017   4.868
 7904W        W80329  23.310  28.977   3.840
 7905W        W80330  22.878  17.518  12.945
 7906W        W80331  13.846  17.945   1.772
 7907W        W80332  19.264  36.503   0.740
 7908W        W80333  30.611   0.690   2.169
 7909W        W80334  19.252  22.477  11.189
 7910W        W80335  32.496  32.451   1.244
 7911W        W80336   5.628  37.425  11.214
 7912W        W80337  14.205  26.901   4.595
 7913W        W80338  12.117   4.745   0.713
 7914W        W80339  27.583  18.724   1.730
 7915W        W80340  27.050  22.082   2.855
 7916W        W80341  34.083  12.817  13.953
 7917W        W80342   7.968   0.488  12.423
 7918W        W80343   3.765  18.668  13.545
 7919W        W80344  15.203   2.042  11.497
 7920W        W80345  33.559  33.091  13.361
 7921W        W80346   9.785  23.607   4.359
 7922W        W80347   8.310  37.576  11.765
 7923W        W80348  30.226  21.976  10.575
 7924W        W80349  42.315  38.820   2.316
 7925W        W80350  31.713  26.563   4.417
 7926W        W80351  29.725  16.022   0.289
 7927W        W80352   9.367  26.582  14.933
 7928W        W80353  32.748  36.860  12.247
 7929W        W80354   9.849  42.405  11.467
 7930W        W80355  44.152  15.572   3.067
 7931W        W80356  33.932  15.894  14.124
 7932W        W80357  34.496  39.400   4.126
 7933W        W80358   1.892  40.608  12.460
 7934W        W80359  21.018  27.493   4.404
 7935W        W80360  28.141   7.241   3.330
 7936W        W80361  41.296   9.614   1.697
 7937W        W80362  33.111  36.344  13.607
 7938W        W80363  14.223   2.265  12.563
 7939W        W80364  13.149  29.196  10.120
 7940W        W80365   0.204  36.399  14.770
 7941W        W80366  42.890  18.567  12.467
 7942W        W80367   2.325   6.354  10.478
 7943W        W80368  27.050  12.621  10.612
 7944W        W80369   1.412  10.171   1.312
 7945W        W80370   5.716  43.366  10.778
 7946W        W80371  32.002   8.825   2.219
 7947W        W80372  35.939   7.696   4.202
 7948W        W80373   9.613  30.533   4.744
 7949W        W80374  41.182  30.589  11.656
 7950W        W80375  22.285  38.370   0.932
 7951W        W80376  23.045  37.274   4.694
 7952W        W80377  25.245  28.909   1.681
 7953W        W80378  13.835  25.132   1.360
 7954W        W80379  41.964  41.340  10.750
 7955W        W80380  36.897  17.875  10.714
 7956W        W80381  14.788  18.406   2.817
 7957W        W80382  41.769  25.201   4.113
 7958W        W80383  25.494  26.004   1.277
 7959W        W80384  44.279  23.139   0.361
 7960W        W80385   0.430   3.768   4.162
 7961W        W80386   7.379  17.583   2.571
 7962W        W80387   2.478  20.650  13.388
 7963W        W80388  41.024   3.181   4.436
 7964W        W80389  17.163  16.499  10.763
 7965W        W80390  17.769  33.838   1.430
 7966W        W80391  27.609  31.601   1.737
 7967W        W80392  42.514   6.977  12.884
 7968W        W80393  37.513  25.417  11.038
 7969W        W80394   1.849  27.645   2.869
 7970W        W80395  39.112  20.689  12.724
 7971W        W80396  39.271  17.090   4.332
 7972W        W80397  35.685  26.328  13.506
 7973W        W80398  23.286  37.566   2.700
 7974W        W80399  12.624   7.409   0.771
 7975W        W80400  41.020  25.948   0.896
 7976W        W80401   2.987  43.770   0.496
 7977W        W80402  43.416  28.687   2.018
 7978W        W80403  23.425  39.784  14.866
 7979W        W80404  31.797  26.515  11.932
 7980W        W80405  18.227  14.559  10.734
 7981W        W80406   6.375   7.923  11.260
 7982W        W80407  33.908  14.180   1.228
 7983W        W80408  10.007  31.856   4.113
 7984W        W80409  19.626  28.085  13.940
 7985W        W80410   1.690  19.639   3.742
 7986W        W80411   8.664  22.234   3.294
 7987W        W80412  19.277   9.160  12.978
 7988W        W80413   4.376   8.791  12.481
 7989W        W80414  28.463  37.813   2.914
 7990W        W80415  30.940  32.462  14.755
 7991W        W80416  18.566   7.658   3.803
 7992W        W80417  13.231   1.612   5.059
 7993W        W80418   7.040  44.733  14.013
 7994W        W80419  32.361  41.952  14.972
 7995W        W80420  33.102  36.973  14.976
 7996W        W80421   3.203  41.170   2.702
 7997W        W80422  14.073   5.794  11.761
 7998W        W80423  14.350  25.465  12.454
 7999W        W80424  15.870  22.611   0.230
 8000W        W80425  34.925  43.198  11.141
 8001W        W80426  13.533  25.051   1.736
 8002W        W80427  28.252  31.958  13.267
 8003W        W80428  22.941  22.390  13.802
 8004W        W80429  19.876  30.877  11.695
 8005W        W80430  34.899   7.436   3.614
 8006W        W80431  25.271  24.766   1.258
 8007W        W80432  30.705  28.638  12.798
 8008W        W80433   5.636  16.498  13.156
 8009W        W80434   7.924   7.515   0.957
 8010W        W80435  41.264  43.452  11.151
 8011W        W80436  36.473   5.051  10.860
 8012W        W80437  20.734  11.273  10.989
 8013W        W80438  31.889   6.687   0.826
 8014W        W80439  27.970  19.328  12.724
 8015W        W80440  34.840  37.166  14.023
 8016W        W80441  10.117  31.025   1.758
 8017W        W80442  40.497  39.746  14.815
 8018W        W80443   5.883  37.821   1.658
 8019W        W80444  26.462  21.671  10.435
 8020W        W80445  31.720   3.421  10.806
 8021W        W80446   3.061  19.051  12.419
 8022W        W80447   9.127  24.592  11.963
 8023W        W80448  34.542  13.656   2.157
 8024W        W80449  17.220  33.932  11.572
 8025W        W80450  39.039   0.031   9.966
 8026W        W80451  43.346  40.517   1.544
 8027W        W80452  34.047  37.090   2.022
 8028W        W80453  17.613  36.026  12.967
 8029W        W80454  39.404  23.468   3.823
 8030W        W80455  27.581  29.853   0.811
 8031W        W80456  14.687  42.510  14.421
 8032W        W80457  39.604  38.454  14.768
 8033W        W80458  19.709  24.811   2.166
 8034W        W80459  36.420  41.278   2.732
 8035W        W80460  42.019  34.606   4.278
 8036W        W80461  14.063  27.427   4.621
 8037W        W80462   7.307  44.513  13.076
 8038W        W80463  12.764   7.841  11.877
 8039W        W80464  44.984  32.178  10.684
 8040W        W80465  28.020  42.914  11.653
 8041W        W80466   8.983  27.214  13.506
 8042W        W80467  39.108  39.582  12.105
 8043W        W80468  22.684  15.376  11.231
 8044W        W80469  33.531  21.535  12.561
 8045W        W80470  16.237  18.971   4.728
 8046W        W80471  11.644   9.086   0.050
 8047W        W80472   7.615  38.413  12.945
 8048W        W80473  32.431   6.792  11.720
 8049W        W80474  43.246  29.446   2.415
 8050W        W80475  25.826  30.081  14.968
 8051W        W80476  21.018  29.329  10.668
 8052W        W80477  40.437  37.430  12.939
 8053W        W80478  42.418   1.741  14.372
 8054W        W80479  33.837  27.401   3.646
 8055W        W80480  22.526  27.149  11.983
 8056W        W80481  15.014  39.399   0.998
 8057W        W80482  43.459   3.187  14.309
 8058W        W80483  14.545  30.501  11.205
 8059W        W80484  19.647  21.004   3.172
 8060W        W80485  37.996  41.701  13.352
 8061W        W80486   8.204  24.834  13.932
 8062W        W80487   5.049  29.267   0.816
 8063W        W80488  16.745  32.109   0.461
 8064W        W80489  33.207  26.169  12.153
 8065W        W80490   5.353  22.181   1.343
 8066W        W80491   7.439   9.279  12.114
 8067W        W80492   5.259  17.159  13.612
 8068W        W80493  39.925  37.486  13.061
 8069W        W80494  17.573   6.902   1.395
 8070W        W80495  15.856   1.839   1.689
 8071W        W80496  44.362  44.753   1.400
 8072W        W80497  12.083  16.381   1.638
 8073W        W80498  42.800  31.996  13.346
 8074W        W80499  22.587  21.099  11.872
 8075W        W80500   4.701  15.254  14.323
 8076W        W80501  36.258   1.493  11.622
 8077W        W80502  36.401  22.929   4.609
 8078W        W80503  33.517   2.821  14.824
 8079W        W80504  16.535   8.939   2.800
 8080W        W80505  16.325  30.911   0.180
 8081W        W80506   7.677  31.335   3.355
 8082W        W80507  25.338  12.097  14.692
 8083W        W80508  42.318   8.754   1.278
 8084W        W80509  24.177   9.854  13.104
 8085W        W80510  39.244  16.188   4.293
 8086W        W80511  25.963  31.714  10.189
 8087W        W80512  38.402  32.560   3.564
 8088W        W80513  37.336  21.053  12.585
 8089W        W80514  24.069  24.191   3.811
 8090W        W80515   0.464  27.088   4.033
 8091W        W80516  11.832  20.528  13.886
 8092W        W80517  15.780  37.631   4.201
 8093W        W80518  26.904  44.385  10.737
 8094W        W80519  39.292  12.073   3.753
 8095W        W80520  40.973  42.585   0.429
 8096W        W80521  16.003  43.610  12.994
 8097W        W80522  36.800  33.605   2.250
 8098W        W80523  33.683  20.254  13.094
 8099W        W80524   8.207  20.752   1.512
 8100W        W80525  19.819   4.995  14.540
 8101W        W80526   1.041  21.590   2.920
 8102W        W80527  16.868   1.969  12.302
 8103W        W80528  37.639  24.543   3.589
 8104W        W80529   4.888  23.202   4.075
 8105W        W80530  31.071  41.259   1.290
 8106W        W80531  38.095  22.695   4.129
 8107W        W80532  25.643  10.284   4.619
 8108W        W80533  22.245  33.493   2.294
 8109W        W80534  27.968  18.828   0.290
 8110W        W80535  26.066  37.473   4.567
 8111W        W80536   8.848  26.936  11.198
 8112W        W80537  14.600  14.714   2.717
 8113W        W80538  20.962  27.087   0.958
 8114W        W80539  31.023  34.369   1.408
 8115W        W80540   7.141  14.662  13.390
 8116W        W80541  11.448  19.184   5.064
 8117W        W80542  38.471   1.605   0.893
 8118W        W80543  31.389  31.928  11.543
 8119W        W80544  18.170   5.366  10.911
 8120W        W80545  23.335  11.234   3.813
 8121W        W80546  35.439  28.329  12.583
 8122W        W80547  31.840  11.856   3.409
 8123W        W80548  26.663  15.642  11.059
 8124W        W80549  21.788   9.673   1.882
 8125W        W80550  28.480  24.486  11.654
 8126W        W80551  20.481   4.948   3.592
 8127W        W80552   0.397  15.591  12.443
 8128W        W80553  12.354  25.554   3.582
 8129W        W80554  22.798  42.908  11.628
 8130W        W80555  14.246   9.953  14.187
 8131W        W80556   7.307  34.950   3.558
 8132W        W80557   6.838  26.646   4.536
 8133W        W80558   4.962  41.296  12.100
 8134W        W80559  44.547   5.332  12.506
 8135W        W80560  37.408  27.437   0.346
 8136W        W80561  22.173  43.039   2.335
 8137W        W80562   1.855  31.215   3.622
 8138W        W80563  41.330   3.508  13.905
 8139W        W80564  42.860  39.941  14.985
 8140W        W80565  31.078  11.368   1.728
 8141W        W80566   8.168  17.744  11.495
 8142W        W80567  32.440   8.197  13.927
 8143W        W80568  40.127  26.930   1.147
 8144W        W80569   3.453   8.140   4.516
 8145W        W80570  43.091  28.746   0.825
 8146W        W80571   0.166  27.334   0.443
 8147W        W80572  20.029   7.424  11.126
 8148W        W80573  41.303  11.194  12.895
 8149W        W80574  10.350   4.259  12.316
 8150W        W80575  32.072  36.157  13.040
 8151W        W80576   3.217   5.855  12.321
 8152W        W80577  25.497  40.437  12.399
 8153W        W80578  43.985   0.100  14.741
 8154W        W80579   4.083  25.060  13.375
 8155W        W80580   7.556  31.526  14.500
 8156W        W80581  26.568  32.196   2.211
 8157W        W80582   2.865   0.537  11.583
 8158W        W80583  10.131  31.136   4.000
 8159W        W80584  15.152  36.114  12.947
 8160W        W80585  28.516   9.211   4.708
 8161W        W80586  43.022  32.254   1.994
 8162W        W80587  17.282  30.752   9.866
 8163W        W80588  28.119  29.451  12.123
 8164W        W80589  23.887  26.482  10.212
 8165W        W80590  12.042  14.344  11.592
 8166W        W80591  10.820  16.034  11.058
 8167W        W80592  18.033  22.991   2.666
 8168W        W80593  28.237   7.316  13.763
 8169W        W80594  28.040  36.008   1.219
 8170W        W80595  40.869  32.902  13.083
 8171W        W80596  43.770  19.821   3.119
 8172W        W80597  18.447  27.680   1.573
 8173W        W80598  26.009  14.321   2.158
 8174W        W80599  32.682  11.315  13.976
 8175W        W80600  18.557  32.148  12.881
 8176W        W80601  35.104  10.956  12.050
 8177W        W80602   4.870  31.838   4.079
 8178W        W80603  31.216  39.353  11.440
 8179W        W80604   5.013   9.211  10.030
 8180W        W80605  41.057  13.102  11.210
 8181W        W80606  39.933   6.078  10.662
 8182W        W80607  22.657  40.472  14.815
 8183W        W80608  24.793  25.182   3.395
 8184W        W80609   9.264  41.761   2.152
 8185W        W80610   4.266   8.799  12.986
 8186W        W80611  44.795  17.234   1.960
 8187W        W80612  22.223   3.140   0.493
 8188W        W80613   1.804  12.901  10.560
 8189W        W80614   3.312  29.990  14.367
 8190W        W80615  16.337  16.386   0.509
 8191W        W80616  24.095   3.234  14.269
 8192W        W80617  13.765  11.602   3.132
 8193W        W80618   5.234   5.134   4.125
 8194W        W80619  12.865  40.973  14.015
 8195W        W80620   3.374  17.330   4.265
 8196W        W80621  12.707  42.103  10.678
 8197W        W80622  27.397   3.468  13.729
 8198W        W80623  14.095  21.563   0.416
 8199W        W80624  33.440  16.815   5.115
 8200W        W80625  16.717  38.038  11.913
 8201W        W80626   2.571  40.102   2.208
 8202W        W80627   8.436  23.174  12.039
 8203W        W80628   0.098  42.536   4.320
 8204W        W80629  39.419  28.872   1.638
 8205W        W80630  12.445  43.140   0.743
 8206W        W80631  39.536  13.147  14.595
 8207W        W80632  42.227  19.558   0.373
 8208W        W80633  21.869   0.734   3.643
 8209W        W80634  11.152  28.017   3.721
 8210W        W80635  25.648  30.196   9.799
 8211W        W80636   9.154   4.997   3.332
 8212W        W80637  13.538   5.564   2.456
 8213W        W80638  38.853  26.459   0.913
 8214W        W80639  44.091  13.664   2.282
 8215W        W80640  29.890   5.416   1.412
 8216W        W80641  38.522   9.367  14.974
 8217W        W80642  42.314   8.255   1.967
 8218W        W80643  29.141   0.028  11.552
 8219W        W80644  21.951  11.648   0.955
 8220W        W80645   5.853  40.945  14.026
 8221W        W80646  21.714  44.790  13.014
 8222W        W80647   6.566  28.978  13.083
 8223W        W80648  37.547  30.939   1.700
 8224W        W80649  18.792  22.619   4.520
 8225W        W80650  22.743  39.428  14.410
 8226W        W80651  22.467  13.886   5.197
 8227W        W80652  32.985   7.822  10.437
 8228W        W80653  17.594  41.752   2.487
 8229W        W80654  11.601   3.211  14.558
 8230W        W80655   7.437  11.096  12.039
 8231W        W80656  29.416  17.577  12.409
 8232W        W80657   7.737  43.271   3.738
 8233W        W80658  14.163  23.227  10.686
 8234W        W80659  33.509  36.503   0.416
 8235W        W80660   1.213  23.206   1.832
 8236W        W80661  36.610  33.849   2.685
 8237W        W80662   8.798  23.103  11.607
 8238W        W80663   3.168  14.399   0.901
 8239W        W80664  10.133  14.596  10.481
 8240W        W80665  11.913   3.864  11.292
 8241W        W80666  17.817   4.719  12.950
 8242W        W80667  14.889  35.498   3.728
 8243W        W80668  38.105  20.553  12.624
 8244W        W80669  24.721   8.674   1.426
 8245W        W80670  10.212  16.018   4.548
 8246W        W80671  28.093   6.898  12.470
 8247W        W80672  33.441  11.224   4.597
 8248W        W80673  20.500  15.735   4.582
 8249W        W80674  18.846  16.923   1.959
 8250W        W80675   1.535   2.273  13.087
 8251W        W80676   6.184  10.552   0.873
 8252W        W80677   9.715  24.182  13.002
 8253W        W80678  12.209   4.446  12.351
 8254W        W80679  31.131  10.377   0.874
 8255W        W80680   6.226   7.972  14.801
 8256W        W80681  41.465  12.557   4.554
 8257W        W80682  41.202  41.417   3.987
 8258W        W80683  42.523  17.792   2.734
 8259W        W80684  10.174  24.857   1.876
 8260W        W80685  12.047  40.178  13.755
 8261W        W80686  37.894  31.260  12.998
 8262W        W80687   6.895  34.836  12.396
 8263W        W80688  25.229  12.784  11.571
 8264W        W80689  19.228   5.892   4.715
 8265W        W80690   9.696  29.486  13.874
 8266W        W80691  29.288  18.510  14.588
 8267W        W80692  18.730  17.547  12.617
 8268W        W80693  11.395  40.444  14.920
 8269W        W80694  11.665   4.234   0.440
 8270W        W80695  25.683  39.211  12.872
 8271W        W80696  27.078  39.604  14.895
 8272W        W80697  18.648   1.739  10.617
 8273W        W80698  23.114  32.908   4.100
 8274W        W80699  28.015   2.295   3.717
 8275W        W80700   2.376  42.731  11.123
 8276W        W80701   2.020   3.766   0.619
 8277W        W80702  15.726  23.640  12.644
 8278W        W80703  29.432  37.558   4.232
 8279W        W80704  10.143   2.026   1.280
 8280W        W80705  23.761  22.528  11.957
 8281W        W80706  24.136   4.154   1.884
 8282W        W80707  43.912   5.169  10.387
 8283W        W80708  27.826  23.095   5.023
 8284W        W80709  21.113  43.347  10.682
 8285W        W80710  33.359  30.923  12.171
 8286W        W80711  23.542  42.780  11.041
 8287W        W80712  44.348  27.850  10.201
 8288W        W80713  35.887  44.557   4.056
 8289W        W80714  32.404  33.425  13.855
 8290W        W80715   3.802  34.365  13.447
 8291W        W80716  32.058  42.980  13.866
 8292W        W80717  23.545  17.097   2.401
 8293W        W80718  29.825  33.565  11.699
 8294W        W80719   1.038  15.687  14.539
 8295W        W80720  37.796  27.645   3.161
 8296W        W80721  23.727  39.454   1.389
 8297W        W80722  33.303  30.354   1.306
 8298W        W80723   1.691  34.794   4.653
 8299W        W80724  14.337   5.536  14.095
 8300W        W80725  26.645  32.416  13.026
 8301W        W80726  31.527  12.834   3.639
 8302W        W80727  36.018  42.064  11.584
 8303W        W80728  37.080  11.673   4.017
 8304W        W80729  41.641   3.687  12.899
 8305W        W80730  34.676  42.461  11.565
 8306W        W80731  31.857  14.595  11.210
 8307W        W80732  25.528  30.076  10.293
 8308W        W80733  38.472   3.899  13.862
 8309W        W80734  11.392  44.806   2.922
 8310W        W80735  41.139   9.579  11.039
 8311W        W80736  30.191  40.508  11.036
 8312W        W80737  40.007   3.933  13.812
 8313W        W80738  30.668  23.725  12.080
 8314W        W80739  44.937  14.692  14.105
 8315W        W80740  30.178   7.783   1.499
 8316W        W80741   3.882  17.322   3.683
 8317W        W80742  24.866  16.371   1.324
 8318W        W80743  30.049  41.594   3.293
 8319W        W80744  41.497  42.278   2.742
 8320W        W80745  21.529  18.342  13.423
 8321W        W80746   5.767   3.773  10.584
 8322W        W80747  20.802   8.211   4.685
 8323W        W80748   3.669  35.035  13.005
 8324W        W80749  30.257  13.385   3.497
 8325W        W80750  21.013  38.947  10.471
 8326W        W80751  42.461  24.031  10.485
 8327W        W80752   2.667  20.588  14.345
 8328W        W80753  12.982  24.818   5.473
 8329W        W80754   7.413  17.430   1.200
 8330W        W80755  40.791   2.228  14.528
 8331W        W80756  30.694   3.157  12.102
 8332W        W80757  26.081  24.211  12.348
 8333W        W80758  18.619  23.931  11.972
 8334W        W80759   4.311   1.047  10.976
 8335W        W80760  22.011  32.943   0.919
 8336W        W80761  11.821  25.650  14.262
 8337W        W80762  21.974   6.475  12.217
 8338W        W80763  42.234  35.852  11.932
 8339W        W80764  32.973   2.874  11.352
 8340W        W80765  13.637   8.587  13.646
 8341W        W80766  17.891  18.475   4.171
 8342W        W80767   5.214  10.292  11.279
 8343W        W80768  39.488  12.412  12.156
 8344W        W80769  25.815  13.587  13.373
 8345W        W80770  23.101  42.015  12.912
 8346W        W80771  16.657  17.204   4.430
 8347W        W80772  40.488  12.559   4.488
 8348W        W80773  16.237  21.215  13.300
 8349W        W80774  39.602  41.481  13.912
 8350W        W80775  18.186  44.766  11.168
 8351W        W80776  40.753  32.842   0.540
 8352W        W80777  38.883  18.600  10.050
 8353W        W80778  25.122  25.997   2.716
 8354W        W80779  10.686  21.765   4.560
 8355W        W80780  38.774  15.520  11.174
 8356W        W80781  21.127  28.999  10.256
 8357W        W80782  15.708   6.144   4.658
 8358W        W80783   4.326  22.585  12.391
 8359W        W80784   9.024  39.879  11.762
 8360W        W80785  37.709   0.363  12.943
 8361W        W80786  11.295   8.964  11.898
 8362W        W80787  13.180  22.570   0.492
 8363W        W80788   0.352  41.856   2.515
 8364W        W80789   8.188   4.479   0.764
 8365W        W80790  42.001  29.315  14.051
 8366W        W80791  23.785  12.311  10.660
 8367W        W80792   3.220  22.760  12.884
 8368W        W80793  43.227  22.089  12.880
 8369W        W80794  25.551   4.234  14.894
 8370W        W80795   8.871  44.541   3.272
 8371W        W80796  23.941   0.791  13.566
 8372W        W80797   9.411  35.505   1.823
 8373W        W80798  34.906   6.879   2.731
 8374W        W80799  25.487  38.357   3.127
 8375W        W80800   4.248   1.970   2.239
 8376W        W80801  43.224  43.854   2.419
 8377W        W80802  24.049  35.631   0.345
 8378W        W80803  20.504  25.493  12.475
 8379W        W80804  22.224  12.805   9.902
 8380W        W80805  38.016  24.658  14.578
 8381W        W80806  42.839  10.362  11.510
 8382W        W80807   0.461  42.856  12.380
 8383W        W80808  43.468  22.601  12.615
 8384W        W80809  33.958  26.123  12.432
 8385W        W80810  27.206  43.950   1.332
 8386W        W80811  40.928  19.750  10.024
 8387W        W80812  39.178  18.876  13.463
 8388W        W80813  17.829  10.272   3.949
 8389W        W80814  16.310   8.861   4.210
 8390W        W80815  14.808  29.201   3.696
 8391W        W80816  10.553  35.080  13.000
 8392W        W80817  19.448  32.928   3.247
 8393W        W80818   7.619  16.114   0.841
 8394W        W80819  26.162   5.445   4.762
 8395W        W80820   4.382  12.524   0.494
 8396W        W80821  21.704  27.949  11.608
 8397W        W80822  31.642  42.290   1.101
 8398W        W80823  32.860  33.563   3.867
 8399W        W80824  24.903   0.197  14.939
 8400W        W80825   8.265  30.650  13.650
 8401W        W80826  12.029   5.914  12.999
 8402W        W80827   4.372  22.157   1.707
 8403W        W80828   0.772   3.976  11.586
 8404W        W80829   2.474  33.986  11.055
 8405W        W80830   7.467  37.839  14.024
 8406W        W80831  20.060  42.385  11.522
 8407W        W80832  14.188  20.246  10.676
 8408W        W80833  11.809  32.618  11.557
 8409W        W80834  15.622  42.413  11.372
 8410W        W80835   9.531   9.962  11.361
 8411W        W80836   3.369  18.372   0.815
 8412W        W80837   4.361  28.014   1.988
 8413W        W80838  36.607  40.808   2.552
 8414W        W80839  37.703  16.940   4.769
 8415W        W80840  24.877   2.319  12.641
 8416W        W80841  11.294  33.927   2.190
 8417W        W80842   5.251  21.471   1.720
 8418W        W80843  39.935  26.186  14.328
 8419W        W80844  26.195  34.522  14.032
 8420W        W80845  14.055  21.332  12.500
 8421W        W80846  32.811  35.283  13.953
 8422W        W80847  41.206   6.956   2.765
 8423W        W80848  40.064   7.487  12.965
 8424W        W80849  21.080  24.172   3.218
 8425W        W80850  21.047  30.447  12.090
 8426W        W80851  20.632  42.396   0.322
 8427W        W80852  27.141  41.787   3.075
 8428W        W80853  24.437  39.759   0.070
 8429W        W80854  14.192  28.169   2.885
 8430W        W80855  42.088  44.786   4.592
 8431W        W80856  30.609  19.123   2.769
 8432W        W80857  17.982  43.443   3.245
 8433W        W80858  31.420  28.305   1.449
 8434W        W80859  26.909  31.926   1.351
 8435W        W80860   8.878  33.510  11.877
 8436W        W80861  39.802  13.212  10.781
 8437W        W80862  20.644  43.029   4.935
 8438W        W80863  11.093  39.439   3.381
 8439W        W80864   2.745   6.593  14.497
 8440W        W80865  19.747   7.650   4.811
 8441W        W80866  36.137  40.158   4.123
 8442W        W80867  36.814  12.357   2.701
 8443W        W80868  30.673  37.882  14.756
 8444W        W80869  43.854   3.863   4.837
 8445W        W80870   2.598  31.572   2.422
 8446W        W80871   3.264  30.360   0.838
 8447W        W80872  38.437  14.253   1.499
 8448W        W80873   3.233  28.091  11.443
 8449W        W80874  27.817   8.147  14.735
 8450W        W80875  40.616  17.330   2.072
 8451W        W80876  16.315  34.015  12.079
 8452W        W80877  43.920  43.668  14.463
 8453W        W80878  10.361   5.569  12.579
 8454W        W80879  28.647  38.425   0.520
 8455W        W80880  42.021  37.079   2.715
 8456W        W80881  27.720  16.627  14.855
 8457W        W80882   9.596  15.280   2.342
 8458W        W80883   6.457  21.122   0.762
 8459W        W80884  20.734  41.326   1.331
 8460W        W80885  33.590  31.822  10.555
 8461W        W80886   2.186   1.381  12.613
 8462W        W80887  16.781  12.392  12.438
 8463W        W80888  20.711  21.600  11.400
 8464W        W80889  22.465  34.510   3.947
 8465W        W80890  13.095  23.502   1.391
 8466W        W80891   1.888   3.796   1.103
 8467W        W80892  24.666  30.089   0.350
 8468W        W80893   4.267  25.157  12.384
 8469W        W80894   6.465   0.855   3.661
 8470W        W80895  10.172  29.966   3.282
 8471W        W80896  38.066  43.970  13.470
 8472W        W80897  20.281  39.123   0.301
 8473W        W80898  15.320  10.231   1.758
 8474W        W80899   9.194  21.828  13.861
 8475W        W80900  18.597  38.470   4.613
 8476W        W80901   2.664  32.581  14.339
 8477W        W80902  17.680  29.427   4.643
 8478W        W80903  44.754  30.124   3.893
 8479W        W80904  41.884  39.086   0.884
 8480W        W80905  26.942   6.745   1.779
 8481W        W80906  44.568  14.644  14.824
 8482W        W80907  20.223  15.887   2.800
 8483W        W80908  19.967  16.654  13.919
 8484W        W80909  16.923   7.117  13.688
 8485W        W80910  41.064  19.250  10.586
 8486W        W80911   3.458  33.133   2.837
 8487W        W80912   2.163  20.065  13.813
 8488W        W80913   5.277  37.258   0.471
 8489W        W80914   8.234  16.580   3.168
 8490W        W80915  24.779  18.618  14.947
 8491W        W80916  32.481  10.632  14.371
 8492W        W80917  32.609  36.383   0.289
 8493W        W80918   9.649   1.543   1.837
 8494W        W80919  28.620  18.791   0.846
 8495W        W80920  32.726  29.471  12.660
 8496W        W80921  34.917  29.673  11.314
 8497W        W80922   9.459   2.292   0.742
 8498W        W80923  29.941  15.872   3.602
 8499W        W80924  18.181  36.515   3.867
 8500W        W80925  25.557  18.138   0.703
 8501W        W80926  34.938  30.009   0.338
 8502W        W80927   8.944   5.828  13.506
 8503W        W80928  41.045   7.804   1.876
 8504W        W80929  35.287  23.313   3.010
 8505W        W80930  21.290  15.866   3.313
 8506W        W80931  31.660   4.507   1.251
 8507W        W80932  34.049  29.169  12.550
 8508W        W80933   0.306  33.913  11.895
 8509W        W80934   8.551   8.305   1.335
 8510W        W80935   1.794  41.446   0.963
 8511W        W80936  10.140  24.556  12.020
 8512W        W80937  10.362  26.515  14.897
 8513W        W80938  33.647   9.920  12.507
 8514W        W80939   9.718  32.617   2.597
 8515W        W80940  20.204  30.914   4.608
 8516W        W80941  34.608  27.941   0.274
 8517W        W80942  11.156  29.928  12.936
 8518W        W80943  30.217  31.604  12.565
 8519W        W80944  24.678   5.765   0.323
 8520W        W80945  27.578  14.024   0.808
 8521W        W80946  41.739  29.529   1.372
 8522W        W80947   5.876  10.946   1.852
 8523W        W80948   8.962  36.962  13.552
 8524W        W80949  36.090  33.400   1.821
 8525W        W80950   9.840   3.473  10.514
 8526W        W80951  26.203  27.922  12.378
 8527W        W80952   3.771   3.585   1.936
 8528W        W80953  41.055  16.210  10.703
 8529W        W80954   0.649  35.031   1.726
 8530W        W80955  18.333  40.947  14.918
 8531W        W80956   6.903  39.923   4.053
 8532W        W80957  17.682  26.546   1.004
 8533W        W80958  23.584   3.955  12.646
 8534W        W80959  34.546  25.602   4.399
 8535W        W80960  29.517  14.739  12.552
 8536W        W80961   5.168   7.608   0.488
 8537W        W80962   5.205  25.019   3.824
 8538W        W80963   6.143   6.271  10.733
 8539W        W80964  28.996  40.978  10.038
 8540W        W80965  41.311   9.995   0.778
 8541W        W80966  24.937  29.967   1.132
 8542W        W80967  26.538  23.562   1.680
 8543W        W80968   7.227  32.338  12.218
 8544W        W80969   4.670   2.969   1.949
 8545W        W80970   7.900  15.253   1.963
 8546W        W80971   0.494  20.946  12.380
 8547W        W80972  42.807  33.879   0.288
 8548W        W80973  14.383  31.376   2.898
 8549W        W80974   7.613  23.944  12.465
 8550W        W80975  14.443   1.632   4.667
 8551W        W80976  26.526  20.099   1.230
 8552W        W80977  44.355  29.913   3.645
 8553W        W80978  11.183   8.709  10.693
 8554W        W80979  28.016   3.178   0.323
 8555W        W80980  39.569  10.321  14.063
 8556W        W80981  43.611  31.995  13.953
 8557W        W80982   8.253  30.707  14.984
 8558W        W80983  12.765  44.313   2.341
 8559W        W80984  42.405  25.039  13.155
 8560W        W80985   0.306  21.642  11.618
 8561W        W80986  36.885  40.531  12.584
 8562W        W80987  19.080  21.951  11.029
 8563W        W80988  26.066  34.862  11.039
 8564W        W80989  31.114   1.394   1.281
 8565W        W80990  20.568  11.352   0.297
 8566W        W80991   7.224  12.666   2.205
 8567W        W80992  25.456   7.851   2.750
 8568W        W80993  23.699  44.349   0.201
 8569W        W80994  44.543  41.520  10.719
 8570W        W80995   4.895  38.893   0.837
 8571W        W80996  16.293   9.675   4.753
 8572W        W80997  17.652  33.653   4.142
 8573W        W80998  33.670  36.090   1.875
 8574W        W80999  27.731  29.417   4.145
 8575W        W81000  30.537  37.406   1.097
 8576W        W81001   7.260   6.930   2.269
 8577W        W81002  26.027   1.450  11.941
 8578W        W81003  39.525   8.331   2.401
 8579W        W81004  15.862  12.543  13.871
 8580W        W81005  22.776   2.488  13.050
 8581W        W81006  27.100   7.994  12.630
 8582W        W81007  44.385  30.893  10.581
 8583W        W81008  33.006  41.512  10.979
 8584W        W81009  22.170  41.460  12.976
 8585W        W81010   4.504   3.780   3.857
 8586W        W81011   9.832  25.190   1.686
 8587W        W81012  13.240   3.372   0.252
 8588W        W81013   9.807   9.246   3.330
 8589W        W81014  15.245  23.565  12.527
 8590W        W81015  20.646  40.967   1.720
 8591W        W81016  18.080  22.450   0.821
 8592W        W81017  41.390  21.679   1.871
 8593W        W81018  17.730  34.322  12.866
 8594W        W81019  29.953  44.446  11.685
 8595W        W81020  11.369  38.260  11.583
 8596W        W81021  25.468  12.328  13.670
 8597W        W81022  17.633  33.151  10.308
 8598W        W81023  27.373  15.296  12.399
 8599W        W81024  20.527   5.792   1.484
 8600W        W81025   2.171  34.402  11.167
 8601W        W81026  32.254  24.670  14.350
 8602W        W81027  20.766  18.012   4.309
 8603W        W81028  38.248  18.024   3.563
 8604W        W81029  32.603  24.726   0.180
 8605W        W81030  44.689   0.356  13.615
 8606W        W81031   8.011  24.392   0.435
 8607W        W81032   8.409  28.956  13.843
 8608W        W81033  20.020  16.747   0.723
 8609W        W81034  42.308  20.586  11.874
 8610W        W81035  19.268  28.060   4.473
 8611W        W81036   9.733  39.887  10.703
 8612W        W81037  19.252  25.617   3.736
 8613W        W81038   7.673  28.757  13.003
 8614W        W81039  44.617  21.063  11.963
 8615W        W81040  44.970  13.500   3.155
 8616W        W81041  16.304   1.575   2.465
 8617W        W81042  24.288   3.477   5.011
 8618W        W81043  42.545  41.584   4.215
 8619W        W81044  34.738  21.575   3.991
 8620W        W81045  26.766  41.905   2.169
 8621W        W81046  18.949  24.560  11.175
 8622W        W81047   2.007  44.894  10.753
 8623W        W81048  43.861  17.784  10.505
 8624W        W81049  35.948  22.019   3.766
 8625W        W81050   7.826  30.486   4.981
 8626W        W81051  12.555  27.661  13.852
 8627W        W81052   5.838  14.400   3.120
 8628W        W81053  15.171  25.515  13.335
 8629W        W81054  17.567   1.285  13.462
 8630W        W81055   8.634   1.211  14.421
 8631W        W81056  11.455  35.095  11.981
 8632W        W81057  16.227  14.322   4.626
 8633W        W81058   5.706  23.584  14.704
 8634W        W81059  38.795  17.768  13.987
 8635W        W81060  40.854  32.926  13.597
 8636W        W81061  18.052  11.665   2.804
 8637W        W81062  29.254  26.251   4.559
 8638W        W81063  25.712  15.036   0.378
 8639W        W81064  29.594  33.534   0.433
 8640W        W81065  26.851  44.078   2.274
 8641W        W81066  29.100   3.709   3.677
 8642W        W81067  17.150   0.880  14.446
 8643W        W81068  41.283  31.731  12.810
 8644W        W81069   3.637  15.612   3.743
 8645W        W81070  38.491   0.508   2.822
 8646W        W81071  16.424  28.943   1.196
 8647W        W81072  32.322  37.407   1.780
 8648W        W81073   0.239  11.585   4.202
 8649W        W81074  36.209   0.788   3.782
 8650W        W81075  33.198   4.840   0.338
 8651W        W81076  18.769  11.803  14.817
 8652W        W81077  22.590  12.466  12.029
 8653W        W81078  36.144   6.758  11.632
 8654W        W81079  10.276  44.470   3.484
 8655W        W81080  31.787  38.949   1.007
 8656W        W81081  43.501  25.222  12.552
 8657W        W81082  37.644  31.906   3.706
 8658W        W81083   4.175  41.874   3.254
 8659W        W81084  14.126  26.319  13.527
 8660W        W81085   4.205  27.096   3.836
 8661W        W81086  37.747  10.905   3.238
 8662W        W81087  42.064  37.488   1.765
 8663W        W81088  35.731  17.045   1.089
 8664W        W81089  29.189  43.991   2.707
 8665W        W81090  22.158  21.743   3.725
 8666W        W81091   9.712  31.477   1.725
 8667W        W81092  30.569  13.802   3.386
 8668W        W81093  28.473  13.862   4.486
 8669W        W81094   9.581  18.307   3.663
 8670W        W81095  12.295  29.655  13.494
 8671W        W81096   5.686  17.497   3.338
 8672W        W81097  25.630  35.700  14.313
 8673W        W81098  33.041   2.910   4.662
 8674W        W81099   1.400  13.069   2.317
 8675W        W81100  39.797  15.017   1.439
 8676W        W81101  30.655  40.954   1.921
 8677W        W81102  15.573  33.066   4.717
 8678W        W81103   8.885  19.096   3.788
 8679W        W81104  30.078  25.935  14.003
 8680W        W81105   2.176  11.242  14.506
 8681W        W81106  38.590  17.250   2.222
 8682W        W81107  38.045   3.734   1.671
 8683W        W81108   2.214  25.695   0.826
 8684W        W81109  35.138  26.851   1.156
 8685W        W81110  35.389  27.808  12.609
 8686W        W81111  34.044  44.454  12.932
 8687W        W81112  40.507   8.762  11.061
 8688W        W81113  39.548  23.359   0.728
 8689W        W81114   3.310  40.761  10.744
 8690W        W81115  31.946  22.489   0.183
 8691W        W81116  21.745   9.643   4.097
 8692W        W81117  27.736   8.865  11.512
 8693W        W81118  14.131  31.185   1.187
 8694W        W81119  39.380   4.811  12.167
 8695W        W81120  10.048  20.000   0.452
 8696W        W81121  29.958  27.869  12.947
 8697W        W81122   1.879  22.058  11.574
 8698W        W81123  34.823  13.156   3.739
 8699W        W81124  19.156   5.460   4.090
 8700W        W81125  37.909  30.905   3.713
 8701W        W81126  26.102   8.622   1.726
 8702W        W81127  36.360  29.615   2.732
 8703W        W81128  41.777  43.795   4.857
 8704W        W81129   2.626  34.913   0.718
 8705W        W81130  30.354  31.078   3.160
 8706W        W81131  13.905  30.442   4.645
 8707W        W81132  11.090  42.374  10.821
 8708W        W81133  42.104   5.535   3.973
 8709W        W81134  35.636   0.520   1.331
 8710W        W81135  43.527  30.431  11.123
 8711W        W81136  29.984  38.709  11.998
 8712W        W81137  21.571  22.894   1.931
 8713W        W81138  43.295  29.994  13.355
 8714W        W81139  34.776  17.797  12.038
 8715W        W81140  33.113  32.377  12.469
 8716W        W81141   3.704  16.258   3.303
 8717W        W81142  26.690  34.125  12.483
 8718W        W81143  16.041   9.475   1.673
 8719W        W81144   3.619  34.658  11.485
 8720W        W81145  27.210  12.687  14.060
 8721W        W81146  40.293  30.134  14.787
 8722W        W81147   2.307  27.178  11.896
 8723W        W81148  22.564  27.461   2.653
 8724W        W81149   5.319   7.075   4.719
 8725W        W81150   1.836   9.622  12.913
 8726W        W81151  33.572   8.367   1.281
 8727W        W81152  26.632  18.104   4.399
 8728W        W81153  11.222   0.340  14.542
 8729W        W81154  23.007  20.842  11.712
 8730W        W81155  20.072  13.750   2.220
 8731W        W81156  20.622   4.702   4.022
 8732W        W81157  19.794   3.419   0.059
 8733W        W81158  39.926  24.288  13.353
 8734W        W81159  10.904  14.699   1.812
 8735W        W81160  20.253  10.250  14.050
 8736W        W81161   8.195  15.406   3.871
 8737W        W81162  38.863  33.668   2.255
 8738W        W81163  41.018   1.385  13.966
 8739W        W81164   2.897  39.283   0.341
 8740W        W81165  25.065  10.687  14.354
 8741W        W81166  23.592   9.280  14.455
 8742W        W81167  30.029  36.576  13.523
 8743W        W81168  29.069  41.675   2.889
 8744W        W81169  27.862  33.837  11.068
 8745W        W81170  18.272  18.987   4.173
 8746W        W81171  33.096  43.783   4.622
 8747W        W81172  22.229  13.137  14.805
 8748W        W81173  25.275  32.132  10.281
 8749W        W81174  21.406  35.597  11.254
 8750W        W81175  26.057  43.502   1.263
 8751W        W81176  43.546  39.168  14.717
 8752W        W81177  35.701  34.916  11.348
 8753W        W81178  30.544  37.827   1.412
 8754W        W81179  20.715  15.779  12.941
 8755W        W81180   4.243  34.134  12.413
 8756W        W81181  29.666  19.480   1.303
 8757W        W81182  21.419  17.191   3.110
 8758W        W81183  27.633  20.229   1.915
 8759W        W81184  20.643   4.796  10.531
 8760W        W81185  25.586  32.499  12.631
 8761W        W81186  30.588  21.348  13.860
 8762W        W81187  28.634   3.878   4.313
 8763W        W81188  28.946  19.140  12.374
 8764W        W81189   4.719  25.915  12.685
 8765W        W81190   6.039   1.107   3.354
 8766W        W81191  30.652  38.651  12.398
 8767W        W81192  29.221  43.916  14.446
 8768W        W81193  41.006  44.995  12.464
 8769W        W81194  16.726  40.539  13.539
 8770W        W81195  44.805  17.054   3.927
 8771W        W81196  20.127  16.702   5.004
 8772W        W81197  36.954  41.407   0.729
 8773W        W81198  11.609   9.880  11.084
 8774W        W81199  28.269  16.032   2.831
 8775W        W81200  43.076  26.078   4.175
 8776W        W81201  23.562  15.793   1.446
 8777W        W81202  32.980  39.452   0.866
 8778W        W81203   2.542  19.550   4.188
 8779W        W81204  39.584  27.983   1.304
 8780W        W81205  11.920  13.249  12.512
 8781W        W81206   0.962  40.551   0.314
 8782W        W81207  29.675  28.740   3.724
 8783W        W81208  35.300  35.560   2.405
 8784W        W81209  18.324  39.242   0.430
 8785W        W81210  14.409   9.625  13.345
 8786W        W81211   9.249  23.827  11.019
 8787W        W81212  26.067   1.305  10.969
 8788W        W81213  39.789  28.151  10.702
 8789W        W81214  19.746  19.656  10.363
 8790W        W81215  32.034  35.202   1.587
 8791W        W81216   0.886  41.480   3.636
 8792W        W81217  44.543  35.362   2.224
 8793W        W81218  28.397  21.244   3.643
 8794W        W81219  44.456  30.511  11.513
 8795W        W81220  26.134  31.020   4.655
 8796W        W81221  22.749  40.396  12.024
 8797W        W81222  40.114  33.962  14.485
 8798W        W81223  31.655   7.078   3.748
 8799W        W81224  37.458   9.871  12.147
 8800W        W81225   6.350  23.559   1.842
 8801W        W81226   5.297  32.103  10.647
 8802W        W81227   6.823  42.467   0.289
 8803W        W81228  38.677   9.890  13.492
 8804W        W81229  37.569  28.357   1.799
 8805W        W81230  24.571   3.958  14.440
 8806W        W81231   1.256   8.605   4.281
 8807W        W81232  35.388  30.188   2.158
 8808W        W81233  38.630   2.426  14.916
 8809W        W81234  16.335  10.522   1.798
 8810W        W81235   2.067  39.756  13.540
 8811W        W81236   0.294   7.221   3.620
 8812W        W81237  34.574   6.443  14.491
 8813W        W81238   6.838  33.399   4.537
 8814W        W81239  18.148  26.434   1.272
 8815W        W81240   5.723  27.497  11.489
 8816W        W81241  22.751  27.212   1.302
 8817W        W81242  14.151   7.117   2.272
 8818W        W81243  34.485  43.482  11.164
 8819W        W81244  25.568  27.542  13.935
 8820W        W81245  41.502  24.985  10.640
 8821W        W81246  23.713   4.214  10.337
 8822W        W81247  19.402  31.187  13.786
 8823W        W81248   8.072  40.783  13.171
 8824W        W81249  18.317  41.036   1.735
 8825W        W81250   1.262  22.104   1.721
 8826W        W81251  12.442  20.048   0.813
 8827W        W81252  41.476   1.477   2.881
 8828W        W81253  31.939  35.650  13.136
 8829W        W81254  13.515  21.076  13.370
 8830W        W81255   7.839   2.485   2.332
 8831W        W81256  14.596  11.887   4.885
 8832W        W81257  37.789   3.770  13.031
 8833W        W81258   0.559  18.087  12.890
 8834W        W81259   7.449  35.817  11.185
 8835W        W81260  26.296  10.607   3.533
 8836W        W81261  22.284  41.700   0.292
 8837W        W81262  28.082  19.724   2.430
 8838W        W81263  19.798  29.459  13.837
 8839W        W81264  41.974  43.002  10.601
 8840W        W81265  10.182  44.875  14.618
 8841W        W81266  29.008  40.981   9.521
 8842W        W81267  36.174  19.333  10.682
 8843W        W81268  21.580  16.745  13.597
 8844W        W81269  13.748   8.718  12.693
 8845W        W81270  34.541  29.022  14.367
 8846W        W81271  39.613   4.199   4.052
 8847W        W81272   1.011  42.031  14.328
 8848W        W81273   2.363  41.032   0.436
 8849W        W81274  44.196   9.627  10.288
 8850W        W81275   9.684   8.384   0.035
 8851W        W81276  30.666  30.371  12.992
 8852W        W81277  24.989   5.850  14.771
 8853W        W81278   2.427  24.889   0.728
 8854W        W81279  22.046   9.296   0.139
 8855W        W81280  20.302  20.546  12.026
 8856W        W81281  27.903  42.108  13.425
 8857W        W81282  39.015  32.349  12.998
 8858W        W81283  19.740  24.126  10.411
 8859W        W81284  25.044  18.609  14.475
 8860W        W81285  40.566  40.485  13.004
 8861W        W81286  26.515  40.528  14.786
 8862W        W81287  17.061  18.584  13.221
 8863W        W81288  37.363   9.632  11.198
 8864W        W81289  17.721   5.682   0.886
 8865W        W81290  31.630  36.467   2.269
 8866W        W81291   8.309  10.456   4.882
 8867W        W81292   3.224   1.863   2.943
 8868W        W81293  23.039  20.185   1.380
 8869W        W81294  24.176  28.712  12.899
 8870W        W81295   7.734  41.051   3.108
 8871W        W81296  14.798  23.511  14.221
 8872W        W81297   6.466  26.989   0.168
 8873W        W81298  26.601  37.170   0.244
 8874W        W81299  32.329  44.280   9.963
 8875W        W81300   6.000  20.910   2.223
 8876W        W81301  28.422  20.198  11.950
 8877W        W81302   8.752  29.748   0.787
 8878W        W81303  13.130  25.609  13.481
 8879W        W81304   3.721  36.543   0.009
 8880W        W81305   1.938  13.996  12.625
 8881W        W81306  11.328  17.040  13.924
 8882W        W81307  33.539  15.009  11.435
 8883W        W81308  11.350  13.401  14.359
 8884W        W81309  15.176  40.479  12.024
 8885W        W81310  33.992  15.031   0.714
 8886W        W81311  42.222  25.264  11.082
 8887W        W81312   8.449  10.511  13.745
 8888W        W81313  24.778  39.965  10.660
 8889W        W81314  19.571  40.950  13.218
 8890W        W81315  41.280  32.647   2.711
 8891W        W81316  14.295  33.480   4.791
 8892W        W81317   4.976  24.026  11.654
 8893W        W81318  34.974  10.264  10.615
 8894W        W81319  16.640  26.965   0.198
 8895W        W81320  36.291   1.586   0.949
 8896W        W81321  14.138  10.804  10.721
 8897W        W81322  10.233  41.564  11.077
 8898W        W81323  27.230  34.311   0.201
 8899W        W81324  10.472  27.940   4.297
 8900W        W81325  22.088  18.531   3.256
 8901W        W81326   6.178  39.910  12.536
 8902W        W81327  28.534   8.169   0.471
 8903W        W81328  41.770  14.637  14.527
 8904W        W81329  20.253  21.035   4.995
 8905W        W81330   4.584  18.795  11.145
 8906W        W81331   4.690  26.016  11.476
 8907W        W81332  14.235  12.262  10.515
 8908W        W81333  19.307  43.359  12.476
 8909W        W81334  13.798  33.506   4.660
 8910W        W81335  22.607  31.179  10.713
 8911W        W81336  32.408  11.853   1.860
 8912W        W81337  24.201   6.743   3.784
 8913W        W81338  30.482  39.403  10.797
 8914W        W81339   1.958  27.250  13.011
 8915W        W81340  13.179   5.867  12.495
 8916W        W81341  18.779  27.903  12.434
 8917W        W81342  31.040  19.616   4.587
 8918W        W81343  38.157  23.481  13.077
 8919W        W81344  28.104  13.341  12.168
 8920W        W81345  22.538  37.435  14.358
 8921W        W81346  20.718  32.616  14.838
 8922W        W81347  22.740  12.668  11.586
 8923W        W81348  43.967   8.723  11.998
 8924W        W81349  21.276  33.830   5.008
 8925W        W81350  32.797   0.259  11.295
 8926W        W81351  31.477  15.193  14.886
 8927W        W81352  30.850  38.072  12.041
 8928W        W81353  33.217  32.137   3.659
 8929W        W81354  28.122  31.455   1.728
 8930W        W81355  27.627   3.989   1.605
 8931W        W81356  28.708   5.164  14.983
 8932W        W81357  17.983  31.656   3.704
 8933W        W81358  31.141   7.803   4.679
 8934W        W81359  10.081  34.405   0.850
 8935W        W81360   3.907   1.997  11.708
 8936W        W81361  26.889  24.790   2.421
 8937W        W81362  18.752   5.153   0.635
 8938W        W81363  35.172   0.250   0.708
 8939W        W81364  19.244   7.906   1.274
 8940W        W81365  23.270  10.629  12.116
 8941W        W81366  11.735  20.953   0.848
 8942W        W81367   6.728   3.464  13.780
 8943W        W81368  28.568  17.986  14.013
 8944W        W81369  42.758  25.508   1.321
 8945W        W81370  28.586  44.601   4.064
 8946W        W81371  24.191  13.356   4.536
 8947W        W81372  22.541   5.376   1.094
 8948W        W81373  29.189  25.778   4.270
 8949W        W81374  42.575  14.215  12.608
 8950W        W81375   4.684  13.349   1.168
 8951W        W81376   1.354  27.386   1.882
 8952W        W81377  18.313  16.317   4.258
 8953W        W81378  12.363  17.206  11.923
 8954W        W81379   1.951   1.290  10.986
 8955W        W81380   1.419  35.440  13.482
 8956W        W81381  44.510  18.693   0.376
 8957W        W81382  27.947  24.258  14.286
 8958W        W81383  35.720  34.603   2.221
 8959W        W81384  22.135  10.317  12.441
 8960W        W81385  20.698   8.838   3.873
 8961W        W81386   9.583  15.197  14.194
 8962W        W81387  14.916   8.687  12.125
 8963W        W81388  27.826  44.880  10.660
 8964W        W81389  16.653  29.113  14.410
 8965W        W81390  38.807   0.836  10.633
 8966W        W81391  22.763  21.170  11.401
 8967W        W81392  11.555  25.093   2.000
 8968W        W81393   5.917  14.178  12.582
 8969W        W81394  18.100   2.803  14.842
 8970W        W81395  36.117  12.807   2.827
 8971W        W81396   6.139  16.674  13.226
 8972W        W81397   4.301   1.327  13.336
 8973W        W81398  40.084  12.791   0.378
 8974W        W81399  17.624  42.825   0.660
 8975W        W81400  28.089   1.825   0.620
 8976W        W81401   2.001  41.697  11.041
 8977W        W81402  17.948   8.752   4.877
 8978W        W81403  11.520  30.549  13.047
 8979W        W81404  28.686  20.133   4.283
 8980W        W81405   9.842  22.183   4.802
 8981W        W81406  25.390  32.113  13.955
 8982W        W81407  10.192   9.150   0.982
 8983W        W81408  35.053  40.853   4.365
 8984W        W81409   2.464  43.669  14.119
 8985W        W81410  28.385  29.066   0.966
 8986W        W81411  41.514  23.668  10.587
 8987W        W81412   2.027  25.939  12.259
 8988W        W81413  26.906   2.835   3.270
 8989W        W81414  13.619   5.007  14.366
 8990W        W81415  41.127  21.512  13.429
 8991W        W81416  26.021  38.792   2.724
 8992W        W81417  31.174  30.503  11.486
 8993W        W81418  22.614   5.930  13.159
 8994W        W81419  30.993  40.335   3.725
 8995W        W81420  36.145  39.546  12.512
 8996W        W81421  23.559  24.261   0.262
 8997W        W81422  28.466  32.520   1.491
 8998W        W81423  24.542  27.631  12.939
 8999W        W81424  29.352  33.979  11.148
 9000W        W81425  37.197  27.075   0.883
 9001W        W81426  28.353  35.360  13.203
 9002W        W81427  41.112  39.402   4.818
 9003W        W81428  39.293  32.457  13.790
 9004W        W81429  14.166  28.546  13.759
 9005W        W81430  15.271  11.573   3.325
 9006W        W81431   8.294   4.152  13.514
 9007W        W81432  34.002  15.085  14.737
 9008W        W81433  36.751  10.728   4.829
 9009W        W81434  33.064   1.969  10.472
 9010W        W81435  31.371  12.278  11.074
 9011W        W81436  22.127  23.659   0.174
 9012W        W81437   0.168  11.766  13.196
 9013W        W81438  28.634  27.237  12.657
 9014W        W81439  17.213  16.045  13.442
 9015W        W81440  33.898  33.006  12.041
 9016W        W81441  35.075   2.123   5.338
 9017W        W81442  12.962  12.880   0.974
 9018W        W81443  39.512  16.077   0.918
 9019W        W81444  10.823  30.490   2.770
 9020W        W81445   9.772  44.247   3.614
 9021W        W81446  37.060  24.982  14.802
 9022W        W81447  32.676  25.974  14.500
 9023W        W81448  28.591  25.642   4.255
 9024W        W81449  38.978   8.635  12.569
 9025W        W81450   3.680   4.122   0.672
 9026W        W81451  13.384  38.787  14.325
 9027W        W81452  39.659  41.665  14.746
 9028W        W81453   9.077  19.627  13.796
 9029W        W81454  14.623   2.966  11.969
 9030W        W81455  26.740  18.947  11.485
 9031W        W81456   8.919  16.114   1.289
 9032W        W81457  10.936  16.827   3.626
 9033W        W81458   8.219  21.068  12.020
 9034W        W81459  30.841  33.687  11.470
 9035W        W81460  21.975  24.224   2.324
 9036W        W81461  16.329  43.690  14.945
 9037W        W81462   9.847  24.682  14.382
 9038W        W81463   5.876  23.657  13.382
 9039W        W81464  41.946  42.767   4.816
 9040W        W81465   5.172  17.333   0.796
 9041W        W81466  21.045  16.659  13.877
 9042W        W81467   1.476  33.067   4.178
 9043W        W81468  27.159   7.831  13.114
 9044W        W81469   8.076  20.219  11.187
 9045W        W81470  27.376  16.875   4.396
 9046W        W81471  24.716  41.297   4.367
 9047W        W81472  12.349   3.892   3.323
 9048W        W81473  34.002  31.059  10.674
 9049W        W81474  21.505  36.869  14.981
 9050W        W81475   3.325  10.170   1.459
 9051W        W81476  26.313  28.946  14.148
 9052W        W81477  30.915  41.819  10.521
 9053W        W81478   1.981  39.133   4.470
 9054W        W81479  10.821  44.493   4.451
 9055W        W81480  29.212   0.255   1.041
 9056W        W81481  14.573  24.920  10.019
 9057W        W81482   5.897  31.543  11.043
 9058W        W81483  25.243   9.015   3.269
 9059W        W81484   0.777  44.920  14.784
 9060W        W81485  26.041  28.699   1.946
 9061W        W81486  36.539   3.672  12.616
 9062W        W81487  24.314  31.141   4.252
 9063W        W81488  16.044  19.117  10.878
 9064W        W81489  29.098  42.443  14.271
 9065W        W81490  21.733  16.808   1.755
 9066W        W81491  29.581   4.226  12.052
 9067W        W81492  13.580   6.159  12.407
 9068W        W81493   1.287  33.871   4.790
 9069W        W81494  15.336   6.280  13.438
 9070W        W81495  19.322  17.484   0.917
 9071W        W81496  28.013  11.883   3.671
 9072W        W81497  37.424  37.559   0.298
 9073W        W81498  44.517   5.089   0.765
 9074W        W81499  31.879  15.249   3.331
 9075W        W81500  18.082  32.178   0.539
 9076W        W81501   4.743   1.708   1.061
 9077W        W81502   7.423  43.863   2.737
 9078W        W81503  28.143  11.179   1.672
 9079W        W81504  25.379  15.396  12.922
 9080W        W81505  25.563  14.527  14.960
 9081W        W81506   6.873  25.901   4.942
 9082W        W81507   3.753  30.073   0.237
 9083W        W81508   9.751  20.168   4.967
 9084W        W81509   6.877  29.650  14.934
 9085W        W81510  21.380  39.739  12.147
 9086W        W81511  34.479   9.231   3.515
 9087W        W81512   6.073  18.020  10.306
 9088W        W81513  33.404  44.163  10.729
 9089W        W81514  39.563  38.345   2.139
 9090W        W81515   3.695  19.076  14.578
 9091W        W81516  28.077  19.103  12.285
 9092W        W81517  30.199   8.039   3.918
 9093W        W81518  22.656   2.625  14.432
 9094W        W81519  44.030  14.342   0.651
 9095W        W81520  18.066  32.051  12.868
 9096W        W81521  42.759   4.726  10.617
 9097W        W81522  43.783  32.903   2.307
 9098W        W81523  18.932  31.621  12.066
 9099W        W81524  43.494   8.223   3.170
 9100W        W81525  21.631  40.824   0.191
 9101W        W81526  35.436  42.538   0.342
 9102W        W81527  41.281   7.370  11.671
 9103W        W81528  18.801  21.504  11.852
 9104W        W81529  42.413  24.537   1.838
 9105W        W81530  21.142  18.693   4.636
 9106W        W81531   7.222  16.468  13.983
 9107W        W81532  33.633  17.603   1.038
 9108W        W81533   4.465   1.115  14.768
 9109W        W81534  27.934   7.323  12.835
 9110W        W81535  18.650  37.507  12.575
 9111W        W81536  39.340  35.310  14.354
 9112W        W81537  24.460   7.957   2.704
 9113W        W81538  26.650  30.079   2.284
 9114W        W81539  14.691  27.911  10.701
 9115W        W81540   3.420  38.852   5.125
 9116W        W81541  30.019  32.354  13.142
 9117W        W81542  20.680  22.562   2.308
 9118W        W81543  37.957   7.704   2.369
 9119W        W81544   5.914  28.627  10.847
 9120W        W81545  19.929   3.844  12.500
 9121W        W81546   5.180   5.516  12.873
 9122W        W81547  41.273  12.929   1.766
 9123W        W81548  43.370  17.105   4.620
 9124W        W81549  36.859  15.246   3.911
 9125W        W81550  40.787  44.880   4.798
 9126W        W81551  30.908  22.065  12.871
 9127W        W81552  43.352  16.163   0.412
 9128W        W81553  23.074  23.450  13.852
 9129W        W81554  16.644  30.565  11.944
 9130W        W81555  38.823  36.211   2.624
 9131W        W81556   7.208   1.212  14.990
 9132W        W81557  39.853  37.751  14.813
 9133W        W81558  19.226   4.063   0.310
 9134W        W81559  38.038  26.062   3.395
 9135W        W81560  13.161  11.880   2.698
 9136W        W81561   1.470   4.361   3.668
 9137W        W81562   0.021  34.069   1.843
 9138W        W81563  25.465  10.549  11.607
 9139W        W81564   8.269   8.221   2.655
 9140W        W81565   7.898  17.113   0.493
 9141W        W81566  31.910  27.565  13.927
 9142W        W81567  38.095  12.898  12.035
 9143W        W81568  38.101  21.512  14.368
 9144W        W81569  37.058   8.872  12.333
 9145W        W81570  21.257  41.537  14.042
 9146W        W81571  29.529  43.174  11.354
 9147W        W81572   7.212   4.618   2.901
 9148W        W81573   4.815  13.170   4.364
 9149W        W81574  44.423  41.452   4.137
 9150W        W81575  32.044  28.491  11.477
 9151W        W81576  27.115  34.041   2.948
 9152W        W81577  15.162  34.083  12.664
 9153W        W81578  12.216  12.261  10.761
 9154W        W81579  27.816  27.664  13.091
 9155W        W81580  30.611  18.432   4.707
 9156W        W81581  26.437  12.072   2.333
 9157W        W81582  22.763  30.068   0.539
 9158W        W81583   7.659  35.513   2.323
 9159W        W81584  33.505  41.184   4.108
 9160W        W81585  42.167   6.979  13.765
 9161W        W81586  43.039   0.774   1.683
 9162W        W81587  22.767   4.404  10.200
 9163W        W81588  14.207  23.134  12.438
 9164W        W81589  20.331  30.857  11.954
 9165W        W81590  18.262  12.778  13.483
 9166W        W81591  22.124  11.911  10.646
 9167W        W81592  27.572  43.586   3.781
 9168W        W81593  18.008  35.468   2.853
 9169W        W81594  39.001   0.049   3.629
 9170W        W81595  32.876  10.172  11.203
 9171W        W81596   6.127  17.088  13.597
 9172W        W81597  28.025  28.203  12.462
 9173W        W81598  35.349   4.166  13.997
 9174W        W81599  36.666  37.980   3.316
 9175W        W81600  42.026  32.708  12.541
 9176W        W81601  20.781  14.714  11.624
 9177W        W81602   4.685  43.864   1.869
 9178W        W81603  35.556  24.618   0.287
 9179W        W81604  31.793  27.086  14.679
 9180W        W81605  25.164  16.622   4.225
 9181W        W81606  23.752  13.123   1.446
 9182W        W81607  21.617  40.850   3.247
 9183W        W81608  22.569  18.052  10.554
 9184W        W81609  22.363  24.360  11.681
 9185W        W81610   3.415  20.163  14.545
 9186W        W81611  11.644  26.243  12.329
 9187W        W81612  30.067  15.580  14.881
 9188W        W81613  36.938  24.949  11.609
 9189W        W81614   3.200  38.076   1.740
 9190W        W81615  42.788  40.792   3.326
 9191W        W81616  43.868   6.414   2.366
 9192W        W81617  42.417  31.222   4.904
 9193W        W81618  37.527  32.150   0.810
 9194W        W81619  23.194  13.731   2.780
 9195W        W81620  32.514   3.007   0.204
 9196W        W81621   4.761  29.679  10.445
 9197W        W81622   1.276  33.234  12.396
 9198W        W81623  39.522  34.148  13.586
 9199W        W81624  43.543  24.400  11.960
 9200W        W81625  31.795  20.746  12.648
 9201W        W81626  26.711   4.339   4.111
 9202W        W81627   4.131  34.238   2.177
 9203W        W81628   4.125  25.635  14.373
 9204W        W81629  20.220   3.011   4.698
 9205W        W81630  44.682  28.693   4.112
 9206W        W81631  14.223  34.043  13.103
 9207W        W81632   6.965  33.858   1.677
 9208W        W81633  15.334  43.580   1.075
 9209W        W81634   8.188  14.160   3.029
 9210W        W81635   6.760  20.117   0.723
 9211W        W81636  44.806   5.269  10.646
 9212W        W81637  30.233  12.711   4.170
 9213W        W81638  43.132   4.769   3.750
 9214W        W81639  17.135  29.531   0.725
 9215W        W81640   3.496  30.549   4.502
 9216W        W81641  10.930   1.988  11.864
 9217W        W81642  18.742  44.546   4.575
 9218W        W81643  41.740  13.847  12.503
 9219W        W81644   0.962  27.463  12.216
 9220W        W81645  21.599  32.833  12.421
 9221W        W81646  23.122  43.075  14.909
 9222W        W81647  33.040  26.680   1.991
 9223W        W81648  12.587  34.961   3.163
 9224W        W81649  39.658  20.148   4.862
 9225W        W81650  40.514   3.348  11.270
 9226W        W81651  44.039  19.658   1.761
 9227W        W81652   5.410  24.580  12.147
 9228W        W81653  28.522  13.077   3.494
 9229W        W81654  35.688  16.397   2.717
 9230W        W81655  30.261  25.178   4.492
 9231W        W81656   6.636  14.769  14.282
 9232W        W81657  34.140  17.958  14.962
 9233W        W81658  11.170  35.085   3.298
 9234W        W81659  41.625  20.648   3.353
 9235W        W81660  15.058  25.146  13.002
 9236W        W81661  44.041   1.213  11.838
 9237W        W81662   9.824  30.829   0.865
 9238W        W81663  43.913  18.779  12.871
 9239W        W81664   9.862  42.046   4.451
 9240W        W81665  20.013  29.743  12.513
 9241W        W81666   0.385   3.532   3.675
 9242W        W81667  32.348  22.612  11.080
 9243W        W81668  39.421  27.049   1.261
 9244W        W81669  21.317  42.399   2.381
 9245W        W81670   8.694  14.597  13.777
 9246W        W81671  30.642  12.807  12.015
 9247W        W81672   0.002   1.859   1.710
 9248W        W81673  10.269  31.875  14.362
 9249W        W81674  28.545   3.727  13.751
 9250W        W81675  18.204  15.968   0.517
 9251W        W81676   2.032  15.863   2.376
 9252W        W81677   6.934   2.451  14.976
 9253W        W81678   3.470  22.565  13.359
 9254W        W81679  13.350  40.969   2.230
 9255W        W81680   8.612   4.988   4.143
 9256W        W81681   9.012  28.264   0.355
 9257W        W81682  18.833   7.959   4.360
 9258W        W81683  10.665  31.553  11.046
 9259W        W81684  31.648  22.667   1.372
 9260W        W81685  41.512  41.255   1.855
 9261W        W81686  38.546   4.752   4.826
 9262W        W81687   2.342  43.320  14.496
 9263W        W81688  38.503  23.079  14.347
 9264W        W81689   7.026  12.222  10.608
 9265W        W81690  26.969  29.008  11.953
 9266W        W81691   7.223   8.732  10.550
 9267W        W81692  33.392  37.417   0.010
 9268W        W81693  36.539  33.667   1.790
 9269W        W81694  37.753  44.345   1.797
 9270W        W81695  25.232  33.022  13.170
 9271W        W81696  19.251  29.789   1.475
 9272W        W81697  41.847  34.415   0.828
 9273W        W81698  25.194   4.408  10.171
 9274W        W81699  30.687  21.150   4.459
 9275W        W81700  14.196  36.491  14.081
 9276W        W81701   0.225   3.378  14.514
 9277W        W81702  30.397  15.448   1.412
 9278W        W81703  41.125   2.846  12.816
 9279W        W81704  20.502   1.795   4.135
 9280W        W81705  14.345  20.804   3.795
 9281W        W81706  28.866  42.261   4.091
 9282W        W81707   4.710  26.211   3.805
 9283W        W81708  41.788  19.418   1.201
 9284W        W81709   2.196  32.043  13.936
 9285W        W81710  30.642  33.345  11.153
 9286W        W81711  28.700  33.947   0.335
 9287W        W81712   5.622   4.977   4.824
 9288W        W81713   9.418  31.957  10.635
 9289W        W81714  10.789  12.428  13.931
 9290W        W81715  21.060   9.745   1.301
 9291W        W81716  38.088  15.628   0.356
 9292W        W81717   3.777   0.029  11.692
 9293W        W81718  24.491   0.403  11.525
 9294W        W81719  10.334  38.333   5.012
 9295W        W81720   4.473  15.045   0.584
 9296W        W81721  18.244  20.279   3.254
 9297W        W81722  31.364  31.401   1.796
 9298W        W81723   9.863  37.634  12.661
 9299W        W81724  21.490  19.589  11.903
 9300W        W81725   7.926   4.431  10.456
 9301W        W81726   4.829  39.320  13.780
 9302W        W81727  25.784   3.901   1.907
 9303W        W81728  16.800  34.052  13.923
 9304W        W81729  20.612  20.231   4.629
 9305W        W81730  38.806   6.446   3.237
 9306W        W81731   5.523  10.933   4.122
 9307W        W81732   9.903   6.902  12.066
 9308W        W81733   8.607  19.674   2.783
 9309W        W81734   7.289  28.367  11.423
 9310W        W81735  17.739   6.708   4.483
 9311W        W81736  40.815   6.263  10.786
 9312W        W81737  33.960   9.996  14.227
 9313W        W81738  26.626  34.228  13.883
 9314W        W81739  44.822   9.537  12.904
 9315W        W81740  37.756  39.376   1.285
 9316W        W81741  23.995  30.278  10.166
 9317W        W81742  10.838  40.137  12.862
 9318W        W81743  34.537  31.182  12.992
 9319W        W81744  28.469  19.400  12.489
 9320W        W81745  16.063  33.917  13.489
 9321W        W81746  14.350   8.207   3.159
 9322W        W81747  33.454  24.910  12.439
 9323W        W81748   9.173  11.820   0.016
 9324W        W81749  18.942  37.879   3.748
 9325W        W81750  11.924  14.113   0.319
 9326W        W81751  39.922  19.169  11.893
 9327W        W81752  40.750  42.750   2.346
 9328W        W81753   8.913  36.767   4.065
 9329W        W81754  29.115  36.693   1.323
 9330W        W81755   1.025  32.997  14.487
 9331W        W81756  31.594  30.498   4.255
 9332W        W81757  38.622  20.570  12.637
 9333W        W81758  22.269  16.701  10.914
 9334W        W81759  41.010   4.635   3.859
 9335W        W81760   9.976  22.112  14.178
 9336W        W81761   8.816  10.716  14.339
 9337W        W81762  12.112  10.275   4.215
 9338W        W81763  34.353   6.994  12.992
 9339W        W81764  44.421  27.212   2.001
 9340W        W81765  27.167  40.855  13.687
 9341W        W81766  12.311  18.449  12.508
 9342W        W81767  19.942   4.211   1.656
 9343W        W81768  14.540  25.285   3.473
 9344W        W81769  19.311  27.948  10.786
 9345W        W81770  32.084  37.897  11.544
 9346W        W81771   4.721  31.404   4.834
 9347W        W81772  34.337  32.699  10.702
 9348W        W81773   8.267   7.486  13.906
 9349W        W81774  19.139  40.919  14.530
 9350W        W81775  22.945  17.344   4.738
 9351W        W81776  42.806  24.110  12.293
 9352W        W81777   6.757  13.770  12.453
 9353W        W81778  27.459  41.504   3.601
 9354W        W81779   5.772   4.783   4.361
 9355W        W81780  37.776   2.355   1.792
 9356W        W81781   5.257  23.564   2.879
 9357W        W81782  15.067  36.472   3.283
 9358W        W81783  26.966  31.485   1.631
 9359W        W81784  37.019  17.665   4.392
 9360W        W81785  15.137   2.548   0.771
 9361W        W81786  25.473  29.063  12.935
 9362W        W81787  39.520  16.663   0.265
 9363W        W81788  22.153  39.055   1.294
 9364W        W81789  18.745  15.207  12.053
 9365W        W81790  33.503  35.592  12.014
 9366W        W81791   4.690  34.598   0.338
 9367W        W81792   3.743  14.626  14.328
 9368W        W81793  22.664   7.460  12.171
 9369W        W81794  40.622  36.131   1.281
 9370W        W81795   1.309   9.910   3.783
 9371W        W81796  17.845  14.114   2.102
 9372W        W81797  12.642  38.442  13.933
 9373W        W81798  39.286  18.323   3.773
 9374W        W81799  24.732  15.239   4.295
 9375W        W81800  32.895  40.928  12.446
 9376W        W81801  28.005  44.761  13.887
 9377W        W81802   6.727   2.810   4.709
 9378W        W81803   9.618  34.290  12.894
 9379W        W81804  25.427  39.029   0.851
 9380W        W81805  40.743  37.995  11.680
 9381W        W81806  22.061   9.295   1.643
 9382W        W81807  40.306  13.110  10.826
 9383W        W81808  30.697  11.329  12.400
 9384W        W81809  31.487  19.765   0.768
 9385W        W81810  17.558  31.007  14.968
 9386W        W81811   3.466  17.204  13.574
 9387W        W81812  23.821  42.915  12.067
 9388W        W81813  15.057   2.319   1.234
 9389W        W81814  19.317   9.703   1.912
 9390W        W81815  10.926  11.206   2.288
 9391W        W81816  40.197  34.980   9.931
 9392W        W81817  32.627   1.907  12.445
 9393W        W81818  15.989   7.436  13.834
 9394W        W81819  17.023  26.390  13.895
 9395W        W81820  20.819  25.581  11.939
 9396W        W81821   7.397   5.332  11.584
 9397W        W81822  39.810  41.930  14.063
 9398W        W81823   3.260  16.232  13.272
 9399W        W81824  20.609   0.705   3.437
 9400W        W81825  36.834  12.996  12.979
 9401W        W81826   3.255  34.926  14.826
 9402W        W81827  42.055  39.770   3.182
 9403W        W81828  25.517  43.796   3.173
 9404W        W81829  15.340  16.154   4.462
 9405W        W81830   0.889   6.188  13.840
 9406W        W81831  18.501  14.863  14.455
 9407W        W81832  10.102   3.213   4.496
 9408W        W81833  21.504  43.797   3.227
 9409W        W81834   6.669  17.793   3.253
 9410W        W81835  42.643  38.223  11.564
 9411W        W81836  13.302  28.732   1.161
 9412W        W81837   9.127  39.269   3.158
 9413W        W81838   4.480  16.837  14.920
 9414W        W81839   6.079   5.335  14.397
 9415W        W81840  42.454  20.054   0.309
 9416W        W81841   9.721  18.377   3.183
 9417W        W81842  36.661  31.376  14.314
 9418W        W81843  22.930   5.737  10.256
 9419W        W81844  22.924  17.647  14.307
 9420W        W81845  15.315  10.115  11.495
 9421W        W81846  27.147  21.762   1.484
 9422W        W81847  14.471  17.766   0.730
 9423W        W81848  27.106  19.830   0.215
 9424W        W81849  14.554  33.511   2.286
 9425W        W81850  17.176   0.058  12.984
 9426W        W81851  32.435   1.894  11.539
 9427W        W81852  44.000  32.671   1.845
 9428W        W81853  19.284  41.369  13.309
 9429W        W81854  38.924  14.162  11.478
 9430W        W81855  41.878  44.564   3.701
 9431W        W81856   2.788  16.342  11.115
 9432W        W81857  12.227  15.190  13.379
 9433W        W81858  36.657  22.576   2.374
 9434W        W81859  17.168   8.559   4.495
 9435W        W81860  41.398  16.239   2.184
 9436W        W81861  27.597  42.698   4.623
 9437W        W81862   8.679  26.145   2.797
 9438W        W81863  41.431  19.581  14.481
 9439W        W81864  37.499   5.136   9.952
 9440W        W81865  33.553  11.201   0.714
 9441W        W81866  39.640  36.847   4.126
 9442W        W81867  43.921  29.518  10.699
 9443W        W81868  41.864  36.955   4.443
 9444W        W81869  33.092  29.187   3.284
 9445W        W81870  20.000  43.813   0.967
 9446W        W81871  41.687   4.451  11.120
 9447W        W81872  14.776  39.811   3.151
 9448W        W81873   6.446  20.545  12.490
 9449W        W81874  11.431  17.750   4.415
 9450W        W81875  33.013  30.901  13.368
 9451W        W81876  13.835   9.923  11.961
 9452W        W81877  18.654   2.589   0.103
 9453W        W81878   4.813  40.464   2.572
 9454W        W81879  30.249  23.102  12.463
 9455W        W81880   1.672  31.554  14.784
 9456W        W81881  33.525  25.045   0.020
 9457W        W81882  40.902  24.137  10.644
 9458W        W81883  28.435  21.469   3.184
 9459W        W81884  33.781   4.226   0.895
 9460W        W81885  28.812  14.622  14.740
 9461W        W81886   6.402  25.969   0.248
 9462W        W81887  14.336  27.414  11.465
 9463W        W81888  17.124  19.210  12.446
 9464W        W81889  22.068  12.765   1.354
 9465W        W81890  37.533  39.550   2.646
 9466W        W81891  42.677  17.880  11.509
 9467W        W81892  19.687   4.441  13.357
 9468W        W81893   5.228  20.460   2.427
 9469W        W81894  36.854  17.032   2.693
 9470W        W81895  31.530  26.432  10.592
 9471W        W81896  36.147   4.808   3.101
 9472W        W81897   3.223  17.808  10.687
 9473W        W81898  23.249  39.655   4.182
 9474W        W81899  36.391  18.778   3.809
 9475W        W81900  44.553  31.691   0.967
 9476W        W81901  17.111  11.379  11.118
 9477W        W81902  42.513  19.335   1.481
 9478W        W81903  43.916   3.434  14.668
 9479W        W81904  14.132  27.534   3.706
 9480W        W81905  24.178  38.600  12.706
 9481W        W81906  26.750  17.247   3.807
 9482W        W81907   7.444  26.494   3.268
 9483W        W81908   1.060  34.092  10.533
 9484W        W81909  32.074   5.080   3.238
 9485W        W81910   6.687  22.758  12.316
 9486W        W81911  14.463  12.298  14.294
 9487W        W81912  18.153  41.050  10.717
 9488W        W81913   4.872  36.525   3.109
 9489W        W81914  17.278  26.697   0.340
 9490W        W81915  21.629  40.863  10.558
 9491W        W81916  30.721  18.112   2.337
 9492W        W81917  12.337  17.650   4.210
 9493W        W81918  28.764  34.852  10.537
 9494W        W81919   7.697  10.289  14.775
 9495W        W81920  11.340  19.192   1.762
 9496W        W81921  31.514  33.516   3.729
 9497W        W81922  36.240  15.628  11.021
 9498W        W81923  29.423  26.665  13.609
 9499W        W81924   2.894  18.418   3.872
 9500W        W81925  27.514  44.836  14.116
 9501W        W81926  27.596  38.102  11.192
 9502W        W81927  11.199  13.178   3.694
 9503W        W81928  26.549   5.806   4.629
 9504W        W81929   6.761   4.883  13.288
 9505W        W81930   2.769  31.106  12.611
 9506W        W81931   0.523  32.987   2.440
 9507W        W81932  25.525  38.698  12.130
 9508W        W81933  23.157   9.368   1.836
 9509W        W81934   6.915   3.936  13.894
 9510W        W81935  36.086  15.243   0.739
 9511W        W81936   8.989  41.587  12.042
 9512W        W81937  25.934  31.494  14.394
 9513W        W81938  41.008  31.220  14.156
 9514W        W81939  26.921  17.403   1.486
 9515W        W81940   3.735  17.579  11.508
 9516W        W81941  37.295  21.994   4.366
 9517W        W81942   2.759   0.897  11.099
 9518W        W81943  24.698  17.758  14.981
 9519W        W81944  23.384   7.326   4.409
 9520W        W81945  37.920  35.817   0.415
 9521W        W81946  43.992  17.252   2.592
 9522W        W81947  13.761  39.498  12.557
 9523W        W81948  42.887   7.264   3.253
 9524W        W81949   3.197  31.905  12.949
 9525W        W81950  43.387  37.466  14.326
 9526W        W81951  11.852  23.140  13.889
 9527W        W81952  20.738  30.660  11.669
 9528W        W81953  31.667  10.131   2.235
 9529W        W81954  25.447  36.896   2.300
 9530W        W81955   3.701  38.869   2.707
 9531W        W81956  36.350  39.334  13.776
 9532W        W81957  14.854  39.478   3.737
 9533W        W81958   3.647  44.051  12.215
 9534W        W81959   3.015  19.041   4.614
 9535W        W81960  19.724  14.762  12.110
 9536W        W81961  13.642   9.807  10.927
 9537W        W81962  42.847   2.443  13.792
 9538W        W81963  12.723   0.036  14.295
 9539W        W81964  13.565  32.342   0.902
 9540W        W81965  38.301  17.168   0.201
 9541W        W81966  31.113  14.121   2.839
 9542W        W81967   5.763  38.796  14.538
 9543W        W81968  37.145  31.816   0.860
 9544W        W81969   4.354  35.303   0.287
 9545W        W81970  39.505  24.639   1.936
 9546W        W81971  17.132   1.957   2.432
 9547W        W81972  29.457  14.082   2.864
 9548W        W81973  32.026  22.719  13.350
 9549W        W81974  35.511  37.521   3.106
 9550W        W81975  41.303   8.674   0.352
 9551W        W81976  33.755  33.181   0.924
 9552W        W81977   0.992  12.759   2.188
 9553W        W81978   7.852  15.035   4.797
 9554W        W81979   9.848   6.614  13.034
 9555W        W81980  27.270  31.065   5.385
 9556W        W81981  18.539   6.305  10.599
 9557W        W81982  14.674  34.728   2.888
 9558W        W81983  14.161  32.182   2.494
 9559W        W81984  30.892  43.413   4.149
 9560W        W81985  12.134  17.352   1.979
 9561W        W81986  22.282   4.351  11.435
 9562W        W81987  33.602  44.752   0.449
 9563W        W81988   5.739  16.777  12.343
 9564W        W81989   2.458  36.931   4.070
 9565W        W81990  26.077  44.796  14.084
 9566W        W81991  21.045  35.919  11.068
 9567W        W81992  21.452  41.009   2.727
 9568W        W81993   0.023  41.065  12.377
 9569W        W81994  18.586  11.432  12.490
 9570W        W81995   3.160  19.555  12.404
 9571W        W81996  40.569  19.042  11.306
 9572W        W81997  30.003  40.929  13.534
 9573W        W81998  37.413  13.241   0.948
 9574W        W81999  38.641  17.065  14.314
 9575W        W82000  18.199  20.675  10.575
 9576W        W82001  11.599  29.643   4.635
 9577W        W82002  43.305  18.110  12.077
 9578W        W82003   3.524  43.043   1.008
 9579W        W82004  17.774  20.466   3.224
 9580W        W82005  41.864  39.700   3.655
 9581W        W82006  43.448   5.100  11.006
 9582W        W82007   9.462  30.496   4.153
 9583W        W82008  25.107  32.012   0.761
 9584W        W82009  21.271  29.342  14.821
 9585W        W82010   4.472  12.103  11.105
 9586W        W82011  31.325  37.847   4.106
 9587W        W82012  35.980  19.546   3.820
 9588W        W82013   2.200   5.459  12.966
 9589W        W82014  39.927   8.777   0.460
 9590W        W82015  33.312  15.574   1.751
 9591W        W82016  38.767  28.023  10.668
 9592W        W82017  43.778  42.766  13.767
 9593W        W82018  40.115  17.711   0.178
 9594W        W82019   7.843  32.419   2.660
 9595W        W82020  42.562  22.679  12.872
 9596W        W82021  40.540  42.213  14.323
 9597W        W82022  19.933   2.348  12.019
 9598W        W82023   3.271  12.419   1.450
 9599W        W82024  27.741  41.419  12.959
 9600W        W82025  12.394  23.157  10.270
 9601W        W82026  21.862  35.426   1.995
 9602W        W82027  26.566  42.917   4.537
 9603W        W82028  15.259  27.124   3.696
 9604W        W82029  31.881  17.163  11.706
 9605W        W82030  28.334  28.087  14.985
 9606W        W82031   6.823  42.556  12.487
 9607W        W82032  22.098   8.562  11.637
 9608W        W82033  33.970  32.382   0.422
 9609W        W82034  27.705  30.510  14.811
 9610W        W82035  37.134   3.806   2.862
 9611W        W82036  26.186  27.438  14.629
 9612W        W82037  38.541  39.876   1.423
 9613W        W82038  24.303  18.976   2.247
 9614W        W82039  23.177  12.795   2.717
 9615W        W82040   4.691  11.633   2.689
 9616W        W82041   4.328  40.597   0.413
 9617W        W82042  14.111  41.567  10.968
 9618W        W82043  23.889  19.724  12.148
 9619W        W82044  31.858  25.004  11.430
 9620W        W82045  24.571  39.014  10.937
 9621W        W82046  14.742  22.565  11.967
 9622W        W82047  13.633  39.430  11.172
 9623W        W82048  29.467   9.691  12.521
 9624W        W82049  10.796  29.886   0.715
 9625W        W82050  38.899   7.890  10.011
 9626W        W82051  39.315  17.209  10.756
 9627W        W82052   4.695  33.571   9.933
 9628W        W82053  37.082  17.318   1.503
 9629W        W82054   5.342  16.652  13.632
 9630W        W82055  10.844  10.885  14.007
 9631W        W82056  40.704  29.978  12.859
 9632W        W82057  21.218   6.322   4.677
 9633W        W82058  33.364  12.635  12.887
 9634W        W82059  41.226  38.885   2.325
 9635W        W82060  19.236  37.869   3.307
 9636W        W82061  19.990  39.841  11.654
 9637W        W82062  44.145  42.579   1.857
 9638W        W82063  29.553  28.514   2.807
 9639W        W82064  21.185  14.051   1.717
 9640W        W82065  10.807  21.537  13.508
 9641W        W82066  23.091  36.768   2.448
 9642W        W82067  24.043   1.039  11.117
 9643W        W82068   3.288  15.839  11.945
 9644W        W82069  16.545  39.969   2.817
 9645W        W82070  12.858  37.918   0.320
 9646W        W82071   7.712  18.533   9.821
 9647W        W82072  14.113   8.094   0.175
 9648W        W82073   5.110  40.407   1.129
 9649W        W82074  18.506  25.593  13.369
 9650W        W82075   3.767  32.561   1.388
 9651W        W82076  44.742  16.202   3.434
 9652W        W82077  35.689  27.662  11.422
 9653W        W82078   1.307   2.379  12.307
 9654W        W82079  16.710  16.356   1.732
 9655W        W82080  35.407  31.995   4.349
 9656W        W82081  13.975  18.866   3.027
 9657W        W82082  26.177   1.474   4.895
 9658W        W82083   2.487  14.676   1.758
 9659W        W82084  32.673  42.959   3.726
 9660W        W82085  38.138  11.970   2.598
 9661W        W82086  22.225  32.984   3.201
 9662W        W82087  34.973   0.206  13.880
 9663W        W82088  29.661  22.721   3.305
 9664W        W82089  29.526   9.119  13.407
 9665W        W82090  24.107  38.987   4.589
 9666W        W82091  39.392  25.114   2.390
 9667W        W82092  17.707  21.025  11.813
 9668W        W82093  37.392   1.248  10.763
 9669W        W82094  21.247  21.461   0.792
 9670W        W82095  12.824  39.277   1.878
 9671W        W82096  38.900  14.799  12.104
 9672W        W82097  40.770  30.163   3.214
 9673W        W82098  35.465  33.028   3.468
 9674W        W82099  29.215  29.899  14.977
 9675W        W82100  35.837   8.649  10.135
 9676W        W82101  38.040   3.985   4.739
 9677W        W82102  16.743  23.767   3.206
 9678W        W82103  30.455  33.845  11.168
 9679W        W82104  24.837  16.664  11.678
 9680W        W82105  12.806   5.226   4.787
 9681W        W82106  15.205  25.046  13.514
 9682W        W82107  37.590  14.626  11.634
 9683W        W82108  11.860  29.857   3.889
 9684W        W82109  25.843   2.390  12.472
 9685W        W82110  17.488  14.000  12.591
 9686W        W82111  44.911  15.108   1.981
 9687W        W82112  18.247  24.980   2.786
 9688W        W82113  36.948  22.820   0.168
 9689W        W82114  38.354  14.550  11.729
 9690W        W82115  28.035  17.562  10.610
 9691W        W82116   1.239  22.113  12.346
 9692W        W82117  26.236   1.633   3.072
 9693W        W82118  19.887   8.409   2.495
 9694W        W82119   8.410  41.887   2.431
 9695W        W82120  19.008  25.721   4.184
 9696W        W82121  38.048   6.093   2.420
 9697W        W82122  11.350  23.024   4.231
 9698W        W82123  29.061  21.189  11.825
 9699W        W82124  25.851  15.198   0.865
 9700W        W82125   5.644  32.881  11.613
 9701W        W82126  23.962  30.481   3.598
 9702W        W82127  24.220   7.681   3.489
 9703W        W82128  21.113  27.648   3.904
 9704W        W82129  16.239   9.322   2.973
 9705W        W82130   3.840  38.499   0.405
 9706W        W82131  32.683   6.293   0.765
 9707W        W82132  25.253  18.823   2.385
 9708W        W82133  32.978  26.316   3.709
 9709W        W82134  34.057   0.006  11.678
 9710W        W82135  32.998  42.366  13.537
 9711W        W82136   1.822   4.784   2.147
 9712W        W82137  44.400  34.342  13.513
 9713W        W82138  14.597  41.484  10.200
 9714W        W82139  38.389  41.950  13.599
 9715W        W82140  13.622  26.133  12.540
 9716W        W82141  28.168  30.917  10.082
 9717W        W82142  28.288  23.850   1.765
 9718W        W82143  23.329  31.440   5.071
 9719W        W82144   8.843   5.006  12.753
 9720W        W82145   9.472  34.402  13.379
 9721W        W82146  15.559  30.335   3.317
 9722W        W82147  28.074   5.364  12.216
 9723W        W82148  36.819  27.492   3.194
 9724W        W82149  18.136  41.087  13.562
 9725W        W82150  23.059  27.924   0.140
 9726W        W82151   7.918  19.850   2.295
 9727W        W82152   1.937  41.853  13.766
 9728W        W82153  40.251   0.232  12.843
 9729W        W82154  26.985  16.456   0.358
 9730W        W82155  12.760   4.868   1.852
 9731W        W82156  20.893  29.882  11.311
 9732W        W82157  38.809  42.984  10.142
 9733W        W82158  32.628   5.887  11.191
 9734W        W82159  18.727  34.818   1.882
 9735W        W82160  27.704  39.706   5.438
 9736W        W82161  20.717  18.439  14.531
 9737W        W82162  20.907  14.684  12.610
 9738W        W82163  33.940  17.966  11.033
 9739W        W82164  11.611  12.224   4.173
 9740W        W82165  12.379   7.940  11.524
 9741W        W82166  44.983  37.792  13.444
 9742W        W82167  20.214  39.336   2.017
 9743W        W82168  24.057   7.941   2.354
 9744W        W82169  39.351   3.357   2.845
 9745W        W82170  30.585   2.759   1.038
 9746W        W82171  34.616  37.815   1.737
 9747W        W82172  19.782  32.999  12.504
 9748W        W82173  40.078  36.492  13.327
 9749W        W82174  41.620   5.615   0.560
 9750W        W82175  12.738   3.990   1.883
 9751W        W82176  26.680  42.095  14.959
 9752W        W82177  29.934  29.010  13.058
 9753W        W82178   4.465   9.720  14.444
 9754W        W82179   6.903  30.150   3.901
 9755W        W82180   2.418  20.771   2.435
 9756W        W82181  13.138  39.373  10.949
 9757W        W82182   9.311  35.949  12.594
 9758W        W82183   6.409   2.318   4.739
 9759W        W82184   2.252  27.690  12.044
 9760W        W82185  39.076  30.959  12.555
 9761W        W82186  19.809  19.448   3.189
 9762W        W82187  27.208   8.172   0.857
 9763W        W82188  28.163  23.073  11.449
 9764W        W82189  13.829   4.428  12.477
 9765W        W82190  34.509  30.904  13.439
 9766W        W82191  29.456   8.892   1.773
 9767W        W82192  42.311   6.846   0.694
 9768W        W82193  13.575   0.945  13.590
 9769W        W82194  25.579  12.227   4.505
 9770W        W82195  15.036  41.943   4.353
 9771W        W82196  28.178   5.148  14.923
 9772W        W82197  13.398  27.190  12.874
 9773W        W82198  30.894   9.802   2.583
 9774W        W82199  13.599  44.498  14.508
 9775W        W82200  25.130  41.995   2.286
 9776W        W82201  31.514  32.709   1.352
 9777W        W82202  21.866  16.811   0.892
 9778W        W82203   7.320  31.100  14.995
 9779W        W82204  40.663  39.159   4.074
 9780W        W82205  36.518  30.094   2.847
 9781W        W82206  34.410  41.368   3.885
 9782W        W82207  44.193   0.298   2.136
 9783W        W82208   1.093   0.366  11.523
 9784W        W82209  44.732  34.659  12.631
 9785W        W82210  33.289  32.091  11.212
 9786W        W82211  15.550   1.132  14.037
 9787W        W82212  34.800   1.888  13.885
 9788W        W82213  19.591  29.401  14.312
 9789W        W82214  11.364  16.264   0.300
 9790W        W82215  34.995  18.078  11.667
 9791W        W82216  31.546   1.562   4.467
 9792W        W82217  32.685  24.653  12.001
 9793W        W82218  38.269  21.061   4.714
 9794W        W82219  25.075  14.604   4.394
 9795W        W82220  39.201  15.722   1.871
 9796W        W82221  37.837  31.009   4.565
 9797W        W82222  27.614  30.603   1.645
 9798W        W82223  12.274  31.877   2.672
 9799W        W82224   3.642  31.428   4.227
 9800W        W82225  37.446  34.960  13.368
 9801W        W82226   5.345  32.093  11.564
 9802W        W82227  11.294  20.149   4.778
 9803W        W82228  38.362   4.977  11.960
 9804W        W82229  29.158  16.578   4.195
 9805W        W82230  12.544  38.136   0.953
 9806W        W82231  29.199  17.612   4.082
 9807W        W82232  32.379  15.019   0.462
 9808W        W82233   4.824  42.087   4.686
 9809W        W82234  33.912  33.410  10.437
 9810W        W82235   7.306   1.034   1.852
 9811W        W82236  27.616  31.398  10.644
 9812W        W82237   5.747  24.159  13.398
 9813W        W82238   6.420   4.253   4.752
 9814W        W82239  13.235  20.569  13.085
 9815W        W82240  43.809  34.305  14.918
 9816W        W82241  29.197   9.916   1.768
 9817W        W82242  26.003  10.776   3.137
 9818W        W82243  16.712  16.067  13.538
 9819W        W82244  32.384  10.360   1.346
 9820W        W82245  35.051  26.889  10.696
 9821W        W82246  39.567  21.765   4.525
 9822W        W82247  17.008  25.250  12.412
 9823W        W82248  28.641   4.872   2.288
 9824W        W82249  41.518  32.388   1.377
 9825W        W82250   4.081   8.383  10.579
 9826W        W82251   1.262   7.114   0.496
 9827W        W82252  10.272  27.011  12.157
 9828W        W82253   8.405  28.665  12.501
 9829W        W82254  39.482   5.526  11.834
 9830W        W82255   0.939  27.157  10.333
 9831W        W82256   4.156  19.772   2.854
 9832W        W82257  14.137  42.553  11.188
 9833W        W82258  22.776  35.910  11.669
 9834W        W82259  42.201  34.575   2.596
 9835W        W82260  30.628  29.207   0.377
 9836W        W82261  25.217   0.279  14.034
 9837W        W82262  42.418  42.967   0.900
 9838W        W82263  11.008   4.816  13.956
 9839W        W82264  23.230  35.957   3.649
 9840W        W82265   4.688  34.412   3.785
 9841W        W82266  40.097  28.583  11.479
 9842W        W82267  30.141  40.928   2.037
 9843W        W82268  15.318  39.823   4.468
 9844W        W82269  39.835  41.487   2.685
 9845W        W82270  14.156  31.173  14.766
 9846W        W82271   8.015  10.939   9.995
 9847W        W82272  41.950  31.603  14.235
 9848W        W82273  13.564  32.871  12.468
 9849W        W82274  34.870  32.321   0.448
 9850W        W82275  20.082  14.126  11.668
 9851W        W82276   2.657   0.954   3.680
 9852W        W82277  17.986  36.499   3.404
 9853W        W82278  29.182  34.914   2.088
 9854W        W82279  20.583  43.316   0.472
 9855W        W82280   1.636  11.116   1.626
 9856W        W82281  39.314  28.162  12.557
 9857W        W82282  12.748  33.978  11.213
 9858W        W82283   7.430  28.098  11.844
 9859W        W82284  23.326  18.656  11.480
 9860W        W82285  17.428  38.041   4.139
 9861W        W82286  28.134  38.906  12.355
 9862W        W82287  37.985  20.404  11.700
 9863W        W82288  36.433  31.133   2.755
 9864W        W82289  43.196   5.219  13.082
 9865W        W82290  32.512  36.378  12.904
 9866W        W82291  27.219  11.376  11.435
 9867W        W82292  41.844  30.574  14.657
 9868W        W82293  15.316  19.405   0.718
 9869W        W82294  36.312  17.646  14.517
 9870W        W82295  26.177  35.098  14.884
 9871W        W82296  28.544  14.802   4.454
 9872W        W82297   0.842   3.512   0.347
 9873W        W82298   0.277  42.586  11.920
 9874W        W82299  37.582   1.380  13.465
 9875W        W82300  23.940  15.775   2.675
 9876W        W82301  28.618  14.347   4.718
 9877W        W82302  38.020   7.468  14.456
 9878W        W82303  13.323  23.152  12.656
 9879W        W82304  41.259  26.594   3.214
 9880W        W82305   5.951   2.352  14.096
 9881W        W82306  14.362  25.833  13.491
 9882W        W82307  23.964  32.104   4.067
 9883W        W82308  25.121  15.287  11.933
 9884W        W82309  12.895  23.155  12.384
 9885W        W82310  10.825   1.635   3.351
 9886W        W82311  38.865  10.174   2.305
 9887W        W82312  17.299   5.317  12.162
 9888W        W82313   2.127  17.748   3.717
 9889W        W82314   1.378   4.397  11.896
 9890W        W82315  11.195  38.583   3.520
 9891W        W82316  41.060  40.348  11.562
 9892W        W82317  31.873   2.252   2.202
 9893W        W82318  26.045  19.063  11.155
 9894W        W82319  24.874  32.068  14.769
 9895W        W82320  24.760  40.304  11.132
 9896W        W82321  20.589   1.080  13.477
 9897W        W82322   9.833  23.285   1.364
 9898W        W82323  26.218  42.149   2.177
 9899W        W82324  31.542   6.655  12.588
 9900W        W82325  15.742  26.142  12.313
 9901W        W82326  27.080   9.533  13.266
 9902W        W82327  14.630  33.560   5.203
 9903W        W82328  23.231  34.571   1.490
 9904W        W82329  44.476  36.058   2.871
 9905W        W82330   7.578  17.501   1.695
 9906W        W82331  30.704   3.333   0.001
 9907W        W82332   6.996  19.204  12.070
 9908W        W82333  16.052  17.521   1.457
 9909W        W82334  26.148  44.711  11.319
 9910W        W82335  12.194  17.807   0.743
 9911W        W82336  12.464   0.804   3.691
 9912W        W82337  38.630  28.181   4.659
 9913W        W82338  33.385  40.075  13.855
 9914W        W82339  35.466  42.553   3.336
 9915W        W82340   2.699  29.724  11.495
 9916W        W82341  15.545  25.530  10.634
 9917W        W82342   7.449  10.694  11.184
 9918W        W82343  21.694  32.190  11.071
 9919W        W82344  22.768  19.615   4.736
 9920W        W82345  40.857  11.874   0.583
 9921W        W82346  17.050   0.362  14.921
 9922W        W82347  35.332  43.679  13.083
 9923W        W82348  34.442  15.538  10.864
 9924W        W82349   6.584  43.912   0.146
 9925W        W82350   9.959  35.530   1.778
 9926W        W82351  33.441  42.923  11.532
 9927W        W82352   7.351  29.035   4.225
 9928W        W82353  15.343  42.254  12.533
 9929W        W82354   1.959  17.379  13.904
 9930W        W82355  30.688  42.928   4.133
 9931W        W82356   3.462  43.096  12.682
 9932W        W82357  35.707  13.187   0.880
 9933W        W82358  29.438  18.022  10.033
 9934W        W82359   9.235  15.582   4.171
 9935W        W82360  21.763   4.977   1.963
 9936W        W82361  31.568  13.881   0.271
 9937W        W82362  40.073   9.699   0.937
 9938W        W82363  31.822  11.912   0.929
 9939W        W82364  37.926  23.657   0.940
 9940W        W82365  44.235  30.892   4.705
 9941W        W82366   9.642  28.217   2.388
 9942W        W82367  33.036  10.094  14.828
 9943W        W82368  32.054  39.767   0.441
 9944W        W82369  15.375  15.237   3.176
 9945W        W82370  23.392   4.289  14.947
 9946W        W82371  30.398   6.658   2.817
 9947W        W82372  10.828  10.424   1.917
 9948W        W82373  15.772   6.330   3.823
 9949W        W82374  25.038  23.775   1.501
 9950W        W82375   3.743  22.758   4.503
 9951W        W82376  21.348  29.143   2.351
 9952W        W82377  25.381  16.675   3.112
 9953W        W82378  39.581  20.501  11.581
 9954W        W82379  12.331  16.069   3.898
 9955W        W82380   9.127  12.637  11.635
 9956W        W82381   2.761  31.642  12.408
 9957W        W82382  21.881   0.197   4.580
 9958W        W82383  22.741  24.106   1.277
 9959W        W82384  13.029  36.811   4.777
 9960W        W82385  21.658  42.035   2.730
 9961W        W82386   7.247   3.995  10.782
 9962W        W82387  38.058  15.646   3.313
 9963W        W82388   7.973  17.305   4.672
 9964W        W82389  44.046   9.224  12.931
 9965W        W82390  40.243  33.323  14.079
 9966W        W82391   2.038  18.720   3.303
 9967W        W82392  29.781  44.845  13.452
 9968W        W82393   3.685   2.675  14.118
 9969W        W82394  36.961   4.572  12.844
 9970W        W82395  19.826  36.474   1.331
 9971W        W82396  34.853  39.929  13.003
 9972W        W82397   0.177  33.541  11.354
 9973W        W82398  18.260  28.270   4.603
 9974W        W82399  37.428  30.313   4.223
 9975W        W82400  43.410  19.782   2.355
 9976W        W82401  12.861   0.747   3.356
 9977W        W82402  11.206   4.788  13.000
 9978W        W82403  39.144  32.903   2.817
 9979W        W82404  13.058  36.922   4.269
 9980W        W82405  25.169  28.724  13.988
 9981W        W82406  32.266  22.610   4.667
 9982W        W82407  26.104  19.603   4.091
 9983W        W82408  32.877  31.296  14.535
 9984W        W82409  31.510  37.013  12.986
 9985W        W82410   0.219  19.235   0.302
 9986W        W82411  25.417  29.192   1.230
 9987W        W82412  32.170  31.806   4.259
 9988W        W82413   2.752  12.206   4.133
 9989W        W82414  34.228  22.623  11.032
 9990W        W82415  30.028  25.436  13.099
 9991W        W82416  28.046  35.930   4.132
 9992W        W82417   6.413   5.948  14.980
 9993W        W82418  10.828  17.579   4.204
 9994W        W82419   9.802  20.981   0.931
 9995W        W82420  29.580  34.576   1.982
 9996W        W82421  37.646   1.447  14.485
 9997W        W82422   8.359  16.751  10.458
 9998W        W82423  25.916   2.333   3.801
 9999W        W82424   5.133  34.685   3.247
10000W        W82425  26.431  19.491  12.510
10001W        W82426  40.868  39.387  11.591
10002W        W82427  11.808   2.002  13.422
10003W        W82428  42.297  34.522   1.812
10004W        W82429  42.896   6.633   3.672
10005W        W82430  12.400  37.613  13.378
10006W        W82431  44.315  25.686   2.166
10007W        W82432  10.851  17.669  14.558
10008W        W82433   7.966  25.355  14.052
10009W        W82434  14.932   2.850  14.447
10010W        W82435  19.066  33.938  11.904
10011W        W82436  26.120   7.241  12.617
10012W        W82437  24.788   2.580  13.094
10013W        W82438  17.554   8.185  12.179
10014W        W82439   7.775  35.445   0.946
10015W        W82440   7.117  32.889  11.462
10016W        W82441  18.228  24.677  10.730
10017W        W82442  39.429  33.472  14.723
10018W        W82443  44.442  25.585   0.162
10019W        W82444  30.011  38.775   3.703
10020W        W82445  34.565  20.090  12.082
10021W        W82446  22.192   9.039  14.344
10022W        W82447   7.138  39.172  13.513
10023W        W82448  32.298   8.258   0.867
10024W        W82449  27.237  23.697  10.260
10025W        W82450  13.270  20.084  12.862
10026W        W82451  24.662  18.331   3.696
10027W        W82452  18.688  44.856  14.696
10028W        W82453  43.627   8.417   4.364
10029W        W82454  13.600  21.956  14.876
10030W        W82455  44.494   3.413  10.641
10031W        W82456  29.833  15.684  10.349
10032W        W82457  40.344   3.237   2.607
10033W        W82458  33.543  24.596   0.281
10034W        W82459   4.997  22.735   2.136
10035W        W82460  11.295  19.330   4.590
10036W        W82461  33.002  44.222  11.997
10037W        W82462  44.084   8.218  12.007
10038W        W82463  14.594   3.503  14.944
10039W        W82464  43.386  23.274   1.478
10040W        W82465   4.916   7.848  10.594
10041W        W82466  43.351  35.713   3.197
10042W        W82467  20.076  41.706   1.761
10043W        W82468  42.711  33.358   0.111
10044W        W82469  27.603  38.326  13.538
10045W        W82470  18.402  24.147  12.385
10046W        W82471   2.759  26.294  14.336
10047W        W82472  17.569  43.324  10.593
10048W        W82473   4.410  33.061  14.807
10049W        W82474  14.176   7.720  13.791
10050W        W82475  27.080  39.536   2.193
10051W        W82476  37.107  17.415  12.464
10052W        W82477   3.437  12.637   0.479
10053W        W82478  34.944  14.316   3.601
10054W        W82479  12.785  21.200  10.498
10055W        W82480  43.317  41.035  14.722
10056W        W82481  17.215  44.985  14.205
10057W        W82482   3.957  18.611  14.400
10058W        W82483   7.110  29.132   4.692
10059W        W82484  36.943  37.551   3.229
10060W        W82485  42.478   4.359   1.007
10061W        W82486  39.021  24.413   0.306
10062W        W82487   2.371  18.189  12.940
10063W        W82488  30.649  28.916  12.089
10064W        W82489  32.642  42.237   3.081
10065W        W82490  10.084  21.097   2.945
10066W        W82491  33.552  36.923   0.732
10067W        W82492   3.970  38.557  11.163
10068W        W82493   1.978  14.792   1.821
10069W        W82494  20.712  11.675   5.417
10070W        W82495  18.769   6.857  12.409
10071W        W82496   8.273  12.544  13.387
10072W        W82497  14.619  25.438  13.278
10073W        W82498  11.716  34.982   4.456
10074W        W82499   3.590  14.567   4.524
10075W        W82500  37.515  41.567   3.316
10076W        W82501  34.116  31.532  12.362
10077W        W82502  30.004  33.644  12.582
10078W        W82503  12.288  24.577  11.044
10079W        W82504   1.591  30.868  12.039
10080W        W82505  31.194  38.600  14.452
10081W        W82506  12.775  26.180  11.329
10082W        W82507   2.968   3.222  11.462
10083W        W82508  34.522   7.859  11.537
10084W        W82509  11.419  33.929  11.339
10085W        W82510  17.392   5.110   1.705
10086W        W82511   6.418  32.204  14.413
10087W        W82512  23.436   0.007   4.128
10088W        W82513  34.569  29.691   1.468
10089W        W82514  18.874  14.600  13.623
10090W        W82515  25.509  33.902  13.816
10091W        W82516  17.325  34.223   5.046
10092W        W82517  24.932  16.416   0.801
10093W        W82518  17.033  16.355  13.848
10094W        W82519  24.156   0.051  10.268
10095W        W82520  16.517  18.014  11.183
10096W        W82521   4.689  32.666  10.536
10097W        W82522  28.937  42.884  13.084
10098W        W82523   0.960  16.319  12.847
10099W        W82524  20.465  28.616  10.638
10100W        W82525   4.911  16.269   0.332
10101W        W82526   0.515  31.878   9.742
10102W        W82527   7.634  17.035   0.943
10103W        W82528   6.406  14.345  13.533
10104W        W82529  30.579  23.458   1.656
10105W        W82530  44.427   2.033   2.201
10106W        W82531  11.319   6.938  11.952
10107W        W82532  11.882   7.205  14.877
10108W        W82533  19.105  31.264  12.976
10109W        W82534  25.801  38.221   0.194
10110W        W82535  26.674  10.301   1.496
10111W        W82536  26.453  38.894  10.694
10112W        W82537  21.628  31.160  11.949
10113W        W82538  39.006  12.148   0.943
10114W        W82539  29.633  36.844  12.314
10115W        W82540  25.998  11.632   0.870
10116W        W82541  26.218   0.911   2.149
10117W        W82542   6.650  14.768  13.370
10118W        W82543  30.937  43.458  12.487
10119W        W82544  33.094  36.956  10.939
10120W        W82545  12.613  35.564  13.158
10121W        W82546  26.382  32.813   3.836
10122W        W82547   9.743   0.511   1.878
10123W        W82548   4.962  30.659  10.705
10124W        W82549   0.797   8.198  14.943
10125W        W82550  35.527  21.313   0.337
10126W        W82551   2.868  16.561  13.276
10127W        W82552  24.974  21.065  13.439
10128W        W82553  42.144   4.345  14.993
10129W        W82554  35.512  16.142  10.679
10130W        W82555   7.995  24.087   5.091
10131W        W82556   7.339  22.348   3.695
10132W        W82557  28.833  34.557  12.439
10133W        W82558  35.837  21.155   0.711
10134W        W82559  15.903  44.829  14.326
10135W        W82560   3.024  25.116  13.895
10136W        W82561   6.298  12.801  10.381
10137W        W82562  11.581  44.990  14.691
10138W        W82563  21.109  41.959   4.484
10139W        W82564  19.981   1.842  12.454
10140W        W82565  10.869  21.013   1.670
10141W        W82566  16.296  33.624  12.424
10142W        W82567  36.747  18.559   2.473
10143W        W82568  25.990   6.321  10.425
10144W        W82569   7.126  15.962  13.944
10145W        W82570  15.162  40.523   3.278
10146W        W82571   1.900  27.211  11.586
10147W        W82572   5.175  37.969  13.732
10148W        W82573  36.878  40.570   4.640
10149W        W82574  29.887  42.040   5.068
10150W        W82575  34.525  16.707  14.986
10151W        W82576  17.993  43.884  11.639
10152W        W82577  42.725   8.609  11.151
10153W        W82578   0.354  27.633  11.102
10154W        W82579  18.042   6.926   2.028
10155W        W82580  13.948   0.522   1.379
10156W        W82581  22.636  44.188   3.125
10157W        W82582   3.714  34.665   3.301
10158W        W82583  15.787  18.596  14.644
10159W        W82584  10.220  31.494  14.891
10160W        W82585  10.327   3.452  10.333
10161W        W82586  29.450  44.458   4.141
10162W        W82587  30.929  15.029  12.279
10163W        W82588   6.344  12.285   1.783
10164W        W82589  30.200  22.198   1.857
10165W        W82590  21.096  36.992  13.636
10166W        W82591  29.725  26.585   3.684
10167W        W82592  11.314  10.677  14.063
10168W        W82593  25.033  18.620   1.472
10169W        W82594  25.510  43.497  14.836
10170W        W82595   6.369  13.851   3.611
10171W        W82596  36.977   2.901  10.972
10172W        W82597   3.614  11.590   4.218
10173W        W82598  43.983  13.157  13.079
10174W        W82599  12.660   7.924   0.697
10175W        W82600  28.393  19.435  11.593
10176W        W82601  22.236  41.993   2.258
10177W        W82602  30.018  10.309   3.291
10178W        W82603  17.692   4.586   2.414
10179W        W82604  17.152  26.994  11.719
10180W        W82605  20.757  18.249   1.351
10181W        W82606  40.347   0.554   4.124
10182W        W82607  14.876  36.238   2.205
10183W        W82608  38.597  10.626   2.407
10184W        W82609   3.710   3.960   4.204
10185W        W82610  37.987   6.621   2.298
10186W        W82611  28.162   3.219   4.220
10187W        W82612  39.432  17.607  11.093
10188W        W82613  40.415  26.917  14.451
10189W        W82614  33.353  30.171   1.809
10190W        W82615  13.213  44.838  14.383
10191W        W82616  35.953  16.400  12.471
10192W        W82617  37.780  35.875   1.876
10193W        W82618  41.951  20.972   1.478
10194W        W82619  19.231   9.181   1.322
10195W        W82620  43.410  21.332   1.751
10196W        W82621  42.377  25.877  14.980
10197W        W82622  40.540  14.700  14.819
10198W        W82623   6.191  12.617  11.426
10199W        W82624  33.463  14.354  14.494
10200W        W82625  44.976  41.634  13.922
10201W        W82626  17.127  14.495  10.656
10202W        W82627  29.392   0.429  10.430
10203W        W82628   1.274  31.100   4.593
10204W        W82629  13.477  23.145   1.381
10205W        W82630  25.514  11.775  12.989
10206W        W82631  28.837  16.389  10.831
10207W        W82632  18.260  40.429   0.064
10208W        W82633  22.066  15.488   3.888
10209W        W82634  44.512  32.465  13.769
10210W        W82635  24.069  20.456   1.441
10211W        W82636   8.798  10.950   1.965
10212W        W82637  28.878  28.225   1.313
10213W        W82638  32.674  12.324  13.798
10214W        W82639  25.473   6.086   3.218
10215W        W82640  44.897  25.102  12.829
10216W        W82641  44.557  10.231  12.299
10217W        W82642  12.162  27.568   3.882
10218W        W82643  21.856   3.827  10.750
10219W        W82644  19.307  37.393   1.284
10220W        W82645   0.894  28.486   0.270
10221W        W82646  41.044   2.675  14.824
10222W        W82647  19.057  30.595  14.384
10223W        W82648  19.258  40.085   1.697
10224W        W82649  24.092  36.823  14.264
10225W        W82650  34.034  14.724   1.878
10226W        W82651   7.072  29.494   4.309
10227W        W82652  18.159  18.068   4.379
10228W        W82653  21.137  18.733  14.408
10229W        W82654  16.051  25.203   1.885
10230W        W82655  11.365   2.523  11.067
10231W        W82656  42.334  25.886   4.250
10232W        W82657  20.056  41.527  12.604
10233W        W82658  30.877   7.474   3.774
10234W        W82659   7.424  43.516  13.025
10235W        W82660  10.198   9.692  10.812
10236W        W82661  30.161  32.333   0.831
10237W        W82662  34.141  26.578  12.009
10238W        W82663  24.679  16.988  12.891
10239W        W82664   0.565  28.442  14.318
10240W        W82665  38.882  12.693  10.701
10241W        W82666   6.671  43.977   1.609
10242W        W82667  22.088  22.516  12.688
10243W        W82668  28.569  33.931  13.483
10244W        W82669  38.499  15.602   4.103
10245W        W82670  11.010   1.709   0.275
10246W        W82671  18.552  10.676  11.978
10247W        W82672  31.022  18.574   0.365
10248W        W82673  31.486   1.086   0.838
10249W        W82674  42.414  44.213   1.379
10250W        W82675   3.826  38.217  13.593
10251W        W82676  23.269   4.278   3.411
10252W        W82677  19.187  40.932   2.313
10253W        W82678  22.610  39.599  12.642
10254W        W82679  29.635   0.067   3.220
10255W        W82680   7.090  33.908  11.517
10256W        W82681  41.067  27.963   3.187
10257W        W82682  17.841   1.549  12.136
10258W        W82683  34.881  41.375  12.072
10259W        W82684  18.603   5.542  13.804
10260W        W82685  18.535  19.916  12.894
10261W        W82686  25.796   7.437   4.755
10262W        W82687  43.952  24.735  11.565
10263W        W82688  40.319  22.530  12.198
10264W        W82689  42.088  14.414  11.125
10265W        W82690   0.047  17.775   1.438
10266W        W82691  30.946  29.679  12.331
10267W        W82692  27.075  17.326  12.144
10268W        W82693  13.710   8.808  11.704
10269W        W82694  26.643  21.180   2.298
10270W        W82695  42.152  28.154  12.124
10271W        W82696  33.198  22.148  11.432
10272W        W82697  31.421  41.430  13.421
10273W        W82698  34.231   4.642   2.700
10274W        W82699   6.711  24.253   0.078
10275W        W82700  23.235  15.199  14.445
10276W        W82701   3.616  37.312   3.289
10277W        W82702  43.548  27.722   2.698
10278W        W82703  13.447  30.560   0.853
10279W        W82704  23.428   1.504  13.471
10280W        W82705   2.518   6.503  13.096
10281W        W82706  15.173   3.311  14.337
10282W        W82707   4.340  29.160  12.130
10283W        W82708  33.511  42.191  10.995
10284W        W82709  27.638  12.775   1.640
10285W        W82710  44.893   2.371   1.882
10286W        W82711  23.805  40.219   4.114
10287W        W82712  19.746   1.990   2.440
10288W        W82713  17.126  44.088   2.732
10289W        W82714  28.420  31.015   1.720
10290W        W82715   5.763  16.874   2.739
10291W        W82716  33.953  23.485   1.701
10292W        W82717  37.982  39.986  13.475
10293W        W82718  42.445  20.855   2.659
10294W        W82719  34.951  18.656  12.451
10295W        W82720  40.951  27.110   2.347
10296W        W82721  36.995  28.200  10.994
10297W        W82722   7.559  36.077  12.051
10298W        W82723  27.740  16.231   1.250
10299W        W82724  43.556  18.422  13.056
10300W        W82725  44.418   1.804  11.435
10301W        W82726  25.129  10.001   3.220
10302W        W82727   9.602   9.807   2.986
10303W        W82728  20.620   0.037   2.183
10304W        W82729  11.736  35.867  11.466
10305W        W82730  32.317  11.840  12.757
10306W        W82731   2.570  30.580   3.662
10307W        W82732   5.952  25.188  13.442
10308W        W82733   9.500   7.734   2.287
10309W        W82734  28.670  43.931  13.583
10310W        W82735  44.410  17.014  14.572
10311W        W82736  19.031   6.286  14.335
10312W        W82737  28.940  24.774   4.282
10313W        W82738  28.874   2.500  14.462
10314W        W82739  41.847  27.340   2.914
10315W        W82740   0.635  19.679   3.675
10316W        W82741   2.061  10.889  11.920
10317W        W82742  31.414  40.050   4.257
10318W        W82743  27.086  37.361  10.885
10319W        W82744   4.972  31.833   1.800
10320W        W82745   7.853   5.361   4.326
10321W        W82746  31.431  33.203  11.645
10322W        W82747  25.497  19.001  12.583
10323W        W82748  35.142  42.691   3.730
10324W        W82749   1.755   8.717   0.799
10325W        W82750  23.256  38.813  12.546
10326W        W82751  38.925  34.541   1.374
10327W        W82752  24.763   3.035  13.352
10328W        W82753   7.878  14.927   2.550
10329W        W82754  26.534  10.838  11.473
10330W        W82755  42.523   9.114  11.248
10331W        W82756   4.950   0.522  10.343
10332W        W82757  30.146  17.713  12.854
10333W        W82758  41.434  26.121  13.364
10334W        W82759  29.094  28.021   3.579
10335W        W82760   9.302  19.539  10.706
10336W        W82761  11.360  37.325  14.598
10337W        W82762  35.671  32.594   3.759
10338W        W82763  23.761  25.115   1.831
10339W        W82764  30.142  28.526   0.325
10340W        W82765  15.800  11.172   4.676
10341W        W82766  23.045  28.380   4.367
10342W        W82767  38.109  15.277  10.456
10343W        W82768   6.879  17.612  14.752
10344W        W82769   1.347  35.441   2.881
10345W        W82770  24.639   7.930  14.324
10346W        W82771  27.383  29.292  11.755
10347W        W82772  21.900  37.186  14.948
10348W        W82773  31.897  15.644  14.389
10349W        W82774   6.283  40.915  12.356
10350W        W82775  20.974   5.106   3.566
10351W        W82776  36.688  19.114   4.658
10352W        W82777  23.469  28.984   3.096
10353W        W82778  12.693  30.909   2.555
10354W        W82779   2.248  44.680  11.651
10355W        W82780  41.525   5.176  11.185
10356W        W82781   7.861  37.985  10.932
10357W        W82782  25.033  34.792   0.525
10358W        W82783  23.677  27.420   2.627
10359W        W82784  26.028  39.998  14.292
10360W        W82785  17.685  35.445  10.641
10361W        W82786  41.858  22.068  14.311
10362W        W82787  10.378  36.594  11.418
10363W        W82788   4.219  16.094  13.982
10364W        W82789  14.734  21.344   1.230
10365W        W82790  16.635  33.836   2.209
10366W        W82791  16.336  39.851   3.531
10367W        W82792  43.921  17.649   0.814
10368W        W82793  35.018  24.923   1.383
10369W        W82794  35.431   9.449  14.048
10370W        W82795   5.282  10.396   1.842
10371W        W82796  33.202  26.625   3.312
10372W        W82797  26.198  10.191  12.103
10373W        W82798   6.948  27.896  11.691
10374W        W82799  17.570  13.162  13.943
10375W        W82800  40.325  28.331   1.801
10376W        W82801  32.438  23.290   2.526
10377W        W82802  25.045  27.372   2.307
10378W        W82803   8.884  23.211   2.283
10379W        W82804  32.692   3.829   4.088
10380W        W82805   1.304  13.107  14.373
10381W        W82806  26.604  14.610   4.637
10382W        W82807  40.826  35.882   2.607
10383W        W82808  43.041  36.369   4.552
10384W        W82809  13.855  43.501   4.795
10385W        W82810   8.397   6.162   2.360
10386W        W82811  36.198  36.346   3.233
10387W        W82812  19.411   0.275  11.148
10388W        W82813   6.473  10.125   4.565
10389W        W82814  20.565  19.677  10.925
10390W        W82815  25.754   1.676   4.244
10391W        W82816  19.656  31.137   2.725
10392W        W82817   6.441  31.794  12.080
10393W        W82818   9.102  38.370  13.566
10394W        W82819  36.540  27.743  11.677
10395W        W82820   2.397  41.591   3.286
10396W        W82821  24.324  35.572  13.129
10397W        W82822  13.081   1.803   4.586
10398W        W82823  19.282  13.076  14.784
10399W        W82824  42.901  22.016  14.800
10400W        W82825  39.894   0.919  10.568
10401W        W82826  39.542  34.456   2.049
10402W        W82827  10.916  41.834   4.223
10403W        W82828  14.875  13.793   1.882
10404W        W82829  20.350  12.877  12.589
10405W        W82830  35.176  40.061   3.325
10406W        W82831   1.166  22.641  13.747
10407W        W82832  12.157  17.314   2.483
10408W        W82833  21.783   3.423  11.540
10409W        W82834   1.895   5.355  11.045
10410W        W82835  22.761  20.112  12.448
10411W        W82836   7.308  38.944  14.311
10412W        W82837  38.016  21.370  12.772
10413W        W82838  31.016   1.436  10.653
10414W        W82839  26.679   1.450   3.268
10415W        W82840  40.060  26.181   4.123
10416W        W82841   4.732  37.285  13.384
10417W        W82842   5.178  19.131   2.292
10418W        W82843   2.966  40.074  13.900
10419W        W82844  43.481  23.411  10.662
10420W        W82845  14.569  15.421  12.864
10421W        W82846  31.668  24.753  11.875
10422W        W82847  15.797  30.084  14.234
10423W        W82848  10.969  39.606   0.399
10424W        W82849   2.658  11.893   2.727
10425W        W82850  29.076   9.028   4.543
10426W        W82851   2.354  32.749  12.899
10427W        W82852  11.370  38.307   0.652
10428W        W82853  33.636  21.253  12.988
10429W        W82854  15.201  31.127  13.483
10430W        W82855  17.698  34.564  11.952
10431W        W82856  32.642  21.725   3.591
10432W        W82857  15.615   2.814   1.745
10433W        W82858  38.258  42.377   3.675
10434W        W82859  29.004   1.926  11.574
10435W        W82860   4.509  15.043  11.088
10436W        W82861   6.680  37.647   0.266
10437W        W82862  30.019  12.252  11.787
10438W        W82863  23.431  31.305   3.341
10439W        W82864  16.339  43.527  13.977
10440W        W82865  10.164  29.462   3.245
10441W        W82866  43.383  16.104  12.473
10442W        W82867   1.777  21.751   0.961
10443W        W82868  39.922  37.436  14.405
10444W        W82869   0.578  31.508   0.931
10445W        W82870  26.010  28.562   1.419
10446W        W82871  42.703  38.935  13.748
10447W        W82872   8.261  23.742  11.139
10448W        W82873  28.732  30.473  13.964
10449W        W82874  10.040   9.892  11.280
10450W        W82875  38.984  38.820   0.452
10451W        W82876  31.523   6.134  10.480
10452W        W82877  44.558   2.978   1.303
10453W        W82878  27.208  21.322   1.209
10454W        W82879  38.064  39.284   0.291
10455W        W82880   3.856  38.151   3.403
10456W        W82881  38.412  34.218  11.578
10457W        W82882  20.989  10.184   1.851
10458W        W82883  39.873  42.220   2.161
10459W        W82884  14.807  41.975  13.551
10460W        W82885  10.785   0.885   0.363
10461W        W82886  24.524  33.900  12.923
10462W        W82887  13.601   9.430   2.718
10463W        W82888   4.281   6.627  12.663
10464W        W82889   6.847   7.245   3.912
10465W        W82890  33.581  12.908   1.399
10466W        W82891  13.272  14.148  10.336
10467W        W82892  38.313  16.301  12.074
10468W        W82893   0.241  24.524   3.233
10469W        W82894  32.736   0.285   3.904
10470W        W82895   4.704  22.693  14.065
10471W        W82896  15.805  12.136   4.887
10472W        W82897  17.056  13.988   3.112
10473W        W82898  29.641  16.339   4.242
10474W        W82899  37.506  40.464  12.022
10475W        W82900  42.737  16.999   3.583
10476W        W82901  35.848  12.732   4.719
10477W        W82902  33.483  27.726   1.799
10478W        W82903  15.891  43.798  14.078
10479W        W82904   7.391  42.999   0.762
10480W        W82905  21.496  21.138  12.603
10481W        W82906   0.571  34.024  11.418
10482W        W82907  43.559  21.266  13.295
10483W        W82908  30.317  21.520  13.440
10484W        W82909  15.105  32.921   5.008
10485W        W82910  22.082  32.139   1.847
10486W        W82911  30.090  29.042  10.513
10487W        W82912  20.585  13.690  12.572
10488W        W82913  10.322  20.601  12.444
10489W        W82914  32.603   9.330  12.547
10490W        W82915   6.481  39.283   0.962
10491W        W82916  17.761  12.670  12.548
10492W        W82917  32.472  21.180   1.620
10493W        W82918  21.155  16.438  13.420
10494W        W82919   4.252  27.254  11.557
10495W        W82920  39.012   3.778  11.005
10496W        W82921   5.324  28.253   3.063
10497W        W82922   6.415   5.970  13.039
10498W        W82923  28.628  25.154  13.869
10499W        W82924  22.057  38.765  12.665
10500W        W82925  30.586  17.531  10.700
10501W        W82926   4.165  35.175  14.819
10502W        W82927   3.348  42.456  12.393
10503W        W82928  39.817  32.603  12.032
10504W        W82929  26.733  24.034  14.833
10505W        W82930  16.149  32.533  11.407
10506W        W82931  27.259  22.019  13.945
10507W        W82932  36.030  26.720  13.304
10508W        W82933   4.254   7.203  14.787
10509W        W82934   3.714  19.212  13.605
10510W        W82935   1.161  20.530   1.517
10511W        W82936  24.754  15.981   3.157
10512W        W82937  33.578  14.346   0.039
10513W        W82938   6.288   5.748   2.373
10514W        W82939  18.177  37.034  14.471
10515W        W82940  33.420  23.655   2.934
10516W        W82941  44.528   3.321   0.283
10517W        W82942  32.096   4.533  10.419
10518W        W82943  33.165  24.198  14.045
10519W        W82944  25.468  40.643   1.343
10520W        W82945  14.832  24.445  14.446
10521W        W82946  16.109  17.841  12.023
10522W        W82947  10.660  24.584  12.072
10523W        W82948  40.004  42.069  11.704
10524W        W82949  24.521  12.860   1.545
10525W        W82950  15.487  12.328   2.909
10526W        W82951  13.061  39.442   3.324
10527W        W82952  22.928  39.953  12.923
10528W        W82953  26.196   0.046   0.371
10529W        W82954   2.711  15.282   4.692
10530W        W82955   6.085  35.985  14.173
10531W        W82956  44.513  22.671   4.131
10532W        W82957   7.790  36.618  14.503
10533W        W82958  18.528  14.337   3.642
10534W        W82959   4.887  17.340   1.266
10535W        W82960  13.076  10.587  13.353
10536W        W82961   1.989  15.348  10.952
10537W        W82962  19.672  28.688  12.178
10538W        W82963  12.220  27.296  12.167
10539W        W82964   1.782  33.138  13.480
10540W        W82965   2.227  16.108   4.623
10541W        W82966  43.377  44.570   2.897
10542W        W82967  26.069  12.928  11.686
10543W        W82968  18.022  12.391   1.378
10544W        W82969   2.497  43.305   2.295
10545W        W82970   0.914   9.907  13.849
10546W        W82971  32.997   5.788   1.376
10547W        W82972  11.257  43.957   0.272
10548W        W82973  24.578  37.087   2.475
10549W        W82974  18.521  32.411  11.603
10550W        W82975  27.126  30.734   5.005
10551W        W82976   5.387  35.109  10.224
10552W        W82977  17.961  17.521  11.081
10553W        W82978  18.098  42.939   4.580
10554W        W82979   8.667  20.539  14.468
10555W        W82980  15.569  15.587  13.704
10556W        W82981   6.680  10.572  11.564
10557W        W82982  28.813   3.871   2.093
10558W        W82983  32.425  33.148  14.353
10559W        W82984  19.459  32.422   1.312
10560W        W82985  21.542   1.010   3.351
10561W        W82986   6.796  32.576  13.837
10562W        W82987  19.303   9.366  13.900
10563W        W82988  38.053  41.107   4.069
10564W        W82989  16.764  44.280  12.499
10565W        W82990  35.589   1.539   0.479
10566W        W82991  28.024  16.687  13.804
10567W        W82992  41.817  33.935  11.058
10568W        W82993  26.464   5.984   2.629
10569W        W82994   7.694  38.476  11.090
10570W        W82995   5.414  25.206   0.399
10571W        W82996  10.642  13.776  11.562
10572W        W82997  26.094  34.346  11.054
10573W        W82998  18.277  21.219   2.139
10574W        W82999   8.181  15.007  14.300
10575W        W83000  33.641   5.000  11.276
10576W        W83001  43.460  39.345   0.730
10577W        W83002  44.295  17.061   4.309
10578W        W83003  13.226  18.767   2.325
10579W        W83004  27.467   3.590   1.311
10580W        W83005  11.591  11.662   0.517
10581W        W83006  35.939  20.080   3.856
10582W        W83007  35.962  11.890   3.221
10583W        W83008  25.368  31.672  13.641
10584W        W83009  21.032  19.336   3.535
10585W        W83010   4.442   5.186  11.585
10586W        W83011  43.670  20.462  13.572
10587W        W83012  20.030  28.626  14.512
10588W        W83013  10.343  29.717   1.861
10589W        W83014  10.000  24.222  10.389
10590W        W83015  36.644  31.156   4.894
10591W        W83016   2.355  22.767  13.521
10592W        W83017  42.804  19.636   2.735
10593W        W83018  34.036  39.316   4.415
10594W        W83019  32.353   6.900   3.284
10595W        W83020  15.222  21.626  12.703
10596W        W83021  26.457  22.997   1.951
10597W        W83022  38.800  26.832  11.908
10598W        W83023  15.060  44.682  12.556
10599W        W83024   6.803  33.829  14.791
10600W        W83025  34.881  41.829   2.727
10601W        W83026  35.667  41.136   0.961
10602W        W83027  29.541  39.168  14.328
10603W        W83028  27.737  17.045   3.648
10604W        W83029  30.026  11.688   1.300
10605W        W83030  42.963  21.618   2.880
10606W        W83031  40.841  38.940  12.840
10607W        W83032   0.621  39.948   0.355
10608W        W83033  16.599  19.767  13.761
10609W        W83034   2.750  14.688   2.958
10610W        W83035  44.265   6.742   4.135
10611W        W83036   6.932  18.563   1.041
10612W        W83037  33.152  28.199   2.367
10613W        W83038  42.077   1.882   1.322
10614W        W83039  18.298  41.233  12.981
10615W        W83040  12.794   8.856   0.946
10616W        W83041  14.087  35.351   3.375
10617W        W83042   0.953  38.374   4.094
10618W        W83043  28.879  34.099  13.023
10619W        W83044  20.071  29.820   0.665
10620W        W83045  20.176  38.946  12.106
10621W        W83046  16.094  33.057  14.700
10622W        W83047  25.188   4.715   2.403
10623W        W83048  25.720  21.611  14.571
10624W        W83049  16.338  12.205  14.849
10625W        W83050  41.243  29.640   1.461
10626W        W83051  29.649   4.872  11.276
10627W        W83052   5.127  26.796  13.625
10628W        W83053  11.323   7.259   3.395
10629W        W83054  40.991  36.133   1.644
10630W        W83055  22.063  11.716  13.304
10631W        W83056  32.257  28.214  12.312
10632W        W83057  43.129   8.704   4.929
10633W        W83058  27.355  23.006   1.673
10634W        W83059  19.703  32.061   4.349
10635W        W83060  18.537  15.150  11.582
10636W        W83061  16.054  13.180   4.746
10637W        W83062  26.661  14.601   9.896
10638W        W83063  25.043   9.668  12.502
10639W        W83064  15.555  23.041  11.892
10640W        W83065  12.672  23.256   4.804
10641W        W83066  12.252   5.215   2.912
10642W        W83067   8.975  27.736   3.520
10643W        W83068  10.260  40.770   1.896
10644W        W83069  40.118  26.162  13.819
10645W        W83070  17.084  42.894  14.332
10646W        W83071  10.819  39.375  13.339
10647W        W83072  33.884   0.408  11.983
10648W        W83073  20.039  27.020  12.552
10649W        W83074  43.005  29.926   2.265
10650W        W83075  15.638  29.202   1.711
10651W        W83076  27.603  42.448  10.617
10652W        W83077   3.826  31.021  11.809
10653W        W83078  41.049  44.724   1.892
10654W        W83079  11.772  43.257   0.132
10655W        W83080  25.105   4.361  11.975
10656W        W83081  42.925  27.793  14.942
10657W        W83082   1.515  32.721   1.645
10658W        W83083  24.164   6.669  11.940
10659W        W83084   3.394  34.095  10.626
10660W        W83085  35.856  34.327  12.109
10661W        W83086   1.959   3.352   1.889
10662W        W83087  14.788  13.814   2.827
10663W        W83088  27.648  33.068   4.086
10664W        W83089  22.648  33.855   0.478
10665W        W83090   5.876   7.113  14.883
10666W        W83091   3.443   5.636   0.312
10667W        W83092   4.232  40.094   0.474
10668W        W83093  40.440   8.113  14.381
10669W        W83094  24.215  15.528  12.953
10670W        W83095  23.628  20.968  13.854
10671W        W83096  31.497  34.820   2.402
10672W        W83097  12.270  10.352   4.706
10673W        W83098  20.619   7.848   3.838
10674W        W83099   5.748  13.193  12.968
10675W        W83100  18.759  32.896  12.426
10676W        W83101  13.788   6.351  14.274
10677W        W83102   0.366  42.135  12.193
10678W        W83103  19.100  11.216  14.499
10679W        W83104  41.157   0.750  11.521
10680W        W83105  37.587  44.973  13.383
10681W        W83106  25.944  37.561  14.320
10682W        W83107  39.400   1.499   1.775
10683W        W83108  39.157  29.180   0.793
10684W        W83109  40.842  16.627   0.921
10685W        W83110   1.693  36.328  13.854
10686W        W83111  39.052  32.956  14.216
10687W        W83112  41.967  23.099  12.966
10688W        W83113  36.913  30.869   4.001
10689W        W83114  28.173  42.043  10.144
10690W        W83115  40.789  11.818   3.280
10691W        W83116  22.461   7.895  11.254
10692W        W83117   1.837  25.551  13.534
10693W        W83118  26.389   6.174   0.779
10694W        W83119  18.551   1.216  10.653
10695W        W83120  28.000  11.804  11.905
10696W        W83121  32.585   2.685  12.058
10697W        W83122  23.186   2.399  13.865
10698W        W83123  37.808  43.877   2.648
10699W        W83124  10.591  14.674  14.454
10700W        W83125  16.346  34.204   4.139
10701W        W83126   2.374   2.169  10.988
10702W        W83127  17.884  44.218   4.950
10703W        W83128  41.224  30.471   4.579
10704W        W83129   0.347  40.114  11.175
10705W        W83130  39.754  22.937   2.864
10706W        W83131  16.081   5.936   1.666
10707W        W83132  17.653  26.422  13.317
10708W        W83133  35.304  25.941   0.459
10709W        W83134  22.178  28.719   4.335
10710W        W83135  41.570   6.283  12.448
10711W        W83136  31.186  21.803   2.679
10712W        W83137  12.190  18.569  14.416
10713W        W83138  40.779  28.987  10.642
10714W        W83139  25.909  28.118   1.761
10715W        W83140  14.170  41.225  12.989
10716W        W83141  32.772  18.486   1.755
10717W        W83142   0.339  39.672   4.747
10718W        W83143  15.968  32.787   2.236
10719W        W83144  18.218  32.908   5.059
10720W        W83145  27.657  40.204   1.652
10721W        W83146  24.539  40.424  10.661
10722W        W83147   2.821  44.414   3.314
10723W        W83148  36.640  37.332  13.990
10724W        W83149   6.412   2.299  13.829
10725W        W83150  13.132  34.314  12.843
10726W        W83151  23.778  25.462  11.181
10727W        W83152  29.005   1.721   2.302
10728W        W83153  13.860   6.817   4.153
10729W        W83154  10.907  15.466  12.053
10730W        W83155  14.844  10.358   3.475
10731W        W83156  17.607   9.396   0.927
10732W        W83157  15.726   3.512   0.238
10733W        W83158  19.562  12.412   3.534
10734W        W83159  15.079   0.353  11.107
10735W        W83160   0.214   7.634   2.264
10736W        W83161  10.621   0.365   3.820
10737W        W83162  25.986  44.737   0.737
10738W        W83163  21.521  30.513  10.759
10739W        W83164  11.734   6.882  11.679
10740W        W83165  37.955  17.173  12.933
10741W        W83166   8.685  40.598   3.080
10742W        W83167  22.233  15.498  14.502
10743W        W83168  24.235  21.526  12.093
10744W        W83169  14.312  35.386   0.311
10745W        W83170  18.988  12.661  14.849
10746W        W83171   0.354   5.718   0.856
10747W        W83172  32.637  34.613   4.558
10748W        W83173  10.518  32.872   4.600
10749W        W83174  34.400   0.048  10.588
10750W        W83175  29.939  38.764   5.448
10751W        W83176  24.735  34.535  12.586
10752W        W83177  23.975  42.761   2.460
10753W        W83178  15.150  21.294  11.920
10754W        W83179  40.465  35.764  12.126
10755W        W83180  20.777  11.597  13.872
10756W        W83181  44.805  31.551  10.172
10757W        W83182  29.171  12.887   1.675
10758W        W83183  34.012   2.346  14.981
10759W        W83184   5.332  22.931   3.868
10760W        W83185  23.526  28.243  14.748
10761W        W83186  40.949  40.835   2.846
10762W        W83187   3.140  44.447  10.489
10763W        W83188   5.404  28.199   2.204
10764W        W83189  26.073   5.815   3.545
10765W        W83190  18.225  19.173   3.286
10766W        W83191  38.824  24.051   4.036
10767W        W83192  27.984   7.563   1.703
10768W        W83193  31.134  44.203   5.052
10769W        W83194  43.033  24.703  13.111
10770W        W83195  30.221  34.964  12.916
10771W        W83196  36.828  33.821  12.126
10772W        W83197  15.766  22.567  11.843
10773W        W83198  15.252  17.142   0.144
10774W        W83199  31.625   7.562  10.747
10775W        W83200  42.261  32.186   4.888
10776W        W83201  16.990   3.956   2.185
10777W        W83202  43.395  22.821  11.136
10778W        W83203  27.969  20.661   4.122
10779W        W83204  41.463  29.994   1.105
10780W        W83205   8.449  16.797   3.885
10781W        W83206  14.386  14.399   2.340
10782W        W83207   9.637   4.240   0.935
10783W        W83208  44.432  18.650  12.799
10784W        W83209  34.154  31.527  13.810
10785W        W83210  30.097  13.895   2.385
10786W        W83211  22.168  17.225   2.423
10787W        W83212  44.034  31.620   1.867
10788W        W83213  27.012  27.871  14.533
10789W        W83214   6.716   9.834   1.106
10790W        W83215  20.446   2.843  14.783
10791W        W83216  33.983  30.069   1.901
10792W        W83217  35.442  16.764   2.397
10793W        W83218  39.180  16.969   2.706
10794W        W83219  15.569   8.869  13.107
10795W        W83220   7.215  15.633  13.386
10796W        W83221  18.495  38.150   0.477
10797W        W83222  26.391  21.441   4.258
10798W        W83223  37.075  18.741   0.467
10799W        W83224   3.371  39.282   4.833
10800W        W83225  35.970  28.735   0.241
10801W        W83226   5.755  15.315  14.454
10802W        W83227   2.621   9.693  14.296
10803W        W83228   3.825  27.614   0.829
10804W        W83229  20.521  10.658  14.834
10805W        W83230  19.481   7.441   1.331
10806W        W83231  13.706  28.087  11.126
10807W        W83232  37.228  15.022   1.657
10808W        W83233  29.144  24.085   4.831
10809W        W83234   5.879  26.119  14.428
10810W        W83235   0.907  14.284  13.919
10811W        W83236  18.171   9.146   4.586
10812W        W83237   8.841   9.568   0.120
10813W        W83238  38.856   4.950   4.108
10814W        W83239  13.679  13.900   1.261
10815W        W83240  43.164   0.816   0.920
10816W        W83241  15.720  27.507  10.406
10817W        W83242  26.979  42.446   1.440
10818W        W83243  11.670  12.662   4.802
10819W        W83244   2.901  22.023   3.850
10820W        W83245  33.336   3.046   4.252
10821W        W83246  11.796  36.027  10.577
10822W        W83247  32.862   9.923   0.313
10823W        W83248   3.230  14.683  11.421
10824W        W83249  24.684  42.311   4.510
10825W        W83250  42.879  11.827  11.960
10826W        W83251  28.572  23.618   9.960
10827W        W83252  26.379  17.010   4.998
10828W        W83253  20.704  35.363   0.797
10829W        W83254  11.904  26.683  12.396
10830W        W83255   0.733  10.307  13.573
10831W        W83256  11.120   9.272  14.988
10832W        W83257  18.298  34.579   3.484
10833W        W83258  37.782  25.172  11.592
10834W        W83259  12.125  41.318  12.057
10835W        W83260  15.392  17.085   3.662
10836W        W83261  12.683  15.336   2.922
10837W        W83262   0.029  20.487  14.840
10838W        W83263  28.150  14.576   4.760
10839W        W83264  44.741  13.807  14.487
10840W        W83265   9.873  16.612   0.845
10841W        W83266  21.616  11.378  11.037
10842W        W83267  38.923   7.918   4.227
10843W        W83268  34.037  12.604  12.380
10844W        W83269  15.639  42.846  12.999
10845W        W83270  44.018  11.281  11.613
10846W        W83271  26.460  36.684   2.809
10847W        W83272  32.203  16.304  14.498
10848W        W83273  41.020  37.910  10.736
10849W        W83274  33.138  29.583  11.579
10850W        W83275   2.816   8.808  12.900
10851W        W83276   3.107  30.622  12.782
10852W        W83277  15.068  37.162  14.012
10853W        W83278  31.213  35.156  13.918
10854W        W83279  27.603  35.250  11.240
10855W        W83280   8.160  44.960   2.336
10856W        W83281  22.835  15.740  13.566
10857W        W83282  22.506  43.562   0.366
10858W        W83283  14.536  20.666  13.920
10859W        W83284  42.459  17.701   3.652
10860W        W83285  20.280  35.413  12.869
10861W        W83286  34.881   6.962   5.457
10862W        W83287  24.019  13.144   0.036
10863W        W83288   5.769  35.367   4.165
10864W        W83289  25.637  20.498  10.870
10865W        W83290   5.865   8.318   0.825
10866W        W83291  40.938  23.279   0.150
10867W        W83292  11.286  25.974  13.843
10868W        W83293   6.142   9.170   0.644
10869W        W83294  24.624   5.878   4.737
10870W        W83295  28.855   0.766  14.158
10871W        W83296  18.792   3.811  10.567
10872W        W83297  30.078  39.273   3.681
10873W        W83298  33.001  40.010   1.377
10874W        W83299  39.916  23.205   3.880
10875W        W83300   7.702   6.749   2.458
10876W        W83301  22.109  15.635   1.799
10877W        W83302   4.810  35.555  12.840
10878W        W83303  36.964  17.556  13.918
10879W        W83304   0.609   8.201   0.717
10880W        W83305  10.940  42.038  13.316
10881W        W83306  17.713  40.748   2.302
10882W        W83307  10.808  21.771   2.186
10883W        W83308  14.813  11.347   2.576
10884W        W83309  14.622  22.038  13.897
10885W        W83310   8.747  34.086   4.766
10886W        W83311  31.184   2.251   4.750
10887W        W83312  21.220  32.341   1.405
10888W        W83313  12.309   5.854  12.574
10889W        W83314   4.382   5.355  14.898
10890W        W83315  32.569   9.154  11.408
10891W        W83316  25.669  16.130  10.436
10892W        W83317   7.888  27.013   4.621
10893W        W83318  37.840  36.528  13.350
10894W        W83319   3.447  15.232   1.438
10895W        W83320  37.619  41.948   0.423
10896W        W83321  34.156   8.961   0.276
10897W        W83322  27.931  40.403  13.966
10898W        W83323  15.710  22.765   2.125
10899W        W83324  25.101   9.414  12.053
10900W        W83325   2.161   1.685  13.012
10901W        W83326  43.371  38.321  10.672
10902W        W83327  43.506  12.387   0.983
10903W        W83328  30.895  32.101   3.738
10904W        W83329  16.472  44.315   4.732
10905W        W83330  15.328  31.460   1.952
10906W        W83331  14.837  30.638   0.883
10907W        W83332  11.924  39.362  12.620
10908W        W83333  26.660   3.191  14.812
10909W        W83334  24.758  16.168  11.080
10910W        W83335  16.797  23.279   4.978
10911W        W83336  16.059  28.186  12.081
10912W        W83337  33.509  20.901   4.777
10913W        W83338   6.326  14.860   0.254
10914W        W83339   1.971  27.270   3.280
10915W        W83340  34.850   5.148   3.168
10916W        W83341  38.521  38.140  12.330
10917W        W83342  13.228  18.048  11.593
10918W        W83343  17.347   4.914   2.201
10919W        W83344  29.854  29.501   2.990
10920W        W83345   5.603  30.183  13.326
10921W        W83346  19.514  11.169  10.683
10922W        W83347  37.593  10.668  11.574
10923W        W83348  44.385   9.296  11.201
10924W        W83349  34.447  37.379   3.539
10925W        W83350   3.438  11.994   1.173
10926W        W83351  40.467  19.945   3.794
10927W        W83352   4.059  23.609  11.566
10928W        W83353  28.819   1.747  12.336
10929W        W83354  33.520  27.474   0.914
10930W        W83355   1.460  14.997   1.078
10931W        W83356   6.916  41.978  11.586
10932W        W83357   5.121  35.347   0.021
10933W        W83358  34.864  13.346  10.763
10934W        W83359  16.348   9.066  14.273
10935W        W83360   3.555  39.548   1.067
10936W        W83361   6.345  25.766   2.746
10937W        W83362  25.317  30.035  11.156
10938W        W83363  34.971  39.419  11.981
10939W        W83364  14.099  21.486   3.209
10940W        W83365   8.966  25.273   0.266
10941W        W83366  43.021  11.214   0.481
10942W        W83367  38.242  40.867   2.403
10943W        W83368  34.966  31.042  13.726
10944W        W83369  21.094  13.774   4.592
10945W        W83370  34.508  17.351  12.000
10946W        W83371  30.595  30.863  14.314
10947W        W83372   5.324   6.412  14.846
10948W        W83373  30.659   8.257   1.313
10949W        W83374   5.366  41.812   1.317
10950W        W83375  20.601  23.908   0.979
10951W        W83376  39.974  11.264   4.602
10952W        W83377  41.358  28.395  13.911
10953W        W83378  27.720  17.176  10.752
10954W        W83379   5.739  44.807   2.267
10955W        W83380  42.755  13.754  13.300
10956W        W83381   0.798  19.535  12.998
10957W        W83382  43.102  17.720  13.508
10958W        W83383  18.035  15.970  10.737
10959W        W83384  36.473  15.409   3.623
10960W        W83385  34.389   0.296  11.948
10961W        W83386   2.482  21.584  12.085
10962W        W83387  32.222   9.683  12.460
10963W        W83388  38.321  43.069  11.529
10964W        W83389  43.536   7.704  12.083
10965W        W83390   5.469  35.074  14.786
10966W        W83391  16.236   1.049   0.264
10967W        W83392  27.495  34.366  12.945
10968W        W83393  26.936  15.843   1.219
10969W        W83394   1.842   8.007  14.797
10970W        W83395  27.732  26.253   4.117
10971W        W83396   2.721   0.000  11.011
10972W        W83397  12.867   0.057   4.098
10973W        W83398   2.951   2.839   4.495
10974W        W83399  15.153   7.594   4.666
10975W        W83400  28.678  41.386   9.469
10976W        W83401   3.809  28.920   2.671
10977W        W83402  35.895  11.707   2.386
10978W        W83403   2.370   4.952   2.144
10979W        W83404  19.083  12.997   1.741
10980W        W83405  17.711  24.298  12.126
10981W        W83406  34.422  13.407   1.197
10982W        W83407   4.399  42.334   3.310
10983W        W83408  26.625  42.284   2.969
10984W        W83409   8.883  18.545   2.194
10985W        W83410   1.433  23.464   0.355
10986W        W83411  40.791   3.581  12.206
10987W        W83412  38.449  13.325  14.734
10988W        W83413  37.455  11.544  11.292
10989W        W83414  31.948  38.297  11.857
10990W        W83415  10.614  25.039  13.445
10991W        W83416  25.550   7.271  10.566
10992W        W83417  19.503   9.823  13.466
10993W        W83418  26.394  19.806   4.458
10994W        W83419  23.253   2.888   0.197
10995W        W83420  34.988  44.085   2.292
10996W        W83421  37.472  23.755   1.961
10997W        W83422  43.494  43.220  13.779
10998W        W83423  11.072  29.610   1.113
10999W        W83424  34.022  11.870  13.111
11000W        W83425  17.120  33.506   3.364
11001W        W83426  25.149  14.569  12.883
11002W        W83427  14.368   3.872  13.341
11003W        W83428  26.862  19.847   3.553
11004W        W83429   7.441  27.800  12.630
11005W        W83430  11.631  20.596  14.348
11006W        W83431  42.368  24.150   3.530
11007W        W83432  29.388  15.531  14.280
11008W        W83433  20.618  32.045  11.779
11009W        W83434   6.837  14.450   1.739
11010W        W83435  13.377  39.761  14.350
11011W        W83436  20.094   7.101   3.657
11012W        W83437  35.416  43.898  11.169
11013W        W83438  44.292   8.194   1.304
11014W        W83439  26.924   4.345   1.911
11015W        W83440  28.622  39.586  11.129
11016W        W83441  43.785  37.136   0.465
11017W        W83442  36.057  32.480   2.455
11018W        W83443   4.366  43.978  12.542
11019W        W83444  42.478  15.244   0.395
11020W        W83445   7.329  25.952   4.164
11021W        W83446  16.393  26.118  10.560
11022W        W83447  40.345  12.607   3.645
11023W        W83448  18.621  13.727  14.844
11024W        W83449  20.265   5.006  12.305
11025W        W83450  32.907  11.140   2.597
11026W        W83451  38.348  36.443   4.401
11027W        W83452  35.581   0.138  11.598
11028W        W83453  44.786  26.657  10.424
11029W        W83454   4.822  11.262  11.126
11030W        W83455  37.098  37.058   2.336
11031W        W83456  14.709   2.304   4.196
11032W        W83457  38.552  37.716   0.619
11033W        W83458  42.724  10.176   1.203
11034W        W83459   5.545  12.740   1.198
11035W        W83460  18.312  38.376   1.365
11036W        W83461   2.415   0.333  12.085
11037W        W83462  28.955  41.911  14.413
11038W        W83463  11.110  25.208  11.643
11039W        W83464  28.920  28.420  13.380
11040W        W83465  27.821  37.855   4.903
11041W        W83466  44.902  34.749   0.776
11042W        W83467   9.634  38.291  10.996
11043W        W83468  19.473  36.008   1.235
11044W        W83469   3.391  22.812   1.373
11045W        W83470  30.858   4.268  11.130
11046W        W83471  40.893  25.291   4.145
11047W        W83472  25.442  42.471  12.572
11048W        W83473  38.812  13.875  11.066
11049W        W83474  12.376   3.308  10.124
11050W        W83475  39.047  21.591  12.501
11051W        W83476  14.258  19.282   0.259
11052W        W83477  13.593   2.495  12.535
11053W        W83478  41.428  18.038  12.094
11054W        W83479  18.880   4.298  14.978
11055W        W83480   4.350  12.201   4.365
11056W        W83481  12.652   4.026   5.489
11057W        W83482  33.492   9.229   2.257
11058W        W83483  26.800  10.854   2.723
11059W        W83484  20.071  36.489   4.873
11060W        W83485  33.481  12.144   1.837
11061W        W83486  23.543  35.495  11.582
11062W        W83487  16.172  16.769  10.492
11063W        W83488  15.801  20.342  12.688
11064W        W83489  18.030  30.451  10.411
11065W        W83490  30.113  31.879  13.299
11066W        W83491   3.681  15.854  14.912
11067W        W83492  44.514   8.193   3.280
11068W        W83493  16.330   4.357  14.448
11069W        W83494   2.345   5.281  14.320
11070W        W83495  28.428  40.597  12.034
11071W        W83496  36.122   7.759   1.177
11072W        W83497  25.011  41.354  13.536
11073W        W83498  13.540   1.215   0.008
11074W        W83499  13.175  33.687   0.929
11075W        W83500   3.400  15.560  12.418
11076W        W83501  20.841  29.925   2.835
11077W        W83502  29.618  41.336   4.190
11078W        W83503  16.109  10.125  10.498
11079W        W83504  10.191  11.041  14.781
11080W        W83505  32.915  13.969  12.485
11081W        W83506  40.031  34.835  13.048
11082W        W83507  42.359  38.915  11.234
11083W        W83508  28.132  20.231  12.385
11084W        W83509   1.867  22.995  13.407
11085W        W83510  38.857  44.421  13.658
11086W        W83511  33.509  14.038  13.861
11087W        W83512  38.062  22.807   1.747
11088W        W83513  15.944  39.886   1.035
11089W        W83514  23.435  12.681  14.016
11090W        W83515  19.726  40.318  13.844
11091W        W83516  41.400  12.822  14.787
11092W        W83517  13.234   7.179  12.014
11093W        W83518  32.021  26.187  13.946
11094W        W83519  14.021  15.731  12.920
11095W        W83520  42.982  13.591   4.245
11096W        W83521  19.791  34.008  10.729
11097W        W83522   4.888  30.882   3.194
11098W        W83523  18.543  17.293   4.716
11099W        W83524  42.311  21.147   0.105
11100W        W83525   2.504  42.726  13.842
11101W        W83526  31.606   4.179   3.448
11102W        W83527  16.080   7.666  14.282
11103W        W83528   1.447  19.597   2.355
11104W        W83529  26.695  20.230  10.581
11105W        W83530   2.368   2.455   3.278
11106W        W83531  34.687   0.874   5.134
11107W        W83532  33.577   7.295  13.796
11108W        W83533   3.238  35.955  13.383
11109W        W83534  22.755  44.449  13.548
11110W        W83535  32.643   0.444   1.397
11111W        W83536  44.006  33.765   1.991
11112W        W83537   3.947   4.494   1.705
11113W        W83538  13.751  25.547   3.614
11114W        W83539  22.075  16.343  12.459
11115W        W83540   7.792   6.927   1.506
11116W        W83541  25.212  25.158  12.005
11117W        W83542  16.548  11.772   3.674
11118W        W83543  26.011  10.803   3.937
11119W        W83544  41.930  17.168   2.489
11120W        W83545  31.580  33.911   2.624
11121W        W83546  40.981   9.877   0.116
11122W        W83547  32.541   0.741   1.842
11123W        W83548  24.508  33.847   3.821
11124W        W83549  11.583  17.756   4.896
11125W        W83550   2.476  14.762  12.478
11126W        W83551   2.842  21.758  13.758
11127W        W83552  36.084  11.750   4.649
11128W        W83553   6.892  32.417   1.898
11129W        W83554  32.132  38.927  11.191
11130W        W83555  12.599   9.120  10.754
11131W        W83556  29.588  42.414   2.319
11132W        W83557  32.936  15.583   1.347
11133W        W83558  39.286  18.072   0.219
11134W        W83559  43.484  24.678  14.447
11135W        W83560  40.035  23.118   4.377
11136W        W83561  38.112   9.300  10.981
11137W        W83562  42.844  33.924  13.540
11138W        W83563   5.060  10.088  12.680
11139W        W83564   4.288  33.038  10.735
11140W        W83565  20.078  10.726   1.373
11141W        W83566   1.763   5.488   2.743
11142W        W83567  14.807  40.825   4.598
11143W        W83568  27.271  22.542  12.796
11144W        W83569  41.933  30.134  11.911
11145W        W83570  22.034  34.172  13.818
11146W        W83571  40.914  35.109   0.869
11147W        W83572  43.198  28.130  14.346
11148W        W83573  42.434  38.087   3.472
11149W        W83574  14.259  17.519  10.877
11150W        W83575  36.242   4.740  11.184
11151W        W83576  10.462  43.459  14.474
11152W        W83577  16.350  44.042  14.111
11153W        W83578  35.074  24.676  13.588
11154W        W83579   4.955  29.036   3.397
11155W        W83580   3.884  43.461   1.839
11156W        W83581  31.038  31.576  11.486
11157W        W83582  13.454   1.701   2.177
11158W        W83583  42.050  29.125   4.089
11159W        W83584  16.732  11.255  11.497
11160W        W83585   1.385   4.553   2.414
11161W        W83586  24.849  37.343  14.160
11162W        W83587   3.269  41.300   4.517
11163W        W83588  40.708  20.205   9.849
11164W        W83589  13.397  21.557  11.071
11165W        W83590  33.365   5.155   2.385
11166W        W83591  33.470   1.979   2.207
11167W        W83592  23.587   0.193  13.868
11168W        W83593  37.558  15.186   4.204
11169W        W83594  13.112  25.760  10.599
11170W        W83595  33.381  24.936   3.707
11171W        W83596  44.196   5.277  12.869
11172W        W83597  44.478  36.091  10.713
11173W        W83598   9.270  32.964  10.688
11174W        W83599  38.919  28.329   0.975
11175W        W83600  36.487  34.900  14.309
11176W        W83601  41.274  44.969   4.666
11177W        W83602  27.716  38.981  12.035
11178W        W83603   3.302  10.398  11.235
11179W        W83604  24.252  16.063   3.185
11180W        W83605  27.502  44.859   0.932
11181W        W83606   3.711   1.859  13.924
11182W        W83607  44.260  41.079   1.900
11183W        W83608  13.667  38.130  11.507
11184W        W83609  19.227  19.029  13.676
11185W        W83610  20.119   3.587   3.729
11186W        W83611  44.704  40.782   1.680
11187W        W83612  29.039  39.959  10.989
11188W        W83613   0.377   0.420   0.815
11189W        W83614  25.423  12.972   3.815
11190W        W83615  39.566  24.948   2.844
11191W        W83616  25.507  40.617  10.787
11192W        W83617  19.953  42.165   3.807
11193W        W83618  15.327  21.224  13.034
11194W        W83619  12.620   1.185   1.320
11195W        W83620  37.765  35.502  14.428
11196W        W83621  44.529  18.909   0.857
11197W        W83622  25.178   6.853  12.037
11198W        W83623  11.806  35.453   2.270
11199W        W83624   7.739  38.833   4.567
11200W        W83625   2.778  42.523   0.073
11201W        W83626  30.516   4.140  12.986
11202W        W83627  35.106  32.434  11.091
11203W        W83628   0.889   9.341  10.977
11204W        W83629  28.883  32.160   3.198
11205W        W83630   2.386  33.568  10.718
11206W        W83631  34.368  44.976  13.309
11207W        W83632  31.656  25.515   3.903
11208W        W83633  22.271  32.507   0.832
11209W        W83634  36.834  30.107  10.658
11210W        W83635  33.879  24.598  12.506
11211W        W83636  39.704  20.487   5.298
11212W        W83637  36.815  31.694   2.207
11213W        W83638   8.173  13.624  11.701
11214W        W83639  42.807  25.948  12.802
11215W        W83640   9.846  16.148   2.760
11216W        W83641  24.840  41.043  11.404
11217W        W83642  23.645   1.641   0.461
11218W        W83643  39.344  43.225  13.006
11219W        W83644  28.100  34.433  10.223
11220W        W83645  16.440  32.750  10.136
11221W        W83646  30.019   7.319  13.641
11222W        W83647   6.748  11.181   2.381
11223W        W83648  25.174  28.407   1.473
11224W        W83649  26.949   4.157  13.390
11225W        W83650  28.982  25.562   2.422
11226W        W83651  16.076  22.576   3.458
11227W        W83652  10.781  33.172   2.200
11228W        W83653  43.243  34.860  12.829
11229W        W83654   5.511  42.345  13.278
11230W        W83655   5.281   7.257  13.255
11231W        W83656  23.766  24.473   3.507
11232W        W83657  28.173  19.730   0.900
11233W        W83658   9.289  19.192   2.699
11234W        W83659  35.534  21.276  13.526
11235W        W83660  26.598  41.762   0.364
11236W        W83661  20.398  43.839   2.353
11237W        W83662  36.506  14.277  14.003
11238W        W83663  13.612  29.644   0.809
11239W        W83664  35.557  26.986  12.966
11240W        W83665  34.526  39.670   3.686
11241W        W83666  40.721  41.359  10.651
11242W        W83667  30.074  11.069  14.762
11243W        W83668  37.040  23.494  14.308
11244W        W83669   8.672  29.960  11.952
11245W        W83670  10.194  42.274   0.929
11246W        W83671   2.764  23.385  11.162
11247W        W83672  24.506  38.054   0.030
11248W        W83673  29.085   3.612   4.225
11249W        W83674  14.071  38.053  12.427
11250W        W83675  15.436   9.199   4.656
11251W        W83676   5.918  10.952   4.680
11252W        W83677  41.996  24.782  10.081
11253W        W83678   3.960  10.384   2.102
11254W        W83679   7.775  22.707  13.406
11255W        W83680  17.835  13.223  11.161
11256W        W83681  38.435  25.275  12.445
11257W        W83682  29.639  30.382  11.653
11258W        W83683  10.147  32.283   3.858
11259W        W83684  28.260  11.418   3.536
11260W        W83685  23.571  13.310   0.225
11261W        W83686   8.345   3.226   4.551
11262W        W83687  19.296  27.091   2.588
11263W        W83688  34.935  25.898   4.174
11264W        W83689  30.194  20.793   0.638
11265W        W83690  26.205  12.586  13.120
11266W        W83691  31.705  39.516  11.317
11267W        W83692  22.588  43.031   1.250
11268W        W83693  18.582  22.663   0.850
11269W        W83694  10.284  23.031   1.269
11270W        W83695  36.367  18.992  12.127
11271W        W83696  37.084  30.016   2.323
11272W        W83697  16.103  21.331   4.924
11273W        W83698  13.050   1.962   3.588
11274W        W83699  37.814  43.089  11.607
11275W        W83700  11.894  22.570  10.503
11276W        W83701  31.662  30.520  10.609
11277W        W83702  28.143  23.580  13.025
11278W        W83703  40.365  15.364   5.010
11279W        W83704  28.973   0.258  11.149
11280W        W83705  21.581  22.695   9.873
11281W        W83706  35.244   6.667   0.244
11282W        W83707  13.578  19.804   0.375
11283W        W83708   3.311   2.903   3.259
11284W        W83709  10.635  31.493   4.685
11285W        W83710  29.610  29.241  10.371
11286W        W83711  12.396  13.065  10.424
11287W        W83712  42.100  20.854   4.763
11288W        W83713  25.970  12.720   2.475
11289W        W83714  20.457  36.595  14.287
11290W        W83715  39.112   1.825  14.455
11291W        W83716  26.704  24.816  13.917
11292W        W83717  13.176  11.357  14.761
11293W        W83718   1.816  30.257  12.967
11294W        W83719  17.000  31.479  13.446
11295W        W83720  28.687  24.120   9.931
11296W        W83721  43.836  27.407   0.836
11297W        W83722  40.324   2.394   3.549
11298W        W83723  28.917   7.650  11.878
11299W        W83724  21.921  17.221   4.567
11300W        W83725  31.569  22.983   0.809
11301W        W83726  33.935  38.685  13.493
11302W        W83727   9.435  23.943  13.771
11303W        W83728  22.701  33.933  11.569
11304W        W83729   4.661  33.427   0.083
11305W        W83730   0.485   8.978  12.136
11306W        W83731  24.243  11.405  10.414
11307W        W83732  36.525  26.916   1.295
11308W        W83733   0.685  28.427  13.413
11309W        W83734   3.121   2.260  12.078
11310W        W83735  41.554  11.201   2.241
11311W        W83736  11.335  30.574   2.756
11312W        W83737  18.744  37.060  12.877
11313W        W83738  44.286  38.556  14.996
11314W        W83739  43.264  20.621   2.159
11315W        W83740  17.105  29.418  12.890
11316W        W83741  44.371  28.352   3.817
11317W        W83742  24.296  34.233  11.620
11318W        W83743  29.506  43.914  12.409
11319W        W83744  18.132  18.201   0.067
11320W        W83745  34.498  14.867  14.566
11321W        W83746  37.155  22.536  11.938
11322W        W83747   3.925  17.091  14.399
11323W        W83748  28.483  43.034  12.531
11324W        W83749  18.543  41.347  13.925
11325W        W83750  10.957   1.348  11.583
11326W        W83751   2.229  10.858   4.205
11327W        W83752  13.744  28.472   3.668
11328W        W83753   8.840   3.767  11.867
11329W        W83754  16.623  37.380  14.739
11330W        W83755  38.822  23.015   4.600
11331W        W83756  10.912  21.429   3.131
11332W        W83757  37.407  42.281  12.939
11333W        W83758  13.609  44.012   0.470
11334W        W83759   8.806  23.525  13.329
11335W        W83760  10.110  33.683  14.724
11336W        W83761  20.686   5.294   0.678
11337W        W83762  44.319  14.068   3.131
11338W        W83763   3.288  28.593  11.652
11339W        W83764  15.062  38.129   2.282
11340W        W83765  16.566  39.300   4.586
11341W        W83766  30.897  12.909   2.332
11342W        W83767  21.436  14.276   3.774
11343W        W83768   1.450  38.967  13.364
11344W        W83769  24.797  16.698  13.817
11345W        W83770  34.835  15.203   3.109
11346W        W83771  41.978  42.053   3.776
11347W        W83772  22.599  26.074  13.049
11348W        W83773  25.481  13.393  11.116
11349W        W83774  24.084  11.239  13.127
11350W        W83775   7.204  32.003   3.761
11351W        W83776  17.018  16.923   3.173
11352W        W83777  20.559  39.942   0.910
11353W        W83778  36.924  39.562  12.475
11354W        W83779   4.521  37.730  12.507
11355W        W83780  29.570  31.943  12.443
11356W        W83781  26.531  26.182   3.288
11357W        W83782  26.202  42.031   4.522
11358W        W83783  17.718  42.235  11.253
11359W        W83784  38.561  17.839   2.691
11360W        W83785  44.371   0.220   2.629
11361W        W83786  11.139   0.048  11.956
11362W        W83787   1.765  10.840   3.888
11363W        W83788  21.672   0.219   3.703
11364W        W83789  29.374  17.064  11.508
11365W        W83790   4.835  29.581  14.935
11366W        W83791   4.835  13.147  10.411
11367W        W83792  24.857  32.888  14.613
11368W        W83793  11.755  41.266  10.398
11369W        W83794  25.750   5.656   3.148
11370W        W83795  25.971  27.559   3.821
11371W        W83796  41.289  11.710   0.347
11372W        W83797  10.567  15.628   4.595
11373W        W83798  24.750  22.208  12.929
11374W        W83799   4.403  17.030  14.209
11375W        W83800  39.877  22.091  13.696
11376W        W83801  19.027   4.788   2.620
11377W        W83802  36.243  15.726   3.275
11378W        W83803  23.288  13.712  13.238
11379W        W83804   8.747  21.026  13.080
11380W        W83805  21.250  34.579   2.710
11381W        W83806  18.600  41.599  11.214
11382W        W83807   2.246   2.012   1.958
11383W        W83808  42.554  43.572  12.867
11384W        W83809  14.320  21.410   2.347
11385W        W83810  34.336   9.162   1.773
11386W        W83811  25.485  27.707  10.708
11387W        W83812  42.564   8.567   2.920
11388W        W83813  32.274  43.772  14.463
11389W        W83814   2.962  13.428   0.405
11390W        W83815  40.869  15.138   4.997
11391W        W83816  23.428  44.878   2.368
11392W        W83817  23.252  39.315  14.645
11393W        W83818   6.435  16.748   1.144
11394W        W83819   1.109  35.427   3.340
11395W        W83820  23.271  44.723  13.026
11396W        W83821  11.252   0.492  11.045
11397W        W83822   9.905  33.570  12.117
11398W        W83823  26.879  10.924   4.501
11399W        W83824  19.714  43.667  13.852
11400W        W83825  34.492  35.073   1.739
11401W        W83826  20.126  35.435   1.510
11402W        W83827  11.515  27.889  11.563
11403W        W83828  23.233   3.926  10.448
11404W        W83829  43.025   4.759  14.963
11405W        W83830  26.483   8.356   4.212
11406W        W83831  15.075  30.147   3.467
11407W        W83832   3.599  19.261   3.345
11408W        W83833  10.932  13.615  11.178
11409W        W83834   4.820  30.537   5.003
11410W        W83835  43.689  27.854  12.909
11411W        W83836  32.096   7.187   4.591
11412W        W83837  23.323  28.635  11.563
11413W        W83838  11.106   4.680   4.625
11414W        W83839  22.416  12.665  13.059
11415W        W83840   3.441  44.721  14.108
11416W        W83841   2.982   8.306   0.345
11417W        W83842  44.797  43.560  12.951
11418W        W83843  30.403  10.845   1.250
11419W        W83844  25.168  20.213  10.697
11420W        W83845  30.439  41.521  14.292
11421W        W83846  23.328  29.830   3.788
11422W        W83847  11.110  22.190  12.011
11423W        W83848  14.705   6.959   2.745
11424W        W83849   6.931  20.704  14.733
11425W        W83850  18.721  38.460   3.172
11426W        W83851  39.990  36.001   0.479
11427W        W83852  30.399   3.305   4.564
11428W        W83853  27.998  24.663  13.358
11429W        W83854  17.808   5.211  12.010
11430W        W83855  35.909   9.576  13.886
11431W        W83856  36.574  30.517   3.854
11432W        W83857  22.571  39.844  12.175
11433W        W83858  31.100  18.592  13.888
11434W        W83859  33.819   9.928   2.413
11435W        W83860  43.863  34.028  13.505
11436W        W83861  29.660  29.025   2.781
11437W        W83862   4.788  21.707   0.497
11438W        W83863  20.841   3.000   1.626
11439W        W83864  35.728  28.774   2.767
11440W        W83865  25.671   1.970  10.642
11441W        W83866   8.619   3.441  13.162
11442W        W83867  28.491  27.629  12.357
11443W        W83868  26.217   8.827   3.077
11444W        W83869   3.996  28.035   4.931
11445W        W83870  25.275  43.864   2.690
11446W        W83871  25.241  17.627   3.233
11447W        W83872   8.840  31.356   4.218
11448W        W83873  31.372  29.618  13.530
11449W        W83874  38.925  37.581  14.805
11450W        W83875  19.504   7.262  14.761
11451W        W83876  18.916  17.487  13.841
11452W        W83877  22.728   9.283  13.462
11453W        W83878  24.995  15.805   3.679
11454W        W83879  40.748  24.640  10.677
11455W        W83880  12.617  18.043   0.023
11456W        W83881  25.595  28.482   3.346
11457W        W83882  25.234  33.930   4.226
11458W        W83883   5.997   2.389   3.819
11459W        W83884  18.561  10.276   0.902
11460W        W83885  38.098   1.396   0.461
11461W        W83886  26.796  14.751   0.180
11462W        W83887  13.159  29.955  12.581
11463W        W83888   9.681  11.139   3.166
11464W        W83889  18.766  16.158   4.094
11465W        W83890  41.465  40.165  13.822
11466W        W83891  28.092  29.453  13.013
11467W        W83892   4.081  16.308   2.735
11468W        W83893  36.964  18.491  11.500
11469W        W83894  12.441  19.602  11.227
11470W        W83895  33.921   2.189   1.779
11471W        W83896  43.913   1.934   2.119
11472W        W83897  16.630   1.936   2.668
11473W        W83898  18.122  34.428   0.245
11474W        W83899  26.516  44.379  12.016
11475W        W83900   9.455  27.681  12.915
11476W        W83901  12.763  24.108  13.006
11477W        W83902  39.764  27.539  13.978
11478W        W83903   3.937  21.877   4.619
11479W        W83904   5.869  12.200  12.538
11480W        W83905  25.042  30.010  12.918
11481W        W83906  37.736  31.117   2.729
11482W        W83907  22.820  30.561   0.412
11483W        W83908  33.015  24.901  14.321
11484W        W83909  29.985  15.786   2.203
11485W        W83910   6.206  20.330  10.655
11486W        W83911  37.712  25.445   2.767
11487W        W83912   3.360  36.488   2.680
11488W        W83913  26.169  19.280  12.092
11489W        W83914  10.978   2.821  12.969
11490W        W83915   3.281  10.009  10.515
11491W        W83916  10.795  27.657   4.028
11492W        W83917  17.811  16.108   2.338
11493W        W83918   4.722   4.639   0.294
11494W        W83919   6.523  22.705  12.872
11495W        W83920  40.692  34.375  11.148
11496W        W83921  33.352  21.234   5.142
11497W        W83922   4.673  33.430   3.693
11498W        W83923  43.349   4.414  13.438
11499W        W83924  17.601  10.918   3.215
11500W        W83925  25.591  26.527   2.405
11501W        W83926  44.456  37.970   1.187
11502W        W83927  33.149  40.449   4.082
11503W        W83928   2.735  34.536  10.575
11504W        W83929   4.486  41.496  12.055
11505W        W83930  30.875  35.897  12.682
11506W        W83931  11.463  38.949   0.936
11507W        W83932  33.006  21.658  12.351
11508W        W83933  29.568   1.183   2.446
11509W        W83934  41.553   0.529  12.435
11510W        W83935   0.833  33.613   3.626
11511W        W83936  43.442  26.706   0.870
11512W        W83937  37.598  26.129  13.023
11513W        W83938  33.899   0.844   1.489
11514W        W83939  35.519  23.455   2.390
11515W        W83940  41.740   6.176  12.956
11516W        W83941  20.835  42.197   2.319
11517W        W83942  33.504  27.496  14.597
11518W        W83943  43.828  16.172   3.336
11519W        W83944  41.107   7.701   3.744
11520W        W83945  20.681  16.936   0.423
11521W        W83946  19.080  16.709   2.709
11522W        W83947  20.759   9.620   1.712
11523W        W83948  33.348  25.194  11.337
11524W        W83949  38.721  28.720  14.119
11525W        W83950  30.300   4.865  12.431
11526W        W83951   1.399  44.981  11.641
11527W        W83952  17.488  35.067  10.935
11528W        W83953   5.759   0.885   1.792
11529W        W83954  13.168  20.527  11.963
11530W        W83955  10.322  10.328  11.386
11531W        W83956   6.414  21.266   2.223
11532W        W83957  17.393  34.528   5.471
11533W        W83958   7.519   6.582   4.799
11534W        W83959  32.031  40.439   4.123
11535W        W83960  12.208   6.563   4.666
11536W        W83961  31.136   9.359  13.050
11537W        W83962  44.464   6.984   4.560
11538W        W83963  26.036  43.050   2.289
11539W        W83964  29.910   6.634  10.696
11540W        W83965  17.411   0.994   0.940
11541W        W83966  41.356   5.852  10.646
11542W        W83967  41.759  20.581   0.504
11543W        W83968  22.524  20.701   2.005
11544W        W83969  33.250  38.627   5.061
11545W        W83970  40.319   3.704  12.458
11546W        W83971  19.019   1.224   0.396
11547W        W83972  25.479  27.368  14.692
11548W        W83973  31.517  16.589   3.366
11549W        W83974  40.717   4.101  12.075
11550W        W83975   7.805   3.536   2.250
11551W        W83976  27.842  28.987  13.007
11552W        W83977  35.986   5.441   3.768
11553W        W83978  44.203  11.231  14.422
11554W        W83979  23.708   5.892  14.064
11555W        W83980  43.321  31.611   2.311
11556W        W83981   8.832  34.079   0.734
11557W        W83982  20.284  25.856   3.607
11558W        W83983   4.317  14.651   1.855
11559W        W83984  18.099   4.369  13.422
11560W        W83985  34.102  35.545   3.620
11561W        W83986   6.615   3.765   1.610
11562W        W83987  16.527  20.715   3.700
11563W        W83988  34.495  16.838  14.461
11564W        W83989   4.065  14.328   0.038
11565W        W83990  23.185  20.696   1.347
11566W        W83991  25.528   8.456  14.254
11567W        W83992   0.848  25.053   2.684
11568W        W83993  15.780  42.782   2.235
11569W        W83994  17.065  31.994  13.579
11570W        W83995  29.629  39.356   3.418
11571W        W83996  11.266   6.218   0.793
11572W        W83997  32.414  10.721  13.372
11573W        W83998  33.490  42.429   1.952
11574W        W83999  31.839  19.654   4.162
11575W        W84000  12.289  24.845  12.946
11576W        W84001  15.220  29.814  12.470
11577W        W84002  14.349  21.656   2.800
11578W        W84003   1.199   6.511  13.006
11579W        W84004   0.268   4.850   4.133
11580W        W84005  25.320  21.603   5.066
11581W        W84006  42.063   8.466   2.848
11582W        W84007   5.162  17.111  14.461
11583W        W84008  31.572  24.194  13.315
11584W        W84009  11.958   4.018   5.070
11585W        W84010  22.125  36.957   0.950
11586W        W84011  30.218   4.592  14.375
11587W        W84012  15.126  33.184   1.423
11588W        W84013   5.847  43.223   2.230
11589W        W84014   5.609  40.767  14.969
11590W        W84015  42.851  24.551   4.175
11591W        W84016  14.335  16.412  12.328
11592W        W84017  34.974  15.992   4.596
11593W        W84018   1.997  22.006   0.065
11594W        W84019  21.598  29.801   1.753
11595W        W84020  34.125  13.800   0.410
11596W        W84021   9.212  17.895   0.904
11597W        W84022  14.443  22.831   0.442
11598W        W84023   1.983  40.415  14.941
11599W        W84024  30.549   1.907   4.594
11600W        W84025  12.777  33.530  11.473
11601W        W84026  15.914  39.404   2.803
11602W        W84027  23.902   6.501   2.301
11603W        W84028  39.340   4.907  13.162
11604W        W84029  16.112  32.881   4.640
11605W        W84030   9.764   0.356  12.060
11606W        W84031  40.573  21.544   4.611
11607W        W84032  20.197  43.777   4.690
11608W        W84033  17.715  32.533   0.761
11609W        W84034   2.392  43.465  10.725
11610W        W84035  18.777  10.250  12.952
11611W        W84036  12.917  25.502   4.288
11612W        W84037   1.744   8.566  14.854
11613W        W84038   9.010  38.535  11.448
11614W        W84039  24.175  40.704   3.737
11615W        W84040  27.669  39.792   2.768
11616W        W84041  26.881   9.841   0.462
11617W        W84042  43.715  41.826  12.539
11618W        W84043  26.710  36.145  13.301
11619W        W84044  41.066   5.253  10.964
11620W        W84045  30.548  28.205  13.064
11621W        W84046  18.814  12.037  12.144
11622W        W84047  22.424  37.273  11.012
11623W        W84048   3.755  25.487  13.451
11624W        W84049  16.788  11.328   3.660
11625W        W84050   6.661  15.672  10.798
11626W        W84051  39.422  20.076  11.015
11627W        W84052  26.457   2.302   4.699
11628W        W84053   2.930  36.703  12.624
11629W        W84054  41.995  16.114  13.790
11630W        W84055  44.877  37.249  13.451
11631W        W84056  34.486  20.478  10.255
11632W        W84057  30.132  12.652  11.469
11633W        W84058  30.509  19.068   3.653
11634W        W84059  21.703  17.042   2.233
11635W        W84060  36.720  13.777  13.801
11636W        W84061  17.571  11.289   4.104
11637W        W84062  18.640  28.009  11.379
11638W        W84063  35.446  18.574  12.644
11639W        W84064  31.152  29.783  13.989
11640W        W84065  25.566  27.333   0.719
11641W        W84066  30.241  12.272   4.427
11642W        W84067  19.120  22.723  13.063
11643W        W84068  19.114  27.709  11.207
11644W        W84069  38.835  23.632   1.389
11645W        W84070  29.555  36.576  14.092
11646W        W84071  37.406  14.688  12.113
11647W        W84072  23.988  40.246  12.560
11648W        W84073  30.185   4.517  13.190
11649W        W84074  43.023  33.477  10.434
11650W        W84075   9.135   0.489  14.455
11651W        W84076  27.682  36.148  10.692
11652W        W84077  39.511  31.661  14.972
11653W        W84078   3.174  16.026   5.112
11654W        W84079   2.349  18.635   0.406
11655W        W84080   9.360  14.859   0.423
11656W        W84081  23.452  34.460   1.947
11657W        W84082  34.984  11.845   2.138
11658W        W84083  41.372  34.696   2.816
11659W        W84084   7.161  15.814  10.740
11660W        W84085   0.674  22.688   2.235
11661W        W84086  38.452  31.858   1.211
11662W        W84087  39.024   0.485  11.704
11663W        W84088  36.440  37.977  11.851
11664W        W84089  13.411  13.672  13.919
11665W        W84090   2.659  13.732   0.763
11666W        W84091  26.023  19.367  10.740
11667W        W84092  39.905  31.724  12.085
11668W        W84093  13.600  28.387  12.065
11669W        W84094  43.072  23.449   0.062
11670W        W84095  21.695   4.464   0.674
11671W        W84096   5.829  33.927  14.986
11672W        W84097  43.841  35.323  12.310
11673W        W84098   8.187  12.719  14.249
11674W        W84099   3.917  22.680  12.105
11675W        W84100   9.954  35.483  13.815
11676W        W84101  33.076  23.149  13.041
11677W        W84102  15.170  15.982   3.596
11678W        W84103  28.477  40.903  13.215
11679W        W84104   7.863   5.332  11.339
11680W        W84105  25.771  24.642   1.240
11681W        W84106   5.539  24.015   2.875
11682W        W84107  17.656  32.610  14.835
11683W        W84108  28.166  37.027  11.559
11684W        W84109  18.273  33.984   4.171
11685W        W84110  20.734  40.917   3.489
11686W        W84111   1.794  36.927   0.770
11687W        W84112  17.586  14.366   4.168
11688W        W84113  11.393   8.570   3.773
11689W        W84114  30.475  32.969   4.269
11690W        W84115   6.786  39.527  13.857
11691W        W84116  26.494  39.398  12.172
11692W        W84117   2.715  30.049   0.372
11693W        W84118  21.659  16.639  12.164
11694W        W84119   3.743  24.089  10.765
11695W        W84120  40.801  36.595   1.447
11696W        W84121  31.206  15.652   0.038
11697W        W84122  20.204   4.210  12.702
11698W        W84123  34.357   0.771   4.611
11699W        W84124  38.972  28.437  12.913
11700W        W84125  10.810  13.299   2.436
11701W        W84126   5.280  11.336  10.547
11702W        W84127  43.364  15.961  13.494
11703W        W84128   6.158   2.428  11.136
11704W        W84129   7.521  41.896  10.799
11705W        W84130  10.664   4.266  11.921
11706W        W84131  19.012  41.831   0.464
11707W        W84132  42.735   1.719   3.327
11708W        W84133  38.510  33.979   3.478
11709W        W84134  42.681  27.875  10.055
11710W        W84135  32.206  35.123  11.800
11711W        W84136  11.342  40.969   4.222
11712W        W84137  31.346  31.620  11.059
11713W        W84138  17.756  41.335  10.929
11714W        W84139   3.935   4.082   2.007
11715W        W84140  20.102   2.346  13.304
11716W        W84141   1.914  13.885  14.807
11717W        W84142   0.813  27.037  14.771
11718W        W84143   2.858  42.367  11.872
11719W        W84144  32.013  39.988  14.873
11720W        W84145  15.522   6.203   0.805
11721W        W84146  28.260  41.888  10.642
11722W        W84147  10.551  39.898  10.295
11723W        W84148  20.007   8.283   1.993
11724W        W84149   2.905  42.026  11.069
11725W        W84150  40.302  17.659   2.324
11726W        W84151  36.165  38.424  12.451
11727W        W84152  14.750  37.200  11.600
11728W        W84153   4.894  11.277  13.401
11729W        W84154  31.423  39.429   2.157
11730W        W84155  12.618  10.918  13.978
11731W        W84156   3.583  41.005   3.174
11732W        W84157   6.315  43.551  13.354
11733W        W84158  33.604  16.833   3.147
11734W        W84159  38.315   4.242   4.030
11735W        W84160  41.763  41.954   4.234
11736W        W84161  12.259  29.913   0.467
11737W        W84162  11.606   9.884  12.441
11738W        W84163  18.638  23.549   2.646
11739W        W84164  20.868  31.612  13.070
11740W        W84165  37.781   5.723  10.493
11741W        W84166  39.086   9.420  14.351
11742W        W84167  16.153  10.193   3.111
11743W        W84168  29.997  39.665   3.225
11744W        W84169  44.927  22.100   4.321
11745W        W84170  36.316  13.896  12.500
11746W        W84171  31.404  25.889   0.383
11747W        W84172   0.140  36.534  11.196
11748W        W84173   4.253  30.439   2.794
11749W        W84174  33.485   6.880  10.588
11750W        W84175   5.522  35.472  14.077
11751W        W84176  38.994   8.286  10.412
11752W        W84177  35.425   3.792   1.881
11753W        W84178  23.018  26.944   0.852
11754W        W84179  28.935  25.030  11.336
11755W        W84180  44.123   5.759   2.256
11756W        W84181  30.550  32.893  11.358
11757W        W84182  18.045   3.164  12.579
11758W        W84183   2.805  22.709  12.537
11759W        W84184  43.272  33.926   4.974
11760W        W84185  24.830  35.661   0.938
11761W        W84186  34.157  32.399  12.517
11762W        W84187   0.464  27.085  10.562
11763W        W84188  22.736   4.736  14.889
11764W        W84189  38.466  43.487   0.728
11765W        W84190  14.539   0.469  10.400
11766W        W84191   7.158  20.585   4.656
11767W        W84192   8.371  39.060   0.372
11768W        W84193   0.150  42.296  14.077
11769W        W84194   1.772  27.568  13.410
11770W        W84195   2.910  42.087   4.666
11771W        W84196  21.148   6.124  13.049
11772W        W84197  44.422  41.987   4.965
11773W        W84198  14.647  35.989   5.028
11774W        W84199  31.478  17.555  14.789
11775W        W84200  14.922  27.580   1.943
11776W        W84201   7.644  27.037   3.737
11777W        W84202   9.283   0.999   1.226
11778W        W84203  20.029  31.561   2.085
11779W        W84204  26.586  33.547  14.807
11780W        W84205  25.508  29.887   0.342
11781W        W84206  41.429  12.858  13.307
11782W        W84207  25.069   8.848   2.781
11783W        W84208  18.788  19.081  12.372
11784W        W84209  26.415  23.690   3.300
11785W        W84210  14.754   6.199  14.302
11786W        W84211  29.619   8.399   4.078
11787W        W84212  35.271  14.902   3.182
11788W        W84213   3.377  35.137  12.602
11789W        W84214  15.391   6.781  14.458
11790W        W84215  30.347   7.677   4.567
11791W        W84216  27.139   1.647   0.459
11792W        W84217  12.048  36.945  13.905
11793W        W84218  28.723  37.823   3.756
11794W        W84219   9.422  28.509   2.794
11795W        W84220  34.077  36.489   4.287
11796W        W84221  20.981  34.853  11.047
11797W        W84222  43.345  16.634   4.358
11798W        W84223  24.477  37.616  13.321
11799W        W84224  21.094  25.274   2.745
11800W        W84225   9.669   1.032   1.873
11801W        W84226  36.444   9.445   5.100
11802W        W84227  11.061  21.122   2.725
11803W        W84228  12.601  38.521   4.489
11804W        W84229  13.666  28.122   0.700
11805W        W84230  34.384  40.465  11.189
11806W        W84231  37.717  40.800   2.472
11807W        W84232   8.003   9.363  10.408
11808W        W84233   5.977  29.021  14.982
11809W        W84234  14.953  28.921   0.422
11810W        W84235  30.201  21.813  14.946
11811W        W84236  28.662  18.692   4.603
11812W        W84237  10.649  32.571  14.521
11813W        W84238   4.778   7.406  12.349
11814W        W84239  36.376  17.281   1.772
11815W        W84240  39.987  19.647  11.572
11816W        W84241  44.270  11.875   4.268
11817W        W84242  41.568  14.638   4.977
11818W        W84243  32.794  19.239   0.532
11819W        W84244  39.332  29.214  10.778
11820W        W84245  22.211  35.045  12.960
11821W        W84246   2.676   3.439   0.080
11822W        W84247  42.023  11.191   3.761
11823W        W84248  42.755   4.281  12.590
11824W        W84249  31.864  32.490  11.121
11825W        W84250  23.912   5.867  12.547
11826W        W84251  39.421  35.811   2.823
11827W        W84252  24.274  38.690  10.681
11828W        W84253   6.990  33.415   4.026
11829W        W84254   3.977  36.700   3.254
11830W        W84255   2.814  22.353  11.114
11831W        W84256  18.612  11.039   1.496
11832W        W84257  10.904   2.312  13.593
11833W        W84258   9.737  36.851   0.995
11834W        W84259   3.476  32.066   0.778
11835W        W84260  18.228   8.661  10.754
11836W        W84261  26.965  16.408  11.234
11837W        W84262  39.008   7.612   4.649
11838W        W84263  23.623  25.168  12.453
11839W        W84264  41.480  11.273   3.676
11840W        W84265  21.627   4.917   1.458
11841W        W84266  16.198  42.754   3.728
11842W        W84267  25.907  32.220   9.755
11843W        W84268  39.472   6.110  14.794
11844W        W84269  34.980  24.405   1.484
11845W        W84270  39.463  20.795   2.057
11846W        W84271  32.403  10.224  14.043
11847W        W84272  37.802  44.555   0.025
11848W        W84273  22.927  16.721   0.420
11849W        W84274  20.042  40.882   1.315
11850W        W84275  10.291  19.451   2.246
11851W        W84276  18.532  10.669  13.172
11852W        W84277   5.417   8.732  11.538
11853W        W84278  18.435  43.837   4.285
11854W        W84279  25.963  29.240  12.043
11855W        W84280  33.610  41.948  13.809
11856W        W84281  26.846   6.098  14.372
11857W        W84282  42.675  27.289  14.932
11858W        W84283  23.013   2.255   1.889
11859W        W84284  39.789   9.103  13.826
11860W        W84285  42.353  24.630   0.774
11861W        W84286  25.392   5.249   1.424
11862W        W84287  35.929   5.141  12.491
11863W        W84288  41.033  26.033   2.752
11864W        W84289  31.023   0.649  11.198
11865W        W84290  44.945  14.285  14.722
11866W        W84291   0.759   7.393   0.404
11867W        W84292   1.015  21.585  12.059
11868W        W84293  35.443  25.258   2.033
11869W        W84294   7.799  26.836  13.051
11870W        W84295  42.873  30.420  12.374
11871W        W84296  37.665  11.327   2.950
11872W        W84297  12.573   9.750  13.826
11873W        W84298  34.492  16.046  11.595
11874W        W84299   6.207  25.435  13.817
11875W        W84300  35.555  15.746   2.324
11876W        W84301  13.597  13.143  13.110
11877W        W84302  39.008  29.209   4.565
11878W        W84303  41.361  40.201  10.384
11879W        W84304  37.319  19.296   2.733
11880W        W84305  36.855   8.966   0.765
11881W        W84306  19.634  29.203  10.712
11882W        W84307  44.345  23.606  12.175
11883W        W84308  36.458  21.459   4.147
11884W        W84309  24.241  11.660  13.701
11885W        W84310   0.277   0.941  14.852
11886W        W84311  41.550  17.500   4.362
11887W        W84312  32.784  15.663   4.096
11888W        W84313  17.563  24.037  11.714
11889W        W84314  28.013   8.213   3.638
11890W        W84315  26.770   5.610   2.296
11891W        W84316  26.977  31.971   1.861
11892W        W84317  44.784  16.368   1.502
11893W        W84318   9.565  30.603   1.301
11894W        W84319  11.456  43.551  12.928
11895W        W84320   7.857  15.350  12.013
11896W        W84321  37.811  17.780  12.050
11897W        W84322   9.375  40.289   1.101
11898W        W84323  22.044  44.340   4.808
11899W        W84324  43.135   2.538  11.065
11900W        W84325  28.090  32.808   4.150
11901W        W84326  40.041  18.295   2.456
11902W        W84327  23.718  21.610   1.673
11903W        W84328  28.919  14.085   4.378
11904W        W84329  22.618  42.814   2.192
11905W        W84330  23.795  39.931   2.309
11906W        W84331  24.471  35.396   1.849
11907W        W84332  21.603  26.601   2.429
11908W        W84333  12.617  18.509  14.744
11909W        W84334  20.822  25.282  11.515
11910W        W84335  19.512  14.285  10.448
11911W        W84336  31.498  26.948  10.992
11912W        W84337   3.477  12.532   0.987
11913W        W84338  27.927  37.055   4.999
11914W        W84339  21.579  34.986   1.823
11915W        W84340  30.469  24.691   3.743
11916W        W84341  39.366  19.519   0.279
11917W        W84342  33.526  43.808   1.303
11918W        W84343  43.372   3.744  10.761
11919W        W84344   5.976  32.961  14.674
11920W        W84345  13.405  32.257   3.742
11921W        W84346  40.866  17.232   3.560
11922W        W84347  35.575   0.137   3.672
11923W        W84348  31.639  33.640  11.977
11924W        W84349  22.625  34.657   2.932
11925W        W84350  14.090  37.478  12.027
11926W        W84351  36.000  20.886  12.237
11927W        W84352  31.656   6.778  12.107
11928W        W84353  41.008   1.445  11.612
11929W        W84354  15.149  42.583  12.989
11930W        W84355  42.273  27.802   1.163
11931W        W84356  26.552  40.925   1.987
11932W        W84357  15.845   9.032   4.408
11933W        W84358  24.502  37.899  11.154
11934W        W84359  42.559  40.368  11.553
11935W        W84360  21.804  40.332  13.044
11936W        W84361  40.987  10.910  14.208
11937W        W84362   5.123  14.645  11.516
11938W        W84363  15.602  35.538  10.570
11939W        W84364   9.670  27.385  12.199
11940W        W84365  15.197  17.656  11.595
11941W        W84366  19.270  36.628   2.755
11942W        W84367   5.200  28.409   4.216
11943W        W84368  19.680  40.191   0.390
11944W        W84369  30.134  16.494  11.445
11945W        W84370  19.736  38.449  14.510
11946W        W84371   6.886  31.635  11.886
11947W        W84372   5.656  39.483   0.765
11948W        W84373   2.159  14.102   2.570
11949W        W84374  17.757   7.430  13.605
11950W        W84375   5.819  27.949   3.751
11951W        W84376  20.674  31.899   2.605
11952W        W84377  29.390  12.897   2.331
11953W        W84378  43.343  35.182   3.218
11954W        W84379  39.223  32.034   0.219
11955W        W84380  37.590   5.530  13.449
11956W        W84381  16.319  11.638  11.200
11957W        W84382   4.748  18.267   2.089
11958W        W84383   9.483  19.188  11.050
11959W        W84384   6.932  31.411   2.347
11960W        W84385   7.886  20.534  11.593
11961W        W84386  43.732   5.345   1.385
11962W        W84387   7.489  24.907   4.136
11963W        W84388   7.186  31.568  10.702
11964W        W84389  10.165  10.735  10.077
11965W        W84390  10.094   4.294  10.191
11966W        W84391  25.491  20.161   2.926
11967W        W84392  30.158  29.370  10.957
11968W        W84393   7.656  22.733  11.899
11969W        W84394   5.855   2.891  14.719
11970W        W84395   1.398  25.543   0.502
11971W        W84396  13.568  10.108   2.159
11972W        W84397  40.278  19.605   2.197
11973W        W84398  37.298  33.952  11.332
11974W        W84399   5.415  10.584  10.908
11975W        W84400   5.883  38.533   2.355
11976W        W84401  33.455  20.576   3.159
11977W        W84402  43.771  22.320   0.140
11978W        W84403  12.826  23.008   4.316
11979W        W84404  39.554   6.887  14.910
11980W        W84405  28.883  25.278  12.464
11981W        W84406  33.818   4.868   2.375
11982W        W84407   4.754  26.440   4.267
11983W        W84408  13.384   4.337   4.756
11984W        W84409   0.913  38.834   2.217
11985W        W84410  29.468  22.562   4.257
11986W        W84411  17.607  38.323  10.583
11987W        W84412   1.227  17.078  12.482
11988W        W84413  44.581  15.069   5.098
11989W        W84414  17.451  15.207  10.333
11990W        W84415  26.445  21.989   4.966
11991W        W84416  18.694  27.019   3.817
11992W        W84417  29.610  15.438   3.963
11993W        W84418   8.814  34.724   2.419
11994W        W84419  29.840  11.514  13.911
11995W        W84420  39.002  37.556   4.980
11996W        W84421  23.982  21.210  14.792
11997W        W84422  17.581   9.854  12.000
11998W        W84423   7.186  28.618   0.681
11999W        W84424  37.083  10.323  13.787
12000W        W84425  41.889  39.963  12.100
12001W        W84426  23.259  20.300  12.371
12002W        W84427  17.925  25.068   4.413
12003W        W84428   7.161  18.268   0.579
12004W        W84429  24.743   5.352  11.098
12005W        W84430   9.417   0.670  12.314
12006W        W84431  34.970  43.491  14.798
12007W        W84432  28.032  16.846  11.114
12008W        W84433  42.041  28.039   3.357
12009W        W84434  32.638  43.165   0.288
12010W        W84435   7.878  23.116  12.197
12011W        W84436  12.312  16.383   3.498
12012W        W84437  27.561  36.619  10.939
12013W        W84438  15.767  11.341   3.217
12014W        W84439   6.483  34.936   2.867
12015W        W84440  16.003  25.014   3.726
12016W        W84441  12.253  26.408  13.203
12017W        W84442  12.794   8.787  13.827
12018W        W84443  12.846  37.515  11.492
12019W        W84444   0.045   8.988   2.284
12020W        W84445  41.720   4.313   3.260
12021W        W84446  22.370  40.849   4.586
12022W        W84447   3.033  12.813   1.749
12023W        W84448  13.329   6.918   1.155
12024W        W84449  23.712  13.325  10.657
12025W        W84450  12.536  39.449   3.265
12026W        W84451   7.642  41.375  12.558
12027W        W84452  23.659  38.851   3.490
12028W        W84453  44.961  40.766   4.551
12029W        W84454  18.566  21.469  14.020
12030W        W84455   0.050   0.481  14.932
12031W        W84456   5.547  29.402   0.896
12032W        W84457  12.748  34.974   0.489
12033W        W84458  35.444  13.500   0.090
12034W        W84459  12.978   2.937   0.393
12035W        W84460   1.426  32.942  12.927
12036W        W84461  43.254  13.723  12.210
12037W        W84462  23.052  33.606  11.072
12038W        W84463  23.283   4.725  13.940
12039W        W84464  38.302   6.297  12.119
12040W        W84465  24.162  43.902  13.616
12041W        W84466  20.456  15.795  10.400
12042W        W84467  43.698  39.294   1.200
12043W        W84468  21.640   7.639   0.088
12044W        W84469  32.832  15.430  13.299
12045W        W84470  12.387  18.209   0.482
12046W        W84471   3.058   4.968   1.031
12047W        W84472  21.124  28.891   0.994
12048W        W84473  40.081   3.713   1.661
12049W        W84474   8.254  38.036   2.124
12050W        W84475   4.209   3.859  11.528
12051W        W84476  13.091  43.894  10.985
12052W        W84477   5.465  21.684   2.689
12053W        W84478  14.707  36.818   3.201
12054W        W84479   0.158  29.052   0.506
12055W        W84480   1.887  30.890   1.611
12056W        W84481   7.099  38.504  14.668
12057W        W84482  42.916   7.386   4.212
12058W        W84483   6.988  17.156  14.978
12059W        W84484  27.698  29.083   4.541
12060W        W84485  30.555  20.311   4.042
12061W        W84486  37.485  40.989   4.028
12062W        W84487  43.850  37.119  13.394
12063W        W84488   9.317  25.059   2.972
12064W        W84489   4.702  38.601   4.596
12065W        W84490  42.410  30.051   1.569
12066W        W84491  27.955  20.742  11.422
12067W        W84492  39.290  23.753   2.364
12068W        W84493   0.241  29.658  13.547
12069W        W84494   8.772  26.720   2.651
12070W        W84495  28.521  10.075   0.226
12071W        W84496  40.373   4.468   4.564
12072W        W84497  26.285  14.734   2.255
12073W        W84498  26.583  39.898  13.810
12074W        W84499  28.661  38.804  11.637
12075W        W84500  29.536  25.143   3.689
12076W        W84501  29.061  12.190  14.595
12077W        W84502   0.693  19.617  13.530
12078W        W84503  27.573   1.810   4.405
12079W        W84504   1.013  34.497   4.092
12080W        W84505   8.754  11.141   4.360
12081W        W84506  15.269  43.416   4.674
12082W        W84507  18.023  31.955   0.050
12083W        W84508  25.535  27.165   2.247
12084W        W84509  23.675  22.185  14.405
12085W        W84510  26.368  34.842   0.281
12086W        W84511  30.417  11.047   1.839
12087W        W84512   1.525   4.633  10.921
12088W        W84513  29.021  17.333  10.491
12089W        W84514  39.968  26.814   0.074
12090W        W84515  18.078  43.811   2.862
12091W        W84516  23.249  15.095  12.039
12092W        W84517  32.981  26.121   1.345
12093W        W84518  25.359  41.958   1.833
12094W        W84519  16.522  42.401  12.600
12095W        W84520  31.740  44.542  14.887
12096W        W84521  42.839   5.458   1.277
12097W        W84522  32.722  25.793   3.712
12098W        W84523  25.092  19.066  14.892
12099W        W84524  21.695  24.778  13.566
12100W        W84525  41.838  39.720  11.626
12101W        W84526  15.237  27.984   2.651
12102W        W84527  29.390  40.470  12.079
12103W        W84528  10.666  44.784   1.301
12104W        W84529  17.169  10.127   3.205
12105W        W84530  34.914   0.815  14.845
12106W        W84531  20.078   5.986  11.553
12107W        W84532  31.578  17.459   0.732
12108W        W84533  29.510  36.566  13.591
12109W        W84534  38.600  24.206  13.232
12110W        W84535  11.561   3.886   2.743
12111W        W84536  30.040  24.170  14.482
12112W        W84537   3.925  33.169   0.374
12113W        W84538  11.186  21.161  13.523
12114W        W84539   3.823  42.301  13.990
12115W        W84540  43.014  19.137   1.390
12116W        W84541   8.683  17.991  13.759
12117W        W84542  35.168  27.465   2.097
12118W        W84543  22.204  43.232  11.022
12119W        W84544  21.280  10.763  14.391
12120W        W84545  27.876  21.402   9.762
12121W        W84546  38.324   2.168  11.856
12122W        W84547  28.037  24.029   2.199
12123W        W84548  30.582  34.344   2.229
12124W        W84549  26.708  19.674   2.989
12125W        W84550  11.073  42.699   4.648
12126W        W84551   7.747  14.510   5.111
12127W        W84552  15.753   4.127   5.051
12128W        W84553  24.204  24.746   1.839
12129W        W84554  31.944  33.179  12.552
12130W        W84555   1.940   0.930  12.613
12131W        W84556   0.402  17.126  12.962
12132W        W84557  25.922  29.171   2.846
12133W        W84558  39.495  31.200   1.420
12134W        W84559  30.190  41.560   0.842
12135W        W84560  13.441   7.690  13.058
12136W        W84561  32.078  15.315   0.829
12137W        W84562   7.682  18.251  14.489
12138W        W84563  16.692   4.484  10.496
12139W        W84564  13.533  24.038   0.769
12140W        W84565   5.465  44.956  13.146
12141W        W84566  19.069  20.306  13.829
12142W        W84567  10.917  14.489  13.458
12143W        W84568   8.691  44.375   2.533
12144W        W84569  32.500  41.605  14.476
12145W        W84570  37.977  31.670   4.053
12146W        W84571  32.629   3.263   4.804
12147W        W84572  36.568  19.791   0.791
12148W        W84573  44.441  40.496  13.997
12149W        W84574   9.412   7.325   3.213
12150W        W84575  42.325   2.588   2.308
12151W        W84576  17.099  30.885  13.535
12152W        W84577  29.966  24.580   1.901
12153W        W84578   5.049  34.839   0.044
12154W        W84579  39.804  40.238  11.841
12155W        W84580  38.823  30.010  11.506
12156W        W84581  44.862  33.171  12.799
12157W        W84582  25.354  38.150   1.485
12158W        W84583  43.040  14.724   4.813
12159W        W84584   3.489  13.587   2.778
12160W        W84585   6.313  18.136  12.641
12161W        W84586  22.426  34.863   2.363
12162W        W84587  34.154  39.668  13.374
12163W        W84588   4.466  35.908   3.159
12164W        W84589  36.393  25.075   3.797
12165W        W84590  18.114  20.159  12.114
12166W        W84591   4.761  14.292  13.421
12167W        W84592  10.105  33.302   3.712
12168W        W84593  38.951  17.780  11.164
12169W        W84594  43.867  17.512  12.834
12170W        W84595  35.879  43.551  11.259
12171W        W84596  42.807  25.233   0.885
12172W        W84597  29.589  27.564  12.753
12173W        W84598  11.814  20.902   1.738
12174W        W84599  35.787  14.771  10.499
12175W        W84600  19.455  40.267  12.968
12176W        W84601  42.709   1.984  13.999
12177W        W84602  20.308  23.681   4.185
12178W        W84603  27.210   1.461  14.405
12179W        W84604  11.435  43.367   1.392
12180W        W84605  12.132  11.421   3.785
12181W        W84606  17.000   6.897  11.036
12182W        W84607  16.616  31.722   0.164
12183W        W84608  22.982  37.727  11.746
12184W        W84609  17.954  14.719  13.351
12185W        W84610   1.227   8.999   2.750
12186W        W84611  35.473  14.203  12.155
12187W        W84612  40.332  24.525   3.190
12188W        W84613  41.054   2.407   1.676
12189W        W84614  28.260  42.085   2.333
12190W        W84615  13.236  19.527  11.690
12191W        W84616  18.611   8.329   3.404
12192W        W84617  32.006  26.620  10.481
12193W        W84618   8.886  15.358  12.101
12194W        W84619  11.902   6.534  12.384
12195W        W84620  12.717  38.848   4.099
12196W        W84621  35.506  33.063  13.293
12197W        W84622  16.975  13.198   4.267
12198W        W84623   5.906  27.036   3.994
12199W        W84624  42.817  41.046   0.546
12200W        W84625   0.370  43.991   4.594
12201W        W84626  31.461  31.625  11.952
12202W        W84627  27.021   4.431  11.068
12203W        W84628  21.175  23.176  10.697
12204W        W84629  38.519  38.662  13.942
12205W        W84630   1.717  36.150  11.590
12206W        W84631  43.040  14.258   3.275
12207W        W84632  26.081  32.727   4.297
12208W        W84633  40.880  35.335  12.875
12209W        W84634  17.217  20.909  14.010
12210W        W84635  26.300   9.931  10.031
12211W        W84636  10.354   1.043  11.955
12212W        W84637  20.610  36.534  12.038
12213W        W84638   0.299  40.745   3.655
12214W        W84639  44.970  28.953   2.422
12215W        W84640   7.059  30.526   2.827
12216W        W84641  34.559  41.394   4.394
12217W        W84642  32.395   5.247   2.310
12218W        W84643  44.725  14.240   4.148
12219W        W84644   0.747   8.091  10.548
12220W        W84645  33.525   9.865  11.559
12221W        W84646  44.716  15.149  12.948
12222W        W84647   3.810   0.644   3.227
12223W        W84648  36.035  39.142   3.295
12224W        W84649   0.263  41.588  13.485
12225W        W84650  16.846  13.970   4.661
12226W        W84651  34.907  31.160   4.130
12227W        W84652  13.326   0.461   3.456
12228W        W84653  17.874  34.861   0.577
12229W        W84654  30.235  38.591  11.573
12230W        W84655  40.681  42.836  10.950
12231W        W84656  35.920  29.880  10.839
12232W        W84657  26.415  44.191  13.020
12233W        W84658  43.233  41.015  10.643
12234W        W84659  41.949  33.866   3.516
12235W        W84660  44.460   7.703  12.009
12236W        W84661  35.262  14.390  13.251
12237W        W84662   7.639   1.296   4.886
12238W        W84663  16.990  38.009  11.085
12239W        W84664  21.759  14.341  14.251
12240W        W84665   0.797  35.989   4.980
12241W        W84666  23.585   3.055  10.677
12242W        W84667  40.482   3.043   1.606
12243W        W84668  22.972  23.879   1.874
12244W        W84669  29.870   5.829   2.270
12245W        W84670  27.688   4.754   1.431
12246W        W84671  18.084  13.899   0.312
12247W        W84672  21.225  22.618   1.614
12248W        W84673  16.019  22.100  11.857
12249W        W84674   1.401   8.923   2.234
12250W        W84675  22.426  30.986  12.499
12251W        W84676   1.842  29.615   4.061
12252W        W84677   4.431  17.100  13.469
12253W        W84678   9.998  23.997   0.803
12254W        W84679   4.910  20.019   4.660
12255W        W84680   6.360   8.466  11.474
12256W        W84681  30.228   0.310  13.895
12257W        W84682   3.797  20.171   3.056
12258W        W84683  21.532  28.951  13.863
12259W        W84684   8.394  40.474   0.899
12260W        W84685  27.699   6.175  12.260
12261W        W84686  36.831  22.148   4.581
12262W        W84687  24.491  16.682  10.792
12263W        W84688   1.948   3.926  14.369
12264W        W84689  14.814  25.528   3.858
12265W        W84690  11.612  33.669   4.987
12266W        W84691  13.218  24.127   1.199
12267W        W84692  25.379  29.885   1.845
12268W        W84693  17.906  44.476  13.886
12269W        W84694  16.753  18.627  14.529
12270W        W84695  17.805  25.935  10.583
12271W        W84696  10.968  35.305  14.037
12272W        W84697   9.913   7.683   1.848
12273W        W84698   9.264   7.955   2.726
12274W        W84699  44.877   7.168  10.576
12275W        W84700  12.325   3.243   4.537
12276W        W84701  36.368  10.149   0.788
12277W        W84702   6.381  31.662  13.898
12278W        W84703  43.078  38.324  11.212
12279W        W84704  19.801   8.455  12.969
12280W        W84705  41.282  28.161   2.745
12281W        W84706  35.442  20.819  14.430
12282W        W84707  35.496  38.818  12.372
12283W        W84708  43.975  21.517  13.434
12284W        W84709  32.497   5.582   1.348
12285W        W84710  41.264  22.891   0.339
12286W        W84711  32.412  41.229   3.236
12287W        W84712  31.439  37.631   1.227
12288W        W84713  17.912  41.459   0.844
12289W        W84714  36.414   5.816   5.309
12290W        W84715  24.747  28.268   2.459
12291W        W84716  21.923  37.463  10.950
12292W        W84717  19.171  15.986   3.181
12293W        W84718  44.206   8.092   2.688
12294W        W84719  17.781  40.290   1.394
12295W        W84720  42.749  21.707   0.778
12296W        W84721  34.815  35.342   2.321
12297W        W84722  42.386  11.602   4.474
12298W        W84723  44.723  27.578  10.473
12299W        W84724  30.878  15.169  13.989
12300W        W84725  33.046  29.666   1.867
12301W        W84726  22.786  21.282  10.894
12302W        W84727  31.253  25.520  13.386
12303W        W84728  24.199  36.392   4.334
12304W        W84729  27.195  36.409  14.332
12305W        W84730  33.149  14.043   2.708
12306W        W84731  35.109  38.095   4.050
12307W        W84732  42.287  11.688   0.475
12308W        W84733   6.929  29.620   1.853
12309W        W84734   9.368  10.846   0.051
12310W        W84735   3.849  31.407  14.841
12311W        W84736  43.175   0.291  14.932
12312W        W84737  23.546   9.185   2.127
12313W        W84738   2.338  10.833   0.020
12314W        W84739  24.679  40.879  12.562
12315W        W84740  26.101  18.395  12.323
12316W        W84741  44.535  27.445  11.819
12317W        W84742  21.532   2.475   2.772
12318W        W84743  32.258   3.451  10.784
12319W        W84744  39.505  35.631  13.001
12320W        W84745  19.794  32.563   1.957
12321W        W84746  41.641  40.717   3.601
12322W        W84747  32.589  29.665  13.118
12323W        W84748   2.769  15.161  11.279
12324W        W84749  25.066  23.326  12.018
12325W        W84750   4.697   0.799   2.296
12326W        W84751  30.867  40.516   5.054
12327W        W84752  38.320  21.684  13.901
12328W        W84753   8.390  17.431   1.363
12329W        W84754  21.486  24.212   0.615
12330W        W84755  12.767  34.952  14.434
12331W        W84756   9.117  12.100   4.552
12332W        W84757  44.489  30.636   5.069
12333W        W84758  13.383  16.745  14.423
12334W        W84759  20.530  26.195  11.639
12335W        W84760  22.274  28.418   0.853
12336W        W84761  18.564  23.459   4.587
12337W        W84762  42.441  41.323  10.958
12338W        W84763   4.900  10.870  13.051
12339W        W84764   4.317  26.884  12.878
12340W        W84765  33.618  36.275   4.166
12341W        W84766  30.425  42.918   4.604
12342W        W84767  41.193   6.094  11.103
12343W        W84768  22.206  13.254   1.123
12344W        W84769   8.355  35.628  13.763
12345W        W84770   3.362   0.038   2.787
12346W        W84771   2.809  44.922   4.605
12347W        W84772  28.245   0.832   4.121
12348W        W84773   9.695  44.228   1.369
12349W        W84774  35.479  26.248  14.274
12350W        W84775  20.176  38.133  14.509
12351W        W84776  10.583   9.403  10.493
12352W        W84777   6.283  37.902   4.920
12353W        W84778  41.846  28.591  12.153
12354W        W84779  36.087   1.395   0.521
12355W        W84780  44.809  36.279   4.143
12356W        W84781  42.835  27.626  11.825
12357W        W84782  29.569  24.358  11.028
12358W        W84783   1.655   4.273  14.775
12359W        W84784  18.235   3.798   1.479
12360W        W84785  43.037  11.617   0.838
12361W        W84786  28.440   3.912  11.171
12362W        W84787  36.972   9.879   0.324
12363W        W84788   7.182  12.441  12.915
12364W        W84789   3.297  43.551  12.847
12365W        W84790  26.123   7.410   4.264
12366W        W84791   4.520  43.533   2.381
12367W        W84792  15.377  16.077  13.436
12368W        W84793  27.563  20.820  14.338
12369W        W84794  30.803  26.619  12.216
12370W        W84795   3.492  20.636  11.133
12371W        W84796  17.241  27.123  13.105
12372W        W84797  10.090   9.924   2.814
12373W        W84798   3.602   1.248   2.419
12374W        W84799  19.556  34.345   4.868
12375W        W84800   4.199  11.370   3.862
12376W        W84801  22.557  15.903   1.663
12377W        W84802   3.277   9.401   0.011
12378W        W84803  36.305  14.221   4.532
12379W        W84804  17.521  40.552  14.008
12380W        W84805  33.446  19.858   0.829
12381W        W84806  42.964  28.137   4.171
12382W        W84807   6.508  38.144   4.317
12383W        W84808  32.680  32.170  11.069
12384W        W84809  20.622  35.146  12.581
12385W        W84810  42.113  28.620   0.044
12386W        W84811  20.161   8.397  12.482
12387W        W84812   8.410  21.191  12.487
12388W        W84813  13.858  20.955  10.663
12389W        W84814   3.293   5.342   4.549
12390W        W84815   8.039  41.335   4.260
12391W        W84816  30.203   9.794   1.245
12392W        W84817  25.181  16.237  12.429
12393W        W84818   3.007  21.533   0.841
12394W        W84819  12.474  20.964  13.522
12395W        W84820   7.894  22.052   1.864
12396W        W84821  17.662  16.765   0.301
12397W        W84822  25.571  17.044   2.772
12398W        W84823  19.762  14.704   3.328
12399W        W84824  29.800  13.000  12.298
12400W        W84825   3.856  26.867  14.084
12401W        W84826  44.502   1.010  12.020
12402W        W84827  19.572   0.017  11.845
12403W        W84828   8.343  27.004   3.134
12404W        W84829  20.636  12.991  13.951
12405W        W84830  21.060  10.722   1.245
12406W        W84831  35.835  28.491   4.622
12407W        W84832  22.333  15.138  12.286
12408W        W84833  17.597  10.709   2.737
12409W        W84834   9.164  13.782   4.334
12410W        W84835  11.621   1.484   1.707
12411W        W84836  22.699  22.786  12.909
12412W        W84837  16.168  25.881  12.399
12413W        W84838  18.581  43.596  12.082
12414W        W84839  43.796   4.573   0.367
12415W        W84840  14.362  24.001  10.115
12416W        W84841  43.919  22.544   4.911
12417W        W84842   2.397  36.616  12.115
12418W        W84843  22.320  27.508  14.943
12419W        W84844  41.570  10.284  11.161
12420W        W84845  12.065  44.786  13.763
12421W        W84846  28.547  20.223  14.131
12422W        W84847  22.112  32.041  10.787
12423W        W84848  37.976  31.533  11.846
12424W        W84849  33.232  32.081  14.843
12425W        W84850   7.669  39.827  12.901
12426W        W84851  13.286  26.432  13.921
12427W        W84852   1.529  27.599  12.948
12428W        W84853   3.908   6.102   3.151
12429W        W84854  12.852  42.794   4.082
12430W        W84855  40.837   3.313  13.910
12431W        W84856  30.051  14.600   1.782
12432W        W84857  32.587  40.227   0.051
12433W        W84858   2.648  21.539  12.905
12434W        W84859   8.710  25.104   4.647
12435W        W84860  15.706  16.569  10.603
12436W        W84861  19.318  40.828   4.113
12437W        W84862   7.560  16.801   0.208
12438W        W84863   1.302  35.839   4.193
12439W        W84864  21.804  19.765  12.778
12440W        W84865  39.671   8.515  13.016
12441W        W84866  30.529  20.965  11.447
12442W        W84867  16.230  13.326   0.428
12443W        W84868  42.727  17.368  13.478
12444W        W84869  38.979  19.363  13.435
12445W        W84870  20.265   3.282   0.237
12446W        W84871  40.534  24.082   5.073
12447W        W84872   2.879  23.843   4.769
12448W        W84873  31.417   7.547   3.768
12449W        W84874  21.273  36.881   3.642
12450W        W84875  27.136  38.435   3.439
12451W        W84876  21.918  32.137  14.141
12452W        W84877  40.444  41.745  13.533
12453W        W84878  32.361  22.183  10.750
12454W        W84879   9.189  15.047  11.543
12455W        W84880  10.434  22.474   4.232
12456W        W84881   3.681  32.521  14.538
12457W        W84882  37.400  40.505  13.761
12458W        W84883  19.593  31.735   1.878
12459W        W84884  21.228   6.875   1.803
12460W        W84885  23.545  40.238   2.740
12461W        W84886  29.181   7.451  13.981
12462W        W84887  29.466   5.437  13.777
12463W        W84888  29.416  18.277   1.855
12464W        W84889   3.320   5.904   2.401
12465W        W84890  43.850  23.529  13.520
12466W        W84891  15.847  43.516   1.154
12467W        W84892  13.621  14.215   2.739
12468W        W84893  30.385  36.350  12.038
12469W        W84894  11.570  34.463   1.656
12470W        W84895  41.979   8.307  13.503
12471W        W84896  37.056  32.381   0.896
12472W        W84897  14.032  19.912   2.176
12473W        W84898  42.898  32.719   4.624
12474W        W84899   4.378   8.799   0.310
12475W        W84900  30.480  44.921  12.906
12476W        W84901  23.056  20.347  11.892
12477W        W84902  25.063  28.031   0.809
12478W        W84903  16.611   2.370  14.504
12479W        W84904  16.791  32.570   0.166
12480W        W84905  19.173   8.014  12.435
12481W        W84906   8.183  26.431  12.117
12482W        W84907   6.120  15.574  14.933
12483W        W84908  38.332  12.679  13.052
12484W        W84909  31.660  20.397  13.454
12485W        W84910  35.292   4.508  12.548
12486W        W84911  22.955   6.186  12.463
12487W        W84912  36.301  19.812  14.295
12488W        W84913  41.271  27.614   4.607
12489W        W84914  19.131  43.121  14.836
12490W        W84915  14.101  25.511  13.975
12491W        W84916  11.279  28.025  14.474
12492W        W84917   9.190  27.406   2.382
12493W        W84918   7.227   7.996  12.080
12494W        W84919  31.183  25.504   3.622
12495W        W84920  18.059  12.259   4.685
12496W        W84921  12.148  25.144   5.256
12497W        W84922  43.509  28.726   3.756
12498W        W84923  44.908  11.306   3.885
12499W        W84924   0.119   2.990   1.304
12500W        W84925   5.394   5.420  13.823
12501W        W84926  42.060  18.788  14.089
12502W        W84927  33.714  21.054   3.229
12503W        W84928  27.942  38.822   5.020
12504W        W84929   7.743  44.595   0.354
12505W        W84930   2.823  15.168  14.915
12506W        W84931   9.346  37.575  11.611
12507W        W84932  21.963  16.285   3.719
12508W        W84933  11.565  38.247  12.057
12509W        W84934  34.077  26.987   0.905
12510W        W84935   8.624  11.858   3.749
12511W        W84936  34.206  22.485  14.898
12512W        W84937  14.133  39.916   1.547
12513W        W84938  11.667   4.711  11.663
12514W        W84939  24.645  30.202   4.502
12515W        W84940  11.315  22.492   2.333
12516W        W84941   4.153  20.445   2.189
12517W        W84942   7.569  12.849  12.230
12518W        W84943  42.387  26.002   1.537
12519W        W84944  16.640  14.399   4.926
12520W        W84945  25.008   5.970   2.539
12521W        W84946  36.302  35.118   1.746
12522W        W84947  28.070  35.936  12.899
12523W        W84948  37.902  28.359   3.704
12524W        W84949  16.259   2.314  13.074
12525W        W84950  28.427  29.107  11.441
12526W        W84951  10.814  17.132   0.054
12527W        W84952  10.310  20.047  12.520
12528W        W84953  15.400  15.248   1.281
12529W        W84954  27.011  27.625   3.191
12530W        W84955  28.948  24.517   2.441
12531W        W84956  16.740  10.125  13.792
12532W        W84957   6.808  40.827  14.118
12533W        W84958  13.046   3.425  13.408
12534W        W84959  18.420  28.662  10.774
12535W        W84960  36.403  42.624   1.253
12536W        W84961  16.435  25.086   4.644
12537W        W84962  36.235  24.299   3.371
12538W        W84963  27.206  21.528  13.786
12539W        W84964  19.785  10.595  12.994
12540W        W84965  20.705   2.811  11.755
12541W        W84966  34.564  20.826   4.652
12542W        W84967  11.116  10.231   4.396
12543W        W84968  41.940  31.159  12.052
12544W        W84969  21.937  19.500  11.659
12545W        W84970   7.219  19.398   1.217
12546W        W84971  16.092   8.748   3.741
12547W        W84972  26.686  12.210  11.631
12548W        W84973   9.559  23.262   1.819
12549W        W84974  13.096  27.936   2.409
12550W        W84975  16.567   5.251   1.921
12551W        W84976  36.013  44.345   4.531
12552W        W84977  28.176  24.979   3.830
12553W        W84978  39.790  39.017   4.551
12554W        W84979  43.332   4.333   1.745
12555W        W84980  11.205  39.378  12.995
12556W        W84981  27.434  34.125  14.772
12557W        W84982  34.363  31.947  12.484
12558W        W84983  38.850  22.922   4.084
12559W        W84984  27.147  13.589   3.229
12560W        W84985  38.435  39.248   4.588
12561W        W84986  11.602  38.334   4.449
12562W        W84987   5.455   5.314   2.245
12563W        W84988  31.130  29.059  14.485
12564W        W84989  25.194  42.005  14.010
12565W        W84990  35.948   7.309  10.876
12566W        W84991   6.709  29.027   2.520
12567W        W84992   4.122  20.226  12.044
12568W        W84993  33.838  21.806  11.930
12569W        W84994   5.216  11.538   0.035
12570W        W84995  40.444  18.780  10.515
12571W        W84996  19.085  13.497   1.524
12572W        W84997   2.486  23.060   1.382
12573W        W84998  25.152  23.476   3.326
12574W        W84999  34.852  35.854   2.408
12575W        W85000   3.997  32.225  14.243
12576W        W85001  41.364  22.673   4.631
12577W        W85002  17.571  19.197  10.596
12578W        W85003  39.594  26.193  13.865
12579W        W85004  21.539  15.654  10.302
12580W        W85005  31.410  13.360  13.731
12581W        W85006  29.192  21.663   4.604
12582W        W85007  35.984  41.595   3.136
12583W        W85008  34.445  19.626  11.897
12584W        W85009  29.515  14.925   4.076
12585W        W85010  28.662   4.846   3.810
12586W        W85011  10.356  27.614  12.849
12587W        W85012  26.679  35.317  13.896
12588W        W85013  44.703  22.761  10.608
12589W        W85014  19.489  14.877   1.495
12590W        W85015   7.846  24.700  14.854
12591W        W85016  31.896  41.262   3.132
12592W        W85017   7.418   3.667   4.669
12593W        W85018  34.968  23.063  14.755
12594W        W85019  13.182  26.977   2.783
12595W        W85020   4.865  17.736   3.618
12596W        W85021  22.123  24.657  13.865
12597W        W85022   1.964   7.073  12.026
12598W        W85023  40.830  27.750  12.571
12599W        W85024   2.567  16.398  12.889
12600W        W85025  30.879  11.285  10.775
12601W        W85026  11.769  39.773  11.429
12602W        W85027  43.318  19.188  12.482
12603W        W85028  25.636  39.202  10.251
12604W        W85029  39.635  29.397   3.676
12605W        W85030   1.332  15.311   1.975
12606W        W85031  19.763  39.487   3.047
12607W        W85032  30.010  39.436  14.806
12608W        W85033  43.104  21.572  12.395
12609W        W85034  33.909  26.911   4.795
12610W        W85035  39.122   2.389   0.102
12611W        W85036  10.009  30.072  12.242
12612W        W85037  20.165  19.753  12.700
12613W        W85038   8.693  24.613   2.536
12614W        W85039  18.195  36.461   4.410
12615W        W85040   2.605   6.851   1.724
12616W        W85041  18.168   0.860  14.143
12617W        W85042  26.532  11.729  12.978
12618W        W85043  17.159   0.686  10.446
12619W        W85044  12.343  31.447   2.386
12620W        W85045  27.476   3.418  10.636
12621W        W85046   4.387  27.743  11.528
12622W        W85047  27.058  24.497   3.288
12623W        W85048  18.143  10.750  12.827
12624W        W85049  12.797  25.127   2.174
12625W        W85050   3.174   1.723  12.926
12626W        W85051  16.323  14.233   3.100
12627W        W85052  42.812   7.827   3.334
12628W        W85053  29.336  38.483   0.371
12629W        W85054  11.235   7.388   2.382
12630W        W85055   9.191  39.069  12.480
12631W        W85056   1.291  29.476   4.145
12632W        W85057  27.509   7.364  12.445
12633W        W85058   7.450  42.761  14.218
12634W        W85059  26.433  37.983  10.685
12635W        W85060  39.007  29.118  12.333
12636W        W85061   3.913  34.519  14.073
12637W        W85062  41.028   2.995  10.687
12638W        W85063  18.086  13.174  14.047
12639W        W85064  42.319  25.510   0.801
12640W        W85065  25.223   5.784  13.780
12641W        W85066  19.749  41.664   3.335
12642W        W85067   4.445   9.444   2.189
12643W        W85068  37.504  11.846  14.940
12644W        W85069  26.182  30.318   1.302
12645W        W85070  17.570  14.745  14.238
12646W        W85071  14.652   7.326   2.247
12647W        W85072  36.000  38.529  14.224
12648W        W85073  44.797  37.521   1.523
12649W        W85074  37.349   1.766  10.707
12650W        W85075  27.714   1.590  12.962
12651W        W85076  22.557  30.839   3.652
12652W        W85077   7.492  11.401  13.403
12653W        W85078  13.612   9.363  10.645
12654W        W85079   3.153  17.468   3.810
12655W        W85080   1.961  29.163  14.960
12656W        W85081  32.564  22.021   2.640
12657W        W85082  36.307  31.992   4.681
12658W        W85083   7.177  44.650  14.798
12659W        W85084  11.906  25.468   4.515
12660W        W85085  34.112  10.648  12.535
12661W        W85086   4.804  24.687   3.773
12662W        W85087  18.371  36.717  13.535
12663W        W85088  24.974  15.819  14.124
12664W        W85089  34.369   1.048  12.468
12665W        W85090  16.104  22.494   2.931
12666W        W85091  18.107   2.689  13.808
12667W        W85092  28.611  13.107  13.900
12668W        W85093  14.168   2.066  13.848
12669W        W85094   3.092   9.628   3.537
12670W        W85095  24.238   2.703  11.625
12671W        W85096  38.580   8.304   2.367
12672W        W85097  32.481  37.193   4.470
12673W        W85098  35.590  27.002   0.856
12674W        W85099  23.796  39.336  13.423
12675W        W85100  34.832  27.216   1.801
12676W        W85101  38.543  29.982  11.080
12677W        W85102  22.899   8.600  12.411
12678W        W85103  17.670  14.866   4.850
12679W        W85104   9.038  23.639  12.843
12680W        W85105   2.495  28.956   0.888
12681W        W85106  27.491  20.214  13.047
12682W        W85107  14.827  41.314  11.996
12683W        W85108  19.569  23.025  11.487
12684W        W85109  27.602  19.233  13.083
12685W        W85110  20.799  10.887  12.986
12686W        W85111   4.503   7.842  12.994
12687W        W85112   8.633   9.744  13.569
12688W        W85113   1.175  14.397  10.836
12689W        W85114  22.764  13.779  13.368
12690W        W85115   1.114  23.964  10.738
12691W        W85116  25.067  29.175   4.264
12692W        W85117   5.397   0.566  12.098
12693W        W85118   9.818  13.607   2.400
12694W        W85119  23.603   0.477  11.954
12695W        W85120  26.101   8.126  13.426
12696W        W85121  12.247   2.473  10.548
12697W        W85122  32.307  28.713   4.544
12698W        W85123  41.519  40.541  11.440
12699W        W85124   8.656   4.307   2.188
12700W        W85125  25.389  32.408   2.375
12701W        W85126  21.709  14.878   1.593
12702W        W85127  40.077   5.401  12.387
12703W        W85128   8.338  37.609   4.198
12704W        W85129  21.093  28.942   1.946
12705W        W85130  34.366  31.560  11.165
12706W        W85131  23.232  19.179  10.504
12707W        W85132  27.504  23.073   9.776
12708W        W85133  36.914  39.003  14.344
12709W        W85134   4.917  44.927  14.026
12710W        W85135   6.884  37.451   0.720
12711W        W85136  15.263  36.619   2.435
12712W        W85137  17.742  32.373  11.934
12713W        W85138  40.335  28.243  13.487
12714W        W85139  32.593  10.432   0.835
12715W        W85140  33.510   1.711   0.631
12716W        W85141  35.423  21.060   2.332
12717W        W85142  37.394  23.046   4.560
12718W        W85143  34.304  17.146  14.859
12719W        W85144  14.902   1.998   5.476
12720W        W85145  15.465   9.358   1.668
12721W        W85146  10.789  44.426  11.577
12722W        W85147  22.698  15.188   2.272
12723W        W85148   4.384  26.800   3.365
12724W        W85149  12.739  20.783   0.810
12725W        W85150  30.711  33.361  12.144
12726W        W85151   2.528  34.736  10.991
12727W        W85152  13.625  18.282  11.811
12728W        W85153  43.736  16.029   0.725
12729W        W85154  32.256  20.053  12.903
12730W        W85155  19.930   4.517  10.939
12731W        W85156   9.755  22.800   1.232
12732W        W85157  43.639  12.455   9.973
12733W        W85158  43.836  43.885   3.751
12734W        W85159   4.486   2.644  11.474
12735W        W85160  10.814   9.745  14.423
12736W        W85161  29.515   1.434   3.691
12737W        W85162   0.828  36.935   4.060
12738W        W85163  24.187  33.530   0.944
12739W        W85164  12.135  30.147  13.469
12740W        W85165  38.743   1.786  12.879
12741W        W85166  34.587  12.054  14.003
12742W        W85167  34.090  16.902   1.294
12743W        W85168  33.697  41.868  13.294
12744W        W85169   3.993  43.357  10.573
12745W        W85170  12.655   2.438  13.578
12746W        W85171   6.763   6.000  12.359
12747W        W85172  28.260  17.480  14.904
12748W        W85173  19.421   0.264   0.375
12749W        W85174  33.004  37.926   4.706
12750W        W85175  41.765  37.112  12.660
12751W        W85176   0.350  43.471   3.880
12752W        W85177  23.139  18.045   2.207
12753W        W85178  44.449   6.787  11.170
12754W        W85179  26.506  32.644  14.872
12755W        W85180  28.013  18.244  11.865
12756W        W85181  28.935  23.045  11.946
12757W        W85182  28.054  14.912  10.093
12758W        W85183  28.578  27.265  14.861
12759W        W85184  25.890  39.438  13.960
12760W        W85185   0.440  32.390  13.148
12761W        W85186  28.146  18.274  13.920
12762W        W85187  21.041  16.212   4.369
12763W        W85188  23.602  44.557   1.206
12764W        W85189   1.372  10.387  13.372
12765W        W85190  22.608  21.236   2.004
12766W        W85191   7.603  14.181   1.444
12767W        W85192  15.710  19.761   1.881
12768W        W85193  39.959   2.400   0.038
12769W        W85194  30.663  41.300   0.924
12770W        W85195   1.992  14.029  11.179
12771W        W85196  41.768   4.921   4.145
12772W        W85197  15.357  38.077   4.104
12773W        W85198  36.022  19.828   3.393
12774W        W85199  31.949   3.883  11.167
12775W        W85200  17.516  11.648   2.743
12776W        W85201  11.348  15.261  14.425
12777W        W85202  32.908  20.520   3.241
12778W        W85203  24.026   4.207  12.734
12779W        W85204  12.955  14.016   4.148
12780W        W85205   9.169  32.196  14.906
12781W        W85206  43.774  31.369  11.062
12782W        W85207   7.194  22.345   1.356
12783W        W85208  27.072  39.283   1.268
12784W        W85209  18.988  43.487  14.503
12785W        W85210  10.825  44.548   2.799
12786W        W85211  27.034  40.047  11.920
12787W        W85212  35.799  32.636  13.390
12788W        W85213  31.378  19.819  12.572
12789W        W85214  18.144   8.346   2.308
12790W        W85215  23.237  21.276  10.685
12791W        W85216  20.741  44.374   1.018
12792W        W85217  21.203  36.941  11.717
12793W        W85218  21.858  23.879   4.187
12794W        W85219  29.885  28.122   2.696
12795W        W85220  31.698  24.558   1.364
12796W        W85221  37.980  22.203  14.888
12797W        W85222   3.855  23.160  11.397
12798W        W85223  44.448  32.399   4.623
12799W        W85224  10.441  23.365  11.856
12800W        W85225  32.110   8.717  12.430
12801W        W85226  33.807   7.329  10.547
12802W        W85227  32.749   1.544   2.230
12803W        W85228  29.393  42.785   3.626
12804W        W85229  34.628  33.627  14.039
12805W        W85230   4.659   9.350  11.347
12806W        W85231  24.158  20.519  12.000
12807W        W85232  13.347  34.394  11.400
12808W        W85233  34.055  17.552  14.660
12809W        W85234  33.833   6.192   1.804
12810W        W85235   6.691  38.611   4.148
12811W        W85236  38.896  24.904   0.215
12812W        W85237   9.647  41.974   2.920
12813W        W85238   2.383  42.833   3.585
12814W        W85239   8.199  18.439   1.451
12815W        W85240  27.608  32.751  14.010
12816W        W85241  20.061  44.297  12.341
12817W        W85242  31.824   8.125   4.958
12818W        W85243  29.482  24.756   1.769
12819W        W85244  27.629  23.780   0.566
12820W        W85245   3.353  18.042   3.659
12821W        W85246  26.259   6.293   1.965
12822W        W85247  11.413  14.683   2.414
12823W        W85248   8.851  32.505   2.653
12824W        W85249  37.797   9.487   2.719
12825W        W85250   7.960   1.302   3.712
12826W        W85251  23.817  28.117   1.491
12827W        W85252  37.407  36.821  14.443
12828W        W85253  15.178  30.896  11.217
12829W        W85254  25.212  36.011  12.023
12830W        W85255   0.427  37.865   2.624
12831W        W85256  40.964   5.694   4.630
12832W        W85257  14.289  41.609   3.876
12833W        W85258   4.650  23.576  14.359
12834W        W85259   7.322  20.076   3.875
12835W        W85260  43.354   5.259   4.752
12836W        W85261   9.790  40.739   2.895
12837W        W85262  19.283  33.969  10.606
12838W        W85263  23.191  33.388  12.951
12839W        W85264   2.782  16.882  12.882
12840W        W85265  21.637  31.814   1.722
12841W        W85266  41.206  28.785   0.695
12842W        W85267  32.604   4.384  14.449
12843W        W85268  25.720  28.153  11.480
12844W        W85269   5.128  18.718   5.087
12845W        W85270   4.267  28.451   2.245
12846W        W85271  23.560  26.250  11.864
12847W        W85272  41.839  40.838   1.794
12848W        W85273  32.134  29.214  14.522
12849W        W85274  10.333  21.292  13.553
12850W        W85275   0.772  12.619   4.815
12851W        W85276  12.373   1.860  10.119
12852W        W85277   0.537  27.022  14.318
12853W        W85278  15.756   9.891  13.085
12854W        W85279  44.906  19.075  13.403
12855W        W85280  22.751  14.431  14.213
12856W        W85281  38.479  34.957   0.502
12857W        W85282  33.343   9.832   0.461
12858W        W85283   2.265  34.907  11.377
12859W        W85284   9.725  34.488   1.961
12860W        W85285  10.609  30.633  10.098
12861W        W85286   2.612  19.203   1.692
12862W        W85287  22.414  25.123   0.320
12863W        W85288  35.055  31.620  10.584
12864W        W85289  14.225  35.642   4.613
12865W        W85290  43.825  38.630   0.285
12866W        W85291  25.113  12.762   0.931
12867W        W85292  27.516  28.547   2.939
12868W        W85293   9.918  25.058   0.672
12869W        W85294  39.759  34.512  13.321
12870W        W85295  21.630  39.351   1.216
12871W        W85296  26.427  13.787   4.511
12872W        W85297   4.503  35.007   4.599
12873W        W85298   6.052   6.146  12.133
12874W        W85299  42.491  12.623   3.197
12875W        W85300  40.832  41.933  13.824
12876W        W85301  44.240  31.160   1.175
12877W        W85302  11.459   7.776   2.736
12878W        W85303  36.544  14.264  14.958
12879W        W85304   5.936  40.534  13.706
12880W        W85305  27.193   2.257  11.588
12881W        W85306  30.623  25.559   3.634
12882W        W85307   3.708  40.952   2.669
12883W        W85308  20.160  21.303  14.836
12884W        W85309  44.228  39.492   2.310
12885W        W85310   1.508  30.553  14.513
12886W        W85311  11.101   0.516  13.208
12887W        W85312  14.192  12.369  14.727
12888W        W85313  39.299  32.940   0.572
12889W        W85314   9.772  23.260   0.380
12890W        W85315   7.743   5.726   3.449
12891W        W85316  17.565  14.136   3.185
12892W        W85317   7.780   7.370  14.840
12893W        W85318  24.893  43.904  13.852
12894W        W85319  22.807  16.349   1.705
12895W        W85320  13.960  11.802   1.868
12896W        W85321  20.911  31.409   2.569
12897W        W85322  12.177  10.965   1.131
12898W        W85323  24.543   3.465   3.169
12899W        W85324   8.296  32.489   3.232
12900W        W85325  19.669  18.244   0.349
12901W        W85326  27.502  35.579  13.402
12902W        W85327  30.434  21.617   3.187
12903W        W85328  31.153   5.326   0.973
12904W        W85329  34.483  33.976   3.775
12905W        W85330  28.954  38.291   4.515
12906W        W85331  25.567   7.620   1.329
12907W        W85332  19.935   2.820  14.575
12908W        W85333  32.455  23.568  12.463
12909W        W85334  33.648  38.503   4.098
12910W        W85335  38.762   4.344  14.906
12911W        W85336  12.744  26.976   1.341
12912W        W85337  41.969  23.243  14.425
12913W        W85338  35.570  42.037   0.432
12914W        W85339  25.607  37.979  12.971
12915W        W85340  34.214  11.151  13.104
12916W        W85341  16.295  28.048  13.963
12917W        W85342  24.397  20.890  14.969
12918W        W85343  41.106  41.478   0.888
12919W        W85344   2.551  21.517   4.501
12920W        W85345  20.629  11.773   4.022
12921W        W85346   4.856  38.594   2.263
12922W        W85347  25.642  10.743   4.383
12923W        W85348  15.637   5.458  11.847
12924W        W85349  12.768  11.637  14.576
12925W        W85350  12.686  35.358  10.651
12926W        W85351  31.207  40.365   2.552
12927W        W85352  28.196  18.275   1.254
12928W        W85353   1.228  37.346   4.070
12929W        W85354  37.800  32.728  14.492
12930W        W85355  25.241  16.708  13.528
12931W        W85356   1.410   9.010  13.843
12932W        W85357   7.703  16.634  11.120
12933W        W85358  43.522  35.529  10.990
12934W        W85359   0.363  15.618  14.874
12935W        W85360  23.912  29.371  11.763
12936W        W85361  37.340  39.257  11.250
12937W        W85362  14.135   4.369  14.670
12938W        W85363  41.673  29.621   4.569
12939W        W85364  34.506   8.725  14.938
12940W        W85365  14.599  37.155  13.797
12941W        W85366  18.789   2.544   3.377
12942W        W85367  28.543  38.950  14.421
12943W        W85368  27.187   4.363   1.221
12944W        W85369  18.380   2.780  12.545
12945W        W85370  43.386  34.410   1.875
12946W        W85371  19.861  10.939   4.988
12947W        W85372  28.023   1.721  12.569
12948W        W85373  29.247  14.253   1.943
12949W        W85374  34.302  26.605   1.292
12950W        W85375  27.480  32.490   0.746
12951W        W85376  40.479  34.869  13.932
12952W        W85377  20.991  23.954   3.726
12953W        W85378   8.110  23.221  11.228
12954W        W85379  44.357  18.597   1.354
12955W        W85380   9.758  31.487   3.875
12956W        W85381  21.687  29.469   3.115
12957W        W85382   6.456   5.890   3.217
12958W        W85383  21.514  22.015  13.065
12959W        W85384  11.997  18.353   2.866
12960W        W85385  22.979  33.652  14.436
12961W        W85386  11.239  11.732  13.744
12962W        W85387  34.116  29.679  10.796
12963W        W85388  19.188  22.324   4.660
12964W        W85389  39.081  39.812   2.249
12965W        W85390   1.423  18.103   4.219
12966W        W85391  36.613   9.197  13.049
12967W        W85392  25.670  22.529   1.466
12968W        W85393  32.402  17.789   0.175
12969W        W85394   6.710  38.406  10.523
12970W        W85395   9.704  42.088  10.583
12971W        W85396  41.552   5.324  14.352
12972W        W85397  41.566  21.921  12.326
12973W        W85398   5.410  24.081  11.943
12974W        W85399  21.727  42.364   0.286
12975W        W85400  36.637  33.008   3.610
12976W        W85401   0.479  12.166  14.975
12977W        W85402  28.116  17.224   0.353
12978W        W85403   6.975  39.414   4.672
12979W        W85404  37.987   2.972   3.770
12980W        W85405   9.625  11.941  13.961
12981W        W85406  13.578  12.052   2.160
12982W        W85407   4.458  40.375   4.330
12983W        W85408  42.568  12.025  15.000
12984W        W85409  20.714  34.144  10.407
12985W        W85410   0.847  15.237   0.257
12986W        W85411   3.028  13.088   3.192
12987W        W85412   5.247  37.268  14.162
12988W        W85413   6.667  39.797  10.624
12989W        W85414   8.852  13.087  13.802
12990W        W85415   3.501  17.145  13.059
12991W        W85416  35.833  44.563  10.741
12992W        W85417  19.282  16.664   4.099
12993W        W85418  17.772  20.172   0.978
12994W        W85419   2.654   4.363  14.537
12995W        W85420  32.012  30.485   3.103
12996W        W85421  11.332   0.273   3.240
12997W        W85422  17.795   3.010  10.994
12998W        W85423   8.900  32.355   1.009
12999W        W85424   2.680  32.483   3.982
13000W        W85425  38.779  19.218   3.619
13001W        W85426  36.926  34.133   4.092
13002W        W85427  40.890  23.954   2.845
13003W        W85428  26.191  17.577   4.528
13004W        W85429  20.217  26.370   3.629
13005W        W85430  38.842  29.449   4.120
13006W        W85431   4.956  38.374  11.920
13007W        W85432   5.110   7.795  13.624
13008W        W85433  28.761  36.313  12.957
13009W        W85434  38.778  16.258   2.206
13010W        W85435  14.864  16.963  13.528
13011W        W85436  22.033  26.996   1.811
13012W        W85437  28.146  39.283  11.134
13013W        W85438  11.051  33.790  14.384
13014W        W85439  19.520   9.304  13.422
13015W        W85440  17.339  33.940   3.232
13016W        W85441  25.184  37.345  14.807
13017W        W85442  18.334  42.285  13.640
13018W        W85443  12.372  23.528   1.897
13019W        W85444  10.052  42.503   1.388
13020W        W85445   1.181  31.016  13.509
13021W        W85446  18.113   4.932  10.633
13022W        W85447   7.137  13.182   1.372
13023W        W85448  23.698  41.354   3.414
13024W        W85449  24.801  43.542  12.594
13025W        W85450  41.645  10.540  12.825
13026W        W85451  11.916  36.355  11.492
13027W        W85452  21.217  21.914  10.618
13028W        W85453  10.414  41.499  14.295
13029W        W85454  21.653  44.965  10.680
13030W        W85455  42.527  21.597   1.223
13031W        W85456  39.474  25.604  11.469
13032W        W85457   5.882  32.108  12.833
13033W        W85458  36.811  15.036   0.241
13034W        W85459  12.666  29.577  12.202
13035W        W85460  30.758   8.462   3.522
13036W        W85461   2.418  10.279  12.962
13037W        W85462  42.264  20.045  10.627
13038W        W85463  13.367  44.467  14.023
13039W        W85464  14.208  24.223   4.664
13040W        W85465   1.301  30.102   1.318
13041W        W85466  36.962  18.012   3.733
13042W        W85467  44.258  37.338   0.449
13043W        W85468   7.914  21.458  14.665
13044W        W85469  12.337  14.774  13.667
13045W        W85470  25.452  11.192  13.266
13046W        W85471  10.457   8.742  12.835
13047W        W85472   8.334  43.858   0.739
13048W        W85473  39.397  13.159   0.116
13049W        W85474  36.845  42.411  12.411
13050W        W85475  41.304  25.480  10.719
13051W        W85476  34.543  13.637  12.921
13052W        W85477  10.959  28.874  14.056
13053W        W85478  15.452   1.877   2.040
13054W        W85479   3.209  28.593   2.790
13055W        W85480   9.986  13.832  14.388
13056W        W85481  33.947  30.700  12.686
13057W        W85482  25.447   5.172   2.283
13058W        W85483  13.770  44.936  13.444
13059W        W85484  22.517  12.571  10.675
13060W        W85485  30.678  20.553   2.666
13061W        W85486  27.442  26.504  14.693
13062W        W85487  26.551   1.101  11.112
13063W        W85488  11.192  24.791  14.370
13064W        W85489  31.044  38.516   0.078
13065W        W85490  20.967  17.788  11.952
13066W        W85491  44.484  25.123   4.621
13067W        W85492  28.643  21.698   3.652
13068W        W85493  34.558  22.662  12.364
13069W        W85494  26.585  32.142  10.795
13070W        W85495  36.355  39.563  11.066
13071W        W85496  30.126  24.398   1.427
13072W        W85497  18.346  37.871   3.882
13073W        W85498  34.982  21.278   2.550
13074W        W85499  34.358  31.326  11.610
13075W        W85500  24.968  36.729   4.673
13076W        W85501  44.200  22.324  13.054
13077W        W85502   4.938  10.394   3.205
13078W        W85503  12.508   5.683   0.029
13079W        W85504  21.514  26.026   0.866
13080W        W85505   8.938  23.055  14.002
13081W        W85506  11.799  34.378   0.332
13082W        W85507  30.092  39.882  12.122
13083W        W85508  44.624  40.869  14.311
13084W        W85509  40.896  14.404  14.026
13085W        W85510  18.914  10.428   3.292
13086W        W85511  35.977  27.984   2.270
13087W        W85512  11.336  21.183   1.813
13088W        W85513  20.683  29.597   4.083
13089W        W85514  25.954   8.298   4.996
13090W        W85515  35.891  25.192   2.910
13091W        W85516  32.549  40.816  12.045
13092W        W85517  17.542  27.526  13.418
13093W        W85518  25.467  33.295   2.292
13094W        W85519  40.419  42.767  11.542
13095W        W85520   6.635  27.463  11.592
13096W        W85521  28.369  10.349   4.140
13097W        W85522   2.710  16.087  13.264
13098W        W85523  30.094  43.430  11.253
13099W        W85524  30.548  16.235  11.250
13100W        W85525  27.152  37.636  12.115
13101W        W85526  16.306  44.000   2.156
13102W        W85527   6.624  17.283   0.953
13103W        W85528  41.228  35.955  14.375
13104W        W85529   4.819  25.460   0.305
13105W        W85530  41.909  14.746   1.843
13106W        W85531   3.243  42.428   0.290
13107W        W85532  13.156  24.160   3.742
13108W        W85533  31.432  16.781  10.607
13109W        W85534   3.754   5.583   3.123
13110W        W85535  14.386  44.318   0.938
13111W        W85536  41.025   9.326  10.594
13112W        W85537   1.847  12.739   3.220
13113W        W85538  21.809  14.283   4.651
13114W        W85539  24.015  42.103  11.147
13115W        W85540  20.506  39.917  14.946
13116W        W85541  42.510  38.722  11.697
13117W        W85542  19.225   2.147  10.652
13118W        W85543  39.351  26.212  12.613
13119W        W85544  28.392   9.737   3.060
13120W        W85545  23.296  11.441  12.527
13121W        W85546  21.211  15.053   0.780
13122W        W85547  28.104  40.307   1.400
13123W        W85548  28.126  13.707   1.235
13124W        W85549  39.021  37.887  10.927
13125W        W85550  44.256  34.554  10.696
13126W        W85551  21.270  30.370  13.903
13127W        W85552   2.437  39.312   1.309
13128W        W85553  29.715  40.412  12.471
13129W        W85554   0.212  34.417  10.635
13130W        W85555   3.283   0.952   4.534
13131W        W85556  15.611  22.232  13.919
13132W        W85557  11.879  18.435  11.896
13133W        W85558   3.697  35.730  14.349
13134W        W85559  18.024  21.706   3.682
13135W        W85560  29.197  24.897   1.299
13136W        W85561  36.591   8.254   2.672
13137W        W85562  39.271  18.315   4.475
13138W        W85563  38.952   9.339  13.481
13139W        W85564  22.973   2.492   2.770
13140W        W85565  21.522  14.137  12.871
13141W        W85566  38.591  23.225   2.650
13142W        W85567   0.696  26.141  12.284
13143W        W85568  36.955  23.423  12.547
13144W        W85569   9.189   2.919  12.069
13145W        W85570  26.665   6.956   1.385
13146W        W85571  16.795  32.353   4.135
13147W        W85572   7.298   8.818  12.364
13148W        W85573   7.287  19.973   0.219
13149W        W85574   8.977  40.976  13.237
13150W        W85575  27.770  13.178   3.849
13151W        W85576  16.230  11.788   4.795
13152W        W85577   2.436  25.600  14.417
13153W        W85578  21.197   6.974  14.341
13154W        W85579  44.828   4.118  14.504
13155W        W85580  35.195  28.508   0.614
13156W        W85581  10.204   5.369   0.228
13157W        W85582  11.183  18.519   2.771
13158W        W85583   0.236  22.887  13.854
13159W        W85584  21.079  21.475  12.538
13160W        W85585  22.797  34.928   0.369
13161W        W85586  30.557  11.257   3.753
13162W        W85587   0.464  22.863  11.121
13163W        W85588  37.905  18.804  12.111
13164W        W85589  38.786  18.792  12.140
13165W        W85590  21.384   2.107  12.105
13166W        W85591   0.049  21.665   3.319
13167W        W85592  32.992  30.860   2.786
13168W        W85593  34.385  39.019  10.945
13169W        W85594  38.977  18.307  12.058
13170W        W85595   1.695   3.197   3.235
13171W        W85596  44.422  40.447   3.987
13172W        W85597   2.507  40.580  14.741
13173W        W85598  20.662  30.147   2.401
13174W        W85599  31.726  23.674   4.878
13175W        W85600  18.610  12.305  14.857
13176W        W85601  16.080  15.415   3.638
13177W        W85602  20.477   6.186   5.083
13178W        W85603  38.488  40.457   2.822
13179W        W85604  29.015   2.247   2.102
13180W        W85605  19.299  14.573   1.904
13181W        W85606  42.272  34.088   0.256
13182W        W85607  31.825  22.568  12.438
13183W        W85608  17.192  32.072  12.128
13184W        W85609  31.187  15.915  10.287
13185W        W85610  42.392  30.964  14.842
13186W        W85611  13.614  42.086   4.307
13187W        W85612  17.912  19.002  12.377
13188W        W85613  22.642  39.827   2.809
13189W        W85614  23.234  29.530  13.469
13190W        W85615  17.712   6.247   3.323
13191W        W85616  34.834  28.571  14.243
13192W        W85617   6.812  37.995   4.756
13193W        W85618   1.515  16.653   4.683
13194W        W85619  32.232  44.840  11.675
13195W        W85620  31.844  43.249  12.433
13196W        W85621  16.091  21.686  13.112
13197W        W85622  19.715  16.587   4.730
13198W        W85623  31.707  12.441   4.930
13199W        W85624  10.188  37.001   2.850
13200W        W85625  32.876  10.489  11.987
13201W        W85626   0.425  42.500   1.365
13202W        W85627  17.903  12.436   0.344
13203W        W85628   0.841  26.410   1.356
13204W        W85629  39.953   5.931   4.678
13205W        W85630  13.483  13.728   2.636
13206W        W85631   2.023  42.484  11.625
13207W        W85632  26.452  25.801  13.801
13208W        W85633   9.176  37.609   3.577
13209W        W85634   3.329  11.767   2.146
13210W        W85635  41.655  38.373  11.253
13211W        W85636  12.984  13.673   0.750
13212W        W85637  29.595  37.447  13.561
13213W        W85638  36.413  12.573   0.404
13214W        W85639   8.777   6.812  12.872
13215W        W85640  12.505  19.312  13.790
13216W        W85641   8.697  33.139   1.230
13217W        W85642  13.771  24.470  14.496
13218W        W85643   4.692  20.095   0.053
13219W        W85644  28.942   1.376   5.090
13220W        W85645  23.728  21.243  14.301
13221W        W85646   7.263  14.891   1.192
13222W        W85647  16.079   3.372   1.520
13223W        W85648   9.332  26.340  10.236
13224W        W85649  32.922  42.328   0.747
13225W        W85650  13.673  35.390  14.785
13226W        W85651  10.352  39.704  13.945
13227W        W85652  10.683  19.477   0.016
13228W        W85653  12.117  34.897   1.400
13229W        W85654   9.242  31.418  14.501
13230W        W85655  14.075  21.001   0.949
13231W        W85656   5.507  43.915   2.711
13232W        W85657   1.417  35.892  13.837
13233W        W85658  29.039   3.247  10.728
13234W        W85659  24.469  26.312  11.354
13235W        W85660  44.921  38.592   2.849
13236W        W85661  11.347   6.396   3.888
13237W        W85662  28.916  30.234   0.894
13238W        W85663  32.552  39.054   2.301
13239W        W85664  43.290  37.691  14.840
13240W        W85665  18.385  33.609  13.267
13241W        W85666  38.111   6.758  10.083
13242W        W85667   6.937   0.745   1.667
13243W        W85668  26.011  32.924  10.782
13244W        W85669  11.816  39.327  13.616
13245W        W85670   9.117   6.325  13.449
13246W        W85671   6.727  17.351   1.916
13247W        W85672  29.757  35.606   0.896
13248W        W85673  25.564  21.975   0.776
13249W        W85674  17.273  11.549  10.605
13250W        W85675  34.413  36.376  14.856
13251W        W85676  41.264  11.594  14.851
13252W        W85677  19.721   0.514   2.055
13253W        W85678  38.279  21.749  12.986
13254W        W85679  38.022   3.421  12.732
13255W        W85680   4.977  24.842   4.238
13256W        W85681  33.935  16.683  12.773
13257W        W85682  28.192   2.719  12.445
13258W        W85683  19.970   4.750   4.702
13259W        W85684  38.002   7.855   5.438
13260W        W85685  21.110   7.770  11.474
13261W        W85686  30.680  17.691  12.943
13262W        W85687   5.924  14.181   3.918
13263W        W85688  42.431  30.886  14.317
13264W        W85689  17.074  28.271   1.250
13265W        W85690  32.573  12.341   1.817
13266W        W85691  31.852  33.379  13.125
13267W        W85692  40.709  23.688  12.845
13268W        W85693  18.024  29.140   4.182
13269W        W85694  32.872  18.632  14.948
13270W        W85695  42.833  33.521   1.730
13271W        W85696  32.333  43.992   2.736
13272W        W85697  16.096  31.271   3.765
13273W        W85698   3.257  38.986  12.617
13274W        W85699  42.400  32.577   3.354
13275W        W85700  39.857  15.457  13.333
13276W        W85701   2.463   7.839   0.859
13277W        W85702  38.824   8.070  13.987
13278W        W85703   7.247  21.879  10.661
13279W        W85704   2.032  14.379  14.883
13280W        W85705   2.288  31.392   4.372
13281W        W85706  33.730  19.185  10.943
13282W        W85707  11.656  32.494   2.319
13283W        W85708  16.308  27.525  13.996
13284W        W85709  40.538  30.048   2.344
13285W        W85710  33.442   8.631  14.936
13286W        W85711   8.727  37.399  13.958
13287W        W85712  18.060  29.891  12.216
13288W        W85713  13.743  39.141   4.143
13289W        W85714  13.643  30.134   0.652
13290W        W85715   4.819   3.919   1.706
13291W        W85716  39.099  10.637   2.355
13292W        W85717  36.341   9.340   9.934
13293W        W85718  20.815  10.377   2.720
13294W        W85719   9.786   8.313  13.853
13295W        W85720  32.508  32.002  10.608
13296W        W85721  19.622   4.413   3.849
13297W        W85722  25.490  20.553  13.074
13298W        W85723  41.403  27.544  13.728
13299W        W85724   1.911  12.041   3.597
13300W        W85725  32.906  23.616   2.294
13301W        W85726  21.597  35.299   0.887
13302W        W85727   5.866  42.834  11.657
13303W        W85728   7.825  13.710   1.340
13304W        W85729   2.693  11.000   0.783
13305W        W85730  15.149  10.939   4.065
13306W        W85731  40.445  10.117  12.536
13307W        W85732  15.642  25.355   4.904
13308W        W85733  39.921   7.938  11.972
13309W        W85734  44.876   1.028  14.058
13310W        W85735  41.362  44.437  11.203
13311W        W85736  36.820   0.322  14.057
13312W        W85737  22.714  13.457   5.021
13313W        W85738  18.069  20.680   3.625
13314W        W85739  29.579  22.024  13.791
13315W        W85740  12.764   8.733  11.454
13316W        W85741   1.311  30.797   3.624
13317W        W85742  16.055  15.340  11.018
13318W        W85743  28.604  40.710  10.277
13319W        W85744  30.923  28.637  13.589
13320W        W85745  24.254  21.260  10.566
13321W        W85746  16.502  18.090   2.354
13322W        W85747  25.156  43.752   4.060
13323W        W85748   9.861  29.013   0.911
13324W        W85749  27.401  22.777   4.575
13325W        W85750  33.169  31.038   1.841
13326W        W85751  12.648  27.593  11.579
13327W        W85752  19.225  26.608   2.770
13328W        W85753  37.558  26.670   1.688
13329W        W85754  39.832  43.098  14.336
13330W        W85755  39.604  28.893   3.811
13331W        W85756  42.557   5.672  14.895
13332W        W85757  32.548  13.974   2.763
13333W        W85758  35.443   8.275  14.994
13334W        W85759  31.782  44.097   0.759
13335W        W85760   6.751  14.373  11.248
13336W        W85761  27.153  15.561   4.151
13337W        W85762  10.734  20.140  14.310
13338W        W85763  31.278  17.206   3.565
13339W        W85764   3.606  44.714  12.144
13340W        W85765  25.944  35.315  14.474
13341W        W85766   0.452  36.506   4.099
13342W        W85767  23.115   0.457   3.150
13343W        W85768  42.604  36.778  13.039
13344W        W85769  15.020  43.746   1.471
13345W        W85770  41.250  20.318   2.347
13346W        W85771   4.464   6.756   2.766
13347W        W85772  16.092   5.915   0.342
13348W        W85773   2.931   6.636   3.566
13349W        W85774  21.261   9.273   1.320
13350W        W85775  17.975  16.197  13.990
13351W        W85776  35.630  13.692   3.614
13352W        W85777  32.740  13.074  14.289
13353W        W85778   9.450  16.637   0.551
13354W        W85779  21.244   5.926   0.431
13355W        W85780  34.384  33.544  14.526
13356W        W85781  28.711  19.733   0.915
13357W        W85782  26.653  26.863   4.236
13358W        W85783  13.254  15.108  11.403
13359W        W85784  20.746  18.068   3.423
13360W        W85785  12.078   1.268   1.221
13361W        W85786  27.129  17.232  10.389
13362W        W85787  41.089  27.946  13.873
13363W        W85788  10.861  22.788   3.215
13364W        W85789  19.726  19.732   4.475
13365W        W85790  26.106   9.037  14.570
13366W        W85791  44.342   7.269   3.162
13367W        W85792  40.884  31.349   2.814
13368W        W85793  36.562  38.565   1.790
13369W        W85794  21.733  15.844   2.742
13370W        W85795   7.743  28.936   0.485
13371W        W85796  27.515   8.326   3.088
13372W        W85797  23.589  40.798   2.228
13373W        W85798  22.520  43.460  11.968
13374W        W85799  23.108  41.762  12.460
13375W        W85800  20.561  37.540  12.919
13376W        W85801  22.741  26.472  13.844
13377W        W85802  21.114   0.330  11.769
13378W        W85803   0.943  39.163  11.720
13379W        W85804  27.439  13.600  13.899
13380W        W85805  38.221   8.317   3.721
13381W        W85806   1.942  44.962  14.882
13382W        W85807  42.367   3.403  10.796
13383W        W85808  18.051   3.376  14.252
13384W        W85809   7.673  23.197   2.707
13385W        W85810  38.167  26.467  14.284
13386W        W85811   8.831  34.373   2.831
13387W        W85812  32.822   3.393   2.282
13388W        W85813  23.303   8.601   3.287
13389W        W85814  37.688  25.161   1.848
13390W        W85815  21.073  13.339   3.004
13391W        W85816  36.043   1.441  13.950
13392W        W85817  11.721  26.560   4.211
13393W        W85818  43.555  19.816   1.842
13394W        W85819  32.444  27.073   1.412
13395W        W85820  22.729  20.195  13.865
13396W        W85821  22.201  32.700   3.643
13397W        W85822   8.835   0.846   2.806
13398W        W85823  37.236   6.395  13.781
13399W        W85824  27.798  19.703  13.535
13400W        W85825   6.455  14.220  12.581
13401W        W85826  30.888  23.706   2.292
13402W        W85827  35.316  12.588  13.487
13403W        W85828  31.789   2.800  13.768
13404W        W85829  20.002   9.174   1.905
13405W        W85830   9.915  27.676  13.128
13406W        W85831  18.116  36.371  11.466
13407W        W85832  25.419  32.929  11.594
13408W        W85833  24.384  10.844   1.136
13409W        W85834   1.352   8.826   4.822
13410W        W85835  40.786  40.332   0.384
13411W        W85836  13.171   5.761  14.540
13412W        W85837  40.941  25.111  10.773
13413W        W85838  29.623  44.466  10.483
13414W        W85839   5.258  34.206  13.936
13415W        W85840  10.821  43.531   2.733
13416W        W85841   7.779  34.411  11.584
13417W        W85842  39.361   3.425  10.760
13418W        W85843  32.521   6.239   0.269
13419W        W85844   8.591  28.036  10.901
13420W        W85845  14.808  38.155   4.785
13421W        W85846   3.927  12.799   3.189
13422W        W85847  35.990  12.719   4.215
13423W        W85848  27.306   6.677  10.609
13424W        W85849  18.523   1.273   4.766
13425W        W85850  44.441  16.509  14.774
13426W        W85851  37.848  31.745  12.850
13427W        W85852  30.755  24.012  13.312
13428W        W85853  18.591   6.663  12.855
13429W        W85854  23.937   5.236  14.216
13430W        W85855  14.127  37.938  11.511
13431W        W85856   2.609  30.962   4.210
13432W        W85857  34.968  22.807   2.343
13433W        W85858  28.910  43.855  14.045
13434W        W85859  43.001  12.388  14.100
13435W        W85860  30.654  41.933  14.054
13436W        W85861  26.718  15.158  13.105
13437W        W85862  23.339  25.613  12.562
13438W        W85863  35.122  10.458   2.923
13439W        W85864  17.403  16.501   4.395
13440W        W85865  23.530  12.760  10.572
13441W        W85866  20.684  32.824   1.783
13442W        W85867  19.353  32.053  12.518
13443W        W85868  34.948   8.251  11.421
13444W        W85869   0.393   3.822   0.304
13445W        W85870  10.271  30.122   4.607
13446W        W85871  25.002  43.917   3.109
13447W        W85872   2.538  36.665   3.223
13448W        W85873  12.274  28.668  12.436
13449W        W85874   2.768  14.439  12.207
13450W        W85875   9.708  37.445  12.144
13451W        W85876  24.542  18.288  12.394
13452W        W85877  21.777  30.985   1.294
13453W        W85878   0.737  17.031  11.490
13454W        W85879  31.936   4.352  12.801
13455W        W85880  17.553  21.757  11.536
13456W        W85881  25.563  18.636   1.530
13457W        W85882  14.820  32.712   2.849
13458W        W85883  14.212  20.691   2.910
13459W        W85884   5.832  23.288   2.555
13460W        W85885  13.041   9.210  12.197
13461W        W85886   6.652  20.815   2.429
13462W        W85887  33.445  33.108   0.473
13463W        W85888  19.609  34.883   3.207
13464W        W85889  17.274  10.605   4.558
13465W        W85890  28.461  15.860  12.082
13466W        W85891  43.966  12.765  10.836
13467W        W85892  11.185   3.384   1.735
13468W        W85893  20.631  30.380   1.736
13469W        W85894   4.717  25.278  12.208
13470W        W85895  24.120  44.564   0.981
13471W        W85896   0.849   1.448  12.343
13472W        W85897  24.522  21.684   2.795
13473W        W85898  11.341   4.691  12.367
13474W        W85899  29.215  16.625  11.687
13475W        W85900  11.598  30.538   3.236
13476W        W85901  43.491  23.152   2.934
13477W        W85902  23.452  12.504  11.009
13478W        W85903  24.998  35.038   3.374
13479W        W85904  20.290  38.170   0.427
13480W        W85905  10.661   8.581   0.420
13481W        W85906  37.619  27.223   2.735
13482W        W85907  18.752   1.327   2.244
13483W        W85908  30.764  18.155  11.743
13484W        W85909  18.588   0.877   4.447
13485W        W85910  14.785   8.212  14.426
13486W        W85911   4.016  12.642  14.348
13487W        W85912  38.421  14.883  13.604
13488W        W85913  15.515  43.547  14.342
13489W        W85914  35.250  20.227   1.263
13490W        W85915  13.606  35.089   4.157
13491W        W85916  38.994   5.971   3.321
13492W        W85917  22.872  23.049  13.353
13493W        W85918  42.464  44.777   2.909
13494W        W85919  14.597   9.567   4.218
13495W        W85920  16.209  26.615  10.626
13496W        W85921   9.654  31.543  11.731
13497W        W85922   1.694  19.125   2.041
13498W        W85923   9.509   2.376   1.692
13499W        W85924   3.407   8.321  13.593
13500W        W85925   2.450  15.153   1.333
13501W        W85926  22.843  43.822  10.513
13502W        W85927  35.300  26.998   1.845
13503W        W85928  20.060   4.399   0.846
13504W        W85929   3.956  28.975  14.618
13505W        W85930  29.999   4.861  13.983
13506W        W85931  44.008  11.315   4.618
13507W        W85932  10.213  38.364   3.140
13508W        W85933  38.451   9.907   0.697
13509W        W85934  13.175  35.406   2.602
13510W        W85935   6.621   9.532  11.531
13511W        W85936  36.093   0.756   1.353
13512W        W85937  27.205  37.945   3.657
13513W        W85938   7.633  37.034  14.129
13514W        W85939   6.457  16.034  14.260
13515W        W85940   3.352  18.591   3.633
13516W        W85941  14.136   8.497  14.222
13517W        W85942  23.702  30.127  11.231
13518W        W85943   3.797  26.619  10.631
13519W        W85944  31.132  25.617   0.781
13520W        W85945  42.615   0.050   0.359
13521W        W85946  21.266  35.905  10.600
13522W        W85947  28.260  27.584  12.831
13523W        W85948  39.469  16.566   0.781
13524W        W85949  18.888  24.467   3.125
13525W        W85950  41.956  15.047  14.238
13526W        W85951   0.151  36.434   4.509
13527W        W85952  35.972  22.722   0.453
13528W        W85953  13.269  32.495   1.894
13529W        W85954  12.173  25.918   4.577
13530W        W85955  21.770   7.350  11.908
13531W        W85956  20.573  37.070  11.110
13532W        W85957  33.545   8.410  11.885
13533W        W85958  15.245  34.239   9.802
13534W        W85959  17.745  34.134   5.368
13535W        W85960  22.573  24.972   1.874
13536W        W85961   7.329  17.885   1.430
13537W        W85962  34.183  16.592   1.732
13538W        W85963  34.080  41.232  11.592
13539W        W85964   1.099  38.354  10.634
13540W        W85965  43.717  32.005  12.012
13541W        W85966   6.715  34.619   1.141
13542W        W85967  32.909  39.016  14.928
13543W        W85968  44.711   6.955   0.884
13544W        W85969  26.892  11.567   0.214
13545W        W85970   8.924  25.401  14.787
13546W        W85971  32.585   0.201  11.784
13547W        W85972  24.035  41.295   1.621
13548W        W85973   9.883  17.532  13.364
13549W        W85974  10.810  14.145  13.037
13550W        W85975  23.750   8.242  14.497
13551W        W85976  27.634  36.334   4.829
13552W        W85977  36.362   2.396   2.248
13553W        W85978   9.180   2.702  11.105
13554W        W85979  42.077  23.141   2.380
13555W        W85980  22.785  31.365   2.515
13556W        W85981  37.141  34.825  11.304
13557W        W85982  35.456  40.520   3.254
13558W        W85983  19.913  21.291   4.513
13559W        W85984  44.833   5.455  14.437
13560W        W85985  28.645   7.988   4.121
13561W        W85986  29.998  21.469  10.910
13562W        W85987   8.161  14.256  10.709
13563W        W85988  31.589  31.272   2.292
13564W        W85989  38.662  15.715   1.894
13565W        W85990  14.805  17.247  13.973
13566W        W85991   7.680   2.318   3.875
13567W        W85992  19.026  15.722   1.400
13568W        W85993   8.661  31.460  12.581
13569W        W85994   9.008   0.555  13.946
13570W        W85995   6.711  44.351  13.900
13571W        W85996  19.512  30.224  12.064
13572W        W85997  37.214   0.477   1.727
13573W        W85998  33.502  19.490   2.234
13574W        W85999  34.029  16.583  10.844
13575W        W86000  18.507   0.443  14.090
13576W        W86001   3.487   9.366  11.651
13577W        W86002  31.772  13.205  14.026
13578W        W86003  14.289  28.237  11.885
13579W        W86004  34.145  35.442  14.797
13580W        W86005  41.770   0.026   1.462
13581W        W86006  16.780  39.469   0.436
13582W        W86007  34.854   4.358  11.502
13583W        W86008  10.794   8.129  10.925
13584W        W86009  39.850  33.546   2.738
13585W        W86010  26.992  23.721  12.556
13586W        W86011  27.551  34.791  13.805
13587W        W86012  24.500  42.340  14.735
13588W        W86013  12.786  24.214  12.503
13589W        W86014  20.362  10.309   1.298
13590W        W86015  33.756   1.416  12.202
13591W        W86016  19.258  13.685   4.084
13592W        W86017  15.046   9.925   0.793
13593W        W86018  19.507  21.332   2.735
13594W        W86019  13.817  24.654   1.907
13595W        W86020  32.341  21.154   0.293
13596W        W86021  18.970  20.174  12.826
13597W        W86022   2.857   3.212  14.052
13598W        W86023  11.158  44.262   1.380
13599W        W86024  28.456  17.717   4.592
13600W        W86025  21.743  12.883  13.950
13601W        W86026  37.468  39.756   1.566
13602W        W86027  13.897  26.147  12.104
13603W        W86028  38.572  16.235  13.958
13604W        W86029  43.684   8.844  12.999
13605W        W86030  16.640   5.794   4.061
13606W        W86031   7.412   3.964   0.818
13607W        W86032  34.518  29.688  14.390
13608W        W86033  10.685  37.155   0.825
13609W        W86034  44.722  42.557   1.034
13610W        W86035  43.328  14.440   1.648
13611W        W86036  40.345  19.895   4.296
13612W        W86037  43.569  15.010   2.285
13613W        W86038  21.195  25.210  13.039
13614W        W86039  11.134  31.476  14.836
13615W        W86040   3.681  12.249   0.242
13616W        W86041   1.366  14.953   2.974
13617W        W86042  29.565  30.895  12.456
13618W        W86043  19.115  18.631  14.776
13619W        W86044  31.156   4.856  13.404
13620W        W86045  29.481  25.511  14.783
13621W        W86046  10.063  19.569  13.924
13622W        W86047  19.636   0.326  14.866
13623W        W86048  18.699  15.824  14.290
13624W        W86049  18.534  24.523  14.485
13625W        W86050   9.960  36.704  13.966
13626W        W86051  19.733  38.838  13.000
13627W        W86052   0.456  44.257  10.438
13628W        W86053  24.999  29.004   0.745
13629W        W86054  13.698  12.181   4.091
13630W        W86055   0.681  33.394  14.325
13631W        W86056   8.861  37.494   0.790
13632W        W86057  30.058  32.668  10.663
13633W        W86058  40.110  29.648  14.930
13634W        W86059  20.079  24.000  11.621
13635W        W86060  19.134   0.210  12.036
13636W        W86061  11.612   7.496  12.121
13637W        W86062  26.865  30.581   9.896
13638W        W86063  16.756  42.858  14.757
13639W        W86064  29.096  31.050  12.236
13640W        W86065   0.875  30.555  10.351
13641W        W86066  24.017  41.950  12.022
13642W        W86067  28.286   7.804  14.015
13643W        W86068  18.142  37.607   0.968
13644W        W86069  37.802  33.013   4.552
13645W        W86070  31.729   5.708   1.734
13646W        W86071   1.763  29.823   1.208
13647W        W86072  22.475  27.123   3.622
13648W        W86073  13.161  25.387  13.004
13649W        W86074  19.770  36.513  10.802
13650W        W86075  28.376  38.905  10.551
13651W        W86076   1.338  35.531   4.634
13652W        W86077  12.129  22.947   4.934
13653W        W86078   8.970  18.794   2.644
13654W        W86079  37.796   5.229   3.776
13655W        W86080  36.586   7.937  13.338
13656W        W86081  36.148  30.052  14.875
13657W        W86082  26.979  24.241   2.776
13658W        W86083  26.943  37.886  10.653
13659W        W86084  12.055  34.958   2.315
13660W        W86085  11.878  25.486   1.914
13661W        W86086  43.230  14.228   4.184
13662W        W86087  29.517   6.393  14.263
13663W        W86088   8.319   8.705   3.843
13664W        W86089  29.154  42.558   2.090
13665W        W86090  33.606  35.105  12.191
13666W        W86091  30.668  16.055  10.363
13667W        W86092   8.792  18.763   4.185
13668W        W86093  19.642  10.040  11.432
13669W        W86094  27.420  17.626  11.075
13670W        W86095   7.157  34.527   2.290
13671W        W86096  10.639  38.201   2.905
13672W        W86097  25.779  18.779  14.829
13673W        W86098  28.472  16.531   3.655
13674W        W86099  29.215  27.709  14.563
13675W        W86100  36.432   5.413   4.270
13676W        W86101  42.308  43.710   1.233
13677W        W86102  22.967  24.467  14.851
13678W        W86103  33.535   5.892   3.047
13679W        W86104   7.229  44.051  12.131
13680W        W86105  22.944  11.101   1.282
13681W        W86106  24.738  40.407  14.306
13682W        W86107  18.544  44.348  10.542
13683W        W86108  37.906  16.307  12.432
13684W        W86109   6.436  24.600  14.304
13685W        W86110  19.182   6.507  11.742
13686W        W86111  38.030   6.402   3.972
13687W        W86112  30.602  32.901   4.808
13688W        W86113  26.291  18.055   1.169
13689W        W86114  36.541  17.546  14.962
13690W        W86115  24.025   4.754  12.619
13691W        W86116  30.274  26.130  14.883
13692W        W86117  43.383  37.462   0.422
13693W        W86118  17.089  10.496  11.400
13694W        W86119  10.808  16.729  12.884
13695W        W86120  15.200  18.120   2.673
13696W        W86121   1.454   9.408   4.909
13697W        W86122  17.065   7.652  12.912
13698W        W86123  40.473  10.941  13.443
13699W        W86124  20.070   9.309   2.411
13700W        W86125   7.847  18.286   4.526
13701W        W86126   3.165  21.574  10.981
13702W        W86127  22.924  19.601   3.244
13703W        W86128  37.762  38.867   3.600
13704W        W86129   9.358  10.796   3.869
13705W        W86130   1.544   3.702  13.046
13706W        W86131  39.379   2.042  14.835
13707W        W86132  41.600  11.411   0.839
13708W        W86133  37.025  41.355  12.038
13709W        W86134  42.385  13.145  11.676
13710W        W86135  40.897  10.296   0.745
13711W        W86136  15.380  27.194  13.462
13712W        W86137  32.480  34.497   0.960
13713W        W86138   5.482  21.134  10.675
13714W        W86139  32.868   9.067  12.137
13715W        W86140  35.289  23.477  14.748
13716W        W86141   3.417   4.039   1.914
13717W        W86142  11.219  22.753  13.247
13718W        W86143  12.509  42.724   5.043
13719W        W86144  29.934  27.667   0.585
13720W        W86145  14.358  20.062  12.990
13721W        W86146   9.386  24.123  12.018
13722W        W86147   7.608  21.700  10.204
13723W        W86148   3.747  15.011   1.867
13724W        W86149  13.503  15.704  12.887
13725W        W86150  13.631  43.558  14.058
13726W        W86151  26.892  35.461   0.904
13727W        W86152  42.911  40.435   0.224
13728W        W86153  38.750   9.759  11.242
13729W        W86154   5.810  12.433  11.097
13730W        W86155  40.481  38.573   4.884
13731W        W86156  21.164   8.111  10.570
13732W        W86157  10.291  16.865  11.335
13733W        W86158  20.141  40.075  10.191
13734W        W86159   7.565   9.786   0.864
13735W        W86160  28.026  26.524  12.887
13736W        W86161  26.707   5.350   1.827
13737W        W86162  17.804   7.220  12.061
13738W        W86163  32.541  36.908   0.385
13739W        W86164  19.543  41.800  11.150
13740W        W86165  14.220  19.588  14.768
13741W        W86166  42.566  37.993   0.472
13742W        W86167  21.669  23.642   3.780
13743W        W86168  28.279  17.951   1.694
13744W        W86169  33.283  27.186  14.218
13745W        W86170   7.700  13.099   4.618
13746W        W86171  28.451  10.860   1.280
13747W        W86172  13.575  38.406  11.944
13748W        W86173   8.895   5.164   0.694
13749W        W86174  33.016   5.893   3.268
13750W        W86175   1.951  34.750   3.741
13751W        W86176   2.757  28.858  13.650
13752W        W86177  39.173  24.654  11.204
13753W        W86178   1.414  37.152   1.013
13754W        W86179  44.919   4.261  11.646
13755W        W86180  40.246  40.758   4.682
13756W        W86181   1.864  13.532   3.842
13757W        W86182  15.104  20.677  11.266
13758W        W86183  32.088  19.686   3.692
13759W        W86184  41.488  23.647  11.109
13760W        W86185  35.341  37.499   0.339
13761W        W86186  20.779   4.929  14.644
13762W        W86187  40.253  15.603   4.564
13763W        W86188   4.296  31.180  14.917
13764W        W86189  38.489  30.724   4.938
13765W        W86190   1.380  30.515   0.026
13766W        W86191  26.974  36.913  13.811
13767W        W86192  40.072   6.678   2.870
13768W        W86193   4.337  31.288   1.523
13769W        W86194   8.905  21.113   1.847
13770W        W86195   4.085   0.571  10.888
13771W        W86196   4.244  29.351   1.211
13772W        W86197  38.622  19.646  12.977
13773W        W86198  42.319   4.644   1.410
13774W        W86199  29.055  26.233   4.076
13775W        W86200   1.452  17.852   2.306
13776W        W86201  30.398   6.885   4.976
13777W        W86202  13.224  37.208  13.551
13778W        W86203  11.318  34.897   2.810
13779W        W86204   0.278  38.092   4.154
13780W        W86205  31.079  44.308  12.051
13781W        W86206   5.960  28.513  14.269
13782W        W86207  41.551   6.807   3.891
13783W        W86208  13.178  14.802  14.562
13784W        W86209  23.995  27.478  10.495
13785W        W86210  25.136  37.898  14.611
13786W        W86211  28.690  23.681  11.424
13787W        W86212  17.187  32.548   9.746
13788W        W86213  34.565  12.573  13.975
13789W        W86214  30.798  34.450   0.363
13790W        W86215  24.715  23.958  11.610
13791W        W86216  32.101  14.605  13.801
13792W        W86217  17.068   7.737  14.358
13793W        W86218  38.021   1.363   4.594
13794W        W86219  31.462  29.127  12.664
13795W        W86220  34.154  39.989   3.368
13796W        W86221   3.016  27.261  14.421
13797W        W86222  35.044  11.302  13.961
13798W        W86223   1.151  35.001   1.842
13799W        W86224  31.907   0.250   4.687
13800W        W86225  18.658  40.917   2.831
13801W        W86226  11.838   4.017  13.521
13802W        W86227  42.845  36.599  11.171
13803W        W86228  28.828  36.030   2.396
13804W        W86229  31.139   1.815  12.064
13805W        W86230  10.621  44.281   1.448
13806W        W86231  17.018  22.818  11.465
13807W        W86232  37.887  17.321  14.807
13808W        W86233   9.416  37.371   4.340
13809W        W86234  17.665  29.626   0.655
13810W        W86235   0.547   7.734  13.363
13811W        W86236  31.201  28.471  13.992
13812W        W86237  38.550  41.768   3.438
13813W        W86238  20.660  10.905   2.012
13814W        W86239  22.636  12.880   1.866
13815W        W86240  43.951  22.026   2.595
13816W        W86241  37.502  29.412   2.178
13817W        W86242  28.175  34.016  14.377
13818W        W86243  34.143  24.581  13.411
13819W        W86244  18.570  13.335   0.184
13820W        W86245   9.713   9.903  10.883
13821W        W86246  15.256  33.072  11.677
13822W        W86247  19.000  15.757   4.312
13823W        W86248   5.644  33.550   0.287
13824W        W86249  30.548  17.714   3.369
13825W        W86250  39.317  25.598   2.213
13826W        W86251  13.493  13.722   0.799
13827W        W86252  42.960   7.767  14.080
13828W        W86253  35.579  26.436  11.941
13829W        W86254  19.316  40.510  10.728
13830W        W86255  37.043   4.922  12.060
13831W        W86256  44.418  13.828   0.350
13832W        W86257  21.969   8.850   9.903
13833W        W86258  27.932   0.026  14.399
13834W        W86259  17.744  11.147  11.438
13835W        W86260   6.306  40.593  10.604
13836W        W86261   0.968  18.492   0.370
13837W        W86262  38.367   8.321  13.756
13838W        W86263  25.524  31.402   1.740
13839W        W86264   4.968  24.137  12.907
13840W        W86265  27.487  21.919  13.452
13841W        W86266  31.130  24.701   2.347
13842W        W86267  29.549  25.961  14.328
13843W        W86268  36.103  20.470  13.535
13844W        W86269  31.628  10.604  12.494
13845W        W86270   6.110  32.896   4.264
13846W        W86271  13.855  23.738   3.808
13847W        W86272  35.364   9.686   1.480
13848W        W86273  28.577   7.678  10.692
13849W        W86274  29.397  18.396   4.306
13850W        W86275   2.410   7.326  14.967
13851W        W86276  44.669  21.755  14.345
13852W        W86277  40.289  30.914  11.481
13853W        W86278  29.294  33.167  14.440
13854W        W86279  36.368  41.272  12.761
13855W        W86280   9.603   5.724  12.996
13856W        W86281  42.350   5.656   1.361
13857W        W86282  31.802  39.981   3.926
13858W        W86283  20.447  10.357   4.175
13859W        W86284  42.677   7.341   0.343
13860W        W86285  44.287  37.592  14.038
13861W        W86286   3.708   2.999   2.903
13862W        W86287  25.566  23.100  11.975
13863W        W86288  23.153  25.159   4.130
13864W        W86289  39.471  29.398   4.533
13865W        W86290  18.037   6.340   4.203
13866W        W86291   3.663  35.145  12.172
13867W        W86292   3.363  30.930  14.975
13868W        W86293  12.888   7.346  11.670
13869W        W86294  10.711  19.268  13.024
13870W        W86295  11.539   6.351  13.788
13871W        W86296  16.424  25.754   2.797
13872W        W86297  29.129   6.242  12.833
13873W        W86298  28.654   9.232   1.420
13874W        W86299  28.991  28.678  11.974
13875W        W86300  32.258  27.457   9.665
13876W        W86301  19.636  23.167  12.495
13877W        W86302  25.552  15.823   1.261
13878W        W86303  26.052  10.725  12.642
13879W        W86304  12.662   7.625  10.413
13880W        W86305   2.774  23.097  10.734
13881W        W86306  27.199  20.682   0.743
13882W        W86307   5.287   4.917  12.703
13883W        W86308  10.226  37.306  12.854
13884W        W86309  16.021   2.450   4.735
13885W        W86310  22.931  39.681  14.817
13886W        W86311   4.892   9.040  13.939
13887W        W86312  29.321   4.143  13.332
13888W        W86313   3.878   5.921  11.541
13889W        W86314  11.259  11.846  13.248
13890W        W86315  26.262  25.426  11.660
13891W        W86316  44.571  29.263   2.383
13892W        W86317  39.567  28.101   2.308
13893W        W86318  11.847   1.667   4.272
13894W        W86319  32.528  34.079  14.488
13895W        W86320  12.296   3.465  11.975
13896W        W86321   8.930  26.231   1.323
13897W        W86322  36.331  37.966   3.755
13898W        W86323  17.737  40.410  14.490
13899W        W86324   7.990   1.843   4.598
13900W        W86325   5.204  27.380  13.050
13901W        W86326  11.720  35.591  12.960
13902W        W86327  42.106  36.763  10.838
13903W        W86328  40.762  30.341   2.740
13904W        W86329  21.289  44.464  13.675
13905W        W86330   0.937  42.434   2.272
13906W        W86331  11.486  13.841  14.121
13907W        W86332  43.232   8.267  12.852
13908W        W86333   8.239  39.269   3.159
13909W        W86334  29.775   8.951  12.962
13910W        W86335  19.766  33.055   3.630
13911W        W86336   3.331  27.255  11.535
13912W        W86337  20.409  20.570  14.482
13913W        W86338  16.040  19.447  10.484
13914W        W86339  31.098  31.913   1.341
13915W        W86340  40.532  38.134  10.630
13916W        W86341  35.119  25.067  11.959
13917W        W86342  42.723   4.287   1.473
13918W        W86343  38.375  36.217  14.538
13919W        W86344  22.314  31.156   4.018
13920W        W86345  39.484  22.559   1.954
13921W        W86346  32.738  42.927  12.097
13922W        W86347   1.921  13.476  12.763
13923W        W86348   8.343  18.168  12.648
13924W        W86349   2.219  13.132   0.146
13925W        W86350  16.679   3.948   3.376
13926W        W86351  22.627  14.877  11.923
13927W        W86352  39.328  21.461  10.766
13928W        W86353  37.072  34.369  11.512
13929W        W86354  27.151  43.456   4.647
13930W        W86355  16.162   5.595   1.295
13931W        W86356  31.053  32.005  11.163
13932W        W86357  28.122   1.873   1.639
13933W        W86358  28.012  31.880  13.743
13934W        W86359  41.117  18.602   2.825
13935W        W86360   7.863  39.997  14.821
13936W        W86361  20.053  34.012   3.655
13937W        W86362  11.751  10.437  12.078
13938W        W86363  24.786  40.638   4.930
13939W        W86364  22.969  18.213   0.876
13940W        W86365   6.788  25.702  11.578
13941W        W86366  19.310  19.225   4.078
13942W        W86367   5.996   3.199  12.501
13943W        W86368  36.044  42.038  13.866
13944W        W86369  27.065  11.526  10.702
13945W        W86370   8.162   0.879   2.467
13946W        W86371  42.383  41.234   1.286
13947W        W86372  40.882  32.455  13.757
13948W        W86373   7.888  29.051   4.189
13949W        W86374  38.043  36.829  14.879
13950W        W86375  40.471   4.506   1.807
13951W        W86376  28.568  36.408   0.650
13952W        W86377   4.827  39.451   0.425
13953W        W86378   8.729  18.970   3.316
13954W        W86379   4.305  10.385   1.267
13955W        W86380  13.841  10.160  13.039
13956W        W86381   6.730  30.018  14.558
13957W        W86382  25.177   1.501  14.386
13958W        W86383  11.678  31.415  11.570
13959W        W86384  11.720  34.143   2.444
13960W        W86385   1.268  36.194  11.318
13961W        W86386  22.570  27.569   4.166
13962W        W86387  16.376  36.100   4.168
13963W        W86388  27.180   1.386  10.742
13964W        W86389  24.103  11.551   2.255
13965W        W86390  41.179  18.145   3.084
13966W        W86391  24.985  29.372   1.516
13967W        W86392  21.378  15.246  11.105
13968W        W86393  33.948  15.062   4.359
13969W        W86394   5.541  13.525  14.977
13970W        W86395  37.389   7.605  13.808
13971W        W86396  21.704  12.397   0.497
13972W        W86397  21.295  19.179   4.490
13973W        W86398  33.519   9.877  14.872
13974W        W86399  35.553   9.313  12.093
13975W        W86400  25.199  38.816  14.502
13976W        W86401  12.189  20.890   2.106
13977W        W86402  19.007  33.090  12.859
13978W        W86403  30.423   2.258   2.464
13979W        W86404  28.983  31.218   0.327
13980W        W86405  42.813  15.832   4.236
13981W        W86406  25.636  35.585  13.497
13982W        W86407  41.000  15.713   4.074
13983W        W86408   5.694  21.869  12.148
13984W        W86409  41.981  43.084  13.951
13985W        W86410   0.749  40.507   3.645
13986W        W86411  23.640  22.627  11.456
13987W        W86412  41.906   2.360   1.186
13988W        W86413  44.288  14.547   1.371
13989W        W86414  21.456  10.166   3.254
13990W        W86415   2.123   2.119  13.914
13991W        W86416  24.582  19.279   4.258
13992W        W86417  12.146  24.959  10.107
13993W        W86418  43.505   5.056  14.502
13994W        W86419  20.438  43.303  14.602
13995W        W86420  22.842  40.537  14.345
13996W        W86421   2.213  31.350   2.749
13997W        W86422   1.447  33.378   4.727
13998W        W86423  20.458  31.580   1.270
13999W        W86424  34.168  40.588  12.100
14000W        W86425   2.430  31.530   1.916
14001W        W86426  13.123  17.741   2.742
14002W        W86427  41.832  21.725   9.749
14003W        W86428  15.768  20.035  13.401
14004W        W86429  18.576  32.600   2.416
14005W        W86430  23.313   3.772  13.917
14006W        W86431  26.623  35.555  11.091
14007W        W86432  21.041  35.499  12.522
14008W        W86433  31.326   3.005   4.740
14009W        W86434  20.123  30.518   3.092
14010W        W86435  23.729  19.555   0.785
14011W        W86436  29.046   6.155  14.238
14012W        W86437   0.831  12.658   3.179
14013W        W86438   6.560   1.980   2.207
14014W        W86439  33.998  33.585  11.942
14015W        W86440  31.494  21.177  12.554
14016W        W86441  26.058   3.189  13.474
14017W        W86442  20.552  39.604  11.629
14018W        W86443  42.784  35.097   4.081
14019W        W86444  41.957   4.108  14.237
14020W        W86445  36.463  22.860   0.705
14021W        W86446  36.512  41.531   3.229
14022W        W86447  20.873  14.638   2.744
14023W        W86448  19.997   5.758   3.162
14024W        W86449  18.733  20.234   0.877
14025W        W86450  11.403   5.263   1.462
14026W        W86451  27.020  43.034  11.580
14027W        W86452  37.324  20.247   4.047
14028W        W86453   3.577  17.553   1.978
14029W        W86454  39.239  34.045   4.354
14030W        W86455  17.717  14.378  12.899
14031W        W86456   7.919   2.032  11.485
14032W        W86457  26.346  37.620  12.637
14033W        W86458  24.582  36.084  11.576
14034W        W86459  41.895  44.025  13.823
14035W        W86460  11.177   7.890   0.777
14036W        W86461  39.121  33.122  11.944
14037W        W86462  40.640  18.790   2.742
14038W        W86463  43.410  27.362   0.011
14039W        W86464   7.523  29.405   0.230
14040W        W86465  30.049  13.662  14.277
14041W        W86466  17.228  43.463  13.920
14042W        W86467  12.057   9.412   0.995
14043W        W86468  33.060  19.804  11.882
14044W        W86469   5.407  14.644   1.386
14045W        W86470   6.265   9.000  14.745
14046W        W86471  24.715   7.706   2.306
14047W        W86472   1.470  36.530  14.271
14048W        W86473  22.984  31.872   4.210
14049W        W86474  19.307  41.100   1.810
14050W        W86475   5.145  43.195  14.854
14051W        W86476  32.028  34.874   4.521
14052W        W86477  27.901  38.027   0.669
14053W        W86478  27.228  17.077  14.564
14054W        W86479   3.989  31.929  10.308
14055W        W86480   0.681  42.804  13.125
14056W        W86481  24.310   8.627  11.041
14057W        W86482  18.356  25.077   4.143
14058W        W86483  10.835  37.429  13.503
14059W        W86484   3.679   8.140   4.977
14060W        W86485  28.257  43.996  12.698
14061W        W86486  35.085  36.889   3.539
14062W        W86487   3.948  25.917  12.241
14063W        W86488  29.190   3.892  14.567
14064W        W86489  15.648  31.405  13.394
14065W        W86490  44.305  31.721  10.220
14066W        W86491   1.626  23.184   2.676
14067W        W86492  21.495  16.833  10.620
14068W        W86493   2.268   1.907   0.527
14069W        W86494  28.004  35.700  13.384
14070W        W86495  14.660  24.103   0.945
14071W        W86496  31.060   7.204   0.232
14072W        W86497  37.080   8.727  11.467
14073W        W86498  35.751  12.786  13.209
14074W        W86499   8.851  23.072  13.007
14075W        W86500  22.228   8.710  10.905
14076W        W86501  31.754   9.188   4.339
14077W        W86502  15.444   6.227  14.811
14078W        W86503  29.004  29.145  14.319
14079W        W86504  25.194   0.887   2.441
14080W        W86505  28.879   7.147  11.938
14081W        W86506   4.315  20.709   4.969
14082W        W86507  25.704  32.532  14.021
14083W        W86508   6.545  21.263  10.406
14084W        W86509  33.426  16.055   3.637
14085W        W86510  29.659  20.073   1.898
14086W        W86511  40.321  38.906  12.982
14087W        W86512  37.453  32.619   2.613
14088W        W86513  39.317   7.492   2.721
14089W        W86514   6.733  12.786   0.920
14090W        W86515  39.450   8.290   4.210
14091W        W86516  19.242  13.108   3.368
14092W        W86517  31.476   7.909   1.707
14093W        W86518  14.132  18.459  12.640
14094W        W86519  39.528  11.893  11.197
14095W        W86520  16.158  20.563   2.599
14096W        W86521  24.481   8.609  14.920
14097W        W86522  23.010  42.355  14.191
14098W        W86523  40.367  28.276   5.016
14099W        W86524  22.424  23.202  11.186
14100W        W86525  18.901  36.545   3.139
14101W        W86526  18.319  15.611   2.917
14102W        W86527  38.479  19.972   1.571
14103W        W86528  32.792  14.432  12.366
14104W        W86529  25.851   4.439  12.646
14105W        W86530  38.989   6.128   2.408
14106W        W86531  19.841  10.595   2.211
14107W        W86532  12.701   6.983   3.980
14108W        W86533  31.511  13.318   4.609
14109W        W86534  38.311  36.260  11.271
14110W        W86535  10.796  41.093  10.695
14111W        W86536  11.240  26.047   1.779
14112W        W86537  11.211  41.493   2.377
14113W        W86538  35.083   8.664  12.736
14114W        W86539  27.545  15.708  12.653
14115W        W86540  13.341   9.128   1.757
14116W        W86541   4.824  43.454  13.608
14117W        W86542  44.031   2.933   1.348
14118W        W86543  22.209   8.687   4.157
14119W        W86544   6.827  15.144  10.662
14120W        W86545  24.099  18.764  10.867
14121W        W86546  40.214  41.255  10.733
14122W        W86547  35.947  12.605  12.000
14123W        W86548   0.689   6.864  14.724
14124W        W86549  19.508  43.334   2.322
14125W        W86550  30.101  24.766   4.220
14126W        W86551  25.479   0.791  13.465
14127W        W86552  26.247  12.191  11.913
14128W        W86553  41.255  41.906   4.144
14129W        W86554  10.950  37.331   4.568
14130W        W86555  37.642  38.049   3.119
14131W        W86556  22.152   4.682   4.615
14132W        W86557   8.855   0.366   2.121
14133W        W86558  25.684  10.263  11.254
14134W        W86559   4.418  27.128   1.417
14135W        W86560  43.363  25.238  10.751
14136W        W86561  41.431  20.280  10.247
14137W        W86562  16.788  19.963  12.388
14138W        W86563   0.971  36.089  10.764
14139W        W86564  14.555  10.689   0.921
14140W        W86565   2.800   2.180   3.285
14141W        W86566  41.110  21.214   2.844
14142W        W86567  41.419  35.014  14.059
14143W        W86568  19.317  17.298   0.414
14144W        W86569  19.113  21.283   4.009
14145W        W86570   9.751  15.733   1.075
14146W        W86571   3.647  31.654   0.457
14147W        W86572  26.652   8.723   3.318
14148W        W86573   6.709  26.903   3.528
14149W        W86574  27.162  38.390   2.916
14150W        W86575  36.001  32.998   4.738
14151W        W86576  29.836  22.501   2.135
14152W        W86577   1.860   6.026   4.713
14153W        W86578   3.842  18.105   2.171
14154W        W86579   1.181  12.628  14.896
14155W        W86580  33.467  39.056   1.288
14156W        W86581  27.073   7.172   4.496
14157W        W86582   2.551   1.881   1.541
14158W        W86583  18.737   2.964  10.986
14159W        W86584   8.868  11.585   0.357
14160W        W86585  27.395   2.508  14.461
14161W        W86586  14.642  28.391   1.349
14162W        W86587  12.311  15.111  12.905
14163W        W86588  26.049  30.698  13.452
14164W        W86589  27.535  41.153   1.974
14165W        W86590  16.792   7.150  11.789
14166W        W86591  20.624  40.455  11.343
14167W        W86592  16.270  15.570  12.840
14168W        W86593  20.860  40.431   1.321
14169W        W86594  18.232  43.301   1.442
14170W        W86595   7.710   3.637  11.430
14171W        W86596  18.105  18.116  12.837
14172W        W86597   9.502  27.948  14.896
14173W        W86598  23.490  43.833  12.934
14174W        W86599  29.484  35.945   4.570
14175W        W86600  13.269   6.673  12.920
14176W        W86601  35.255  34.324  13.975
14177W        W86602   2.634  25.119   5.172
14178W        W86603  19.701  38.611  13.580
14179W        W86604   5.043  10.736  14.489
14180W        W86605  14.278  15.656  10.047
14181W        W86606   7.821  12.409   1.276
14182W        W86607   5.473  19.195   0.739
14183W        W86608  22.227   0.391   3.796
14184W        W86609  19.914   3.091   3.721
14185W        W86610   1.907  36.953   3.325
14186W        W86611   3.349  42.214  11.933
14187W        W86612   2.832  11.797  14.372
14188W        W86613  17.259  35.454  12.528
14189W        W86614  38.072   8.400  13.303
14190W        W86615  17.068  21.483   1.446
14191W        W86616  41.629  16.377  14.034
14192W        W86617   0.471  29.451   0.412
14193W        W86618  25.572   8.914   0.918
14194W        W86619  18.074   6.722  14.531
14195W        W86620   6.872  27.401  14.312
14196W        W86621  11.376  22.071  14.537
14197W        W86622  41.993  19.554   3.641
14198W        W86623  37.851  44.501  12.546
14199W        W86624  35.006  43.035   2.019
14200W        W86625  39.418  38.101   0.989
14201W        W86626  30.029   4.520  12.702
14202W        W86627   3.726  35.151   3.106
14203W        W86628  40.836  36.975  11.701
14204W        W86629  16.092  12.810   1.305
14205W        W86630  43.278  15.777   2.867
14206W        W86631  14.330  10.795  14.526
14207W        W86632  42.099  41.074   3.550
14208W        W86633  19.505   2.376  14.422
14209W        W86634  26.647  37.571   1.011
14210W        W86635  28.270  39.487   3.376
14211W        W86636  38.944  34.900  12.356
14212W        W86637  25.984  42.414  14.475
14213W        W86638   0.972  13.254  14.002
14214W        W86639  33.081   2.743   1.450
14215W        W86640  37.819  13.095   0.236
14216W        W86641  17.600  17.955  12.823
14217W        W86642  23.533  16.265  13.051
14218W        W86643  36.816  20.768   2.155
14219W        W86644  20.560  21.964   3.007
14220W        W86645   7.591  19.126  14.549
14221W        W86646   4.231   1.223   3.110
14222W        W86647  42.904   7.675   2.373
14223W        W86648  43.553  25.570   0.378
14224W        W86649  32.354   6.356   1.633
14225W        W86650  15.948  27.079  10.667
14226W        W86651   2.238  33.013  12.462
14227W        W86652  41.824  10.235   4.985
14228W        W86653   2.339  18.038  11.959
14229W        W86654  35.095   4.889   5.256
14230W        W86655  40.104  13.629   1.200
14231W        W86656  40.503   9.927   4.495
14232W        W86657  38.843   9.926   3.925
14233W        W86658  22.206  15.206   2.143
14234W        W86659  17.035  40.265   1.240
14235W        W86660  12.225  23.064   3.494
14236W        W86661  33.146  20.099   1.512
14237W        W86662  24.176  18.090   4.542
14238W        W86663  32.940   5.195  11.085
14239W        W86664   0.255  16.233   2.362
14240W        W86665  14.774  19.777  13.951
14241W        W86666  39.610   3.657   0.511
14242W        W86667  11.745   1.038  12.558
14243W        W86668  38.354   1.386   2.733
14244W        W86669   6.857  15.270  11.162
14245W        W86670  34.834  42.193  11.128
14246W        W86671  12.149   1.088   0.744
14247W        W86672  30.523  36.421  13.371
14248W        W86673  27.935  39.762  14.281
14249W        W86674  20.014  40.501   2.361
14250W        W86675  32.338  31.643   1.907
14251W        W86676   1.773  40.229  10.785
14252W        W86677  35.687  36.334   3.225
14253W        W86678  28.910  22.696  13.647
14254W        W86679  13.746   5.429   3.951
14255W        W86680  42.687  21.211  13.816
14256W        W86681   2.480  37.082  11.890
14257W        W86682   4.767   5.795   5.175
14258W        W86683  37.378  11.904  12.615
14259W        W86684  21.175  14.400  11.530
14260W        W86685   9.338  43.751  12.429
14261W        W86686   9.287  40.702  13.556
14262W        W86687  42.050  37.435  12.001
14263W        W86688  34.586  32.464   1.287
14264W        W86689  40.791  14.569  11.488
14265W        W86690  43.406  39.036  10.053
14266W        W86691  34.317  20.783   1.365
14267W        W86692  21.778  15.291  13.322
14268W        W86693  13.783  17.036   0.889
14269W        W86694  12.122  14.718  10.781
14270W        W86695  18.626  14.359  12.882
14271W        W86696  28.679  40.286   3.775
14272W        W86697  29.652  17.376   4.130
14273W        W86698  39.478  44.446   4.510
14274W        W86699   5.197  15.655  10.736
14275W        W86700  28.978  41.638  13.575
14276W        W86701  29.977  42.257  10.497
14277W        W86702  31.219  29.575  12.783
14278W        W86703  26.345   9.110  12.973
14279W        W86704  23.995  41.074   0.746
14280W        W86705  39.279   1.204  10.674
14281W        W86706  34.649  15.741  14.818
14282W        W86707   5.484  13.533   2.663
14283W        W86708  41.350  23.404   2.665
14284W        W86709  42.407  32.224  12.453
14285W        W86710  30.592   5.767  14.290
14286W        W86711  25.025  23.257   1.606
14287W        W86712  24.078  32.468  11.997
14288W        W86713  14.655   6.149   3.260
14289W        W86714  27.443   4.797  11.884
14290W        W86715  24.724  43.807   1.854
14291W        W86716  29.376   1.895   3.962
14292W        W86717  31.329  25.015  11.556
14293W        W86718  21.631   4.048   4.198
14294W        W86719  38.942  41.836  11.866
14295W        W86720  21.261   2.078   2.123
14296W        W86721  38.651   8.357  14.739
14297W        W86722  20.550  12.758   2.082
14298W        W86723  26.266  39.637   1.000
14299W        W86724  34.157   0.980   2.325
14300W        W86725  10.173  24.202  11.309
14301W        W86726   9.664  38.605   2.144
14302W        W86727  16.192  42.034  10.540
14303W        W86728  40.566  37.484   2.204
14304W        W86729  39.966  22.215  13.196
14305W        W86730  39.872  25.367   0.829
14306W        W86731  36.225  41.015  13.453
14307W        W86732  30.621  17.593   4.299
14308W        W86733  21.719  41.422   1.544
14309W        W86734   4.334   3.855   3.374
14310W        W86735  38.492  37.481  10.166
14311W        W86736  16.780  10.377  13.346
14312W        W86737  42.003  20.488  10.646
14313W        W86738  24.713  41.792   3.647
14314W        W86739   8.905  28.482   1.385
14315W        W86740  19.599   9.127  14.263
14316W        W86741  25.629  20.276  12.328
14317W        W86742  43.515   0.298  12.519
14318W        W86743   3.829  13.102  11.670
14319W        W86744  41.421   4.957   1.054
14320W        W86745  15.613  15.719   1.382
14321W        W86746  23.254  22.424  14.205
14322W        W86747   4.908   0.445  11.427
14323W        W86748  44.370  29.881  14.232
14324W        W86749  37.620   3.366  12.431
14325W        W86750  43.461   9.933  10.214
14326W        W86751   5.722  43.885   1.760
14327W        W86752  36.560  25.994   4.085
14328W        W86753  42.768  10.515  13.747
14329W        W86754  14.118   6.992  14.421
14330W        W86755   2.398  10.682  11.126
14331W        W86756  27.923  19.033   4.857
14332W        W86757   6.389  39.972   4.843
14333W        W86758  10.167  21.801  11.858
14334W        W86759  43.860   2.195   3.402
14335W        W86760  14.172  34.638   4.679
14336W        W86761   9.633   4.884  10.712
14337W        W86762  11.719   2.706   4.089
14338W        W86763  43.916  36.080  13.320
14339W        W86764  35.251  42.803  11.015
14340W        W86765  29.478  23.992   0.728
14341W        W86766   2.194  15.337   0.667
14342W        W86767  15.799  30.925  11.591
14343W        W86768   0.993  41.250   2.239
14344W        W86769   2.668  11.196   1.877
14345W        W86770  31.551  18.587  13.598
14346W        W86771  39.825  35.612   2.593
14347W        W86772  42.122  30.843   0.822
14348W        W86773  10.189  21.656   2.287
14349W        W86774  32.493   9.467  11.864
14350W        W86775   9.343   3.371  12.903
14351W        W86776  39.307  23.114   0.348
14352W        W86777  23.901  30.506  10.595
14353W        W86778   9.125  36.999   2.750
14354W        W86779  11.914  13.051  13.320
14355W        W86780   0.826   0.320  12.495
14356W        W86781  43.725   0.096   2.211
14357W        W86782   1.631  10.441   2.722
14358W        W86783   6.297  29.601   3.658
14359W        W86784  39.116  35.477   0.751
14360W        W86785  17.588   8.188   1.751
14361W        W86786  23.704  19.861   2.211
14362W        W86787  18.831   6.678   4.544
14363W        W86788   2.715  15.224   2.299
14364W        W86789  15.261  28.039   4.526
14365W        W86790   8.178  19.731   0.310
14366W        W86791  31.882  14.223  11.604
14367W        W86792  19.601  22.010  13.664
14368W        W86793  14.290   9.612   0.166
14369W        W86794  10.328  16.036  13.552
14370W        W86795  44.212   6.028  10.239
14371W        W86796  27.099  25.819   1.796
14372W        W86797  20.306   3.329   0.752
14373W        W86798  31.473  24.693  13.349
14374W        W86799   1.332   9.603  12.961
14375W        W86800   8.730  18.094  12.311
14376W        W86801  43.801  22.178  14.067
14377W        W86802  30.111  14.257  13.372
14378W        W86803  14.959   0.964  12.198
14379W        W86804  17.088  42.807   0.949
14380W        W86805  28.127  32.156   1.327
14381W        W86806   3.290   2.705   2.780
14382W        W86807  15.704  40.526  13.321
14383W        W86808  19.713  32.146  14.474
14384W        W86809  39.376  19.663   1.287
14385W        W86810   9.164  38.370   2.200
14386W        W86811  27.351  23.723  12.933
14387W        W86812  35.185  22.186  14.352
14388W        W86813  13.781  35.484   1.194
14389W        W86814   7.458  19.356   3.098
14390W        W86815   5.335  28.716   3.287
14391W        W86816  37.994  17.707  13.008
14392W        W86817  16.555   1.743   4.362
14393W        W86818   6.432   9.249   1.449
14394W        W86819  18.879  12.457   4.073
14395W        W86820  14.255   2.426   2.885
14396W        W86821  15.044   9.203  13.795
14397W        W86822  22.549  22.322   0.790
14398W        W86823  39.268  43.056  14.264
14399W        W86824   0.306  10.833  12.640
14400W        W86825  32.422  15.339  13.597
14401W        W86826  21.784  26.186   2.209
14402W        W86827  36.702  31.965  14.917
14403W        W86828  10.933  44.961   0.344
14404W        W86829  14.951  20.946   3.135
14405W        W86830  24.233  41.211  12.366
14406W        W86831   8.685  26.663  12.912
14407W        W86832   3.706  11.225   0.910
14408W        W86833  34.570  34.374   4.326
14409W        W86834  25.516   5.198   3.325
14410W        W86835  33.962  11.240   4.592
14411W        W86836  30.234  14.238   3.309
14412W        W86837  12.384  44.845  12.484
14413W        W86838  40.432  26.049  11.640
14414W        W86839  22.464   3.533  11.111
14415W        W86840  42.331  43.894  13.508
14416W        W86841  27.649  16.996   0.448
14417W        W86842   8.164  23.859   1.772
14418W        W86843  39.858   1.047   1.201
14419W        W86844  36.910  27.624   0.407
14420W        W86845  43.558  11.702  12.305
14421W        W86846  26.009  33.009   1.785
14422W        W86847  24.593  10.775   2.162
14423W        W86848  27.648  21.290   1.991
14424W        W86849  36.002  43.076   2.229
14425W        W86850  31.015  35.993   3.506
14426W        W86851  37.525  16.845  13.070
14427W        W86852  27.856  17.064   1.446
14428W        W86853  12.690  16.202  12.977
14429W        W86854  25.841   9.916   1.263
14430W        W86855   6.440   1.819   4.379
14431W        W86856  14.611   8.825   1.687
14432W        W86857  39.251   6.004  11.876
14433W        W86858   7.882  13.718   4.695
14434W        W86859   6.383  22.182   2.475
14435W        W86860  30.406  33.386  13.865
14436W        W86861   6.949  42.476   4.892
14437W        W86862  19.825  44.333  14.509
14438W        W86863  28.046  37.919  11.368
14439W        W86864  25.235  39.361  11.922
14440W        W86865  13.575   5.516  14.367
14441W        W86866  33.877  16.799  11.812
14442W        W86867  43.420  33.169   1.370
14443W        W86868  36.516  40.144  11.834
14444W        W86869  17.556   4.151  14.868
14445W        W86870  14.145  40.920  12.564
14446W        W86871   2.460   1.261  10.814
14447W        W86872  20.161  16.214  10.485
14448W        W86873   3.563  30.035  13.868
14449W        W86874  35.533   7.237   0.252
14450W        W86875  38.607  37.035   1.409
14451W        W86876   8.945  16.934   5.213
14452W        W86877   3.017  35.807   1.762
14453W        W86878  22.602  40.361  11.017
14454W        W86879  26.115   5.339   2.440
14455W        W86880   0.156   3.185   2.258
14456W        W86881  32.053  16.293   4.192
14457W        W86882   7.261  16.655   1.869
14458W        W86883  27.694  31.212   4.447
14459W        W86884   8.217   0.869   3.872
14460W        W86885  41.806  11.078   1.290
14461W        W86886   0.887  13.226   1.442
14462W        W86887  17.209  26.466  13.022
14463W        W86888  38.393  11.624   2.282
14464W        W86889  28.187  38.402   4.225
14465W        W86890  15.740  35.188  12.025
14466W        W86891   3.642  14.709  10.600
14467W        W86892  33.390  29.189   0.584
14468W        W86893  38.833  13.847  14.944
14469W        W86894   3.978  15.250   0.529
14470W        W86895  22.221   4.362  14.262
14471W        W86896  15.167  16.914  14.144
14472W        W86897  11.236   2.405  10.019
14473W        W86898  13.912  11.104  11.124
14474W        W86899   8.972  14.322   1.987
14475W        W86900  16.758  32.404   2.166
14476W        W86901  29.901  22.325   2.877
14477W        W86902  18.745  38.163   4.133
14478W        W86903  11.841  41.317  11.628
14479W        W86904  27.734   9.836  13.765
14480W        W86905  10.337  41.287   2.810
14481W        W86906  26.208  19.715   0.344
14482W        W86907   3.972  21.631  13.500
14483W        W86908  39.423   9.885  14.954
14484W        W86909  13.910  38.458   4.403
14485W        W86910  44.991  34.102  14.886
14486W        W86911  27.821  37.127  12.548
14487W        W86912   2.702  29.483   2.733
14488W        W86913  43.281  15.016  12.552
14489W        W86914  21.354  33.449  14.729
14490W        W86915  10.680  38.929  13.840
14491W        W86916  41.976   4.833  14.955
14492W        W86917  38.801  28.170  12.497
14493W        W86918  34.906  21.612   3.413
14494W        W86919  44.786  41.319  13.536
14495W        W86920  43.385  40.991   1.272
14496W        W86921  22.576  14.116   3.278
14497W        W86922  28.174  13.735   0.186
14498W        W86923   1.433  29.133  14.249
14499W        W86924  13.075  33.891   2.320
14500W        W86925  14.653   7.128  13.878
14501W        W86926  19.706  24.820   4.696
14502W        W86927  24.111  19.234  10.633
14503W        W86928   6.829   8.778   4.697
14504W        W86929  13.751  26.546   1.189
14505W        W86930  18.667  27.263   2.363
14506W        W86931  14.655   0.372  13.994
14507W        W86932  12.678  40.896  15.000
14508W        W86933  31.518   1.860   4.902
14509W        W86934  40.268  34.976  11.515
14510W        W86935  16.451  32.982   3.290
14511W        W86936  19.234  24.307   4.028
14512W        W86937  42.722   2.428  11.350
14513W        W86938   9.942   6.942   3.301
14514W        W86939  30.924  13.433  14.576
14515W        W86940  29.760  19.566  11.577
14516W        W86941   0.800  19.022  11.557
14517W        W86942   9.973  40.517  14.910
14518W        W86943   5.475   6.409   3.553
14519W        W86944  11.301   4.962   4.197
14520W        W86945  14.826  10.163   1.734
14521W        W86946  37.460  24.064   2.805
14522W        W86947  44.955   4.070   2.238
14523W        W86948  26.958  12.675   4.634
14524W        W86949   0.291  27.131   2.251
14525W        W86950  19.696  29.789   0.293
14526W        W86951   8.963  44.505  11.124
14527W        W86952  33.102  39.331  13.467
14528W        W86953   7.721   9.634   0.291
14529W        W86954   2.823   5.270   3.635
14530W        W86955  29.949  38.628  11.144
14531W        W86956  32.097  31.837  14.490
14532W        W86957   7.315   4.710   1.413
14533W        W86958  23.082  40.493  11.153
14534W        W86959   6.312  26.704   3.796
14535W        W86960  37.547   8.269   2.193
14536W        W86961  21.218  13.060   3.421
14537W        W86962  12.843   6.990  12.832
14538W        W86963  21.789   2.750  10.730
14539W        W86964  14.082  19.136  13.917
14540W        W86965   5.411  32.962   3.486
14541W        W86966  31.582   4.639  12.160
14542W        W86967  20.404   2.171   2.725
14543W        W86968  31.878  14.081   1.341
14544W        W86969  30.191   3.720   1.657
14545W        W86970  26.450  22.275  14.381
14546W        W86971  10.581   6.297   2.842
14547W        W86972  32.473  39.313  11.982
14548W        W86973  11.353  26.511   1.006
14549W        W86974  19.472  24.514  11.183
14550W        W86975   6.741  10.508  10.612
14551W        W86976  36.073  33.936  13.100
14552W        W86977  43.968  33.106   3.594
14553W        W86978  20.852  44.847   3.194
14554W        W86979  39.357   6.475   0.167
14555W        W86980  21.961  38.963  14.498
14556W        W86981  32.875  41.250  14.363
14557W        W86982  34.573  37.629   3.109
14558W        W86983  14.652   7.653  10.716
14559W        W86984  32.352  39.424  13.827
14560W        W86985  22.711  33.307   1.390
14561W        W86986  20.666  28.031   2.842
14562W        W86987  23.043   8.090   1.410
14563W        W86988  18.814  25.259   3.985
14564W        W86989   5.366  38.791  13.891
14565W        W86990  36.657   1.034   3.800
14566W        W86991  25.196  19.280  12.969
14567W        W86992   2.555   8.446  10.596
14568W        W86993  36.575  17.047   0.115
14569W        W86994  22.947  44.976   4.287
14570W        W86995   5.824  19.027  10.624
14571W        W86996  16.375  12.826  12.365
14572W        W86997  30.746   3.645  12.252
14573W        W86998  21.078  34.955  12.904
14574W        W86999  42.525  19.090   4.615
14575W        W87000  26.270  34.698   3.761
14576W        W87001  44.713  15.123  10.823
14577W        W87002  11.116  42.037  14.849
14578W        W87003   8.729  14.599   2.844
14579W        W87004  23.704   6.482  13.145
14580W        W87005  17.671   9.426  13.780
14581W        W87006  36.317  39.410   1.956
14582W        W87007  28.940  20.250  11.909
14583W        W87008   5.230  27.677   2.229
14584W        W87009  15.654  37.700  13.460
14585W        W87010  32.891  43.740   2.420
14586W        W87011  12.984  20.016   0.792
14587W        W87012  32.338   3.386  11.625
14588W        W87013   4.261  42.462   3.786
14589W        W87014  11.456  31.875  14.744
14590W        W87015   0.252  31.000  10.126
14591W        W87016  32.548  19.523   0.903
14592W        W87017   5.374  14.170   3.204
14593W        W87018  25.985  40.238   4.619
14594W        W87019  13.223  35.882   2.838
14595W        W87020   3.750  31.979  13.311
14596W        W87021   4.873  32.916  12.945
14597W        W87022  43.093   6.926   1.436
14598W        W87023  40.243  16.493  12.029
14599W        W87024  44.794  17.969  14.941
14600W        W87025   5.277  27.128  11.061
14601W        W87026  10.748  28.919  11.981
14602W        W87027  36.415   4.880   4.241
14603W        W87028  28.466   2.131   0.304
14604W        W87029  35.909   9.164  10.129
14605W        W87030  16.797  26.637  11.601
14606W        W87031  29.662  39.573  10.490
14607W        W87032  12.649  14.839  11.521
14608W        W87033  31.130  41.345   9.808
14609W        W87034  34.450   2.045  10.707
14610W        W87035  34.683  24.020   1.297
14611W        W87036  13.765  14.819   3.764
14612W        W87037  29.129  16.830   1.879
14613W        W87038  40.364  15.514  13.518
14614W        W87039   5.033  41.425  13.517
14615W        W87040  15.570  14.227  13.113
14616W        W87041   3.846   4.359  10.545
14617W        W87042  42.895  18.132  13.808
14618W        W87043  21.274  30.610   3.171
14619W        W87044  28.614  41.432   4.144
14620W        W87045   5.147  28.299  11.967
14621W        W87046   6.381  23.030   0.214
14622W        W87047  42.748  35.818  11.987
14623W        W87048   8.634  35.794   3.147
14624W        W87049  23.211  41.820  11.550
14625W        W87050  23.020  30.196   2.707
14626W        W87051  42.352  13.305  14.315
14627W        W87052  34.896   3.774   1.861
14628W        W87053  31.996   1.142  11.401
14629W        W87054  43.014   7.824  10.715
14630W        W87055   3.150  44.262   1.277
14631W        W87056  25.049  29.463   3.846
14632W        W87057  13.834  20.245   0.311
14633W        W87058  17.069  21.909  11.557
14634W        W87059   6.081  37.386   4.749
14635W        W87060  26.697  33.586  10.500
14636W        W87061  19.200  36.598   3.560
14637W        W87062  42.836  14.663  14.346
14638W        W87063  43.124   8.427   4.479
14639W        W87064  30.710  16.163  12.936
14640W        W87065  27.422  30.562  11.047
14641W        W87066  11.071  41.349   4.489
14642W        W87067  38.677  33.514   0.910
14643W        W87068  33.848   9.581  13.912
14644W        W87069  17.263  22.887  10.147
14645W        W87070  11.333  24.993  13.872
14646W        W87071  26.479  44.803   3.725
14647W        W87072   9.724  39.007  12.469
14648W        W87073  21.641  32.702  10.978
14649W        W87074  29.211   9.639   2.226
14650W        W87075   2.369  18.561   4.016
14651W        W87076   3.928  26.729   3.610
14652W        W87077  40.769  19.851  11.184
14653W        W87078   9.404  31.485   0.381
14654W        W87079   7.886  13.792  12.733
14655W        W87080  13.846  26.652  11.401
14656W        W87081  22.670   7.844  13.006
14657W        W87082  27.679  27.324   0.609
14658W        W87083   8.611  19.026  14.410
14659W        W87084  43.688   0.201  11.110
14660W        W87085  16.876   2.358   2.890
14661W        W87086  26.939   5.503   1.227
14662W        W87087  27.713  21.943   2.645
14663W        W87088  20.304  35.656  11.895
14664W        W87089  28.109  42.829  14.271
14665W        W87090  31.001  28.250  10.266
14666W        W87091  19.151  18.130  10.762
14667W        W87092   7.434  33.543   3.799
14668W        W87093  19.037   0.913   2.865
14669W        W87094  44.918  24.473   0.744
14670W        W87095   2.181  37.573  11.428
14671W        W87096  34.133   7.344   4.934
14672W        W87097   9.898   4.660  11.085
14673W        W87098  19.118   3.394  13.516
14674W        W87099  44.869  22.472  11.936
14675W        W87100  27.173  21.256   2.195
14676W        W87101  21.110   7.455   1.938
14677W        W87102  20.373  35.528   3.659
14678W        W87103  43.959  30.532  11.595
14679W        W87104   0.421  10.277  11.846
14680W        W87105  32.678   8.724  14.260
14681W        W87106  11.559  38.462  10.296
14682W        W87107  15.042  26.762   0.871
14683W        W87108   4.021  17.823  12.533
14684W        W87109   3.796  39.718  13.437
14685W        W87110   3.273  25.103   1.670
14686W        W87111  34.809  30.882  12.025
14687W        W87112  42.958  28.201  13.540
14688W        W87113  31.928   7.421  14.680
14689W        W87114  13.266  28.809  10.458
14690W        W87115  17.112   7.221   4.040
14691W        W87116  31.878  24.310  14.563
14692W        W87117   1.214   7.878  10.681
14693W        W87118  36.249   1.413   3.565
14694W        W87119  40.825  19.260  14.055
14695W        W87120  35.490  30.315  13.981
14696W        W87121  36.608  30.996  13.099
14697W        W87122  37.864  33.963   4.718
14698W        W87123  17.652  10.660   0.246
14699W        W87124  11.846  34.776  11.924
14700W        W87125  26.323  15.361   0.747
14701W        W87126  27.946  34.449  13.818
14702W        W87127   7.427  27.061  14.214
14703W        W87128  31.518  24.053  14.234
14704W        W87129  34.549   3.165   4.143
14705W        W87130  39.962   0.507  12.514
14706W        W87131  11.090   7.311   0.433
14707W        W87132  31.652  22.773   1.897
14708W        W87133  18.661   5.319  14.277
14709W        W87134  12.017  17.645  11.914
14710W        W87135   8.982  24.046  10.581
14711W        W87136  15.181   2.284   5.158
14712W        W87137  32.388   2.898   4.508
14713W        W87138  36.295  40.883  10.546
14714W        W87139  13.127  33.605   1.894
14715W        W87140  24.536  10.564  10.694
14716W        W87141  32.704  18.190   2.249
14717W        W87142  44.805   5.874  11.871
14718W        W87143  19.798  38.365   2.065
14719W        W87144  18.968  15.381   0.796
14720W        W87145  40.456  10.857   1.486
14721W        W87146  39.323  17.739   3.148
14722W        W87147  15.788  44.013  11.559
14723W        W87148  22.286   4.298  13.391
14724W        W87149   7.997  30.201  11.012
14725W        W87150  25.568  25.737   2.840
14726W        W87151  31.852  35.430   2.923
14727W        W87152  26.098  42.460  10.943
14728W        W87153  29.325   3.378   1.281
14729W        W87154  39.340  32.150  10.198
14730W        W87155  37.206   9.885  13.522
14731W        W87156   2.269  24.482   0.406
14732W        W87157  15.611  15.969  11.621
14733W        W87158  16.625   8.636  10.379
14734W        W87159   7.367  15.603   2.947
14735W        W87160  26.286   4.834  10.556
14736W        W87161  28.768  16.136   1.393
14737W        W87162  18.606  23.092   0.515
14738W        W87163  30.633  34.079   4.468
14739W        W87164   9.204  44.511   2.413
14740W        W87165  13.375  26.602  10.747
14741W        W87166  21.449  19.627  10.857
14742W        W87167  25.635   6.344   2.755
14743W        W87168  36.915   9.265   4.980
14744W        W87169   5.239  26.060  10.654
14745W        W87170  22.530  25.282   3.651
14746W        W87171  20.564  11.678  14.911
14747W        W87172   8.229  39.088   1.255
14748W        W87173  35.992  43.552  12.497
14749W        W87174  40.423   8.279   2.250
14750W        W87175   5.353  30.054  12.826
14751W        W87176  32.599  14.267  14.613
14752W        W87177  28.064  44.993  11.096
14753W        W87178  40.087  21.595  12.523
14754W        W87179  15.897   7.210   3.295
14755W        W87180   2.478  25.596   3.736
14756W        W87181  36.115  20.992   5.239
14757W        W87182  31.429   1.781   0.283
14758W        W87183  17.734   0.769   0.014
14759W        W87184   2.334   2.352   2.379
14760W        W87185  16.863  38.923  11.035
14761W        W87186  17.958  19.227  13.932
14762W        W87187  18.203  16.821   0.435
14763W        W87188  40.489   3.329   3.101
14764W        W87189   4.145  44.355  14.734
14765W        W87190  38.095  13.169  13.027
14766W        W87191  14.624  16.604  11.539
14767W        W87192  30.470  34.001   1.688
14768W        W87193  29.027  18.813  11.663
14769W        W87194  22.782  33.037  12.911
14770W        W87195  40.836  25.622  10.578
14771W        W87196  31.960  32.303  12.887
14772W        W87197  22.094  11.633   5.085
14773W        W87198  21.691  10.363  12.996
14774W        W87199   3.030   9.344  14.325
14775W        W87200  16.842  40.220  11.208
14776W        W87201   4.290   1.777   0.706
14777W        W87202  42.364  15.626   0.777
14778W        W87203  28.388  28.702  11.126
14779W        W87204  29.957  43.449  14.246
14780W        W87205  28.831   1.047  11.308
14781W        W87206   3.187  31.596  10.710
14782W        W87207  22.554  42.366   4.898
14783W        W87208  41.787  41.737  13.366
14784W        W87209  33.117   2.497  14.744
14785W        W87210  25.386  12.256  14.183
14786W        W87211  34.847  29.102   1.308
14787W        W87212  28.365  37.817   4.818
14788W        W87213  16.239  36.820  13.472
14789W        W87214   4.723  39.928  14.440
14790W        W87215  22.286  29.006   4.740
14791W        W87216  18.318   7.857   4.398
14792W        W87217  26.287  24.686  14.859
14793W        W87218  43.479  27.755   0.979
14794W        W87219  12.323  25.604  11.017
14795W        W87220  43.131   6.553   0.246
14796W        W87221  22.075   5.022   4.245
14797W        W87222  30.614  17.574   0.449
14798W        W87223  36.078  33.186  12.450
14799W        W87224   3.858   0.266   3.684
14800W        W87225   6.221  18.995  14.069
14801W        W87226  12.283  11.925   3.812
14802W        W87227  44.849  16.366  11.882
14803W        W87228  17.315   9.712  11.027
14804W        W87229   0.982  12.517   3.659
14805W        W87230  21.225  11.293   1.832
14806W        W87231  15.870  36.465   1.751
14807W        W87232  16.309  27.957   2.604
14808W        W87233  28.227  39.447   3.910
14809W        W87234  27.486  25.113  11.178
14810W        W87235  22.999  12.367   3.760
14811W        W87236  21.962  42.741  12.916
14812W        W87237  33.061  24.528   2.757
14813W        W87238  18.283  28.572   2.555
14814W        W87239  27.479  39.032  10.729
14815W        W87240   1.719  21.159   4.500
14816W        W87241  44.339  26.642  13.101
14817W        W87242  32.760  38.559   1.248
14818W        W87243  11.967  26.370   4.666
14819W        W87244   9.652  41.915  13.900
14820W        W87245  11.809  13.348   2.266
14821W        W87246  30.621  20.811   4.066
14822W        W87247  29.453  15.045  11.234
14823W        W87248  43.686  41.514   2.929
14824W        W87249  12.891  15.806  11.920
14825W        W87250  40.183  34.540  11.122
14826W        W87251   4.505  23.621   9.998
14827W        W87252  43.361   3.338  10.471
14828W        W87253  20.184  19.112  10.902
14829W        W87254  21.294   3.818  14.474
14830W        W87255  38.090  13.490   4.908
14831W        W87256  39.527   6.204   1.723
14832W        W87257  28.255  34.805   4.201
14833W        W87258   7.284   3.338  11.428
14834W        W87259  23.714  25.508  13.780
14835W        W87260  21.197  37.509   5.362
14836W        W87261  36.140  27.150   1.001
14837W        W87262   7.298  39.582   4.318
14838W        W87263  35.812  38.070   1.463
14839W        W87264  24.118  28.710  13.417
14840W        W87265  40.407  15.162  14.436
14841W        W87266  42.353  19.793   1.265
14842W        W87267   3.554   3.294   1.257
14843W        W87268  35.393   1.387  11.658
14844W        W87269  37.005  28.994  13.443
14845W        W87270  34.722   4.936   0.269
14846W        W87271  30.667  43.325   0.487
14847W        W87272   6.910   9.901   1.961
14848W        W87273  37.569  31.329   0.185
14849W        W87274  19.612  13.877  14.551
14850W        W87275  33.725  32.903  14.367
14851W        W87276  19.241  27.084  10.611
14852W        W87277  11.098  24.509  14.931
14853W        W87278  20.601   2.475   2.235
14854W        W87279   4.928  31.528  13.732
14855W        W87280  11.615  37.000   2.166
14856W        W87281  39.340  12.633   4.607
14857W        W87282  39.565  19.961  11.517
14858W        W87283  28.708  11.473   3.249
14859W        W87284  20.593   3.964   1.243
14860W        W87285  20.231  19.264   2.326
14861W        W87286  26.883  23.686   1.314
14862W        W87287  26.835  19.599   4.974
14863W        W87288  30.077  37.628  13.466
14864W        W87289  23.098   4.662  12.563
14865W        W87290  10.409  26.535   4.599
14866W        W87291  18.289  31.215   3.667
14867W        W87292   6.626  31.482   2.779
14868W        W87293  20.724   0.185  13.863
14869W        W87294   3.378  15.157  10.682
14870W        W87295  17.406  44.169   5.133
14871W        W87296  37.418  38.365  11.041
14872W        W87297  38.091  11.837   3.561
14873W        W87298  40.262   5.450  12.916
14874W        W87299  42.799  11.176   3.331
14875W        W87300  26.762  20.767   3.427
14876W        W87301  33.957   0.542   2.572
14877W        W87302  25.341  44.715   2.192
14878W        W87303   1.153  35.073  12.639
14879W        W87304  41.080  21.305   1.119
14880W        W87305  20.303   1.416  14.259
14881W        W87306  28.145   2.722  11.661
14882W        W87307  41.598  36.952   3.591
14883W        W87308  43.867  25.111   1.754
14884W        W87309  30.518  27.352   4.220
14885W        W87310  38.382  28.889   0.484
14886W        W87311  42.384  41.744  13.893
14887W        W87312  22.502  42.749   1.695
14888W        W87313   0.837   3.993   4.760
14889W        W87314  23.432  29.276  13.038
14890W        W87315   0.418  16.857  13.979
14891W        W87316   4.171  24.761  11.203
14892W        W87317  34.037  19.461  12.266
14893W        W87318  30.124   1.346   3.248
14894W        W87319  15.865  38.054  12.338
14895W        W87320   1.705   3.181  13.065
14896W        W87321   8.177  19.162  12.393
14897W        W87322  36.595  41.577  11.038
14898W        W87323  26.164  25.189  14.704
14899W        W87324   2.275  39.695   2.313
14900W        W87325  17.298  28.327   2.747
14901W        W87326  36.093  19.831  10.522
14902W        W87327  19.854  41.839  10.747
14903W        W87328  12.337  23.661   4.945
14904W        W87329  11.414  21.266   3.082
14905W        W87330  16.093  21.030   3.625
14906W        W87331  40.268  27.824   1.862
14907W        W87332  38.397  21.248  13.109
14908W        W87333   1.760   1.303   1.799
14909W        W87334  10.773   4.225   2.876
14910W        W87335  28.160   8.919   0.095
14911W        W87336  19.853   4.938   0.901
14912W        W87337   0.681   3.424   3.268
14913W        W87338  26.239   5.809   2.213
14914W        W87339  33.377  30.870   1.310
14915W        W87340  37.332  12.286   1.438
14916W        W87341  44.072  22.021  13.582
14917W        W87342  25.358  23.443   1.251
14918W        W87343  15.286   7.915   3.220
14919W        W87344  11.867   8.391  11.475
14920W        W87345  16.334  16.570   0.040
14921W        W87346  33.739  10.749   1.320
14922W        W87347   9.135  35.002  14.100
14923W        W87348  23.495   7.658   2.519
14924W        W87349  14.190   6.731   4.570
14925W        W87350  40.420  15.154   1.487
14926W        W87351  33.785  43.409  14.053
14927W        W87352  22.237  37.796   0.408
14928W        W87353  37.037  21.579  10.901
14929W        W87354  35.966  20.532  12.639
14930W        W87355  38.056  13.892  13.823
14931W        W87356   6.223  18.127   2.358
14932W        W87357   5.436   9.229   1.281
14933W        W87358  36.404   8.716  12.947
14934W        W87359  18.209   2.816  11.182
14935W        W87360  10.088  42.578   4.432
14936W        W87361   5.877  30.848  14.507
14937W        W87362  16.031  12.480  13.388
14938W        W87363  42.510  43.064   4.038
14939W        W87364   8.712  25.916  13.829
14940W        W87365  41.521  18.678   1.664
14941W        W87366  11.574  21.539   4.595
14942W        W87367   0.292  38.141   0.208
14943W        W87368  38.173  38.504  13.511
14944W        W87369  21.781  43.331  14.666
14945W        W87370  24.834  25.874  12.561
14946W        W87371  31.570  15.082  13.485
14947W        W87372  40.647  39.749   1.252
14948W        W87373  12.182  10.209  11.371
14949W        W87374  43.447  33.684   3.170
14950W        W87375   9.689  44.303  14.098
14951W        W87376  38.516  12.578   3.505
14952W        W87377  22.821  21.116   4.947
14953W        W87378  24.046  16.140  11.606
14954W        W87379   2.067  23.235  12.609
14955W        W87380  36.977  15.548  13.105
14956W        W87381  11.199  25.698   0.012
14957W        W87382  28.948  43.534   2.735
14958W        W87383   4.768  22.050  11.887
14959W        W87384  34.097  18.389  11.299
14960W        W87385   6.011  10.650   0.024
14961W        W87386  29.035   6.602   1.849
14962W        W87387  17.105  16.210  14.796
14963W        W87388  37.302  34.425  12.088
14964W        W87389  21.755   9.177   0.838
14965W        W87390  41.546  38.489  13.337
14966W        W87391  43.957  18.583  14.463
14967W        W87392  38.957  37.245  10.175
14968W        W87393  30.300   6.638   0.248
14969W        W87394  15.362  44.084   3.356
14970W        W87395  30.629   0.736   3.092
14971W        W87396   5.703  11.145  12.620
14972W        W87397   0.782  18.603   4.752
14973W        W87398   0.989   4.680   1.054
14974W        W87399   4.008  35.986  10.764
14975W        W87400   7.900   8.169  14.404
14976W        W87401  14.547  43.984  14.342
14977W        W87402   2.044  22.401  12.282
14978W        W87403   5.862  37.606   2.476
14979W        W87404   3.314  42.609   0.774
14980W        W87405   1.437  21.524   0.164
14981W        W87406  10.275   0.109  13.187
14982W        W87407   9.824  21.383  13.480
14983W        W87408  24.742  17.494   3.251
14984W        W87409  25.243  43.060  13.838
14985W        W87410  14.404  23.720   4.508
14986W        W87411   6.384  12.425  10.031
14987W        W87412   2.895  34.934  12.622
14988W        W87413  34.579  41.247  14.763
14989W        W87414   5.829  39.429   0.233
14990W        W87415   3.907  44.936   2.725
14991W        W87416  19.817  42.797  11.334
14992W        W87417   6.885  31.849  12.364
14993W        W87418   7.195  43.068   4.776
14994W        W87419  44.565  32.616  12.857
14995W        W87420  29.477  36.810  14.978
14996W        W87421  15.755  19.639   2.795
14997W        W87422  11.756  10.903  13.974
14998W        W87423  19.599   3.996   2.294
14999W        W87424  29.074  28.138  14.309
15000W        W87425  36.607  14.728  13.421
15001W        W87426  41.550   8.707   1.726
15002W        W87427  40.848  20.651   2.250
15003W        W87428   8.873   5.964  14.417
15004W        W87429   6.155  37.023   3.646
15005W        W87430   4.821  13.131  14.219
15006W        W87431  21.982  31.975  10.284
15007W        W87432   5.277  39.971   3.300
15008W        W87433  20.990   3.215  10.025
15009W        W87434  38.831  19.559   0.329
15010W        W87435   5.500  15.999  13.492
15011W        W87436  26.914  14.055   3.204
15012W        W87437  38.950  22.067  13.839
15013W        W87438  30.077  11.818   0.283
15014W        W87439  18.236   4.246   0.659
15015W        W87440  37.145  36.502   4.529
15016W        W87441   7.715  28.260  11.140
15017W        W87442  16.220  39.347  10.707
15018W        W87443  21.035  39.324  14.896
15019W        W87444  13.403  28.617   1.668
15020W        W87445  40.939  23.303  13.138
15021W        W87446  28.557  24.951  14.938
15022W        W87447  36.021  16.065   2.965
15023W        W87448  33.784  25.185   0.544
15024W        W87449  26.164  40.842  11.314
15025W        W87450   4.846  37.081   0.234
15026W        W87451  33.411  16.648  10.119
15027W        W87452   9.240  18.514  10.653
15028W        W87453   1.790  31.965   3.288
15029W        W87454  17.836  10.254   2.683
15030W        W87455  12.295  29.694  11.462
15031W        W87456  16.256  44.283  12.516
15032W        W87457   1.391   1.791  12.579
15033W        W87458  32.377   8.930   5.203
15034W        W87459  32.194   8.609  11.935
15035W        W87460  34.424   5.168   1.483
15036W        W87461   6.946  35.659   2.757
15037W        W87462  39.945  10.133  10.485
15038W        W87463  10.943  21.987  13.780
15039W        W87464  27.065  10.893  14.530
15040W        W87465  22.766  34.077   4.652
15041W        W87466  31.089  38.553  13.889
15042W        W87467   7.301  41.684  14.803
15043W        W87468  19.575   8.302   1.686
15044W        W87469  14.324  40.833   4.792
15045W        W87470   6.451  13.191  13.294
15046W        W87471   6.370  24.979   0.484
15047W        W87472  23.772   3.219   0.946
15048W        W87473   3.381  18.357   4.121
15049W        W87474  44.914   9.173   3.321
15050W        W87475  10.560   8.745   2.837
15051W        W87476  18.671   0.492  10.511
15052W        W87477  24.040  27.791  13.049
15053W        W87478  26.845  44.809  12.669
15054W        W87479  24.671  20.019  10.702
15055W        W87480  26.747  33.094   4.102
15056W        W87481   8.272  29.888   3.660
15057W        W87482  23.173  22.109  10.875
15058W        W87483  12.335  34.902   1.886
15059W        W87484  24.168  19.967  14.473
15060W        W87485  31.312  29.045   0.977
15061W        W87486  15.158  44.417  12.101
15062W        W87487  22.686  11.736  11.559
15063W        W87488  20.673  35.861   0.554
15064W        W87489  30.575  28.020  10.498
15065W        W87490  39.360  33.604   4.809
15066W        W87491  33.358  40.378   3.608
15067W        W87492  10.774  18.318  12.129
15068W        W87493   4.021  37.628   0.297
15069W        W87494  44.033   4.745  13.532
15070W        W87495  41.096   5.250  13.396
15071W        W87496  36.506  33.351   4.469
15072W        W87497  21.884  14.549   5.075
15073W        W87498  24.560  37.895   2.801
15074W        W87499  25.289   1.282  11.540
15075W        W87500  13.582  44.811  11.628
15076W        W87501  30.393  36.797  11.126
15077W        W87502   7.265  19.598  12.502
15078W        W87503  23.034  40.084   3.686
15079W        W87504  17.289   2.489   3.179
15080W        W87505  11.749  42.938   1.388
15081W        W87506  13.922  11.267   1.509
15082W        W87507  11.974  12.731  12.149
15083W        W87508  16.467  36.427   1.028
15084W        W87509   6.817  22.535  13.924
15085W        W87510  28.506  21.716  10.285
15086W        W87511   8.926  23.284  10.867
15087W        W87512  16.783  36.433   3.828
15088W        W87513  42.024   5.290   0.841
15089W        W87514  26.023   6.734   2.186
15090W        W87515  14.636  30.360   3.250
15091W        W87516  27.926  12.749   4.112
15092W        W87517  17.096  25.974   4.216
15093W        W87518  44.084  22.950   4.087
15094W        W87519  15.581  24.034   4.052
15095W        W87520  16.644   5.350  11.389
15096W        W87521  42.278  18.541  14.552
15097W        W87522  17.018   7.693   0.286
15098W        W87523  25.047  28.614  14.942
15099W        W87524   2.645  42.517  12.317
15100W        W87525  14.533  18.139  12.450
15101W        W87526  41.674  25.377  14.439
15102W        W87527  36.228  14.374   0.393
15103W        W87528   4.744  36.212   3.930
15104W        W87529  31.154  10.896   0.901
15105W        W87530  21.013  33.796  14.538
15106W        W87531  41.830  17.067   1.423
15107W        W87532   1.081  43.818   3.255
15108W        W87533  38.622  38.336   4.914
15109W        W87534  29.994  43.081   0.014
15110W        W87535  19.761  44.919   0.204
15111W        W87536  27.540   4.272   4.139
15112W        W87537   3.278  22.187   4.149
15113W        W87538   7.405  13.122  14.915
15114W        W87539  40.758  34.113   4.059
15115W        W87540  19.523  30.909  12.537
15116W        W87541  21.033  14.564   0.744
15117W        W87542  43.948   1.995  14.410
15118W        W87543  28.638  36.482   3.044
15119W        W87544  30.179  34.620  14.227
15120W        W87545  11.255  24.848  11.260
15121W        W87546  16.183  25.730   4.103
15122W        W87547  24.359  20.427   4.525
15123W        W87548  35.419  34.270   1.985
15124W        W87549  44.723  35.229  10.864
15125W        W87550  21.254  20.838  11.792
15126W        W87551  23.622  42.472  14.385
15127W        W87552  12.037   2.356   4.958
15128W        W87553   3.768  33.085  11.931
15129W        W87554  25.523  18.100  14.766
15130W        W87555  18.798  37.996  11.554
15131W        W87556  42.977   3.828  10.442
15132W        W87557  44.295  34.622  11.263
15133W        W87558  27.868  35.679  10.519
15134W        W87559  35.315  24.419   0.707
15135W        W87560  35.037  40.857  12.131
15136W        W87561  40.619   3.297  11.770
15137W        W87562  26.622  43.704   2.547
15138W        W87563  23.555  25.612  14.405
15139W        W87564  12.767  23.718   4.612
15140W        W87565   4.848  41.357   2.107
15141W        W87566   2.868  35.100   1.276
15142W        W87567  19.991  29.264  12.969
15143W        W87568  44.209  22.728  10.763
15144W        W87569   0.782  27.945   0.347
15145W        W87570  34.486  22.448   0.675
15146W        W87571  25.932  27.713  13.587
15147W        W87572   5.792  21.871   1.390
15148W        W87573  17.253   9.233  10.436
15149W        W87574  40.827   8.369   0.382
15150W        W87575   3.931  13.247  12.152
15151W        W87576  31.610  37.904   2.270
15152W        W87577   3.789  43.904  11.710
15153W        W87578  37.573   2.390  12.509
15154W        W87579  28.585  43.875   3.224
15155W        W87580  35.827  13.810  12.603
15156W        W87581  40.411  11.523   4.640
15157W        W87582  42.337  41.338   0.433
15158W        W87583  38.365  14.233  12.204
15159W        W87584  23.575  44.250   1.683
15160W        W87585   4.639  22.459  10.227
15161W        W87586   0.344  13.628   4.431
15162W        W87587  22.728  27.572   0.338
15163W        W87588  32.661  30.985  14.966
15164W        W87589  28.663  29.534   3.321
15165W        W87590  31.281  39.860   2.437
15166W        W87591   7.725  17.480  13.352
15167W        W87592  16.111  27.544   3.692
15168W        W87593   7.721  38.974   5.064
15169W        W87594   6.819  13.295   0.922
15170W        W87595  20.026   5.198   3.796
15171W        W87596  30.185   0.835   0.058
15172W        W87597  40.618  35.564   0.914
15173W        W87598   2.334  31.153   2.298
15174W        W87599  11.224  36.127   4.741
15175W        W87600  39.996  19.186  12.396
15176W        W87601  27.422   0.799   0.845
15177W        W87602  34.893   1.316  12.985
15178W        W87603   8.344  33.173  14.589
15179W        W87604  11.658  18.823  12.167
15180W        W87605  37.562  14.421   4.658
15181W        W87606  33.951  18.432  10.294
15182W        W87607  10.739  21.582   3.593
15183W        W87608  33.515   8.457   2.711
15184W        W87609   4.205  22.532   3.588
15185W        W87610   0.855   8.001  11.046
15186W        W87611  15.999  19.746   5.124
15187W        W87612   0.720  35.857  12.491
15188W        W87613   4.503   2.627   0.707
15189W        W87614  35.475   9.676  11.736
15190W        W87615  18.512  28.556  14.403
15191W        W87616  24.637   4.491   3.118
15192W        W87617   9.493  17.841  14.275
15193W        W87618  15.052  43.898  14.387
15194W        W87619  31.773  27.870   1.492
15195W        W87620  42.018  18.122  14.398
15196W        W87621   9.682  39.536  11.488
15197W        W87622  19.766  44.253   3.661
15198W        W87623   6.558  37.544   4.655
15199W        W87624  10.140  23.579   5.189
15200W        W87625  27.730  38.954  14.820
15201W        W87626  19.611  28.088   2.725
15202W        W87627  43.422  24.051  12.908
15203W        W87628  25.229  28.925  11.537
15204W        W87629   5.594  19.826  11.093
15205W        W87630  43.249  18.690  14.382
15206W        W87631  10.990  22.872   0.707
15207W        W87632  33.351   4.808  14.485
15208W        W87633  26.193  18.133   0.330
15209W        W87634  40.356  24.953  10.645
15210W        W87635  10.303  35.946  13.085
15211W        W87636  41.745  27.588  11.102
15212W        W87637  32.010   9.454   0.432
15213W        W87638  22.262   3.486  10.641
15214W        W87639  19.612  36.627   3.222
15215W        W87640   2.733  42.616  10.363
15216W        W87641  15.570   5.176   4.344
15217W        W87642   0.407  17.278  10.663
15218W        W87643   2.143   6.073   1.648
15219W        W87644  10.738  41.360  13.893
15220W        W87645   3.988  14.819   0.821
15221W        W87646   7.720   5.908   3.957
15222W        W87647  33.148   4.372  14.247
15223W        W87648  13.101  40.004   0.739
15224W        W87649  24.264  27.538   0.400
15225W        W87650  35.378  13.713   4.081
15226W        W87651  40.993  37.037  10.807
15227W        W87652  41.476   3.482   0.969
15228W        W87653  32.428  14.514  14.199
15229W        W87654  20.009  12.179  13.856
15230W        W87655  12.641   3.302  11.484
15231W        W87656  43.150  18.753  10.222
15232W        W87657  10.471  17.814   1.236
15233W        W87658   6.126  40.124   1.238
15234W        W87659  28.911  12.830   2.134
15235W        W87660   4.596  15.133   1.452
15236W        W87661  44.752  40.087  13.788
15237W        W87662  15.072  11.132  12.967
15238W        W87663  25.890   3.366   4.619
15239W        W87664  34.835  23.626  12.668
15240W        W87665   3.511   7.916   2.432
15241W        W87666  39.766  42.207   1.516
15242W        W87667  32.419  38.821   2.774
15243W        W87668   3.242  20.209  10.917
15244W        W87669  34.489  32.561  13.974
15245W        W87670  29.378  31.112  11.140
15246W        W87671  33.031   0.803  14.281
15247W        W87672  36.684  31.730   5.002
15248W        W87673   6.365  37.491  13.547
15249W        W87674  41.600  17.131  11.254
15250W        W87675  30.086  28.218  13.292
15251W        W87676  36.158  31.032   4.735
15252W        W87677  20.799  23.620  10.645
15253W        W87678  25.114  31.436  14.031
15254W        W87679  18.249  42.489  12.106
15255W        W87680  20.458   5.573  11.033
15256W        W87681  12.181  32.336   2.489
15257W        W87682   9.782  12.120   0.414
15258W        W87683  30.204  22.326  14.930
15259W        W87684  27.901   5.780  11.963
15260W        W87685  28.459  11.788   4.879
15261W        W87686  13.992  14.578  11.025
15262W        W87687  15.207   0.003   0.869
15263W        W87688  36.384  33.419   0.372
15264W        W87689  21.284  13.744   4.038
15265W        W87690  44.245  31.632  14.423
15266W        W87691   8.940  41.893  10.700
15267W        W87692  28.946  17.258  14.122
15268W        W87693  24.255   7.803  13.902
15269W        W87694  13.739   3.187  12.917
15270W        W87695  22.094   0.433  14.846
15271W        W87696   4.893  21.007  14.031
15272W        W87697  44.648   8.308  13.996
15273W        W87698  31.693  34.943   2.857
15274W        W87699  31.575  35.149   0.289
15275W        W87700   6.968  43.256  13.044
15276W        W87701  18.828  38.337   1.365
15277W        W87702   3.671   6.935  14.194
15278W        W87703  28.089  25.447   0.942
15279W        W87704   6.300  19.485  13.931
15280W        W87705  32.902   7.195   3.776
15281W        W87706   1.978  22.073   4.080
15282W        W87707  24.231  35.561   2.276
15283W        W87708  14.619   6.193   0.930
15284W        W87709  25.269  41.932  14.540
15285W        W87710  35.055  38.831  13.092
15286W        W87711  27.780  23.961  10.465
15287W        W87712  15.710  24.261  11.898
15288W        W87713  28.185   6.730   3.307
15289W        W87714   5.132  27.081  10.575
15290W        W87715  24.112  21.241   0.298
15291W        W87716  22.587  19.598  13.367
15292W        W87717  32.036  20.171  11.891
15293W        W87718  18.337   5.810  10.696
15294W        W87719  22.201  37.280   0.395
15295W        W87720  32.820  23.473  14.367
15296W        W87721  35.134  39.844  12.597
15297W        W87722  17.624   6.725  11.956
15298W        W87723  24.987  40.929   2.806
15299W        W87724  10.578  40.698   2.321
15300W        W87725  29.200  29.501  11.634
15301W        W87726  27.188  23.237   4.563
15302W        W87727  13.866  20.207  14.393
15303W        W87728  31.999  29.152   4.289
15304W        W87729  11.472  32.960   3.417
15305W        W87730   5.953  40.373   0.801
15306W        W87731   0.590   7.391  12.985
15307W        W87732  33.531  24.523  14.220
15308W        W87733  21.185   8.580   2.934
15309W        W87734  19.769  20.064   2.182
15310W        W87735  21.612  23.487  12.198
15311W        W87736   3.258  28.132  11.944
15312W        W87737  35.840   7.845   1.624
15313W        W87738   7.244  31.666   3.342
15314W        W87739  12.734  20.290  11.596
15315W        W87740  38.302  37.914  14.256
15316W        W87741  38.644  11.903   2.663
15317W        W87742  14.448  44.937   3.428
15318W        W87743   3.785   4.155  13.841
15319W        W87744  29.579  23.285   2.441
15320W        W87745  28.088  17.564   2.858
15321W        W87746   9.110   3.034  11.527
15322W        W87747  39.951   9.932  14.353
15323W        W87748  28.105  22.256  12.487
15324W        W87749  17.734  43.330   4.643
15325W        W87750  16.252  28.780  13.369
15326W        W87751   2.662  38.587  12.887
15327W        W87752  25.688  36.279   1.771
15328W        W87753  17.084   2.474   4.691
15329W        W87754  28.883  32.204   4.265
15330W        W87755  14.206   4.429   0.149
15331W        W87756  19.308  11.178  12.015
15332W        W87757  43.436   0.476  13.546
15333W        W87758  29.467  20.060   3.964
15334W        W87759  13.287  24.910   4.218
15335W        W87760  29.161  43.515   3.735
15336W        W87761  42.321  29.001  14.331
15337W        W87762  28.942   6.304  13.759
15338W        W87763  26.167  26.036   4.672
15339W        W87764  39.927  43.181   4.548
15340W        W87765  17.635  40.870  10.762
15341W        W87766  18.332  29.440  12.312
15342W        W87767  14.804  42.066   0.483
15343W        W87768   1.055  18.950  14.433
15344W        W87769  23.472  18.321   3.214
15345W        W87770  40.591  17.768   2.834
15346W        W87771  40.967   0.047   0.814
15347W        W87772   2.765  28.478  14.954
15348W        W87773  44.756  33.051   9.867
15349W        W87774  27.146   5.184  12.086
15350W        W87775  34.630  14.516   2.455
15351W        W87776  39.513  37.542  12.568
15352W        W87777  37.830  29.672   0.830
15353W        W87778  27.212   4.299  12.085
15354W        W87779   2.493  31.149  14.858
15355W        W87780  17.692  29.953   1.390
15356W        W87781  27.419  23.214  12.039
15357W        W87782  35.832  37.568   1.248
15358W        W87783  21.908  27.734   3.672
15359W        W87784  13.277  23.136   1.864
15360W        W87785  21.267  43.204   3.938
15361W        W87786  15.712  24.944  13.474
15362W        W87787  12.736  28.022   1.684
15363W        W87788   3.519  33.131   4.833
15364W        W87789  33.096  34.487  11.714
15365W        W87790   3.778  23.447  12.358
15366W        W87791   8.660  28.552  13.582
15367W        W87792   8.647  19.801   1.519
15368W        W87793  31.562  36.550   1.382
15369W        W87794  38.537  22.662  13.510
15370W        W87795  22.048   8.202   4.075
15371W        W87796   6.599   3.121   4.307
15372W        W87797  11.238  33.423   2.285
15373W        W87798   5.941  43.070   4.279
15374W        W87799  26.340   2.122  11.246
15375W        W87800  38.375  30.316  10.718
15376W        W87801  32.026  40.305  13.957
15377W        W87802  44.975  27.174   2.708
15378W        W87803  10.554  12.380   2.004
15379W        W87804  16.228  35.924   2.777
15380W        W87805  32.609  25.678  12.831
15381W        W87806  24.059  24.561  13.451
15382W        W87807  40.758  15.634   2.436
15383W        W87808  28.900  43.673  11.020
15384W        W87809  17.894  20.269  14.497
15385W        W87810   1.717   0.856   1.505
15386W        W87811  33.483  43.109  12.005
15387W        W87812  23.257  26.593  12.543
15388W        W87813  31.186   2.557   1.368
15389W        W87814  32.107  22.171   2.956
15390W        W87815  32.517  12.124   3.219
15391W        W87816   4.651  42.268  10.764
15392W        W87817  22.418  11.765  13.994
15393W        W87818  17.712  34.125  11.567
15394W        W87819  25.894  11.157  12.374
15395W        W87820  32.877  34.784   0.807
15396W        W87821  31.119  33.608  14.401
15397W        W87822   4.803   2.853   3.823
15398W        W87823  19.753  18.568   2.325
15399W        W87824  10.088  37.858   4.277
15400W        W87825  31.498  31.023   2.730
15401W        W87826  37.816  35.566  11.424
15402W        W87827   3.630  19.777  12.505
15403W        W87828  18.359  10.370  14.494
15404W        W87829  20.134   9.752  13.966
15405W        W87830  24.690  23.775  13.530
15406W        W87831  37.478  22.637  13.537
15407W        W87832  43.076  37.310  10.625
15408W        W87833  35.594  35.456  12.452
15409W        W87834  43.636  14.903   1.694
15410W        W87835  14.852   1.594  13.432
15411W        W87836  29.984  23.631   4.597
15412W        W87837  10.734  42.797  11.451
15413W        W87838  25.430  14.102   9.821
15414W        W87839  31.941  22.846   4.999
15415W        W87840   4.111  32.163  12.026
15416W        W87841  34.340  32.019   1.310
15417W        W87842  27.314  18.151  13.446
15418W        W87843  22.948  24.149  11.047
15419W        W87844  15.376  43.781   0.299
15420W        W87845   8.235  38.790  14.936
15421W        W87846  24.064  44.073   4.807
15422W        W87847  34.464  14.139   3.725
15423W        W87848  37.037   2.438   4.627
15424W        W87849   2.424   8.174  13.556
15425W        W87850  32.099  16.674  11.707
15426W        W87851  16.694  30.953  11.541
15427W        W87852  43.868   5.304   2.258
15428W        W87853  31.090  18.080  13.952
15429W        W87854  20.629   5.216   3.174
15430W        W87855  33.043  30.113  11.577
15431W        W87856  33.170  39.775  14.253
15432W        W87857  17.298  26.026   4.962
15433W        W87858  27.982  37.981  10.869
15434W        W87859  42.112  20.475   3.256
15435W        W87860  25.195  17.103   4.505
15436W        W87861  14.241   4.909   0.842
15437W        W87862  43.435   3.286   4.607
15438W        W87863  10.832  27.511   1.781
15439W        W87864   4.460   5.159   3.642
15440W        W87865  37.838  34.377   3.131
15441W        W87866  24.125  23.753  10.784
15442W        W87867  36.039   8.845  10.569
15443W        W87868  31.396  44.955  12.346
15444W        W87869  19.319  31.707   0.047
15445W        W87870  15.086  40.350   4.619
15446W        W87871   6.074   9.793   3.781
15447W        W87872  26.724   3.670  13.082
15448W        W87873   0.486  22.025   0.924
15449W        W87874  42.930  13.610  11.823
15450W        W87875   2.267  34.844   0.353
15451W        W87876  38.033  32.680   1.378
15452W        W87877  40.453  21.378   3.717
15453W        W87878  25.245  20.927   2.333
15454W        W87879   3.776   0.286  14.293
15455W        W87880  28.598  14.781   1.582
15456W        W87881  21.479  39.115  14.625
15457W        W87882  27.476  11.775  11.611
15458W        W87883  26.542  39.257   1.849
15459W        W87884  21.733  32.318  12.317
15460W        W87885  21.474  32.110  10.218
15461W        W87886  26.941   4.138  14.432
15462W        W87887  43.423  18.029  11.066
15463W        W87888  26.152   3.413  10.971
15464W        W87889   2.960  38.531  12.450
15465W        W87890  27.450  42.720   1.477
15466W        W87891  27.782  44.428   2.465
15467W        W87892  34.116  29.981  11.611
15468W        W87893  39.551  40.827  14.493
15469W        W87894  25.218  13.944  14.312
15470W        W87895  33.424  39.461  12.318
15471W        W87896  29.023  39.811  11.967
15472W        W87897  34.357   7.419  10.507
15473W        W87898  41.462  27.969  11.549
15474W        W87899  39.764  35.892  12.609
15475W        W87900  37.588  24.284   0.346
15476W        W87901  29.221  31.252   1.005
15477W        W87902  22.644  41.874  11.461
15478W        W87903  31.929  26.147   2.129
15479W        W87904   5.764   5.684   0.764
15480W        W87905  42.587  37.451  11.359
15481W        W87906   2.884  32.073   4.745
15482W        W87907   5.824   6.705  11.582
15483W        W87908  34.179  34.356   3.539
15484W        W87909  29.464  44.712   2.361
15485W        W87910   4.608  14.398  11.959
15486W        W87911   3.254  38.825  11.538
15487W        W87912   0.769  30.689   2.900
15488W        W87913  10.239   6.711   4.359
15489W        W87914   6.021  13.030  11.144
15490W        W87915  39.987  31.887  12.873
15491W        W87916  11.398  36.944   2.643
15492W        W87917  32.597  13.175   3.336
15493W        W87918   8.427  31.158   1.393
15494W        W87919  41.625  27.203   1.493
15495W        W87920  29.593  34.966  11.797
15496W        W87921  44.483   0.061   4.585
15497W        W87922  29.042   8.902  14.543
15498W        W87923  29.504  10.154  13.857
15499W        W87924  25.729  33.875  14.312
15500W        W87925  35.095  33.091  10.670
15501W        W87926   5.185   0.163   0.418
15502W        W87927  16.708  30.539   3.254
15503W        W87928   8.399  12.160   0.508
15504W        W87929  23.235   3.798   0.369
15505W        W87930   9.679  34.634   3.820
15506W        W87931  22.529  17.094  12.471
15507W        W87932  25.503  13.639   2.186
15508W        W87933  16.210  36.444   2.614
15509W        W87934  42.244  32.151   3.587
15510W        W87935  33.083  19.098   0.101
15511W        W87936  39.214  34.363   2.857
15512W        W87937  32.546   4.000  12.883
15513W        W87938  39.825  43.259   4.034
15514W        W87939  35.109  25.919  14.943
15515W        W87940  20.463  36.442   3.135
15516W        W87941  33.679  40.418   2.632
15517W        W87942  35.909  37.713  13.628
15518W        W87943  43.219  25.611  13.861
15519W        W87944  32.333  25.163   0.038
15520W        W87945   1.305  44.300  12.832
15521W        W87946  15.943  32.049  10.163
15522W        W87947  25.116  22.824  11.971
15523W        W87948  34.599   0.241   3.896
15524W        W87949  42.047  38.064   4.126
15525W        W87950   6.913  20.001  12.525
15526W        W87951  14.781   7.416  12.631
15527W        W87952  21.895  34.842  12.554
15528W        W87953  36.325  36.116   0.703
15529W        W87954  36.426  43.284  12.568
15530W        W87955  37.989   4.613   1.157
15531W        W87956  24.257  35.021   2.160
15532W        W87957   1.342  33.450  14.969
15533W        W87958  26.987  37.585  12.596
15534W        W87959  44.981  35.902   2.861
15535W        W87960  32.957  39.355  14.474
15536W        W87961   1.849  10.901   2.892
15537W        W87962  22.461  39.351  13.819
15538W        W87963  11.395  27.458  14.837
15539W        W87964   1.634  44.334   1.372
15540W        W87965  12.247  41.415   2.739
15541W        W87966  31.878  11.295  14.383
15542W        W87967  12.690   8.339  12.127
15543W        W87968  10.295  30.377  10.943
15544W        W87969  44.374   4.408   4.341
15545W        W87970  17.382  34.008  14.612
15546W        W87971  19.169   9.304  11.631
15547W        W87972  43.542  41.633   2.446
15548W        W87973  21.348  17.117  13.874
15549W        W87974   7.025   1.296  11.080
15550W        W87975  26.675  28.158  10.533
15551W        W87976  10.574  34.903   9.717
15552W        W87977  14.835  44.022   3.148
15553W        W87978  41.740  33.511  13.837
15554W        W87979  24.134  16.042  10.620
15555W        W87980  34.672  12.919   1.776
15556W        W87981  30.523  44.303   4.379
15557W        W87982   7.127  16.207   3.249
15558W        W87983  27.570  22.564   5.018
15559W        W87984  39.203  31.602   2.335
15560W        W87985  35.027  43.279   3.782
15561W        W87986  23.140  39.075   2.655
15562W        W87987  41.349  15.038  13.075
15563W        W87988  21.208   5.172   4.488
15564W        W87989  36.357  21.364  14.204
15565W        W87990   1.615  31.425  14.263
15566W        W87991  43.420  15.313  14.438
15567W        W87992  35.890  22.623  13.587
15568W        W87993   2.301  18.777  14.466
15569W        W87994  22.032  14.236  11.977
15570W        W87995  10.965  11.900  12.028
15571W        W87996   7.445  31.668  11.135
15572W        W87997  40.898  20.289   5.435
15573W        W87998  41.418  30.396  12.076
15574W        W87999  12.359  14.048   2.348
15575W        W88000  31.568  29.679   0.309
15576W        W88001  20.080  20.064   3.700
15577W        W88002  28.141  29.123   4.172
15578W        W88003  15.768  16.034   3.185
15579W        W88004  19.615  27.106   1.281
15580W        W88005   0.513  41.986   2.018
15581W        W88006  18.722  32.379   3.250
15582W        W88007  15.123   7.449  13.429
15583W        W88008  24.164  41.447  13.830
15584W        W88009  16.216  13.927  13.531
15585W        W88010  37.330  25.694   5.080
15586W        W88011  37.605  43.405   0.309
15587W        W88012   3.783  39.863   0.358
15588W        W88013  36.563  20.758   0.881
15589W        W88014  31.619  24.595  14.956
15590W        W88015  20.970  29.687   2.297
15591W        W88016  11.016  38.798  10.480
15592W        W88017   7.694  23.659  13.786
15593W        W88018  21.261  16.233  14.097
15594W        W88019  30.984  35.875   0.429
15595W        W88020  43.999  27.962  13.804
15596W        W88021  38.870  44.458   3.256
15597W        W88022  10.420  27.964  13.791
15598W        W88023  29.748   0.567   3.123
15599W        W88024  12.673   0.196  11.606
15600W        W88025  17.909  28.846   3.729
15601W        W88026  44.599  43.540   1.316
15602W        W88027  18.486  44.349   3.266
15603W        W88028   7.915  12.230  14.124
15604W        W88029   8.607  28.005   0.681
15605W        W88030  35.994  39.278  12.920
15606W        W88031   5.102  14.125   4.593
15607W        W88032   3.982  44.657   3.147
15608W        W88033   4.811  28.502  14.746
15609W        W88034   4.853  38.473   0.509
15610W        W88035  28.960   8.054   2.146
15611W        W88036  39.273  14.118  14.904
15612W        W88037   0.980   2.012  10.308
15613W        W88038  34.002  39.778   3.819
15614W        W88039  21.564   6.423  12.995
15615W        W88040  24.030  35.500  14.463
15616W        W88041  26.708  34.520  12.146
15617W        W88042  11.307  28.899  11.419
15618W        W88043   6.322  16.014   2.629
15619W        W88044  13.438   0.520   3.967
15620W        W88045  23.974  22.486  14.107
15621W        W88046  31.402   2.302   2.424
15622W        W88047  15.702  36.823  13.497
15623W        W88048   1.304  44.046  11.188
15624W        W88049  23.253   9.346   5.378
15625W        W88050  31.499  15.373  11.676
15626W        W88051  21.953  29.181   1.073
15627W        W88052  15.344  28.377  11.534
15628W        W88053  30.072  25.667   4.401
15629W        W88054   7.849  44.677   2.679
15630W        W88055  21.982  18.538   4.170
15631W        W88056   4.283  42.746   4.228
15632W        W88057  33.659  24.998   1.543
15633W        W88058  27.581  14.286   2.684
15634W        W88059  18.390  24.619  12.111
15635W        W88060   5.361  31.004  12.137
15636W        W88061  37.265  43.439  11.243
15637W        W88062   5.491   9.730  13.974
15638W        W88063  35.893  24.636   3.100
15639W        W88064  18.179  30.887   4.082
15640W        W88065  21.247   4.731  12.445
15641W        W88066  26.613  10.278   0.488
15642W        W88067   2.967  16.249  14.223
15643W        W88068  40.752  41.850   4.043
15644W        W88069  41.946  20.708  13.000
15645W        W88070  16.175  16.045   1.844
15646W        W88071  34.492   7.178   3.804
15647W        W88072  23.453   5.421  12.400
15648W        W88073  42.546   6.856  10.862
15649W        W88074   8.162  35.676   2.304
15650W        W88075  19.516  29.608  13.425
15651W        W88076  34.601  35.369   4.263
15652W        W88077  18.714  16.370   4.636
15653W        W88078   6.619  22.602   2.705
15654W        W88079  32.641  42.369   2.532
15655W        W88080  19.839  22.637  11.664
15656W        W88081  30.486  17.156   4.087
15657W        W88082  44.773   6.865   2.499
15658W        W88083  41.879   7.417  10.716
15659W        W88084  29.105   9.338  12.431
15660W        W88085  16.257  20.167   2.280
15661W        W88086   8.678  36.040   3.604
15662W        W88087  29.475  21.241   4.544
15663W        W88088   5.726   2.830   3.664
15664W        W88089  38.750   7.660  11.540
15665W        W88090  39.785  38.993   0.784
15666W        W88091  26.434   3.353  11.431
15667W        W88092  38.481  22.410   1.720
15668W        W88093  33.547   5.331   1.819
15669W        W88094  27.701   5.775  10.906
15670W        W88095  10.242  16.182   1.796
15671W        W88096  36.067  24.161  10.799
15672W        W88097   4.965   2.014  12.606
15673W        W88098  20.601  38.039   2.210
15674W        W88099  20.477  12.410  12.796
15675W        W88100  11.107  31.716  14.353
15676W        W88101  13.700  39.972   1.212
15677W        W88102  12.100  20.450   2.373
15678W        W88103  27.871  25.182  13.345
15679W        W88104  44.320  21.103   0.215
15680W        W88105  31.024   9.811   1.618
15681W        W88106  42.748  34.161   2.340
15682W        W88107  29.462  41.823  14.467
15683W        W88108  35.880  30.890  11.549
15684W        W88109  23.331  42.248  14.751
15685W        W88110  35.626   8.841   4.101
15686W        W88111  33.488  28.162   4.328
15687W        W88112  20.761  11.159   5.414
15688W        W88113  38.934  23.523  11.170
15689W        W88114  38.490  34.108   3.978
15690W        W88115  32.040   1.279   2.224
15691W        W88116  15.305  38.927  13.011
15692W        W88117  39.259   7.353   1.368
15693W        W88118  26.222   1.681   0.369
15694W        W88119  17.359  22.994  13.280
15695W        W88120  40.820  21.047  10.620
15696W        W88121  16.735  37.007  14.374
15697W        W88122  17.771  37.410  12.971
15698W        W88123   8.898  40.872  12.502
15699W        W88124  29.638  33.982   0.177
15700W        W88125  21.589  44.451  14.399
15701W        W88126  12.833   8.241  11.572
15702W        W88127   2.266  28.505   1.045
15703W        W88128  41.968  15.683   4.588
15704W        W88129   6.421  38.833   2.801
15705W        W88130  16.307   6.220  12.972
15706W        W88131  27.545  32.583   3.353
15707W        W88132  23.934  12.659  11.030
15708W        W88133  31.195   7.051   2.768
15709W        W88134  13.914   7.873   3.223
15710W        W88135  39.253   6.963   2.673
15711W        W88136   4.669   8.156  14.841
15712W        W88137   9.687  37.447   2.204
15713W        W88138  23.564  25.428   3.597
15714W        W88139  10.161  43.511   2.322
15715W        W88140  44.459  28.442  14.223
15716W        W88141  32.286   6.266  14.813
15717W        W88142  35.002  35.509  13.269
15718W        W88143  31.775  15.352  10.668
15719W        W88144   1.689  40.728  11.987
15720W        W88145  42.337  13.108   4.605
15721W        W88146  44.587  33.923   4.500
15722W        W88147  33.822  10.200   4.597
15723W        W88148  10.708   2.800   4.828
15724W        W88149  18.428  26.531   4.999
15725W        W88150  28.399  35.304  11.715
15726W        W88151  30.909  33.849   1.479
15727W        W88152  28.958  25.132   0.273
15728W        W88153  17.775  32.486  13.425
15729W        W88154  27.001   7.337  11.856
15730W        W88155  22.128   6.748   3.228
15731W        W88156  30.102   0.687   4.219
15732W        W88157  30.637   8.579   1.783
15733W        W88158  33.867  14.714   2.719
15734W        W88159  26.479  25.264   4.539
15735W        W88160   7.221  36.459  13.275
15736W        W88161   8.403  11.880  11.986
15737W        W88162  36.882  30.928  14.589
15738W        W88163  43.016   7.527  14.970
15739W        W88164  24.584  10.360   1.305
15740W        W88165  21.923  18.231   0.851
15741W        W88166   3.006  26.562  12.991
15742W        W88167   5.266  40.081  12.447
15743W        W88168  42.407  21.681  14.276
15744W        W88169  23.127  37.770   3.169
15745W        W88170  33.055  29.913  10.766
15746W        W88171   0.720   7.806  11.498
15747W        W88172   0.945   9.877   4.724
15748W        W88173  15.178  14.767   1.304
15749W        W88174  42.195  44.525   4.177
15750W        W88175  37.873  22.241   2.658
15751W        W88176   1.870  28.117   4.049
15752W        W88177  37.579   3.744  14.886
15753W        W88178  24.484  41.962   0.947
15754W        W88179   0.074  25.872   4.204
15755W        W88180  39.846   4.694   1.879
15756W        W88181   2.363  34.081  13.054
15757W        W88182   2.194  43.424   4.420
15758W        W88183  26.628  12.150  14.346
15759W        W88184   9.604   5.942  12.091
15760W        W88185  41.933  25.186  14.006
15761W        W88186  39.361  35.078   5.001
15762W        W88187  31.145  15.186  14.462
15763W        W88188  35.438  30.653   1.948
15764W        W88189  10.763  44.729  11.021
15765W        W88190  25.100  39.778   1.404
15766W        W88191   3.075  17.334   2.859
15767W        W88192   4.732  30.466  11.103
15768W        W88193  31.855  24.597   4.085
15769W        W88194  22.769  30.526   3.300
15770W        W88195  18.039  26.621  10.990
15771W        W88196  35.339  23.910   4.141
15772W        W88197  20.096  43.370  10.549
15773W        W88198  20.697  33.840   1.910
15774W        W88199   2.445  44.470  12.443
15775W        W88200  14.276  31.965   1.303
15776W        W88201  24.343  14.300   5.266
15777W        W88202  31.278  41.713   3.783
15778W        W88203   8.904  11.400   2.225
15779W        W88204  28.684  14.215   3.187
15780W        W88205  16.311  43.429   4.744
15781W        W88206  31.961  42.287  14.926
15782W        W88207  30.880  19.788   3.755
15783W        W88208  17.495   7.647  12.052
15784W        W88209  41.067  12.884   0.481
15785W        W88210  33.004  43.910   1.940
15786W        W88211   6.925  13.155   2.222
15787W        W88212  10.768  13.745  13.367
15788W        W88213   1.390  31.334  11.988
15789W        W88214  36.509   8.611  14.459
15790W        W88215  10.910  29.717  10.661
15791W        W88216   1.381  27.558   0.970
15792W        W88217   9.549  28.954  12.805
15793W        W88218  31.701  40.146   2.644
15794W        W88219  28.922   1.753  10.722
15795W        W88220   4.735  41.524   3.639
15796W        W88221   5.084  38.594   3.659
15797W        W88222  22.092  18.002   3.344
15798W        W88223  18.750  24.482  12.546
15799W        W88224  42.827  15.697  12.921
15800W        W88225  21.595  16.312  11.332
15801W        W88226  11.276  43.279   2.721
15802W        W88227   8.253  27.832   1.892
15803W        W88228  13.281   7.735   3.787
15804W        W88229  28.893  15.830  13.032
15805W        W88230  27.495  44.910  11.250
15806W        W88231  12.600  34.427  10.472
15807W        W88232  41.557   5.356  10.685
15808W        W88233  15.707  29.273   2.619
15809W        W88234  22.941  40.439  10.643
15810W        W88235  36.350  36.034  12.429
15811W        W88236   7.016  13.309  12.471
15812W        W88237  12.406  33.217   3.227
15813W        W88238  15.131  25.101   1.140
15814W        W88239  25.354  26.665  11.394
15815W        W88240  38.042   7.304   1.730
15816W        W88241  18.830  42.613   4.564
15817W        W88242  13.146  43.816   4.588
15818W        W88243  28.537  24.164   0.434
15819W        W88244  15.899  14.271   0.364
15820W        W88245  26.999   4.433   4.952
15821W        W88246  26.923   7.196  11.033
15822W        W88247   4.403  13.200   0.483
15823W        W88248  43.922  22.493   3.880
15824W        W88249  44.891  21.610   2.802
15825W        W88250  20.992  17.734   1.376
15826W        W88251  40.110  12.264   2.275
15827W        W88252  36.378  13.658   1.328
15828W        W88253   9.906  42.980   2.770
15829W        W88254  23.714   4.007   3.376
15830W        W88255  12.887  15.290  11.729
15831W        W88256  34.305   9.857   2.282
15832W        W88257   9.646  29.866   1.035
15833W        W88258  32.004  43.993   4.039
15834W        W88259  14.159  32.324   0.361
15835W        W88260  21.813   6.775   0.916
15836W        W88261  18.590  23.828   1.650
15837W        W88262  15.526  36.159  12.087
15838W        W88263   3.687  20.781   0.820
15839W        W88264  12.323   6.157   2.356
15840W        W88265  29.768  12.377  12.212
15841W        W88266  13.908  15.164   4.474
15842W        W88267  26.507  19.542  10.685
15843W        W88268  40.165  17.859   1.846
15844W        W88269  44.889  28.888  14.751
15845W        W88270  38.915   0.926  10.101
15846W        W88271  11.642  37.345  13.823
15847W        W88272  35.258  38.261  13.564
15848W        W88273  35.166  32.822   2.641
15849W        W88274   6.356   7.173  11.963
15850W        W88275  36.540  18.210  10.428
15851W        W88276  16.135  35.320  13.002
15852W        W88277  31.929   4.377  11.307
15853W        W88278  13.336  36.622   0.925
15854W        W88279  40.726  40.429   4.933
15855W        W88280  25.571   1.206  11.120
15856W        W88281  23.297   0.259   0.377
15857W        W88282   2.990   1.316   4.737
15858W        W88283   4.834  29.516  10.919
15859W        W88284   3.536  12.976  13.421
15860W        W88285  12.587  12.747  13.514
15861W        W88286  33.417   1.804  11.482
15862W        W88287  41.493  33.512  12.332
15863W        W88288   4.817  15.816   4.551
15864W        W88289   0.181  18.612   1.647
15865W        W88290   0.485  40.811  13.878
15866W        W88291  37.867  31.315   1.854
15867W        W88292   2.233  36.613   0.862
15868W        W88293   7.874  16.177   1.864
15869W        W88294  42.950  15.581  10.589
15870W        W88295   2.465  40.026  11.107
15871W        W88296   8.718  14.192   0.554
15872W        W88297   2.504  34.359  14.023
15873W        W88298   7.206  23.468  11.846
15874W        W88299  32.356  32.478  14.812
15875W        W88300  36.340  28.419  10.547
15876W        W88301  16.586  38.287  12.331
15877W        W88302  24.060   5.126   4.656
15878W        W88303  30.209  15.526  14.037
15879W        W88304  43.688  10.316   0.944
15880W        W88305   2.287  17.445  11.787
15881W        W88306  42.025  16.382  12.469
15882W        W88307   5.111  28.692   3.767
15883W        W88308  23.768  31.225   1.880
15884W        W88309  35.468  36.379   2.761
15885W        W88310  23.597  44.798   0.548
15886W        W88311  33.860  41.535  11.969
15887W        W88312   6.547  22.028   0.702
15888W        W88313  24.239  20.222  11.558
15889W        W88314   5.793  19.548  10.681
15890W        W88315  28.092   5.875  12.476
15891W        W88316  25.021   1.167  11.974
15892W        W88317  27.369  14.764   3.405
15893W        W88318  37.570  44.052  12.558
15894W        W88319  21.382  13.049  11.721
15895W        W88320  40.409  29.430  11.457
15896W        W88321  41.357  18.551  12.052
15897W        W88322  25.184   0.400  14.531
15898W        W88323  14.717  40.973  14.720
15899W        W88324   9.942  42.833   0.968
15900W        W88325  30.238   0.882   1.322
15901W        W88326  15.155   9.645   1.231
15902W        W88327  23.940   9.407  10.396
15903W        W88328   0.233   6.255  11.861
15904W        W88329  23.852  26.030  14.471
15905W        W88330  16.496   4.962   0.756
15906W        W88331  31.036   6.955  13.977
15907W        W88332  38.874  29.907  12.761
15908W        W88333   6.251  36.110  12.500
15909W        W88334  30.164  25.963   4.827
15910W        W88335   7.002  16.437  12.974
15911W        W88336  36.254   8.475   0.352
15912W        W88337  30.562  12.812   1.364
15913W        W88338  32.180  31.644  13.932
15914W        W88339  18.081  27.478   0.688
15915W        W88340  35.437  23.054  10.641
15916W        W88341  28.476  38.805   1.049
15917W        W88342  43.396  23.741  11.468
15918W        W88343   6.228  13.768  12.464
15919W        W88344  29.602  18.510   0.212
15920W        W88345   4.166  44.490   1.330
15921W        W88346  33.897   6.514  10.676
15922W        W88347  29.683  28.535  13.007
15923W        W88348  18.723   1.741  11.768
15924W        W88349  15.051   8.857   4.654
15925W        W88350  42.873  20.126   2.851
15926W        W88351  21.223  26.870  11.863
15927W        W88352  26.182  42.557   0.333
15928W        W88353  32.452  30.116  11.396
15929W        W88354   5.553  20.782  13.235
15930W        W88355   9.124  41.343  14.167
15931W        W88356  10.290   2.150   0.214
15932W        W88357  10.331  16.571   2.141
15933W        W88358  27.765   8.072  11.104
15934W        W88359  17.210   4.998  14.971
15935W        W88360   5.499  41.752   2.200
15936W        W88361  24.458  10.277  13.365
15937W        W88362  33.711  12.287  13.089
15938W        W88363  25.448  36.439  12.502
15939W        W88364  36.086   2.872  14.615
15940W        W88365  24.160  12.906  13.051
15941W        W88366  32.531   7.719  12.256
15942W        W88367  44.914  15.595  13.653
15943W        W88368  12.678  25.216  13.777
15944W        W88369  30.881  11.762   3.040
15945W        W88370  26.208  28.100  14.826
15946W        W88371  44.737  25.451   4.201
15947W        W88372  14.706  16.177  14.018
15948W        W88373  35.233  25.573  12.523
15949W        W88374  16.860  21.222   1.887
15950W        W88375   8.249  30.550   2.861
15951W        W88376  28.662  39.035  13.073
15952W        W88377   4.404  12.764  13.337
15953W        W88378  17.647   1.391   2.725
15954W        W88379   3.875   6.866  14.651
15955W        W88380  42.595   4.160   0.143
15956W        W88381  12.629  17.362  11.055
15957W        W88382  32.474  17.076  12.424
15958W        W88383  24.261   8.156  14.777
15959W        W88384   7.877  16.199  10.539
15960W        W88385  16.140   2.426   2.060
15961W        W88386  25.255   5.363  11.113
15962W        W88387  18.358  40.781   3.264
15963W        W88388  11.265  34.953   4.723
15964W        W88389  28.412  27.414   2.394
15965W        W88390   4.742  27.724  13.036
15966W        W88391  27.686   7.904   0.421
15967W        W88392  18.603  10.986   4.136
15968W        W88393  17.433  21.249   3.637
15969W        W88394  19.322  29.291   3.768
15970W        W88395  12.799  11.388   0.834
15971W        W88396  30.419  38.075  13.372
15972W        W88397  14.167  22.342   3.590
15973W        W88398  24.375  24.030   4.200
15974W        W88399  11.368  39.462   0.994
15975W        W88400  26.557  18.050   3.897
15976W        W88401   9.322  11.747  10.548
15977W        W88402   9.693  13.403   4.549
15978W        W88403  19.646   1.294   4.143
15979W        W88404  30.622  14.229   3.691
15980W        W88405  19.238  44.850   2.709
15981W        W88406  23.753   2.590  11.172
15982W        W88407  23.183  26.892   2.517
15983W        W88408   2.293  14.821   4.144
15984W        W88409  34.947  25.734  12.935
15985W        W88410  21.869  17.945   1.280
15986W        W88411  34.067   4.417  14.346
15987W        W88412  25.169  34.087  11.106
15988W        W88413  25.937  16.815   0.837
15989W        W88414  22.007  14.342  12.900
15990W        W88415  10.874  42.001   2.768
15991W        W88416  13.199  35.594  14.816
15992W        W88417  15.577  28.397   2.629
15993W        W88418  12.590  13.311   4.848
15994W        W88419  40.242  39.402   3.867
15995W        W88420  31.910  36.448  10.751
15996W        W88421   6.491  42.303  12.873
15997W        W88422  36.483  35.200   4.958
15998W        W88423   7.285  22.762  14.495
15999W        W88424  22.056  14.254   2.217
16000W        W88425  13.400  18.141  14.706
16001W        W88426   6.409   5.775  12.048
16002W        W88427  25.039  26.256   1.379
16003W        W88428  11.223  18.522  14.619
16004W        W88429  32.036  25.175  12.922
16005W        W88430  12.256  32.524  10.677
16006W        W88431  25.584  37.539  10.736
16007W        W88432  12.319   1.872   4.165
16008W        W88433  18.495  15.646   2.121
16009W        W88434  10.979   5.253  11.565
16010W        W88435  36.087   3.963   0.501
16011W        W88436  16.068  22.405   0.712
16012W        W88437  17.503  10.273   0.936
16013W        W88438  22.960  44.295   4.739
16014W        W88439  26.133  35.879  14.453
16015W        W88440  32.493   2.369  13.969
16016W        W88441  13.766   5.442   4.467
16017W        W88442   1.537   3.278   2.746
16018W        W88443  33.346  34.076   0.559
16019W        W88444  17.222  38.047  11.995
16020W        W88445  32.091   4.057   3.275
16021W        W88446   5.120  43.705  14.952
16022W        W88447  23.808  29.508   4.234
16023W        W88448  40.316  11.374  14.630
16024W        W88449  35.896  31.881   3.049
16025W        W88450   5.908  36.379   3.066
16026W        W88451  37.525   2.880   0.734
16027W        W88452  44.427  30.136   4.297
16028W        W88453  11.848  11.100   2.314
16029W        W88454  20.059  29.985  11.988
16030W        W88455  44.696  22.016   1.297
16031W        W88456   3.585  12.028  13.399
16032W        W88457  37.796  37.418   1.258
16033W        W88458  17.168  17.558   1.848
16034W        W88459  31.186   8.559  14.802
16035W        W88460  15.342  19.534  11.221
16036W        W88461  10.647  44.912   4.721
16037W        W88462  35.448  28.896  11.445
16038W        W88463  14.633  27.157  12.713
16039W        W88464   0.723  12.131   0.532
16040W        W88465  19.481  22.812  14.326
16041W        W88466   9.175  28.016  10.701
16042W        W88467   1.988  21.571  11.644
16043W        W88468  26.240   0.523  12.398
16044W        W88469  37.908  17.240   1.026
16045W        W88470  35.871  42.985  14.860
16046W        W88471  11.819   8.683   4.529
16047W        W88472  17.183  11.581   3.230
16048W        W88473  42.395  44.421  12.247
16049W        W88474  44.334   0.286   1.399
16050W        W88475  17.574   3.964  14.299
16051W        W88476  32.107  16.511  13.126
16052W        W88477  38.696  35.062  13.179
16053W        W88478   5.718  16.506   3.695
16054W        W88479  13.135  37.400   0.385
16055W        W88480  20.311  30.632   1.388
16056W        W88481  34.143  17.245   3.659
16057W        W88482   7.134  40.452   1.460
16058W        W88483  19.094  27.168  11.658
16059W        W88484  20.738   2.236  11.519
16060W        W88485  19.265  33.464  13.167
16061W        W88486   5.344  18.754  13.552
16062W        W88487  25.814  26.215  11.499
16063W        W88488  10.174   2.949   1.454
16064W        W88489  32.900  30.085   4.168
16065W        W88490  38.709   6.943   4.241
16066W        W88491  35.638  25.703   2.978
16067W        W88492  42.606   3.829   1.790
16068W        W88493  25.277  28.435   3.793
16069W        W88494  16.960  23.831   0.285
16070W        W88495   7.836  40.760   4.447
16071W        W88496  35.630  28.361   0.393
16072W        W88497  16.075  18.167   3.757
16073W        W88498  43.687  15.078  10.636
16074W        W88499   9.865  44.447  11.636
16075W        W88500  29.923  17.633  12.383
16076W        W88501  17.280  34.862   5.096
16077W        W88502  36.479  39.364   3.463
16078W        W88503  19.066   6.239   1.909
16079W        W88504  12.928  20.262  13.828
16080W        W88505  12.722   0.400   2.642
16081W        W88506  26.488  23.638   4.771
16082W        W88507  28.181   6.243  12.096
16083W        W88508   7.800  17.338  12.085
16084W        W88509  17.287  39.956   3.942
16085W        W88510  41.275  22.158  12.751
16086W        W88511  17.103  23.310   1.193
16087W        W88512  16.972  21.172   0.244
16088W        W88513  23.174  37.951  10.808
16089W        W88514   1.364  13.055   1.380
16090W        W88515  44.547  35.080   9.902
16091W        W88516  13.340   8.053  14.270
16092W        W88517   0.556   1.557  11.268
16093W        W88518  39.069  36.800  12.352
16094W        W88519  40.894  13.066  12.927
16095W        W88520  34.639  18.796  12.063
16096W        W88521  27.587  14.676   1.931
16097W        W88522  32.743   9.718  13.422
16098W        W88523   3.023   5.491   2.594
16099W        W88524  41.868  36.164  14.979
16100W        W88525  39.043   5.737  12.272
16101W        W88526  39.365  38.298  14.340
16102W        W88527  38.020  33.858   2.847
16103W        W88528  23.230  11.769  11.433
16104W        W88529   9.771  33.349  14.298
16105W        W88530  43.510  10.619  14.327
16106W        W88531  11.065  25.604   1.060
16107W        W88532  16.415   2.757   3.773
16108W        W88533  12.829  20.242   4.568
16109W        W88534  37.487   7.707   4.512
16110W        W88535  23.633  27.715  14.784
16111W        W88536  42.997  12.691  13.422
16112W        W88537   2.075  10.644  12.850
16113W        W88538  34.710  23.507   1.374
16114W        W88539  40.051  16.452  11.167
16115W        W88540  30.908  15.781   4.066
16116W        W88541  41.388  13.173  12.904
16117W        W88542  32.074   4.804   2.821
16118W        W88543  22.808  26.111   1.305
16119W        W88544  15.682  17.994   4.037
16120W        W88545  18.853  17.130   0.259
16121W        W88546  16.605  38.041   0.438
16122W        W88547  19.113   2.839   4.602
16123W        W88548  31.471   6.663  10.735
16124W        W88549  26.728   3.846   0.781
16125W        W88550  44.822   0.550   1.387
16126W        W88551  23.172  26.493  11.590
16127W        W88552  38.614  28.541   3.216
16128W        W88553  22.751  34.336  12.526
16129W        W88554  25.403   6.145   0.997
16130W        W88555  12.457  11.809  12.099
16131W        W88556  21.597   9.615  14.071
16132W        W88557  27.231  27.296  10.761
16133W        W88558  21.772  35.048  14.478
16134W        W88559  30.848  21.161  14.943
16135W        W88560   4.903  39.522  11.098
16136W        W88561  19.058   3.921  12.842
16137W        W88562  22.498  34.061  13.990
16138W        W88563   3.501   4.333  14.822
16139W        W88564   1.998  13.296  12.289
16140W        W88565  33.681  25.409  10.695
16141W        W88566  21.470   2.026  13.510
16142W        W88567  39.739  16.033  10.899
16143W        W88568  40.725  43.937  10.705
16144W        W88569  40.341  17.528  11.947
16145W        W88570  27.217   3.906   1.888
16146W        W88571  20.072  40.618   3.668
16147W        W88572  42.781  33.542  11.598
16148W        W88573  14.267  17.044   1.471
16149W        W88574  14.202  26.558   1.934
16150W        W88575  12.589  38.877   0.718
16151W        W88576  13.154  11.670  11.584
16152W        W88577  42.159  20.155   2.348
16153W        W88578  35.616   2.920   4.311
16154W        W88579   3.224  21.390   1.362
16155W        W88580  23.771  23.104   4.877
16156W        W88581  24.070  13.695   4.106
16157W        W88582   4.963  39.095   2.431
16158W        W88583  41.140  33.434   0.239
16159W        W88584  10.199   9.204  12.894
16160W        W88585  16.093  37.410   2.583
16161W        W88586  18.122  15.495  11.612
16162W        W88587  15.444  31.929  10.222
16163W        W88588  20.044  14.185  13.060
16164W        W88589  22.309   0.219   4.271
16165W        W88590  12.761   4.175   3.120
16166W        W88591  20.926  31.088  12.555
16167W        W88592  39.260  15.766  12.672
16168W        W88593  14.848   7.182  13.074
16169W        W88594  10.590  28.865  14.836
16170W        W88595   9.378  20.110  12.531
16171W        W88596  35.070  33.807   2.779
16172W        W88597   2.484  44.331  12.940
16173W        W88598  28.431  40.522   3.405
16174W        W88599  39.082  27.413   2.786
16175W        W88600   7.802   1.882  11.013
16176W        W88601  44.722  40.049   3.781
16177W        W88602   4.388  36.855   1.329
16178W        W88603   9.425  44.530  10.897
16179W        W88604  22.152  39.865   2.892
16180W        W88605   6.268  37.300   2.623
16181W        W88606  34.956  28.939   0.413
16182W        W88607   4.744  27.268  10.864
16183W        W88608  42.892  25.169  13.339
16184W        W88609  16.671  17.497  12.577
16185W        W88610  20.545  33.102   3.189
16186W        W88611   2.433  44.406   0.808
16187W        W88612  27.160  25.148  13.839
16188W        W88613   1.062  11.331   3.013
16189W        W88614  29.718  28.661  11.528
16190W        W88615  44.872   5.818   1.041
16191W        W88616  13.887  21.826  13.064
16192W        W88617  38.969  27.274   3.602
16193W        W88618   0.743  16.427  10.680
16194W        W88619  10.587  21.073   2.927
16195W        W88620  28.683  31.685  12.161
16196W        W88621  37.122  13.118   1.373
16197W        W88622  25.482   0.068  12.606
16198W        W88623   0.379   5.229  11.910
16199W        W88624  30.275  18.019  11.562
16200W        W88625   6.953  33.407  11.593
16201W        W88626  40.411  23.935   3.231
16202W        W88627  44.518  41.981   0.396
16203W        W88628  40.945   8.068   2.309
16204W        W88629   0.601  27.189   3.134
16205W        W88630  11.897  32.114  10.650
16206W        W88631  29.176   6.884   3.242
16207W        W88632  34.634  34.212   3.339
16208W        W88633   3.829  35.592  12.451
16209W        W88634  36.913  26.777  12.972
16210W        W88635  21.554   4.880  11.542
16211W        W88636   6.804  10.434   0.522
16212W        W88637  26.295  27.262   1.810
16213W        W88638   6.658  21.656   2.994
16214W        W88639   0.200  16.316   3.221
16215W        W88640  26.444  22.527  11.214
16216W        W88641  14.228   5.855   0.988
16217W        W88642   0.853  29.671  12.357
16218W        W88643  37.948   2.733  10.470
16219W        W88644  11.083  22.625  10.412
16220W        W88645  33.190  33.844   4.124
16221W        W88646  36.744  15.717   3.211
16222W        W88647  39.422  14.564   3.817
16223W        W88648  42.649   6.579  14.974
16224W        W88649  36.897  25.113   3.652
16225W        W88650  35.513  30.391   4.440
16226W        W88651  26.286  32.517   3.358
16227W        W88652  42.095  32.931  11.201
16228W        W88653  34.393   3.727   1.764
16229W        W88654  19.580  14.731  10.721
16230W        W88655  22.312  30.234   2.154
16231W        W88656   8.918   6.330  12.972
16232W        W88657  36.615  33.831  13.892
16233W        W88658   1.302  14.724  12.863
16234W        W88659  10.661   5.875  14.426
16235W        W88660   9.594  44.046   3.173
16236W        W88661  13.188  15.343   3.287
16237W        W88662  11.449  27.086   4.073
16238W        W88663   2.964  38.105   2.707
16239W        W88664  32.830  16.096  12.544
16240W        W88665  40.090  14.707  11.024
16241W        W88666  16.418  27.954   3.558
16242W        W88667  17.568  30.704  11.712
16243W        W88668  21.726  40.348  13.863
16244W        W88669  33.216  17.064  14.250
16245W        W88670   8.050  17.109  13.405
16246W        W88671  42.892   6.625   1.873
16247W        W88672   1.682   0.476  12.601
16248W        W88673   5.576  36.834   2.300
16249W        W88674  33.551  31.463   3.214
16250W        W88675  35.906  10.883  14.836
16251W        W88676  37.453   9.890   3.324
16252W        W88677   2.228   3.805  13.927
16253W        W88678   0.341  14.381  14.410
16254W        W88679  28.018  25.397   1.947
16255W        W88680   6.998  38.628  12.145
16256W        W88681  15.860  40.816  12.869
16257W        W88682   6.087  19.121  11.594
16258W        W88683  25.109  20.858  10.188
16259W        W88684  23.925  15.308   4.702
16260W        W88685  22.618   3.261  12.720
16261W        W88686  29.514  42.839  10.237
16262W        W88687   3.962  31.818  11.613
16263W        W88688  40.918  35.561  14.220
16264W        W88689  26.820  28.005  14.037
16265W        W88690  34.471  37.953   2.718
16266W        W88691  34.286  34.675  13.997
16267W        W88692  16.014  14.951  11.352
16268W        W88693  36.911  25.588   1.031
16269W        W88694  40.002   5.400  14.178
16270W        W88695   1.876   7.317  11.577
16271W        W88696  38.760  16.284   4.368
16272W        W88697  38.017  31.042   2.291
16273W        W88698  11.619  19.010   4.214
16274W        W88699  24.161  15.213   3.412
16275W        W88700  28.552   1.184  13.410
16276W        W88701   3.796  32.716   2.686
16277W        W88702   4.254  36.566   4.860
16278W        W88703  33.881  12.673   3.765
16279W        W88704  15.655  44.478   2.942
16280W        W88705  28.655   1.266   3.355
16281W        W88706  13.140  12.796   3.691
16282W        W88707  15.749  20.319   3.223
16283W        W88708   6.731  41.575   1.973
16284W        W88709  38.034  11.388   3.915
16285W        W88710  11.228   3.049  14.895
16286W        W88711  40.382  37.622   4.606
16287W        W88712   8.189   1.509  11.646
16288W        W88713  38.792  42.449   3.688
16289W        W88714  32.845   1.515  11.737
16290W        W88715  13.642  23.225   5.457
16291W        W88716   6.749   3.752   3.624
16292W        W88717  44.959  30.918  12.622
16293W        W88718   6.721  20.970  12.499
16294W        W88719   2.903  18.253   1.632
16295W        W88720  10.005  14.837   3.606
16296W        W88721   8.849   6.407   1.634
16297W        W88722  19.400  15.298   0.500
16298W        W88723  10.446  33.548   2.645
16299W        W88724  40.394  20.790   0.971
16300W        W88725  15.041  21.222  13.467
16301W        W88726  11.392  42.211  11.795
16302W        W88727  30.784  13.893  13.833
16303W        W88728  24.684  17.217   4.519
16304W        W88729  38.341  38.048  13.289
16305W        W88730   5.722  13.835   3.002
16306W        W88731  29.938  38.076  13.240
16307W        W88732   9.593  36.791   1.486
16308W        W88733  33.049  34.118  13.016
16309W        W88734  10.399  38.819   3.282
16310W        W88735  11.145   0.335   0.046
16311W        W88736  11.776   2.519  13.577
16312W        W88737  13.780   1.440   0.450
16313W        W88738  43.270   5.183   1.197
16314W        W88739  10.964  29.614  12.443
16315W        W88740  16.824  26.563  14.367
16316W        W88741  17.959  22.633   1.878
16317W        W88742   9.108   2.943   1.809
16318W        W88743  26.613   0.327   2.522
16319W        W88744  29.447  44.367  11.829
16320W        W88745  43.469  20.568  12.969
16321W        W88746   8.158   4.270  14.758
16322W        W88747  12.692  43.982  14.089
16323W        W88748  17.622  18.819  13.863
16324W        W88749   1.359  20.251  13.166
16325W        W88750   8.314  31.157   4.858
16326W        W88751   5.772  30.174  12.044
16327W        W88752  26.448   6.764  11.678
16328W        W88753  17.368  21.141   4.495
16329W        W88754  29.029  26.190   0.725
16330W        W88755  21.607  22.119   0.971
16331W        W88756  40.424  30.931  12.870
16332W        W88757  11.726  19.065  11.153
16333W        W88758  40.819  12.079  13.779
16334W        W88759  10.701   0.167  13.852
16335W        W88760  44.731   9.619   4.164
16336W        W88761  27.013  23.691   4.730
16337W        W88762  38.846  17.036  13.808
16338W        W88763  44.582  31.333   3.638
16339W        W88764  43.420  18.779   2.555
16340W        W88765   1.791   5.833  11.516
16341W        W88766  26.286   7.893   4.260
16342W        W88767  15.523  37.482  12.993
16343W        W88768  20.023  11.421  12.520
16344W        W88769   7.242   7.429   2.182
16345W        W88770  20.284  26.618  14.837
16346W        W88771  24.710  12.383   4.354
16347W        W88772  20.190  44.319   0.395
16348W        W88773  35.186   3.868   0.418
16349W        W88774  40.487  43.486   2.318
16350W        W88775  22.703  10.313  10.568
16351W        W88776   8.186  23.019  13.454
16352W        W88777   2.832  38.961   4.193
16353W        W88778  30.586  43.448   3.704
16354W        W88779  22.303  29.809  13.508
16355W        W88780  12.714   8.908  11.952
16356W        W88781  12.127  22.124   0.899
16357W        W88782  34.059  32.376  11.443
16358W        W88783   4.663  34.978   0.976
16359W        W88784  14.102  41.928  14.868
16360W        W88785  44.696  33.578   4.135
16361W        W88786   0.028  11.109   0.508
16362W        W88787  43.443   5.434  10.599
16363W        W88788   7.465  40.953   1.346
16364W        W88789  38.807   5.035  13.012
16365W        W88790   8.003   5.778  13.876
16366W        W88791  10.619  32.429  12.303
16367W        W88792  31.005  33.465   3.588
16368W        W88793  32.675   1.896   0.845
16369W        W88794  10.835  15.952  13.463
16370W        W88795   0.194  28.034  14.303
16371W        W88796  39.897  10.926   1.840
16372W        W88797  25.723  29.554  14.851
16373W        W88798  33.349  13.582   0.209
16374W        W88799  39.360  23.483  11.430
16375W        W88800  44.808   2.594  11.490
16376W        W88801  34.934   4.911  12.430
16377W        W88802  22.215  38.073  11.043
16378W        W88803  42.889   4.406   2.443
16379W        W88804  15.302  29.874  14.223
16380W        W88805  33.548  10.332  13.902
16381W        W88806  19.670  15.075   2.368
16382W        W88807  33.479  34.987   4.607
16383W        W88808   4.355  35.628  14.469
16384W        W88809  16.957  33.603   0.762
16385W        W88810  43.541  43.847   4.169
16386W        W88811   4.770  11.517  12.464
16387W        W88812   1.224  39.325  14.464
16388W        W88813  12.326   3.391   3.147
16389W        W88814  16.707  18.200   4.646
16390W        W88815  20.021  20.262  11.536
16391W        W88816  42.006  15.316   4.203
16392W        W88817  38.743  10.240   4.513
16393W        W88818  30.928   8.171   0.707
16394W        W88819  20.002  24.978  12.483
16395W        W88820  15.769  43.476  11.536
16396W        W88821  38.559  43.516  11.269
16397W        W88822  41.879  35.762   3.672
16398W        W88823  24.080   7.246   3.260
16399W        W88824  37.951  22.560  11.587
16400W        W88825  33.442  43.219   3.372
16401W        W88826   0.286   2.991   3.874
16402W        W88827  32.053  30.473   3.622
16403W        W88828  25.495  40.861   0.887
16404W        W88829  42.699   9.777  14.954
16405W        W88830  43.671  23.641   1.693
16406W        W88831  30.442  15.574   2.941
16407W        W88832  25.635   8.966  12.486
16408W        W88833  36.484  37.607   2.969
16409W        W88834  10.414  42.013  13.314
16410W        W88835  43.079  22.939   1.248
16411W        W88836  44.554  20.669  14.977
16412W        W88837  23.674   5.870  10.719
16413W        W88838  35.520  22.521  10.753
16414W        W88839  36.942  32.579   4.702
16415W        W88840   8.141   5.730  10.904
16416W        W88841  24.915  43.944  12.931
16417W        W88842  35.901  25.233  13.866
16418W        W88843  27.946   2.284   1.887
16419W        W88844  13.516  11.496  11.207
16420W        W88845  19.577   1.311  10.662
16421W        W88846  42.060   9.378  11.911
16422W        W88847   4.504  23.000   3.608
16423W        W88848  21.485  13.347   0.340
16424W        W88849   5.254   9.275   2.789
16425W        W88850  32.570  27.566  14.196
16426W        W88851  26.918  11.193  11.070
16427W        W88852   4.035  16.845  12.398
16428W        W88853  42.448  33.139  12.826
16429W        W88854   4.721  25.506   1.675
16430W        W88855   3.649  33.454   3.735
16431W        W88856   8.241   4.906  10.818
16432W        W88857  15.085   8.312  13.978
16433W        W88858  16.069   2.580   3.381
16434W        W88859  36.766   4.104  10.738
16435W        W88860  24.708   6.386   4.570
16436W        W88861   0.849  44.469  10.694
16437W        W88862   9.754  15.552   4.117
16438W        W88863  33.320   6.982   9.920
16439W        W88864  44.682  42.064  13.972
16440W        W88865  23.490  29.918  14.305
16441W        W88866  40.391  24.285  10.772
16442W        W88867  13.101  28.752  12.872
16443W        W88868   2.235   5.240   1.315
16444W        W88869  31.216  15.205   1.978
16445W        W88870  28.023  20.258   1.347
16446W        W88871  36.217  44.741  14.291
16447W        W88872  35.556   2.717  10.548
16448W        W88873  16.965  42.480  11.706
16449W        W88874  24.704   5.320  13.144
16450W        W88875  43.425  28.096  10.689
16451W        W88876   1.933   2.704   3.185
16452W        W88877  31.179   6.507  12.116
16453W        W88878   7.131   6.861  11.678
16454W        W88879  13.988   4.942   5.144
16455W        W88880  39.914  14.442   4.562
16456W        W88881  31.035  16.330   0.804
16457W        W88882  39.097  30.716   4.297
16458W        W88883  35.403  44.064  12.446
16459W        W88884   9.836  13.269  12.454
16460W        W88885   7.235  21.948  11.609
16461W        W88886  20.755  21.639   0.750
16462W        W88887  14.391  32.355  11.537
16463W        W88888  43.471   8.707  11.642
16464W        W88889  24.012   3.233  12.961
16465W        W88890  33.021  41.762  14.341
16466W        W88891  17.237  37.503   1.425
16467W        W88892  36.022   8.016   0.280
16468W        W88893  15.387   2.006  14.216
16469W        W88894  24.631  32.016  10.743
16470W        W88895   4.341  10.081  13.458
16471W        W88896  35.506  13.613   3.092
16472W        W88897  41.219  13.828  12.448
16473W        W88898  13.576  11.276   4.260
16474W        W88899  12.715   7.222  11.181
16475W        W88900  20.594  26.066  13.855
16476W        W88901  26.990  40.574   3.026
16477W        W88902  28.716  16.638   3.210
16478W        W88903  29.445   1.171  12.557
16479W        W88904  29.446  33.079  13.463
16480W        W88905  29.693  13.375  14.035
16481W        W88906   3.700  10.638  12.500
16482W        W88907  41.874  17.299  12.323
16483W        W88908  39.010   3.491   5.072
16484W        W88909  21.227   7.089  10.004
16485W        W88910  16.735  26.532   1.270
16486W        W88911  20.024  20.253   3.223
16487W        W88912   9.894   4.696   0.931
16488W        W88913   2.402  41.650   4.215
16489W        W88914  16.834   8.877  13.956
16490W        W88915  14.784  27.847   3.459
16491W        W88916  12.815  11.179  12.657
16492W        W88917  43.943  18.590  12.396
16493W        W88918   0.510  27.119  12.015
16494W        W88919  35.500  16.138   0.945
16495W        W88920  38.067   3.847  11.169
16496W        W88921   4.293  26.935  10.949
16497W        W88922  30.887  36.831  13.504
16498W        W88923  33.239  18.503   4.542
16499W        W88924  34.652   4.795   3.536
16500W        W88925  29.815  40.883   1.637
16501W        W88926   6.165  26.757  14.782
16502W        W88927  28.990  35.140   1.152
16503W        W88928   4.247  15.545   3.764
16504W        W88929  12.787   0.558   4.409
16505W        W88930   5.881   0.055   0.696
16506W        W88931  32.121  11.337   4.233
16507W        W88932  14.117   2.124   0.315
16508W        W88933  19.993  29.812  10.260
16509W        W88934  42.639  28.278  12.798
16510W        W88935  15.014  35.143  11.472
16511W        W88936  41.049  42.044   1.410
16512W        W88937  30.916  35.008  14.326
16513W        W88938  35.037  15.459   4.721
16514W        W88939  18.198   4.315  12.052
16515W        W88940  30.600  35.867   0.794
16516W        W88941   3.404  19.225   4.912
16517W        W88942   0.004  19.273  11.772
16518W        W88943  37.861  20.074  13.871
16519W        W88944  36.285  35.625   0.549
16520W        W88945  11.511   0.856   2.318
16521W        W88946   8.864  16.134  13.954
16522W        W88947  36.547  26.592  12.519
16523W        W88948  15.046  42.225   0.911
16524W        W88949  39.242  20.066  14.552
16525W        W88950   7.926  18.287   2.322
16526W        W88951   4.743  39.960   0.429
16527W        W88952   8.863  12.985  10.743
16528W        W88953  11.171   9.791  14.026
16529W        W88954  40.319  35.720   5.063
16530W        W88955   4.120  40.035   4.115
16531W        W88956  28.084   8.563   1.807
16532W        W88957  31.860  25.573  14.457
16533W        W88958  40.195  12.775  13.394
16534W        W88959  43.494  12.614   1.446
16535W        W88960   9.539  32.393   0.279
16536W        W88961  35.126  25.698   2.837
16537W        W88962  19.052  27.590   4.340
16538W        W88963  43.218  30.057   0.171
16539W        W88964   9.866  11.266  10.737
16540W        W88965   1.897  26.076  14.094
16541W        W88966   2.428  19.569   0.094
16542W        W88967   9.339  37.708   0.726
16543W        W88968  23.602  26.472  10.898
16544W        W88969  20.200  25.046  14.747
16545W        W88970  41.849   0.504  10.788
16546W        W88971  33.112  38.795   0.361
16547W        W88972  43.043   6.207   4.409
16548W        W88973  29.060  33.881   2.604
16549W        W88974   4.178  15.861   1.936
16550W        W88975   2.240  26.061   4.678
16551W        W88976   8.230  25.493   3.851
16552W        W88977   3.432  16.427  14.029
16553W        W88978   1.378  25.179   3.838
16554W        W88979   5.835   8.167  13.474
16555W        W88980  10.735   0.631  11.129
16556W        W88981  13.777  37.112   4.107
16557W        W88982   8.704  39.095  12.205
16558W        W88983  38.823  42.400  10.548
16559W        W88984  19.063  20.179  11.822
16560W        W88985  34.944  18.808   3.655
16561W        W88986  24.894  18.225  13.892
16562W        W88987   9.833  40.158   2.365
16563W        W88988  33.085   3.794  14.929
16564W        W88989  20.712  41.331  13.277
16565W        W88990  13.810   3.564   4.996
16566W        W88991  29.028  11.592   0.254
16567W        W88992  30.706   7.040   2.579
16568W        W88993  41.259   6.940  13.475
16569W        W88994  17.966  29.962   0.959
16570W        W88995  14.427   7.287  11.582
16571W        W88996   1.835  36.068  14.768
16572W        W88997   9.822  28.943   1.918
16573W        W88998   1.018  42.404   3.244
16574W        W88999  12.096  37.730   1.009
16575W        W89000  11.852  40.852  11.996
16576W        W89001  30.942   2.971  12.520
16577W        W89002  41.882  34.482  11.986
16578W        W89003  33.374  43.920  14.951
16579W        W89004   8.124   6.298   2.787
16580W        W89005  44.981  28.496  11.990
16581W        W89006  43.306  28.559   0.306
16582W        W89007  28.109   0.278  10.503
16583W        W89008  42.805  11.261  11.242
16584W        W89009   2.193   5.404   0.473
16585W        W89010  14.712  31.656   4.605
16586W        W89011  18.044  19.604  12.031
16587W        W89012  10.700  33.056   0.639
16588W        W89013  22.599  40.652  12.454
16589W        W89014  24.204  34.321  11.134
16590W        W89015  10.207  42.452  14.485
16591W        W89016  18.258  33.196   3.743
16592W        W89017  32.354   9.848   1.340
16593W        W89018  42.328  13.819  14.295
16594W        W89019  32.117  32.660  12.551
16595W        W89020  26.721  32.552   4.140
16596W        W89021  37.925   6.550  13.268
16597W        W89022  30.172   5.782  13.969
16598W        W89023  18.592   2.779   1.923
16599W        W89024  14.772  12.102  12.549
16600W        W89025  22.663  17.250   2.646
16601W        W89026  44.881  43.327   3.271
16602W        W89027   2.940  44.482   0.850
16603W        W89028   4.267  37.028  13.462
16604W        W89029  42.658  36.746  12.000
16605W        W89030   2.929  23.626  10.732
16606W        W89031  29.380  42.910   2.387
16607W        W89032  27.982  15.864  12.855
16608W        W89033  26.852  36.122   3.183
16609W        W89034  33.448  26.122  13.106
16610W        W89035  42.220  23.544   3.863
16611W        W89036  26.567  13.202   1.996
16612W        W89037  19.948  18.489  13.851
16613W        W89038   4.709  30.133  13.546
16614W        W89039  29.672  32.256   1.562
16615W        W89040  36.083  31.231   4.266
16616W        W89041   0.981  43.055  14.566
16617W        W89042  32.661  39.801  14.313
16618W        W89043  28.610  18.542   1.404
16619W        W89044  43.451  26.779  11.463
16620W        W89045  17.268  14.701   4.374
16621W        W89046  38.016  27.010  13.556
16622W        W89047  26.626   2.215   2.375
16623W        W89048  44.648  22.019  12.862
16624W        W89049  40.408  36.789   0.389
16625W        W89050  40.517   4.436  13.035
16626W        W89051  23.118  16.049  12.775
16627W        W89052   4.893  44.080   0.232
16628W        W89053  25.196  22.058  11.425
16629W        W89054  22.753   7.373   3.392
16630W        W89055   3.515   9.453   3.169
16631W        W89056   0.488  36.853   3.669
16632W        W89057  27.246  30.418   2.970
16633W        W89058  37.092  28.119   4.598
16634W        W89059  28.959  20.562   0.470
16635W        W89060  34.865  20.653   4.262
16636W        W89061  41.929  14.514   3.179
16637W        W89062  42.108   3.214   4.583
16638W        W89063  13.117  24.301   5.532
16639W        W89064  12.665   5.381  13.389
16640W        W89065   4.541  35.633   1.332
16641W        W89066  34.949  24.183   3.825
16642W        W89067  14.728   0.857   3.347
16643W        W89068  29.034  41.373  10.733
16644W        W89069  38.012  23.074  11.414
16645W        W89070  42.231  31.424   2.916
16646W        W89071  34.016   3.242  11.967
16647W        W89072  43.413  20.306   1.686
16648W        W89073   5.878  13.732  12.027
16649W        W89074   8.416  33.031   0.580
16650W        W89075  33.391  40.895   1.343
16651W        W89076  36.769  35.358  14.310
16652W        W89077  28.471  14.636   2.973
16653W        W89078  39.902  36.957   0.441
16654W        W89079  21.386   3.284  11.219
16655W        W89080  17.471  32.020   1.708
16656W        W89081   5.317  26.202  12.059
16657W        W89082  38.753  42.917  14.034
16658W        W89083   4.896  21.878   1.007
16659W        W89084  42.982  14.202   4.692
16660W        W89085  26.412  42.527   3.833
16661W        W89086  26.917   0.755  12.467
16662W        W89087  38.752   2.477   0.441
16663W        W89088   0.041   0.765   0.550
16664W        W89089  40.605  36.402   4.180
16665W        W89090  31.126  20.719  12.043
16666W        W89091  16.240   8.074   3.769
16667W        W89092  18.982  25.172   0.767
16668W        W89093  17.736  12.931   0.388
16669W        W89094   6.879  24.076  12.871
16670W        W89095  37.537   2.186   0.499
16671W        W89096  30.089  44.945  11.616
16672W        W89097  22.568  16.061  12.628
16673W        W89098   8.374  23.112   2.374
16674W        W89099  14.036   8.245  13.779
16675W        W89100   4.234  16.599  13.483
16676W        W89101  41.761   8.169  13.958
16677W        W89102  31.184  30.798   0.784
16678W        W89103  44.236  37.323  11.025
16679W        W89104  43.951  13.989  11.635
16680W        W89105   4.670  23.609   4.327
16681W        W89106  42.207  19.719  12.909
16682W        W89107  37.254  11.845  13.132
16683W        W89108  20.019  24.021  12.563
16684W        W89109  35.140   3.916  11.611
16685W        W89110   3.596  28.271   1.361
16686W        W89111  20.788  33.744  13.922
16687W        W89112  10.674  39.470  11.549
16688W        W89113  14.286  40.492  13.527
16689W        W89114  33.148  25.003   4.153
16690W        W89115   9.175  24.226  11.561
16691W        W89116  32.896  22.795  11.109
16692W        W89117  13.341  29.374   2.294
16693W        W89118   3.236  38.455   3.412
16694W        W89119  18.623  10.329  11.144
16695W        W89120  32.456  28.100  13.029
16696W        W89121   2.023   4.161   3.672
16697W        W89122  34.523  44.858   0.188
16698W        W89123  11.079  41.327   3.933
16699W        W89124  25.778   9.959  10.850
16700W        W89125  19.633  30.053  11.002
16701W        W89126  13.754  26.732  13.901
16702W        W89127  15.728   8.923   2.382
16703W        W89128  39.473  38.982   0.307
16704W        W89129  22.851  11.892   1.795
16705W        W89130  32.350   9.338   0.073
16706W        W89131   7.146   7.694  14.445
16707W        W89132   0.529  35.638  12.982
16708W        W89133   0.669  28.967   0.471
16709W        W89134   8.117   0.997  14.638
16710W        W89135  43.649  11.626  11.499
16711W        W89136  40.969   4.336  13.566
16712W        W89137   1.921  37.824  12.031
16713W        W89138  23.187  19.435   4.074
16714W        W89139   5.331  44.903   2.595
16715W        W89140  39.344  10.986  12.661
16716W        W89141  34.364  13.913   1.148
16717W        W89142  38.463  44.135   3.218
16718W        W89143  39.505  31.390  11.649
16719W        W89144   2.212  25.078   4.881
16720W        W89145  11.145  24.923  10.763
16721W        W89146  26.199   9.246   3.394
16722W        W89147  32.903   1.096   1.878
16723W        W89148  14.858  17.492  13.515
16724W        W89149  27.735  22.723   3.293
16725W        W89150  11.177  21.474   1.399
16726W        W89151   9.683  35.005   4.673
16727W        W89152  42.512  16.471   0.054
16728W        W89153  15.642   0.259   1.904
16729W        W89154   1.934  17.268  10.678
16730W        W89155  32.152  30.961  12.803
16731W        W89156  10.249  10.846  12.131
16732W        W89157  23.866   0.299   2.407
16733W        W89158  20.669  24.593  12.140
16734W        W89159   0.500  40.073  13.476
16735W        W89160  33.032  40.950   4.196
16736W        W89161   8.766  18.633   5.063
16737W        W89162   3.728  19.969   2.562
16738W        W89163  21.967  10.397   4.373
16739W        W89164  32.100   8.396  14.785
16740W        W89165   7.214   0.359   4.212
16741W        W89166   8.412   4.471  10.576
16742W        W89167  34.909  22.876   3.417
16743W        W89168  18.078   3.604   4.685
16744W        W89169  43.026  43.547  13.091
16745W        W89170  41.923  18.219  13.361
16746W        W89171  19.089   9.261   4.576
16747W        W89172  41.308  38.419   1.673
16748W        W89173  27.627  14.108  12.997
16749W        W89174   1.867  37.470   4.719
16750W        W89175  30.393  34.496   0.726
16751W        W89176  10.051   9.764   3.302
16752W        W89177  19.656  18.555  14.900
16753W        W89178  18.832  31.502  14.987
16754W        W89179  33.333   5.436   2.870
16755W        W89180  36.952   3.414   4.952
16756W        W89181   6.379  42.830   4.361
16757W        W89182  28.518  14.345  13.931
16758W        W89183  11.762   7.310   4.158
16759W        W89184  12.835  21.711  14.827
16760W        W89185  18.143  23.122   1.282
16761W        W89186  29.383  25.255  12.562
16762W        W89187  18.979   7.064  13.523
16763W        W89188   5.989  19.537   3.276
16764W        W89189   8.937  40.443  14.794
16765W        W89190  10.735   8.892  14.975
16766W        W89191  11.293   4.894  13.523
16767W        W89192   4.851  15.562   1.301
16768W        W89193  16.099  16.469  12.796
16769W        W89194   5.152  35.815  11.453
16770W        W89195  33.336   8.325  12.826
16771W        W89196  22.703  37.289  13.407
16772W        W89197   7.275  32.449  11.225
16773W        W89198  40.026  38.512   4.615
16774W        W89199  43.094   8.647  11.971
16775W        W89200  24.681  26.583   2.352
16776W        W89201  42.762  32.428   3.696
16777W        W89202  11.711   5.223   0.125
16778W        W89203  34.605  13.946   2.651
16779W        W89204  26.749  34.489   0.222
16780W        W89205  22.497  12.331   2.280
16781W        W89206  12.250  22.028   4.921
16782W        W89207  25.688   2.738  14.853
16783W        W89208  36.054  12.347  14.281
16784W        W89209  26.675  40.462  14.278
16785W        W89210  23.646   2.426  12.499
16786W        W89211  22.698  28.745  13.626
16787W        W89212  31.951   6.952  14.430
16788W        W89213  43.441   9.527   3.086
16789W        W89214  20.121  18.119   3.598
16790W        W89215   2.473  13.775  13.404
16791W        W89216  42.326  22.283   5.568
16792W        W89217  31.650  14.620   2.178
16793W        W89218   8.451  16.879  11.591
16794W        W89219   0.487  41.824   0.258
16795W        W89220  14.704   5.965   2.738
16796W        W89221  29.288  40.654   1.252
16797W        W89222  26.602   5.963  10.984
16798W        W89223  36.495   9.666  14.436
16799W        W89224  32.415  22.814   2.265
16800W        W89225   3.863  28.661   1.564
16801W        W89226  15.503  36.934   1.157
16802W        W89227  17.558  12.938  11.978
16803W        W89228  28.728  39.281   4.639
16804W        W89229   5.004  40.891   2.344
16805W        W89230  15.101   6.693   4.174
16806W        W89231   3.281  42.125  13.041
16807W        W89232  40.104  24.047   2.054
16808W        W89233   4.393   5.553   4.581
16809W        W89234  42.409  30.943   2.007
16810W        W89235   4.915  37.853   2.811
16811W        W89236  17.461  25.374  13.411
16812W        W89237  37.005  27.275  11.201
16813W        W89238  27.416  23.433  12.502
16814W        W89239  13.693  33.336  14.015
16815W        W89240   1.498  15.561  13.414
16816W        W89241  17.840  30.978  12.082
16817W        W89242  21.127   2.891   1.007
16818W        W89243  18.537  21.497  13.102
16819W        W89244   9.790   9.149   2.317
16820W        W89245   8.791  12.161   2.728
16821W        W89246  35.231  15.351   4.063
16822W        W89247  18.129   4.500   4.573
16823W        W89248  14.319   9.518   1.502
16824W        W89249   4.915  20.474  11.245
16825W        W89250   1.912  27.467   0.988
16826W        W89251  20.944  37.145   1.058
16827W        W89252  42.892  34.474  12.653
16828W        W89253  25.638  22.162   2.306
16829W        W89254  13.347  38.558  13.474
16830W        W89255  36.391  43.027   0.896
16831W        W89256  25.119  17.865   2.752
16832W        W89257  36.452  25.891   2.645
16833W        W89258  13.143  30.545   9.970
16834W        W89259  20.640   7.847   4.362
16835W        W89260   2.412  13.856   2.203
16836W        W89261  32.500  17.648  13.974
16837W        W89262  25.664  12.384   5.009
16838W        W89263   1.803  18.717   3.760
16839W        W89264   7.275   1.836   2.749
16840W        W89265  16.826  23.583   4.162
16841W        W89266  13.103  19.595   5.047
16842W        W89267  34.198  30.386   2.870
16843W        W89268  27.003  35.778  14.963
16844W        W89269   3.426  30.673   3.191
16845W        W89270   5.853   5.975   2.663
16846W        W89271  11.128   6.932   2.123
16847W        W89272  21.164  41.797  13.538
16848W        W89273  38.424  41.175   0.380
16849W        W89274  15.829  38.262   1.417
16850W        W89275  11.640  34.572  11.064
16851W        W89276  41.308   5.895   0.917
16852W        W89277   7.317  10.648   4.666
16853W        W89278  18.235  15.824  11.234
16854W        W89279  35.054  14.646  12.142
16855W        W89280  12.249  20.307   1.240
16856W        W89281  35.502  29.628   1.468
16857W        W89282  27.614   2.432  13.967
16858W        W89283  21.854  12.537  10.142
16859W        W89284  31.163  22.861  12.936
16860W        W89285   1.286  31.569   0.432
16861W        W89286  44.285  28.991  10.908
16862W        W89287  25.685  20.219   3.917
16863W        W89288  25.536  42.341  14.198
16864W        W89289  39.186   9.792  13.598
16865W        W89290  39.240   3.266  12.939
16866W        W89291  30.609  22.991   3.007
16867W        W89292  29.923  40.002   2.820
16868W        W89293  40.799  33.598  14.888
16869W        W89294   4.445  30.216  13.996
16870W        W89295   9.896  33.141   2.442
16871W        W89296  19.298  40.593   1.717
16872W        W89297  44.409   9.861   2.673
16873W        W89298   2.036  38.866  14.523
16874W        W89299  39.766   5.041  10.826
16875W        W89300  39.624  44.355  14.141
16876W        W89301  23.145  22.555  14.679
16877W        W89302  34.392  17.265   3.219
16878W        W89303   9.016  21.246  13.477
16879W        W89304  21.483  27.183   1.015
16880W        W89305  41.080   1.417   1.556
16881W        W89306  32.328  10.366   5.207
16882W        W89307  11.195  31.112  13.868
16883W        W89308   9.319  11.904   0.530
16884W        W89309   8.894  40.078   1.073
16885W        W89310  18.670   8.578  14.377
16886W        W89311   9.293  23.238  11.671
16887W        W89312  25.739   3.675  12.967
16888W        W89313  28.396  36.875   0.778
16889W        W89314  27.991   8.351   4.535
16890W        W89315  11.201   4.461   3.080
16891W        W89316  22.973  15.048   3.678
16892W        W89317  19.560   6.258   4.211
16893W        W89318  16.365  28.581  10.393
16894W        W89319  24.175  24.692   3.730
16895W        W89320  36.475  39.809   4.273
16896W        W89321  37.002  31.245   3.629
16897W        W89322  22.763   0.712   0.791
16898W        W89323  11.469  30.948  10.444
16899W        W89324  40.404  20.841  13.850
16900W        W89325  18.240  10.125   5.420
16901W        W89326  14.989  31.990   2.725
16902W        W89327  20.088   3.091  12.079
16903W        W89328  37.072   3.836  14.846
16904W        W89329  28.502  22.600   0.345
16905W        W89330  27.155  19.262  11.466
16906W        W89331   4.902  10.849   0.778
16907W        W89332  38.402   9.752   4.563
16908W        W89333   6.678  42.725  12.033
16909W        W89334  40.771  18.115  14.851
16910W        W89335  26.602  41.260   0.220
16911W        W89336  13.693  33.446  10.705
16912W        W89337  13.367  30.603  13.325
16913W        W89338  36.597   5.281   2.573
16914W        W89339  35.424  37.329  14.501
16915W        W89340   7.185  19.570   3.755
16916W        W89341  15.642  36.467  10.714
16917W        W89342  32.522  24.558  12.455
16918W        W89343  10.351  31.506  11.499
16919W        W89344  14.239   1.667   1.698
16920W        W89345  37.124   4.907  11.550
16921W        W89346  44.976  29.539   0.277
16922W        W89347  26.052   2.288   2.220
16923W        W89348   8.829  42.355   0.275
16924W        W89349  44.508  27.995  13.967
16925W        W89350   4.312  23.630   1.137
16926W        W89351   8.854  35.837  10.597
16927W        W89352  34.974  40.313   0.454
16928W        W89353  15.804  31.110  12.986
16929W        W89354  10.001  16.253  13.200
16930W        W89355  18.317  14.707   2.707
16931W        W89356  12.776  15.051   3.364
16932W        W89357   1.527  39.911   0.192
16933W        W89358  44.470  11.583   4.653
16934W        W89359  41.082  21.140   4.310
16935W        W89360   1.956  25.525  11.943
16936W        W89361  40.766  36.329   2.848
16937W        W89362   3.375  26.894  12.947
16938W        W89363  10.422   6.291   3.343
16939W        W89364  26.628  37.091  11.122
16940W        W89365  34.662   6.297   4.024
16941W        W89366   7.698  39.412   3.901
16942W        W89367  24.270  44.954  11.347
16943W        W89368  18.763  35.904   3.109
16944W        W89369  31.422  32.089   2.787
16945W        W89370  35.082  35.740   1.962
16946W        W89371  31.959  37.334  12.177
16947W        W89372   6.569  38.864   3.698
16948W        W89373   9.601  33.011   3.711
16949W        W89374  29.496  16.477   1.684
16950W        W89375  18.508   4.812   4.379
16951W        W89376  43.421  36.528  10.397
16952W        W89377   7.150  27.619   1.736
16953W        W89378  28.515  26.316   3.244
16954W        W89379  14.759  33.245  11.601
16955W        W89380  28.033   1.366   0.888
16956W        W89381  42.280   3.105   2.237
16957W        W89382  36.438  18.734   1.655
16958W        W89383  31.651  13.678   2.306
16959W        W89384  11.200  22.663   0.287
16960W        W89385  20.501  41.050  14.006
16961W        W89386  26.671   1.924   0.417
16962W        W89387  24.973  35.050  12.604
16963W        W89388  40.367  32.032   4.794
16964W        W89389  18.350  29.394   0.362
16965W        W89390   4.845  37.307   4.664
16966W        W89391  37.617  33.093  13.329
16967W        W89392  28.851  43.268   4.129
16968W        W89393  32.097  29.488  13.061
16969W        W89394  21.213  44.835  12.860
16970W        W89395  35.641  27.586   2.277
16971W        W89396  12.881   8.954   3.244
16972W        W89397  19.566  14.022  12.964
16973W        W89398  14.751  14.283  14.246
16974W        W89399  36.027  34.482   4.548
16975W        W89400   4.702  17.164  10.930
16976W        W89401  40.820  38.284   0.753
16977W        W89402  27.006  26.110   4.472
16978W        W89403  16.318  22.024   1.637
16979W        W89404  11.797  33.132  10.807
16980W        W89405   1.498  31.057   1.897
16981W        W89406  26.744  39.321   3.303
16982W        W89407  28.422   2.988   3.025
16983W        W89408  30.517  28.354   3.935
16984W        W89409  19.025  36.179   2.755
16985W        W89410  20.188  38.255   1.271
16986W        W89411  18.159  28.974  12.128
16987W        W89412  31.174   4.831   2.847
16988W        W89413  13.178  12.201   3.913
16989W        W89414  42.048  38.877  10.395
16990W        W89415  20.721  32.070   1.268
16991W        W89416  24.747  19.643   3.488
16992W        W89417  22.144   9.928  14.452
16993W        W89418  35.317   1.864  11.501
16994W        W89419  16.362  18.772   2.698
16995W        W89420  17.134   4.815   2.677
16996W        W89421  16.068  32.151  13.479
16997W        W89422   4.978  35.070   2.914
16998W        W89423  14.085  34.419  13.415
16999W        W89424  18.442  36.795  11.108
17000W        W89425  30.367  33.810  12.918
17001W        W89426  15.973   2.131  12.092
17002W        W89427  18.588   7.275   2.758
17003W        W89428  26.791   6.592  14.416
17004W        W89429  35.473   9.842  11.265
17005W        W89430  27.870  39.216  11.615
17006W        W89431  14.779  14.563  12.902
17007W        W89432  32.965   5.659  10.869
17008W        W89433  32.001  11.440   0.819
17009W        W89434  14.169  18.938  12.434
17010W        W89435  12.035   1.725   3.784
17011W        W89436  16.716  10.843  14.559
17012W        W89437  26.611  22.848  12.977
17013W        W89438  25.069  10.686  13.806
17014W        W89439  14.336  10.207  10.701
17015W        W89440  33.115  37.386  11.220
17016W        W89441  32.323  37.092  12.615
17017W        W89442  23.302  15.519  13.445
17018W        W89443   9.034  13.805   2.658
17019W        W89444  12.300  27.278   2.132
17020W        W89445  39.811   4.991  14.442
17021W        W89446   4.263   8.332  12.750
17022W        W89447   1.403   2.933  14.711
17023W        W89448   0.818  42.596  14.813
17024W        W89449  38.144  26.074  12.154
17025W        W89450  16.250  23.422   1.785
17026W        W89451  25.624  39.214   0.393
17027W        W89452  28.104   4.454   4.705
17028W        W89453  34.891  18.184   0.937
17029W        W89454  37.917  37.981   0.895
17030W        W89455   4.596  28.878   0.027
17031W        W89456  36.587  34.779   1.439
17032W        W89457  28.716  26.736  10.715
17033W        W89458  22.100  12.311   9.749
17034W        W89459  30.917  41.745   1.327
17035W        W89460  36.472   4.959  10.356
17036W        W89461  13.677  15.603  14.549
17037W        W89462   1.373  15.486   9.734
17038W        W89463   1.608  30.016  10.625
17039W        W89464  18.968  25.221   3.514
17040W        W89465  44.041  24.123   4.621
17041W        W89466   1.682  31.159  11.605
17042W        W89467  44.484  43.997   1.684
17043W        W89468  38.319   2.927   2.685
17044W        W89469  28.959  24.564  11.965
17045W        W89470  19.045  17.289  13.345
17046W        W89471   9.255  14.765   1.873
17047W        W89472  37.742  31.161  12.132
17048W        W89473  29.511  11.884  12.518
17049W        W89474   8.054  17.238  11.611
17050W        W89475   7.152  25.127  13.030
17051W        W89476   4.150   9.780  12.075
17052W        W89477  30.158  35.849   4.038
17053W        W89478  11.009  13.768  14.266
17054W        W89479   5.089  30.297   2.330
17055W        W89480   3.979  10.250   0.897
17056W        W89481  23.695  26.369  14.841
17057W        W89482   0.310  10.178   0.945
17058W        W89483   1.826   0.416   3.741
17059W        W89484  10.755  11.756   1.390
17060W        W89485   9.505   5.971   4.113
17061W        W89486  34.017  13.110  12.517
17062W        W89487  12.221   3.225  13.809
17063W        W89488  27.496   3.699   2.275
17064W        W89489  15.976  39.531   1.771
17065W        W89490  16.389  42.452  14.794
17066W        W89491  43.205   8.298  12.334
17067W        W89492  18.293  39.825   0.847
17068W        W89493   8.731  41.403   3.702
17069W        W89494  26.722   1.932  14.492
17070W        W89495  27.339   9.898   0.223
17071W        W89496  17.748   9.412  14.339
17072W        W89497   2.885  44.366   4.719
17073W        W89498  42.937  38.552  14.949
17074W        W89499  40.685   1.268   4.592
17075W        W89500  40.621  29.436  12.907
17076W        W89501  29.859  14.635  10.717
17077W        W89502  37.234   3.123   0.357
17078W        W89503  22.631  43.524   1.430
17079W        W89504  18.750  18.871  13.791
17080W        W89505  36.005  36.781  12.110
17081W        W89506   5.949  12.933  13.402
17082W        W89507  37.470  21.007  10.795
17083W        W89508  12.266   6.604   1.454
17084W        W89509   4.849   4.212  11.572
17085W        W89510  36.525  28.348   0.510
17086W        W89511  29.001   8.398   0.459
17087W        W89512  34.880  33.551  10.561
17088W        W89513  25.496  33.049   4.969
17089W        W89514  33.712  37.925  11.023
17090W        W89515  36.109  36.468   4.602
17091W        W89516  34.369  17.037  13.439
17092W        W89517  36.012  32.743  14.537
17093W        W89518   2.944   8.659  13.797
17094W        W89519  23.612  39.637  11.496
17095W        W89520   2.389   2.683   2.805
17096W        W89521  12.805  21.908  13.420
17097W        W89522  22.531  38.812   4.263
17098W        W89523   4.647   6.284   4.569
17099W        W89524  30.706  39.681  11.559
17100W        W89525  17.732  23.479  10.440
17101W        W89526  41.520  31.390   4.612
17102W        W89527   2.694  31.923  13.884
17103W        W89528  29.341  19.700   4.800
17104W        W89529  22.119  13.042   1.784
17105W        W89530  36.990  27.537   0.956
17106W        W89531  27.737  15.364   1.567
17107W        W89532  16.262  28.143  12.561
17108W        W89533   6.153  40.857  11.120
17109W        W89534  25.962  22.920   4.612
17110W        W89535  38.448  40.654   0.521
17111W        W89536  35.464  30.198   2.680
17112W        W89537  14.043  30.325  11.215
17113W        W89538  31.883  11.190   2.693
17114W        W89539   5.925  35.077   0.021
17115W        W89540  27.504  41.321   4.157
17116W        W89541  44.411  41.443   4.649
17117W        W89542   0.782  38.465  13.847
17118W        W89543  29.449  13.989  11.253
17119W        W89544  30.190  40.749   1.304
17120W        W89545  28.505  36.596  13.300
17121W        W89546   7.614  10.006  10.673
17122W        W89547  18.106  14.133   1.555
17123W        W89548  44.405   3.312  12.453
17124W        W89549  42.922   9.279   2.326
17125W        W89550  15.991   5.345  11.466
17126W        W89551   9.429  24.129   2.768
17127W        W89552  18.257  13.135   4.838
17128W        W89553   8.614  27.164   1.296
17129W        W89554  35.136  37.599   0.825
17130W        W89555  25.956  34.046   0.242
17131W        W89556  38.086  26.381   3.819
17132W        W89557   8.849   2.788   2.311
17133W        W89558  41.495   1.432  13.753
17134W        W89559  18.719  18.382  10.656
17135W        W89560  25.020  32.092  12.051
17136W        W89561  24.688  32.868  12.545
17137W        W89562  19.426  29.532   4.655
17138W        W89563  13.753  42.158  12.208
17139W        W89564  28.398  39.011   9.679
17140W        W89565   6.168  18.281  11.652
17141W        W89566  36.854  10.057   3.097
17142W        W89567  39.713  42.787  10.602
17143W        W89568  16.647  11.729   4.176
17144W        W89569  32.881  38.520  14.824
17145W        W89570  25.605  10.227   4.070
17146W        W89571  30.603  28.654  11.118
17147W        W89572  13.344  43.285  14.449
17148W        W89573   6.320  31.327  11.259
17149W        W89574  36.530   9.849  11.748
17150W        W89575   3.505  39.372  10.704
17151W        W89576  12.209  13.527  11.178
17152W        W89577  33.960  35.049   4.770
17153W        W89578  19.236  40.255   3.323
17154W        W89579  18.736   2.872   2.951
17155W        W89580   7.331  27.270  12.436
17156W        W89581  42.006  16.590   3.812
17157W        W89582  34.913   3.294  13.427
17158W        W89583  12.385  21.216   4.562
17159W        W89584  16.267  10.366   9.875
17160W        W89585  20.654  33.171  12.586
17161W        W89586  22.680   1.560  11.160
17162W        W89587   0.440  21.105  13.478
17163W        W89588  38.399   5.404   1.441
17164W        W89589  11.905   4.807   3.238
17165W        W89590   0.037  18.777  14.489
17166W        W89591   7.688  32.488  10.640
17167W        W89592   5.315  19.147  12.575
17168W        W89593  44.394   9.998  10.628
17169W        W89594  39.002  14.166  13.847
17170W        W89595  14.584  18.244  13.926
17171W        W89596   3.549   1.388  14.823
17172W        W89597  41.487  25.778   0.725
17173W        W89598  34.556  20.542  13.806
17174W        W89599  22.027  15.523  12.155
17175W        W89600  21.691   8.319  14.341
17176W        W89601  38.990  39.460  11.643
17177W        W89602  18.612  22.053  11.703
17178W        W89603  34.189  16.430  14.312
17179W        W89604   6.355  23.254  11.651
17180W        W89605  21.642  17.556  13.037
17181W        W89606  36.427  13.299  12.888
17182W        W89607  42.257  11.533  11.156
17183W        W89608  23.318  13.714  14.223
17184W        W89609  37.927  31.898   0.029
17185W        W89610   2.256  15.990  13.464
17186W        W89611  37.661  43.891  13.780
17187W        W89612  26.025  36.624  10.806
17188W        W89613  10.345   6.726   3.058
17189W        W89614  11.734  39.612   1.396
17190W        W89615  38.001   6.405  10.590
17191W        W89616  11.595  19.800   3.869
17192W        W89617  24.070  24.160   0.269
17193W        W89618   6.919  28.823  14.694
17194W        W89619   4.399  37.826  11.647
17195W        W89620  31.359  14.608  11.122
17196W        W89621  13.573  13.917  13.455
17197W        W89622   4.889  31.747  12.504
17198W        W89623  34.746  29.691   3.426
17199W        W89624   0.781  36.463   2.817
17200W        W89625  25.147  27.088   1.841
17201W        W89626   9.174   5.260  11.246
17202W        W89627   1.370   1.908  14.872
17203W        W89628   9.177  28.627   3.253
17204W        W89629  41.811  28.317   2.793
17205W        W89630  17.080   3.239  14.408
17206W        W89631  15.704  17.059   4.091
17207W        W89632  25.052  43.449   4.619
17208W        W89633  30.666  25.066  13.898
17209W        W89634  10.797  42.509  13.078
17210W        W89635   0.296   4.745  10.644
17211W        W89636  42.013  28.127  13.430
17212W        W89637  32.168  14.546   1.357
17213W        W89638  16.679   5.408  14.015
17214W        W89639  24.134  20.336   3.233
17215W        W89640  32.200  26.943  13.437
17216W        W89641  31.034  27.091  12.163
17217W        W89642   0.889  44.833  11.619
17218W        W89643  43.993   4.352  11.085
17219W        W89644  36.294  19.266  14.088
17220W        W89645  30.236   6.437  11.920
17221W        W89646  24.105  19.124   4.110
17222W        W89647  33.438  38.319  12.141
17223W        W89648   2.253  11.341  10.573
17224W        W89649  24.635   2.576   1.323
17225W        W89650  36.590  31.363   0.412
17226W        W89651  22.983   6.168   3.878
17227W        W89652   2.430  28.888  14.907
17228W        W89653  17.866   6.677   1.034
17229W        W89654   2.802  35.196  14.831
17230W        W89655  21.525  31.429   1.368
17231W        W89656   6.191  25.046  12.143
17232W        W89657  30.163  12.333   4.936
17233W        W89658  40.059   2.802   2.853
17234W        W89659  44.331  16.142  11.977
17235W        W89660  16.880  20.039   3.689
17236W        W89661   5.277  14.286  12.590
17237W        W89662  24.339  39.743   4.170
17238W        W89663  35.022  22.071  11.326
17239W        W89664  34.881  32.851   3.645
17240W        W89665  32.374  35.716   3.216
17241W        W89666   8.068   7.340  12.070
17242W        W89667  12.213   8.369   1.527
17243W        W89668  39.938   7.778  14.970
17244W        W89669   0.526  15.684  14.380
17245W        W89670  29.623   5.887   1.370
17246W        W89671   3.225  34.917  11.995
17247W        W89672  19.207   2.700   3.110
17248W        W89673  11.055  23.190   2.792
17249W        W89674  23.786  10.315  11.399
17250W        W89675   5.880  25.782  12.533
17251W        W89676  13.775  41.356  13.308
17252W        W89677  32.468   5.336   0.464
17253W        W89678   8.225  16.551   1.740
17254W        W89679  20.000  29.454   3.231
17255W        W89680  17.591   5.426  11.110
17256W        W89681  16.620  27.104  14.281
17257W        W89682  23.476  28.551  10.761
17258W        W89683  42.282  21.280  12.293
17259W        W89684  33.852   1.118  12.613
17260W        W89685  42.882  27.911  12.540
17261W        W89686   7.926   9.136   3.193
17262W        W89687   6.292   9.079   3.737
17263W        W89688  28.491  28.162   0.980
17264W        W89689  10.685  40.320  13.314
17265W        W89690  16.297  30.599   2.486
17266W        W89691  38.509   8.434  12.398
17267W        W89692  42.838  20.602  11.900
17268W        W89693   1.933  35.071   2.364
17269W        W89694  17.163  29.576   4.861
17270W        W89695  25.198  37.148  11.202
17271W        W89696  28.480   4.779  14.112
17272W        W89697  20.608  38.688  10.673
17273W        W89698  38.811  11.140  13.947
17274W        W89699   4.983  34.168   2.588
17275W        W89700  17.085  28.426  11.543
17276W        W89701  34.099  17.159  14.304
17277W        W89702  42.745  21.162   2.936
17278W        W89703  32.682   0.221   0.386
17279W        W89704  10.298  24.659  14.668
17280W        W89705   8.226  34.993   4.692
17281W        W89706  11.713  14.819  14.830
17282W        W89707   7.415  22.774  13.033
17283W        W89708  21.982  39.273  10.569
17284W        W89709  17.313  17.717  14.298
17285W        W89710   3.717  43.333   0.465
17286W        W89711  21.852  31.315  12.824
17287W        W89712   8.935  19.599   1.103
17288W        W89713  27.008  39.768  11.480
17289W        W89714  27.526  28.603  14.468
17290W        W89715  22.941   1.148   2.857
17291W        W89716  38.570   8.300   3.313
17292W        W89717  36.558  36.571   0.733
17293W        W89718  14.310  17.497  14.296
17294W        W89719  21.874   2.754   2.444
17295W        W89720   2.314  27.899   2.822
17296W        W89721   3.845  22.135   1.722
17297W        W89722   9.681  20.533  13.205
17298W        W89723   3.028  44.903  14.993
17299W        W89724  39.458  42.955   4.552
17300W        W89725  28.311  27.629   1.167
17301W        W89726  39.997   6.379   2.187
17302W        W89727   4.632  34.585   3.297
17303W        W89728  25.831  44.037  10.644
17304W        W89729  36.247  41.723  12.444
17305W        W89730  34.202  40.637   3.899
17306W        W89731  28.776   2.327   4.214
17307W        W89732  36.875  44.333  13.749
17308W        W89733  11.143   6.991  13.332
17309W        W89734  27.866  29.654  14.405
17310W        W89735   1.714  43.433   4.570
17311W        W89736  43.907   2.410   2.922
17312W        W89737  16.855   1.058  14.032
17313W        W89738  43.202   2.284   4.669
17314W        W89739  17.169  30.205  11.233
17315W        W89740   0.217  13.383   0.161
17316W        W89741  42.753  37.889   2.130
17317W        W89742  41.500  44.285   2.761
17318W        W89743  41.897   1.597  14.479
17319W        W89744  34.385   5.897  11.091
17320W        W89745  27.764  40.360   4.209
17321W        W89746  19.033  15.991  13.788
17322W        W89747  29.099  24.174   5.337
17323W        W89748   8.233  25.227  11.460
17324W        W89749  12.600  39.102   2.343
17325W        W89750  32.104  37.000   0.704
17326W        W89751  29.901  44.014   3.232
17327W        W89752  41.818  19.213  13.889
17328W        W89753  19.573  27.142   4.944
17329W        W89754  39.850   4.583  11.080
17330W        W89755   4.987   3.878   4.071
17331W        W89756  26.523  33.026   1.731
17332W        W89757   3.496  40.307  11.537
17333W        W89758   2.899  20.167  14.570
17334W        W89759   4.585  30.392   2.417
17335W        W89760  23.206  36.393   1.682
17336W        W89761   4.182  12.754   4.736
17337W        W89762  16.710  43.821   1.879
17338W        W89763  22.027  35.652   2.454
17339W        W89764  14.795   5.035  10.096
17340W        W89765  24.265  11.073   2.439
17341W        W89766  14.594  21.556   0.295
17342W        W89767  14.872   4.192  11.411
17343W        W89768  11.905  36.594   1.168
17344W        W89769   2.427  20.102   3.056
17345W        W89770  22.590  19.487   2.841
17346W        W89771  42.555  23.393  14.905
17347W        W89772   5.479   3.017  12.583
17348W        W89773  26.596  39.602   0.220
17349W        W89774  17.159  22.062   4.562
17350W        W89775  35.584  21.791   4.089
17351W        W89776   1.891  34.288   4.599
17352W        W89777   7.240   3.677   2.646
17353W        W89778  22.252  23.016  12.659
17354W        W89779  20.066  37.558  13.055
17355W        W89780   5.928  34.696   4.691
17356W        W89781  38.878  29.181  11.812
17357W        W89782  12.374  32.560   3.799
17358W        W89783  36.045   1.318  10.979
17359W        W89784  27.500  11.393   1.913
17360W        W89785  13.783  37.921  12.833
17361W        W89786  37.568  44.237  12.083
17362W        W89787  12.239  39.934  11.639
17363W        W89788   9.956  32.602  13.800
17364W        W89789  33.011  25.368   3.825
17365W        W89790  41.794  15.675   2.870
17366W        W89791  16.249  15.754  10.668
17367W        W89792  14.292  11.017   1.237
17368W        W89793  13.794  28.974   1.253
17369W        W89794  32.011  41.156  14.248
17370W        W89795   6.121   9.465  14.971
17371W        W89796  34.832  22.105   4.722
17372W        W89797  18.507  42.544   3.158
17373W        W89798   1.299  36.010  11.875
17374W        W89799   4.032  29.962   2.842
17375W        W89800  42.796  32.169   0.511
17376W        W89801  24.894  44.475   2.325
17377W        W89802  16.226  19.258  12.553
17378W        W89803  26.437  34.685   2.354
17379W        W89804  23.978  27.538  11.607
17380W        W89805  39.522   9.868   2.355
17381W        W89806  15.678  31.251   5.058
17382W        W89807  15.104  13.739   4.420
17383W        W89808  25.925  12.579  13.552
17384W        W89809  11.834  25.257   0.969
17385W        W89810  33.990  19.614   4.757
17386W        W89811   0.326  20.138   2.816
17387W        W89812  27.368   2.809   4.583
17388W        W89813  34.426  33.081   3.580
17389W        W89814  25.589  19.981   2.231
17390W        W89815  24.789  39.530  11.721
17391W        W89816  23.285  35.902  11.769
17392W        W89817  10.388  18.703   3.205
17393W        W89818  42.962  28.740   1.722
17394W        W89819   1.299   5.497   0.800
17395W        W89820  20.955   0.759   1.118
17396W        W89821  13.198  28.518   3.762
17397W        W89822  38.314  41.486  14.360
17398W        W89823  35.242  10.213  14.862
17399W        W89824  43.389  17.453  14.940
17400W        W89825  36.502  14.832  12.370
17401W        W89826  32.981  21.713   1.066
17402W        W89827  30.990  16.489  11.162
17403W        W89828  13.558  37.156   2.365
17404W        W89829  30.206  19.616  11.898
17405W        W89830  18.407  23.521   0.272
17406W        W89831  27.063  33.499  11.930
17407W        W89832  21.306   1.369   4.639
17408W        W89833  30.948  30.411   0.519
17409W        W89834   2.158   6.122  13.976
17410W        W89835  32.921   4.244   1.289
17411W        W89836  44.020  31.889   5.506
17412W        W89837  20.075  32.460   0.051
17413W        W89838  16.185  38.766   0.351
17414W        W89839  16.520  16.688   1.327
17415W        W89840  33.642  20.109   1.644
17416W        W89841  13.147  20.918   3.433
17417W        W89842  44.818  25.775  10.911
17418W        W89843  42.420  32.911  10.364
17419W        W89844  44.487  42.459   3.707
17420W        W89845  31.119  36.391  14.463
17421W        W89846  36.307   0.433   4.565
17422W        W89847  16.135  18.212   2.722
17423W        W89848  23.259  22.919   1.557
17424W        W89849  22.877  12.331   2.780
17425W        W89850  39.256  29.500  13.612
17426W        W89851  11.442  22.564   4.056
17427W        W89852  20.074  23.146   3.399
17428W        W89853  21.724  21.150  13.085
17429W        W89854  26.192  22.633   1.678
17430W        W89855  29.547  33.021  12.951
17431W        W89856  25.708   2.905   0.348
17432W        W89857  43.448   2.907   4.073
17433W        W89858  26.118  35.364   2.713
17434W        W89859  13.200  25.168   4.646
17435W        W89860  34.711   7.349   2.651
17436W        W89861   8.121  39.287  14.779
17437W        W89862  34.471  39.214  14.122
17438W        W89863  32.336  26.066   2.978
17439W        W89864  25.245  14.684  12.005
17440W        W89865  42.652   5.725  11.964
17441W        W89866  26.924  23.660  10.724
17442W        W89867   7.637   9.346  12.994
17443W        W89868  42.011  38.881  11.623
17444W        W89869   3.401  33.863   2.501
17445W        W89870  13.147  41.449   1.698
17446W        W89871   0.361  11.029  14.845
17447W        W89872  18.133  14.880   2.247
17448W        W89873  29.413  41.433  14.827
17449W        W89874  32.032  13.658   2.731
17450W        W89875  11.627   6.848   3.926
17451W        W89876  26.053   1.967   0.783
17452W        W89877  17.916   8.446   3.625
17453W        W89878  17.180  17.186   1.464
17454W        W89879  36.769  10.771   3.644
17455W        W89880   6.755  10.888   2.825
17456W        W89881   3.082  11.275   3.286
17457W        W89882  23.827   9.899   4.711
17458W        W89883   3.422  12.577  13.122
17459W        W89884  37.508  40.723   0.512
17460W        W89885  21.038  36.908  11.229
17461W        W89886  18.680  44.435  11.379
17462W        W89887  21.187  43.950  13.778
17463W        W89888  21.151   1.778   1.716
17464W        W89889  16.424   2.839   2.197
17465W        W89890   8.094  28.935   3.706
17466W        W89891   8.878  41.280  12.828
17467W        W89892   7.639  14.615  13.312
17468W        W89893  36.162  26.627  11.901
17469W        W89894   0.528  27.960  10.735
17470W        W89895  33.627  22.727   3.662
17471W        W89896   2.185   0.480  12.552
17472W        W89897  25.183  34.636  12.838
17473W        W89898  38.404  28.405   0.205
17474W        W89899  11.668  29.149  13.009
17475W        W89900  13.202  20.335  10.948
17476W        W89901  12.703  42.521   1.431
17477W        W89902   0.900  22.665   3.469
17478W        W89903  29.846  15.411   0.321
17479W        W89904   5.243   0.820   1.721
17480W        W89905  18.038  34.197   3.735
17481W        W89906  16.212  29.937  14.517
17482W        W89907  11.862  39.983  14.273
17483W        W89908  33.882   8.605   1.612
17484W        W89909  27.216  18.727  11.485
17485W        W89910  25.706  23.655   4.122
17486W        W89911  16.268  24.020   2.862
17487W        W89912  32.911  23.111  14.762
17488W        W89913   4.902  34.922  12.522
17489W        W89914  25.408  26.050   1.904
17490W        W89915  37.095   7.246  14.323
17491W        W89916  11.922  33.494  11.199
17492W        W89917   6.953  18.075  12.128
17493W        W89918  38.432  35.034   1.953
17494W        W89919  20.094  32.582  10.689
17495W        W89920  44.418  37.481   1.897
17496W        W89921  14.774  23.606   9.461
17497W        W89922  16.189  39.996   2.024
17498W        W89923  38.503  38.263  11.123
17499W        W89924  27.347   4.732  12.386
17500W        W89925  16.543  21.562   4.626
17501W        W89926  26.326  27.223   4.038
17502W        W89927  38.525  33.238  14.863
17503W        W89928  19.182   6.002  11.660
17504W        W89929  31.584  17.012   0.988
17505W        W89930   9.651  10.129   4.191
17506W        W89931   2.988  22.545  12.050
17507W        W89932  21.495  42.584  12.450
17508W        W89933  42.559  38.555   4.183
17509W        W89934  37.487  40.366  10.723
17510W        W89935  21.225  36.433   4.191
17511W        W89936  36.138  16.116  12.883
17512W        W89937  11.770  37.747   3.606
17513W        W89938  22.266   4.245   1.933
17514W        W89939  14.851   1.358  10.527
17515W        W89940   2.809  14.209  14.439
17516W        W89941  31.518   4.919  13.016
17517W        W89942  39.947  27.271   0.302
17518W        W89943  15.209  10.781  10.716
17519W        W89944  28.021  32.818   3.297
17520W        W89945  34.488   8.827  11.514
17521W        W89946  39.840  21.030   2.401
17522W        W89947  14.585  12.358  12.982
17523W        W89948  29.351   2.824  13.758
17524W        W89949  39.480  43.440  14.557
17525W        W89950  32.543  35.701  14.118
17526W        W89951  13.678   5.146  13.500
17527W        W89952   2.436  33.012  14.517
17528W        W89953  20.978  30.072   0.981
17529W        W89954  35.444  30.954   0.558
17530W        W89955  32.956  44.458   1.336
17531W        W89956  26.294  24.462  13.934
17532W        W89957  40.853  29.906   3.675
17533W        W89958  24.409  21.167   2.702
17534W        W89959   4.677   5.706  14.413
17535W        W89960   6.845   5.188   3.184
17536W        W89961  39.285   0.718  11.348
17537W        W89962  29.198  27.004   2.731
17538W        W89963  15.335  29.635  13.755
17539W        W89964  41.325   0.362   3.750
17540W        W89965   3.022  29.931   2.656
17541W        W89966   8.328  12.165  12.432
17542W        W89967  41.732  33.647   2.638
17543W        W89968  13.098  27.408   1.627
17544W        W89969  41.853  10.209  12.463
17545W        W89970  43.256  23.291  14.479
17546W        W89971  26.854  11.149  13.882
17547W        W89972  34.555  28.041   2.093
17548W        W89973  42.813  14.273  12.165
17549W        W89974  11.430  12.597   1.482
17550W        W89975   0.407  35.183  14.542
17551W        W89976  42.850  17.318  14.950
17552W        W89977  10.777  20.497   0.759
17553W        W89978  15.598  32.648  10.537
17554W        W89979  26.536  29.207  10.200
17555W        W89980  25.001  44.346  13.614
17556W        W89981  42.857  17.691  14.493
17557W        W89982   4.407  34.468  11.151
17558W        W89983  19.795  39.796  10.501
17559W        W89984   0.495   8.415   3.262
17560W        W89985  34.526  40.783   1.789
17561W        W89986  26.508   3.769  11.113
17562W        W89987  22.762  19.086   1.684
17563W        W89988  39.749  33.330   4.523
17564W        W89989  43.836  25.392   2.646
17565W        W89990  27.883  10.623  13.371
17566W        W89991  28.013  40.785  12.995
17567W        W89992  11.210  31.408  12.962
17568W        W89993  27.697  35.028  12.034
17569W        W89994  14.887  31.018   2.725
17570W        W89995  10.340  13.947   1.380
17571W        W89996  21.545  15.166  12.867
17572W        W89997  32.649  31.679   2.347
17573W        W89998   5.290   2.773   3.991
17574W        W89999  42.787   3.735   4.257
17575W        W90000   2.251  21.662   4.129
17576W        W90001   9.577  20.293   0.539
17577W        W90002  43.211  31.170  13.663
17578W        W90003   4.340  21.393   0.418
17579W        W90004  30.672   7.190  10.768
17580W        W90005  33.351  22.444   3.309
17581W        W90006  12.492  41.349   0.809
17582W        W90007   0.276  39.527   0.477
17583W        W90008  18.783  44.492   1.438
17584W        W90009  40.872  39.410   0.031
17585W        W90010  10.776   6.032  12.566
17586W        W90011   4.982  30.883  12.453
17587W        W90012  10.634  19.073   4.698
17588W        W90013  30.077  21.272   5.165
17589W        W90014  20.461  40.875   3.929
17590W        W90015  22.527   2.102  11.092
17591W        W90016  19.002   1.013   4.757
17592W        W90017  20.113  11.112  14.193
17593W        W90018  35.089  35.097  14.863
17594W        W90019  24.330  10.358   5.033
17595W        W90020  40.317   9.861  10.727
17596W        W90021  28.495  26.750   2.374
17597W        W90022  14.344  23.124  14.523
17598W        W90023  10.729   4.276   2.371
17599W        W90024  14.216  29.103  12.870
17600W        W90025  32.052  11.817  11.400
17601W        W90026  43.265  12.258   2.867
17602W        W90027  25.701  41.500   2.812
17603W        W90028  22.992   1.317   0.399
17604W        W90029  33.083   9.292   3.702
17605W        W90030  26.715  15.659   2.536
17606W        W90031  34.150   7.947  13.366
17607W        W90032  14.278  14.133   0.466
17608W        W90033  38.396  24.697  13.105
17609W        W90034   8.209  39.607  11.461
17610W        W90035   3.708  28.677  11.992
17611W        W90036  43.772  10.325   3.051
17612W        W90037   9.603  41.331   1.823
17613W        W90038  37.939   4.113  14.898
17614W        W90039  10.945  27.181   4.141
17615W        W90040   4.319  36.310  11.593
17616W        W90041  36.049   1.248  13.470
17617W        W90042   8.254  11.867   2.793
17618W        W90043  37.002   5.168   1.276
17619W        W90044  15.884  23.219   3.412
17620W        W90045  38.248  24.499   2.791
17621W        W90046   5.874   0.340   3.610
17622W        W90047   6.495  20.884   4.500
17623W        W90048  27.775  31.534   4.833
17624W        W90049   1.842  15.267   2.042
17625W        W90050  12.884  26.900   4.179
17626W        W90051  31.149   1.423   2.243
17627W        W90052  42.445  43.801  11.155
17628W        W90053  12.983   5.885  14.997
17629W        W90054  21.004  12.158   1.326
17630W        W90055  35.723  22.602  14.791
17631W        W90056  18.797   6.462  14.942
17632W        W90057  15.551   3.289  10.192
17633W        W90058  27.701  10.226   3.340
17634W        W90059   1.252  21.315   3.558
17635W        W90060   4.909  28.864  14.252
17636W        W90061   7.472  44.164   0.335
17637W        W90062  14.293  17.535   0.261
17638W        W90063  28.623  25.753  11.025
17639W        W90064  36.317  27.649  12.844
17640W        W90065  25.419  38.444  13.169
17641W        W90066  35.035  42.874   1.328
17642W        W90067   3.060   0.480   4.376
17643W        W90068  19.696  37.464  14.436
17644W        W90069  15.605  16.823   2.786
17645W        W90070  21.554  30.308   1.635
17646W        W90071  15.119   7.711   3.667
17647W        W90072   2.972  17.678   1.245
17648W        W90073  32.429  39.967   1.395
17649W        W90074   9.696   5.211   0.069
17650W        W90075  25.504  14.721  13.455
17651W        W90076  12.294  42.261   1.611
17652W        W90077  27.367  21.551  11.510
17653W        W90078   7.690  33.926   4.805
17654W        W90079   4.381  18.408  14.886
17655W        W90080  11.271  30.181   1.851
17656W        W90081  27.083  16.585   4.000
17657W        W90082  44.416  13.614   1.880
17658W        W90083  31.063  11.494  11.630
17659W        W90084  41.910  22.970  10.496
17660W        W90085   4.615  31.888  13.466
17661W        W90086  28.996  26.582   3.290
17662W        W90087   2.912  31.639   1.754
17663W        W90088   8.239  21.689  13.887
17664W        W90089  18.639  35.982   1.416
17665W        W90090  42.966  43.333   4.776
17666W        W90091  42.016  38.959   2.839
17667W        W90092   1.289   2.881  13.866
17668W        W90093  30.049   6.550   1.862
17669W        W90094  15.217  15.071   1.750
17670W        W90095  15.814  22.138  12.924
17671W        W90096  29.477  24.477  11.898
17672W        W90097   5.733   8.780   1.013
17673W        W90098  12.807   0.942  14.541
17674W        W90099  28.249  35.641   3.287
17675W        W90100  33.140  11.135   4.218
17676W        W90101  35.236   9.647   3.778
17677W        W90102  18.771  13.816   2.860
17678W        W90103   6.359  25.697  12.299
17679W        W90104  32.572  25.544  12.338
17680W        W90105  15.464  42.046   4.052
17681W        W90106  22.196  16.091   1.985
17682W        W90107  35.847  39.730  13.163
17683W        W90108  15.025  16.234  14.823
17684W        W90109  27.401  22.430  10.299
17685W        W90110   8.192  31.570   2.596
17686W        W90111   6.643  37.015   1.652
17687W        W90112  19.678   5.710  10.625
17688W        W90113  12.578  32.868   2.342
17689W        W90114  41.219  18.623   0.392
17690W        W90115  19.661  13.960   4.196
17691W        W90116  33.465  20.483  12.124
17692W        W90117  42.330  37.108   3.116
17693W        W90118  29.972  31.341   1.841
17694W        W90119  26.740   6.830  13.015
17695W        W90120   3.239  30.904  13.586
17696W        W90121   1.169  27.588   0.464
17697W        W90122  38.133  41.523   0.669
17698W        W90123  39.921  40.719   2.208
17699W        W90124  32.099   8.177  11.259
17700W        W90125  34.349   9.005   2.290
17701W        W90126  37.719  30.354   0.338
17702W        W90127  21.523  11.690   1.677
17703W        W90128  18.704  34.254  12.313
17704W        W90129   7.890  25.408  13.511
17705W        W90130  39.175  42.339  14.554
17706W        W90131  28.878  28.927  13.306
17707W        W90132  13.160  15.739  12.496
17708W        W90133   3.272  44.629  13.388
17709W        W90134  35.252  24.510   2.426
17710W        W90135  27.354  43.411  11.698
17711W        W90136   0.010  33.926  10.571
17712W        W90137  12.637  14.134  14.811
17713W        W90138  15.691  33.559   4.938
17714W        W90139   9.288  34.614  11.469
17715W        W90140  29.212  34.012   0.497
17716W        W90141  14.607   2.333   0.778
17717W        W90142  10.505  25.501   4.145
17718W        W90143  20.373  41.817   0.947
17719W        W90144  26.032  16.720   2.356
17720W        W90145   0.343  16.153   4.693
17721W        W90146  29.730  36.413   2.299
17722W        W90147  21.775  33.024   1.437
17723W        W90148  31.155  27.090   1.910
17724W        W90149  11.098  29.677   4.514
17725W        W90150  44.229  10.817  11.496
17726W        W90151  28.489   6.543  12.393
17727W        W90152   3.483  43.448  11.463
17728W        W90153  27.546  29.730   0.317
17729W        W90154   5.337  23.595  11.724
17730W        W90155  26.775  20.983   1.294
17731W        W90156  24.779  23.071  11.552
17732W        W90157   8.179  15.811   1.496
17733W        W90158  16.506  20.640  11.276
17734W        W90159  25.459  44.465  14.891
17735W        W90160   5.878  16.116   2.332
17736W        W90161  22.544   4.292  13.840
17737W        W90162  26.129  20.663   2.877
17738W        W90163   5.710  23.758  12.603
17739W        W90164  17.883  39.595   2.711
17740W        W90165  11.677  18.774   2.837
17741W        W90166  43.942   6.911   4.542
17742W        W90167  11.770  23.114  11.918
17743W        W90168  35.900  17.664  10.678
17744W        W90169   9.687  21.098  11.105
17745W        W90170  34.471  22.765   1.658
17746W        W90171  20.345   3.515   4.583
17747W        W90172  30.904  28.707  14.886
17748W        W90173  26.211  24.125  13.388
17749W        W90174  11.783  30.400  12.569
17750W        W90175  35.481  36.936   1.357
17751W        W90176  22.368  30.647   4.095
17752W        W90177  34.949  11.370   1.352
17753W        W90178  16.431  42.582  11.906
17754W        W90179  39.773  13.226   0.458
17755W        W90180  31.971  43.469   4.123
17756W        W90181  41.930   8.221   4.390
17757W        W90182  42.969  22.083   1.979
17758W        W90183  21.900  27.304  12.519
17759W        W90184  24.983  27.968  12.126
17760W        W90185  25.953  21.199  10.900
17761W        W90186  38.484  18.281  11.157
17762W        W90187  28.532  13.313  11.461
17763W        W90188  27.503  16.527   0.323
17764W        W90189   4.616  21.602  13.001
17765W        W90190  42.553  20.729   3.164
17766W        W90191  41.410  42.497  11.282
17767W        W90192   5.293  29.574  12.509
17768W        W90193  41.372  33.368  11.459
17769W        W90194   3.302  11.696   4.608
17770W        W90195  35.356   4.965  14.985
17771W        W90196  42.495  35.552   2.189
17772W        W90197   4.920   3.726   3.565
17773W        W90198  26.155  18.240   2.662
17774W        W90199  22.060   0.425  11.053
17775W        W90200  28.438   0.754  13.163
17776W        W90201  27.259  13.605   0.820
17777W        W90202  16.178  19.055   1.735
17778W        W90203  32.684  27.997  14.489
17779W        W90204  39.781   5.991   0.797
17780W        W90205   8.906  38.033   0.820
17781W        W90206  36.333   0.955   2.830
17782W        W90207  43.465  29.663  14.900
17783W        W90208   2.149  30.898   4.428
17784W        W90209  11.558  33.611  10.855
17785W        W90210  21.197  39.995  14.416
17786W        W90211  28.648  22.298  12.941
17787W        W90212   7.773  28.205   2.726
17788W        W90213  20.933  10.421  13.518
17789W        W90214  40.486  31.178   2.541
17790W        W90215  44.013  30.933   4.238
17791W        W90216  31.431  16.261   4.205
17792W        W90217  15.841  38.504  10.981
17793W        W90218  25.093  11.120  12.469
17794W        W90219  41.636  30.521   1.453
17795W        W90220  40.871  13.880  10.733
17796W        W90221  15.226  35.606   1.108
17797W        W90222  22.667  18.763  12.110
17798W        W90223   8.674   1.735  13.058
17799W        W90224   9.358  14.767   4.659
17800W        W90225  12.011  15.301  10.726
17801W        W90226  17.839  27.565   2.152
17802W        W90227   9.042  16.851   2.648
17803W        W90228  21.703  44.577   1.665
17804W        W90229  41.968  22.006  10.738
17805W        W90230  44.996  15.654   3.669
17806W        W90231  44.925  37.600  12.969
17807W        W90232   8.925  23.504  11.337
17808W        W90233  14.132  15.793  12.336
17809W        W90234   1.825   9.163   0.526
17810W        W90235   9.711   2.955  10.563
17811W        W90236  43.844  21.708   4.864
17812W        W90237   4.028  12.968   1.655
17813W        W90238  21.167  12.118  11.648
17814W        W90239  15.356   2.274  10.693
17815W        W90240  24.539  39.033   0.707
17816W        W90241   5.643  15.650   2.362
17817W        W90242   6.409  34.685   4.483
17818W        W90243  15.625  21.653   0.461
17819W        W90244   1.932  39.894  14.872
17820W        W90245  30.257  17.240  13.096
17821W        W90246   3.134  38.307   3.919
17822W        W90247  41.400  32.122  10.746
17823W        W90248  11.896   6.098   2.693
17824W        W90249   5.284  22.581   4.538
17825W        W90250  29.492  37.531  14.567
17826W        W90251  19.220  15.594  12.864
17827W        W90252  23.475  30.786   1.955
17828W        W90253  30.449  22.139  13.591
17829W        W90254  44.521  17.315  13.572
17830W        W90255  27.356  40.476   2.041
17831W        W90256   9.703   4.938  12.046
17832W        W90257  15.909  14.688  11.920
17833W        W90258  39.459   7.813   2.293
17834W        W90259  40.711  14.745   1.664
17835W        W90260  34.506   2.265  14.807
17836W        W90261  20.677  36.769  14.766
17837W        W90262  22.385  38.486   0.095
17838W        W90263  34.888   6.923  12.908
17839W        W90264  22.739  33.478  10.661
17840W        W90265  32.397   3.361   1.372
17841W        W90266  39.789  37.292   0.053
17842W        W90267   7.262  18.216   0.065
17843W        W90268  31.444  31.007  12.544
17844W        W90269  15.616  24.765   2.425
17845W        W90270  44.810  29.725  10.642
17846W        W90271  35.654  19.191  14.938
17847W        W90272   3.589  40.617  12.814
17848W        W90273   7.381  26.501   1.334
17849W        W90274  41.764   5.147  12.935
17850W        W90275  37.669  13.545  13.964
17851W        W90276  21.737  39.970  14.484
17852W        W90277  14.161  36.185   1.956
17853W        W90278  11.179  13.737  10.445
17854W        W90279  31.826  11.665   2.460
17855W        W90280  15.157   4.031  12.702
17856W        W90281  44.660  22.542  12.879
17857W        W90282  39.937  42.761   4.229
17858W        W90283  38.533   2.184  14.472
17859W        W90284  10.532  27.404  12.367
17860W        W90285   0.954  31.665  13.680
17861W        W90286  33.480  37.896   2.338
17862W        W90287   3.345  12.825   2.199
17863W        W90288  20.321  25.162  11.525
17864W        W90289  29.730  38.955  14.777
17865W        W90290   1.196  18.304   2.197
17866W        W90291  26.998  22.868  13.765
17867W        W90292  38.923   4.169  10.667
17868W        W90293   4.320  18.153   4.817
17869W        W90294  17.660  25.646   0.681
17870W        W90295  24.719  38.390   2.756
17871W        W90296  35.585  25.069  10.781
17872W        W90297   4.885  25.790  12.194
17873W        W90298  24.430  14.756  11.657
17874W        W90299  36.876  28.888  14.396
17875W        W90300   8.842  16.260  10.685
17876W        W90301  34.792  19.615   4.783
17877W        W90302  44.663   2.321   3.738
17878W        W90303  44.344  24.162  10.432
17879W        W90304  35.162  29.934   3.247
17880W        W90305  33.024   5.786  12.367
17881W        W90306   4.206  13.859   2.281
17882W        W90307  32.322  18.081   4.119
17883W        W90308  33.582  36.083   3.670
17884W        W90309  43.400  17.548  13.104
17885W        W90310  13.653  19.677  10.734
17886W        W90311  28.916  33.560   4.420
17887W        W90312  10.970  26.415   2.904
17888W        W90313  31.141  33.993  11.167
17889W        W90314  15.966  28.170   3.378
17890W        W90315   4.609   7.669  13.511
17891W        W90316  34.545   4.665  10.553
17892W        W90317  35.519  23.119  13.495
17893W        W90318  21.193  37.790   4.925
17894W        W90319  40.931  13.605  13.005
17895W        W90320  40.782   5.701   3.182
17896W        W90321  20.106  10.090   2.202
17897W        W90322  37.547  31.408   1.439
17898W        W90323  30.636  42.882   0.837
17899W        W90324   3.419  37.641   1.971
17900W        W90325  28.523  22.000   3.248
17901W        W90326   5.185  44.802  13.572
17902W        W90327  19.533   4.827   2.654
17903W        W90328   4.035  10.716  11.116
17904W        W90329  31.390  41.921   1.360
17905W        W90330  12.835  38.991   3.204
17906W        W90331  17.061  11.845   3.648
17907W        W90332  15.726   0.751  14.369
17908W        W90333  22.618  35.576   1.702
17909W        W90334   7.217  25.593   2.195
17910W        W90335  21.021  29.857  10.806
17911W        W90336  33.947  37.797  11.467
17912W        W90337  38.891  11.154  14.853
17913W        W90338  17.983   5.600  14.051
17914W        W90339  18.495  11.872  13.593
17915W        W90340  42.239  32.912   0.688
17916W        W90341  18.954   6.680   3.610
17917W        W90342  26.272  22.031  12.057
17918W        W90343   1.736  16.823  12.872
17919W        W90344  18.783  44.045  12.993
17920W        W90345  29.519  12.853  11.610
17921W        W90346  44.481  10.516  11.828
17922W        W90347  13.603  44.972   0.722
17923W        W90348   2.473  37.865   1.338
17924W        W90349  31.260  24.166  12.549
17925W        W90350  23.661  38.199  13.351
17926W        W90351  28.740  28.209  14.684
17927W        W90352  44.983  15.138  13.401
17928W        W90353   8.660  14.202   1.583
17929W        W90354   2.404  37.143   3.095
17930W        W90355   1.254  21.117   2.797
17931W        W90356   0.913   8.387  11.377
17932W        W90357   4.464  25.668  13.953
17933W        W90358  14.686  40.308  12.032
17934W        W90359  17.793  28.047   4.684
17935W        W90360  42.258  40.463  11.960
17936W        W90361  15.350  14.155   2.166
17937W        W90362  17.130   3.547   3.948
17938W        W90363  16.348   4.324  12.617
17939W        W90364  33.186   5.681  14.538
17940W        W90365  42.266   1.704  11.555
17941W        W90366  14.065  18.932  12.935
17942W        W90367  18.952   7.686  10.485
17943W        W90368  18.511  19.045   3.695
17944W        W90369  23.746  39.847  13.523
17945W        W90370   2.491   4.722  10.730
17946W        W90371  38.776   3.678   9.986
17947W        W90372  15.163  13.578  14.537
17948W        W90373   1.822  27.947   0.675
17949W        W90374  14.184   8.931  12.839
17950W        W90375  16.065  34.369  14.343
17951W        W90376  37.925   1.983   2.237
17952W        W90377  44.625  35.534   3.691
17953W        W90378  35.733  38.368  13.405
17954W        W90379  14.533  22.137   4.542
17955W        W90380  43.455   3.858   3.440
17956W        W90381  25.122  27.030  14.094
17957W        W90382  10.441  18.087  14.530
17958W        W90383   9.389  34.899  11.909
17959W        W90384  42.012  42.586  12.676
17960W        W90385   9.824   7.938  13.490
17961W        W90386  10.393  15.231   3.785
17962W        W90387  14.360  37.933  11.973
17963W        W90388  33.573   3.320   0.721
17964W        W90389  41.456  38.342  14.442
17965W        W90390  39.512  13.135   4.583
17966W        W90391  29.014  30.486  11.012
17967W        W90392  25.247  44.673  12.844
17968W        W90393  41.767  15.212   3.665
17969W        W90394  41.457  40.853  13.299
17970W        W90395  34.834  13.082  14.596
17971W        W90396   4.123  38.968  13.811
17972W        W90397  41.343  12.841   3.188
17973W        W90398   5.734  40.319   4.498
17974W        W90399  24.660  16.569   2.389
17975W        W90400   8.961  34.443  13.394
17976W        W90401  37.871  15.115   0.333
17977W        W90402  42.236  27.381  13.085
17978W        W90403  29.489  11.991  10.243
17979W        W90404  44.103   1.338  11.328
17980W        W90405  11.363  39.944   4.083
17981W        W90406   0.492  33.378   5.548
17982W        W90407  19.274  21.650  11.619
17983W        W90408  44.632   3.651   0.943
17984W        W90409   1.901  39.986  11.208
17985W        W90410   9.450  23.146   0.973
17986W        W90411  17.527   1.820  13.663
17987W        W90412  31.103  26.656  10.806
17988W        W90413  26.724  34.741  12.616
17989W        W90414  36.029  34.461  12.943
17990W        W90415  44.896  43.609  10.891
17991W        W90416  27.144  21.728   1.982
17992W        W90417  31.224  10.431   5.034
17993W        W90418  16.238  29.475   4.354
17994W        W90419   0.969   4.890   2.932
17995W        W90420  27.435   1.721  12.072
17996W        W90421  44.634   1.867   5.086
17997W        W90422   0.781  12.585  13.107
17998W        W90423   3.945   2.953   4.343
17999W        W90424  33.609  23.179  13.115
18000W        W90425  27.817  23.118  12.433
18001W        W90426   9.705  42.736   0.320
18002W        W90427  14.179  20.901  11.945
18003W        W90428  41.977  40.917   1.301
18004W        W90429   2.500  13.058   4.512
18005W        W90430   5.882  41.765   0.957
18006W        W90431  30.878  43.535   2.815
18007W        W90432  43.574  25.140   5.163
18008W        W90433  42.463  10.105  13.854
18009W        W90434  22.712   5.138   2.626
18010W        W90435  17.174  12.707   4.312
18011W        W90436  44.050  44.084   3.332
18012W        W90437   4.973  26.279  12.456
18013W        W90438  21.810  43.508  12.483
18014W        W90439  13.183  27.199   0.740
18015W        W90440   2.486  24.805  11.874
18016W        W90441  41.541  13.190   0.823
18017W        W90442  10.670   7.415   0.864
18018W        W90443   5.434  33.966   1.898
18019W        W90444  39.783  37.332   4.159
18020W        W90445  34.550  37.967  10.737
18021W        W90446   7.301  11.898   1.128
18022W        W90447   8.382  37.017  13.203
18023W        W90448  11.131  11.893   0.447
18024W        W90449  11.621  20.609   1.306
18025W        W90450  36.615   9.378  13.543
18026W        W90451  15.531  33.793   1.612
18027W        W90452  20.464  31.498   2.333
18028W        W90453   7.723  30.924   2.173
18029W        W90454  10.646  26.548   0.735
18030W        W90455  35.725   7.712  14.433
18031W        W90456  20.191   6.255  10.792
18032W        W90457  36.833  21.451   3.801
18033W        W90458   7.657   7.427   1.410
18034W        W90459  23.009  29.765   1.823
18035W        W90460  15.732  21.500   1.424
18036W        W90461  27.007  19.780  10.655
18037W        W90462  34.151   7.299   3.046
18038W        W90463  29.686  31.017  13.368
18039W        W90464  15.655  20.761   3.664
18040W        W90465  22.941   5.191  11.527
18041W        W90466   0.957  41.676  10.413
18042W        W90467  36.537   7.894  11.795
18043W        W90468   6.962  34.342  14.861
18044W        W90469  43.641  33.222   3.229
18045W        W90470   7.214  34.521   0.378
18046W        W90471   9.368  31.484  10.909
18047W        W90472   5.044   3.349  12.482
18048W        W90473  18.659  24.949  12.379
18049W        W90474  43.779  31.162   4.718
18050W        W90475  29.120  29.521  13.940
18051W        W90476  34.079  21.270   1.395
18052W        W90477   5.289  40.379   4.257
18053W        W90478  10.747   1.340  11.114
18054W        W90479   6.353   0.900   4.180
18055W        W90480   5.143  27.191  13.981
18056W        W90481  11.133  10.745   2.198
18057W        W90482  14.281  21.277   4.636
18058W        W90483  13.748  22.181   3.799
18059W        W90484  38.935  35.742   4.602
18060W        W90485  40.017   9.688   4.514
18061W        W90486   8.795  22.796   0.470
18062W        W90487   3.551   5.914  11.939
18063W        W90488  39.378   1.149   4.137
18064W        W90489  11.694  13.018  14.281
18065W        W90490  29.394  21.723   0.922
18066W        W90491  10.314  21.611   1.319
18067W        W90492  16.774  40.200   2.034
18068W        W90493  27.471  29.803  10.623
18069W        W90494  34.885  21.773   2.370
18070W        W90495  36.190  23.021  14.274
18071W        W90496  10.364  18.127  11.494
18072W        W90497  20.232  34.136   4.139
18073W        W90498  37.821  41.964  12.946
18074W        W90499  40.623  44.899   2.814
18075W        W90500  27.272  26.076   2.808
18076W        W90501   8.230  43.500   2.343
18077W        W90502  22.104   5.221   1.359
18078W        W90503  44.174  12.087  10.206
18079W        W90504  14.138   6.460   3.444
18080W        W90505   3.940  12.198  13.916
18081W        W90506   1.022  27.203   0.839
18082W        W90507  25.908  40.404  13.567
18083W        W90508   2.401  44.844   2.351
18084W        W90509  36.039  26.950  11.510
18085W        W90510   2.239  19.202   1.340
18086W        W90511  13.588  20.303   2.825
18087W        W90512  26.959  26.623  10.877
18088W        W90513  32.636   6.481   3.405
18089W        W90514  13.144  42.444   2.888
18090W        W90515  33.835  17.545  10.692
18091W        W90516   6.287   7.708   3.318
18092W        W90517   5.051  11.446  13.865
18093W        W90518  35.855  32.249  14.558
18094W        W90519  26.146  18.654   1.791
18095W        W90520  15.069   9.383   4.344
18096W        W90521  44.228   6.682   3.192
18097W        W90522  24.979  20.205   0.506
18098W        W90523   0.280   9.154  11.066
18099W        W90524  43.991  20.764   4.407
18100W        W90525  11.706  21.927   1.715
18101W        W90526  34.072   2.368  10.517
18102W        W90527  17.671  28.639  12.889
18103W        W90528  40.265  23.189   1.761
18104W        W90529  25.761   6.237   0.042
18105W        W90530   0.624   3.682  13.996
18106W        W90531  36.439  16.155   1.050
18107W        W90532   3.979   0.158  14.814
18108W        W90533  20.888  29.176  14.517
18109W        W90534  38.622  29.901  13.249
18110W        W90535  12.773  37.011   0.418
18111W        W90536   4.640  31.116  13.917
18112W        W90537  27.470  31.235   0.395
18113W        W90538  37.652  31.236   4.138
18114W        W90539  29.151  40.439  13.266
18115W        W90540  33.054  32.090  12.928
18116W        W90541  37.990  36.767   3.340
18117W        W90542  12.376  31.055  14.253
18118W        W90543  25.810  43.480  14.421
18119W        W90544  21.954  22.436  11.446
18120W        W90545  23.111  21.283   4.514
18121W        W90546  44.447  44.899   3.617
18122W        W90547  37.397  26.572  12.886
18123W        W90548  12.834  42.787   2.671
18124W        W90549  44.576   0.396  12.798
18125W        W90550  18.716  40.456   0.382
18126W        W90551   1.288  29.163   1.206
18127W        W90552  11.028   9.760  11.197
18128W        W90553  19.681  42.262   1.124
18129W        W90554  22.954  25.086   0.368
18130W        W90555  32.951  11.589   4.011
18131W        W90556   3.741  42.049  10.762
18132W        W90557   7.627   9.655  13.437
18133W        W90558   0.931  26.529  12.619
18134W        W90559   1.444  18.704   1.355
18135W        W90560   3.436   8.732  13.946
18136W        W90561  23.119  21.614  12.656
18137W        W90562  44.190  24.492   4.962
18138W        W90563  24.729  11.481  14.312
18139W        W90564  28.548  41.481  10.860
18140W        W90565  22.138  44.686   0.212
18141W        W90566  40.797  12.086  11.977
18142W        W90567  12.809  18.572  13.646
18143W        W90568  21.799  20.379  11.101
18144W        W90569   7.697  27.634   1.014
18145W        W90570   6.408   0.205   0.381
18146W        W90571  36.769  14.182  12.517
18147W        W90572  19.554  33.177   0.290
18148W        W90573  24.058   5.680  14.443
18149W        W90574  38.635  40.967  11.515
18150W        W90575   8.162  34.685   1.581
18151W        W90576  18.701   5.006  13.864
18152W        W90577   2.106  12.058  12.931
18153W        W90578   2.770  34.435   4.119
18154W        W90579  30.762  41.842  14.571
18155W        W90580   6.869  28.624  13.828
18156W        W90581  36.608   9.243  11.198
18157W        W90582   4.441  11.101   0.945
18158W        W90583   6.280  25.796  14.270
18159W        W90584  11.272  10.899   0.378
18160W        W90585   9.241  44.071  11.080
18161W        W90586  36.556  38.462   4.619
18162W        W90587  12.733   6.118  12.465
18163W        W90588  32.918  11.425  13.521
18164W        W90589   8.731  30.561  11.973
18165W        W90590   2.707  27.031  14.091
18166W        W90591  31.658   7.858  14.737
18167W        W90592  28.977  31.820  10.743
18168W        W90593  10.091  19.793  12.921
18169W        W90594  26.521  16.449   0.607
18170W        W90595  12.167  30.689  11.652
18171W        W90596  21.990   6.141  10.468
18172W        W90597  18.476  43.415   2.388
18173W        W90598  35.337  20.816   0.397
18174W        W90599   9.690  13.206   2.800
18175W        W90600   2.379   4.797  10.226
18176W        W90601  28.663  36.270  11.540
18177W        W90602   2.720   8.926   2.262
18178W        W90603   3.389  15.683  10.997
18179W        W90604  21.169   1.785   3.036
18180W        W90605  34.061  16.582   0.167
18181W        W90606   2.827   0.014   2.614
18182W        W90607  27.693  28.941  10.796
18183W        W90608  17.812  16.795   2.391
18184W        W90609  20.035  44.911  12.588
18185W        W90610  23.245  38.539  14.280
18186W        W90611  10.348  40.561   3.278
18187W        W90612  38.873  13.914   2.593
18188W        W90613  42.365  23.345   0.823
18189W        W90614  31.674  34.643   1.269
18190W        W90615  32.693   3.676  10.983
18191W        W90616  34.145  21.728  12.321
18192W        W90617  38.972  31.212   4.184
18193W        W90618  34.994  35.219   1.822
18194W        W90619   8.226   8.816  12.160
18195W        W90620  44.753  29.966  13.885
18196W        W90621  37.543  36.612  12.439
18197W        W90622  13.157  39.497   0.665
18198W        W90623  37.966  37.792  12.419
18199W        W90624   5.894  33.526  13.915
18200W        W90625   7.778  19.336   4.366
18201W        W90626  37.826  14.132  12.441
18202W        W90627   3.877  32.408  12.461
18203W        W90628   9.807   1.385  10.746
18204W        W90629  43.663  39.484   2.151
18205W        W90630  34.627  31.534  14.460
18206W        W90631   5.546   8.262   2.298
18207W        W90632  26.214  44.075  12.312
18208W        W90633  33.839  11.018  13.433
18209W        W90634  26.194  25.507  12.510
18210W        W90635  23.016  37.986   3.641
18211W        W90636  40.044  32.463  10.630
18212W        W90637  19.137   1.415  12.508
18213W        W90638  30.500  20.351   0.221
18214W        W90639  41.791  27.136  11.340
18215W        W90640  21.338   3.929   1.799
18216W        W90641  24.125  33.083  10.765
18217W        W90642  28.300  42.103  12.619
18218W        W90643  20.344  26.146   2.251
18219W        W90644  21.737  17.267   2.715
18220W        W90645   9.955  32.937   3.343
18221W        W90646  26.434  10.542   2.937
18222W        W90647  14.175   8.640  12.405
18223W        W90648  37.963   2.449   3.760
18224W        W90649  18.893  38.914   1.786
18225W        W90650   7.487  28.704  13.478
18226W        W90651  34.463  25.667   0.957
18227W        W90652  19.378  11.107   1.678
18228W        W90653  14.621  31.167  13.028
18229W        W90654  39.760   9.566   3.664
18230W        W90655  29.631  21.275   0.962
18231W        W90656   9.735  22.642  10.954
18232W        W90657   1.501  21.012   3.233
18233W        W90658  31.489  20.276  14.293
18234W        W90659  42.973  35.407  11.709
18235W        W90660  16.585  32.736  11.667
18236W        W90661  27.901  41.267   3.805
18237W        W90662  29.578  24.166   5.085
18238W        W90663  39.098  27.102  10.999
18239W        W90664   8.198  22.091  12.423
18240W        W90665  41.690  16.921   0.931
18241W        W90666  28.488  24.696   1.676
18242W        W90667  33.915  11.925  11.044
18243W        W90668  40.369  27.778   0.918
18244W        W90669  17.528  27.471  10.916
18245W        W90670  25.047  31.694   4.168
18246W        W90671   3.774   3.169   3.388
18247W        W90672  15.049  41.695   0.842
18248W        W90673  24.001   4.778   0.498
18249W        W90674  39.059  18.558   0.862
18250W        W90675   9.415  24.470   4.177
18251W        W90676  18.822   2.502  12.963
18252W        W90677  21.676   5.618  13.418
18253W        W90678   0.456  15.568  11.909
18254W        W90679   5.934  22.889   1.452
18255W        W90680  32.147  37.736  12.986
18256W        W90681  30.877  19.071  12.078
18257W        W90682  31.947   4.563   3.260
18258W        W90683  12.331  20.121   1.746
18259W        W90684  17.618   9.783   4.006
18260W        W90685  13.808  24.166   2.110
18261W        W90686  30.395  20.080   3.595
18262W        W90687  34.328  20.269   0.690
18263W        W90688  39.503  37.812  12.139
18264W        W90689   1.642  37.487  13.351
18265W        W90690  32.183  24.024   3.249
18266W        W90691  43.938   3.929   1.363
18267W        W90692  38.423  39.031   2.189
18268W        W90693   0.299   6.904   4.338
18269W        W90694  42.286   5.230  14.910
18270W        W90695   4.034  26.400   2.577
18271W        W90696  31.158  31.574   0.157
18272W        W90697  11.360   0.851  14.694
18273W        W90698  40.380   9.637   1.892
18274W        W90699  22.283  22.206   2.274
18275W        W90700   5.803  42.991  14.767
18276W        W90701  26.768  11.770   1.105
18277W        W90702  43.581  13.245   4.069
18278W        W90703  24.520  23.942   1.867
18279W        W90704  43.788  43.096  11.131
18280W        W90705   5.874  21.278   0.524
18281W        W90706  39.767   7.191  13.885
18282W        W90707  25.638   4.678   4.125
18283W        W90708  32.443   5.768  10.708
18284W        W90709  30.168  33.164  10.591
18285W        W90710  44.480  14.016  14.865
18286W        W90711  31.318  26.606   4.744
18287W        W90712  16.095  39.053  11.170
18288W        W90713   5.345   8.647   3.132
18289W        W90714   3.507  42.867   0.348
18290W        W90715  11.367   9.318  13.374
18291W        W90716  17.009   8.928  14.826
18292W        W90717  30.430   2.921  14.795
18293W        W90718  37.913   8.193   0.002
18294W        W90719  13.686  10.749  14.753
18295W        W90720  24.179  21.718   0.504
18296W        W90721  34.928  28.217   4.254
18297W        W90722   2.578   7.063   2.361
18298W        W90723   1.315  39.823   4.156
18299W        W90724   6.477  27.641  12.454
18300W        W90725  25.192  34.497  11.428
18301W        W90726   9.650  27.656   2.372
18302W        W90727  12.269  36.043   3.812
18303W        W90728  34.348  20.510  11.892
18304W        W90729  15.776  11.728   0.830
18305W        W90730  39.067  38.419   4.600
18306W        W90731   4.421  38.767   1.714
18307W        W90732  42.312  14.463  13.478
18308W        W90733  31.045  15.571  11.571
18309W        W90734   0.879  28.810   4.902
18310W        W90735  30.673  23.430   2.711
18311W        W90736  18.583  24.649  13.558
18312W        W90737   2.009  11.481  11.007
18313W        W90738   3.468  37.479   3.763
18314W        W90739  16.062   5.653  14.499
18315W        W90740  24.698   2.558  14.885
18316W        W90741   5.343  29.575  13.553
18317W        W90742  16.288  32.699   0.022
18318W        W90743  33.650  10.744  12.987
18319W        W90744  36.397  37.909  13.582
18320W        W90745  12.884   8.739   4.117
18321W        W90746   6.907  12.551   0.473
18322W        W90747  31.453   1.439  12.214
18323W        W90748  37.022  38.853   2.993
18324W        W90749  18.520   1.938   2.419
18325W        W90750  13.751   3.273   3.202
18326W        W90751  39.213  37.598   1.793
18327W        W90752  11.796  37.147   0.412
18328W        W90753   6.968  22.522  13.058
18329W        W90754  24.279  29.352   0.586
18330W        W90755  20.875  15.133   4.178
18331W        W90756  11.955  42.798   0.904
18332W        W90757  44.209  40.895  14.807
18333W        W90758  10.376  41.523   1.393
18334W        W90759  13.288  20.854  14.089
18335W        W90760  23.996  20.315  11.108
18336W        W90761   5.751  37.901  11.206
18337W        W90762  32.943  25.161   3.206
18338W        W90763   0.508  39.740   2.672
18339W        W90764  32.177  12.282  12.491
18340W        W90765   8.746  30.089  13.362
18341W        W90766  24.971  29.104  12.911
18342W        W90767   1.120  31.439   0.923
18343W        W90768  17.244  37.621   1.955
18344W        W90769  29.001  18.145  14.793
18345W        W90770   9.346  17.515   2.261
18346W        W90771  14.086  20.201   3.075
18347W        W90772  16.343  34.852  13.050
18348W        W90773  29.032  21.763   2.221
18349W        W90774   2.782  39.028  11.199
18350W        W90775   8.905   6.684  12.391
18351W        W90776  12.098  41.670  13.892
18352W        W90777  17.560   1.197   3.664
18353W        W90778  13.798  39.527   2.844
18354W        W90779  16.843  21.639  13.546
18355W        W90780  34.364  44.770  12.031
18356W        W90781  20.954  39.855   3.301
18357W        W90782  24.705  31.410  11.481
18358W        W90783   1.054   7.484  12.790
18359W        W90784  33.151  43.751  11.010
18360W        W90785  26.120   0.824  13.420
18361W        W90786  27.708  15.180   3.332
18362W        W90787  22.643  37.594   1.604
18363W        W90788  33.719   4.420   2.783
18364W        W90789  11.116  25.203   1.773
18365W        W90790  17.419  32.591  10.208
18366W        W90791  12.206   4.272  14.730
18367W        W90792   0.377  22.260  14.535
18368W        W90793  11.751   8.888   3.538
18369W        W90794  15.284  32.915  14.024
18370W        W90795   9.504  31.897   2.679
18371W        W90796  21.894  27.486   0.966
18372W        W90797  43.227  23.808   4.531
18373W        W90798   2.179  12.016   5.204
18374W        W90799   8.750  12.265   3.264
18375W        W90800  29.648  27.605  13.295
18376W        W90801   7.361  12.710   1.713
18377W        W90802  25.782  39.711   3.183
18378W        W90803  15.676  39.803   0.523
18379W        W90804  36.341  43.843  14.303
18380W        W90805   9.041  39.301   1.672
18381W        W90806  11.102  42.463  12.137
18382W        W90807  21.185   1.038   3.723
18383W        W90808  10.543  16.196  11.471
18384W        W90809  43.792   3.228   3.321
18385W        W90810  44.048  42.223  12.478
18386W        W90811  16.084  28.158  13.044
18387W        W90812   4.352  23.453   3.816
18388W        W90813  11.708  39.292  14.127
18389W        W90814  23.004   9.286  12.080
18390W        W90815  15.811  12.227  14.986
18391W        W90816   4.367  17.504   3.605
18392W        W90817  27.016  20.661  13.736
18393W        W90818  43.840  39.778   4.133
18394W        W90819   7.249  14.166   3.379
18395W        W90820  34.448  19.827   0.924
18396W        W90821  35.189   7.140  13.551
18397W        W90822  32.484  43.372  14.243
18398W        W90823   0.558  25.791   4.363
18399W        W90824  36.956  16.823  11.522
18400W        W90825  37.824  39.075  11.157
18401W        W90826  20.436   0.965  14.889
18402W        W90827  16.629  36.076   0.251
18403W        W90828  19.241  44.921  10.396
18404W        W90829  23.554  40.287  14.982
18405W        W90830  40.530  19.333  13.639
18406W        W90831  11.704  43.622  11.032
18407W        W90832  29.175  18.895   4.396
18408W        W90833  13.559  11.720   1.531
18409W        W90834  17.477  15.718   2.182
18410W        W90835   2.279  38.457   4.906
18411W        W90836  21.452   3.757  14.991
18412W        W90837   5.701   1.379   1.970
18413W        W90838  26.678  30.564   1.274
18414W        W90839  12.356  18.713   2.698
18415W        W90840  44.839  25.955  13.957
18416W        W90841  15.699   3.839  13.861
18417W        W90842   8.373  26.854   1.641
18418W        W90843  18.142  33.692  13.967
18419W        W90844  40.259   1.659  13.909
18420W        W90845  33.480  21.737  13.054
18421W        W90846  39.059  44.038   5.139
18422W        W90847  44.792  42.410  11.910
18423W        W90848  34.860  30.326   2.001
18424W        W90849   5.725  29.001   2.151
18425W        W90850  39.820   7.412   1.654
18426W        W90851  21.049   0.174  10.263
18427W        W90852   6.407  33.243  13.048
18428W        W90853  14.992   8.130   1.346
18429W        W90854  38.886  34.740  10.682
18430W        W90855  17.636  41.802  10.732
18431W        W90856  29.166  19.310   1.246
18432W        W90857  33.714  22.309   4.581
18433W        W90858  18.033  40.260  13.113
18434W        W90859  13.011  31.020  13.434
18435W        W90860  29.559   3.386  10.749
18436W        W90861  40.393  10.890   3.292
18437W        W90862  42.255  25.399  13.508
18438W        W90863   7.291  10.702   1.877
18439W        W90864  32.947  10.337   1.285
18440W        W90865  38.030  34.438  13.769
18441W        W90866  17.948  15.767   1.938
18442W        W90867  33.545  40.768  13.111
18443W        W90868  24.909  44.534  14.095
18444W        W90869  11.688   6.783  14.042
18445W        W90870  17.741   7.270  13.054
18446W        W90871  44.823   9.331  14.537
18447W        W90872   6.370  35.378   0.477
18448W        W90873  16.199  41.323   4.092
18449W        W90874  14.377  10.400   3.763
18450W        W90875  18.079  44.030  14.393
18451W        W90876  41.265  11.251  11.035
18452W        W90877  40.998  43.610  12.536
18453W        W90878  37.331   2.666  12.166
18454W        W90879  13.300  20.244   0.297
18455W        W90880  41.635  19.235   3.863
18456W        W90881  30.419  29.781  14.250
18457W        W90882  12.177  11.155  13.806
18458W        W90883  18.223  24.631  11.631
18459W        W90884  19.695   7.791  14.503
18460W        W90885  28.931   2.278  10.774
18461W        W90886   9.368  19.991   3.606
18462W        W90887  24.439   6.458   0.236
18463W        W90888  13.333  15.925  13.359
18464W        W90889   6.797   5.716  12.818
18465W        W90890   0.318  12.108   2.196
18466W        W90891  42.508  36.136   3.141
18467W        W90892   2.863  35.453  13.822
18468W        W90893   0.204  35.166  13.839
18469W        W90894  28.209  19.229   2.425
18470W        W90895  12.770   0.652   1.320
18471W        W90896  22.889   4.252  14.957
18472W        W90897  20.204  22.306   2.183
18473W        W90898  40.448   8.812   2.295
18474W        W90899  30.709  44.300  12.405
18475W        W90900  17.781  16.046  11.201
18476W        W90901  37.835   0.815  10.680
18477W        W90902  38.512  13.135   3.628
18478W        W90903   7.458  33.240  14.313
18479W        W90904  31.056  38.931  12.509
18480W        W90905   2.366  23.477  12.960
18481W        W90906  36.827  18.540  13.632
18482W        W90907   4.655   8.782  11.088
18483W        W90908   2.265  39.035   0.864
18484W        W90909   7.339   7.618  11.123
18485W        W90910   9.853  38.833  14.438
18486W        W90911  12.357  22.299   0.467
18487W        W90912  26.561  41.607   3.668
18488W        W90913  19.506  12.574  13.026
18489W        W90914  38.198  38.442  10.755
18490W        W90915  15.334  15.208  12.190
18491W        W90916  18.456  10.783   3.322
18492W        W90917  26.484  44.857   0.803
18493W        W90918  25.708   2.865   4.618
18494W        W90919  22.524  25.793  14.559
18495W        W90920  20.629  29.579  14.298
18496W        W90921   7.366  31.478  13.054
18497W        W90922  22.651  16.196   1.246
18498W        W90923  37.031  32.052  13.061
18499W        W90924  11.331  38.368   1.156
18500W        W90925  20.002  23.954   0.661
18501W        W90926  31.062  10.091  11.016
18502W        W90927   8.850  14.182   3.762
18503W        W90928  33.821  13.376  10.655
18504W        W90929   4.653  12.090   0.405
18505W        W90930   4.263   6.442  10.923
18506W        W90931  35.869  26.710  14.982
18507W        W90932  15.589  41.955  11.116
18508W        W90933  41.505   1.347   1.284
18509W        W90934  19.935   5.456  14.330
18510W        W90935  10.218  29.669  10.889
18511W        W90936  35.618  15.231   2.324
18512W        W90937   0.202  18.010  11.198
18513W        W90938  24.257  39.079  12.907
18514W        W90939  43.875  32.152   1.748
18515W        W90940  27.617  22.295   2.270
18516W        W90941   5.226  42.030   4.069
18517W        W90942  39.808  20.132  10.682
18518W        W90943  22.204  36.875  14.388
18519W        W90944  40.895   3.388   2.160
18520W        W90945  21.318  37.409  13.384
18521W        W90946  12.129  24.337  12.784
18522W        W90947  31.460  14.187  12.063
18523W        W90948  15.768  30.410  13.365
18524W        W90949  13.075  11.054   0.504
18525W        W90950  31.590  32.773  12.499
18526W        W90951   2.807  15.370  14.016
18527W        W90952  41.585  43.620   0.931
18528W        W90953  41.349   9.958   4.170
18529W        W90954  40.866   9.268  13.890
18530W        W90955  31.006  15.590  13.144
18531W        W90956   8.326  41.714  13.266
18532W        W90957  27.149  19.000  11.926
18533W        W90958  30.047  17.594  10.706
18534W        W90959   0.731  18.674  13.936
18535W        W90960  24.496   8.764   4.128
18536W        W90961  16.683  23.349   1.469
18537W        W90962   2.932  24.407  14.926
18538W        W90963  17.635   5.605   1.758
18539W        W90964  44.525  22.029  14.798
18540W        W90965  25.023   2.240   1.340
18541W        W90966  34.409  36.787   3.332
18542W        W90967   3.313  42.176   5.019
18543W        W90968   3.254  41.975  11.495
18544W        W90969  36.850  29.222   3.584
18545W        W90970  13.363   7.215   2.761
18546W        W90971  12.631  23.838   0.554
18547W        W90972  17.717  32.497   1.732
18548W        W90973  10.349   4.303   0.202
18549W        W90974  37.244  15.487   1.884
18550W        W90975  30.435   3.838  11.815
18551W        W90976  15.832  23.489   1.263
18552W        W90977  25.355   5.861  11.178
18553W        W90978  31.989  44.698   3.307
18554W        W90979  21.368  40.188   3.196
18555W        W90980  43.530  21.657  12.089
18556W        W90981   0.896  20.016   4.525
18557W        W90982  37.035  11.655  11.032
18558W        W90983  33.971  25.208   3.350
18559W        W90984  12.591  10.695  12.622
18560W        W90985  27.578  25.070   1.827
18561W        W90986  11.757  43.590   2.492
18562W        W90987  18.105   3.327  11.286
18563W        W90988   4.365  23.916   3.555
18564W        W90989  11.098  44.977   1.985
18565W        W90990   8.193  36.407  14.236
18566W        W90991   7.812  17.988  13.383
18567W        W90992   2.971   8.547  11.517
18568W        W90993  21.155  35.324   0.376
18569W        W90994  11.917  10.956   3.767
18570W        W90995  28.930  26.931  12.385
18571W        W90996  27.482  21.022   3.689
18572W        W90997  15.022  32.255   5.471
18573W        W90998   6.678  35.378  14.897
18574W        W90999   5.984  42.209  13.087
18575W        W91000  13.654   5.816  13.075
18576W        W91001  18.089  17.202   2.231
18577W        W91002  29.481  28.054  12.957
18578W        W91003   7.364  40.975  10.637
18579W        W91004  33.453  16.863  12.739
18580W        W91005  14.425   2.746  14.539
18581W        W91006  35.169  31.030   1.698
18582W        W91007  35.572   9.932  14.016
18583W        W91008  27.110  20.665  12.333
18584W        W91009  44.667  30.151  10.910
18585W        W91010  26.504  38.806  13.969
18586W        W91011   5.825  13.320  10.737
18587W        W91012   8.799  38.877   1.317
18588W        W91013  28.634  25.712  13.220
18589W        W91014   5.720  35.949  10.609
18590W        W91015  27.685  43.700   1.232
18591W        W91016  31.210  20.526  10.987
18592W        W91017   3.691  37.835   4.517
18593W        W91018   4.853  24.583   4.673
18594W        W91019  26.761  36.632   3.256
18595W        W91020  43.411  33.322   4.228
18596W        W91021  44.225   2.630   4.595
18597W        W91022  35.162  42.768   5.027
18598W        W91023   9.603  13.299  12.997
18599W        W91024  24.559  13.886  11.141
18600W        W91025  33.033  23.979   0.872
18601W        W91026  14.624  33.936   3.120
18602W        W91027  38.853  37.975  11.394
18603W        W91028  18.682  26.654   4.551
18604W        W91029   1.788  30.090  12.474
18605W        W91030  16.133  12.405   4.083
18606W        W91031  21.294   8.770   1.943
18607W        W91032   8.342  41.018  14.443
18608W        W91033  13.106  21.913   5.474
18609W        W91034  25.502  41.472   1.790
18610W        W91035   5.819  39.323   3.214
18611W        W91036  37.106   5.814  14.541
18612W        W91037  27.530  33.605  14.902
18613W        W91038   6.293  39.299   3.722
18614W        W91039   5.335  41.270   2.216
18615W        W91040  30.917   4.239   1.688
18616W        W91041  43.214  19.804  12.879
18617W        W91042  27.998  34.966   5.064
18618W        W91043  24.750  26.936   3.297
18619W        W91044   1.453  42.266   2.231
18620W        W91045  27.235  40.345   4.366
18621W        W91046  37.413   4.238  14.990
18622W        W91047  10.069  11.324  14.359
18623W        W91048  21.209  38.035  10.955
18624W        W91049  33.089   7.516  13.004
18625W        W91050  34.036  39.829   2.288
18626W        W91051  23.446  13.505  13.728
18627W        W91052  14.115  23.787   4.914
18628W        W91053  14.368  43.470   4.665
18629W        W91054  15.511  18.761  12.948
18630W        W91055   6.311   6.825  11.578
18631W        W91056  11.102  31.487   2.866
18632W        W91057  14.364  31.580  14.497
18633W        W91058  40.978  24.992   1.916
18634W        W91059  10.662  41.894  13.766
18635W        W91060   3.474  42.560   2.733
18636W        W91061  31.348  44.909   1.315
18637W        W91062   2.496  39.179  14.539
18638W        W91063   0.947   4.281   3.718
18639W        W91064  14.168   1.390   3.802
18640W        W91065  40.299   5.921   2.131
18641W        W91066  35.655  30.148  11.186
18642W        W91067  15.896  29.628   0.410
18643W        W91068   8.293  25.475   1.237
18644W        W91069  21.763  18.776   0.004
18645W        W91070   8.114  30.583   0.880
18646W        W91071  34.886  44.777  12.000
18647W        W91072  44.473  38.342   3.806
18648W        W91073  34.497   0.997  10.797
18649W        W91074  33.674   4.826   0.938
18650W        W91075  32.081  19.871   1.540
18651W        W91076   6.836  26.009   2.832
18652W        W91077  21.836  44.438  11.381
18653W        W91078  44.012  15.876  12.712
18654W        W91079   1.400  22.677   2.705
18655W        W91080  29.464   2.279  13.591
18656W        W91081  37.769   5.559  13.969
18657W        W91082  43.128   2.890   1.784
18658W        W91083  19.361   7.807   1.770
18659W        W91084  18.317   3.308   4.308
18660W        W91085   2.515   1.655  11.149
18661W        W91086  42.920  11.358   1.968
18662W        W91087   4.381  10.562   1.843
18663W        W91088   1.890  26.840   3.699
18664W        W91089  31.616  23.098   3.172
18665W        W91090  26.329   4.237  12.579
18666W        W91091  14.502  14.605  11.112
18667W        W91092   1.560  24.390  12.399
18668W        W91093  20.103  20.027   4.678
18669W        W91094  20.449  40.633   0.337
18670W        W91095  19.838  12.412   3.995
18671W        W91096   9.578  25.796   4.004
18672W        W91097  17.627  43.590   0.277
18673W        W91098   4.798  14.326  12.887
18674W        W91099  20.407  24.013  11.205
18675W        W91100  16.672  19.792  11.879
18676W        W91101   7.277  43.424   0.470
18677W        W91102  27.711  14.570   0.398
18678W        W91103  10.119  12.696  10.558
18679W        W91104  24.964  41.590   1.828
18680W        W91105  31.081  12.149   2.245
18681W        W91106   6.250   8.191  12.667
18682W        W91107   7.156  34.658  14.472
18683W        W91108  12.354  16.006   1.262
18684W        W91109  19.535  26.484  10.041
18685W        W91110  22.288  38.794  10.454
18686W        W91111  19.252  10.195  11.715
18687W        W91112   3.435  26.123  12.296
18688W        W91113  36.460  11.185   0.128
18689W        W91114  41.335  21.586   0.763
18690W        W91115  35.684  19.863   2.575
18691W        W91116  11.149  27.637   0.425
18692W        W91117  42.327  34.233  14.406
18693W        W91118   8.876  17.134   4.218
18694W        W91119   0.032  32.496  10.267
18695W        W91120   3.357  41.932  13.974
18696W        W91121  14.116   6.955  13.057
18697W        W91122  34.504  12.277   4.155
18698W        W91123  33.563  16.834   4.070
18699W        W91124  30.411  19.182   1.724
18700W        W91125  36.827  22.502  11.452
18701W        W91126  17.079  15.149  13.049
18702W        W91127   3.622   3.897  11.903
18703W        W91128  29.852  39.973  11.587
18704W        W91129  21.003  18.820  12.052
18705W        W91130  38.889  27.558  14.015
18706W        W91131  39.662  35.425   3.118
18707W        W91132  28.763  33.102  11.165
18708W        W91133   3.364  32.939  14.864
18709W        W91134  11.633  22.970  13.015
18710W        W91135  27.482  14.391  12.569
18711W        W91136   2.284  42.418   0.216
18712W        W91137  31.301  19.748   2.991
18713W        W91138  33.054  43.180   0.663
18714W        W91139  42.856  29.732  13.521
18715W        W91140   6.399  36.140   4.636
18716W        W91141   8.169  20.250   0.212
18717W        W91142   6.250  35.835   5.025
18718W        W91143  34.099  15.349   4.772
18719W        W91144  17.280  20.084   1.773
18720W        W91145  14.841  15.448  12.077
18721W        W91146  43.173  15.800  14.590
18722W        W91147  44.946  23.504   2.163
18723W        W91148  40.934  21.241  11.542
18724W        W91149  34.232  25.652  14.073
18725W        W91150  18.001  22.484   2.615
18726W        W91151   6.857  20.093   3.638
18727W        W91152  10.655  17.144   2.651
18728W        W91153  19.775  21.964   0.924
18729W        W91154   2.433  11.122   3.697
18730W        W91155  27.550  21.330  12.064
18731W        W91156  30.941  21.808   1.182
18732W        W91157  36.491   1.475  13.656
18733W        W91158  24.458  35.961   4.457
18734W        W91159   1.660   1.636   4.333
18735W        W91160  31.478  33.890   0.731
18736W        W91161  39.578   2.501  14.701
18737W        W91162  17.338  41.415  10.121
18738W        W91163  21.019  38.089   1.383
18739W        W91164  20.093  15.989  12.277
18740W        W91165  16.566  22.471   1.629
18741W        W91166  18.816  13.175   4.943
18742W        W91167  32.580  40.742  14.977
18743W        W91168  23.734  28.155   2.378
18744W        W91169  41.202  39.224  11.210
18745W        W91170   9.443   1.393   3.388
18746W        W91171  26.716   1.536   1.766
18747W        W91172   4.456  15.605   2.761
18748W        W91173   2.754  16.812   1.401
18749W        W91174  13.108  20.103   2.702
18750W        W91175   2.041  17.623  14.506
18751W        W91176  37.885  30.399   3.012
18752W        W91177  24.488  15.821  14.266
18753W        W91178  37.485   7.953  14.766
18754W        W91179  29.573  37.394  10.895
18755W        W91180  28.080   0.328  12.057
18756W        W91181  35.977   9.218   5.006
18757W        W91182  38.341  14.056   3.678
18758W        W91183   8.082  31.437  13.609
18759W        W91184  39.308   1.883  13.358
18760W        W91185   3.743  14.079  13.620
18761W        W91186  34.041   2.142   3.059
18762W        W91187  11.680   1.902  13.901
18763W        W91188  28.127   6.716   5.099
18764W        W91189  22.094  31.108   1.986
18765W        W91190   3.448  28.037   3.187
18766W        W91191   3.372  28.773   1.329
18767W        W91192  41.403   0.214  13.311
18768W        W91193  35.395   8.034   1.502
18769W        W91194  31.982  35.333  14.913
18770W        W91195  18.665  35.217   3.711
18771W        W91196  38.573   8.666   3.679
18772W        W91197   3.789   6.204   4.880
18773W        W91198  17.748  12.888   3.307
18774W        W91199  13.105  37.335   3.648
18775W        W91200  34.047  31.202   1.028
18776W        W91201  42.279  12.418   1.792
18777W        W91202   3.711  17.954  10.774
18778W        W91203  34.831   4.809  10.153
18779W        W91204   7.297   2.382   2.667
18780W        W91205  25.502  20.817  14.104
18781W        W91206   2.261  41.534   0.381
18782W        W91207   3.234  37.522  14.892
18783W        W91208  39.842   0.038  14.832
18784W        W91209  12.023  20.219  13.017
18785W        W91210  18.519  38.025  11.136
18786W        W91211  11.332   0.533  11.922
18787W        W91212  43.300  31.821  10.201
18788W        W91213  12.517  25.027   1.742
18789W        W91214   6.913  23.746  14.674
18790W        W91215   9.691  10.636   4.255
18791W        W91216  26.884  26.749  11.367
18792W        W91217  28.960  27.586  11.204
18793W        W91218  36.547  40.807   3.061
18794W        W91219  34.885  33.473  13.598
18795W        W91220  28.106   6.392   2.364
18796W        W91221  10.227  29.431   5.078
18797W        W91222   4.491  33.539   1.004
18798W        W91223   1.083   4.674  13.979
18799W        W91224  30.548   4.623  12.811
18800W        W91225  21.137  42.750  10.061
18801W        W91226  41.872  23.368  11.421
18802W        W91227   5.313  36.417  14.422
18803W        W91228  24.223   0.402  12.564
18804W        W91229  19.312  39.704  11.999
18805W        W91230  26.477   0.472   2.031
18806W        W91231  35.822  40.350   4.499
18807W        W91232  43.973  44.736  14.038
18808W        W91233  35.599  24.893  12.128
18809W        W91234  44.774   7.826  12.905
18810W        W91235  38.062  14.089   1.180
18811W        W91236   6.782  31.085  14.948
18812W        W91237  37.287  13.319  11.957
18813W        W91238  16.424  41.958   4.254
18814W        W91239   6.132  29.732  14.033
18815W        W91240  17.652  23.764  13.986
18816W        W91241   5.529  16.344  11.200
18817W        W91242  15.209  27.163   2.080
18818W        W91243   2.748  38.688  14.501
18819W        W91244  30.832  24.188  12.251
18820W        W91245  27.982  36.325  11.065
18821W        W91246   9.466  41.162  13.408
18822W        W91247  44.413  40.970   2.735
18823W        W91248  11.407   9.309   1.798
18824W        W91249  25.019  33.524   4.478
18825W        W91250  23.162  16.832   2.827
18826W        W91251  11.235  28.991  10.903
18827W        W91252  10.109  33.129  10.488
18828W        W91253  15.228   1.543   3.264
18829W        W91254  27.704   6.189   4.844
18830W        W91255  14.426   4.712   1.714
18831W        W91256   5.818  36.408  14.278
18832W        W91257  34.479   3.753  13.783
18833W        W91258  27.286  26.167   1.414
18834W        W91259  22.110  30.949   0.450
18835W        W91260  41.849  43.863  11.851
18836W        W91261   4.172   6.196  13.619
18837W        W91262  37.640   8.436  14.586
18838W        W91263  21.417  20.640   1.642
18839W        W91264  11.838  35.918  12.557
18840W        W91265  42.288   3.419   1.809
18841W        W91266  14.373  18.737   4.013
18842W        W91267  37.928  16.637  12.818
18843W        W91268  43.791  35.839  11.286
18844W        W91269  22.144   6.597  10.658
18845W        W91270  22.439   4.855   3.334
18846W        W91271   1.977  32.463   3.224
18847W        W91272  21.273  13.294   4.305
18848W        W91273  10.137  24.091  14.823
18849W        W91274   8.014   3.273   1.861
18850W        W91275  19.289  28.145   0.075
18851W        W91276  19.112  35.510   4.326
18852W        W91277  32.655  33.542   1.767
18853W        W91278  15.128  30.979   1.761
18854W        W91279  10.655  16.771   0.429
18855W        W91280  19.900   8.879  11.869
18856W        W91281  26.158   1.378   4.405
18857W        W91282   9.279  40.272   3.223
18858W        W91283  23.634   9.900   4.223
18859W        W91284  10.118  14.011  11.264
18860W        W91285  43.920  22.716  12.866
18861W        W91286   8.169  30.706   4.642
18862W        W91287  32.033   8.449   1.304
18863W        W91288   8.135  19.769  14.432
18864W        W91289  15.061   6.247   1.253
18865W        W91290  44.460  14.672  10.735
18866W        W91291   3.790  34.555  12.966
18867W        W91292  24.397  37.778   1.382
18868W        W91293  16.144  20.037  13.843
18869W        W91294  39.868  27.585  11.058
18870W        W91295  12.797  19.035   2.219
18871W        W91296  29.909   1.972  10.606
18872W        W91297  21.834  23.917  12.348
18873W        W91298  22.206  28.116  10.734
18874W        W91299  17.278  10.604  10.512
18875W        W91300  10.177   7.774  14.506
18876W        W91301  38.313  10.080   1.407
18877W        W91302  30.437  25.926  12.282
18878W        W91303  32.202  38.463  10.822
18879W        W91304   6.427  44.366   0.310
18880W        W91305  29.051  43.361  13.911
18881W        W91306  12.211   0.296  11.410
18882W        W91307   7.211  23.608   2.937
18883W        W91308  11.657  34.894   3.235
18884W        W91309  14.652  26.266  13.750
18885W        W91310  19.638  17.297   4.318
18886W        W91311  27.210  28.978  10.941
18887W        W91312  12.084  37.544   0.231
18888W        W91313  19.916  38.021   3.686
18889W        W91314  14.248  27.044  14.065
18890W        W91315  36.485  18.193   3.602
18891W        W91316  20.559  36.039   4.630
18892W        W91317   2.627  44.088  11.158
18893W        W91318   2.710  40.320  12.021
18894W        W91319  28.665   3.342  13.364
18895W        W91320  15.003  10.073   2.204
18896W        W91321   8.595  29.046   3.573
18897W        W91322  10.227  42.988   1.392
18898W        W91323  20.110  15.400  10.373
18899W        W91324  32.980  26.622   1.495
18900W        W91325  34.177  20.456  11.378
18901W        W91326   3.385  17.789   0.980
18902W        W91327  39.774  32.712   1.681
18903W        W91328  38.940  14.777   3.180
18904W        W91329   4.265  43.274   1.400
18905W        W91330  39.964  17.198   0.873
18906W        W91331  34.924  44.340   1.809
18907W        W91332  31.857  15.894  12.025
18908W        W91333  19.508  23.993   5.401
18909W        W91334  35.956  12.325  10.722
18910W        W91335  24.155  23.331  12.653
18911W        W91336  39.450  20.493  12.398
18912W        W91337  20.322   8.670   9.916
18913W        W91338  17.196  32.930   4.971
18914W        W91339   4.053  29.668   0.244
18915W        W91340  19.639   3.039   4.157
18916W        W91341  18.094  20.620   1.239
18917W        W91342  44.914  36.080   0.427
18918W        W91343  19.171  34.893  13.280
18919W        W91344  13.288  26.697  11.370
18920W        W91345   9.782  23.014  13.132
18921W        W91346  16.662  11.467   4.616
18922W        W91347  10.199  14.404   3.317
18923W        W91348  31.022  20.522   0.260
18924W        W91349  33.109  19.779   4.536
18925W        W91350  34.276   9.869   3.746
18926W        W91351  27.388   3.089   1.471
18927W        W91352  22.636   3.961   4.127
18928W        W91353  42.592  24.032  13.106
18929W        W91354  35.124  31.438  14.507
18930W        W91355  10.864  44.360  10.669
18931W        W91356  38.441  42.058  10.719
18932W        W91357  38.045  33.511  10.622
18933W        W91358  41.453   4.346  14.372
18934W        W91359  24.939  16.769   1.634
18935W        W91360  39.523  12.930  12.156
18936W        W91361  44.048  22.001  10.662
18937W        W91362  15.747  35.111   9.943
18938W        W91363   2.311  25.091   1.258
18939W        W91364  26.059  33.544   1.449
18940W        W91365  25.586  25.485   3.782
18941W        W91366  31.043   8.140   4.282
18942W        W91367  11.262  13.558  14.837
18943W        W91368  19.098  18.285   3.720
18944W        W91369  20.811  29.414  13.844
18945W        W91370  22.111  28.617   3.409
18946W        W91371   4.842   9.619   2.841
18947W        W91372   0.743  26.643  13.497
18948W        W91373  40.252  14.161   2.348
18949W        W91374   4.354  17.369   0.799
18950W        W91375  42.341  38.550  12.181
18951W        W91376  33.097  21.773   3.873
18952W        W91377  38.792  19.552  14.301
18953W        W91378  10.006  41.628   9.874
18954W        W91379  41.118   1.749  12.017
18955W        W91380  41.401  17.764  11.641
18956W        W91381  39.169  41.664   4.956
18957W        W91382  29.504  20.529   0.481
18958W        W91383   4.683  30.074   2.030
18959W        W91384  33.326   4.864   5.237
18960W        W91385  39.358   7.133  14.476
18961W        W91386  31.495  26.204  11.680
18962W        W91387   8.236  28.035  13.083
18963W        W91388   2.037   7.844   4.002
18964W        W91389  44.171   0.216   4.013
18965W        W91390  38.318  38.817  13.121
18966W        W91391  43.341   7.733   0.782
18967W        W91392   7.810  33.174  12.973
18968W        W91393  32.929  33.963   0.250
18969W        W91394  39.302  28.508   0.472
18970W        W91395   4.413   5.413  13.879
18971W        W91396   9.252  43.466   2.265
18972W        W91397  29.081  42.450   1.598
18973W        W91398  33.734   7.585  13.382
18974W        W91399   0.287  38.915   1.603
18975W        W91400  18.966   0.931   0.822
18976W        W91401  14.841  10.220  10.912
18977W        W91402   8.168   3.396  11.450
18978W        W91403  12.215  16.058  12.884
18979W        W91404  40.467  13.900  13.031
18980W        W91405  35.655   4.433   1.248
18981W        W91406  19.665   3.311  11.892
18982W        W91407  14.684  19.656  12.972
18983W        W91408  13.709   6.182   3.272
18984W        W91409   0.653  37.458  10.440
18985W        W91410  14.882  17.260  11.962
18986W        W91411  20.620  42.755  13.904
18987W        W91412  24.084  15.013  10.441
18988W        W91413  43.068  32.961   4.157
18989W        W91414  44.428  10.316  13.614
18990W        W91415  22.479  29.828   1.900
18991W        W91416  30.348   4.274  11.208
18992W        W91417   3.404  43.201   1.719
18993W        W91418  19.466  25.552  12.560
18994W        W91419  30.650  18.556  13.506
18995W        W91420  21.566   9.223  11.870
18996W        W91421  37.112  43.888   2.337
18997W        W91422  25.917  17.116  14.904
18998W        W91423  10.071  18.067  12.348
18999W        W91424   2.774  38.982  14.939
19000W        W91425  31.158   1.985  10.711
19001W        W91426  12.021  24.418   4.629
19002W        W91427   1.363  14.379  13.545
19003W        W91428  39.722  14.084   2.396
19004W        W91429  38.793  24.480  12.799
19005W        W91430  13.011  10.855   1.295
19006W        W91431   6.212  21.837  11.549
19007W        W91432  25.638  26.062  10.628
19008W        W91433  43.935  18.830  13.398
19009W        W91434  39.000   8.391  14.349
19010W        W91435  10.600  12.271  12.078
19011W        W91436   6.745   0.972   4.527
19012W        W91437  41.939   3.798   3.312
19013W        W91438  17.518  33.947   4.558
19014W        W91439  16.878  35.116  12.628
19015W        W91440  19.507  40.207  12.009
19016W        W91441   5.684  12.390   1.930
19017W        W91442  41.398  10.494   0.700
19018W        W91443   5.216   1.775   3.177
19019W        W91444  34.141  26.067   0.780
19020W        W91445  39.286  39.341   1.263
19021W        W91446  40.787   6.220  14.362
19022W        W91447  33.294  23.238  14.432
19023W        W91448  19.684  15.347  13.586
19024W        W91449   7.304  28.432   2.792
19025W        W91450  11.148   3.488  10.690
19026W        W91451  41.360  37.676   1.025
19027W        W91452  43.642  36.731  12.125
19028W        W91453  21.203  12.423   2.739
19029W        W91454  34.169   2.820  13.444
19030W        W91455  33.152  18.255  14.693
19031W        W91456  23.078  29.491   4.693
19032W        W91457  26.660  29.392   1.794
19033W        W91458   3.342  29.912  12.870
19034W        W91459  23.731  25.243   0.775
19035W        W91460  34.525   6.643   1.148
19036W        W91461  25.031  38.020   1.041
19037W        W91462  22.138   6.685  14.062
19038W        W91463  36.930   4.886   2.446
19039W        W91464  10.361  43.822   0.076
19040W        W91465  13.086   4.288  13.442
19041W        W91466  38.436   2.658   3.878
19042W        W91467  30.000  39.769   4.752
19043W        W91468   0.878  28.669   3.589
19044W        W91469  25.118  24.489   4.672
19045W        W91470  36.069   5.385   1.959
19046W        W91471  31.538  44.371   4.129
19047W        W91472   2.360  17.198  12.556
19048W        W91473  11.619  12.887   2.626
19049W        W91474   8.352  20.670  11.377
19050W        W91475  10.427   4.753   3.673
19051W        W91476  29.984  37.524   4.194
19052W        W91477  10.638  12.609  13.347
19053W        W91478  37.838  27.000  12.177
19054W        W91479   8.174  11.305  14.805
19055W        W91480  41.826  25.951   0.177
19056W        W91481  38.123  13.975   0.336
19057W        W91482  11.561  28.867   1.715
19058W        W91483   1.487  29.020   3.237
19059W        W91484  11.181  34.664  11.958
19060W        W91485   3.199  24.780   1.246
19061W        W91486   2.979  25.057  11.236
19062W        W91487  25.204   8.613   1.159
19063W        W91488  12.234  27.925   1.858
19064W        W91489  14.280  23.656  11.049
19065W        W91490  15.435   4.983  11.000
19066W        W91491  11.334  22.215   9.712
19067W        W91492   9.701  42.414  10.985
19068W        W91493   0.464   7.904   3.129
19069W        W91494  27.569  35.862  13.853
19070W        W91495   3.911  25.287   2.314
19071W        W91496  10.640   2.518   0.276
19072W        W91497  27.077  22.685  13.239
19073W        W91498  22.146   9.521  14.117
19074W        W91499  34.857  35.893  11.123
19075W        W91500   2.166  16.341   2.257
19076W        W91501  42.967  44.918   3.191
19077W        W91502   1.149  43.303  13.711
19078W        W91503   4.396  34.159   4.258
19079W        W91504  11.711   9.722   3.212
19080W        W91505  37.368   9.160  11.478
19081W        W91506  16.274  42.803   2.329
19082W        W91507  34.489  24.708  11.573
19083W        W91508  26.450  37.961   3.187
19084W        W91509  35.924  11.382  14.530
19085W        W91510  30.881  38.229  11.122
19086W        W91511  34.051  38.966   3.519
19087W        W91512  20.693  37.864  14.696
19088W        W91513  10.263  18.401  13.272
19089W        W91514  29.055   4.284  10.746
19090W        W91515  30.502  43.555  10.709
19091W        W91516  39.586   6.383  12.024
19092W        W91517  17.205  24.526   3.636
19093W        W91518   5.952  15.400   0.889
19094W        W91519   1.750  14.003   4.034
19095W        W91520  36.792  41.573   3.673
19096W        W91521  22.270   3.054  10.948
19097W        W91522   2.836  44.331  13.356
19098W        W91523  29.936  36.964  11.586
19099W        W91524   9.747  41.827   1.879
19100W        W91525  39.043  15.762  10.350
19101W        W91526  22.467  33.496  11.511
19102W        W91527  36.942  24.073   2.852
19103W        W91528  40.231  25.823  12.418
19104W        W91529  43.317  30.673  14.763
19105W        W91530  21.960  36.891   1.453
19106W        W91531  32.673  20.759  14.451
19107W        W91532  13.998  39.801  11.161
19108W        W91533  14.842  32.591   0.857
19109W        W91534  18.165  35.992   3.569
19110W        W91535  10.112  44.955   3.209
19111W        W91536  24.991   5.930   0.731
19112W        W91537  16.691  28.924   1.661
19113W        W91538  18.184  20.397  11.613
19114W        W91539  30.468  36.048   2.679
19115W        W91540  32.888   5.241   1.416
19116W        W91541  15.246   1.417  11.415
19117W        W91542  10.098  34.340   3.687
19118W        W91543   7.239  33.111  12.419
19119W        W91544  11.788  30.378   1.849
19120W        W91545   0.814  38.126  13.059
19121W        W91546   7.315  31.848   2.365
19122W        W91547  41.484  10.719  14.212
19123W        W91548  44.410  32.876  11.556
19124W        W91549   2.422  35.171   2.146
19125W        W91550  28.618  27.230   0.941
19126W        W91551  23.453  40.718  13.342
19127W        W91552  20.132   1.292  13.279
19128W        W91553  20.305  43.697   3.656
19129W        W91554  36.349   1.472   0.083
19130W        W91555   6.193  13.923  10.816
19131W        W91556  17.115   2.440   1.113
19132W        W91557  43.837  35.385   4.305
19133W        W91558  23.635   0.702   1.658
19134W        W91559  33.065  12.349  14.761
19135W        W91560  43.548  16.581  12.208
19136W        W91561  17.754  11.605  11.690
19137W        W91562  44.956  13.435  11.669
19138W        W91563  14.185  41.784   2.495
19139W        W91564  13.126   8.701   2.848
19140W        W91565  36.490  17.049  11.838
19141W        W91566   3.906   0.794   3.722
19142W        W91567  19.145   9.925  10.384
19143W        W91568  32.124  28.994   3.288
19144W        W91569  25.892  32.904  14.496
19145W        W91570   7.159  38.477   0.882
19146W        W91571   1.898   8.422  14.397
19147W        W91572  33.756  15.132   1.654
19148W        W91573  44.086  33.285  12.443
19149W        W91574  37.418  12.096  10.546
19150W        W91575  20.993   6.126  10.306
19151W        W91576   2.661  27.734   2.439
19152W        W91577  33.425  41.262  12.113
19153W        W91578  33.602  28.900  12.575
19154W        W91579  22.510  30.698  10.578
19155W        W91580  39.081  23.134   0.845
19156W        W91581  11.532  42.867   1.861
19157W        W91582  34.533  17.385  14.476
19158W        W91583  40.075  14.033  14.402
19159W        W91584  28.877  16.142   3.154
19160W        W91585   3.823   1.029  13.609
19161W        W91586   1.874  32.125  14.975
19162W        W91587  40.410  40.534  11.165
19163W        W91588  44.618  11.734   3.815
19164W        W91589  33.464  15.848  11.179
19165W        W91590   4.163  41.387  12.466
19166W        W91591  19.790  22.931   1.940
19167W        W91592  19.697  39.653   0.322
19168W        W91593  12.336  26.331  12.217
19169W        W91594  19.731  13.341   1.408
19170W        W91595  12.916  13.184  12.694
19171W        W91596  40.456  31.120   3.059
19172W        W91597   5.091   7.389  11.385
19173W        W91598   9.945  12.379  11.266
19174W        W91599  39.420  27.800   2.729
19175W        W91600  24.091   5.841   3.047
19176W        W91601  35.037  31.508  13.495
19177W        W91602   7.806  11.109  12.404
19178W        W91603  41.605  41.510   0.878
19179W        W91604   9.162  43.239  13.756
19180W        W91605  11.100  40.582   2.378
19181W        W91606   3.600  38.872   4.568
19182W        W91607  44.354  20.225   5.242
19183W        W91608  42.754   5.977   1.266
19184W        W91609   6.443  26.828  14.330
19185W        W91610   9.326   0.547   0.300
19186W        W91611  31.822   0.122  11.529
19187W        W91612  20.162  10.427   3.287
19188W        W91613   6.852  20.816   4.145
19189W        W91614  28.193  29.611  14.795
19190W        W91615  42.608  35.638  10.913
19191W        W91616  11.904  33.418   0.345
19192W        W91617  30.427   4.266  12.102
19193W        W91618   7.363  40.969  14.273
19194W        W91619  27.735  18.865   0.815
19195W        W91620   8.111  40.621   3.524
19196W        W91621  24.957   8.682  14.715
19197W        W91622  33.887   4.804   4.639
19198W        W91623  16.574  44.879   1.812
19199W        W91624  15.806  32.629   5.003
19200W        W91625  28.096   1.013  10.997
19201W        W91626  26.981  18.460   4.197
19202W        W91627  20.761  24.114  13.989
19203W        W91628  21.552  13.554   4.666
19204W        W91629  27.474  13.713  14.479
19205W        W91630   0.551  35.544   4.795
19206W        W91631  33.578  43.655  13.509
19207W        W91632  12.455  15.516  12.140
19208W        W91633  35.639  25.042   3.350
19209W        W91634  34.714  11.137  11.812
19210W        W91635   9.269  34.630   2.173
19211W        W91636  26.073  11.788   3.870
19212W        W91637  23.660  12.762  11.442
19213W        W91638  21.071  23.659  14.328
19214W        W91639  20.615   6.707   2.429
19215W        W91640   3.777  23.063   1.760
19216W        W91641  16.618   0.412   1.682
19217W        W91642  34.553  38.097  13.060
19218W        W91643  10.285  18.935   2.200
19219W        W91644  32.649  38.593   4.162
19220W        W91645  43.262  22.613  12.114
19221W        W91646  14.327   3.979   2.189
19222W        W91647  17.177  39.241   2.226
19223W        W91648   3.536  34.143   0.455
19224W        W91649  27.510  26.624   3.146
19225W        W91650  17.829  43.815  10.698
19226W        W91651  29.157   8.216   4.211
19227W        W91652  21.596  42.369   4.144
19228W        W91653  31.024  32.347  10.765
19229W        W91654   5.391  16.109   2.092
19230W        W91655  41.989  32.474  14.688
19231W        W91656   7.359  14.093   3.866
19232W        W91657   9.435  23.037  10.745
19233W        W91658  12.253  43.938  14.855
19234W        W91659  22.829  14.839  14.550
19235W        W91660   2.296   8.640   2.062
19236W        W91661  25.071   7.380  10.816
19237W        W91662  11.015  20.963   0.311
19238W        W91663  12.341  41.288   1.312
19239W        W91664  28.206  26.480   4.054
19240W        W91665   2.020  40.963   2.403
19241W        W91666  28.407  25.614   1.673
19242W        W91667  25.225   2.493   0.403
19243W        W91668  34.307  42.867   0.867
19244W        W91669  11.213  44.765  11.518
19245W        W91670  34.941  29.543   4.604
19246W        W91671  26.051  11.568   4.347
19247W        W91672  19.002  22.582   3.553
19248W        W91673  20.987  36.348   4.663
19249W        W91674  28.340  38.484  14.604
19250W        W91675   5.694  14.832  14.256
19251W        W91676  44.469  23.226   0.867
19252W        W91677  22.730   1.827   0.379
19253W        W91678  12.158   6.972   2.771
19254W        W91679  37.909   6.767   1.787
19255W        W91680  39.790  34.858   4.486
19256W        W91681  18.642   7.846  10.872
19257W        W91682  13.284  42.407  11.430
19258W        W91683  16.187   4.419   5.081
19259W        W91684  38.649  37.509  11.504
19260W        W91685  34.270  19.222  10.714
19261W        W91686  33.362  12.150   4.612
19262W        W91687   7.727  15.564   3.750
19263W        W91688   2.361   1.966   1.040
19264W        W91689   1.549   8.328  12.484
19265W        W91690   6.893   1.994  13.913
19266W        W91691   9.251  42.154  13.461
19267W        W91692  30.053  31.649   2.263
19268W        W91693  33.468   5.294   0.417
19269W        W91694  12.671  26.540  14.440
19270W        W91695  19.572  43.817  12.492
19271W        W91696  20.374  28.030   3.333
19272W        W91697  39.245   0.251  13.822
19273W        W91698  12.325  16.699   4.205
19274W        W91699  27.585   1.483   0.213
19275W        W91700  33.894  42.051  12.867
19276W        W91701  25.474  10.970   2.268
19277W        W91702  12.554  17.086  11.475
19278W        W91703  28.498  31.997  10.895
19279W        W91704  31.416   6.247   4.208
19280W        W91705  37.631  26.131  12.016
19281W        W91706  41.327  31.884  11.218
19282W        W91707  11.431  33.789   2.685
19283W        W91708  32.036  13.718  12.430
19284W        W91709   7.169  10.791   0.396
19285W        W91710  14.751  12.369   4.068
19286W        W91711  20.296  24.396  13.931
19287W        W91712  29.095  44.521  10.552
19288W        W91713  20.051   6.843   1.233
19289W        W91714   4.752  39.558  12.927
19290W        W91715   1.844  30.211   3.268
19291W        W91716   0.392   5.260  10.633
19292W        W91717  30.605  26.258   1.868
19293W        W91718   5.989   4.699   1.979
19294W        W91719  12.280  39.417   4.093
19295W        W91720  16.966  17.266  14.364
19296W        W91721  12.701  12.210  12.403
19297W        W91722   0.661   2.033   0.970
19298W        W91723   6.838   5.475  10.621
19299W        W91724   6.356  18.695  14.473
19300W        W91725   4.634  13.891   4.205
19301W        W91726  30.037  24.170   2.746
19302W        W91727  23.967   9.695   3.845
19303W        W91728  19.523  26.233  11.982
19304W        W91729   4.572  39.414  11.540
19305W        W91730  25.557  27.180  11.525
19306W        W91731   0.771   3.736  12.459
19307W        W91732  27.737   1.981   2.291
19308W        W91733  36.150  12.415  13.296
19309W        W91734  38.497   7.970  13.374
19310W        W91735  33.034   7.254   4.672
19311W        W91736   7.168  29.938  12.086
19312W        W91737  28.598  21.625  12.145
19313W        W91738  16.292  15.230  12.467
19314W        W91739  38.550  28.059   2.585
19315W        W91740  26.980  30.096  10.083
19316W        W91741  39.943  27.531  12.448
19317W        W91742  22.574  15.357  11.720
19318W        W91743  18.644  29.894  12.456
19319W        W91744   4.391  23.006   4.115
19320W        W91745  20.092  30.717  14.340
19321W        W91746  41.339  44.734  13.483
19322W        W91747  15.269   8.826  10.300
19323W        W91748  43.929  43.442   3.180
19324W        W91749  39.772  35.118  12.172
19325W        W91750  28.918   1.823   4.203
19326W        W91751  38.598   6.926   3.352
19327W        W91752   2.462  23.850   2.602
19328W        W91753  35.540  11.401   3.736
19329W        W91754   6.897   8.210   3.397
19330W        W91755  40.520  24.214  12.933
19331W        W91756  29.004  15.759   0.164
19332W        W91757  15.656  32.648  12.047
19333W        W91758  13.316  33.442   2.907
19334W        W91759  36.559  32.591   2.322
19335W        W91760  29.005  42.890  12.565
19336W        W91761  23.021  27.044   3.534
19337W        W91762   6.323  10.338  12.717
19338W        W91763  27.525  14.617   1.422
19339W        W91764  24.863  43.076  12.977
19340W        W91765  10.193  43.161   3.228
19341W        W91766  34.470   3.048   0.351
19342W        W91767  30.936  33.681  12.514
19343W        W91768  39.579  43.371  12.098
19344W        W91769  24.164  10.448   4.075
19345W        W91770  33.436  29.524   4.516
19346W        W91771  10.115  28.412  11.563
19347W        W91772  33.431  40.371  11.857
19348W        W91773  36.155   1.017   4.273
19349W        W91774  30.377  41.377   1.790
19350W        W91775  33.813  11.231   1.482
19351W        W91776   2.683  32.802  11.423
19352W        W91777  31.711   5.014   1.360
19353W        W91778  21.569  17.720  10.659
19354W        W91779  11.898   3.236   4.252
19355W        W91780   2.462  40.442  11.579
19356W        W91781  15.821   5.339  13.597
19357W        W91782   4.429  11.108   3.006
19358W        W91783  16.955  31.906  14.336
19359W        W91784  21.033  32.471  11.104
19360W        W91785   2.115  22.563   0.195
19361W        W91786  41.007   8.106   3.413
19362W        W91787   5.614  30.439   4.492
19363W        W91788  44.016  15.406   2.414
19364W        W91789   5.513   2.364   3.729
19365W        W91790  24.963  43.744  12.068
19366W        W91791  21.746   5.821   1.312
19367W        W91792  29.196  27.649   2.135
19368W        W91793  37.279  21.149   3.363
19369W        W91794   7.235  36.965  11.643
19370W        W91795  40.815   2.303  14.012
19371W        W91796  36.177   2.231   0.361
19372W        W91797  14.246   4.817  11.582
19373W        W91798   4.142   2.461  11.111
19374W        W91799  30.048  23.226  10.618
19375W        W91800  21.600  29.475  11.559
19376W        W91801  15.451  35.546  10.072
19377W        W91802  18.701   4.203   3.927
19378W        W91803  39.160  29.304  11.278
19379W        W91804   0.776  19.976   0.306
19380W        W91805   5.940  16.891   4.561
19381W        W91806  27.163  44.539   4.492
19382W        W91807  44.906   9.986   0.382
19383W        W91808  32.635   0.408  13.470
19384W        W91809   8.673  18.389   2.748
19385W        W91810   3.938  25.819   0.755
19386W        W91811  40.859  36.102  12.133
19387W        W91812  43.777  33.666  11.507
19388W        W91813  35.121  38.817   1.344
19389W        W91814  28.056  16.663   1.175
19390W        W91815  14.034   6.844  13.579
19391W        W91816  12.070  22.033   3.126
19392W        W91817  25.235   3.938  12.948
19393W        W91818   9.729  22.944  11.736
19394W        W91819  42.567  15.567  12.095
19395W        W91820  19.453  39.912  14.893
19396W        W91821  38.585  37.571   3.249
19397W        W91822  23.153  15.047  14.968
19398W        W91823  44.765   7.778  14.551
19399W        W91824  21.328  37.509   1.178
19400W        W91825   9.852  31.233  10.609
19401W        W91826  11.349  19.095  11.871
19402W        W91827  40.922  33.104  11.480
19403W        W91828  29.174  32.503   2.862
19404W        W91829  18.213  29.639   4.358
19405W        W91830   4.665  35.358   2.106
19406W        W91831  17.624   0.261  14.901
19407W        W91832   6.329   8.279  13.464
19408W        W91833   2.801  31.413  13.912
19409W        W91834  35.007  16.026  11.547
19410W        W91835   5.892  16.655  10.612
19411W        W91836  23.630  16.327   0.041
19412W        W91837  16.649   6.224   3.750
19413W        W91838  36.426   9.839  13.030
19414W        W91839  20.283  44.470   4.148
19415W        W91840  15.568   9.725  12.625
19416W        W91841   4.240  26.262  11.482
19417W        W91842  11.714  38.572   1.447
19418W        W91843   9.410   4.293   1.836
19419W        W91844  23.115  18.969  13.597
19420W        W91845  21.036   8.365   1.703
19421W        W91846   2.502  38.361  13.329
19422W        W91847  35.609  36.821   3.386
19423W        W91848   2.316   1.004  13.447
19424W        W91849   4.409  12.098  14.898
19425W        W91850   9.221   7.180   2.259
19426W        W91851  15.941  21.327   3.216
19427W        W91852  31.477  44.734   3.188
19428W        W91853  10.049  15.158  13.981
19429W        W91854  25.150  32.963  13.680
19430W        W91855  37.997  33.542  13.839
19431W        W91856  27.701   3.004  12.507
19432W        W91857  21.368   0.278   4.639
19433W        W91858  21.247   5.268   2.453
19434W        W91859  32.448  38.196   3.884
19435W        W91860  16.315  15.914   0.714
19436W        W91861  21.706  29.246  11.115
19437W        W91862   8.026  21.972  11.656
19438W        W91863   7.487  12.847  13.653
19439W        W91864  13.803  21.317  13.007
19440W        W91865  23.117  34.016  11.873
19441W        W91866  15.176  25.806  12.350
19442W        W91867   4.297  35.796   0.492
19443W        W91868  25.787  40.395  14.065
19444W        W91869  10.165   7.752   5.007
19445W        W91870  13.292  16.919   9.994
19446W        W91871  27.941  11.783  11.408
19447W        W91872  34.130  19.152   0.859
19448W        W91873  15.819  35.532  13.357
19449W        W91874  40.030  10.600   0.545
19450W        W91875  14.302  16.090   3.864
19451W        W91876  13.776  18.282   2.776
19452W        W91877  44.270   3.423   2.242
19453W        W91878  31.614   0.563  11.799
19454W        W91879  18.153  42.188  13.107
19455W        W91880  37.599   2.412   0.998
19456W        W91881  44.769  42.892  12.607
19457W        W91882  17.418  27.208  12.587
19458W        W91883   3.640  36.074  12.632
19459W        W91884  34.647  19.135  14.967
19460W        W91885  31.414  21.120  14.062
19461W        W91886  25.765  43.468  10.758
19462W        W91887  39.387  16.306  11.604
19463W        W91888   3.901  32.952   2.237
19464W        W91889   6.670   2.357  12.119
19465W        W91890  42.821  39.384   2.859
19466W        W91891  18.773  42.622  12.071
19467W        W91892  37.535  34.443  10.618
19468W        W91893  44.519  13.642  10.982
19469W        W91894  10.823  18.740   0.535
19470W        W91895  34.260   6.985   1.416
19471W        W91896   2.396   1.533  13.453
19472W        W91897  32.007  28.754  12.136
19473W        W91898   9.462  14.265   1.855
19474W        W91899  25.529  12.346   0.380
19475W        W91900  11.050  23.623   0.575
19476W        W91901  27.979  13.756   3.266
19477W        W91902  16.584   2.256   3.390
19478W        W91903   8.248  42.545   0.280
19479W        W91904  36.749  18.012   1.151
19480W        W91905  38.408  39.145  14.106
19481W        W91906   6.297  17.087   1.945
19482W        W91907  39.583  19.809   3.198
19483W        W91908  30.795  38.658   3.201
19484W        W91909  11.153  17.188   2.784
19485W        W91910  31.229   7.716   2.115
19486W        W91911  32.139  38.438   4.232
19487W        W91912  42.846  12.514  10.738
19488W        W91913   8.242   6.702  13.477
19489W        W91914   1.079  34.594  10.700
19490W        W91915   2.938  32.934   4.185
19491W        W91916  17.349   5.664  10.726
19492W        W91917  16.226   0.755   3.858
19493W        W91918  11.864   6.136   5.156
19494W        W91919  21.668  35.325  13.792
19495W        W91920   0.815  40.017   2.956
19496W        W91921  17.953   3.857  12.157
19497W        W91922  23.567   2.523  10.675
19498W        W91923  44.373  29.157  11.383
19499W        W91924  27.169  43.097  13.912
19500W        W91925  37.796  31.538   4.537
19501W        W91926  38.622  16.780  11.159
19502W        W91927  20.269  42.989  10.154
19503W        W91928  13.059   0.185  11.024
19504W        W91929  37.098   5.785  12.109
19505W        W91930   2.703  39.862  10.671
19506W        W91931  20.605   7.284  13.719
19507W        W91932  31.968  30.032   2.372
19508W        W91933  14.844   0.820  11.147
19509W        W91934  38.780  23.653   2.304
19510W        W91935  38.061   8.661   1.373
19511W        W91936  33.435   7.287  10.897
19512W        W91937  35.487  35.811   4.102
19513W        W91938  15.189  41.065  14.946
19514W        W91939   4.923  14.249   0.442
19515W        W91940   7.991   8.439  13.070
19516W        W91941  27.107  32.247  10.512
19517W        W91942   1.156  20.501   4.659
19518W        W91943  32.628  44.211   1.727
19519W        W91944  24.727  41.812   1.380
19520W        W91945  13.621  40.881  12.544
19521W        W91946  25.201   1.372   4.864
19522W        W91947  35.837  44.729  11.960
19523W        W91948  42.915  17.181  14.440
19524W        W91949  24.138  44.557  10.455
19525W        W91950   1.018  23.322   4.665
19526W        W91951   2.891  28.344  13.635
19527W        W91952  15.049  38.517  10.572
19528W        W91953  36.091  22.776  12.556
19529W        W91954  10.153  19.620   2.732
19530W        W91955  28.504  17.600  14.388
19531W        W91956   7.721  13.687  14.191
19532W        W91957  16.017  30.601  12.897
19533W        W91958  28.848  37.139   0.931
19534W        W91959   0.971  24.400   0.809
19535W        W91960  27.400  17.093  14.071
19536W        W91961  29.583  25.446  14.277
19537W        W91962  28.674  42.340  11.342
19538W        W91963  14.082  42.828   3.310
19539W        W91964  17.049  39.437  12.021
19540W        W91965  25.060   3.407   0.059
19541W        W91966   8.214  28.644  14.959
19542W        W91967  31.671  42.700   0.087
19543W        W91968   2.787  17.100   4.552
19544W        W91969   6.706  31.094  10.983
19545W        W91970   6.239  25.254  13.028
19546W        W91971   6.901   5.953  14.435
19547W        W91972  41.309  26.191  11.082
19548W        W91973  24.741  29.948   4.053
19549W        W91974  34.645   8.012  14.784
19550W        W91975  10.738  21.523   2.644
19551W        W91976   3.738  43.013  11.695
19552W        W91977   9.332   5.722   0.238
19553W        W91978   9.903   7.983   0.306
19554W        W91979  34.259  38.024   4.483
19555W        W91980  32.067   6.731  13.497
19556W        W91981  30.910  44.451  10.663
19557W        W91982  39.253  40.017   0.423
19558W        W91983   7.071  44.386   4.350
19559W        W91984  19.872  19.295  14.554
19560W        W91985  39.357  15.656  10.780
19561W        W91986  25.429  34.737   1.662
19562W        W91987  32.219  41.728  11.086
19563W        W91988  22.483  19.954   2.253
19564W        W91989  44.071   3.437   0.495
19565W        W91990  35.958  37.394   4.671
19566W        W91991  14.857  23.127   2.712
19567W        W91992  23.093  14.306   3.192
19568W        W91993  35.543   9.641  14.519
19569W        W91994  40.437  41.884  13.045
19570W        W91995  17.300   2.006  11.920
19571W        W91996  37.509   0.416   1.323
19572W        W91997  18.908  11.196   0.014
19573W        W91998  26.713  44.492  13.379
19574W        W91999  32.064  17.909  13.424
19575W        W92000  30.585   7.196  14.997
19576W        W92001  18.053  41.803  12.006
19577W        W92002  41.843  12.411  11.226
19578W        W92003   0.810  14.883   3.184
19579W        W92004  24.606  24.435   1.966
19580W        W92005   0.400   6.362  12.350
19581W        W92006   2.015   4.838  11.014
19582W        W92007  25.898  42.962   4.643
19583W        W92008  23.948  17.087   1.280
19584W        W92009  20.222  19.119   3.304
19585W        W92010  43.855  11.659  14.440
19586W        W92011  35.005  26.649   3.138
19587W        W92012   5.987   4.911  11.083
19588W        W92013  16.530  32.728  12.673
19589W        W92014  14.558  33.038   0.770
19590W        W92015   9.995  43.790  11.522
19591W        W92016  13.735  35.481  12.255
19592W        W92017  34.453  30.812  11.579
19593W        W92018   6.966  11.974  12.893
19594W        W92019   4.877  30.255  12.960
19595W        W92020  21.060  11.080  11.742
19596W        W92021   5.904   4.943  10.189
19597W        W92022  15.353  40.051   0.141
19598W        W92023  13.058  11.540   1.279
19599W        W92024   3.945  43.851   0.428
19600W        W92025  33.038  11.906  13.535
19601W        W92026   4.414  30.932   0.919
19602W        W92027   7.821  18.399  11.906
19603W        W92028   0.557  37.535  12.254
19604W        W92029  10.435  16.353   1.324
19605W        W92030  21.695   8.441  10.928
19606W        W92031  44.444  34.842   4.638
19607W        W92032  27.609   0.796  11.075
19608W        W92033  22.211  29.724  14.376
19609W        W92034  12.585  41.444   4.644
19610W        W92035  19.121  40.359   2.141
19611W        W92036  30.703  19.816  11.183
19612W        W92037  40.078  13.055  11.275
19613W        W92038  37.139  25.385   2.549
19614W        W92039   4.377  36.392  12.838
19615W        W92040  35.312  39.462  13.812
19616W        W92041  14.520  18.076  11.915
19617W        W92042   8.991  10.508   3.547
19618W        W92043   8.327  29.573  12.135
19619W        W92044  17.242   8.479  11.491
19620W        W92045  12.203  22.013   9.746
19621W        W92046  37.026  14.831  14.377
19622W        W92047  40.074   7.316  14.283
19623W        W92048  33.535  37.072  13.699
19624W        W92049   1.247  40.701  13.383
19625W        W92050  37.623  21.207  13.512
19626W        W92051  38.406  27.426   0.790
19627W        W92052  42.765   7.337   1.360
19628W        W92053  34.566   4.276  11.930
19629W        W92054  41.810  33.503   1.719
19630W        W92055  42.353   3.921  13.360
19631W        W92056   3.280  34.426   3.906
19632W        W92057  41.363   8.199  13.085
19633W        W92058   1.916  33.670  14.898
19634W        W92059  11.172   4.289  11.033
19635W        W92060  44.022  27.960  12.487
19636W        W92061  32.385  20.738  14.032
19637W        W92062  38.503   0.270   1.327
19638W        W92063   5.353   3.309   1.729
19639W        W92064  12.348  18.202   1.922
19640W        W92065   1.795   2.830  10.699
19641W        W92066  22.567   7.939  12.034
19642W        W92067  42.946  23.135   1.723
19643W        W92068  42.028  25.727  11.194
19644W        W92069  11.220   9.883   3.304
19645W        W92070  35.221  34.519   2.377
19646W        W92071  25.281  36.120  14.459
19647W        W92072  29.694  40.938  11.653
19648W        W92073  17.505  33.115  12.821
19649W        W92074  18.730   5.722  13.314
19650W        W92075  33.440   0.451   3.356
19651W        W92076  32.894  15.583   2.815
19652W        W92077  31.223   3.270  14.986
19653W        W92078  25.355  42.982   4.645
19654W        W92079  13.481   4.775   5.089
19655W        W92080  35.015  43.934   1.411
19656W        W92081  24.687  28.685  12.886
19657W        W92082  15.669  11.196  11.613
19658W        W92083  34.574  24.028  12.511
19659W        W92084  35.016  32.807  12.479
19660W        W92085  13.174  23.872  10.234
19661W        W92086  39.361  42.391  11.838
19662W        W92087  12.211  23.786  10.642
19663W        W92088  26.259  26.054  14.899
19664W        W92089  14.073  31.652  14.037
19665W        W92090  34.273   1.800   1.821
19666W        W92091  15.593   6.958   1.296
19667W        W92092  41.501  33.064   1.847
19668W        W92093  44.368  36.145   4.409
19669W        W92094  12.704  39.552  14.437
19670W        W92095   9.068  22.222  14.162
19671W        W92096   5.652  12.261  13.003
19672W        W92097   2.330   6.739   4.735
19673W        W92098  10.983   1.119  14.447
19674W        W92099  20.666  16.764   3.785
19675W        W92100   0.313   4.009  12.489
19676W        W92101  42.455  28.202  10.996
19677W        W92102  31.868   3.581  11.684
19678W        W92103  36.347  20.527   2.240
19679W        W92104   8.214  33.927   4.609
19680W        W92105  27.675  22.577   1.844
19681W        W92106  30.329  34.594   0.220
19682W        W92107  29.642  24.750   0.333
19683W        W92108   4.690  12.872   0.906
19684W        W92109  37.256  26.079   0.470
19685W        W92110  14.719  15.718  13.658
19686W        W92111  13.681  26.730  12.851
19687W        W92112  41.901  36.549   3.590
19688W        W92113  21.102   2.285  12.518
19689W        W92114  15.319  26.034  14.639
19690W        W92115  13.663  32.690  11.997
19691W        W92116  35.335  24.190   1.928
19692W        W92117  17.545  20.249   2.801
19693W        W92118  13.942  15.332  12.071
19694W        W92119   8.176   7.318   2.224
19695W        W92120  36.710  16.470  11.198
19696W        W92121  42.036   0.828  11.145
19697W        W92122  14.485  21.160   3.074
19698W        W92123  26.924  26.187   0.489
19699W        W92124   4.854  28.601  11.641
19700W        W92125  30.598   3.697  13.253
19701W        W92126  32.287  24.642  10.701
19702W        W92127   1.390  12.776  13.022
19703W        W92128   9.788  30.892   4.400
19704W        W92129  40.818   6.309   0.939
19705W        W92130   7.250  10.261   3.364
19706W        W92131  41.748  25.639  13.451
19707W        W92132  39.957  17.848   3.649
19708W        W92133  18.673  17.465   5.179
19709W        W92134   4.643  36.711   4.036
19710W        W92135  19.275  37.056  11.978
19711W        W92136  24.604  10.705   0.019
19712W        W92137   1.491  39.263  10.696
19713W        W92138  13.065  35.320  13.266
19714W        W92139   1.993  24.052   3.433
19715W        W92140  20.309  23.874  13.925
19716W        W92141  18.764  10.189   1.423
19717W        W92142  35.657  31.549   4.263
19718W        W92143  44.990  26.932  12.562
19719W        W92144   7.253   6.458  12.908
19720W        W92145  39.811  26.699  12.939
19721W        W92146  41.502   8.978   0.869
19722W        W92147  26.051  23.070   2.359
19723W        W92148  14.172  31.114   1.702
19724W        W92149  27.413  20.007  11.062
19725W        W92150   4.239  43.388   0.443
19726W        W92151   9.222  42.874  11.908
19727W        W92152  34.199  18.204  14.002
19728W        W92153  20.712   8.175   0.249
19729W        W92154  13.533  12.094  13.030
19730W        W92155  10.216   8.623   0.918
19731W        W92156  28.501  30.892  11.582
19732W        W92157   8.031  35.935  12.406
19733W        W92158  37.677  30.622  13.465
19734W        W92159   9.113   0.989  14.286
19735W        W92160  39.575  29.914   4.566
19736W        W92161  41.116  40.331   0.840
19737W        W92162  28.278   2.983  13.296
19738W        W92163  44.713   2.795   3.544
19739W        W92164  19.769   7.314  10.688
19740W        W92165   5.711  11.110  14.853
19741W        W92166  39.640  25.087  14.856
19742W        W92167  43.018  31.005   3.284
19743W        W92168  16.731  14.762  10.875
19744W        W92169  35.980  27.579   0.370
19745W        W92170  25.472  13.797   0.438
19746W        W92171  40.111  30.992  12.467
19747W        W92172  39.904  41.481  14.323
19748W        W92173  29.428  24.143  11.464
19749W        W92174  43.139   6.857   2.838
19750W        W92175  21.933  25.961  11.298
19751W        W92176  37.676  13.155   5.055
19752W        W92177  21.299   5.953  14.342
19753W        W92178  38.523  26.208  11.616
19754W        W92179  14.079   6.549   1.621
19755W        W92180  34.691  20.317   4.750
19756W        W92181  19.154  13.659   1.029
19757W        W92182  17.741  35.141   2.060
19758W        W92183  31.124  28.391  11.686
19759W        W92184  41.542   7.776   2.782
19760W        W92185  10.433  12.573   3.567
19761W        W92186  24.625  16.663  12.133
19762W        W92187  42.271   0.400   3.689
19763W        W92188   9.504  37.566   3.171
19764W        W92189  17.607  12.001   4.570
19765W        W92190   1.675   6.857   4.100
19766W        W92191  20.312  43.308  12.437
19767W        W92192  18.061  38.328  14.691
19768W        W92193  25.960   2.745   2.466
19769W        W92194  28.488  25.170   1.945
19770W        W92195   0.310  38.872  11.552
19771W        W92196  44.915  28.451   2.339
19772W        W92197  16.237  10.598  10.647
19773W        W92198  21.049  14.854  13.958
19774W        W92199  44.235   9.831   1.227
19775W        W92200  21.732  14.974   4.036
19776W        W92201   3.256  11.107  11.697
19777W        W92202  37.577   9.745   4.856
19778W        W92203  43.496  32.060   1.261
19779W        W92204   8.497  42.525  12.197
19780W        W92205  28.542  37.098  13.896
19781W        W92206  34.502   9.291   4.560
19782W        W92207  13.265   4.031   3.376
19783W        W92208  33.114  22.923  12.041
19784W        W92209   9.330  35.142   1.003
19785W        W92210   8.837  17.274  12.135
19786W        W92211  38.534  18.107  14.326
19787W        W92212  16.678   8.944   0.303
19788W        W92213  27.369   3.302   3.820
19789W        W92214   3.281  35.886   0.361
19790W        W92215  16.766  23.289   3.403
19791W        W92216  36.149   8.317   2.353
19792W        W92217  17.586  21.209  13.773
19793W        W92218   3.403  24.300   3.629
19794W        W92219  17.275  36.510  12.430
19795W        W92220  30.393  30.929  11.617
19796W        W92221   7.227  39.386   2.952
19797W        W92222   0.849  28.183   2.665
19798W        W92223  44.950  39.308  11.576
19799W        W92224   3.153  34.491   0.437
19800W        W92225  37.950  31.890   0.944
19801W        W92226   6.738   3.357   4.799
19802W        W92227  39.280   9.811  11.472
19803W        W92228  40.301  14.998  13.475
19804W        W92229  26.597   4.086   2.275
19805W        W92230  31.071   0.492   1.947
19806W        W92231  11.657  15.592  12.597
19807W        W92232  21.514  25.545   2.413
19808W        W92233  26.067  23.326   4.300
19809W        W92234   1.220  30.232  11.536
19810W        W92235  36.309  10.247  13.330
19811W        W92236  34.809  13.318   0.376
19812W        W92237  30.410  12.197  10.506
19813W        W92238  36.182   4.444   4.402
19814W        W92239  35.873  13.873  11.235
19815W        W92240  36.764  21.546  11.876
19816W        W92241  22.466   9.179  13.894
19817W        W92242  44.448  29.668   0.920
19818W        W92243  44.841  27.420   2.248
19819W        W92244  29.992   8.717   3.280
19820W        W92245  13.402  27.091  10.559
19821W        W92246   4.413  28.119  12.462
19822W        W92247   7.682  32.082  14.979
19823W        W92248  33.458  11.838   3.551
19824W        W92249   3.492  16.392   1.175
19825W        W92250   8.615   4.204   0.834
19826W        W92251  12.750  40.369  14.886
19827W        W92252  23.685  33.519   1.136
19828W        W92253  12.805  28.382   0.424
19829W        W92254  41.745  39.080   1.488
19830W        W92255   0.800   8.659   0.839
19831W        W92256  16.317  44.242   4.222
19832W        W92257  16.339  23.568  12.276
19833W        W92258  14.583  23.342   0.339
19834W        W92259  39.562  18.591   4.167
19835W        W92260  30.522   3.890  10.909
19836W        W92261   8.253  11.776  10.632
19837W        W92262  21.365  26.625   4.918
19838W        W92263   2.020  38.900   4.913
19839W        W92264  23.126  13.761   3.914
19840W        W92265  36.608  27.436  12.493
19841W        W92266  38.059   1.875   0.692
19842W        W92267  13.215   3.055  11.841
19843W        W92268  11.156  44.891   4.318
19844W        W92269   7.191  24.296   0.329
19845W        W92270  29.609  22.528   3.768
19846W        W92271  32.850   3.316  11.601
19847W        W92272  40.412  32.600  13.584
19848W        W92273  25.741  12.831   0.329
19849W        W92274  32.425  38.505   0.812
19850W        W92275  42.459  26.858  10.565
19851W        W92276   6.275  29.254  13.915
19852W        W92277  27.455  22.113   1.793
19853W        W92278  29.125  43.774  12.041
19854W        W92279  17.185  27.547   0.126
19855W        W92280   5.254  24.109   1.761
19856W        W92281  38.341  35.461   1.179
19857W        W92282   0.259  15.706  10.474
19858W        W92283  40.575  17.515  13.829
19859W        W92284  24.628   6.719  10.547
19860W        W92285  10.908  21.585  14.987
19861W        W92286   5.359  19.616  14.911
19862W        W92287  37.344  37.118  14.000
19863W        W92288  14.225  42.408  14.648
19864W        W92289  16.285   1.861   1.382
19865W        W92290   1.322  35.616   1.919
19866W        W92291  25.625  24.210  10.643
19867W        W92292  27.180  37.819  11.091
19868W        W92293  44.107  20.812   0.881
19869W        W92294   1.819  44.229   2.183
19870W        W92295  34.750   6.740   0.431
19871W        W92296   9.396  13.030  10.814
19872W        W92297  16.675  19.239   4.691
19873W        W92298   7.541  30.862   0.412
19874W        W92299   8.256  20.642   0.557
19875W        W92300   6.323   5.813  12.545
19876W        W92301   2.329   2.523  11.437
19877W        W92302  20.693   8.590  14.904
19878W        W92303  43.812  13.376   4.625
19879W        W92304   5.379  41.086  13.818
19880W        W92305  28.852   2.179  12.013
19881W        W92306  12.885   4.974   4.284
19882W        W92307   9.520  33.915  12.361
19883W        W92308  32.943   3.950   0.864
19884W        W92309  12.016  16.680   0.030
19885W        W92310  40.916   7.047  11.466
19886W        W92311   7.666  26.561   0.867
19887W        W92312  41.337  30.677  10.809
19888W        W92313  24.146  11.681   1.177
19889W        W92314  14.059  30.673  13.968
19890W        W92315  17.613  33.606  11.580
19891W        W92316  44.961  12.075   2.541
19892W        W92317  29.700  27.180  10.788
19893W        W92318  20.641  41.331   2.472
19894W        W92319  43.199  28.643   3.051
19895W        W92320  33.551  31.628  13.304
19896W        W92321  29.187  15.269  13.875
19897W        W92322  42.289  44.011   4.167
19898W        W92323   1.439  38.374   2.013
19899W        W92324  10.377  31.589  10.611
19900W        W92325  26.091  16.908  12.073
19901W        W92326  42.750  23.644  11.686
19902W        W92327   6.408  35.305  10.385
19903W        W92328  31.972   3.029  13.340
19904W        W92329  43.785   9.909   3.797
19905W        W92330   1.312  40.835   4.039
19906W        W92331   0.116  16.679   4.139
19907W        W92332  24.186   1.746   4.985
19908W        W92333  19.060  37.843   1.329
19909W        W92334  40.431  25.208   3.886
19910W        W92335  24.769  29.498  14.250
19911W        W92336   0.854  12.170  14.594
19912W        W92337  38.312   6.217  13.146
19913W        W92338  23.151  22.855   4.125
19914W        W92339  21.155  12.404  10.654
19915W        W92340  44.475  15.487  11.128
19916W        W92341  27.013  12.610   4.122
19917W        W92342  19.039  32.442   2.747
19918W        W92343  34.062  34.161   1.774
19919W        W92344  24.638  13.295   3.259
19920W        W92345  25.958  30.634   1.659
19921W        W92346   4.496   1.242   3.570
19922W        W92347  23.109   9.518   2.356
19923W        W92348  19.059  22.734  10.793
19924W        W92349  26.486   9.224  10.668
19925W        W92350  11.237  14.399   4.600
19926W        W92351  38.608  13.768  12.047
19927W        W92352  36.021  37.439  11.583
19928W        W92353  17.201  33.892  13.550
19929W        W92354   9.718   6.632   3.667
19930W        W92355  43.240  40.846   0.209
19931W        W92356   7.318  26.232   2.835
19932W        W92357   0.036   4.855   2.813
19933W        W92358  43.530  13.287  10.671
19934W        W92359   1.334   8.379  10.683
19935W        W92360   9.911   4.003   0.241
19936W        W92361  25.892  44.894  14.562
19937W        W92362  26.238  28.751   2.890
19938W        W92363  34.431  43.441  12.202
19939W        W92364   4.977  23.198  12.936
19940W        W92365  28.875  19.513  14.476
19941W        W92366  20.620   1.979   3.227
19942W        W92367  34.225  28.247   0.455
19943W        W92368  34.481  36.881  14.268
19944W        W92369  40.308  44.572   9.962
19945W        W92370  19.703  24.156  13.414
19946W        W92371  44.040   7.728  13.403
19947W        W92372  12.394  26.599  14.890
19948W        W92373  17.155  25.441  11.327
19949W        W92374  38.789  29.584  14.475
19950W        W92375  42.025  11.184  10.630
19951W        W92376  17.865  17.588   1.036
19952W        W92377  18.980  16.155   2.720
19953W        W92378  20.818  24.522   1.799
19954W        W92379  33.113  28.665   4.088
19955W        W92380  31.064  39.074  10.215
19956W        W92381  26.397  14.440   0.334
19957W        W92382  22.366  29.411   0.824
19958W        W92383  26.265  23.029  10.528
19959W        W92384  19.178  14.828  11.106
19960W        W92385  32.409  28.456   0.728
19961W        W92386  40.061   9.088   3.243
19962W        W92387  26.214   9.410   4.170
19963W        W92388  41.334   0.420   0.752
19964W        W92389   5.919  37.373  11.701
19965W        W92390  41.543  29.504  14.562
19966W        W92391  38.517  17.551  12.563
19967W        W92392  26.511  31.614   1.342
19968W        W92393   9.369  43.871   2.737
19969W        W92394   9.297  22.477   3.676
19970W        W92395  16.672  19.590   3.856
19971W        W92396  42.105  24.930   2.343
19972W        W92397   4.957  19.690  13.778
19973W        W92398  37.909  39.334   4.595
19974W        W92399   4.230  38.455  10.724
19975W        W92400   9.872  39.969  14.012
19976W        W92401  24.178  15.954  13.317
19977W        W92402  43.796   4.362  12.406
19978W        W92403  32.501  36.291   4.101
19979W        W92404  31.485  11.202  11.697
19980W        W92405  25.215  29.079   2.184
19981W        W92406  19.016  37.626   2.699
19982W        W92407  20.239   7.221  12.049
19983W        W92408  20.291  28.943   0.282
19984W        W92409  21.179  25.402   3.264
19985W        W92410  12.360  13.794   4.930
19986W        W92411  33.401  42.039   2.303
19987W        W92412  22.625  44.263   2.610
19988W        W92413  43.716  32.023  12.920
19989W        W92414  21.520  21.873  13.891
19990W        W92415  26.468  43.062  11.469
19991W        W92416  17.818   0.579  10.674
19992W        W92417  35.361   3.365  11.919
19993W        W92418  40.834  37.036   2.117
19994W        W92419   9.262  34.115  14.814
19995W        W92420   1.842   6.782  11.592
19996W        W92421  35.050  30.597   3.785
19997W        W92422  24.621  26.071   2.241
19998W        W92423  14.310  23.476  11.584
19999W        W92424  25.350  31.871  12.891
20000W        W92425  10.445  29.574   0.004
20001W        W92426   2.804   7.082   2.827
20002W        W92427   9.705  12.297  13.553
20003W        W92428  37.607  21.728   1.278
20004W        W92429  37.856  23.540  11.197
20005W        W92430  11.612  16.706  10.925
20006W        W92431  32.935  39.011   2.684
20007W        W92432  40.509   8.422  10.665
20008W        W92433  28.409  22.152   1.430
20009W        W92434  13.627  35.091  11.434
20010W        W92435  11.450  35.410  12.529
20011W        W92436  20.455  16.230   3.712
20012W        W92437  16.670   8.192  10.810
20013W        W92438  15.580   3.499  13.440
20014W        W92439   3.419  33.883  12.041
20015W        W92440  39.182  18.060  13.788
20016W        W92441   0.545  13.538  14.791
20017W        W92442  10.102  30.829  14.419
20018W        W92443  13.249  39.720   1.133
20019W        W92444  27.142  17.840  12.120
20020W        W92445   7.915  31.924  12.482
20021W        W92446   6.551   8.457  13.028
20022W        W92447   2.839  25.621   1.627
20023W        W92448   0.866   5.385   2.769
20024W        W92449  35.038  44.502  12.800
20025W        W92450  40.852  12.659  12.610
20026W        W92451  10.749  38.288   4.692
20027W        W92452  26.704  34.996  11.905
20028W        W92453  30.859  22.584   0.692
20029W        W92454  20.988   7.783  10.959
20030W        W92455  44.444  32.449   0.024
20031W        W92456  37.255  31.551  10.642
20032W        W92457  28.852  19.700  13.552
20033W        W92458  16.060  37.762  14.401
20034W        W92459  42.274  22.102  13.972
20035W        W92460   4.950   7.210   0.846
20036W        W92461  21.964  19.325  12.997
20037W        W92462   1.922  20.130   4.562
20038W        W92463  11.130  33.052   3.815
20039W        W92464  34.014  19.559   1.158
20040W        W92465  19.347  22.084   1.811
20041W        W92466  33.385  19.489   0.446
20042W        W92467   5.665  10.255  11.550
20043W        W92468  15.574  23.992   1.793
20044W        W92469  20.083  30.150  11.207
20045W        W92470  12.708  15.627   0.982
20046W        W92471  24.988   9.483  12.994
20047W        W92472  27.657   5.367   0.756
20048W        W92473   1.519   8.657   0.338
20049W        W92474   7.867  17.980   4.944
20050W        W92475  44.152  21.275  13.851
20051W        W92476  15.767  42.890  10.279
20052W        W92477  20.107  38.861  11.550
20053W        W92478  34.942   8.162   2.224
20054W        W92479  10.335  23.156  12.423
20055W        W92480  32.534   2.895   2.178
20056W        W92481  12.810  35.820   2.535
20057W        W92482  21.318  24.044  14.871
20058W        W92483  36.830  19.625  13.072
20059W        W92484  19.881  14.835   2.814
20060W        W92485  19.047   4.926  12.370
20061W        W92486   1.882   9.914  11.957
20062W        W92487  30.825  42.951  12.577
20063W        W92488  11.755  40.284   0.304
20064W        W92489  25.033  28.722   3.350
20065W        W92490  33.164  38.673   4.095
20066W        W92491  12.216  23.538  13.391
20067W        W92492  30.485   8.787  14.108
20068W        W92493  20.561   0.966   4.936
20069W        W92494  17.443  39.352   0.040
20070W        W92495  27.066  43.708   4.179
20071W        W92496  22.130  23.427  12.356
20072W        W92497  16.072  28.519   3.768
20073W        W92498  10.769  27.158  11.473
20074W        W92499  37.873  18.221  13.110
20075W        W92500  40.381  36.786  11.995
20076W        W92501  24.496  33.886  11.129
20077W        W92502  24.194  25.474   0.839
20078W        W92503  38.410  37.230  11.127
20079W        W92504  41.789  32.393  12.984
20080W        W92505   5.234  16.796   0.769
20081W        W92506  28.462  35.681   3.778
20082W        W92507  38.991   2.154  14.077
20083W        W92508  11.282  41.004   2.112
20084W        W92509  30.019  11.912   1.833
20085W        W92510  11.354  24.001  10.222
20086W        W92511   9.392  29.640  14.277
20087W        W92512  37.800  20.876   9.920
20088W        W92513  30.520  20.143   0.802
20089W        W92514  37.559   9.942  13.138
20090W        W92515  27.709   8.192   0.894
20091W        W92516  17.993  26.206  12.174
20092W        W92517  35.949   2.481   1.864
20093W        W92518  42.870  43.263   2.086
20094W        W92519  11.406  43.315  14.485
20095W        W92520  43.413  12.585   3.279
20096W        W92521  10.085  25.075  12.628
20097W        W92522  15.636  40.895  10.361
20098W        W92523  38.872  15.883  10.830
20099W        W92524   3.750  35.190   1.224
20100W        W92525  10.708  42.786  11.977
20101W        W92526  17.502  23.611   1.293
20102W        W92527  41.794   1.538   3.899
20103W        W92528  13.187  31.172   1.908
20104W        W92529  20.816  15.026   3.260
20105W        W92530  41.300  42.944  13.017
20106W        W92531  13.155   4.202  10.099
20107W        W92532  17.564  17.253   3.162
20108W        W92533  21.005   8.665   4.803
20109W        W92534  26.519  36.427  10.796
20110W        W92535  23.282   3.353   2.879
20111W        W92536  43.856  41.550   3.426
20112W        W92537  40.955  28.570   1.191
20113W        W92538   4.037  39.362  11.596
20114W        W92539   5.826  39.987  14.278
20115W        W92540   9.653  36.481   0.631
20116W        W92541  34.607  34.480   3.817
20117W        W92542  31.076  23.371  11.004
20118W        W92543   1.640  20.222   0.166
20119W        W92544  23.615   0.682   0.305
20120W        W92545   5.946  32.642  11.972
20121W        W92546  40.837  29.572  11.255
20122W        W92547  14.353  34.933   0.866
20123W        W92548   0.106   5.644   4.546
20124W        W92549   3.181   3.237  11.951
20125W        W92550  15.538   0.856   0.785
20126W        W92551  36.563  15.424  10.662
20127W        W92552  11.356  41.733  11.959
20128W        W92553  44.601  23.186  12.329
20129W        W92554  39.772  11.397   4.125
20130W        W92555   7.341  25.452   3.287
20131W        W92556  25.964  41.733  11.202
20132W        W92557  43.776  27.557   0.330
20133W        W92558   7.950  41.755   4.632
20134W        W92559  18.972  28.913  13.871
20135W        W92560  42.483   6.927   3.610
20136W        W92561  10.474   6.970  14.942
20137W        W92562  34.550  11.308  14.335
20138W        W92563  33.997  23.074   3.394
20139W        W92564   4.896   6.928   4.260
20140W        W92565  35.290  37.547  12.549
20141W        W92566  21.144  32.978  12.067
20142W        W92567  23.757  21.776   3.714
20143W        W92568   5.820  26.389  14.911
20144W        W92569  20.599  25.703   1.299
20145W        W92570  21.224  30.062   2.520
20146W        W92571   8.225  20.924   4.964
20147W        W92572  27.685  30.587  11.491
20148W        W92573   3.202  37.124  12.521
20149W        W92574   2.884  30.611  10.625
20150W        W92575  28.602  42.246  10.404
20151W        W92576  26.416  32.746  12.585
20152W        W92577   7.831  25.555   0.793
20153W        W92578  43.876  41.424  12.217
20154W        W92579  37.872  43.373   2.277
20155W        W92580  33.035   2.900  11.869
20156W        W92581  16.100  16.095  11.549
20157W        W92582   2.788  12.735  11.529
20158W        W92583  23.549   0.775   3.216
20159W        W92584  16.631  25.296   3.288
20160W        W92585  34.478   6.327   2.121
20161W        W92586  39.974  15.085  10.684
20162W        W92587  28.700   1.996  11.146
20163W        W92588  35.009  30.507   4.653
20164W        W92589  32.869  32.136   3.264
20165W        W92590  14.158  13.789   4.307
20166W        W92591  13.020  40.479   4.702
20167W        W92592  31.057  44.445   1.238
20168W        W92593  26.461   1.726  12.085
20169W        W92594  30.081   0.322   3.416
20170W        W92595  33.200  21.616  11.158
20171W        W92596  31.118  22.881   3.887
20172W        W92597  37.004   1.511   2.375
20173W        W92598  33.046  27.593  10.873
20174W        W92599  13.495  20.187   0.767
20175W        W92600  14.734  16.343  11.979
20176W        W92601  44.531   4.610  13.575
20177W        W92602   5.335  16.620   2.797
20178W        W92603  33.684  34.190  13.292
20179W        W92604  34.496  42.545  13.360
20180W        W92605  36.943  10.561   3.195
20181W        W92606  11.200  19.397  14.419
20182W        W92607   4.496  10.089   0.895
20183W        W92608  12.986  38.107   2.244
20184W        W92609  13.842   3.975  14.512
20185W        W92610  41.751  23.569  12.835
20186W        W92611  35.178   9.756   1.966
20187W        W92612   6.731  22.121   4.428
20188W        W92613   1.871  34.128   2.868
20189W        W92614  28.984  11.036   2.545
20190W        W92615  18.737  33.150  10.987
20191W        W92616  38.039  38.752   2.375
20192W        W92617  27.985  18.117   4.373
20193W        W92618  32.243   7.278  10.177
20194W        W92619  18.724  20.629   3.698
20195W        W92620  22.607  36.962   4.650
20196W        W92621  25.105  14.634   0.739
20197W        W92622  37.040   3.031   3.707
20198W        W92623  40.985  21.669   3.084
20199W        W92624  21.485  14.790   3.614
20200W        W92625   5.956  35.044  11.621
20201W        W92626  25.689   2.980  12.466
20202W        W92627  41.276  10.145   1.834
20203W        W92628  42.994   5.331   4.397
20204W        W92629  27.173  37.087  14.744
20205W        W92630  36.603  36.235   1.139
20206W        W92631   8.951  43.793  13.253
20207W        W92632  12.576  25.281   5.501
20208W        W92633  20.268  12.172  11.508
20209W        W92634  30.121  12.737   3.674
20210W        W92635  22.529  29.105   4.267
20211W        W92636  15.411   9.126  12.678
20212W        W92637  31.097  15.075  11.230
20213W        W92638  25.245   2.393   4.216
20214W        W92639  10.906  24.796   1.396
20215W        W92640  24.463  31.587   2.579
20216W        W92641  33.764  20.849   1.358
20217W        W92642  37.503  15.064   2.107
20218W        W92643   8.276  40.299   3.132
20219W        W92644   4.861  39.745  10.587
20220W        W92645  23.482  11.136   5.182
20221W        W92646   8.206  20.601   4.538
20222W        W92647  19.317   1.266  11.118
20223W        W92648  21.030  42.414  11.440
20224W        W92649  11.377   6.364   4.406
20225W        W92650  36.375  32.902   1.195
20226W        W92651  20.758  23.096   4.521
20227W        W92652  11.465  13.861   2.836
20228W        W92653  20.226  19.248  13.545
20229W        W92654  20.406  26.365  10.798
20230W        W92655  19.996  41.682  11.961
20231W        W92656  33.025  24.778  11.188
20232W        W92657  41.852  41.448  12.956
20233W        W92658  22.751  21.841  10.155
20234W        W92659   4.898  18.703  12.948
20235W        W92660  39.949  32.146   0.783
20236W        W92661   3.629  32.129   4.011
20237W        W92662   1.369   1.864   2.306
20238W        W92663  10.456  23.004   4.158
20239W        W92664  37.823   3.917  12.545
20240W        W92665  25.976  29.460   4.351
20241W        W92666  39.048  12.229  10.934
20242W        W92667  25.998  15.132   3.858
20243W        W92668   4.551  33.929   0.235
20244W        W92669  32.931  37.886  14.341
20245W        W92670   3.082  29.692  12.467
20246W        W92671  25.524  39.065   3.951
20247W        W92672  12.840  28.675  10.708
20248W        W92673  16.730  44.953  14.880
20249W        W92674   6.366  17.159   0.466
20250W        W92675  23.921   3.354   4.071
20251W        W92676  39.255  34.623  10.339
20252W        W92677   0.542  20.771  10.751
20253W        W92678  26.124   6.876  11.297
20254W        W92679  44.924  37.565   2.892
20255W        W92680  11.338  18.733   0.462
20256W        W92681  39.099  37.105   1.659
20257W        W92682  29.971  31.369   4.074
20258W        W92683   6.371  27.347  14.189
20259W        W92684   6.857   6.084   1.329
20260W        W92685  42.487  40.661   2.185
20261W        W92686   1.113  33.440   5.133
20262W        W92687  39.448  29.027   3.307
20263W        W92688  32.602  16.521  14.816
20264W        W92689  44.932  14.183  14.202
20265W        W92690  30.683  43.238   3.211
20266W        W92691  25.825  22.139  12.994
20267W        W92692  29.214  34.876   4.099
20268W        W92693   0.191   6.714  11.599
20269W        W92694  17.278  28.507   3.312
20270W        W92695  44.867  33.517   1.222
20271W        W92696   6.873  29.208   3.418
20272W        W92697   0.608  12.325  12.549
20273W        W92698  37.005  29.005   1.383
20274W        W92699   1.433  26.621  14.527
20275W        W92700  38.453   2.715   2.199
20276W        W92701   3.429  31.762   1.756
20277W        W92702  22.442  13.019   5.073
20278W        W92703  23.157  42.887  12.428
20279W        W92704  38.324  27.346  14.342
20280W        W92705  15.290  15.085  14.518
20281W        W92706  15.881   3.715   0.796
20282W        W92707  38.926  20.331  13.604
20283W        W92708  24.904  28.236  13.007
20284W        W92709   8.223  32.069   2.408
20285W        W92710  40.928  27.432   1.109
20286W        W92711  39.847   1.892  12.509
20287W        W92712  41.246  12.922  12.445
20288W        W92713  33.053   9.400  10.684
20289W        W92714  18.277  42.429   4.355
20290W        W92715  16.713  21.508  11.506
20291W        W92716   5.320  16.238  13.921
20292W        W92717  36.939  23.637   1.140
20293W        W92718   5.292  38.585  14.487
20294W        W92719  36.850   5.888   0.039
20295W        W92720  12.318  13.282  13.522
20296W        W92721  38.844   4.174  10.158
20297W        W92722  15.811  26.956  13.356
20298W        W92723  18.922  43.958   4.095
20299W        W92724  20.950  20.540   3.233
20300W        W92725  32.245   0.820  11.074
20301W        W92726  24.721  22.111  10.613
20302W        W92727  25.272  35.999  13.372
20303W        W92728  14.129   7.970   3.696
20304W        W92729  22.303   3.212   3.299
20305W        W92730   6.315  24.324  14.734
20306W        W92731  17.343  42.486   4.830
20307W        W92732  34.142  12.712  14.829
20308W        W92733  41.398  30.036   4.345
20309W        W92734  38.571  26.487  14.657
20310W        W92735  22.069  23.520   4.599
20311W        W92736   6.296  19.311   2.883
20312W        W92737   7.153  36.852  14.050
20313W        W92738  42.555   3.219   0.425
20314W        W92739   7.772  14.776   3.419
20315W        W92740  28.300  44.845  12.015
20316W        W92741   0.259  33.833   1.417
20317W        W92742  24.017  40.028   2.779
20318W        W92743  20.668  14.103  14.825
20319W        W92744   2.822  34.447  12.421
20320W        W92745  29.600  15.653   4.899
20321W        W92746  27.921   6.616   2.827
20322W        W92747   4.161  13.321   2.268
20323W        W92748  22.587  38.937  10.042
20324W        W92749  11.713  19.412  11.554
20325W        W92750  31.865  10.748   1.860
20326W        W92751  21.389  35.362   3.595
20327W        W92752  19.269  22.793   3.156
20328W        W92753  33.750   8.783  10.221
20329W        W92754  44.569  44.829  11.061
20330W        W92755   5.372  23.539   1.960
20331W        W92756  40.316  23.532   1.347
20332W        W92757  43.774  21.711   5.529
20333W        W92758  12.987  35.963  14.547
20334W        W92759   0.402  41.559   1.667
20335W        W92760  44.678  15.713  14.102
20336W        W92761  35.899  38.863   1.444
20337W        W92762  26.591  36.585   0.726
20338W        W92763  26.603  16.667   2.460
20339W        W92764  36.820   0.153  12.913
20340W        W92765  20.010   4.842   2.855
20341W        W92766  39.989  15.320  14.739
20342W        W92767  38.690   6.270   2.777
20343W        W92768  13.122  38.306  13.062
20344W        W92769  28.604  11.748  13.456
20345W        W92770   2.980  26.094   1.781
20346W        W92771  36.378  39.902  10.690
20347W        W92772  13.216  35.064  14.125
20348W        W92773  26.105  13.141  14.226
20349W        W92774  39.199  38.422  13.464
20350W        W92775  24.354  28.558   2.637
20351W        W92776  12.317  32.644  11.561
20352W        W92777   5.891  13.625  11.133
20353W        W92778  38.810  10.287   1.374
20354W        W92779   0.204  22.040   0.449
20355W        W92780   1.697  28.849   1.211
20356W        W92781  15.417  14.070   0.261
20357W        W92782  14.841  32.591  13.441
20358W        W92783  30.146  30.188   2.003
20359W        W92784  14.087   9.012   3.691
20360W        W92785  36.574   1.773  10.278
20361W        W92786   9.270  24.102   0.262
20362W        W92787  15.999   8.335  12.642
20363W        W92788  18.253  10.824  10.461
20364W        W92789  14.493  38.541   3.517
20365W        W92790  26.815  24.010   4.143
20366W        W92791  29.840  16.064   1.764
20367W        W92792   4.915  36.361  12.305
20368W        W92793  11.149   5.833   0.242
20369W        W92794   8.049  22.113   2.363
20370W        W92795   6.333   2.197  10.698
20371W        W92796  15.276  37.533   4.107
20372W        W92797  12.721  19.452  14.289
20373W        W92798  27.654  31.880  10.395
20374W        W92799   7.433  25.654  13.430
20375W        W92800  30.976  22.268   1.418
20376W        W92801  30.499  26.886   4.449
20377W        W92802  29.614  42.212   2.781
20378W        W92803  10.687   9.403   2.259
20379W        W92804  34.038  11.664   1.288
20380W        W92805   2.171   1.226   3.226
20381W        W92806  27.414  11.899   3.591
20382W        W92807  12.469  41.950  12.411
20383W        W92808  41.890  16.326  14.489
20384W        W92809  38.467  19.451  13.423
20385W        W92810  12.445  20.834   0.359
20386W        W92811  12.647   8.919   2.789
20387W        W92812   7.342   9.782  14.446
20388W        W92813  23.470   6.275   4.051
20389W        W92814   4.381  44.369  11.875
20390W        W92815  19.575  26.043   1.678
20391W        W92816  32.554  10.821  12.841
20392W        W92817   1.174   5.744   1.684
20393W        W92818  43.811  14.287  12.036
20394W        W92819  21.162  11.411   2.906
20395W        W92820  20.054   0.420  10.307
20396W        W92821  24.145   1.661  12.422
20397W        W92822  20.161  16.152   1.451
20398W        W92823  37.319   3.761  12.521
20399W        W92824  42.855  11.895   1.297
20400W        W92825   0.388   6.049  13.832
20401W        W92826  15.123  23.857   3.352
20402W        W92827  31.901  11.424  10.635
20403W        W92828  34.899  32.493   4.210
20404W        W92829   3.941   7.945  12.891
20405W        W92830  29.911  27.646  10.948
20406W        W92831  41.966  22.427   3.807
20407W        W92832   4.838   0.575   2.749
20408W        W92833  13.129  14.352  14.885
20409W        W92834  26.032  41.998  12.194
20410W        W92835  17.588  24.787   4.162
20411W        W92836  19.315  35.958   0.682
20412W        W92837   9.878   4.751  14.901
20413W        W92838  11.874  19.241   1.846
20414W        W92839   5.795  33.335  13.426
20415W        W92840  11.270  18.913  13.355
20416W        W92841  42.995  34.165   4.614
20417W        W92842  19.563  18.153   2.611
20418W        W92843  20.340  18.748   2.967
20419W        W92844  43.760  25.024   0.465
20420W        W92845  42.245  42.365   4.597
20421W        W92846  21.979  29.134  14.111
20422W        W92847  17.090  41.050  14.952
20423W        W92848  32.298  31.702   3.743
20424W        W92849  18.118  33.470   3.273
20425W        W92850  11.630   5.807   0.471
20426W        W92851  20.372  39.764  13.750
20427W        W92852  27.025  31.783   4.953
20428W        W92853   5.328  29.206  14.393
20429W        W92854  17.563  15.795   3.157
20430W        W92855  19.208  20.718   3.297
20431W        W92856  19.621  20.814   4.505
20432W        W92857  33.996  20.864   4.531
20433W        W92858  37.720  36.795   0.291
20434W        W92859  32.588  23.006   4.846
20435W        W92860  44.445  29.525   0.177
20436W        W92861  15.726  34.676  12.080
20437W        W92862  21.516  36.367   4.622
20438W        W92863   5.682  38.864  13.478
20439W        W92864  17.838   8.411   2.762
20440W        W92865  23.191   9.459  11.135
20441W        W92866  41.802  43.339  14.987
20442W        W92867   3.628  38.361   3.808
20443W        W92868  14.373   4.370  12.452
20444W        W92869   6.354  40.406   3.453
20445W        W92870  19.138  20.963   0.005
20446W        W92871   6.308  27.079   3.232
20447W        W92872  37.624  21.218  12.033
20448W        W92873   1.351  38.845  11.862
20449W        W92874  33.840  40.362  13.860
20450W        W92875  14.699  24.596   0.343
20451W        W92876  36.758  37.666   1.330
20452W        W92877  32.864  44.941   3.064
20453W        W92878  44.808  19.229   2.666
20454W        W92879   9.762   1.251   4.631
20455W        W92880  13.071  27.183  14.375
20456W        W92881  21.088  20.180  11.727
20457W        W92882  14.748   8.475   2.903
20458W        W92883  12.170  16.662  13.872
20459W        W92884  13.358  40.287  14.417
20460W        W92885  35.163  28.970   2.045
20461W        W92886  21.334  10.345   1.474
20462W        W92887  43.770  26.405  14.881
20463W        W92888  34.580  41.960  11.547
20464W        W92889   4.570  39.305   4.225
20465W        W92890  39.919  15.653   0.134
20466W        W92891   8.229  40.620  11.493
20467W        W92892   6.281  42.434   3.630
20468W        W92893  26.579  18.586  14.532
20469W        W92894  36.042  18.723  11.887
20470W        W92895  40.083   1.398  13.489
20471W        W92896   0.498   1.692  14.419
20472W        W92897  43.473  10.343   3.764
20473W        W92898  34.701  28.442   0.505
20474W        W92899  38.568  31.923  12.942
20475W        W92900  20.280  28.183  14.356
20476W        W92901  23.075  32.939   0.879
20477W        W92902  19.041   9.764  11.939
20478W        W92903  28.942   0.865   2.761
20479W        W92904  20.117  23.763  12.998
20480W        W92905  17.629  44.244  11.611
20481W        W92906  15.045  42.764  14.877
20482W        W92907  19.710  29.088   4.567
20483W        W92908  14.543  32.146   0.872
20484W        W92909  13.193  39.941  10.792
20485W        W92910   9.691  14.523   3.199
20486W        W92911  21.181  38.544  10.750
20487W        W92912  34.748  25.556  14.046
20488W        W92913   9.679   4.049   4.172
20489W        W92914  18.547  28.065   4.991
20490W        W92915   4.741   0.716  12.044
20491W        W92916   7.731  15.755  13.282
20492W        W92917  10.685  31.142   4.024
20493W        W92918   8.139   6.636  14.898
20494W        W92919  26.937   0.554   4.331
20495W        W92920  12.096  16.131  13.854
20496W        W92921  19.066   8.928  11.027
20497W        W92922  23.044  28.713   2.379
20498W        W92923   2.392  27.255   0.967
20499W        W92924   5.221  41.346   3.741
20500W        W92925   6.968  19.389   2.165
20501W        W92926  28.515  35.324   4.617
20502W        W92927   4.759   2.961   5.156
20503W        W92928  15.991  10.085  14.718
20504W        W92929  39.697  43.490   1.692
20505W        W92930  37.443  24.151  14.290
20506W        W92931  35.419   9.315  13.552
20507W        W92932  15.721   3.863   5.489
20508W        W92933  27.546  28.098   1.232
20509W        W92934  16.254   0.223   2.753
20510W        W92935  23.148  35.474   4.362
20511W        W92936  24.101  33.642   4.731
20512W        W92937   8.880   8.553   1.693
20513W        W92938  12.262  20.149   3.173
20514W        W92939   2.314  42.457   1.804
20515W        W92940  14.654  34.022   1.354
20516W        W92941  24.222  21.503  14.446
20517W        W92942   8.242  15.175   0.822
20518W        W92943  23.775   2.628   0.186
20519W        W92944  37.583   7.604   1.750
20520W        W92945  28.102  12.533   5.086
20521W        W92946  16.859  35.518   4.707
20522W        W92947  17.962  12.402   4.183
20523W        W92948  30.407  23.600   0.756
20524W        W92949  10.630  30.918   1.642
20525W        W92950  13.105  33.950   1.429
20526W        W92951  21.675  13.325   1.314
20527W        W92952  27.165   3.348  14.735
20528W        W92953   1.465  13.117  11.499
20529W        W92954   9.073  12.527   2.442
20530W        W92955   7.884  41.898  11.726
20531W        W92956   6.756  43.471   0.365
20532W        W92957  30.833  41.959   3.577
20533W        W92958   4.899  12.737   0.364
20534W        W92959  26.519  31.811  12.218
20535W        W92960  20.859  10.150   5.381
20536W        W92961  11.874  24.619   9.773
20537W        W92962  37.438  35.923  10.239
20538W        W92963   5.154  15.870  14.856
20539W        W92964  20.779  13.160  12.458
20540W        W92965  17.994  10.756  13.860
20541W        W92966  25.553  34.615   2.676
20542W        W92967  38.933  16.845   2.266
20543W        W92968   9.882  29.401  11.184
20544W        W92969  26.793   8.228   2.842
20545W        W92970  36.969  18.325  12.349
20546W        W92971  43.492  12.751  10.550
20547W        W92972   6.307   9.327   3.304
20548W        W92973  14.048  24.847  11.571
20549W        W92974  16.631   4.301  13.856
20550W        W92975  19.660   0.044  13.354
20551W        W92976  23.810  21.733  12.246
20552W        W92977  16.638  34.630   3.611
20553W        W92978  14.753  13.064  10.925
20554W        W92979  44.365  20.785  12.859
20555W        W92980   0.079  40.584   3.205
20556W        W92981  20.490  19.354  13.972
20557W        W92982  21.506  21.109   0.143
20558W        W92983   6.247  40.320   1.732
20559W        W92984  27.282   8.471   4.155
20560W        W92985   1.193  27.202   3.696
20561W        W92986   3.879  15.362  14.996
20562W        W92987  18.090  21.215  11.132
20563W        W92988  36.351  24.228   4.300
20564W        W92989  14.690   4.270  13.934
20565W        W92990  11.863  33.412   2.712
20566W        W92991   2.825   7.170   3.703
20567W        W92992  12.740  39.517  13.476
20568W        W92993  42.967   2.188   4.209
20569W        W92994  38.837   9.611  13.933
20570W        W92995  18.200   1.445   0.786
20571W        W92996  13.053   5.401  11.446
20572W        W92997  31.566  38.097  12.413
20573W        W92998  35.165   4.220   1.286
20574W        W92999  30.500  39.970  13.048
20575W        W93000   6.771  26.656  11.097
20576W        W93001  40.028  10.708  12.186
20577W        W93002  20.393  28.408   1.947
20578W        W93003  41.978  27.664  12.105
20579W        W93004   5.243   2.212   4.153
20580W        W93005  11.253   0.255  10.596
20581W        W93006  28.980  27.216   3.143
20582W        W93007  22.483  24.386  12.542
20583W        W93008   8.218   1.969  10.716
20584W        W93009  14.657  29.478  13.105
20585W        W93010   7.719  44.714   3.541
20586W        W93011  25.208  41.601   0.488
20587W        W93012  24.228  35.977   2.627
20588W        W93013   3.968  33.992   3.129
20589W        W93014  31.692   5.814   0.354
20590W        W93015   3.249  33.643  11.589
20591W        W93016   0.737   8.137   3.855
20592W        W93017  23.613  41.769   2.277
20593W        W93018  26.732  20.163   1.693
20594W        W93019   7.922  15.758  14.181
20595W        W93020  37.139   6.280  14.844
20596W        W93021  27.761   6.213  11.734
20597W        W93022  22.644  42.230   0.802
20598W        W93023  17.041   8.298  10.459
20599W        W93024  31.526  41.655  12.336
20600W        W93025   5.132  25.553  14.851
20601W        W93026  10.237  25.569  12.595
20602W        W93027  16.287   3.795   1.290
20603W        W93028  30.887  29.054   1.286
20604W        W93029  28.386  26.897  11.072
20605W        W93030  36.162  32.971   2.299
20606W        W93031  29.748  26.168  14.946
20607W        W93032  40.829   4.878   1.965
20608W        W93033  35.734  38.786  10.935
20609W        W93034   1.720   0.864   2.050
20610W        W93035  18.811  18.613   2.198
20611W        W93036  32.890  15.194   0.302
20612W        W93037  25.060  24.296   2.197
20613W        W93038  33.773  28.014  12.867
20614W        W93039   9.129  30.662   3.705
20615W        W93040  23.035  19.820  13.527
20616W        W93041  38.874  29.184  14.827
20617W        W93042  44.987  33.965  12.890
20618W        W93043   0.186  19.945   3.739
20619W        W93044   5.370  20.007  12.840
20620W        W93045  16.815  19.556  10.634
20621W        W93046  40.996  13.240   3.034
20622W        W93047  28.132  34.470   1.405
20623W        W93048  30.178   2.465  14.792
20624W        W93049   4.928  38.770  14.158
20625W        W93050  42.542  11.219  10.795
20626W        W93051  10.351  44.303  12.856
20627W        W93052  40.313  32.613  11.996
20628W        W93053  18.999  44.423   3.229
20629W        W93054   3.960  43.288  13.854
20630W        W93055  23.714  17.295   0.257
20631W        W93056  29.446  38.645  14.428
20632W        W93057  26.299   6.855  10.787
20633W        W93058  29.483  44.105   0.463
20634W        W93059  43.343  23.723   4.013
20635W        W93060  31.183  34.475   3.644
20636W        W93061  28.469  41.535  11.366
20637W        W93062  19.625  39.346  13.048
20638W        W93063  43.485  15.515   2.295
20639W        W93064   6.498  30.911   0.373
20640W        W93065  28.024  33.571   4.650
20641W        W93066  20.731  12.142  13.491
20642W        W93067  33.195   9.759  12.623
20643W        W93068  34.622  36.643  12.524
20644W        W93069  13.371  27.685   0.703
20645W        W93070  17.327  24.194  10.841
20646W        W93071  19.552  35.731   4.618
20647W        W93072   3.438  44.537   0.884
20648W        W93073  35.672  31.099   4.556
20649W        W93074  36.150  17.273  12.834
20650W        W93075   1.264  18.820   3.803
20651W        W93076  23.254  44.033   4.409
20652W        W93077  31.126   3.953  14.490
20653W        W93078   5.842  31.461   2.289
20654W        W93079  28.317   6.703   4.582
20655W        W93080  41.485  42.375   4.086
20656W        W93081  12.309  44.462   2.099
20657W        W93082  30.078  35.871  12.793
20658W        W93083  44.535  36.927   3.823
20659W        W93084   0.940  31.440   4.367
20660W        W93085   7.283  39.007   2.149
20661W        W93086   7.291  18.156   1.875
20662W        W93087   8.819  20.216   1.803
20663W        W93088  29.657  31.352   1.423
20664W        W93089  14.670  28.914   1.349
20665W        W93090  28.429   5.332   3.206
20666W        W93091   2.842  23.206   0.537
20667W        W93092   0.972  19.203  13.393
20668W        W93093   2.282  13.024   4.983
20669W        W93094  44.341   6.947   1.772
20670W        W93095  23.079  10.323  14.699
20671W        W93096   5.491  31.824  11.059
20672W        W93097   0.394  33.527   4.597
20673W        W93098   2.469   1.989  14.293
20674W        W93099  34.036  32.878  12.523
20675W        W93100   5.723  16.795   0.957
20676W        W93101  20.810  44.001  12.036
20677W        W93102  37.396  12.353  14.855
20678W        W93103  34.916   5.438   0.243
20679W        W93104  43.463   3.890  13.491
20680W        W93105  39.763  35.820  10.699
20681W        W93106  42.287  16.589  12.932
20682W        W93107  36.631  27.630  11.189
20683W        W93108  11.671  37.319   1.744
20684W        W93109   3.792  25.629   0.287
20685W        W93110  24.558  15.771  11.366
20686W        W93111  35.564  14.191  13.752
20687W        W93112  14.696  19.114  13.125
20688W        W93113  15.074  24.923   4.636
20689W        W93114  26.674  28.955   3.551
20690W        W93115  19.094   7.423  14.471
20691W        W93116  22.983  32.517  12.961
20692W        W93117  16.127  35.142   4.195
20693W        W93118  13.046  39.146  12.207
20694W        W93119  14.781  36.819  12.534
20695W        W93120  22.736   5.240  14.913
20696W        W93121   7.936  44.113   1.548
20697W        W93122  27.254  20.789   1.230
20698W        W93123  24.612  25.545  10.849
20699W        W93124  18.492  29.941   0.963
20700W        W93125  13.582   8.175   4.487
20701W        W93126   2.722   0.959   2.827
20702W        W93127  29.627  36.973  13.322
20703W        W93128  22.761  40.371   1.475
20704W        W93129  43.929  36.800   0.848
20705W        W93130  29.853   0.318   2.018
20706W        W93131  25.071  38.261  13.803
20707W        W93132  17.671  18.340   3.717
20708W        W93133  13.190  29.961  14.866
20709W        W93134  25.824  22.737   2.961
20710W        W93135   7.773  36.844  14.996
20711W        W93136   3.772  11.149  12.519
20712W        W93137  18.718   8.894   2.958
20713W        W93138  26.047  14.302  14.923
20714W        W93139   1.382  11.214   0.218
20715W        W93140  12.379   2.199   0.431
20716W        W93141   2.877  40.315   1.856
20717W        W93142  22.716  20.691  12.126
20718W        W93143   5.420   9.443   1.742
20719W        W93144  25.960  18.876  12.390
20720W        W93145  15.050  13.806  14.969
20721W        W93146  40.204  12.232  14.522
20722W        W93147   4.188  27.194  12.470
20723W        W93148   1.821  27.010   4.557
20724W        W93149  26.523  33.469   3.273
20725W        W93150  18.619  20.037   1.511
20726W        W93151  15.424  30.510  14.775
20727W        W93152  23.225  16.597   3.737
20728W        W93153  34.349  41.994  12.003
20729W        W93154  15.419  21.150   3.224
20730W        W93155  20.220   4.642  11.914
20731W        W93156  32.084  30.007   3.314
20732W        W93157  19.201  43.469   4.837
20733W        W93158  42.509  19.335   4.025
20734W        W93159   6.683  19.012  10.828
20735W        W93160   5.702  11.916  13.421
20736W        W93161  36.862  42.086   2.016
20737W        W93162  35.908   0.847   3.327
20738W        W93163   8.827   9.699  14.601
20739W        W93164  11.686  27.863  10.691
20740W        W93165  34.604  11.206   0.312
20741W        W93166  39.648  15.041   0.929
20742W        W93167  41.365   0.701  10.678
20743W        W93168  13.139  29.344   4.826
20744W        W93169  35.377  24.661   1.674
20745W        W93170  16.693  19.469  12.464
20746W        W93171  32.749  11.828   3.591
20747W        W93172  41.040  41.077  13.495
20748W        W93173  36.629  41.599   2.295
20749W        W93174  25.435   7.915   1.904
20750W        W93175   3.452  35.101  10.602
20751W        W93176   0.302  27.162  12.917
20752W        W93177   6.518  39.696   0.636
20753W        W93178  42.757  16.018   0.820
20754W        W93179  10.925  42.915   4.186
20755W        W93180   8.765  16.239  11.196
20756W        W93181  15.025  24.053   3.857
20757W        W93182  13.395  39.115  14.765
20758W        W93183  10.781  34.063  12.533
20759W        W93184   0.455  28.682   0.913
20760W        W93185  14.488  28.005   0.337
20761W        W93186  14.261   6.128   1.925
20762W        W93187  34.091  27.623  13.085
20763W        W93188  20.229   7.350   0.870
20764W        W93189  17.032  12.677  13.415
20765W        W93190  33.087  20.633  10.804
20766W        W93191   6.159  22.968  12.615
20767W        W93192  33.609  25.477   1.348
20768W        W93193  42.296  27.110   0.882
20769W        W93194  13.119  43.074  14.960
20770W        W93195  32.011  39.102  12.111
20771W        W93196  42.268   9.890  13.013
20772W        W93197  28.084  17.183  13.959
20773W        W93198  38.873  22.726  14.484
20774W        W93199  32.563  15.788   0.719
20775W        W93200  10.122  32.075   1.210
20776W        W93201  24.397   4.115   2.769
20777W        W93202   2.762  32.020   2.198
20778W        W93203   8.670  23.683   3.035
20779W        W93204   0.375  33.864  13.432
20780W        W93205  23.336  15.598  12.930
20781W        W93206  37.399   9.618  11.708
20782W        W93207  35.847  34.960  10.812
20783W        W93208  27.707  38.080   3.556
20784W        W93209  32.855  20.150  11.539
20785W        W93210  21.137  23.315   2.284
20786W        W93211  32.933  27.710  13.868
20787W        W93212  13.619  17.292  14.480
20788W        W93213  12.304  11.789  14.438
20789W        W93214  38.864   4.883  13.543
20790W        W93215  41.645  44.505  13.884
20791W        W93216  16.327  34.539  11.426
20792W        W93217  36.385  16.981   5.171
20793W        W93218  17.362  36.637   1.264
20794W        W93219  40.317  17.786   3.275
20795W        W93220  17.497  44.268  10.733
20796W        W93221  42.999  23.737  14.629
20797W        W93222  37.718  20.080  11.999
20798W        W93223  23.684  44.484  14.709
20799W        W93224   4.752  37.491  14.317
20800W        W93225  42.448  44.104  14.965
20801W        W93226  28.630   2.797   0.412
20802W        W93227  37.024  31.315  13.209
20803W        W93228  12.215  30.963  12.108
20804W        W93229   3.626  42.466   2.254
20805W        W93230  32.863   0.558  12.929
20806W        W93231  19.492  26.465   0.288
20807W        W93232  10.248  27.461  10.352
20808W        W93233  43.841   7.128   1.749
20809W        W93234  12.676   3.315  10.546
20810W        W93235  40.453  36.015   1.768
20811W        W93236  29.534   7.293  14.935
20812W        W93237   5.985  35.902   4.365
20813W        W93238   5.237  12.806   2.157
20814W        W93239  10.796   7.073  10.984
20815W        W93240  15.747  11.615   2.773
20816W        W93241   2.137  37.921   0.923
20817W        W93242   5.733   3.758  12.148
20818W        W93243  27.212  24.082  10.625
20819W        W93244  14.574  32.994   2.251
20820W        W93245  25.740  35.707  10.084
20821W        W93246  30.554  36.368   5.112
20822W        W93247  16.364  43.759   3.648
20823W        W93248  29.598  17.909   4.255
20824W        W93249  19.351  14.853  13.392
20825W        W93250  37.604   4.967   3.406
20826W        W93251  35.518  44.005   2.320
20827W        W93252  28.224  10.863  11.426
20828W        W93253  42.435  10.251   0.361
20829W        W93254  11.961  18.190  13.387
20830W        W93255   9.970  22.510   2.029
20831W        W93256  35.594  26.788  14.286
20832W        W93257   2.279   0.336  10.770
20833W        W93258  40.323  41.355   1.319
20834W        W93259  19.587  31.128  12.993
20835W        W93260  28.843  20.342  14.965
20836W        W93261   4.824   2.455  12.389
20837W        W93262   2.842  18.814  14.247
20838W        W93263  18.056   1.135  10.740
20839W        W93264   3.502   1.380   3.794
20840W        W93265  31.307  26.099  12.673
20841W        W93266  30.732  26.783   1.808
20842W        W93267   2.163  19.656  13.038
20843W        W93268  21.677  22.599  12.393
20844W        W93269  16.549  26.000  11.954
20845W        W93270  26.597   9.947   0.911
20846W        W93271  22.203  13.095   0.631
20847W        W93272   2.319  16.709  14.598
20848W        W93273  20.819  44.443   2.863
20849W        W93274  17.025   2.520  12.040
20850W        W93275  29.947  13.752  13.305
20851W        W93276  44.428  43.815  11.043
20852W        W93277  20.571  11.915   4.978
20853W        W93278  14.730  32.182  13.090
20854W        W93279  14.753  31.341  10.713
20855W        W93280  10.382  27.624   2.672
20856W        W93281   7.697  21.068   4.981
20857W        W93282  25.152  36.968   3.644
20858W        W93283  36.096   3.600  10.992
20859W        W93284  43.720  14.203   4.055
20860W        W93285  29.610  10.174  14.857
20861W        W93286  18.335  27.630  14.304
20862W        W93287  35.602  20.724   2.716
20863W        W93288  26.883  16.905   4.918
20864W        W93289  34.244  17.382   0.746
20865W        W93290  21.118  29.612   1.787
20866W        W93291  10.274  33.436  11.175
20867W        W93292  44.285  22.818  11.278
20868W        W93293  31.090  41.803   4.557
20869W        W93294  36.341  31.772  12.501
20870W        W93295  20.791  13.842  11.625
20871W        W93296  17.009  10.359   0.055
20872W        W93297  11.906  25.522  11.702
20873W        W93298  21.604  22.508  12.917
20874W        W93299  24.236  30.052   3.373
20875W        W93300  38.580  42.258   3.270
20876W        W93301  33.590  26.653  12.978
20877W        W93302   7.210  11.565   0.752
20878W        W93303  24.625  27.863  12.471
20879W        W93304   4.295  17.040  11.235
20880W        W93305   4.962  15.076  11.310
20881W        W93306  29.952  26.990   0.115
20882W        W93307   6.973  29.979   0.950
20883W        W93308  43.751   2.731   0.908
20884W        W93309  22.990  11.851  10.126
20885W        W93310  40.302   2.175  13.869
20886W        W93311   0.976   6.994  11.218
20887W        W93312  26.654  18.868  14.973
20888W        W93313  35.662  15.735   4.161
20889W        W93314  11.343  18.715  11.216
20890W        W93315   4.364   3.802  14.528
20891W        W93316   2.432  20.678  11.930
20892W        W93317  10.227   5.618   0.859
20893W        W93318  26.412  31.635  13.455
20894W        W93319  19.038  32.945  14.994
20895W        W93320  10.918   1.308   1.451
20896W        W93321   0.745   2.657   4.626
20897W        W93322  17.011   3.062  12.097
20898W        W93323  29.651  34.135  13.405
20899W        W93324   7.156  21.212   5.104
20900W        W93325  32.585  42.489  11.263
20901W        W93326   2.347  27.318  13.837
20902W        W93327  35.853  44.327   3.169
20903W        W93328  35.523  10.765  13.526
20904W        W93329  16.337  26.747   0.573
20905W        W93330  12.676  10.414  13.059
20906W        W93331  24.748  27.398  13.369
20907W        W93332  44.203  30.703  12.573
20908W        W93333  17.562  42.517  12.579
20909W        W93334  14.218  23.986  14.830
20910W        W93335  26.247  27.975  13.222
20911W        W93336  14.736   6.593  12.090
20912W        W93337  39.044  23.810   1.864
20913W        W93338   1.173  40.886  14.951
20914W        W93339  44.933  18.703   3.980
20915W        W93340   1.309  41.515  13.746
20916W        W93341  14.810  26.622   3.124
20917W        W93342  35.588  31.568  14.268
20918W        W93343  10.385   1.890   3.572
20919W        W93344  25.765  30.487  12.785
20920W        W93345  19.509   1.830  12.641
20921W        W93346  44.978  14.068  12.392
20922W        W93347  40.398  16.270   3.135
20923W        W93348  17.740  17.752   2.692
20924W        W93349  42.529  32.895   0.276
20925W        W93350  17.294  40.968  13.078
20926W        W93351  43.353   1.382  13.447
20927W        W93352   5.778   1.925  13.807
20928W        W93353  34.599  40.046  14.606
20929W        W93354  27.444  25.484  13.442
20930W        W93355  20.540  14.238  11.913
20931W        W93356  18.556   2.370   2.929
20932W        W93357   9.291   2.038   2.980
20933W        W93358  41.145  20.487  12.429
20934W        W93359  33.967  41.694   4.850
20935W        W93360  29.065   2.734   4.055
20936W        W93361  24.605  42.499  10.564
20937W        W93362  38.972   1.523   0.246
20938W        W93363  44.466  27.197   4.330
20939W        W93364  31.854  16.532  12.136
20940W        W93365  42.555  18.942  14.249
20941W        W93366  29.427  18.047   0.391
20942W        W93367   4.936  17.078  14.956
20943W        W93368  30.689  34.772  13.092
20944W        W93369  21.994  24.072   3.261
20945W        W93370  39.612  39.561  12.081
20946W        W93371  15.469  29.711  12.917
20947W        W93372  39.586  34.411   3.723
20948W        W93373   4.403  32.568  12.944
20949W        W93374   1.272  43.674  11.995
20950W        W93375  36.044   5.732   4.184
20951W        W93376  21.219  17.459   0.977
20952W        W93377  13.103  40.071   3.494
20953W        W93378  29.730  15.378  13.896
20954W        W93379  43.888   7.373   2.944
20955W        W93380  41.731  33.436   4.683
20956W        W93381  14.129  29.476  13.905
20957W        W93382  40.922  43.598   0.495
20958W        W93383  18.688   2.251  13.854
20959W        W93384   6.269  20.482   2.408
20960W        W93385  18.999   2.019   1.903
20961W        W93386  43.373  33.210  12.547
20962W        W93387  15.027   6.534  14.741
20963W        W93388  36.505  20.757  13.361
20964W        W93389  13.101   8.131  11.147
20965W        W93390  36.915   4.646   1.459
20966W        W93391   7.077   3.708   1.163
20967W        W93392  41.810  34.848  13.149
20968W        W93393   1.039  15.766  13.566
20969W        W93394  14.841   4.030   2.390
20970W        W93395  20.521   5.810   2.385
20971W        W93396  39.423  28.999   0.374
20972W        W93397  13.028   2.256  14.210
20973W        W93398   0.807   9.284  14.473
20974W        W93399   4.953  33.748  14.174
20975W        W93400   3.275   2.734   2.245
20976W        W93401  30.379  36.104   1.219
20977W        W93402  29.668  40.988  14.806
20978W        W93403  38.039   2.263   2.706
20979W        W93404   2.467   8.650   4.541
20980W        W93405  16.544  29.057   3.193
20981W        W93406  10.393  29.118   4.716
20982W        W93407  37.432  23.927  11.933
20983W        W93408  12.710  41.750   4.249
20984W        W93409  36.439  19.118   3.176
20985W        W93410  34.961  27.752  14.947
20986W        W93411  18.046  14.618   0.928
20987W        W93412   0.460  22.565   0.990
20988W        W93413  10.377  18.550   0.283
20989W        W93414  34.439  16.582   2.179
20990W        W93415  30.161  16.431   1.148
20991W        W93416   2.873  24.057   2.871
20992W        W93417  10.410  10.772   4.716
20993W        W93418  38.431  17.049  13.489
20994W        W93419   8.309   6.190  11.643
20995W        W93420  21.675   1.753   2.272
20996W        W93421  39.958  17.661   0.660
20997W        W93422  15.785   1.823   0.715
20998W        W93423  11.136  25.101   3.299
20999W        W93424  16.052  23.252  12.587
21000W        W93425  13.396   5.444  10.501
21001W        W93426  38.838  11.175   0.740
21002W        W93427  14.808   0.852   1.810
21003W        W93428  40.506  32.058  14.353
21004W        W93429  18.224   7.236  10.638
21005W        W93430  21.539   2.459   0.361
21006W        W93431   3.436   0.930  12.424
21007W        W93432  17.217  32.967  12.393
21008W        W93433  19.340  11.523  12.891
21009W        W93434  17.767  28.970   1.237
21010W        W93435   8.386  30.709   3.353
21011W        W93436  32.369  12.236   0.293
21012W        W93437  23.741  34.037  12.470
21013W        W93438  10.187  24.021   4.387
21014W        W93439   9.631  42.115   1.461
21015W        W93440  22.921  42.073   2.815
21016W        W93441  32.315  35.305  13.105
21017W        W93442  10.282  40.850   4.583
21018W        W93443  27.394   9.675   4.571
21019W        W93444  41.008   3.324  11.459
21020W        W93445  15.319   4.823  13.940
21021W        W93446  13.122   2.457  14.676
21022W        W93447   9.217  23.571  10.559
21023W        W93448   4.219   9.752  12.591
21024W        W93449  22.466  35.802   5.512
21025W        W93450  25.191  36.529  12.050
21026W        W93451  38.286  11.256  14.045
21027W        W93452   6.103  10.167  14.741
21028W        W93453   2.401  42.491   2.762
21029W        W93454  34.933  34.604  14.874
21030W        W93455  26.396  20.719  13.455
21031W        W93456  35.661  35.269   4.046
21032W        W93457  33.167  31.485  14.117
21033W        W93458  25.143  43.775   1.000
21034W        W93459  44.247  28.998  13.879
21035W        W93460  14.984  17.808   0.754
21036W        W93461   4.123  31.494   0.298
21037W        W93462  15.777   6.912  11.432
21038W        W93463  40.421   5.929  12.980
21039W        W93464  36.474  21.834   0.816
21040W        W93465  41.966  29.424   0.897
21041W        W93466  17.832  44.352  12.490
21042W        W93467   8.132  43.131  10.384
21043W        W93468  35.074  30.482   2.426
21044W        W93469   6.183  14.611  12.408
21045W        W93470  27.969  42.775  10.149
21046W        W93471  19.350  26.564   0.804
21047W        W93472  27.764  35.103   2.159
21048W        W93473  41.332  24.990  14.417
21049W        W93474  39.278  38.627   1.690
21050W        W93475  41.151  31.633  10.763
21051W        W93476  28.082   5.173  13.082
21052W        W93477  35.374  22.635  13.458
21053W        W93478  12.231  14.034   1.293
21054W        W93479  28.089  29.563  11.530
21055W        W93480  29.336  43.456   4.242
21056W        W93481  42.259  39.684   2.211
21057W        W93482  27.404  10.240  10.450
21058W        W93483  26.441  22.155   1.585
21059W        W93484  16.044  10.921  13.693
21060W        W93485  38.018   8.163  11.131
21061W        W93486  23.904  15.665  12.481
21062W        W93487  32.614  35.915   2.764
21063W        W93488  34.526  38.122   1.311
21064W        W93489  36.439  33.450   2.951
21065W        W93490  17.210   1.751  14.632
21066W        W93491  31.532  42.190  13.642
21067W        W93492  41.019  44.526   2.817
21068W        W93493   7.219   7.637   1.200
21069W        W93494  14.072  28.539  11.090
21070W        W93495  20.049  16.125   0.050
21071W        W93496   9.461  38.857  12.902
21072W        W93497  30.150  30.335  13.042
21073W        W93498   9.340  12.603   1.188
21074W        W93499   0.944  44.981  10.728
21075W        W93500  21.143  39.484  13.504
21076W        W93501   5.870  18.505  10.423
21077W        W93502   9.324  32.370   2.830
21078W        W93503  42.089  30.745   1.653
21079W        W93504  17.889   7.201   0.985
21080W        W93505   8.809  29.681   2.978
21081W        W93506  44.836  27.951   2.291
21082W        W93507  41.640  21.606  13.275
21083W        W93508   6.811   9.731   4.599
21084W        W93509  27.628   3.510   2.941
21085W        W93510  39.146  10.631   4.566
21086W        W93511   5.803   0.550  14.817
21087W        W93512  24.650  30.376  13.976
21088W        W93513   5.140  22.845   3.166
21089W        W93514   8.307   1.029  11.735
21090W        W93515  31.638   5.838  12.183
21091W        W93516  15.790  25.549  14.808
21092W        W93517  42.793  15.595   2.876
21093W        W93518   0.984  19.773  11.121
21094W        W93519  25.216   6.864  13.023
21095W        W93520  37.172  43.459   3.716
21096W        W93521   6.225   5.447   0.774
21097W        W93522  20.279  17.186   5.012
21098W        W93523  19.391  37.437   3.055
21099W        W93524  14.803   5.011  14.928
21100W        W93525  32.477   6.985  10.571
21101W        W93526  31.410  13.176   3.226
21102W        W93527  42.346  40.187   2.352
21103W        W93528  27.777  39.011   2.239
21104W        W93529  36.282  14.271  13.504
21105W        W93530  25.401  22.986  14.723
21106W        W93531  31.068  39.109   3.221
21107W        W93532  37.829  41.557   4.711
21108W        W93533   4.149  42.283  14.398
21109W        W93534  26.621  33.441  11.366
21110W        W93535  30.599  18.664  14.415
21111W        W93536  11.684  11.127   4.500
21112W        W93537  33.666  12.104  14.068
21113W        W93538  26.578   5.133   2.283
21114W        W93539  21.281  42.561   0.476
21115W        W93540  40.412  13.077  11.666
21116W        W93541   7.483  31.696   4.580
21117W        W93542   4.050   7.420   3.059
21118W        W93543  23.981  19.406   5.021
21119W        W93544  36.320   2.318   4.120
21120W        W93545  25.026  25.249  11.529
21121W        W93546  27.635  26.712  12.083
21122W        W93547  30.635  38.940  14.855
21123W        W93548   5.326  25.336  13.896
21124W        W93549  29.341   8.823  11.633
21125W        W93550  24.829   3.407   4.987
21126W        W93551  18.597  34.844   2.370
21127W        W93552  11.407  24.431  10.541
21128W        W93553   6.346  39.293   1.451
21129W        W93554   1.276  17.060   2.746
21130W        W93555  35.101   3.299   1.734
21131W        W93556  43.520  44.789   1.843
21132W        W93557  23.567  14.557   0.637
21133W        W93558  20.186  38.595   4.389
21134W        W93559  36.454  41.355  14.229
21135W        W93560  19.467  15.734   4.544
21136W        W93561  14.599  35.382  10.705
21137W        W93562  18.251  43.343   4.278
21138W        W93563  38.483  10.477  11.551
21139W        W93564  21.482  28.524   0.433
21140W        W93565  39.083   4.072  12.937
21141W        W93566  25.576  16.352   0.349
21142W        W93567  18.333  18.314  12.397
21143W        W93568  14.663   0.461  13.459
21144W        W93569  29.090  32.841  11.553
21145W        W93570  15.207  41.586   4.033
21146W        W93571  20.562  36.405  10.407
21147W        W93572  24.955   1.730   2.694
21148W        W93573  34.970   8.752   1.261
21149W        W93574  28.386  10.596   0.250
21150W        W93575  20.944  28.103  12.076
21151W        W93576   6.371  17.685   2.704
21152W        W93577  18.731  29.941  10.632
21153W        W93578  21.266  29.145   3.229
21154W        W93579  11.090  34.745   3.677
21155W        W93580  23.743  32.023   0.543
21156W        W93581  15.673  34.170   3.747
21157W        W93582  34.398  38.304  14.376
21158W        W93583   6.057  37.882  10.798
21159W        W93584  33.436  19.735   4.100
21160W        W93585  35.323   2.183  12.092
21161W        W93586  40.484   7.202  11.661
21162W        W93587   7.867  37.596   0.753
21163W        W93588  18.610  18.255   4.555
21164W        W93589  23.801  29.746  14.744
21165W        W93590  39.611  21.451   2.738
21166W        W93591   5.754  34.596   2.397
21167W        W93592  19.137  26.870   4.115
21168W        W93593  34.155   6.969  10.719
21169W        W93594   4.508   8.173   0.707
21170W        W93595  42.867  35.033  11.335
21171W        W93596  42.990  39.051   0.214
21172W        W93597  12.034  24.651   0.355
21173W        W93598  21.458  24.133  11.338
21174W        W93599  17.464  32.824  11.964
21175W        W93600   7.563  22.605  14.920
21176W        W93601  11.390  14.208  10.549
21177W        W93602  42.427   0.715   4.901
21178W        W93603   1.686  25.625   1.755
21179W        W93604   7.927  13.056  13.495
21180W        W93605  17.787  41.440  14.364
21181W        W93606  13.550  40.485  13.972
21182W        W93607  10.685   3.812  11.637
21183W        W93608  23.526  28.607   2.217
21184W        W93609  23.956  25.753  10.782
21185W        W93610  42.999  22.576   4.621
21186W        W93611   6.229  43.530   0.263
21187W        W93612  34.129  27.439   4.090
21188W        W93613  23.090  28.595   4.845
21189W        W93614  41.814  32.960   4.463
21190W        W93615  20.640  27.169  11.320
21191W        W93616   0.773  14.864  10.683
21192W        W93617  34.551  26.864  13.276
21193W        W93618  21.231  15.700   1.445
21194W        W93619  43.808  24.597   4.608
21195W        W93620  22.956  24.762  14.410
21196W        W93621  21.065  30.911   4.375
21197W        W93622  40.192  11.329   3.161
21198W        W93623  29.668  17.986   2.253
21199W        W93624   5.666  31.413   1.314
21200W        W93625  13.280   9.580  13.101
21201W        W93626  23.235  34.378  13.475
21202W        W93627  39.025  19.717   2.761
21203W        W93628  16.971  39.016   4.141
21204W        W93629  20.935  33.661  10.354
21205W        W93630  23.102   0.791   0.383
21206W        W93631  20.190  38.584  14.285
21207W        W93632  26.211  15.329   1.790
21208W        W93633  41.425   1.457   1.940
21209W        W93634  10.241  33.556  14.199
21210W        W93635  18.874  33.792   4.571
21211W        W93636  13.759   0.766   3.604
21212W        W93637  26.463  23.530  12.625
21213W        W93638  19.804  41.939  11.556
21214W        W93639  18.045  30.365  14.344
21215W        W93640  18.661  28.058   1.305
21216W        W93641  17.267  22.618  14.961
21217W        W93642   1.231  23.953   2.375
21218W        W93643  41.497  25.686  11.155
21219W        W93644  42.133  22.723   4.185
21220W        W93645  20.474   7.316  12.537
21221W        W93646  29.652   8.148  11.113
21222W        W93647  42.042  20.098  11.605
21223W        W93648  38.267   7.740   5.014
21224W        W93649  19.181  14.652  14.021
21225W        W93650  33.188  39.078   4.411
21226W        W93651   1.757  33.900   2.412
21227W        W93652  28.165  12.022   2.844
21228W        W93653  17.594  41.240  14.842
21229W        W93654  18.494   2.647  11.568
21230W        W93655   9.840   9.286   4.829
21231W        W93656  16.825  24.924  14.500
21232W        W93657   2.674  27.692   3.863
21233W        W93658  24.718  36.272  12.048
21234W        W93659   4.712  22.515   3.402
21235W        W93660  27.598  13.874   4.364
21236W        W93661  10.878  17.824   3.753
21237W        W93662   9.816   2.291   0.356
21238W        W93663  17.268  23.440  12.375
21239W        W93664  36.337  28.177   0.972
21240W        W93665   3.021  10.064  10.973
21241W        W93666  24.562  37.023  12.484
21242W        W93667  30.513   6.141  13.827
21243W        W93668  16.627   2.366   1.325
21244W        W93669  29.706  36.453  10.687
21245W        W93670   7.319  14.580  13.870
21246W        W93671  42.593  36.636  10.720
21247W        W93672  38.383  35.220   2.452
21248W        W93673  32.377  12.857  12.894
21249W        W93674  22.130  24.769  12.342
21250W        W93675  29.525  39.945  12.017
21251W        W93676  22.677  42.826  14.922
21252W        W93677  32.748  16.354  12.118
21253W        W93678  37.986  38.070   2.751
21254W        W93679   4.012  28.845  11.036
21255W        W93680   8.845  28.237   3.619
21256W        W93681  12.377   6.823   0.447
21257W        W93682  18.282  39.478  10.831
21258W        W93683  28.541  30.490   2.572
21259W        W93684  26.069  35.814  11.239
21260W        W93685  40.839   6.558  13.550
21261W        W93686  38.735   7.393  13.993
21262W        W93687  24.724  40.434   2.810
21263W        W93688  10.683  42.018   2.232
21264W        W93689  35.905  10.205  10.698
21265W        W93690  29.057  38.059   0.561
21266W        W93691   6.193  43.289  11.675
21267W        W93692   5.852  28.940  13.995
21268W        W93693   5.074  13.020   1.293
21269W        W93694   1.757   6.852   1.861
21270W        W93695  41.463   3.494  12.220
21271W        W93696  37.366  20.018   4.525
21272W        W93697  10.788  43.617   3.735
21273W        W93698  31.751  41.715  13.746
21274W        W93699  33.018  34.894   1.719
21275W        W93700   5.193  30.256  11.148
21276W        W93701  40.749  27.099  12.060
21277W        W93702  27.045  15.698   1.708
21278W        W93703  42.378  12.179   2.240
21279W        W93704  22.746  34.851   3.687
21280W        W93705  44.306  42.961   4.574
21281W        W93706  21.016  39.738   0.753
21282W        W93707  31.337  24.208   0.245
21283W        W93708  31.244  43.075   0.035
21284W        W93709  13.165  43.771   0.373
21285W        W93710  19.359  11.804   2.262
21286W        W93711  22.710   6.979  12.488
21287W        W93712   6.527  41.805   3.368
21288W        W93713  19.196  17.752  13.477
21289W        W93714   1.254  26.466   2.146
21290W        W93715  26.524  38.711   2.750
21291W        W93716  24.228  11.226   5.103
21292W        W93717  28.372  29.744  14.289
21293W        W93718  35.078  32.924   2.135
21294W        W93719  16.799  14.595   1.362
21295W        W93720  30.932  24.185  11.199
21296W        W93721  35.013   5.413  11.549
21297W        W93722  15.886  30.456   4.711
21298W        W93723  17.667  44.725   2.618
21299W        W93724   7.983  16.246   4.020
21300W        W93725  10.153  27.038   3.366
21301W        W93726  19.561  16.251   0.007
21302W        W93727  33.429  42.774  13.003
21303W        W93728  28.061  31.567  11.477
21304W        W93729  18.781  41.406  13.087
21305W        W93730  44.743  35.401  14.012
21306W        W93731  12.795  15.190   4.872
21307W        W93732  18.610   5.139  12.513
21308W        W93733  42.852  24.778   1.742
21309W        W93734  41.807  26.416  14.980
21310W        W93735  17.978   7.230  11.116
21311W        W93736  36.453  12.354   4.278
21312W        W93737  25.760  20.512   3.225
21313W        W93738  17.310  37.499  13.943
21314W        W93739  36.988  27.705  10.778
21315W        W93740  21.674  36.903   4.618
21316W        W93741   5.809  13.989   3.465
21317W        W93742  40.003  19.113   4.230
21318W        W93743   1.024  32.616   0.431
21319W        W93744  44.254  25.102  14.687
21320W        W93745  34.556   0.232   1.842
21321W        W93746  24.167  44.889   3.096
21322W        W93747  15.348  24.650   1.003
21323W        W93748  26.687   2.658  12.442
21324W        W93749  32.446  13.901   4.643
21325W        W93750  20.163  38.013  11.039
21326W        W93751  23.225   0.054   2.829
21327W        W93752   5.457  25.022  13.485
21328W        W93753  42.342   0.785   2.866
21329W        W93754  15.005  43.241   1.350
21330W        W93755  18.099   4.885  13.380
21331W        W93756  30.352  22.996   3.471
21332W        W93757   9.464  23.105  12.155
21333W        W93758  37.962  24.687   1.857
21334W        W93759  27.066  12.182  13.931
21335W        W93760  32.213  34.139  12.576
21336W        W93761  29.601  41.972  10.733
21337W        W93762  14.407  16.545  11.063
21338W        W93763  18.131  21.652  12.342
21339W        W93764  15.618   0.836  12.925
21340W        W93765  33.826  40.360   1.604
21341W        W93766   3.419   6.249  11.433
21342W        W93767  29.404  32.139  11.152
21343W        W93768  44.951  17.150  10.867
21344W        W93769   5.409  24.505  13.554
21345W        W93770  15.992  39.013  13.940
21346W        W93771  32.554  15.652   1.709
21347W        W93772  20.628  38.552   1.387
21348W        W93773   4.905  26.206   2.404
21349W        W93774  17.239  42.597   2.650
21350W        W93775  34.029  25.506   4.363
21351W        W93776  10.365  19.716   3.192
21352W        W93777   2.287  22.136  13.492
21353W        W93778  27.485  29.721   1.312
21354W        W93779   2.048  20.653  14.053
21355W        W93780  24.610   8.943  14.374
21356W        W93781  40.090   6.349  13.793
21357W        W93782  35.363  29.545  14.502
21358W        W93783  11.210  44.109  13.449
21359W        W93784  42.453  16.425   3.589
21360W        W93785  38.012  21.674  14.884
21361W        W93786  16.583  22.704  11.789
21362W        W93787  40.039  20.100  13.602
21363W        W93788  10.715  43.977   0.481
21364W        W93789  26.966  24.117  11.965
21365W        W93790  28.534  24.432   4.339
21366W        W93791  37.513  32.222  13.908
21367W        W93792  22.448  39.065   3.384
21368W        W93793  23.711  10.050  13.117
21369W        W93794   3.703  20.565  14.383
21370W        W93795  26.541  16.177   2.714
21371W        W93796  29.566   6.766   1.704
21372W        W93797  19.387  22.532  13.475
21373W        W93798  17.644   1.965   1.801
21374W        W93799  43.878  44.026  14.933
21375W        W93800  30.189  23.768  11.640
21376W        W93801   3.541  29.012   3.566
21377W        W93802   1.551  10.836  14.376
21378W        W93803  24.276  29.014   1.933
21379W        W93804  38.786  25.935   4.700
21380W        W93805   5.401   7.094   4.210
21381W        W93806  19.280  37.351   0.388
21382W        W93807   9.904  15.553  12.130
21383W        W93808  42.315  44.962  14.815
21384W        W93809  26.581  42.814   0.552
21385W        W93810  27.213  37.921   2.719
21386W        W93811  12.567  30.425  12.914
21387W        W93812  23.519  42.726   4.544
21388W        W93813  20.173  35.316   0.080
21389W        W93814  24.985   6.934   0.689
21390W        W93815  16.845  27.248  11.411
21391W        W93816  37.782  40.042  11.949
21392W        W93817  33.572  44.135   2.891
21393W        W93818   5.874   4.681  14.898
21394W        W93819   1.428   7.478  11.808
21395W        W93820  24.609  41.192  13.861
21396W        W93821  15.800  31.542  10.278
21397W        W93822   2.865  10.443  13.939
21398W        W93823  29.915  43.727   1.759
21399W        W93824  39.862  36.609   3.717
21400W        W93825   6.558  34.184   4.409
21401W        W93826  10.209   8.113   0.835
21402W        W93827  39.881  27.674  14.992
21403W        W93828   8.416  39.615  10.989
21404W        W93829  19.803  23.531   4.185
21405W        W93830  31.441  11.387   3.616
21406W        W93831  44.044  44.500  11.503
21407W        W93832   8.706  39.128   0.793
21408W        W93833  10.761  20.017   4.951
21409W        W93834   6.754  31.347  10.530
21410W        W93835   5.747  22.248   0.291
21411W        W93836  19.726  22.128   3.800
21412W        W93837  13.236  40.551  14.943
21413W        W93838   3.322   6.820  11.218
21414W        W93839  23.423  34.559   3.356
21415W        W93840   7.447   9.659  11.221
21416W        W93841  26.383  14.215  11.685
21417W        W93842  11.789  15.927  13.407
21418W        W93843  39.928  14.786  13.846
21419W        W93844  33.842  12.059  11.827
21420W        W93845  32.377  30.730  12.408
21421W        W93846  32.409  16.811   0.776
21422W        W93847  12.913   0.419   0.293
21423W        W93848  12.123  29.861  13.949
21424W        W93849  12.762   4.683  12.816
21425W        W93850   1.843  20.083  11.514
21426W        W93851   8.432  35.385   0.871
21427W        W93852  16.853  43.075   3.734
21428W        W93853  26.949   6.806   0.021
21429W        W93854  11.794   2.915   0.775
21430W        W93855   8.481  12.375   0.039
21431W        W93856  36.020  14.051  13.968
21432W        W93857  13.357  12.839   4.523
21433W        W93858  23.938  16.884  14.092
21434W        W93859  36.606  28.004  12.560
21435W        W93860  36.426  27.855   0.382
21436W        W93861  37.535   7.666  10.444
21437W        W93862  44.053   2.913  12.524
21438W        W93863   5.388   3.890   3.443
21439W        W93864  38.773  20.721   2.694
21440W        W93865  27.721   7.858   1.310
21441W        W93866  18.882  28.847   4.309
21442W        W93867   9.655  19.450  11.458
21443W        W93868  35.598  11.539   1.422
21444W        W93869  10.662   5.380  14.258
21445W        W93870   1.904   1.255  12.203
21446W        W93871  21.980   8.165   0.755
21447W        W93872  32.563  33.171  12.012
21448W        W93873  19.265  19.715  10.512
21449W        W93874  31.731  20.184  12.971
21450W        W93875  26.790  39.181   0.016
21451W        W93876  13.676  24.187   3.972
21452W        W93877  42.096   6.395  12.396
21453W        W93878  10.636   9.166   1.294
21454W        W93879   7.186  43.821  13.368
21455W        W93880  39.794  19.716  13.363
21456W        W93881  27.010  19.367   0.415
21457W        W93882  13.918  11.700  12.117
21458W        W93883   8.827  12.138  13.807
21459W        W93884  13.185  16.305  14.594
21460W        W93885  23.183  29.198  11.188
21461W        W93886  32.053  29.867  13.881
21462W        W93887  23.058   2.909  13.797
21463W        W93888  16.093  28.128  10.536
21464W        W93889  26.723  25.951  14.505
21465W        W93890   1.568  43.448  11.637
21466W        W93891  20.125   6.626   2.660
21467W        W93892   6.590  28.523   2.709
21468W        W93893  29.895  29.872  12.914
21469W        W93894  31.204  43.276  12.010
21470W        W93895  26.629   8.708   2.815
21471W        W93896  33.898  41.985   2.404
21472W        W93897   9.856  29.984   0.580
21473W        W93898   2.409  21.550  14.413
21474W        W93899  26.703  30.772  11.191
21475W        W93900  44.232  38.510   4.375
21476W        W93901   8.316  27.345   1.756
21477W        W93902  33.431  38.638   4.570
21478W        W93903  40.025   0.450  13.989
21479W        W93904  31.052  15.446   5.074
21480W        W93905   8.336  32.623   2.733
21481W        W93906  18.062  25.222  11.097
21482W        W93907  26.146   4.841   2.246
21483W        W93908   7.405   0.142  13.919
21484W        W93909  21.368  12.717  10.057
21485W        W93910   2.480  41.177   2.519
21486W        W93911   1.455   2.320  11.463
21487W        W93912  15.859   4.438   0.352
21488W        W93913  10.207   2.067  11.056
21489W        W93914  28.429  39.022   4.980
21490W        W93915   1.872   4.957   2.662
21491W        W93916   7.944  29.992  12.691
21492W        W93917  18.223  34.518   0.806
21493W        W93918  21.945   0.752   3.105
21494W        W93919  20.031  16.547   1.767
21495W        W93920  43.971   0.010   0.250
21496W        W93921   1.268  17.587  12.585
21497W        W93922   5.936  30.449   2.090
21498W        W93923  32.925  15.040   2.672
21499W        W93924  24.064  25.693   3.690
21500W        W93925  19.711  41.286   1.453
21501W        W93926  29.506  19.112  11.536
21502W        W93927  39.493  38.540  13.894
21503W        W93928  26.619  16.648   1.582
21504W        W93929  31.443  24.558  12.816
21505W        W93930  32.720  13.073   0.766
21506W        W93931  35.193  18.779  11.465
21507W        W93932  39.828  15.206  12.039
21508W        W93933   5.605  39.497   4.156
21509W        W93934  14.802   9.090   2.478
21510W        W93935   7.498  42.520  14.989
21511W        W93936  26.681  35.802  13.692
21512W        W93937  28.675  28.596  12.958
21513W        W93938   5.777  20.315   4.594
21514W        W93939   0.060  33.812  12.347
21515W        W93940  17.731  18.683   2.921
21516W        W93941  34.856  28.727   0.934
21517W        W93942   1.324  34.151  14.263
21518W        W93943   5.748  40.949  13.470
21519W        W93944  33.657  23.664  13.291
21520W        W93945   6.809   4.408  13.492
21521W        W93946   2.818  15.735  12.855
21522W        W93947   5.202  32.596  11.519
21523W        W93948  43.208   1.835  13.956
21524W        W93949  38.063  44.104   0.030
21525W        W93950  16.775  21.591  12.460
21526W        W93951  37.002  31.486  11.399
21527W        W93952   6.841  38.966   2.467
21528W        W93953   6.894   7.791  11.329
21529W        W93954  17.121  43.916   4.579
21530W        W93955  17.066   0.879  11.446
21531W        W93956  27.677  13.683   3.888
21532W        W93957  30.884  28.448  12.185
21533W        W93958  33.864  13.609  12.606
21534W        W93959  41.924  42.300   1.931
21535W        W93960  28.002  43.323   1.440
21536W        W93961  42.064  11.206  12.209
21537W        W93962  39.779   7.770  11.450
21538W        W93963  19.484  29.117   2.807
21539W        W93964  27.443   4.249  14.316
21540W        W93965  35.368  38.762  13.487
21541W        W93966   0.997  29.127  14.531
21542W        W93967   1.371  17.130   0.450
21543W        W93968  21.383  32.267   2.816
21544W        W93969   5.144  26.447   0.519
21545W        W93970  10.383  17.724   3.890
21546W        W93971  35.978  38.277   2.245
21547W        W93972   6.655  13.817   0.875
21548W        W93973   4.057   4.791   1.295
21549W        W93974  26.067  20.670  11.103
21550W        W93975  37.159  29.526  12.396
21551W        W93976  34.904  25.001   2.886
21552W        W93977   0.721  23.970  10.381
21553W        W93978  28.478  15.378  12.968
21554W        W93979   5.937   9.833  13.758
21555W        W93980  14.258  11.101  13.305
21556W        W93981   7.211  42.284   3.141
21557W        W93982  19.644  32.596  10.413
21558W        W93983  38.007  40.204  10.690
21559W        W93984   4.275  30.952   3.686
21560W        W93985  42.385   9.288   2.304
21561W        W93986  32.874  32.339   4.006
21562W        W93987   0.766  37.722  10.008
21563W        W93988  41.336  22.652  14.541
21564W        W93989   1.146  38.013   1.745
21565W        W93990  19.196   3.867   2.747
21566W        W93991   6.970   6.917   0.551
21567W        W93992   8.151  29.650   2.223
21568W        W93993   8.694  33.397  14.872
21569W        W93994  44.518   5.843   4.523
21570W        W93995  24.177  31.761   5.423
21571W        W93996  35.443   0.305   1.765
21572W        W93997   4.789  15.878  11.539
21573W        W93998  11.406  16.135   3.752
21574W        W93999  23.506   5.185  10.627
21575W        W94000  11.684   1.615   1.208
21576W        W94001   4.630  38.266  11.559
21577W        W94002  17.083  39.786  12.413
21578W        W94003  36.026  13.186   4.465
21579W        W94004   1.552  10.850  10.348
21580W        W94005  42.900  11.375   9.955
21581W        W94006  13.105  29.998   0.753
21582W        W94007  35.143  12.154  13.258
21583W        W94008   2.394  14.501  14.534
21584W        W94009  29.646  27.808  10.545
21585W        W94010   5.960  16.321   4.123
21586W        W94011  17.033  31.878  14.855
21587W        W94012   8.893  14.469  14.749
21588W        W94013  13.079  28.841  11.969
21589W        W94014  31.591  22.086  12.602
21590W        W94015  12.353  29.492  14.463
21591W        W94016   6.433  43.801   2.481
21592W        W94017   3.914   8.866  14.136
21593W        W94018  13.388  39.913   1.616
21594W        W94019  44.485  35.931   0.061
21595W        W94020  32.384   9.725  13.864
21596W        W94021  29.716  23.497  11.953
21597W        W94022  35.942   2.725   0.909
21598W        W94023   4.102  14.055  14.167
21599W        W94024  34.194   0.752  12.883
21600W        W94025   3.439  36.861  11.573
21601W        W94026  27.220   3.397   2.621
21602W        W94027  10.917   4.312  12.972
21603W        W94028  12.347   2.896   2.646
21604W        W94029  37.018  21.203  12.964
21605W        W94030   3.781  37.426   4.162
21606W        W94031   1.348  10.198   0.440
21607W        W94032   4.372  23.212   1.487
21608W        W94033   4.180   8.931  12.024
21609W        W94034  34.082  35.954  10.655
21610W        W94035  41.336  44.922  13.977
21611W        W94036  19.029   6.406  10.752
21612W        W94037  22.529  28.119  12.993
21613W        W94038  27.535  33.525   2.351
21614W        W94039  15.868  23.724   3.186
21615W        W94040  34.640  38.983  11.901
21616W        W94041  36.983  43.752  11.595
21617W        W94042   3.845  37.510  11.472
21618W        W94043  34.494  35.575  14.420
21619W        W94044  14.283   0.859  14.272
21620W        W94045  40.110  22.162  11.216
21621W        W94046   2.030  27.445  14.260
21622W        W94047  31.927   7.606   3.882
21623W        W94048   9.182  20.283  14.409
21624W        W94049  11.437  18.618  11.708
21625W        W94050  23.501   7.843   1.524
21626W        W94051  13.827  23.406  11.099
21627W        W94052   9.246  37.227  13.907
21628W        W94053  13.840   3.495   1.798
21629W        W94054  20.756  30.388  13.899
21630W        W94055  25.027  39.297   0.011
21631W        W94056  21.623  20.197   2.272
21632W        W94057  10.340   3.207  11.703
21633W        W94058  29.058   3.639  12.482
21634W        W94059  28.385  41.412  14.964
21635W        W94060  21.146  35.617   2.594
21636W        W94061   3.773  33.814   0.755
21637W        W94062   5.452   1.775   0.361
21638W        W94063  11.727  43.007  14.047
21639W        W94064  17.531  30.178   4.179
21640W        W94065  15.122  24.291  13.852
21641W        W94066   6.733  10.003  10.699
21642W        W94067  14.558  32.266   2.806
21643W        W94068   0.085  11.571  14.826
21644W        W94069  25.280   4.689  13.954
21645W        W94070   7.658  26.008   4.596
21646W        W94071  35.030  22.085   1.797
21647W        W94072   9.904  19.485   0.671
21648W        W94073  33.475  15.760   4.066
21649W        W94074   3.170  11.261  13.539
21650W        W94075  29.266  27.081   1.116
21651W        W94076  40.578  26.158   4.246
21652W        W94077   0.719   3.381  12.944
21653W        W94078   1.007  12.629  14.406
21654W        W94079  28.960   9.826  12.499
21655W        W94080  20.777  43.986  10.681
21656W        W94081  43.101  25.112  14.446
21657W        W94082   6.998  21.139   0.847
21658W        W94083   6.844   1.729   4.715
21659W        W94084  43.873  23.574  14.033
21660W        W94085  33.890  22.166   2.786
21661W        W94086   3.881  21.093   3.255
21662W        W94087   1.722   9.866   0.342
21663W        W94088  20.672   5.694  13.612
21664W        W94089  23.087  17.050   1.309
21665W        W94090  22.421  41.642   4.986
21666W        W94091  30.085   7.174   4.646
21667W        W94092   7.862  38.763   2.772
21668W        W94093  25.427  17.230  14.842
21669W        W94094  18.326  20.591  14.454
21670W        W94095  18.430   5.365   3.483
21671W        W94096  37.271  40.915  12.137
21672W        W94097   0.733  25.580   0.773
21673W        W94098  23.634  16.698  11.982
21674W        W94099  33.510  39.782   2.397
21675W        W94100   0.443   0.770  13.748
21676W        W94101  24.667   1.253   4.766
21677W        W94102  11.322  27.160   2.652
21678W        W94103  29.529  13.790  14.276
21679W        W94104  10.259  10.237   9.996
21680W        W94105   2.522   3.235   3.747
21681W        W94106  43.538  40.792   3.883
21682W        W94107  34.122  13.737   3.722
21683W        W94108  35.325  22.154   4.876
21684W        W94109  13.237  35.124  10.772
21685W        W94110  17.942  33.325  14.457
21686W        W94111  10.250   5.116  12.887
21687W        W94112  25.921  20.995   3.356
21688W        W94113  31.045  11.297   3.199
21689W        W94114  36.486  24.685  12.568
21690W        W94115  38.370  25.535   2.200
21691W        W94116  16.251  13.060   0.876
21692W        W94117  30.616  35.537  14.300
21693W        W94118   0.777  23.672   1.144
21694W        W94119  36.352  12.755   4.597
21695W        W94120  17.722  20.069  11.220
21696W        W94121  32.599  14.059  12.081
21697W        W94122  27.441  20.141  13.551
21698W        W94123  18.683  42.860  13.147
21699W        W94124  22.952  21.655   1.125
21700W        W94125  40.322  33.780   0.481
21701W        W94126   3.717  27.223   0.074
21702W        W94127  34.359  42.226  12.973
21703W        W94128   5.790  21.132  11.108
21704W        W94129  11.195  19.984  14.515
21705W        W94130  23.468  15.707   2.439
21706W        W94131   9.486  19.791   0.543
21707W        W94132  42.081   1.145   3.692
21708W        W94133  34.677  44.625  12.473
21709W        W94134   8.342  33.103  10.623
21710W        W94135  10.400  42.369   3.479
21711W        W94136  26.982  27.762   2.366
21712W        W94137  33.588   9.341   3.595
21713W        W94138   2.743  25.090  13.028
21714W        W94139  13.829   1.711   3.296
21715W        W94140  24.270  34.525  13.937
21716W        W94141  35.972  22.559   1.480
21717W        W94142  12.333  44.138  13.084
21718W        W94143  38.332  25.038  14.357
21719W        W94144  34.585  20.842  14.262
21720W        W94145  21.074   4.638  12.939
21721W        W94146  24.155  17.573   0.236
21722W        W94147  38.829  36.274  11.168
21723W        W94148  19.734  26.688  11.833
21724W        W94149   0.351  25.454   1.219
21725W        W94150  25.924  25.960   0.299
21726W        W94151   5.257  28.938  10.277
21727W        W94152  36.532  17.149   4.714
21728W        W94153  25.707   5.684   2.275
21729W        W94154  42.807  29.493   2.105
21730W        W94155   3.932  40.469   3.849
21731W        W94156  20.466  37.560   2.313
21732W        W94157  42.078  16.539   1.363
21733W        W94158  33.996  31.093  13.589
21734W        W94159  13.223   1.494   3.718
21735W        W94160  12.186   4.439   4.013
21736W        W94161  36.485  29.117  13.380
21737W        W94162  10.141  41.969   2.296
21738W        W94163  13.346   2.247  10.114
21739W        W94164  33.095  13.832  10.566
21740W        W94165  16.606  25.792  14.449
21741W        W94166   3.960  13.343  11.252
21742W        W94167   5.249  37.474   0.929
21743W        W94168  22.148  12.954   5.527
21744W        W94169   0.961  24.842   4.572
21745W        W94170  30.342  29.052   1.406
21746W        W94171  12.406  26.960  13.945
21747W        W94172  24.159  25.692   2.780
21748W        W94173  12.225  35.211  11.542
21749W        W94174  33.924   1.317   4.129
21750W        W94175   8.774   5.235  10.919
21751W        W94176  10.387  11.834   1.723
21752W        W94177  42.252  23.667   4.369
21753W        W94178  28.439  36.038  11.121
21754W        W94179  36.731  24.121   3.343
21755W        W94180  36.518   1.555  14.144
21756W        W94181  19.587  31.555  11.101
21757W        W94182  13.097   2.952  13.889
21758W        W94183  30.000  22.812  14.273
21759W        W94184  40.097   6.730  11.225
21760W        W94185  24.143  18.728   1.816
21761W        W94186   1.218  13.257  11.088
21762W        W94187  34.987  10.480  13.602
21763W        W94188  32.093  24.259   3.749
21764W        W94189   0.483  44.365  12.477
21765W        W94190  23.998  34.126  12.920
21766W        W94191  40.913  14.357  10.962
21767W        W94192  35.879  43.110   1.721
21768W        W94193   6.521  21.587   0.172
21769W        W94194  18.617   0.467   0.946
21770W        W94195  26.201  20.167   1.642
21771W        W94196  29.205   5.868  13.825
21772W        W94197  42.971  26.218  12.381
21773W        W94198   8.878  38.932   4.735
21774W        W94199  39.748   6.323  11.134
21775W        W94200  39.925   5.819  11.113
21776W        W94201  39.907   0.470   3.869
21777W        W94202  15.111  25.245  10.725
21778W        W94203  43.082   9.345   4.275
21779W        W94204  28.877  10.310   4.198
21780W        W94205  19.641   2.520  14.909
21781W        W94206   7.453   2.158   2.194
21782W        W94207  11.333   9.763  14.550
21783W        W94208  32.079  11.841   4.207
21784W        W94209  10.208  43.914  14.580
21785W        W94210  44.665  23.415  14.822
21786W        W94211  34.100  40.353  10.733
21787W        W94212   9.121  44.714  14.891
21788W        W94213  38.921  28.101   3.369
21789W        W94214  44.743  24.101  12.502
21790W        W94215   1.424  36.323   4.112
21791W        W94216  16.324   5.764  11.466
21792W        W94217  43.798   8.076   2.343
21793W        W94218  33.485  24.250   0.873
21794W        W94219  30.583  40.144  12.558
21795W        W94220  44.923  25.932   2.427
21796W        W94221  41.503  13.610   4.404
21797W        W94222  37.115  30.677  11.066
21798W        W94223   7.798   3.327   1.391
21799W        W94224  26.051  29.606   9.740
21800W        W94225  26.233  19.765  11.660
21801W        W94226  12.213  20.764   4.310
21802W        W94227   8.339   1.864   1.666
21803W        W94228  24.639  13.071  11.906
21804W        W94229  15.968  23.110   0.372
21805W        W94230  37.074  32.528  12.861
21806W        W94231  26.804   0.106   1.875
21807W        W94232   4.747  16.277   3.337
21808W        W94233  21.222   7.677  14.800
21809W        W94234  23.662  43.708  10.678
21810W        W94235  39.718  11.134   3.258
21811W        W94236  37.801   6.828   0.258
21812W        W94237  10.163   4.415  11.878
21813W        W94238   4.289  37.700   1.213
21814W        W94239  34.840  13.705  12.494
21815W        W94240  33.037  12.754  13.535
21816W        W94241  35.069  27.612  12.257
21817W        W94242   9.519  22.593  13.340
21818W        W94243  44.418  24.951  12.930
21819W        W94244  44.342  32.917  14.883
21820W        W94245  12.066  18.312   4.091
21821W        W94246  30.472  31.390  13.000
21822W        W94247  17.700  27.077   2.912
21823W        W94248  42.547   8.955   3.530
21824W        W94249   8.149  32.981   4.481
21825W        W94250   1.455   6.512   2.436
21826W        W94251  37.450  38.391  14.273
21827W        W94252   4.957  39.616   2.191
21828W        W94253  41.485  28.423  11.742
21829W        W94254  18.404  12.619   4.141
21830W        W94255  42.048  15.663   1.539
21831W        W94256  36.047   0.981  12.469
21832W        W94257  24.277  10.235  13.972
21833W        W94258  30.236  22.481  10.714
21834W        W94259   1.361  38.529   0.845
21835W        W94260   7.923  35.428  12.457
21836W        W94261  42.496  27.574  12.201
21837W        W94262   2.685   0.360   2.247
21838W        W94263  19.067  32.906   3.855
21839W        W94264  37.806  20.512   0.356
21840W        W94265  39.934  26.017   0.487
21841W        W94266  25.587   0.090   2.456
21842W        W94267  24.600  42.093  14.183
21843W        W94268   9.793   1.922  14.346
21844W        W94269  37.077  31.781  13.507
21845W        W94270  42.597  35.351  13.471
21846W        W94271  13.693  35.918   2.016
21847W        W94272  16.129  19.602  11.618
21848W        W94273   5.880   7.303   3.613
21849W        W94274   7.682  25.830  12.809
21850W        W94275   0.443  44.841  13.776
21851W        W94276  13.668  28.546   4.524
21852W        W94277  44.027   6.808  14.981
21853W        W94278  27.965  43.345   0.906
21854W        W94279  23.639  26.300   3.235
21855W        W94280  18.747   6.019  10.977
21856W        W94281  28.890  43.336  12.325
21857W        W94282  23.934  34.443   1.737
21858W        W94283  42.545  31.899   1.779
21859W        W94284  27.424   5.290   3.287
21860W        W94285  33.389   1.076   0.911
21861W        W94286  12.655   4.386   4.206
21862W        W94287   1.844   9.395   4.598
21863W        W94288   3.875  12.279  13.063
21864W        W94289   0.205  25.355   2.673
21865W        W94290   8.633   6.188   2.840
21866W        W94291  21.190  27.940  14.238
21867W        W94292   6.501  32.067   2.774
21868W        W94293  27.474  25.021   0.772
21869W        W94294  31.382  16.792   3.840
21870W        W94295  43.439  19.161   9.510
21871W        W94296   6.159  29.357  13.037
21872W        W94297  12.323  44.978   4.230
21873W        W94298  20.118   9.639  14.502
21874W        W94299  26.412  24.941   0.732
21875W        W94300  27.136  28.913   2.739
21876W        W94301  40.492  44.893  12.540
21877W        W94302  15.226  44.290   0.329
21878W        W94303  14.427   3.873   2.687
21879W        W94304  15.641  10.109   1.338
21880W        W94305  10.253  15.587  13.783
21881W        W94306   3.545   9.947  14.364
21882W        W94307  41.056  39.485  10.773
21883W        W94308  11.747  25.078   0.444
21884W        W94309  25.516   3.430  10.483
21885W        W94310  20.996  10.919  14.830
21886W        W94311  10.577  13.097  13.045
21887W        W94312  41.314  32.412   3.172
21888W        W94313   2.207  41.445  10.363
21889W        W94314  32.775  31.376   1.928
21890W        W94315  13.725  10.621  12.851
21891W        W94316   4.100  20.325  11.020
21892W        W94317  12.128   1.920   5.443
21893W        W94318  19.215  40.262  11.164
21894W        W94319   9.486  38.976   2.944
21895W        W94320  36.804  19.178  11.955
21896W        W94321   2.553  44.846   3.235
21897W        W94322  33.548  37.853   1.280
21898W        W94323  17.006   4.910   0.828
21899W        W94324  25.141  35.057  13.109
21900W        W94325   4.397  25.620   2.879
21901W        W94326   3.436   1.894   4.232
21902W        W94327  27.349  28.329   0.795
21903W        W94328  36.595   2.933  14.748
21904W        W94329  36.605  23.282   0.977
21905W        W94330  37.929  35.605   1.454
21906W        W94331  14.329  31.613   0.945
21907W        W94332  37.343  38.341  13.391
21908W        W94333  14.049  37.171   2.207
21909W        W94334   1.495  38.857  14.458
21910W        W94335  20.134   0.365   3.412
21911W        W94336  28.443  35.529  14.540
21912W        W94337  22.416   6.808  11.059
21913W        W94338  10.712  18.259   2.465
21914W        W94339  43.485   5.970  12.572
21915W        W94340  38.614  33.729   0.011
21916W        W94341  36.599  17.800  13.588
21917W        W94342   0.756  27.520  13.555
21918W        W94343  14.528  35.350  11.792
21919W        W94344  33.899   3.291  13.369
21920W        W94345  40.569  23.686  14.661
21921W        W94346  25.783  40.015  11.414
21922W        W94347  39.642  25.290  11.071
21923W        W94348  22.990   7.881  14.856
21924W        W94349  19.089  26.714  10.968
21925W        W94350  17.019  20.590  11.204
21926W        W94351  10.142  39.054   2.900
21927W        W94352  24.522  13.639   3.642
21928W        W94353  38.105   8.779  14.981
21929W        W94354  26.200  40.299  10.665
21930W        W94355  32.176  40.947   2.812
21931W        W94356   5.522  12.745  13.154
21932W        W94357  44.467   0.787  13.350
21933W        W94358   0.059   4.544  13.693
21934W        W94359  40.436  15.562  11.700
21935W        W94360  41.362  31.022   0.777
21936W        W94361  10.698  33.120  11.203
21937W        W94362   6.227   3.332  13.798
21938W        W94363  44.274  39.860  13.620
21939W        W94364  43.749  36.813  13.805
21940W        W94365   8.405  31.727   0.093
21941W        W94366  17.868  14.024  11.176
21942W        W94367  24.488  43.997   3.135
21943W        W94368  35.760   8.862  11.044
21944W        W94369  20.784  26.007   4.822
21945W        W94370  19.102  14.521  10.701
21946W        W94371  36.383   4.551  10.714
21947W        W94372  27.223   4.856   0.498
21948W        W94373  23.094  22.354   4.008
21949W        W94374  13.585  12.604  13.192
21950W        W94375  16.301  15.972   0.208
21951W        W94376   5.182  44.717  11.445
21952W        W94377  36.969  41.000  13.887
21953W        W94378  30.383  43.474   1.781
21954W        W94379   2.474  29.879   0.847
21955W        W94380  30.558   2.005   0.253
21956W        W94381  27.254  32.092   2.864
21957W        W94382  37.925  29.436   1.266
21958W        W94383  31.176   7.303   5.009
21959W        W94384  29.411  35.051  14.508
21960W        W94385   4.505  23.451   2.136
21961W        W94386  25.192  32.707  10.986
21962W        W94387   2.381   4.961   5.281
21963W        W94388  24.739  11.924   3.377
21964W        W94389   2.406  32.373   0.708
21965W        W94390  44.234  35.569  11.686
21966W        W94391  20.497  27.188  12.266
21967W        W94392  27.980   9.181  11.142
21968W        W94393   3.411  16.106  12.429
21969W        W94394   0.381  14.241   1.672
21970W        W94395  14.769  44.716  14.791
21971W        W94396  41.879  26.647  11.177
21972W        W94397  13.559  28.761   4.054
21973W        W94398  38.200  29.027  11.466
21974W        W94399  14.857  11.863   3.938
21975W        W94400  29.579  11.391   2.778
21976W        W94401  19.621  43.180   0.042
21977W        W94402   0.048  26.628   4.747
21978W        W94403  32.663  26.042  12.188
21979W        W94404  35.820  35.554   0.340
21980W        W94405  37.313  20.970   4.656
21981W        W94406  37.516   4.204  13.120
21982W        W94407   7.714   3.207  11.685
21983W        W94408   8.844  16.131  12.546
21984W        W94409  23.737  32.957   2.310
21985W        W94410  10.812  19.795  13.552
21986W        W94411  33.019   0.860  10.637
21987W        W94412   8.365  18.563   2.340
21988W        W94413  37.053  30.482   4.561
21989W        W94414  28.569  44.895  13.174
21990W        W94415   4.856  44.854  12.590
21991W        W94416  16.280  38.327  13.056
21992W        W94417  29.382   9.273   0.867
21993W        W94418  28.148  24.970  13.743
21994W        W94419  27.575  23.335   2.593
21995W        W94420  21.918   8.963   4.542
21996W        W94421  39.497  37.271  14.193
21997W        W94422  44.598   5.902  11.007
21998W        W94423  33.300  20.589   0.437
21999W        W94424  43.525  14.823   2.785
22000W        W94425  31.911  28.395   4.705
22001W        W94426   3.023  37.514   1.643
22002W        W94427  12.566  30.118  11.049
22003W        W94428  10.596  14.667  10.745
22004W        W94429   2.027   3.254   0.722
22005W        W94430   9.685  22.794   0.191
22006W        W94431  40.039  30.508   4.112
22007W        W94432   5.706  44.454  13.976
22008W        W94433  30.563  14.385  11.310
22009W        W94434  14.121  42.584   2.052
22010W        W94435  40.745  26.119  14.874
22011W        W94436  33.053  21.124  14.384
22012W        W94437  40.843  20.875   1.252
22013W        W94438  33.300  14.780   4.049
22014W        W94439  36.524  41.018   0.400
22015W        W94440  11.797  19.194   4.666
22016W        W94441   9.855  27.500  14.850
22017W        W94442   2.336  19.094  14.874
22018W        W94443   6.676  12.666  11.653
22019W        W94444  37.077  36.774  11.805
22020W        W94445  32.526   0.218   1.870
22021W        W94446  28.731  18.587   3.206
22022W        W94447  42.853  37.125  11.066
22023W        W94448  44.396  29.566   5.073
22024W        W94449  34.042   2.973  12.969
22025W        W94450   3.725  44.527  12.635
22026W        W94451  17.292  28.717  11.158
22027W        W94452   8.151  30.149  13.486
22028W        W94453  42.058  34.431  12.962
22029W        W94454  43.424  35.580  11.513
22030W        W94455  34.080  35.812  11.583
22031W        W94456  23.223  25.977   4.777
22032W        W94457  23.563   2.760  13.796
22033W        W94458   1.328   8.605  11.140
22034W        W94459  35.288  28.596   1.210
22035W        W94460  27.218  37.393  13.911
22036W        W94461  43.584  32.548  10.639
22037W        W94462   3.906  21.013   5.112
22038W        W94463  39.772  38.103  13.892
22039W        W94464  35.133   7.372   9.809
22040W        W94465  43.989   4.823  12.119
22041W        W94466  27.547   5.779  11.415
22042W        W94467   6.803  11.604  14.476
22043W        W94468   7.047  31.462  14.685
22044W        W94469  44.865   9.197   0.891
22045W        W94470  25.890  26.453   0.406
22046W        W94471  30.266  43.958  14.288
22047W        W94472  23.123   4.267   2.928
22048W        W94473  13.790   2.232   3.196
22049W        W94474  28.305  14.707  11.719
22050W        W94475   5.245   2.976   0.798
22051W        W94476   3.958  13.628  13.909
22052W        W94477  11.046  24.911   2.814
22053W        W94478  15.313  35.621  11.385
22054W        W94479  32.093  39.488   4.266
22055W        W94480   2.338  25.437   0.377
22056W        W94481   4.524  25.130  10.962
22057W        W94482  27.673   7.020  14.320
22058W        W94483  42.066  10.842  14.720
22059W        W94484  14.122  24.156   3.648
22060W        W94485  12.220  37.074  11.134
22061W        W94486  38.979  36.857  10.978
22062W        W94487  10.831  10.268  13.598
22063W        W94488  16.356  21.080   4.520
22064W        W94489  42.169  10.376  12.812
22065W        W94490   8.486   1.612   4.533
22066W        W94491   5.943  18.127  14.831
22067W        W94492  20.167  12.315  11.037
22068W        W94493  40.043  15.004   4.735
22069W        W94494  36.028  17.025  11.613
22070W        W94495   1.915   5.890  12.945
22071W        W94496  44.247  41.431  11.149
22072W        W94497  20.386   9.245  11.884
22073W        W94498  35.712   4.966   2.847
22074W        W94499   0.869   7.829  12.447
22075W        W94500  44.038  34.771  14.865
22076W        W94501  22.620  27.956   2.257
22077W        W94502  43.166  29.675  10.712
22078W        W94503  29.785  38.002   2.188
22079W        W94504  40.328  41.861  14.018
22080W        W94505  37.435  28.234  11.893
22081W        W94506  22.134  12.230  12.031
22082W        W94507   9.418  42.829  10.840
22083W        W94508  15.688   9.599   1.274
22084W        W94509  43.915  12.629   0.743
22085W        W94510  40.952   0.910   2.391
22086W        W94511  17.516  29.214   4.168
22087W        W94512  16.413  11.059   1.743
22088W        W94513  23.388  43.724  13.848
22089W        W94514  44.813  25.798   1.351
22090W        W94515  13.025  25.045   1.718
22091W        W94516   3.378  41.885   1.472
22092W        W94517  14.398  29.513   3.903
22093W        W94518  21.634   3.981   1.251
22094W        W94519   9.130  42.771   3.749
22095W        W94520  30.339  13.349  13.173
22096W        W94521  17.499  38.093  11.049
22097W        W94522  23.746  39.363  11.084
22098W        W94523  15.240  42.995   4.283
22099W        W94524   9.923  27.833  12.094
22100W        W94525  27.904   5.409   0.281
22101W        W94526   1.140  34.022  12.373
22102W        W94527  20.872  20.734   1.264
22103W        W94528  35.427  29.124  11.926
22104W        W94529   2.834  28.241  14.509
22105W        W94530  42.330  30.158   0.620
22106W        W94531  18.307  26.967   2.602
22107W        W94532  36.391  42.534  12.840
22108W        W94533  21.609   1.244  10.685
22109W        W94534  11.724  33.641   2.254
22110W        W94535  24.839   1.914  14.399
22111W        W94536  15.370   9.708   2.237
22112W        W94537  16.352  23.187  13.025
22113W        W94538  36.069   7.028   1.952
22114W        W94539  16.672  34.450  11.049
22115W        W94540   7.685  24.427  12.607
22116W        W94541   9.762   0.197   4.929
22117W        W94542   7.827  21.772   1.305
22118W        W94543  36.172  40.066   1.052
22119W        W94544  27.660   1.298  13.382
22120W        W94545   6.155   7.458   1.322
22121W        W94546   3.736  42.127  12.273
22122W        W94547  36.993  15.514   4.692
22123W        W94548  38.819  16.857  10.662
22124W        W94549  12.303   9.280   0.309
22125W        W94550  11.961  44.846  10.290
22126W        W94551  38.084  27.677   1.922
22127W        W94552  14.962  33.514   4.206
22128W        W94553   1.520  20.319   4.233
22129W        W94554  44.812  21.096   1.228
22130W        W94555  40.237  40.298   2.619
22131W        W94556  32.978  18.051  10.926
22132W        W94557  30.498  44.785   4.603
22133W        W94558   9.361  21.607  13.362
22134W        W94559  44.177  14.796   0.871
22135W        W94560  15.819  13.809  12.943
22136W        W94561  26.476  27.449  11.552
22137W        W94562  38.928  13.455   4.662
22138W        W94563  26.554  39.933   0.603
22139W        W94564   9.886  19.350  12.307
22140W        W94565  12.159  15.732   2.309
22141W        W94566  32.885  44.856   4.185
22142W        W94567  31.513  30.307   3.252
22143W        W94568  13.343  36.766  14.494
22144W        W94569  33.359  16.013  13.326
22145W        W94570  12.069  31.572   0.809
22146W        W94571  40.667  17.813   1.887
22147W        W94572   7.776  38.565   3.553
22148W        W94573  12.286  26.484   2.581
22149W        W94574   1.270  27.579  13.523
22150W        W94575  27.505  16.793  11.887
22151W        W94576  15.184   1.566   1.664
22152W        W94577  43.849  30.151   3.721
22153W        W94578  38.057  38.385  12.969
22154W        W94579  35.107  24.209  13.348
22155W        W94580   4.350  24.153   1.208
22156W        W94581  20.098  39.026   0.779
22157W        W94582  26.579   2.654  14.902
22158W        W94583  23.009  19.777   2.754
22159W        W94584  26.429  37.841  13.924
22160W        W94585   7.694  11.308   2.125
22161W        W94586  42.015  19.106   2.334
22162W        W94587  17.800  36.361   1.213
22163W        W94588   1.964   3.311   1.303
22164W        W94589   8.789  39.347  13.435
22165W        W94590  33.519  34.213  13.782
22166W        W94591   1.485   2.413  10.950
22167W        W94592  38.509   7.071  13.181
22168W        W94593  39.137   4.488   9.845
22169W        W94594  35.114  38.610   3.975
22170W        W94595  19.121  41.449  12.417
22171W        W94596  26.970  38.010   3.183
22172W        W94597  43.508  16.955   1.521
22173W        W94598  15.525  31.624   4.717
22174W        W94599   1.258   4.303  14.432
22175W        W94600   5.919  44.540   0.887
22176W        W94601   1.450  14.766   0.589
22177W        W94602  35.938  11.519  12.509
22178W        W94603   5.875  17.576  11.067
22179W        W94604  27.021  42.229   3.318
22180W        W94605  28.526  17.417  13.311
22181W        W94606  40.477  16.649   4.195
22182W        W94607  11.655  37.322  12.398
22183W        W94608  25.311  13.906   1.763
22184W        W94609   1.891  23.235  10.414
22185W        W94610   4.350  18.560  13.503
22186W        W94611  15.104  22.602  14.124
22187W        W94612  36.955  11.264   3.719
22188W        W94613   7.455  31.175   4.565
22189W        W94614  11.655  28.270  14.252
22190W        W94615  27.173   5.874   3.255
22191W        W94616  31.391  35.096  10.838
22192W        W94617  15.053  31.010  14.932
22193W        W94618  14.797  29.266  14.850
22194W        W94619  10.223  41.362  10.452
22195W        W94620  27.437  18.672  10.725
22196W        W94621  30.868  32.175  10.285
22197W        W94622   2.498   4.450   1.882
22198W        W94623  33.532  19.943  12.132
22199W        W94624   5.186  23.582   4.323
22200W        W94625  22.550  17.367   0.370
22201W        W94626  44.203  33.635   4.025
22202W        W94627  44.036  21.050   2.182
22203W        W94628   2.428  31.034   0.378
22204W        W94629  39.924  31.631   2.790
22205W        W94630  24.144  36.373   1.724
22206W        W94631  40.483  18.464  12.543
22207W        W94632   2.182  19.200  10.723
22208W        W94633  17.399   4.153   2.466
22209W        W94634   2.914  33.015   0.231
22210W        W94635  38.440  25.909  11.197
22211W        W94636  16.258   6.667   2.745
22212W        W94637  44.470  15.602   4.678
22213W        W94638  40.093  37.536   0.871
22214W        W94639  42.560  18.662  12.927
22215W        W94640  12.784  23.361   0.555
22216W        W94641  30.514  15.954  12.504
22217W        W94642   5.662  36.424   2.631
22218W        W94643   0.307  43.713   1.297
22219W        W94644  39.160  36.137  11.559
22220W        W94645  40.191  39.911   3.877
22221W        W94646  42.492  35.485   0.223
22222W        W94647  19.108   5.202  14.554
22223W        W94648  25.530   0.016   2.949
22224W        W94649  42.369  15.241  11.200
22225W        W94650  23.064   9.687   5.047
22226W        W94651  38.517  15.877   3.155
22227W        W94652  10.029   7.856  13.989
22228W        W94653  43.175  20.404   5.374
22229W        W94654  41.994  30.952  12.530
22230W        W94655  29.667  27.523  11.393
22231W        W94656   8.181  32.835  12.837
22232W        W94657  38.820  24.637  11.970
22233W        W94658  27.195  13.796   1.766
22234W        W94659  13.117  42.944   4.504
22235W        W94660  37.060   5.376   2.279
22236W        W94661  12.909  13.665   2.601
22237W        W94662  33.368  19.162  10.565
22238W        W94663  22.835  23.944  12.456
22239W        W94664  37.977  40.308   4.532
22240W        W94665  14.241  24.210  14.357
22241W        W94666  25.273   4.694  10.609
22242W        W94667   9.567  32.509  14.758
22243W        W94668  11.262  16.742   3.233
22244W        W94669  23.053  13.582   2.281
22245W        W94670   0.267  26.633  10.657
22246W        W94671  14.206  32.868  13.459
22247W        W94672   3.329  35.021   2.651
22248W        W94673  22.605   4.167   2.893
22249W        W94674  29.432  43.115   0.032
22250W        W94675   7.343  30.197   2.194
22251W        W94676  31.572   5.295   4.337
22252W        W94677   3.252  42.723  11.028
22253W        W94678  14.608  24.258  11.056
22254W        W94679  28.434  21.638  11.639
22255W        W94680  44.966   6.967   4.775
22256W        W94681  34.860  13.678   1.137
22257W        W94682  12.654  31.083   4.607
22258W        W94683  20.273  28.677   4.250
22259W        W94684  13.496  17.486  13.992
22260W        W94685  12.536  24.026  14.819
22261W        W94686  23.115  28.935  12.092
22262W        W94687   5.967  20.675   2.821
22263W        W94688   3.211  14.788   4.244
22264W        W94689  28.482   3.222  12.893
22265W        W94690  40.252  38.473  12.729
22266W        W94691  36.072  22.935   2.725
22267W        W94692  11.070  36.886   4.288
22268W        W94693  29.888  21.017   1.340
22269W        W94694   6.910  29.112  11.197
22270W        W94695  11.733  19.513   3.476
22271W        W94696  25.671   8.183  13.831
22272W        W94697  15.837  37.644  10.331
22273W        W94698  43.391   3.318  14.824
22274W        W94699   2.796  24.667  14.235
22275W        W94700   8.366   0.509  11.712
22276W        W94701  27.211  14.103   4.085
22277W        W94702  31.206   9.785  13.365
22278W        W94703  10.429  25.760  13.030
22279W        W94704  19.122  30.007   0.790
22280W        W94705  12.824  19.642   2.628
22281W        W94706  36.648   9.201   3.531
22282W        W94707  39.370  25.265   0.845
22283W        W94708   5.020  30.121   3.731
22284W        W94709  13.435  12.819  13.899
22285W        W94710   9.905  13.450   1.522
22286W        W94711  26.418  38.586  10.270
22287W        W94712   0.948  37.819   3.265
22288W        W94713  17.448   5.780   2.751
22289W        W94714   7.157  13.717   3.093
22290W        W94715  27.151  35.566  13.785
22291W        W94716  34.553  41.563  10.594
22292W        W94717  20.778  44.522  11.959
22293W        W94718  12.158  26.772  13.537
22294W        W94719  20.717  35.115   4.768
22295W        W94720  34.548  32.216  14.366
22296W        W94721  15.059  34.187   1.647
22297W        W94722  11.352   6.902   4.357
22298W        W94723   2.387  39.268   4.826
22299W        W94724  29.435   6.926   0.295
22300W        W94725  30.389   9.702   4.249
22301W        W94726   3.483  42.649  13.389
22302W        W94727  17.133   6.627  12.009
22303W        W94728  34.549   7.152  12.392
22304W        W94729   8.418  15.827  11.986
22305W        W94730   1.073   3.209  11.939
22306W        W94731  28.531   5.462  14.297
22307W        W94732  17.955  36.151  14.460
22308W        W94733  20.364  42.931  11.188
22309W        W94734  17.542  42.923   4.336
22310W        W94735  10.701  29.126   5.161
22311W        W94736   0.023   3.459  14.016
22312W        W94737  30.216  10.338  14.409
22313W        W94738  12.190   8.374  13.819
22314W        W94739  40.626  36.950  12.992
22315W        W94740  16.103  32.723  12.318
22316W        W94741  16.198  19.947  12.019
22317W        W94742   3.686  33.841   4.577
22318W        W94743  17.245   8.338  12.602
22319W        W94744  25.540  42.223  13.125
22320W        W94745  23.167  44.460  14.957
22321W        W94746  37.491  19.381  14.846
22322W        W94747   2.000  43.094  10.441
22323W        W94748   1.133   1.750   2.829
22324W        W94749   0.224  38.961  13.762
22325W        W94750  22.127  41.001   2.463
22326W        W94751  41.550  18.132   1.448
22327W        W94752  35.061  33.359  12.484
22328W        W94753  33.563  38.400  14.099
22329W        W94754   1.797   8.416   3.221
22330W        W94755  29.186   4.964   0.476
22331W        W94756   5.321   0.698   0.175
22332W        W94757  34.143   0.149  12.374
22333W        W94758   2.774   3.718  14.016
22334W        W94759  21.646   7.455   2.361
22335W        W94760  20.754  39.187  14.473
22336W        W94761  13.432  26.539   2.648
22337W        W94762  25.689   9.784  11.453
22338W        W94763  42.787  13.858   1.326
22339W        W94764  19.148  25.294   0.293
22340W        W94765   1.801   8.902   3.424
22341W        W94766  41.019  21.220  12.447
22342W        W94767  30.322  10.179   4.467
22343W        W94768   9.364  16.065  10.845
22344W        W94769  43.028  25.043   1.327
22345W        W94770  26.265  24.485  11.423
22346W        W94771   3.456  10.910  12.133
22347W        W94772  21.579   1.942   3.343
22348W        W94773  27.845  29.372   4.970
22349W        W94774   2.788  16.850  11.175
22350W        W94775  31.919  24.464  14.021
22351W        W94776  10.861   5.794  11.697
22352W        W94777  19.704  10.696  10.672
22353W        W94778  43.354   6.946  12.429
22354W        W94779  30.228  26.903  13.146
22355W        W94780  22.670  11.316   3.135
22356W        W94781  10.042   2.217   3.792
22357W        W94782  42.658  42.881  11.147
22358W        W94783   8.142  33.586  12.465
22359W        W94784  26.755  12.286   0.993
22360W        W94785  10.921  15.344   3.684
22361W        W94786  21.991  23.776   2.589
22362W        W94787  20.184  42.523  10.395
22363W        W94788  39.995  13.727  13.486
22364W        W94789   3.561  24.392   1.362
22365W        W94790  35.349   3.812   3.343
22366W        W94791  20.534  27.439  14.926
22367W        W94792  43.201  39.716   2.080
22368W        W94793   2.569  36.456  13.578
22369W        W94794  15.551  43.895  12.871
22370W        W94795  43.550  37.925   0.223
22371W        W94796  26.392  11.929  13.920
22372W        W94797  38.316  34.131  11.085
22373W        W94798  42.692   3.387   3.903
22374W        W94799   9.132  40.954   0.069
22375W        W94800  10.167  37.512   1.224
22376W        W94801  22.168  19.463  11.208
22377W        W94802   4.641  18.270  10.818
22378W        W94803  15.601  34.369  11.625
22379W        W94804  39.026   3.394  12.489
22380W        W94805  20.718   6.835  14.543
22381W        W94806  26.870   1.848   3.912
22382W        W94807   5.811   9.750   2.313
22383W        W94808   3.768   6.470  12.906
22384W        W94809  19.322  28.356   2.405
22385W        W94810  12.709  17.742   3.298
22386W        W94811   0.270  44.254  12.022
22387W        W94812   7.441  36.561  10.413
22388W        W94813  32.194  41.449   2.170
22389W        W94814  26.090  39.950  12.767
22390W        W94815  39.410   9.267  10.644
22391W        W94816  15.797  17.819   1.829
22392W        W94817  10.335  20.544  10.723
22393W        W94818  12.888  19.067   0.831
22394W        W94819  17.587  25.880   4.063
22395W        W94820  21.352  29.905   3.015
22396W        W94821   1.018  21.255   1.002
22397W        W94822  14.177   8.058   2.050
22398W        W94823  18.696   3.239   3.917
22399W        W94824  42.716   8.241   0.448
22400W        W94825  19.551  14.620   1.043
22401W        W94826  19.698  24.141   3.874
22402W        W94827   9.593  30.990   1.806
22403W        W94828  40.517   4.765   3.677
22404W        W94829  15.167  22.601  10.681
22405W        W94830  25.922  22.942  13.805
22406W        W94831  10.416   5.927  10.872
22407W        W94832  40.512  25.217  11.059
22408W        W94833  32.759  20.179  12.844
22409W        W94834  27.534  32.854   4.899
22410W        W94835  22.096  25.703  12.153
22411W        W94836  21.757  16.307   1.807
22412W        W94837   8.025  21.104   0.758
22413W        W94838  28.697  18.819   1.855
22414W        W94839  12.003  36.154  14.382
22415W        W94840  25.213   6.990   4.276
22416W        W94841  24.711  25.354  12.513
22417W        W94842   8.220   0.474  14.404
22418W        W94843  34.335  34.462   2.974
22419W        W94844  25.813  43.021  13.427
22420W        W94845   2.332  18.286  13.455
22421W        W94846  11.650   7.118  10.000
22422W        W94847  11.827  43.584   1.132
22423W        W94848  24.942  16.072  12.844
22424W        W94849  24.622  22.714   1.216
22425W        W94850  22.558  12.655   3.862
22426W        W94851  39.269   2.811  13.423
22427W        W94852  32.417  19.128   2.234
22428W        W94853  16.457  40.892   3.931
22429W        W94854  20.163  18.061   0.311
22430W        W94855  10.733  32.053  14.547
22431W        W94856  24.683  18.724   1.922
22432W        W94857   7.419  11.408   1.218
22433W        W94858  23.189  26.490   2.208
22434W        W94859  22.551  26.982   1.721
22435W        W94860  44.019  31.629   0.965
22436W        W94861   8.408  10.642   0.025
22437W        W94862  26.826  37.248   4.179
22438W        W94863  35.846   3.944   3.615
22439W        W94864  42.766   6.840   0.453
22440W        W94865  13.284  12.890  11.164
22441W        W94866  14.853  39.203   4.775
22442W        W94867  35.365   1.450   3.772
22443W        W94868  36.140  12.097  11.146
22444W        W94869  30.334  44.748  13.876
22445W        W94870   0.927   6.467  14.378
22446W        W94871   9.533  13.972  10.390
22447W        W94872  31.600  41.235  13.887
22448W        W94873  18.205   4.093   4.888
22449W        W94874  23.564  41.493   3.901
22450W        W94875  11.916  44.425   3.593
22451W        W94876   5.727  43.133  12.062
22452W        W94877  37.907   1.302  10.846
22453W        W94878  24.326  37.252  14.025
22454W        W94879   7.009  15.446  13.853
22455W        W94880  16.051  31.007  10.927
22456W        W94881  20.078   5.825  13.986
22457W        W94882   3.944   8.894   1.612
22458W        W94883  16.135  44.018  12.097
22459W        W94884   1.474  25.979   0.228
22460W        W94885  24.017  38.056   1.575
22461W        W94886  23.842  32.235   3.382
22462W        W94887  42.229   8.128   0.285
22463W        W94888  30.905  27.574  10.938
22464W        W94889   7.502   3.242   1.931
22465W        W94890  20.276  13.293  12.220
22466W        W94891  21.515  44.375  11.778
22467W        W94892  18.874  21.328   4.466
22468W        W94893  21.421  42.867   1.469
22469W        W94894  13.904  10.268   3.205
22470W        W94895  26.270   2.418   0.739
22471W        W94896  41.096  17.100  11.124
22472W        W94897  13.705  22.224  12.543
22473W        W94898   0.300  38.796   3.616
22474W        W94899  21.243   8.256  11.623
22475W        W94900  16.991  35.188  11.737
22476W        W94901  13.745  26.199  13.878
22477W        W94902  10.000  38.513   1.738
22478W        W94903  14.517  39.094  10.237
22479W        W94904  17.740   0.272  12.579
22480W        W94905  35.914  14.542  12.051
22481W        W94906  36.140  17.240  14.892
22482W        W94907  34.014  17.004   0.467
22483W        W94908   0.924  24.019  14.838
22484W        W94909  28.527  39.263  12.513
22485W        W94910   1.413  20.016   4.640
22486W        W94911  22.297  36.106   2.530
22487W        W94912  13.728  35.897  12.595
22488W        W94913   4.812  21.992   3.331
22489W        W94914  18.758   2.036   3.277
22490W        W94915  39.598  30.201  11.157
22491W        W94916  15.695  22.737   3.152
22492W        W94917   8.891  44.387   2.017
22493W        W94918  42.678  40.036   0.469
22494W        W94919   2.410  19.980  10.822
22495W        W94920  44.273  16.730  10.633
22496W        W94921  14.014   9.373  14.800
22497W        W94922   5.197  11.341   4.211
22498W        W94923  36.348   7.369   4.285
22499W        W94924  21.668  14.521  11.440
22500W        W94925  38.485  16.131   2.661
22501W        W94926  26.643  39.436  10.721
22502W        W94927  31.568   0.752  10.565
22503W        W94928   0.934  14.848  14.909
22504W        W94929  21.505  18.687   4.172
22505W        W94930  25.108  40.812   3.715
22506W        W94931  13.713  16.713  11.512
22507W        W94932  19.696  19.071   0.842
22508W        W94933   0.749  21.161  12.906
22509W        W94934  35.877   6.412   1.325
22510W        W94935   3.174   6.894  13.980
22511W        W94936  29.917  32.772  13.450
22512W        W94937   5.905  41.942  11.616
22513W        W94938  41.019   1.374   1.047
22514W        W94939   7.765   2.807  13.471
22515W        W94940   1.285  41.446  11.646
22516W        W94941  16.248  38.317   3.061
22517W        W94942  28.406  11.881  11.604
22518W        W94943  24.672  25.014  10.756
22519W        W94944   0.760  15.347   4.077
22520W        W94945  44.074  29.170   3.290
22521W        W94946  18.843  42.675  13.923
22522W        W94947  27.369  19.189   2.680
22523W        W94948  29.971   5.473  12.089
22524W        W94949  23.229   9.024   2.477
22525W        W94950  28.348  21.026  11.103
22526W        W94951  11.858   3.649  14.670
22527W        W94952  42.606  26.233   1.945
22528W        W94953  31.775   6.227   3.819
22529W        W94954   6.717  12.285  13.364
22530W        W94955  37.055  12.388   0.775
22531W        W94956  31.175   0.336   2.459
22532W        W94957  24.586  18.592   0.527
22533W        W94958  11.205   7.344   0.926
22534W        W94959  36.844   2.097  12.327
22535W        W94960  38.134  44.848  12.259
22536W        W94961  42.636  39.429  12.020
22537W        W94962   4.453  31.596   2.557
22538W        W94963   2.936  19.978   3.177
22539W        W94964  27.240   4.728   9.839
22540W        W94965   9.632  32.533  14.230
22541W        W94966  39.023  10.431   1.866
22542W        W94967  32.431  39.823  13.020
22543W        W94968  15.783   1.336   0.376
22544W        W94969   2.412  40.501  12.414
22545W        W94970  36.820  20.113   3.274
22546W        W94971  27.492  19.536   0.381
22547W        W94972  34.425  33.936  14.850
22548W        W94973  26.640   5.203  11.441
22549W        W94974  24.638  22.259   0.977
22550W        W94975  37.250  42.500   3.784
22551W        W94976  15.225   0.796   2.646
22552W        W94977   8.847  16.041   0.371
22553W        W94978  14.574  20.996  14.404
22554W        W94979  12.365  22.114  12.608
22555W        W94980  19.794  33.534  11.903
22556W        W94981   6.848  21.711  13.469
22557W        W94982  12.094  34.469   1.717
22558W        W94983   0.267  13.782   0.868
22559W        W94984  27.391  10.816  13.396
22560W        W94985  24.385   1.139  13.524
22561W        W94986  35.355   3.189   2.633
22562W        W94987  13.331  29.590  13.521
22563W        W94988  30.844  22.574   2.142
22564W        W94989  33.452  40.568  13.611
22565W        W94990  33.853  26.285  14.991
22566W        W94991   3.653  24.031  11.653
22567W        W94992  23.788   9.214  12.499
22568W        W94993  11.856  41.473  14.904
22569W        W94994  18.778  30.961   0.721
22570W        W94995  18.566   7.119   4.565
22571W        W94996  15.625  28.701  12.961
22572W        W94997  43.245   0.860   2.751
22573W        W94998  23.596   3.960  13.505
22574W        W94999   8.610  28.114  13.911
22575W        W95000  25.572  33.763  11.053
22576W        W95001  16.886  33.753  12.956
22577W        W95002  18.654   0.583   2.965
22578W        W95003  30.109  42.494  14.288
22579W        W95004   0.860   5.708   0.996
22580W        W95005   0.978  41.892   3.341
22581W        W95006  28.209  20.469   2.751
22582W        W95007  23.027  27.382  12.016
22583W        W95008   6.202   5.639  13.410
22584W        W95009   0.509   6.997   4.808
22585W        W95010  25.041   4.822   3.322
22586W        W95011  25.424  36.813  11.625
22587W        W95012   8.653  27.402   3.300
22588W        W95013  39.092   5.661  14.043
22589W        W95014  22.790  42.313  13.194
22590W        W95015  13.164  21.261  11.433
22591W        W95016  34.470  24.768  13.755
22592W        W95017  41.374  21.609  10.495
22593W        W95018  15.546  11.388  12.955
22594W        W95019  27.932  31.824   3.195
22595W        W95020   0.829  29.742   2.718
22596W        W95021  35.523  42.458  12.552
22597W        W95022  17.300  28.012  14.903
22598W        W95023  13.787  44.748   3.776
22599W        W95024   6.387  36.500   2.899
22600W        W95025   7.487  25.402  13.873
22601W        W95026   9.874  18.338  14.308
22602W        W95027   6.698  42.096   1.474
22603W        W95028  14.722  34.519  10.615
22604W        W95029  43.583  11.932   1.911
22605W        W95030   6.700  40.413  13.768
22606W        W95031  31.068  28.100  13.063
22607W        W95032  21.927  18.157  14.921
22608W        W95033  44.904  23.600  14.360
22609W        W95034  41.589   0.431   4.203
22610W        W95035  36.580  15.501  11.370
22611W        W95036  23.585  39.725   2.870
22612W        W95037   7.144  26.207   4.586
22613W        W95038  25.439   9.813  14.304
22614W        W95039   3.151  43.955  12.281
22615W        W95040  38.469  35.737  12.018
22616W        W95041  30.187  32.934  12.201
22617W        W95042  20.121  28.111  11.339
22618W        W95043  35.523   5.804   3.170
22619W        W95044  24.648  32.610   1.749
22620W        W95045  33.437   8.356   0.385
22621W        W95046   2.962   0.797   3.266
22622W        W95047   7.463  26.997  11.566
22623W        W95048  40.244  34.076   1.369
22624W        W95049   5.094   7.967   2.375
22625W        W95050   1.029  33.635  14.013
22626W        W95051   0.799  37.634   4.757
22627W        W95052  11.432  35.907   3.081
22628W        W95053   3.905  30.365  14.830
22629W        W95054  24.235  27.629  11.175
22630W        W95055  25.463  41.574   2.323
22631W        W95056  21.681   1.832   1.755
22632W        W95057   3.688  26.080   4.709
22633W        W95058  32.889  25.704  13.690
22634W        W95059  22.992  14.395  10.983
22635W        W95060   3.501  26.455   3.692
22636W        W95061  13.093  33.393  12.156
22637W        W95062  44.573   3.815  13.152
22638W        W95063  39.900  40.040  13.538
22639W        W95064   0.696   8.720  14.962
22640W        W95065  10.397  14.372  13.303
22641W        W95066  41.366  37.870   2.469
22642W        W95067  27.391  27.980   2.703
22643W        W95068  27.907   1.556  11.049
22644W        W95069  22.794  14.078   2.826
22645W        W95070   0.390   2.676  12.234
22646W        W95071  28.654  11.142   1.820
22647W        W95072  22.051   6.958  12.045
22648W        W95073  34.957   9.164   3.742
22649W        W95074  20.707  44.502  10.714
22650W        W95075   2.881  41.863  14.250
22651W        W95076   9.623  27.038   1.535
22652W        W95077   8.363  38.555   0.404
22653W        W95078  41.419  26.572  14.667
22654W        W95079  26.056  14.868   4.687
22655W        W95080  10.785  18.696  14.332
22656W        W95081  22.237  39.829  14.571
22657W        W95082  18.990  43.320   2.241
22658W        W95083  32.917  39.530   2.191
22659W        W95084   0.395   8.833  14.469
22660W        W95085  11.471  42.292   1.804
22661W        W95086  14.708  32.631   4.239
22662W        W95087  35.402  16.309  14.334
22663W        W95088  34.937   9.189   3.211
22664W        W95089  31.166  14.615  11.992
22665W        W95090  19.518  38.982   3.281
22666W        W95091  26.769  11.890  14.793
22667W        W95092  26.457  35.470  10.605
22668W        W95093  28.429  13.316   0.334
22669W        W95094  16.137   8.110  13.113
22670W        W95095  42.485  35.599  12.386
22671W        W95096  18.049  37.127  11.088
22672W        W95097  27.438   6.733   1.904
22673W        W95098  29.937   0.614  13.040
22674W        W95099   5.937  30.032   2.882
22675W        W95100  29.177  15.790  12.057
22676W        W95101  29.878  23.208   0.869
22677W        W95102   3.400  39.528   2.423
22678W        W95103  24.555  32.470  14.681
22679W        W95104  13.062  42.749   1.747
22680W        W95105  28.079  19.243  14.193
22681W        W95106   1.834  22.749  12.879
22682W        W95107  34.460  30.160  12.941
22683W        W95108   5.007  22.046  14.804
22684W        W95109   4.727  43.624   1.364
22685W        W95110   7.711  27.691  14.187
22686W        W95111  11.605   5.386   4.154
22687W        W95112   4.509  20.677  14.760
22688W        W95113  13.629  24.228   5.437
22689W        W95114  40.962  38.588  11.985
22690W        W95115  19.040  41.423   2.164
22691W        W95116  42.977  14.675  10.578
22692W        W95117  20.828  19.164  14.719
22693W        W95118  28.454   9.848  14.693
22694W        W95119   8.987  40.943   3.737
22695W        W95120  26.740  26.979  14.515
22696W        W95121  18.668  42.487  10.928
22697W        W95122  35.865  32.222   4.216
22698W        W95123  44.933  30.497   1.249
22699W        W95124  43.020  42.930   2.461
22700W        W95125   8.223  26.099   0.395
22701W        W95126  30.102  36.029   0.777
22702W        W95127  15.129  36.117   0.906
22703W        W95128  16.225  41.947  14.841
22704W        W95129  42.908  20.604   1.750
22705W        W95130   9.899  38.605  12.732
22706W        W95131  18.028  10.270  11.116
22707W        W95132   2.969  18.281  11.189
22708W        W95133  37.946   2.964  12.943
22709W        W95134   8.581  29.007   0.798
22710W        W95135  43.575   0.162  13.940
22711W        W95136  14.245  33.694   2.860
22712W        W95137  18.593  11.534   0.320
22713W        W95138  15.027  35.536  14.276
22714W        W95139  14.107  11.271   4.222
22715W        W95140  19.102  16.570   1.688
22716W        W95141  19.706  34.023   4.030
22717W        W95142   7.967  35.141  11.996
22718W        W95143  36.322  29.218  12.869
22719W        W95144   0.764  12.782  13.972
22720W        W95145  12.528  15.597  12.955
22721W        W95146  44.014  33.059   2.769
22722W        W95147  43.359  38.811   2.357
22723W        W95148  28.224   3.746  11.601
22724W        W95149  12.175  42.471  13.542
22725W        W95150   5.256  44.356   0.695
22726W        W95151   1.538  41.973   1.806
22727W        W95152  16.759  10.837  12.640
22728W        W95153  38.346  18.110  13.402
22729W        W95154  30.533   3.281  13.557
22730W        W95155  19.249  44.326   2.779
22731W        W95156   0.611   3.370   2.403
22732W        W95157  16.211   7.738  12.341
22733W        W95158  31.324   9.602   3.503
22734W        W95159  40.398  43.441  14.755
22735W        W95160  12.755  26.027  14.344
22736W        W95161  35.514  12.699   0.904
22737W        W95162  29.013   3.142   0.794
22738W        W95163   1.767  21.091   2.778
22739W        W95164  18.081  40.040  14.366
22740W        W95165   0.419   3.381   0.018
22741W        W95166  31.911  12.798  11.567
22742W        W95167  39.441  15.084  10.782
22743W        W95168  42.321  30.907   4.036
22744W        W95169   1.626  43.338   5.058
22745W        W95170  16.206  41.549   0.184
22746W        W95171  17.199  28.949   0.067
22747W        W95172  21.495   3.793   3.247
22748W        W95173  27.479  11.094  12.966
22749W        W95174  27.877  18.279   1.690
22750W        W95175  26.242  12.264  14.728
22751W        W95176   3.305  14.857   2.215
22752W        W95177  20.318  41.294   5.109
22753W        W95178   6.944  26.396   3.180
22754W        W95179  25.024  21.456   3.144
22755W        W95180  12.965  15.110  10.796
22756W        W95181  26.005  38.878  10.997
22757W        W95182  15.273  12.795   3.388
22758W        W95183  39.817  15.346   3.917
22759W        W95184  40.621  37.789  13.965
22760W        W95185  42.372  30.202  11.063
22761W        W95186  35.861   1.955   1.723
22762W        W95187  28.261  16.514  13.378
22763W        W95188  22.963  10.632   1.526
22764W        W95189  14.860  29.836   3.097
22765W        W95190  36.770  38.085  11.477
22766W        W95191   7.194   4.206   1.254
22767W        W95192   0.430  16.987   2.710
22768W        W95193  13.367  34.516  14.755
22769W        W95194  18.217  17.234  14.922
22770W        W95195  23.825   0.131  11.107
22771W        W95196  27.524  42.308   0.372
22772W        W95197  22.187  26.494   0.939
22773W        W95198  42.079   1.186  12.380
22774W        W95199  34.643   1.503  12.452
22775W        W95200  18.422  13.412   1.948
22776W        W95201   3.258   6.800   4.410
22777W        W95202  12.854  38.877  12.603
22778W        W95203  12.602  21.730   5.483
22779W        W95204  21.283  22.653  11.830
22780W        W95205  34.771  22.504   1.961
22781W        W95206  29.708  34.034   2.158
22782W        W95207   6.335  29.901   4.106
22783W        W95208  30.380  12.698  10.624
22784W        W95209  28.376  39.893   3.656
22785W        W95210  26.179  28.980   3.781
22786W        W95211   5.493   1.227   1.503
22787W        W95212  35.076  35.791   2.854
22788W        W95213  36.839  11.755   2.465
22789W        W95214  42.029  29.059  12.003
22790W        W95215  29.258   1.825   1.859
22791W        W95216   4.426  28.008   0.997
22792W        W95217  31.436   4.393  14.462
22793W        W95218  39.980  18.269  12.941
22794W        W95219  39.186  23.000   9.967
22795W        W95220  26.996  35.509   0.392
22796W        W95221  42.885  27.262   4.225
22797W        W95222  30.463  24.208  10.946
22798W        W95223   9.112  12.820   4.732
22799W        W95224   5.203  27.554   1.290
22800W        W95225  35.632  17.173   4.588
22801W        W95226  38.990  16.078   2.829
22802W        W95227  37.511  27.205   1.370
22803W        W95228  44.842   3.330   4.658
22804W        W95229  31.561   5.166   3.835
22805W        W95230   2.390  16.327  14.933
22806W        W95231   3.356  18.772  14.362
22807W        W95232   8.008  14.299  12.546
22808W        W95233  18.777   5.697   4.898
22809W        W95234  15.146   5.735  13.013
22810W        W95235  20.193  25.584  11.171
22811W        W95236  16.283  32.481   0.927
22812W        W95237   0.086  41.036  14.571
22813W        W95238  36.872  19.031   3.818
22814W        W95239  26.081  24.085  12.866
22815W        W95240  20.856   2.163  10.240
22816W        W95241  26.577  20.209   2.181
22817W        W95242  35.317   4.346  11.261
22818W        W95243  14.231  27.876  12.395
22819W        W95244  36.357  40.634  11.805
22820W        W95245  37.368  24.971   2.243
22821W        W95246  29.930  31.445  13.523
22822W        W95247  36.502  35.178   0.798
22823W        W95248   3.620  38.977   1.356
22824W        W95249  25.519  15.438  11.114
22825W        W95250  17.316  12.325   2.645
22826W        W95251  13.277  23.802   1.761
22827W        W95252   9.125  19.677   2.811
22828W        W95253  24.956  33.420  14.543
22829W        W95254  17.775  15.022  13.790
22830W        W95255   0.665  27.448   0.461
22831W        W95256  44.034  25.543  13.676
22832W        W95257  44.063  27.991   4.085
22833W        W95258   2.213  30.410  12.627
22834W        W95259  41.910   9.952  11.462
22835W        W95260  28.200  29.041   4.705
22836W        W95261   2.442  35.082  13.852
22837W        W95262  24.978  35.992  13.804
22838W        W95263  13.538  43.380   2.349
22839W        W95264  44.546  39.021  12.361
22840W        W95265  42.448  16.249  10.283
22841W        W95266  10.244  12.554   1.217
22842W        W95267  13.842   5.645   1.272
22843W        W95268  21.948  15.943   4.115
22844W        W95269  10.594   7.848  11.283
22845W        W95270   0.482  36.971  13.796
22846W        W95271  13.245  39.013   4.146
22847W        W95272  26.398  33.379  10.137
22848W        W95273  15.799  26.403   2.839
22849W        W95274  17.202  24.883   1.211
22850W        W95275  37.939  33.783   2.316
22851W        W95276   9.854  13.972   1.620
22852W        W95277  38.079  35.770  13.886
22853W        W95278  38.404  37.771   2.763
22854W        W95279   1.051  42.414  11.681
22855W        W95280   3.541  10.491   1.826
22856W        W95281   8.959  14.408  12.557
22857W        W95282  10.743   6.021  14.943
22858W        W95283  12.304  29.920   3.238
22859W        W95284  21.940   3.756  12.072
22860W        W95285   8.755  14.125  12.966
22861W        W95286  29.237  41.726  14.003
22862W        W95287  31.455  34.677  13.938
22863W        W95288  43.771  19.912  14.659
22864W        W95289   3.267  33.325  12.958
22865W        W95290  26.083  44.488  10.751
22866W        W95291  23.679  30.942   5.024
22867W        W95292  33.367  17.123   1.732
22868W        W95293  37.342  18.728   1.819
22869W        W95294   2.529  24.295   1.386
22870W        W95295   1.817  38.936   1.695
22871W        W95296  28.566  17.547  11.375
22872W        W95297  22.582  19.053  14.375
22873W        W95298  24.527  31.092   4.716
22874W        W95299  29.592   6.626   3.402
22875W        W95300  22.251  22.261   3.602
22876W        W95301  26.742   3.432   2.844
22877W        W95302  13.529   9.742   3.787
22878W        W95303  39.587  43.783   0.382
22879W        W95304  27.965  14.806   4.325
22880W        W95305  13.346  29.222   1.347
22881W        W95306  41.924  25.929   4.596
22882W        W95307  10.715  10.639  13.272
22883W        W95308   2.853  31.511  12.908
22884W        W95309  36.885  23.151  12.978
22885W        W95310  35.032   2.781  10.664
22886W        W95311   3.265  15.794   1.127
22887W        W95312   7.371   1.790   0.686
22888W        W95313  34.137   6.805  14.524
22889W        W95314  14.566  26.195   4.595
22890W        W95315  14.625  35.418   2.142
22891W        W95316   5.817  13.786  14.143
22892W        W95317  18.959  13.652   4.773
22893W        W95318  20.875  23.627   3.352
22894W        W95319  12.905  29.554   0.004
22895W        W95320  28.397   3.161   4.687
22896W        W95321  40.814  16.763   3.748
22897W        W95322   8.572  44.535  11.648
22898W        W95323   9.682   4.374   4.642
22899W        W95324   7.106   2.160   3.104
22900W        W95325   1.196   7.739  13.200
22901W        W95326   0.503  34.919   2.768
22902W        W95327  32.068  22.180   9.909
22903W        W95328  41.189  21.386  12.924
22904W        W95329   8.367  14.915   4.639
22905W        W95330  43.957  28.942  14.559
22906W        W95331  44.013  20.106  13.897
22907W        W95332  10.683  12.812  14.308
22908W        W95333  37.050  25.585   2.052
22909W        W95334  13.738  16.605   1.914
22910W        W95335  24.214  34.439  12.523
22911W        W95336  32.564  28.440   2.638
22912W        W95337  36.923  16.500   2.781
22913W        W95338  32.964  38.198   4.052
22914W        W95339  13.745  37.951  14.417
22915W        W95340   5.845  13.857  13.079
22916W        W95341   4.706  25.804   1.241
22917W        W95342   3.668  38.829  13.988
22918W        W95343   1.327   5.982   4.253
22919W        W95344  27.212  29.813   5.442
22920W        W95345  39.980  12.293  13.328
22921W        W95346  39.416  37.918  11.280
22922W        W95347  25.839  34.934   0.332
22923W        W95348  37.717  36.158   0.996
22924W        W95349  25.794  12.282  14.476
22925W        W95350  43.925   2.414   2.372
22926W        W95351  19.670   3.775  14.626
22927W        W95352   4.409  17.018  12.014
22928W        W95353   3.196   2.351   0.304
22929W        W95354  17.092  31.179  12.558
22930W        W95355  32.451   0.342  10.897
22931W        W95356  10.209  19.054  11.537
22932W        W95357  13.113  20.550   4.256
22933W        W95358  42.752  15.126   2.654
22934W        W95359   0.730   4.821   1.988
22935W        W95360  44.493  31.838  12.396
22936W        W95361  12.753  22.641  12.493
22937W        W95362   0.911   8.103  13.425
22938W        W95363   6.693  34.216   2.670
22939W        W95364  43.338   7.902   2.199
22940W        W95365  23.286  30.059   0.381
22941W        W95366  12.728   1.476   4.798
22942W        W95367  15.020   6.437   0.723
22943W        W95368  16.810  26.836   0.807
22944W        W95369  38.302  18.309  12.834
22945W        W95370   2.199  15.345   5.061
22946W        W95371   1.760  41.455  14.083
22947W        W95372  31.094  28.955   4.860
22948W        W95373  40.523  28.927   3.821
22949W        W95374  15.404  10.936  11.213
22950W        W95375   0.298  17.842  14.359
22951W        W95376  10.312  38.039  12.219
22952W        W95377  22.034  23.296   2.798
22953W        W95378  23.965  40.939   4.646
22954W        W95379  17.567  35.674   3.026
22955W        W95380  20.781  25.929   3.800
22956W        W95381  24.105  18.823   2.702
22957W        W95382  34.374  31.909   4.622
22958W        W95383  31.476  43.346  14.340
22959W        W95384  36.084  19.332   1.955
22960W        W95385  18.154  20.975   4.094
22961W        W95386  23.688  42.747   3.780
22962W        W95387  41.633   9.384   1.157
22963W        W95388  12.179  11.738   1.791
22964W        W95389   5.209   5.716   2.466
22965W        W95390  39.103  15.492  14.811
22966W        W95391  17.229  31.622  13.931
22967W        W95392   9.639  18.720   3.945
22968W        W95393   4.236  38.121  11.242
22969W        W95394  20.703   6.236  10.745
22970W        W95395  31.008  27.036  11.145
22971W        W95396  19.822  32.148   3.803
22972W        W95397   3.851  26.907   4.140
22973W        W95398  24.513   7.884  12.561
22974W        W95399  31.949   5.011   4.543
22975W        W95400  16.361  37.324  13.530
22976W        W95401  25.579   1.789   0.893
22977W        W95402  40.262  44.262  11.922
22978W        W95403  26.617   3.651  13.992
22979W        W95404  24.638  14.605  12.997
22980W        W95405  22.619  30.026  14.505
22981W        W95406  15.269  21.622  14.922
22982W        W95407  37.290  10.831  14.012
22983W        W95408  37.282  16.026  11.845
22984W        W95409  16.409  42.618  13.271
22985W        W95410  30.165   1.217   0.437
22986W        W95411  43.715  35.263  12.835
22987W        W95412  34.042  43.330   2.754
22988W        W95413  22.363  10.476   3.357
22989W        W95414   7.179  21.797   2.880
22990W        W95415  41.733   8.577  11.213
22991W        W95416  35.021  21.624   0.944
22992W        W95417  26.275  19.747   1.939
22993W        W95418  27.785  28.031   2.302
22994W        W95419  38.951   3.464   3.208
22995W        W95420  19.471   8.164   4.250
22996W        W95421   8.774  30.553   0.249
22997W        W95422  25.610  31.875   0.277
22998W        W95423  33.856  20.690   4.057
22999W        W95424  15.122   4.652   2.761
23000W        W95425   5.015  42.492  13.390
23001W        W95426  41.904  37.377   2.286
23002W        W95427  26.547  36.447   2.350
23003W        W95428  37.861  26.628   4.234
23004W        W95429  44.239   6.141  13.993
23005W        W95430  41.356  31.443   3.176
23006W        W95431   2.315  18.118   0.252
23007W        W95432  37.644   6.695   0.829
23008W        W95433  43.497   5.268   1.837
23009W        W95434  29.479  43.077  13.912
23010W        W95435  23.110  30.933   0.961
23011W        W95436  19.835   3.369   4.581
23012W        W95437  27.071  39.421   0.387
23013W        W95438  36.206   5.304  11.578
23014W        W95439   4.183  12.291  11.497
23015W        W95440  36.631  42.539  11.974
23016W        W95441  30.884  39.906   5.427
23017W        W95442  33.627   3.683  12.518
23018W        W95443  21.017  11.774  14.358
23019W        W95444  39.596  21.698   0.356
23020W        W95445  43.796  43.156  12.948
23021W        W95446  29.916  19.026  13.010
23022W        W95447  41.573  19.380   2.309
23023W        W95448  28.082  35.813  10.039
23024W        W95449  28.063  24.464  12.879
23025W        W95450   1.416  28.192   3.758
23026W        W95451  22.374   9.629  13.589
23027W        W95452  27.786   3.969  12.603
23028W        W95453   3.335   6.351   4.129
23029W        W95454  11.157  29.296  14.293
23030W        W95455  39.594  24.733  12.669
23031W        W95456   1.248   7.261   3.188
23032W        W95457  22.568  15.414   1.793
23033W        W95458  12.409  13.186   3.946
23034W        W95459  38.019  13.905   2.595
23035W        W95460  13.045  19.619  13.004
23036W        W95461  38.832  31.020  11.752
23037W        W95462  18.131  17.761  13.243
23038W        W95463  22.520  42.409  13.985
23039W        W95464   0.984  40.911  12.987
23040W        W95465   3.704  27.581   2.437
23041W        W95466  38.245  32.702   2.690
23042W        W95467  22.135   8.255  11.109
23043W        W95468  12.818  25.776  12.970
23044W        W95469  43.257  32.009  11.678
23045W        W95470   0.803  29.486  14.855
23046W        W95471   2.857  36.381   2.569
23047W        W95472  15.633   7.952   2.829
23048W        W95473  19.780  30.654  12.967
23049W        W95474  34.357   4.696   1.303
23050W        W95475  43.844   7.745   0.580
23051W        W95476   7.824   0.344  13.080
23052W        W95477   0.447  40.348   1.295
23053W        W95478   5.598  42.895   3.127
23054W        W95479  29.362  42.717  11.192
23055W        W95480  23.639  20.445  12.928
23056W        W95481   3.205  14.235   4.424
23057W        W95482  41.650  26.566   2.343
23058W        W95483  44.839  10.690   1.385
23059W        W95484  29.586  29.540  14.888
23060W        W95485  17.733  16.519  11.026
23061W        W95486  31.896  11.752   1.938
23062W        W95487  41.741   5.091   0.418
23063W        W95488  29.761  19.705   0.838
23064W        W95489  14.289  16.636  14.723
23065W        W95490   4.198  22.592  11.197
23066W        W95491  31.138  10.204   4.220
23067W        W95492  34.046  37.547   3.899
23068W        W95493  29.174  32.680  14.583
23069W        W95494  20.014  43.975   4.025
23070W        W95495  40.053  18.287  13.990
23071W        W95496  36.907  19.220   3.339
23072W        W95497  31.890  18.296   0.761
23073W        W95498   4.858  42.921   0.857
23074W        W95499  44.885  41.508   0.445
23075W        W95500  31.441   5.472   1.377
23076W        W95501  18.532   8.232  10.495
23077W        W95502   5.819  26.971   1.837
23078W        W95503   7.245  35.866   1.433
23079W        W95504   7.415  28.600   3.668
23080W        W95505  34.473  23.699  10.669
23081W        W95506   8.081  23.497   3.618
23082W        W95507  31.326  12.160   0.284
23083W        W95508  39.478  35.109   0.888
23084W        W95509  40.403  18.525   1.355
23085W        W95510   0.514  42.506   3.222
23086W        W95511   8.808  12.642   0.504
23087W        W95512  35.945  34.895  14.261
23088W        W95513  35.858  36.427  11.160
23089W        W95514   1.756  25.457  10.588
23090W        W95515  41.840  14.228   2.740
23091W        W95516  36.232  25.317  14.938
23092W        W95517   9.194  30.222   0.331
23093W        W95518   0.227  27.531  10.607
23094W        W95519  29.595  20.542   2.625
23095W        W95520   4.213   7.639  14.457
23096W        W95521  24.549  19.980  12.804
23097W        W95522  14.748  38.911  14.733
23098W        W95523   1.112  38.959   1.276
23099W        W95524  10.897   9.758  14.928
23100W        W95525  36.280  29.567  14.614
23101W        W95526  41.287  37.661   4.244
23102W        W95527  26.389  31.958  13.028
23103W        W95528   5.872  17.734   2.488
23104W        W95529   1.940   9.931  13.758
23105W        W95530  24.445  33.969   2.905
23106W        W95531  14.612  44.021  12.849
23107W        W95532  25.696  36.013   4.496
23108W        W95533  10.627  29.216  12.499
23109W        W95534  23.156  41.030   4.132
23110W        W95535  35.534  22.932  13.015
23111W        W95536  30.015  36.918  14.089
23112W        W95537  39.492  39.582   1.754
23113W        W95538   1.516   1.488   0.826
23114W        W95539  10.182   5.631   2.348
23115W        W95540  16.816  41.910   2.392
23116W        W95541  18.226  22.806   3.118
23117W        W95542  16.715  40.391   3.893
23118W        W95543   7.494  42.045  12.851
23119W        W95544  36.764  35.473   0.429
23120W        W95545  27.531  19.581  11.676
23121W        W95546  16.373  26.161   3.659
23122W        W95547  11.988  30.696  14.238
23123W        W95548  23.931  22.289  12.440
23124W        W95549   3.187  42.454  10.588
23125W        W95550  16.288  22.640   4.491
23126W        W95551   8.644  44.155   3.024
23127W        W95552  10.063  42.232   1.830
23128W        W95553  20.189  28.156  13.835
23129W        W95554  19.561  40.786  11.918
23130W        W95555  42.283  26.427   1.187
23131W        W95556  16.239  39.094  12.013
23132W        W95557   2.806  22.945   2.809
23133W        W95558   2.857  22.199   1.613
23134W        W95559  44.540  31.021  12.315
23135W        W95560  42.702  37.846  12.316
23136W        W95561  20.747   3.548   0.946
23137W        W95562  43.989  13.775   3.377
23138W        W95563   2.217  36.486  13.099
23139W        W95564  40.389  18.698  14.095
23140W        W95565   0.826  38.407  14.358
23141W        W95566   2.395  30.632   2.310
23142W        W95567   7.918  33.447   1.888
23143W        W95568  41.421  21.646  14.742
23144W        W95569  19.279  36.014   2.067
23145W        W95570  30.895  21.661   9.797
23146W        W95571  10.339  11.313  12.369
23147W        W95572  15.160  19.544   3.796
23148W        W95573  30.693  10.598  14.472
23149W        W95574  15.736   0.509   3.850
23150W        W95575  25.663   7.873   5.070
23151W        W95576  15.829   1.472   2.688
23152W        W95577  34.678   8.389  10.113
23153W        W95578  17.761   0.189   4.637
23154W        W95579  39.803  36.603  11.158
23155W        W95580   5.282  32.156   4.157
23156W        W95581  16.279  44.543   0.884
23157W        W95582  25.005  31.164  13.592
23158W        W95583  43.487  42.744   0.189
23159W        W95584   8.488  13.696  12.601
23160W        W95585  32.039  34.785  14.816
23161W        W95586  30.133   8.541   3.753
23162W        W95587  43.614   8.782   5.132
23163W        W95588  10.304  11.304   1.814
23164W        W95589  33.787  16.284  13.362
23165W        W95590  40.032  19.254  13.453
23166W        W95591  40.556  42.282   3.818
23167W        W95592  27.981   0.711  11.416
23168W        W95593  10.861   3.462  14.852
23169W        W95594  28.644  40.276   2.558
23170W        W95595  28.558  24.660  13.922
23171W        W95596  39.413   4.743   1.149
23172W        W95597  12.358  36.627  11.435
23173W        W95598  22.838  10.785  11.860
23174W        W95599  27.020  19.214   4.681
23175W        W95600   1.570   3.432   0.873
23176W        W95601  40.629  44.701   1.033
23177W        W95602   3.798  42.048   4.728
23178W        W95603  34.098  41.761  11.589
23179W        W95604  31.820  20.167   4.638
23180W        W95605  28.595   7.380  11.548
23181W        W95606   9.576  18.232  13.864
23182W        W95607  25.355  14.933  10.910
23183W        W95608  30.386  29.472  10.512
23184W        W95609  13.718  42.569   4.464
23185W        W95610  33.083   2.482  12.956
23186W        W95611   3.070  10.891  10.559
23187W        W95612  15.692   6.448   5.052
23188W        W95613   2.277  14.589   2.677
23189W        W95614  43.920   2.948  14.461
23190W        W95615  19.339  43.073   3.165
23191W        W95616  37.080   3.756  10.982
23192W        W95617   1.378  36.835   3.226
23193W        W95618  21.291  31.382  11.631
23194W        W95619  32.683  32.384  11.558
23195W        W95620  41.911  39.878  12.628
23196W        W95621  40.486  13.599   4.560
23197W        W95622  16.237   6.165  10.637
23198W        W95623  22.204  11.279  12.515
23199W        W95624  43.968  20.080  13.372
23200W        W95625  43.930  29.764  12.940
23201W        W95626  41.868  42.377  11.805
23202W        W95627  27.271  29.484  13.523
23203W        W95628  23.387  10.993  11.787
23204W        W95629  30.459  12.574  13.890
23205W        W95630  31.141  13.198  10.021
23206W        W95631  28.033  41.116   5.386
23207W        W95632  35.809  37.504  12.494
23208W        W95633  36.515  26.341  14.981
23209W        W95634  17.101   6.330  14.370
23210W        W95635  22.299  27.578  13.479
23211W        W95636  34.003   2.330  12.415
23212W        W95637  30.638  16.643   2.325
23213W        W95638  32.335  14.263   4.977
23214W        W95639  10.326   8.759   1.422
23215W        W95640  12.547  28.049   0.698
23216W        W95641  20.161  38.882  12.686
23217W        W95642  20.090   0.986   4.143
23218W        W95643  42.621  17.149  11.266
23219W        W95644  39.754  29.490  13.632
23220W        W95645  40.856  11.556  11.000
23221W        W95646  15.228  24.511   2.640
23222W        W95647   2.231   8.682  11.398
23223W        W95648  44.031  27.031   3.240
23224W        W95649  33.298   1.232  12.423
23225W        W95650   6.130  22.545   1.793
23226W        W95651  28.449  27.379   3.285
23227W        W95652  38.874  44.270   4.118
23228W        W95653  42.650  11.829  13.925
23229W        W95654  41.454   0.458   1.274
23230W        W95655  28.984  38.974   4.993
23231W        W95656  22.506  18.585  14.567
23232W        W95657  26.582  34.024   0.030
23233W        W95658  33.162  16.244  14.496
23234W        W95659  42.348  31.172   2.482
23235W        W95660  30.102  32.489   3.626
23236W        W95661  17.579  11.727   3.596
23237W        W95662  25.948  23.100   1.853
23238W        W95663  21.986  18.345   1.762
23239W        W95664  15.226  44.607  11.253
23240W        W95665   4.871  27.165   1.169
23241W        W95666  21.402   2.501  13.311
23242W        W95667  29.233  19.808  11.870
23243W        W95668  29.424   4.351   1.712
23244W        W95669  19.407   7.598  11.511
23245W        W95670  38.983   5.604   2.340
23246W        W95671  12.880   2.026  10.185
23247W        W95672  34.492  37.608   1.257
23248W        W95673  28.295  27.283  14.354
23249W        W95674  32.849   4.153  10.880
23250W        W95675  40.607  16.512  13.407
23251W        W95676  19.633  29.709  10.630
23252W        W95677   2.151  41.167   3.151
23253W        W95678  22.667   8.720   1.062
23254W        W95679  17.083  37.278  10.691
23255W        W95680  28.209  36.734   2.352
23256W        W95681   3.217  17.070   3.310
23257W        W95682  38.357  27.918  13.382
23258W        W95683  41.907  28.792  14.028
23259W        W95684  40.802  25.256   2.325
23260W        W95685  44.434   5.149  12.050
23261W        W95686  40.866  21.063  14.699
23262W        W95687  42.381  29.951  11.713
23263W        W95688   3.736  16.305   4.513
23264W        W95689  12.895  22.047  12.918
23265W        W95690  36.437  26.396   2.886
23266W        W95691  33.956  21.247   2.776
23267W        W95692  25.119  33.354  10.442
23268W        W95693  20.087  14.808  13.911
23269W        W95694  35.594  10.635   4.121
23270W        W95695  25.491  37.971   2.398
23271W        W95696   3.844   6.137  11.074
23272W        W95697  29.426  16.082  12.536
23273W        W95698  19.196  16.287  13.349
23274W        W95699  10.757   1.715   3.887
23275W        W95700  23.009  25.010   2.709
23276W        W95701  39.255  26.982  12.132
23277W        W95702  12.633  11.225   0.314
23278W        W95703  33.174   2.017   0.874
23279W        W95704  11.277  16.451  12.226
23280W        W95705  38.840  24.917  11.528
23281W        W95706  35.758   0.540   0.454
23282W        W95707   1.284  31.504  11.402
23283W        W95708  16.260  26.180  14.795
23284W        W95709  34.142   9.203   1.271
23285W        W95710  15.331   5.506   2.227
23286W        W95711  26.379  25.576  10.415
23287W        W95712  30.467  18.557  11.469
23288W        W95713  44.161   7.399  14.249
23289W        W95714  30.486  25.677  13.089
23290W        W95715   7.262  38.894  11.792
23291W        W95716  28.116  21.221  10.699
23292W        W95717  30.693  43.366   4.655
23293W        W95718  31.622  43.307   0.777
23294W        W95719  25.730   6.314  13.577
23295W        W95720  42.221  22.981  14.062
23296W        W95721  41.476  30.178  10.705
23297W        W95722   6.715  27.538  12.957
23298W        W95723   4.236  13.384   1.432
23299W        W95724  20.223  14.443  13.475
23300W        W95725   4.255  29.629   4.013
23301W        W95726  27.610   3.460   0.477
23302W        W95727   4.045  26.540  10.149
23303W        W95728  16.100   1.766   3.854
23304W        W95729  19.476  10.804   1.259
23305W        W95730  36.969  23.894  11.644
23306W        W95731   9.061  37.906   1.893
23307W        W95732  24.099  30.377  11.063
23308W        W95733  32.197  32.100  11.237
23309W        W95734   6.736  35.990  10.715
23310W        W95735   5.363  10.878   1.702
23311W        W95736  40.464  17.743   0.929
23312W        W95737  17.998  38.849   4.048
23313W        W95738  28.405  29.029   1.470
23314W        W95739   5.874  31.127  11.978
23315W        W95740  29.632  25.279   0.438
23316W        W95741  16.068  17.346   3.149
23317W        W95742  22.022  42.808   1.877
23318W        W95743   4.323  15.348  14.702
23319W        W95744  17.024  14.673   0.878
23320W        W95745  42.571  22.945   1.102
23321W        W95746   6.317  12.724   3.520
23322W        W95747  12.616  29.448   1.400
23323W        W95748  20.428   5.982  12.594
23324W        W95749  34.606   7.601  11.984
23325W        W95750  16.030  30.760   3.825
23326W        W95751  43.302   0.915  11.562
23327W        W95752  27.750  31.044   0.818
23328W        W95753  24.980  19.314   2.917
23329W        W95754  17.325  25.658  11.973
23330W        W95755  11.188  40.912   4.734
23331W        W95756  16.620  24.258   2.571
23332W        W95757  26.588  23.072  14.036
23333W        W95758  35.860  20.031  14.470
23334W        W95759  15.723   9.798  11.610
23335W        W95760  39.206  42.726  10.386
23336W        W95761  24.028  26.202   3.660
23337W        W95762  26.327  43.937   2.140
23338W        W95763  39.586   0.663  13.773
23339W        W95764  31.108  15.470  12.102
23340W        W95765  40.438   4.656  12.583
23341W        W95766  24.702  34.488   1.163
23342W        W95767  26.778  16.152   1.666
23343W        W95768  17.780   6.203   0.874
23344W        W95769  30.103  30.508   3.839
23345W        W95770   2.783  13.754   1.318
23346W        W95771  34.510  42.228   0.370
23347W        W95772  24.127  33.110  12.995
23348W        W95773  15.610  37.975  14.293
23349W        W95774  29.423  23.000   0.977
23350W        W95775  43.859  27.030  14.377
23351W        W95776  41.301  26.145   2.316
23352W        W95777  37.229  23.424   0.164
23353W        W95778  22.753  24.100   2.826
23354W        W95779  38.408  13.391  12.663
23355W        W95780   4.648  21.688  11.539
23356W        W95781  17.128  36.107  13.142
23357W        W95782   1.755  15.880  14.750
23358W        W95783  36.283   9.237   5.555
23359W        W95784  37.636  21.227  14.488
23360W        W95785   2.888   7.103  14.782
23361W        W95786  39.953  30.011  14.387
23362W        W95787  41.258  17.980  14.776
23363W        W95788  26.156  32.088  13.468
23364W        W95789  10.348  40.890   4.068
23365W        W95790   3.845  40.420   0.248
23366W        W95791  26.082  34.410   4.140
23367W        W95792   8.310  26.992   2.595
23368W        W95793   7.291   7.373   3.662
23369W        W95794  43.403   1.345  13.980
23370W        W95795  34.341  38.975  10.439
23371W        W95796  41.341  26.449  12.373
23372W        W95797  40.497  21.742  13.749
23373W        W95798   3.801  25.459   1.313
23374W        W95799  34.891  30.587  12.457
23375W        W95800  35.412   5.009  12.648
23376W        W95801  12.239  31.927  12.938
23377W        W95802  14.378   3.823  11.666
23378W        W95803  16.784  16.201   0.297
23379W        W95804  18.351  35.980  14.947
23380W        W95805  39.539  16.749   1.426
23381W        W95806   9.708  12.917   4.054
23382W        W95807  16.777  34.466  14.760
23383W        W95808  31.668  34.052  12.381
23384W        W95809   9.023  38.009   4.601
23385W        W95810   3.196  19.852  12.851
23386W        W95811   3.970  24.577  10.773
23387W        W95812  13.865  40.822  12.094
23388W        W95813  26.673  13.386   0.394
23389W        W95814  16.673  30.035  11.989
23390W        W95815  41.980  29.537  12.828
23391W        W95816  32.673  22.003  14.274
23392W        W95817  20.170   0.788  13.452
23393W        W95818   4.888  42.142  11.606
23394W        W95819  12.199  37.467   3.470
23395W        W95820  32.979  43.573   0.342
23396W        W95821  26.292   6.282   4.296
23397W        W95822   1.218  16.780  12.916
23398W        W95823  44.964  25.057   3.909
23399W        W95824  20.253   1.975   1.681
23400W        W95825   8.948   2.405   5.106
23401W        W95826   2.357   1.192  11.299
23402W        W95827  36.834   2.769   0.357
23403W        W95828  44.916  35.285  14.509
23404W        W95829  23.148   3.618  12.584
23405W        W95830  40.607  37.043   1.255
23406W        W95831  10.662   0.898  11.560
23407W        W95832  37.820  15.187  12.434
23408W        W95833  27.685  23.071  13.974
23409W        W95834  14.721  11.852  12.119
23410W        W95835  27.614   4.639   3.718
23411W        W95836  19.104  12.640   1.356
23412W        W95837  37.860  37.778   2.352
23413W        W95838  33.864  18.000   0.385
23414W        W95839  29.987  14.088   2.861
23415W        W95840  31.742  29.037   1.797
23416W        W95841  27.031  14.129  12.516
23417W        W95842  31.421  25.080   3.185
23418W        W95843  39.480   9.191   0.429
23419W        W95844  12.870  28.406   3.368
23420W        W95845  42.908  18.937  11.144
23421W        W95846  15.353   8.171  14.399
23422W        W95847  38.550  37.656  13.551
23423W        W95848  12.327  15.273   0.491
23424W        W95849  29.552  20.442   5.452
23425W        W95850  33.067  27.713   0.934
23426W        W95851  21.758  38.313  12.529
23427W        W95852  14.279  33.924   2.155
23428W        W95853  15.849  30.150  11.082
23429W        W95854   1.800  17.158  14.351
23430W        W95855  38.477  35.413  13.955
23431W        W95856   9.575   4.903   1.438
23432W        W95857   1.789  30.733   3.382
23433W        W95858   5.289  43.728  14.453
23434W        W95859  11.118  19.056   4.202
23435W        W95860  17.121  22.047   2.682
23436W        W95861  32.118  21.248   1.254
23437W        W95862  37.392   8.374   0.057
23438W        W95863  26.524  44.692  10.927
23439W        W95864  36.568  25.981   3.140
23440W        W95865   8.805   8.584  11.681
23441W        W95866  33.299  16.562  14.088
23442W        W95867   6.884  14.562  11.852
23443W        W95868  42.047  41.455  14.281
23444W        W95869  20.170  38.301   2.830
23445W        W95870   1.326  28.897  13.787
23446W        W95871  34.944  12.825  10.769
23447W        W95872  19.649  41.851  12.759
23448W        W95873   6.947  44.487   3.841
23449W        W95874  34.566   2.740   0.767
23450W        W95875  41.485  33.620  14.280
23451W        W95876   2.458  27.422  12.890
23452W        W95877   9.444  32.618   1.857
23453W        W95878  32.338   8.933   1.235
23454W        W95879  35.979  42.136  10.707
23455W        W95880  38.360  31.787   0.287
23456W        W95881  30.051   1.250   2.266
23457W        W95882  13.870  27.717  13.165
23458W        W95883   6.379  31.097  14.037
23459W        W95884  14.178  24.282   9.737
23460W        W95885  21.077   8.568  10.271
23461W        W95886  20.015  13.211   0.438
23462W        W95887  11.890  35.117  10.112
23463W        W95888  27.464  23.654  10.750
23464W        W95889  39.356   5.154   4.109
23465W        W95890  23.619  13.245  14.149
23466W        W95891  12.073  20.725  12.841
23467W        W95892   1.975  19.836   4.139
23468W        W95893  38.348  34.970   1.026
23469W        W95894  17.345   9.581   4.564
23470W        W95895  18.547   1.876   0.812
23471W        W95896  25.212   4.003   2.687
23472W        W95897  36.357   0.219   4.075
23473W        W95898  33.189  25.149   1.372
23474W        W95899  27.471  41.031   1.463
23475W        W95900  15.747  20.049  12.282
23476W        W95901  31.513  23.751  10.196
23477W        W95902   7.831  15.800   2.660
23478W        W95903  20.800  40.070  12.930
23479W        W95904  28.144  28.929  12.139
23480W        W95905   7.067  34.433   3.223
23481W        W95906   8.272  32.673  14.735
23482W        W95907  12.806  12.275  10.977
23483W        W95908  34.795  40.362  11.496
23484W        W95909  31.943  23.239  14.992
23485W        W95910   3.550  20.271   0.809
23486W        W95911   9.354  24.723  14.569
23487W        W95912  31.086  28.592   1.149
23488W        W95913  12.190  11.352  12.022
23489W        W95914  43.274   0.366   2.404
23490W        W95915   7.196  11.135   4.555
23491W        W95916   9.364  39.443  14.146
23492W        W95917   4.226  35.688  13.546
23493W        W95918  38.494   9.710  10.168
23494W        W95919  18.590  12.753   4.651
23495W        W95920   8.391  19.618   2.287
23496W        W95921  12.649  13.752   1.139
23497W        W95922  35.810  35.026  13.759
23498W        W95923  16.343  12.553   0.908
23499W        W95924  20.612  20.191  10.828
23500W        W95925  39.042  24.679   1.703
23501W        W95926  44.529  39.353   1.833
23502W        W95927   5.275  20.316  13.239
23503W        W95928  42.406  39.455  11.116
23504W        W95929  38.834   0.921   1.296
23505W        W95930  44.419  36.526   1.281
23506W        W95931  11.471  26.961  12.517
23507W        W95932  21.723  27.179  14.365
23508W        W95933  38.912   1.626   1.884
23509W        W95934  38.472   9.646   1.142
23510W        W95935   3.288   3.552   1.727
23511W        W95936  36.914   0.331  12.406
23512W        W95937  15.859   6.266  11.175
23513W        W95938  16.571  33.500  10.661
23514W        W95939   0.249  31.023  10.643
23515W        W95940  29.513  12.417  13.072
23516W        W95941  21.217  10.842  13.407
23517W        W95942  18.761  10.835  11.155
23518W        W95943  11.306  12.331   4.638
23519W        W95944  16.902  39.601   2.689
23520W        W95945  39.325   8.771   4.403
23521W        W95946   1.395  14.664   0.089
23522W        W95947  39.350  11.110   0.731
23523W        W95948  43.030  19.369   4.143
23524W        W95949  20.319  42.528  14.904
23525W        W95950   0.162  20.226  11.442
23526W        W95951   8.422  35.074   0.259
23527W        W95952  37.491  39.251  12.995
23528W        W95953  43.421  15.561   4.142
23529W        W95954   9.510  35.083  11.446
23530W        W95955  33.972  10.830  13.946
23531W        W95956  42.665   6.795  10.373
23532W        W95957  27.049   1.045   2.867
23533W        W95958   4.216  33.194  11.687
23534W        W95959  29.158  23.958   3.774
23535W        W95960  12.571  22.901  12.057
23536W        W95961  13.313  16.207   0.088
23537W        W95962  39.771  35.550  11.893
23538W        W95963  25.266   2.669  12.550
23539W        W95964   7.368  15.650   0.740
23540W        W95965  26.909  14.244  11.601
23541W        W95966  41.474  27.306   3.672
23542W        W95967  42.341  14.421  11.586
23543W        W95968  26.386   9.452  11.118
23544W        W95969  27.164  21.979   4.384
23545W        W95970  29.736  13.745  11.623
23546W        W95971  23.882  33.521  12.412
23547W        W95972  10.294  16.359   4.162
23548W        W95973  42.282   8.232   1.449
23549W        W95974  43.663  20.347  10.469
23550W        W95975  19.675  34.559  11.535
23551W        W95976   5.652   3.536  11.701
23552W        W95977   6.356  15.163   1.673
23553W        W95978  23.724  39.054  12.999
23554W        W95979  16.308  31.706  10.239
23555W        W95980  31.305  40.469  10.871
23556W        W95981   0.097  14.780   2.678
23557W        W95982  10.702   6.860   4.579
23558W        W95983  26.695  27.962  14.949
23559W        W95984  22.201  36.786   0.261
23560W        W95985  12.824  27.527  14.840
23561W        W95986  21.143  13.334  13.299
23562W        W95987   1.635  15.267  11.996
23563W        W95988  13.013  38.121   1.694
23564W        W95989  24.029  28.290  13.135
23565W        W95990  10.201  39.239  11.534
23566W        W95991  13.092  23.385  10.407
23567W        W95992  20.090  22.737  13.022
23568W        W95993   4.936  25.172  11.282
23569W        W95994   8.763  40.130   3.288
23570W        W95995  36.110  17.824  11.151
23571W        W95996  12.278   1.280   3.682
23572W        W95997   2.915   2.456  13.547
23573W        W95998  30.644  13.355   3.116
23574W        W95999  24.793   8.444  13.476
23575W        W96000  23.027  20.642   3.799
23576W        W96001  13.500  21.293  13.863
23577W        W96002  22.995  35.504  14.522
23578W        W96003  16.429  34.719   4.977
23579W        W96004  26.745  12.610  13.399
23580W        W96005   4.652  15.733   4.070
23581W        W96006   8.777  15.936  11.603
23582W        W96007  15.230  19.109  13.487
23583W        W96008   8.480  32.946   2.333
23584W        W96009  41.439   1.167  11.529
23585W        W96010   1.497   6.153  11.075
23586W        W96011  27.794  18.597   1.265
23587W        W96012  10.574  22.509   3.754
23588W        W96013   3.953  16.701   3.056
23589W        W96014  15.723  35.319  11.507
23590W        W96015  33.993  32.803  13.396
23591W        W96016   1.621  30.946  14.829
23592W        W96017  39.390   3.350   4.412
23593W        W96018  19.329   1.254   3.185
23594W        W96019  26.119  38.526  12.409
23595W        W96020  37.614  42.435   2.452
23596W        W96021  11.104  44.015   3.660
23597W        W96022  41.493  27.085   2.306
23598W        W96023  43.542  43.001   2.528
23599W        W96024  33.553  10.303   0.427
23600W        W96025   5.348  10.798   4.603
23601W        W96026  16.039  44.726   1.296
23602W        W96027   6.418   0.712  14.067
23603W        W96028  36.089  30.360  12.512
23604W        W96029   3.454  27.492   0.460
23605W        W96030  15.045   5.096   4.368
23606W        W96031  33.584  14.735   0.929
23607W        W96032   5.679  26.263  12.454
23608W        W96033  37.412  19.816   2.798
23609W        W96034  16.958  28.003  12.139
23610W        W96035   7.404  42.786   2.333
23611W        W96036   0.748  17.208  12.371
23612W        W96037   7.459  44.421   0.801
23613W        W96038  22.066   1.162   3.348
23614W        W96039   6.688  26.649  13.903
23615W        W96040  39.278   0.381  10.932
23616W        W96041   7.961  11.873   0.474
23617W        W96042  18.347  40.872  14.006
23618W        W96043  26.496  16.164  13.005
23619W        W96044  32.663  34.853   1.326
23620W        W96045   1.504  21.205  12.227
23621W        W96046  35.997  34.113  11.618
23622W        W96047  25.737  27.907   5.412
23623W        W96048   0.756   7.094  10.774
23624W        W96049  28.117  17.757  14.007
23625W        W96050  22.621   4.871  11.836
23626W        W96051  29.773  35.770  11.484
23627W        W96052   3.028  42.848  12.516
23628W        W96053  36.531  42.479   3.133
23629W        W96054  14.233   3.203   4.112
23630W        W96055  38.024  10.081  12.920
23631W        W96056  40.186  35.138   4.095
23632W        W96057  23.683  34.248  11.084
23633W        W96058  31.411   2.706  12.441
23634W        W96059  44.762  20.962  11.088
23635W        W96060  34.309  21.686  14.462
23636W        W96061  43.337   8.075   2.685
23637W        W96062  15.560  39.498  11.974
23638W        W96063  18.609  42.760  14.396
23639W        W96064  10.795   7.392   3.818
23640W        W96065  44.485  43.506   1.811
23641W        W96066  34.052  39.288   3.896
23642W        W96067  28.188   1.047   3.247
23643W        W96068  26.466  35.162  13.443
23644W        W96069   9.161  30.808  11.801
23645W        W96070   9.313  14.798  14.028
23646W        W96071  29.851   7.249  11.173
23647W        W96072  26.045  29.909   0.422
23648W        W96073  25.628   0.784  12.000
23649W        W96074   7.806  31.134  14.756
23650W        W96075   4.198  34.018  13.356
23651W        W96076  34.202   2.813  14.807
23652W        W96077   9.534  13.786   2.809
23653W        W96078  13.108  30.356   3.317
23654W        W96079  23.023  44.039   2.340
23655W        W96080  22.439   1.540   5.007
23656W        W96081  28.907  36.372   4.257
23657W        W96082  28.104   8.627  12.406
23658W        W96083  10.820  33.957   0.939
23659W        W96084  17.216   0.834  14.985
23660W        W96085  43.559   0.865   1.765
23661W        W96086  44.497  24.881   5.078
23662W        W96087   1.335  34.035  13.760
23663W        W96088  35.962  30.368  13.252
23664W        W96089  23.767  25.067  10.608
23665W        W96090  27.193  35.921   0.839
23666W        W96091   5.020   4.742  13.405
23667W        W96092  11.679  15.769  14.470
23668W        W96093  23.089  15.844   3.117
23669W        W96094  37.264  43.717   1.670
23670W        W96095  26.596  41.861  11.972
23671W        W96096  20.694  44.079   1.965
23672W        W96097  35.671   0.649  11.523
23673W        W96098  36.413  40.562  13.316
23674W        W96099  43.905  22.976   2.703
23675W        W96100  17.704  39.268  11.595
23676W        W96101  20.711  14.725   0.368
23677W        W96102   8.627  21.486  11.089
23678W        W96103  28.421  16.023  13.020
23679W        W96104  12.399  14.279  14.372
23680W        W96105  28.159  12.871   0.280
23681W        W96106  31.327   4.987  11.500
23682W        W96107  17.533  40.858   0.229
23683W        W96108  25.184  11.627  12.563
23684W        W96109  24.587  11.315   9.652
23685W        W96110  44.914  37.335   2.002
23686W        W96111   4.181  17.325  14.805
23687W        W96112  20.528   3.638  13.494
23688W        W96113  27.810  13.868  11.698
23689W        W96114  13.329  28.095   4.590
23690W        W96115   2.654  11.654   3.258
23691W        W96116  19.537  30.441   1.668
23692W        W96117  36.339   8.868  10.144
23693W        W96118  23.883  31.936   1.414
23694W        W96119  10.135  29.022  11.542
23695W        W96120   4.719  39.162  13.295
23696W        W96121  40.554  35.009   5.449
23697W        W96122  31.695  37.054   1.378
23698W        W96123  17.265  33.885  14.131
23699W        W96124  13.200  15.515   4.087
23700W        W96125   5.738  37.662  12.992
23701W        W96126  15.361  14.758  11.914
23702W        W96127   9.770  11.150  11.682
23703W        W96128  42.994  29.770   0.842
23704W        W96129  18.808   4.788  14.331
23705W        W96130  30.586  40.559   1.577
23706W        W96131  35.837   1.890  13.848
23707W        W96132   3.692  21.839  13.028
23708W        W96133  32.411  15.704  12.784
23709W        W96134  21.120  10.521   4.308
23710W        W96135  13.291  26.102   0.169
23711W        W96136  14.220  29.050  10.747
23712W        W96137   7.618  34.576  11.136
23713W        W96138   9.246  30.121   3.788
23714W        W96139   2.650  17.344  11.142
23715W        W96140   4.215  29.261   3.660
23716W        W96141  33.474  24.770   0.773
23717W        W96142  37.440  42.285   4.208
23718W        W96143  27.400  18.785   4.169
23719W        W96144  26.166   3.749   0.261
23720W        W96145  28.082   9.838   2.651
23721W        W96146  29.122   9.783   3.220
23722W        W96147  23.749  30.078   3.213
23723W        W96148  28.311  23.484  14.465
23724W        W96149  26.049  12.244   4.706
23725W        W96150  20.888   8.310  14.362
23726W        W96151  32.945  25.988  11.754
23727W        W96152   2.970  27.324   0.283
23728W        W96153  39.915   1.827   4.523
23729W        W96154  21.743  25.584   3.928
23730W        W96155  39.467  41.962  12.131
23731W        W96156  12.807  13.587   0.291
23732W        W96157  21.092  26.527  12.807
23733W        W96158  12.582  25.887   4.202
23734W        W96159  26.710  10.362  12.972
23735W        W96160  40.040  13.154   0.905
23736W        W96161  32.615  41.290   1.855
23737W        W96162  20.919   0.305  13.152
23738W        W96163  32.952  14.028   1.309
23739W        W96164  35.171  32.925  14.354
23740W        W96165   8.136  26.873   3.766
23741W        W96166  13.813  43.490  14.548
23742W        W96167  44.423  23.084   4.461
23743W        W96168  12.552  43.657  11.825
23744W        W96169   4.441  40.359  12.644
23745W        W96170  39.056  37.803  12.676
23746W        W96171  13.594   6.561   3.725
23747W        W96172  29.508  37.018  14.373
23748W        W96173   8.800  31.295   5.047
23749W        W96174  42.983   9.727  12.106
23750W        W96175  28.003  44.397  12.952
23751W        W96176  22.927  18.773   4.837
23752W        W96177   5.681  23.167  13.502
23753W        W96178   7.824  36.167   3.621
23754W        W96179  16.842  27.949  13.951
23755W        W96180  29.994  31.141  14.823
23756W        W96181  17.306  42.950  12.406
23757W        W96182  38.961   5.602  11.731
23758W        W96183  37.301  12.732  13.048
23759W        W96184  13.845  38.112  13.660
23760W        W96185   5.771  20.670  11.359
23761W        W96186  16.180  34.976  12.135
23762W        W96187  32.912   6.843  11.926
23763W        W96188  41.013  22.996  10.753
23764W        W96189  41.772  19.367  12.005
23765W        W96190  20.089  31.490   0.240
23766W        W96191  38.252  30.595   2.285
23767W        W96192  41.025  18.251  13.820
23768W        W96193   0.770  27.383   2.244
23769W        W96194  39.050  36.812   1.231
23770W        W96195  15.145  36.514  12.266
23771W        W96196  23.711  14.703  10.811
23772W        W96197   3.900  22.032   2.903
23773W        W96198  25.642  21.207   2.169
23774W        W96199  33.145  30.361  13.384
23775W        W96200   1.437   3.622  11.215
23776W        W96201  42.389  34.406  11.923
23777W        W96202  23.133  21.786   0.351
23778W        W96203  31.576  14.084   0.828
23779W        W96204   4.460   3.265  13.317
23780W        W96205   5.531   2.638   0.072
23781W        W96206  38.737  27.803  12.131
23782W        W96207  43.431  36.290   1.230
23783W        W96208  31.983   0.904   0.249
23784W        W96209  10.730   0.346   2.163
23785W        W96210  24.489   8.185   2.206
23786W        W96211  39.002   6.478  10.625
23787W        W96212  15.724  24.780   3.341
23788W        W96213  32.553  32.184  13.447
23789W        W96214  37.566   2.793  13.616
23790W        W96215  10.128  40.429   4.294
23791W        W96216  19.817  20.065  12.505
23792W        W96217  25.694   9.190  14.942
23793W        W96218  24.960   9.021   4.246
23794W        W96219  37.867  11.118   2.217
23795W        W96220  29.782  16.022   1.229
23796W        W96221   5.758  16.310  12.550
23797W        W96222  33.737  18.048  10.575
23798W        W96223  36.310  20.170   3.135
23799W        W96224   0.668  42.320   0.742
23800W        W96225   4.176  38.074  12.088
23801W        W96226   7.641  36.263   0.280
23802W        W96227  21.283  11.335  13.515
23803W        W96228  20.151  18.141  12.944
23804W        W96229  37.324  21.240  11.626
23805W        W96230  42.369  20.972  12.839
23806W        W96231  28.501  15.147   0.100
23807W        W96232  29.122  23.026   2.454
23808W        W96233  21.140  39.866  13.889
23809W        W96234  43.499  36.500   2.233
23810W        W96235  40.593  17.084  11.105
23811W        W96236  28.854  19.306  10.454
23812W        W96237   2.407  23.997  12.862
23813W        W96238  35.612  38.509  13.895
23814W        W96239  42.293  31.897   1.311
23815W        W96240  41.939  11.310  11.694
23816W        W96241  29.053  42.050   1.986
23817W        W96242  38.073  31.532   2.719
23818W        W96243  24.467  30.324  14.507
23819W        W96244  39.424   7.861   0.707
23820W        W96245  14.860  33.478  11.050
23821W        W96246   7.686  20.288   4.174
23822W        W96247  40.349  18.670   2.296
23823W        W96248  38.279   9.798  11.066
23824W        W96249  13.718  33.626   1.423
23825W        W96250   5.805   1.861  12.293
23826W        W96251   5.468  31.129  14.341
23827W        W96252   4.823   9.471   4.727
23828W        W96253  20.846  10.597   0.760
23829W        W96254  12.348  36.039   0.431
23830W        W96255   3.715  27.683   4.655
23831W        W96256  20.223  30.960  10.947
23832W        W96257  35.526  30.703  10.641
23833W        W96258  12.269   4.253  10.162
23834W        W96259   3.971  26.342  11.965
23835W        W96260   9.203  13.821   0.050
23836W        W96261  15.241  11.868  12.477
23837W        W96262  12.580  39.620   2.168
23838W        W96263  22.959  12.647  13.057
23839W        W96264  33.411   7.346   0.277
23840W        W96265   9.329  42.908  14.132
23841W        W96266  41.545  12.626   1.364
23842W        W96267  31.634  37.932   0.292
23843W        W96268  31.105   8.330  12.889
23844W        W96269  15.890  42.354  14.941
23845W        W96270  33.079   9.653   0.873
23846W        W96271  17.096   3.459   5.128
23847W        W96272  19.315   6.705   2.091
23848W        W96273  38.377  26.030   2.419
23849W        W96274  15.038  16.751  11.903
23850W        W96275  25.761   2.416   0.497
23851W        W96276  17.700  22.628  13.104
23852W        W96277  37.889  26.839   3.665
23853W        W96278  44.040  39.312   0.817
23854W        W96279  41.017  39.268   2.024
23855W        W96280  14.330   3.670   1.779
23856W        W96281  41.213  44.008  10.480
23857W        W96282  15.599  17.582   3.160
23858W        W96283  13.726  26.980   3.779
23859W        W96284   9.561   9.671   3.470
23860W        W96285  10.483   7.929  13.707
23861W        W96286  40.549  17.223  13.305
23862W        W96287  36.689  20.265   1.018
23863W        W96288  25.172  43.581  11.602
23864W        W96289   2.529  17.713   1.512
23865W        W96290  26.246   7.733  13.111
23866W        W96291   3.795  10.396   1.371
23867W        W96292  20.266  22.257   3.663
23868W        W96293   0.463   5.128   2.924
23869W        W96294  37.441  21.655   3.264
23870W        W96295  17.220  44.431  14.371
23871W        W96296  15.742  39.401  12.463
23872W        W96297  30.767   8.820  14.553
23873W        W96298  39.030  30.369  13.810
23874W        W96299  16.094  40.883  11.456
23875W        W96300  25.762  30.932  10.942
23876W        W96301  41.819  18.341   0.868
23877W        W96302   8.785  27.059  10.686
23878W        W96303  43.785  37.990   4.878
23879W        W96304  43.481  33.054  12.044
23880W        W96305  27.804   5.258   1.600
23881W        W96306  15.073  12.828  11.508
23882W        W96307  22.735  35.044  12.920
23883W        W96308  36.886   9.282  12.595
23884W        W96309  12.416  14.272   3.289
23885W        W96310  25.217  35.883   0.462
23886W        W96311  43.254  28.198   2.767
23887W        W96312   1.888  34.657  12.435
23888W        W96313  22.977  14.745   4.596
23889W        W96314   8.353  42.868   0.838
23890W        W96315   3.235  25.392  14.316
23891W        W96316  19.868  26.694  13.897
23892W        W96317   1.244  43.743  13.979
23893W        W96318  30.127  43.101  12.070
23894W        W96319  21.650   0.804  11.274
23895W        W96320  20.150   6.937  12.478
23896W        W96321  35.387  36.558  11.475
23897W        W96322  34.719  12.670   3.545
23898W        W96323  30.680  14.761  14.872
23899W        W96324  34.426  27.917  11.064
23900W        W96325   5.083  34.625  11.662
23901W        W96326  36.123  32.470   4.803
23902W        W96327  21.577  25.035  11.549
23903W        W96328  28.780  16.880  10.671
23904W        W96329   2.966  12.275   2.825
23905W        W96330   6.292  43.982   3.481
23906W        W96331  33.722   5.171  10.787
23907W        W96332  24.487  33.623   0.295
23908W        W96333   1.874   0.077   0.807
23909W        W96334  18.620   6.651  13.385
23910W        W96335  40.284  26.961  10.338
23911W        W96336   6.696  39.603   1.661
23912W        W96337  29.646  35.481   3.266
23913W        W96338  20.227  34.316  11.988
23914W        W96339  29.911  11.214   0.642
23915W        W96340   6.183   0.030  11.551
23916W        W96341  23.182  38.848  13.863
23917W        W96342   9.197  17.926   4.348
23918W        W96343   7.230   4.705  13.564
23919W        W96344  31.443  36.498  10.943
23920W        W96345   2.813  34.032  14.307
23921W        W96346   5.763  28.964   1.308
23922W        W96347  34.986  19.185  12.015
23923W        W96348  32.935  26.083  12.676
23924W        W96349  29.127  19.728  13.113
23925W        W96350  21.366  14.560  13.667
23926W        W96351  26.431   0.071  10.590
23927W        W96352  39.655  29.037   0.871
23928W        W96353  33.010  14.259  13.973
23929W        W96354   3.504  28.067  14.946
23930W        W96355  14.645  10.617   4.366
23931W        W96356  39.474   1.359   3.562
23932W        W96357  38.401   1.994   4.477
23933W        W96358  12.182   3.992   4.239
23934W        W96359  35.699   8.834   2.147
23935W        W96360   1.280  32.936  13.441
23936W        W96361  34.665   8.784  13.002
23937W        W96362  11.588  42.038  12.630
23938W        W96363  20.586  31.943  11.179
23939W        W96364   1.551   0.781  14.083
23940W        W96365   9.521   3.700   3.760
23941W        W96366  34.639   5.203  11.857
23942W        W96367   9.697  23.571   0.845
23943W        W96368   4.501  44.286   2.809
23944W        W96369  44.199   9.746   3.509
23945W        W96370  15.699  22.960   1.230
23946W        W96371  10.890  26.787   3.820
23947W        W96372  24.951  20.233   2.765
23948W        W96373  18.497  11.838   0.733
23949W        W96374  35.088  43.962  11.585
23950W        W96375  15.999  28.215  11.043
23951W        W96376  24.991   0.518   1.487
23952W        W96377  12.072   3.747  10.162
23953W        W96378  13.744  18.931   2.004
23954W        W96379   7.718  38.000  14.470
23955W        W96380   1.369  15.567  11.572
23956W        W96381  22.090  21.533  12.449
23957W        W96382  38.768  41.453  10.247
23958W        W96383   1.109  31.447   1.786
23959W        W96384  15.275  29.056   4.696
23960W        W96385  19.174   5.387   4.611
23961W        W96386  40.467  16.771   3.198
23962W        W96387   8.173  12.562   2.162
23963W        W96388  35.677  31.049   1.606
23964W        W96389  16.427  13.242  13.998
23965W        W96390   2.676  23.393   4.580
23966W        W96391   5.244  36.754  11.409
23967W        W96392  12.104  33.965  13.565
23968W        W96393   8.784   8.133  12.557
23969W        W96394  25.601  19.109   0.697
23970W        W96395  16.380  18.064   3.333
23971W        W96396   7.051  38.837   3.858
23972W        W96397  11.483   0.337   4.151
23973W        W96398  36.866  23.695   4.645
23974W        W96399  18.529  35.427  14.364
23975W        W96400  30.417  37.122  11.520
23976W        W96401  21.675  29.497   1.356
23977W        W96402   1.980  35.086   3.359
23978W        W96403  40.478  41.191   2.840
23979W        W96404   9.794  30.378  13.945
23980W        W96405  24.116  33.004  11.265
23981W        W96406  19.135  42.372  11.138
23982W        W96407  20.794   3.980  14.454
23983W        W96408  18.666  13.116  14.202
23984W        W96409  35.987  27.976  12.591
23985W        W96410  22.193  30.982  10.989
23986W        W96411  19.709  29.499   1.289
23987W        W96412  28.699  11.703  10.683
23988W        W96413  40.753   4.594   3.013
23989W        W96414  23.336  32.680   1.443
23990W        W96415  33.991  44.397  11.433
23991W        W96416   9.993  21.812  10.837
23992W        W96417  31.508  12.595   0.072
23993W        W96418  25.758  28.044  13.940
23994W        W96419  16.188  43.768   2.610
23995W        W96420  21.221  40.200   1.729
23996W        W96421  25.223  17.255  10.527
23997W        W96422  26.985  34.502  12.998
23998W        W96423  39.888  11.824  13.548
23999W        W96424  29.833  44.980   0.319
24000W        W96425  14.155  41.252   2.273
24001W        W96426  17.680   1.910   4.241
24002W        W96427  32.767  24.417  12.906
24003W        W96428  28.123   9.185   4.379
24004W        W96429  26.123   1.707  10.614
24005W        W96430  43.996  19.716  10.993
24006W        W96431   9.891  17.243  11.474
24007W        W96432  17.618  44.941  13.889
24008W        W96433   9.705  15.263   3.691
24009W        W96434   2.367   1.751  10.666
24010W        W96435  12.079   0.932   4.577
24011W        W96436  24.004  12.590   2.313
24012W        W96437  31.601  29.157   0.310
24013W        W96438  35.753   0.265   2.592
24014W        W96439  36.765  41.011  13.382
24015W        W96440  20.996  40.571  14.348
24016W        W96441  38.557  34.450  13.853
24017W        W96442  43.338  34.170  11.339
24018W        W96443   0.719  27.934  14.383
24019W        W96444  13.622  20.061  11.101
24020W        W96445  40.171   3.034  11.056
24021W        W96446  29.497   4.392   2.650
24022W        W96447  25.790   0.901   3.278
24023W        W96448   8.275  14.592   2.628
24024W        W96449  35.565   7.336  12.827
24025W        W96450  42.855  41.485  13.898
24026W        W96451  16.674  33.998  10.788
24027W        W96452   8.727   2.866  10.887
24028W        W96453   8.146  11.992   0.012
24029W        W96454   1.793   6.502   2.828
24030W        W96455  28.217  30.468  13.932
24031W        W96456  28.943  31.054   1.441
24032W        W96457  21.321  12.789  10.952
24033W        W96458  20.910  39.136  13.230
24034W        W96459   7.063  31.891  12.886
24035W        W96460  13.745  20.362  12.588
24036W        W96461  27.433  39.876  10.655
24037W        W96462  33.086  26.444   2.865
24038W        W96463   2.265  13.826   1.245
24039W        W96464   8.697  11.616  14.862
24040W        W96465  17.954  29.853  14.255
24041W        W96466   0.678  14.521  10.297
24042W        W96467  36.824   7.203   3.579
24043W        W96468   3.731  21.778  14.813
24044W        W96469  24.136  31.585  14.230
24045W        W96470  11.974   4.938  14.781
24046W        W96471  40.841  14.593   1.191
24047W        W96472  31.012  27.480   0.192
24048W        W96473   9.003  39.299   4.366
24049W        W96474  23.761  28.584   1.763
24050W        W96475   3.206  23.930   0.324
24051W        W96476  33.195  10.281   1.806
24052W        W96477  38.333  32.910   3.167
24053W        W96478  16.971   4.392   3.338
24054W        W96479  28.252  27.537  13.870
24055W        W96480  37.894  16.627   4.391
24056W        W96481  40.959  34.499  14.629
24057W        W96482  21.086  38.935  12.370
24058W        W96483  35.315  42.857  14.932
24059W        W96484  23.609   8.954  12.902
24060W        W96485  22.463  39.478  14.870
24061W        W96486   6.535  20.191  12.857
24062W        W96487  19.986   5.075  11.673
24063W        W96488  44.561  19.811   0.994
24064W        W96489   6.325  44.874  11.101
24065W        W96490  27.585  33.374   4.839
24066W        W96491   7.187  12.148  11.081
24067W        W96492  29.900  14.816  12.894
24068W        W96493  26.279   8.314  14.897
24069W        W96494  16.185  33.089  11.555
24070W        W96495  18.645  43.013  14.949
24071W        W96496  34.732  14.639  14.033
24072W        W96497  25.514   8.745  14.716
24073W        W96498  43.863  14.586  13.402
24074W        W96499   3.464  17.111   1.730
24075W        W96500  23.104  39.025   1.708
24076W        W96501  31.124   5.764   2.796
24077W        W96502  22.590  26.735  10.586
24078W        W96503  24.270  42.756   1.237
24079W        W96504  20.838  23.013   0.445
24080W        W96505   7.618   2.535   0.459
24081W        W96506  31.149   2.303   4.185
24082W        W96507  28.610  31.041  10.361
24083W        W96508  10.252   6.277  10.510
24084W        W96509  15.824  37.608  13.948
24085W        W96510  31.523   1.178   3.456
24086W        W96511  32.031  44.487   4.171
24087W        W96512  11.380  37.079   4.724
24088W        W96513  13.363  27.566  13.228
24089W        W96514   4.721   0.528   3.247
24090W        W96515  24.332  40.064   0.974
24091W        W96516   8.729  27.125   2.299
24092W        W96517  43.292  13.422  11.124
24093W        W96518  25.681  44.386   0.345
24094W        W96519  35.549  43.874  13.829
24095W        W96520  26.503   0.966   0.411
24096W        W96521   7.863  30.895  14.304
24097W        W96522  35.400   5.795  13.192
24098W        W96523   5.351  42.885  13.299
24099W        W96524  42.775  40.058  12.533
24100W        W96525  33.057  38.816  13.494
24101W        W96526   3.568  44.018   2.666
24102W        W96527   3.756  24.237  12.108
24103W        W96528  20.553  41.446   1.878
24104W        W96529  40.287  21.055  12.588
24105W        W96530   7.237  23.274  10.445
24106W        W96531   2.464  43.948  13.305
24107W        W96532  27.266  43.700  10.832
24108W        W96533  23.725  31.749  13.940
24109W        W96534  31.491   0.792   0.390
24110W        W96535  28.332  26.352   1.527
24111W        W96536  10.717  27.255  12.825
24112W        W96537  20.829   1.855  13.024
24113W        W96538  25.671  33.424  13.832
24114W        W96539  11.684   9.258   1.355
24115W        W96540  34.609  42.438  12.056
24116W        W96541  12.751  23.940   1.984
24117W        W96542   4.875   0.871   1.364
24118W        W96543   4.588  19.641  11.157
24119W        W96544  30.339   1.318  14.957
24120W        W96545  27.954  22.694  14.585
24121W        W96546  29.472  40.625   0.125
24122W        W96547  13.091  26.134  12.601
24123W        W96548  43.520  30.915   4.086
24124W        W96549  29.865  39.888   1.350
24125W        W96550   4.239  21.364  13.954
24126W        W96551  24.699  35.772  12.032
24127W        W96552   9.094   9.121   0.208
24128W        W96553  29.221  20.687   0.058
24129W        W96554  27.460  41.251  13.473
24130W        W96555  13.984  21.801  12.225
24131W        W96556   7.416   0.310   0.322
24132W        W96557  26.370  35.325   3.175
24133W        W96558  41.875   6.134  12.023
24134W        W96559  23.151  33.661   0.388
24135W        W96560  11.139  29.914  14.777
24136W        W96561  24.569  24.686   2.926
24137W        W96562   9.670  13.129   0.539
24138W        W96563   0.416   0.833   4.114
24139W        W96564  17.313  19.521   1.767
24140W        W96565  40.739   0.317  11.165
24141W        W96566  22.998  10.207  12.021
24142W        W96567  26.410  29.611  14.283
24143W        W96568  13.113  40.575  11.632
24144W        W96569  25.111   9.827   1.879
24145W        W96570  16.250   5.172  12.850
24146W        W96571  39.647   4.384   1.465
24147W        W96572  20.575  26.656   4.298
24148W        W96573  43.828  13.728  10.495
24149W        W96574  23.243  24.309  14.429
24150W        W96575  15.070  11.237  10.946
24151W        W96576   2.441  28.399  11.503
24152W        W96577  15.885  41.216   1.752
24153W        W96578  23.704  36.844  13.316
24154W        W96579  19.851  37.521  13.942
24155W        W96580  24.852   4.332  13.653
24156W        W96581  20.537  43.376   3.142
24157W        W96582  15.159  18.093  10.759
24158W        W96583  40.073  20.247   1.589
24159W        W96584  35.978  18.108  12.549
24160W        W96585  37.389  35.171   0.886
24161W        W96586  24.092   3.831  11.011
24162W        W96587  15.601  26.797   4.575
24163W        W96588   1.760  24.210  14.292
24164W        W96589  19.900   0.673   4.537
24165W        W96590  13.666   3.851   3.643
24166W        W96591  17.229  40.926   2.409
24167W        W96592   3.518   7.839   3.784
24168W        W96593  23.676  27.456  14.326
24169W        W96594  39.314  31.146  12.985
24170W        W96595  33.796  21.257  11.719
24171W        W96596  19.500   4.648  11.182
24172W        W96597   3.492  43.966  13.821
24173W        W96598  32.873  37.463  11.664
24174W        W96599  14.864   6.447  13.312
24175W        W96600  10.333  29.969   0.322
24176W        W96601   8.585  12.736  12.103
24177W        W96602  22.749  17.719   1.996
24178W        W96603  16.579  43.081  13.385
24179W        W96604  37.226   0.397  13.097
24180W        W96605  13.863  10.629   0.341
24181W        W96606  25.501  29.872   3.185
24182W        W96607   0.139  34.996   1.782
24183W        W96608  14.835  27.770   4.744
24184W        W96609  37.538   9.480  14.481
24185W        W96610  38.951  22.949  12.592
24186W        W96611  20.412  28.352   4.634
24187W        W96612  15.640   1.937   2.545
24188W        W96613  27.194   8.495  12.593
24189W        W96614  25.512  23.085   3.862
24190W        W96615  31.464  23.206  10.514
24191W        W96616  31.054  37.969   1.681
24192W        W96617  35.497  37.179  10.922
24193W        W96618  15.554  31.924  14.863
24194W        W96619   6.220  31.611   1.950
24195W        W96620  38.599   6.417  13.924
24196W        W96621  16.237  44.250   3.706
24197W        W96622  30.700   4.948   3.600
24198W        W96623  19.488  22.211   0.552
24199W        W96624  15.715   9.314  11.410
24200W        W96625  21.278  26.395  13.772
24201W        W96626  42.759  33.588   2.670
24202W        W96627  21.116  40.573  11.602
24203W        W96628   0.391  20.067  13.563
24204W        W96629  27.148  32.613   5.775
24205W        W96630  12.139  41.620  12.960
24206W        W96631  39.915   9.675  14.865
24207W        W96632   6.515  42.393   4.608
24208W        W96633  27.240  38.955  14.985
24209W        W96634  40.982  42.471   2.754
24210W        W96635  22.656  16.820   2.913
24211W        W96636  43.449  21.702   2.718
24212W        W96637   3.806  25.999  13.201
24213W        W96638  30.649  22.169   0.931
24214W        W96639  31.449  23.155   1.277
24215W        W96640   1.364  28.686   0.047
24216W        W96641  17.955  16.772   1.150
24217W        W96642  38.792  15.685   0.962
24218W        W96643  23.196  36.858  14.424
24219W        W96644  36.622  42.778  13.412
24220W        W96645  43.383   9.493   1.143
24221W        W96646  21.055  39.372   2.982
24222W        W96647  20.049  32.361  12.442
24223W        W96648   1.407  33.783  12.768
24224W        W96649  19.616  24.918   2.680
24225W        W96650  40.318   7.229  13.822
24226W        W96651   8.357   2.827   1.164
24227W        W96652  11.898  29.957  11.652
24228W        W96653  22.169  32.540   4.135
24229W        W96654  27.201  37.056   4.690
24230W        W96655  23.785  18.194  11.093
24231W        W96656   0.950  23.497   3.626
24232W        W96657  40.278  29.717   1.475
24233W        W96658   2.806  40.023  11.573
24234W        W96659  42.211   9.282   1.240
24235W        W96660  36.475  17.674   0.876
24236W        W96661   7.733  16.639   2.121
24237W        W96662  15.132  33.021   0.890
24238W        W96663   9.256  25.610  12.365
24239W        W96664  29.311  41.475   3.799
24240W        W96665  28.351  42.495   3.959
24241W        W96666  34.378   9.761  13.009
24242W        W96667  33.989  43.507   3.411
24243W        W96668   6.150  44.886   3.735
24244W        W96669  20.590  23.216   3.527
24245W        W96670  38.259  35.234  14.389
24246W        W96671  12.365  22.150  14.060
24247W        W96672  15.254  11.196   0.363
24248W        W96673   6.475   4.896   1.989
24249W        W96674   1.428  27.969  13.837
24250W        W96675  25.751   1.531  11.486
24251W        W96676  35.629  37.464  14.020
24252W        W96677  19.613   6.763  11.653
24253W        W96678   8.256   7.125  14.796
24254W        W96679  44.713  31.917   4.573
24255W        W96680   3.459  10.902  11.267
24256W        W96681  34.858  13.968   3.236
24257W        W96682  42.763  23.592   2.648
24258W        W96683  43.753  10.775   2.827
24259W        W96684   3.695  31.969   3.522
24260W        W96685  17.719  29.044  12.392
24261W        W96686  30.459   0.938   0.844
24262W        W96687  20.596  20.630   4.306
24263W        W96688  16.205  38.928   0.847
24264W        W96689  37.843  21.763   0.814
24265W        W96690   1.816   3.475  12.638
24266W        W96691  24.980   2.902  12.016
24267W        W96692   0.789  28.999  12.961
24268W        W96693  31.008  22.528   0.207
24269W        W96694  31.137  12.387   1.777
24270W        W96695  17.830  44.789   1.200
24271W        W96696  15.320   5.940   3.177
24272W        W96697  38.412  41.144  13.023
24273W        W96698  29.899  44.443   1.403
24274W        W96699  19.657  11.103   0.764
24275W        W96700  27.706  25.575  11.222
24276W        W96701  12.387  39.803   0.295
24277W        W96702   0.750  41.876  14.809
24278W        W96703  32.938  31.128   1.397
24279W        W96704  27.674  10.383   1.526
24280W        W96705  20.684   9.404   5.316
24281W        W96706  34.102   3.248   1.831
24282W        W96707  33.493  29.975  13.532
24283W        W96708  30.228  36.018  11.367
24284W        W96709  38.882  35.304  13.584
24285W        W96710   9.754  16.309   4.599
24286W        W96711   6.951  18.891   2.347
24287W        W96712  27.999  26.403  11.861
24288W        W96713  29.651  27.710   2.893
24289W        W96714   3.379  28.185  13.838
24290W        W96715  19.982  15.066   1.310
24291W        W96716   0.879   7.023   1.810
24292W        W96717  11.698   1.181   2.647
24293W        W96718  43.816  39.614   0.458
24294W        W96719  20.237  39.673   0.332
24295W        W96720  40.733  26.194   3.735
24296W        W96721   2.310  21.346   3.726
24297W        W96722  25.191  37.037  14.368
24298W        W96723   6.889   0.348   2.085
24299W        W96724  11.089  10.948   1.226
24300W        W96725  34.993  14.549   0.898
24301W        W96726   4.752  24.118   0.845
24302W        W96727  16.596   1.476  12.489
24303W        W96728  11.127  30.209   0.886
24304W        W96729  12.120   7.184  14.406
24305W        W96730  12.244   7.137   4.165
24306W        W96731  35.553  39.860  13.584
24307W        W96732  20.980  22.305  14.472
24308W        W96733  43.180  31.182   3.777
24309W        W96734  30.389  43.418   0.056
24310W        W96735  30.625  32.843   2.387
24311W        W96736  25.444   8.794   4.108
24312W        W96737   6.344  10.663   1.826
24313W        W96738  41.845  29.252  12.438
24314W        W96739  27.200  24.576   0.807
24315W        W96740  12.993  27.951  11.673
24316W        W96741  41.035   6.742   3.810
24317W        W96742   2.479  16.197  14.417
24318W        W96743  24.116  41.184   4.127
24319W        W96744  30.907   6.778  11.603
24320W        W96745  23.583  33.704   3.371
24321W        W96746  37.842  20.301  12.995
24322W        W96747  28.591   7.164  10.638
24323W        W96748  37.552  14.511   1.268
24324W        W96749  25.585  22.419   0.462
24325W        W96750  11.826  42.419   1.254
24326W        W96751  13.452   8.807  10.589
24327W        W96752   1.544  26.582   4.421
24328W        W96753  37.210   7.849   2.074
24329W        W96754   4.996  12.379   2.250
24330W        W96755  31.000  35.835  11.491
24331W        W96756   9.166  29.638   1.161
24332W        W96757   0.195   7.294  11.022
24333W        W96758  40.336  43.505   4.011
24334W        W96759  44.433  40.462   1.316
24335W        W96760  19.249  27.068   3.094
24336W        W96761  13.182  44.362  10.802
24337W        W96762   0.448  37.713  11.759
24338W        W96763   1.792  13.764   1.552
24339W        W96764  23.763  27.442  11.125
24340W        W96765  27.468  37.251   1.848
24341W        W96766  44.382   5.082  14.856
24342W        W96767   9.132  31.059  11.135
24343W        W96768  15.020  28.894  10.700
24344W        W96769  40.440   3.959   4.173
24345W        W96770  14.049  43.422   2.324
24346W        W96771  34.960  17.576   1.163
24347W        W96772  22.998   3.854   2.180
24348W        W96773  13.805  15.393   1.390
24349W        W96774  37.569  15.556   0.313
24350W        W96775   4.826  30.037   1.097
24351W        W96776  15.608  32.559  11.039
24352W        W96777  36.634   4.962   1.827
24353W        W96778   7.730  29.856   0.445
24354W        W96779  40.935  34.795   3.720
24355W        W96780  12.272   7.145  11.964
24356W        W96781   3.866  28.220  13.055
24357W        W96782   7.698  24.936  13.949
24358W        W96783  10.382  43.807  11.206
24359W        W96784  14.383  12.744   3.240
24360W        W96785   6.763   4.667   3.142
24361W        W96786  20.662  42.416   3.202
24362W        W96787  44.373   2.005  11.900
24363W        W96788  18.641  14.674   2.271
24364W        W96789  14.852  27.688   0.120
24365W        W96790  42.770   0.884   2.581
24366W        W96791  14.251  36.786  10.707
24367W        W96792  43.396  27.739  14.636
24368W        W96793  11.329   0.826   0.801
24369W        W96794   2.754  15.846   2.655
24370W        W96795  38.429  41.032  10.726
24371W        W96796  17.693  32.872   4.808
24372W        W96797  26.650   3.339   4.304
24373W        W96798  22.129  27.112  13.355
24374W        W96799  13.382  29.401  10.569
24375W        W96800  36.515  38.791   0.006
24376W        W96801  41.330  19.593   1.353
24377W        W96802   3.053  20.522   1.275
24378W        W96803  21.699  23.359   3.364
24379W        W96804  40.077  19.651   2.655
24380W        W96805  18.592   4.879   2.310
24381W        W96806  10.174  31.210   0.790
24382W        W96807  13.606  16.744   1.439
24383W        W96808   0.384  44.449  13.430
24384W        W96809  22.337  36.994   1.811
24385W        W96810  28.298  32.449   0.336
24386W        W96811  37.320  18.969   4.451
24387W        W96812  30.916  30.917  11.674
24388W        W96813   9.453   2.401   4.398
24389W        W96814  26.966   4.757   0.954
24390W        W96815  40.304  17.110   1.246
24391W        W96816   9.253  44.265  13.807
24392W        W96817  11.357  33.457   3.613
24393W        W96818   4.669   6.323   0.815
24394W        W96819  42.395  40.336   3.847
24395W        W96820  25.004  15.833   2.705
24396W        W96821  44.932   2.824  11.057
24397W        W96822  11.315  16.258   4.677
24398W        W96823  38.440   9.621   1.647
24399W        W96824  23.123  20.928  11.115
24400W        W96825  21.581  27.968   1.200
24401W        W96826  27.471  22.706  11.110
24402W        W96827   7.271  11.629   2.093
24403W        W96828  20.313  11.138  11.737
24404W        W96829  20.239   6.614  12.082
24405W        W96830   7.805  22.232  14.290
24406W        W96831  13.131   6.761   3.099
24407W        W96832  41.715  37.059  12.147
24408W        W96833  15.597  13.868   0.722
24409W        W96834  21.171  23.307  12.459
24410W        W96835  23.315   8.912  12.455
24411W        W96836  14.476  43.490  14.521
24412W        W96837  42.322  14.639   3.480
24413W        W96838  20.728   8.014  13.052
24414W        W96839  37.903  34.208  13.048
24415W        W96840   3.786   8.017  10.796
24416W        W96841  17.837  28.082   2.012
24417W        W96842  29.052  36.993   2.817
24418W        W96843  10.600  21.985  12.036
24419W        W96844  28.374  20.085  13.161
24420W        W96845  17.242  10.642   2.364
24421W        W96846   6.323   6.096   2.760
24422W        W96847  30.669  35.449  13.408
24423W        W96848  10.025   1.462  14.315
24424W        W96849   4.108   7.610   0.058
24425W        W96850   4.701   7.894   4.152
24426W        W96851  27.791  43.336  10.178
24427W        W96852  30.935  11.901   0.872
24428W        W96853  14.839  31.338   3.174
24429W        W96854  38.645   1.708   4.110
24430W        W96855  38.660  10.185  11.951
24431W        W96856  33.603   4.987   2.847
24432W        W96857  35.105  19.727   1.401
24433W        W96858  32.566   7.932  10.762
24434W        W96859  19.500   0.884  12.590
24435W        W96860  21.740  30.545   5.042
24436W        W96861   2.212  32.970  10.692
24437W        W96862  36.064   5.451   0.498
24438W        W96863  22.677  14.471  11.579
24439W        W96864  35.627   8.811  14.870
24440W        W96865   1.304  37.013  10.821
24441W        W96866  23.105  26.017   3.611
24442W        W96867  32.354  19.277  10.819
24443W        W96868   9.911  27.651  12.589
24444W        W96869  20.117  27.876   0.283
24445W        W96870  33.063   7.466  13.917
24446W        W96871  14.201  34.417  11.574
24447W        W96872  21.212  21.300  14.320
24448W        W96873   5.913  35.595   3.714
24449W        W96874  37.599   9.837   1.833
24450W        W96875  41.896  37.781  10.668
24451W        W96876   7.384  23.595  11.369
24452W        W96877  42.254  40.378   1.817
24453W        W96878  10.413  14.285   4.348
24454W        W96879  24.477  34.515  14.835
24455W        W96880  12.315  14.026  11.887
24456W        W96881  11.836  24.402   3.365
24457W        W96882  44.289   5.203  11.179
24458W        W96883  16.279  11.540  10.697
24459W        W96884   7.277   5.653  10.370
24460W        W96885  10.608  35.460  11.179
24461W        W96886  15.664  15.345   1.733
24462W        W96887  11.233  12.712  10.995
24463W        W96888  13.272  14.824  13.479
24464W        W96889  34.097  24.047  10.596
24465W        W96890  24.795  29.065   1.893
24466W        W96891   2.115  42.511   4.656
24467W        W96892  42.930   5.801  13.937
24468W        W96893  27.218  28.253  12.938
24469W        W96894  13.059  20.200  14.840
24470W        W96895  18.810  38.103  13.364
24471W        W96896  27.577   5.807   0.471
24472W        W96897   5.842   2.279   0.404
24473W        W96898  42.052  22.186   9.788
24474W        W96899   1.881  11.900  10.736
24475W        W96900  16.862   6.349   2.303
24476W        W96901  21.101   4.309  12.130
24477W        W96902  29.201  43.993  11.546
24478W        W96903  16.700  20.083  14.483
24479W        W96904  18.023  37.906   1.390
24480W        W96905  19.027  21.107   2.742
24481W        W96906   2.385  26.524   4.476
24482W        W96907  29.474  27.098   3.684
24483W        W96908  30.599  27.246   2.871
24484W        W96909  22.657  16.750   1.416
24485W        W96910  28.672  42.582  13.430
24486W        W96911  41.643  15.682  10.251
24487W        W96912  43.490   7.184   4.975
24488W        W96913  39.328   2.696   2.387
24489W        W96914  42.539  37.622  11.848
24490W        W96915  41.787  13.266   4.113
24491W        W96916  27.109  30.359  11.882
24492W        W96917  32.866   9.138   0.853
24493W        W96918   5.983  20.041   2.383
24494W        W96919   4.742  20.706  12.800
24495W        W96920  34.609   4.582   2.299
24496W        W96921  33.598  24.704   2.841
24497W        W96922  31.884  36.006   2.307
24498W        W96923  41.842  43.801  12.794
24499W        W96924  22.751  11.016  13.503
24500W        W96925  12.221  10.327  13.398
24501W        W96926  27.769  35.410   1.085
24502W        W96927  38.884  32.152  13.609
24503W        W96928  33.108  15.300  11.534
24504W        W96929  10.251  29.017  13.540
24505W        W96930   4.418  38.015   4.086
24506W        W96931  34.428  16.331  12.029
24507W        W96932  22.014  38.005  12.036
24508W        W96933   5.166  10.449  14.878
24509W        W96934   8.815  34.735  13.796
24510W        W96935   7.375  33.883  12.859
24511W        W96936  34.311  28.237   4.789
24512W        W96937  15.435   1.732  12.358
24513W        W96938  18.598  36.638   4.150
24514W        W96939   8.781  32.371  13.866
24515W        W96940  14.782  17.727   0.286
24516W        W96941  40.018  42.928   2.864
24517W        W96942  24.949  23.053  12.432
24518W        W96943  43.822  41.740   0.938
24519W        W96944   7.209  11.567  14.842
24520W        W96945  10.376  28.781   1.374
24521W        W96946  20.513   6.318   0.775
24522W        W96947  44.354  37.055   2.361
24523W        W96948  29.405  18.198   2.752
24524W        W96949   7.510   1.467  11.118
24525W        W96950  28.007   6.256   3.216
24526W        W96951   2.347  29.416  10.641
24527W        W96952  14.476  17.219  13.289
24528W        W96953  17.519  20.078  10.675
24529W        W96954  20.149   6.141   0.407
24530W        W96955  38.138   5.874   0.225
24531W        W96956  11.372  36.831  10.645
24532W        W96957  42.304  40.944  13.323
24533W        W96958  12.518  37.882  12.198
24534W        W96959  11.820  44.958  14.207
24535W        W96960  11.798  34.917  11.444
24536W        W96961   4.011  38.885   3.686
24537W        W96962  21.198  23.583   1.539
24538W        W96963  11.712   0.235  12.085
24539W        W96964  28.110  24.521   4.055
24540W        W96965   5.810   7.394  10.758
24541W        W96966  12.654  11.712  12.576
24542W        W96967   2.812  11.563  11.062
24543W        W96968  39.587  28.863  13.759
24544W        W96969   2.868  16.909   1.909
24545W        W96970  36.862  12.509   1.253
24546W        W96971  27.300  44.921  10.783
24547W        W96972  14.456  26.314  14.797
24548W        W96973   0.231  28.141  11.170
24549W        W96974  13.331   3.327   1.872
24550W        W96975  16.359  31.747  12.581
24551W        W96976  16.743  43.971   0.426
24552W        W96977   1.940  35.857  12.067
24553W        W96978   8.547  10.536   3.806
24554W        W96979  21.790   5.643   4.552
24555W        W96980   8.442  15.778  11.247
24556W        W96981  16.109  17.671  11.520
24557W        W96982  26.430  43.157   1.427
24558W        W96983  22.328  39.600   3.359
24559W        W96984  33.627  10.717  11.591
24560W        W96985   4.075   0.187   0.962
24561W        W96986  11.875  44.579  10.737
24562W        W96987  29.469  19.552   0.409
24563W        W96988   7.893   0.470  11.486
24564W        W96989  23.280  12.174   1.890
24565W        W96990  41.856  39.347  12.455
24566W        W96991  26.916  24.927  13.428
24567W        W96992  35.472  29.683  11.048
24568W        W96993   9.875  42.907  11.066
24569W        W96994  28.487  34.938   1.706
24570W        W96995  24.920  22.989   2.037
24571W        W96996  30.681  39.481   4.668
24572W        W96997  13.892   9.677  13.261
24573W        W96998  31.466  41.539   4.273
24574W        W96999  32.540  33.708  11.124
24575W        W97000  35.383  36.002  14.266
24576W        W97001  13.865  17.833  13.382
24577W        W97002   4.258  25.325  14.774
24578W        W97003  20.214  37.778  11.576
24579W        W97004  11.196   6.441  13.373
24580W        W97005   6.196  20.743   1.031
24581W        W97006  24.052  38.164   1.073
24582W        W97007  26.472  24.409   4.082
24583W        W97008   1.401   5.149  10.987
24584W        W97009   0.240  35.564   0.905
24585W        W97010  39.585  39.569  12.983
24586W        W97011  17.355  38.976  14.282
24587W        W97012  44.517   5.611  14.845
24588W        W97013  36.876  40.384   0.051
24589W        W97014   0.985  18.229   0.870
24590W        W97015  38.049  18.121  14.480
24591W        W97016  34.031   4.328  11.944
24592W        W97017  13.707  22.207   4.741
24593W        W97018  17.311  19.708   0.381
24594W        W97019  14.766  16.982   4.179
24595W        W97020  10.760  26.401  12.597
24596W        W97021  15.325  43.755  11.513
24597W        W97022  37.565  33.673   4.397
24598W        W97023  19.287  36.838   4.828
24599W        W97024  17.180  25.436  12.879
24600W        W97025  16.604  43.196   2.202
24601W        W97026  12.535  29.184  13.474
24602W        W97027  31.608   7.789  14.225
24603W        W97028  32.685  16.283  14.299
24604W        W97029  26.417   0.879   0.910
24605W        W97030  26.983  27.474  12.502
24606W        W97031  25.619  35.657  12.089
24607W        W97032   6.961  41.181   2.839
24608W        W97033   9.644  44.661   0.332
24609W        W97034  31.134  34.040   2.351
24610W        W97035  39.292  15.106  13.445
24611W        W97036  22.210  41.272   1.766
24612W        W97037  31.228   7.851  10.552
24613W        W97038  28.408  39.937   0.338
24614W        W97039   6.163  24.738   3.419
24615W        W97040   5.686  41.360   2.561
24616W        W97041  22.065  26.649   2.202
24617W        W97042  37.178  30.478   3.808
24618W        W97043   5.211   8.757  10.149
24619W        W97044  39.234  22.355   2.366
24620W        W97045  33.560  21.328   1.453
24621W        W97046  34.834   8.314   0.701
24622W        W97047  24.614  24.184   3.197
24623W        W97048   0.747   1.275   0.341
24624W        W97049  27.103   8.754  12.173
24625W        W97050  15.047  24.230   1.284
24626W        W97051  11.716  23.108   3.350
24627W        W97052   8.400  41.969  14.444
24628W        W97053   2.283  15.687   2.862
24629W        W97054  26.749  39.486   0.871
24630W        W97055   9.431  15.717   5.001
24631W        W97056   4.110  42.581   2.127
24632W        W97057  28.626  32.469  11.575
24633W        W97058  20.116  41.833  13.310
24634W        W97059  14.325  14.741   0.808
24635W        W97060  27.713  15.763  13.636
24636W        W97061  37.816  15.592  11.190
24637W        W97062  14.089  24.135  10.535
24638W        W97063  17.609  38.089  13.542
24639W        W97064  28.414  32.505  12.034
24640W        W97065  13.494  38.266   1.674
24641W        W97066  26.604  34.409  11.643
24642W        W97067  33.635  25.204  13.529
24643W        W97068  25.680  13.250  12.194
24644W        W97069  18.200   5.931   2.194
24645W        W97070  28.985  35.854   1.724
24646W        W97071  11.218  30.419  14.852
24647W        W97072   6.282  29.428  11.086
24648W        W97073   8.932   6.736   4.534
24649W        W97074  22.484   0.998  10.136
24650W        W97075  35.077  18.898   2.626
24651W        W97076  25.210  30.734   1.428
24652W        W97077  40.973   4.091   3.014
24653W        W97078   9.917  38.025  13.910
24654W        W97079  40.832   2.232  12.021
24655W        W97080  26.445  13.271  14.932
24656W        W97081  41.916  24.210   3.262
24657W        W97082  30.154   2.900   3.238
24658W        W97083  16.289  39.751   4.648
24659W        W97084  11.777  23.144   1.177
24660W        W97085   2.807  11.957   3.690
24661W        W97086  13.796  36.179   0.314
24662W        W97087   4.072  18.584  13.055
24663W        W97088   8.315  32.485   4.612
24664W        W97089  26.428  30.879  13.135
24665W        W97090  26.182   6.702   3.686
24666W        W97091  29.377   9.317   4.877
24667W        W97092   9.798  24.162   3.588
24668W        W97093  38.269  22.792  10.190
24669W        W97094  31.883  13.072  14.491
24670W        W97095  10.344   7.476   2.236
24671W        W97096  17.791   3.697  13.907
24672W        W97097  24.537   2.055   1.464
24673W        W97098  16.867  26.622   4.228
24674W        W97099  39.959  41.740   1.362
24675W        W97100  13.748  24.295   4.469
24676W        W97101  24.165  40.505  11.785
24677W        W97102   8.792  28.611  12.180
24678W        W97103   3.224   4.771  11.499
24679W        W97104   1.362  30.410  11.984
24680W        W97105   3.794  29.346  14.961
24681W        W97106  25.112  25.181  13.966
24682W        W97107  25.495  38.336  12.619
24683W        W97108  18.391   1.989  10.977
24684W        W97109  29.159  24.927   2.198
24685W        W97110  13.841  39.431   3.708
24686W        W97111  31.208  39.962   1.940
24687W        W97112  41.339  10.365  12.403
24688W        W97113  13.153  22.996   3.394
24689W        W97114  39.916  12.342   3.704
24690W        W97115   6.699  40.100   1.829
24691W        W97116  30.418  42.057   0.467
24692W        W97117  41.967  33.053   4.965
24693W        W97118   7.063   1.784  13.475
24694W        W97119   1.852  40.084  12.590
24695W        W97120  14.803   8.536   0.774
24696W        W97121  15.482  10.236   4.640
24697W        W97122  27.061  19.341   3.129
24698W        W97123  10.312  21.740  14.331
24699W        W97124  27.214  23.103  12.945
24700W        W97125  26.291  30.193   2.819
24701W        W97126  33.049   0.211   0.818
24702W        W97127  40.838   5.133   3.889
24703W        W97128  40.253  13.251   0.210
24704W        W97129  14.652   3.475  12.977
24705W        W97130  26.437   2.276   3.788
24706W        W97131  35.613   7.761  14.977
24707W        W97132  16.479   3.623   0.841
24708W        W97133  39.577  42.298  13.437
24709W        W97134  15.496  30.848   2.104
24710W        W97135   4.083  14.414   4.568
24711W        W97136  36.019   7.366  12.117
24712W        W97137  42.523   3.890  13.856
24713W        W97138  41.457  39.875  14.913
24714W        W97139   7.188  32.508  10.724
24715W        W97140  35.953  18.224  13.089
24716W        W97141  24.441  25.533   3.204
24717W        W97142   1.540  35.373  12.883
24718W        W97143  11.521  32.139   0.184
24719W        W97144  38.385  27.765  12.494
24720W        W97145  15.363  28.870   1.381
24721W        W97146  29.424  34.897   3.315
24722W        W97147  23.843  29.950  13.404
24723W        W97148  39.526  10.331   3.169
24724W        W97149   3.807  12.920  10.737
24725W        W97150   1.271   5.857  11.548
24726W        W97151   5.115   0.417   1.410
24727W        W97152  29.469  36.896  11.401
24728W        W97153  18.136   0.728   4.234
24729W        W97154  37.596  30.483  10.978
24730W        W97155  11.180  31.306   3.907
24731W        W97156   8.823  33.034  10.442
24732W        W97157  14.132  33.373   4.298
24733W        W97158  38.168  40.841  11.716
24734W        W97159  23.246  29.062   2.062
24735W        W97160   3.750  10.667  13.830
24736W        W97161  23.482  19.166  13.321
24737W        W97162  34.648  25.026  13.329
24738W        W97163  25.156  23.224  12.908
24739W        W97164  35.417  26.688  11.529
24740W        W97165   3.228  14.147  13.751
24741W        W97166  13.608  40.330  13.065
24742W        W97167  20.022  17.843   4.033
24743W        W97168  40.335  22.554   1.409
24744W        W97169  22.336  21.290  11.100
24745W        W97170  12.685  38.384   0.506
24746W        W97171  38.964  41.688   2.213
24747W        W97172  41.463  33.995   2.270
24748W        W97173  21.407  12.566  11.565
24749W        W97174  39.870   4.783   3.290
24750W        W97175  19.084   4.751  11.475
24751W        W97176   7.163  44.291   2.389
24752W        W97177  38.369   7.152  10.914
24753W        W97178  21.694  12.265  12.313
24754W        W97179  27.618  39.887   0.728
24755W        W97180  27.437  36.110  14.879
24756W        W97181  42.863  34.395   1.915
24757W        W97182  17.118  19.480   2.676
24758W        W97183   8.473  35.829  13.287
24759W        W97184   9.651  35.403   3.143
24760W        W97185  33.847  39.859  13.745
24761W        W97186  40.289  18.143  14.985
24762W        W97187  25.015  14.388   1.773
24763W        W97188   4.100  43.515   4.507
24764W        W97189  43.674   5.728  12.052
24765W        W97190  13.528  28.452  12.883
24766W        W97191  28.230  25.223   4.665
24767W        W97192  40.981  17.537  14.829
24768W        W97193  42.012   3.708   3.801
24769W        W97194  19.042  17.681  12.995
24770W        W97195   9.508   4.476  13.551
24771W        W97196   9.459  24.076   0.754
24772W        W97197  34.457  40.131   4.704
24773W        W97198  12.223   9.206  12.056
24774W        W97199  32.197  14.305   1.829
24775W        W97200   7.704   5.946  14.816
24776W        W97201  28.034  26.526  12.368
24777W        W97202   1.454   5.654  11.095
24778W        W97203  19.174  28.212  11.222
24779W        W97204   5.216  38.581   4.547
24780W        W97205  24.234   0.846  11.646
24781W        W97206  42.096  23.636  14.789
24782W        W97207  24.095   2.998   2.090
24783W        W97208  22.145  21.799  13.392
24784W        W97209  35.793  41.577   0.272
24785W        W97210   1.959  34.414  12.874
24786W        W97211  22.815  33.222   3.806
24787W        W97212  17.776  26.088   2.757
24788W        W97213   7.307  13.171   1.884
24789W        W97214  28.580  11.693  12.508
24790W        W97215  22.946  19.747  14.049
24791W        W97216  30.392   4.889  14.822
24792W        W97217   7.302  22.699  13.964
24793W        W97218   1.048   8.300  12.351
24794W        W97219  41.986  29.268   1.812
24795W        W97220  40.568  20.151   5.066
24796W        W97221  26.113   4.415  11.654
24797W        W97222  43.896  30.236  14.282
24798W        W97223  12.427  28.642   3.284
24799W        W97224   8.172   0.828   4.970
24800W        W97225  27.008  39.400   3.741
24801W        W97226  39.327  37.656  10.457
24802W        W97227  23.212  26.759  11.143
24803W        W97228  14.344  31.065  13.754
24804W        W97229  33.844  25.047   1.059
24805W        W97230   2.645  21.900   0.795
24806W        W97231  18.221  22.195   3.578
24807W        W97232  31.110  33.044  12.057
24808W        W97233  32.041  21.175  13.418
24809W        W97234  15.084  20.862   4.241
24810W        W97235  10.140  41.428   3.831
24811W        W97236  37.885  26.702  12.997
24812W        W97237  13.897  25.021   2.379
24813W        W97238  39.641  17.835  12.431
24814W        W97239   4.269  39.556   4.566
24815W        W97240  11.085  20.527   1.379
24816W        W97241  16.337  14.191  14.504
24817W        W97242  12.618  20.468   2.270
24818W        W97243  37.299  27.915   1.657
24819W        W97244  22.190  26.432  10.380
24820W        W97245  31.958   6.854   2.363
24821W        W97246   9.398   7.435   2.700
24822W        W97247   9.322   1.424  13.027
24823W        W97248  42.896  14.413  11.463
24824W        W97249  28.025  40.211  11.403
24825W        W97250  28.929  41.066   0.796
24826W        W97251   3.472   1.699   3.360
24827W        W97252  43.804  33.969   4.069
24828W        W97253   0.159  21.091  13.936
24829W        W97254  29.607  19.725  14.083
24830W        W97255  38.812  34.368  14.395
24831W        W97256  38.955  26.822  13.191
24832W        W97257  14.792  32.193   5.002
24833W        W97258   1.424  27.464  11.545
24834W        W97259  44.313  12.818  10.461
24835W        W97260  21.105   6.255   1.854
24836W        W97261  10.259  25.714  12.097
24837W        W97262  28.027  20.320   3.234
24838W        W97263   8.696  19.122  11.459
24839W        W97264  31.342  36.028   1.401
24840W        W97265   0.180   8.775  14.961
24841W        W97266  36.500   0.985  13.450
24842W        W97267  26.135  41.474  10.553
24843W        W97268  37.110  22.989  14.278
24844W        W97269  42.481   1.373   0.883
24845W        W97270  14.702  10.954   2.268
24846W        W97271  33.594  19.531  12.536
24847W        W97272   2.835  14.730   0.210
24848W        W97273   2.252  32.916  14.054
24849W        W97274  29.902   8.386   2.335
24850W        W97275  26.262  22.846   4.191
24851W        W97276  12.607   2.767   3.093
24852W        W97277  38.376  28.441  13.330
24853W        W97278   9.423  38.470  10.527
24854W        W97279  37.831  17.693   3.952
24855W        W97280   3.682  42.960  11.181
24856W        W97281  30.710   2.030   4.095
24857W        W97282   1.671  33.472  13.078
24858W        W97283   3.387   6.374   3.618
24859W        W97284  44.403  31.840  13.349
24860W        W97285  33.449  24.964  13.961
24861W        W97286  10.708  26.586   1.689
24862W        W97287  12.577  44.876  12.012
24863W        W97288  21.071   4.445  14.522
24864W        W97289  42.343  20.345  14.053
24865W        W97290   4.229  15.878   4.336
24866W        W97291   8.708  30.581  12.492
24867W        W97292  10.888  36.634  11.413
24868W        W97293  37.521  19.129  10.559
24869W        W97294  10.715  21.293   1.247
24870W        W97295   9.787   4.641   1.855
24871W        W97296  26.014  19.837   1.302
24872W        W97297  31.437  38.945  13.344
24873W        W97298  38.518  33.612  12.356
24874W        W97299  31.841  19.549   1.891
24875W        W97300  27.932  14.139  12.567
24876W        W97301  35.494  23.467  13.966
24877W        W97302  14.597   6.212   1.492
24878W        W97303  24.157   0.697   1.806
24879W        W97304  35.336  40.892  11.072
24880W        W97305  25.693   4.349  10.892
24881W        W97306   1.301  28.030   0.782
24882W        W97307  32.211   5.804   0.368
24883W        W97308  32.897   9.492   3.250
24884W        W97309  15.684  34.261  10.529
24885W        W97310  36.307  16.626   4.721
24886W        W97311  39.343  37.986   0.483
24887W        W97312  41.724  38.879  11.179
24888W        W97313   1.809  12.587   1.412
24889W        W97314  37.394  19.546   1.297
24890W        W97315  40.002  24.043   0.377
24891W        W97316  20.912  19.589   9.912
24892W        W97317  42.243  33.473  11.587
24893W        W97318  36.633  40.858  12.914
24894W        W97319   7.789  34.319   1.625
24895W        W97320  30.981   1.791   0.042
24896W        W97321   0.406  30.949   3.724
24897W        W97322   6.719  25.314  10.556
24898W        W97323  28.249  41.787   0.823
24899W        W97324   0.587  33.882   0.745
24900W        W97325  37.284  25.464  14.782
24901W        W97326  42.006  33.241  12.496
24902W        W97327   4.369  35.389   3.841
24903W        W97328  27.045   0.389  14.640
24904W        W97329  11.676  28.671  11.113
24905W        W97330  42.323   5.986  10.983
24906W        W97331  29.414   5.771   0.006
24907W        W97332  28.805  38.084  11.855
24908W        W97333   3.405  38.419  13.800
24909W        W97334  23.243  41.133   3.637
24910W        W97335   3.734  37.741  13.444
24911W        W97336  24.892  43.349  11.245
24912W        W97337   5.266  26.880   1.274
24913W        W97338  44.912  17.580  14.624
24914W        W97339  35.240   7.363   2.767
24915W        W97340  32.016  23.978  14.135
24916W        W97341  20.978  33.026   0.008
24917W        W97342  35.784   0.265   4.559
24918W        W97343  13.892  24.535   3.335
24919W        W97344   3.166  36.747   1.700
24920W        W97345  14.148  36.217   5.185
24921W        W97346   2.453  20.019  10.318
24922W        W97347  10.709   5.063   1.771
24923W        W97348  12.123  44.957   3.303
24924W        W97349  10.629   0.808   3.127
24925W        W97350  17.690  25.662  12.856
24926W        W97351  37.875  16.210   3.599
24927W        W97352   2.247  23.159   4.208
24928W        W97353   3.924  16.666  11.932
24929W        W97354  27.520  22.558   9.810
24930W        W97355  37.172  32.746   1.300
24931W        W97356  25.934  44.771   2.230
24932W        W97357  35.499  35.921   4.609
24933W        W97358  37.147  31.309   4.124
24934W        W97359  26.289  34.051  14.248
24935W        W97360   8.247  39.970  12.302
24936W        W97361  37.614  15.833   1.825
24937W        W97362  38.892  14.992  11.101
24938W        W97363  44.989   5.927  13.493
24939W        W97364   2.823  29.111  14.157
24940W        W97365   9.993  13.352   4.128
24941W        W97366  11.147   0.405   1.045
24942W        W97367  37.742  40.351   1.249
24943W        W97368  29.882  28.546  12.519
24944W        W97369  37.022   2.533  10.586
24945W        W97370  20.011  31.502   2.600
24946W        W97371  13.444  21.771   3.739
24947W        W97372  23.636  23.740  12.543
24948W        W97373  15.084   2.825   0.222
24949W        W97374  41.728  18.061  10.595
24950W        W97375  16.579  42.375   3.204
24951W        W97376  24.176  26.478   0.021
24952W        W97377  40.498  18.779   0.891
24953W        W97378  42.476  10.613   2.862
24954W        W97379  32.682  41.761  13.578
24955W        W97380  34.357  14.657  10.363
24956W        W97381  31.688  17.199   4.519
24957W        W97382  42.497  41.032   2.555
24958W        W97383   7.625   7.165  11.900
24959W        W97384  18.176  35.611   4.359
24960W        W97385   8.450   9.780  13.035
24961W        W97386  36.860   2.028  10.654
24962W        W97387  43.002  43.466  10.589
24963W        W97388   2.410   3.477   3.285
24964W        W97389  24.206  24.774  10.743
24965W        W97390  36.002  28.503   2.413
24966W        W97391   9.661  11.184  11.195
24967W        W97392  37.921  27.947   1.006
24968W        W97393  33.384  10.821  11.134
24969W        W97394   7.438  18.740  13.260
24970W        W97395  36.597  33.555  14.909
24971W        W97396  39.008  18.752   3.664
24972W        W97397  13.207  39.350  11.454
24973W        W97398  30.354  22.630   0.791
24974W        W97399   5.336  32.558   2.682
24975W        W97400  42.319  40.051  14.404
24976W        W97401   4.259   5.775   2.913
24977W        W97402  20.791  41.016  11.673
24978W        W97403  25.010   5.285  10.648
24979W        W97404  40.099   1.750  12.016
24980W        W97405  12.084  19.772   4.032
24981W        W97406  36.220   4.423   2.117
24982W        W97407   2.373  16.488  13.400
24983W        W97408  27.683  40.759  13.423
24984W        W97409  44.309  17.207  12.110
24985W        W97410  42.216  25.066   0.524
24986W        W97411  43.504  32.470   1.934
24987W        W97412  18.094   6.912   1.498
24988W        W97413  26.305  32.160  10.114
24989W        W97414  40.375  26.971   0.354
24990W        W97415  34.038  30.385   1.470
24991W        W97416  19.256  43.001  13.298
24992W        W97417  29.390  13.353   1.638
24993W        W97418  41.013   7.738  13.946
24994W        W97419  27.344  40.439  10.171
24995W        W97420  19.603  18.779   0.394
24996W        W97421  24.216   4.841  11.404
24997W        W97422  38.812   9.433   2.786
24998W        W97423   7.946   4.990  12.593
24999W        W97424  24.771   1.004  10.787
25000W        W97425   1.203  28.148  14.396
25001W        W97426  26.153  21.080  11.918
25002W        W97427  37.438  25.278   1.391
25003W        W97428  26.504  23.193  11.997
25004W        W97429  12.185  11.726  13.469
25005W        W97430  14.097  41.851   0.965
25006W        W97431  14.089  39.892   4.383
25007W        W97432  11.404   0.795   3.326
25008W        W97433  27.771  35.552   3.893
25009W        W97434  32.953  27.972   0.509
25010W        W97435  26.595  16.185  10.908
25011W        W97436  27.082  20.150  14.538
25012W        W97437  32.644  24.055  12.502
25013W        W97438   7.523   3.659  12.109
25014W        W97439  44.753  43.966   2.160
25015W        W97440  14.637  32.383  10.735
25016W        W97441  11.743  17.626   0.493
25017W        W97442  39.990  39.891  12.165
25018W        W97443   3.433  36.811  12.886
25019W        W97444  24.370  41.764   2.701
25020W        W97445  14.088  21.243  13.471
25021W        W97446  32.476  14.551  11.990
25022W        W97447  18.100  27.438   1.210
25023W        W97448  21.505  34.087  12.079
25024W        W97449  41.211  20.324   3.231
25025W        W97450  31.689  34.336  14.807
25026W        W97451  31.683  11.656  13.467
25027W        W97452  44.451  14.259  11.600
25028W        W97453  20.689   0.719   0.286
25029W        W97454   7.824  29.946  13.890
25030W        W97455  44.471   3.633   3.693
25031W        W97456  14.993  15.760  12.489
25032W        W97457  37.603   8.711  11.476
25033W        W97458  10.832  26.127   1.461
25034W        W97459  35.734  21.495   3.683
25035W        W97460  14.225  40.011  13.837
25036W        W97461  39.947  22.533   1.052
25037W        W97462   5.174   4.850   3.152
25038W        W97463  42.091   4.451  13.293
25039W        W97464   9.125  31.537   2.642
25040W        W97465  19.836  27.888  10.533
25041W        W97466  17.979  42.489   1.846
25042W        W97467  26.902  44.400   1.282
25043W        W97468  41.270   5.262  12.016
25044W        W97469  35.138  42.476   0.941
25045W        W97470  29.220   0.919   0.303
25046W        W97471   6.836  23.590  13.804
25047W        W97472  43.376   5.193  13.996
25048W        W97473  41.370   3.499  10.716
25049W        W97474  25.788  41.242  13.904
25050W        W97475  10.607  11.103  11.515
25051W        W97476  24.070   8.717  12.404
25052W        W97477  11.825  43.234  12.778
25053W        W97478  12.460   7.225   1.282
25054W        W97479   1.817  18.076   4.564
25055W        W97480  30.587  34.144   3.612
25056W        W97481  35.090  20.698   4.749
25057W        W97482  41.012  26.084   4.597
25058W        W97483  16.577  40.577   3.455
25059W        W97484  18.590  11.380  13.337
25060W        W97485  28.229  42.292   0.994
25061W        W97486   1.875  43.229  14.871
25062W        W97487   8.114  17.530   4.222
25063W        W97488  25.579  44.909  14.115
25064W        W97489  35.733   3.971  11.143
25065W        W97490  28.382  16.218   3.280
25066W        W97491   5.148   1.561   4.890
25067W        W97492   0.300  21.135  11.510
25068W        W97493  34.913  19.681  12.159
25069W        W97494  17.269  12.669   0.388
25070W        W97495  17.473  42.506  11.632
25071W        W97496  11.668  13.005   3.575
25072W        W97497  19.053  32.467  12.460
25073W        W97498  41.417  39.264   4.430
25074W        W97499  43.444  21.060  11.179
25075W        W97500  32.579  10.927  10.672
25076W        W97501  29.318   0.894  11.646
25077W        W97502  16.120   7.899  11.275
25078W        W97503  24.699  16.686   3.802
25079W        W97504  37.143  30.364   3.289
25080W        W97505   3.406  40.936  14.353
25081W        W97506  28.092  28.541  10.734
25082W        W97507  28.599  28.648   1.186
25083W        W97508   4.599  27.802   4.591
25084W        W97509   9.776  43.167   0.612
25085W        W97510  12.082  32.536  13.548
25086W        W97511  24.464  27.213   2.930
25087W        W97512   9.391  32.997  14.394
25088W        W97513  38.450  28.148  14.724
25089W        W97514  40.506  23.056   1.314
25090W        W97515  27.479  29.834  12.859
25091W        W97516  19.285  44.465   4.562
25092W        W97517   8.281  30.395   2.015
25093W        W97518  27.465  39.554   4.998
25094W        W97519  38.958   3.834  14.792
25095W        W97520  37.457  11.816   1.245
25096W        W97521   2.793   5.635   5.024
25097W        W97522   1.973  23.123   1.389
25098W        W97523  11.726  35.643  12.135
25099W        W97524   7.676  30.070  10.634
25100W        W97525  42.719   1.365   4.444
25101W        W97526  22.053  33.629   3.666
25102W        W97527  42.565  22.076   2.369
25103W        W97528  25.823   2.390   1.009
25104W        W97529  34.557  42.061  13.488
25105W        W97530  21.750  19.261   2.630
25106W        W97531   7.515  11.821  11.286
25107W        W97532  17.548  24.173   1.843
25108W        W97533   6.216  15.490   2.728
25109W        W97534  11.275  11.695   1.921
25110W        W97535  23.774  43.448  14.435
25111W        W97536  19.084  32.929   4.416
25112W        W97537   1.203  40.741   3.552
25113W        W97538  17.174  34.593   3.677
25114W        W97539  39.491   3.822  14.801
25115W        W97540  26.500   1.345   2.217
25116W        W97541  20.343  35.953  12.882
25117W        W97542  10.220   0.039  12.092
25118W        W97543  41.457  16.528  10.655
25119W        W97544  30.889  16.738  10.720
25120W        W97545  28.720  36.848  10.702
25121W        W97546  16.959  16.776   4.390
25122W        W97547  12.248   1.486   4.555
25123W        W97548  32.893  36.891   2.833
25124W        W97549  37.879  30.214  10.613
25125W        W97550  43.649  21.146  13.793
25126W        W97551  41.057  23.422  10.459
25127W        W97552  44.938  34.205   3.571
25128W        W97553  32.143   2.979   3.359
25129W        W97554  21.779  28.403   4.202
25130W        W97555   9.194  36.243  11.912
25131W        W97556  39.461   0.441  14.702
25132W        W97557   5.768  13.358  13.831
25133W        W97558  34.015  19.612  10.952
25134W        W97559  18.218   2.322  14.165
25135W        W97560  15.672  26.470  13.475
25136W        W97561  14.644  18.657  12.432
25137W        W97562  15.270  23.124  13.488
25138W        W97563  28.909  35.112   0.407
25139W        W97564  43.241  43.680  13.808
25140W        W97565  20.119   6.771  10.734
25141W        W97566  21.553   2.512  12.363
25142W        W97567  31.668  14.402  10.744
25143W        W97568   4.092  14.240   2.762
25144W        W97569  25.382  22.477  14.430
25145W        W97570  11.797  10.156   2.383
25146W        W97571  37.489  22.513   0.595
25147W        W97572  43.529  32.379  11.512
25148W        W97573   0.392   3.019  13.211
25149W        W97574  39.291   2.976  11.044
25150W        W97575  22.673   6.682  10.635
25151W        W97576  14.814  38.162   1.393
25152W        W97577  25.725  43.241  13.965
25153W        W97578  21.881  40.005  13.483
25154W        W97579  13.297  44.300   3.081
25155W        W97580   1.830  27.090   2.829
25156W        W97581   1.031  43.989   2.723
25157W        W97582   2.182  40.286  11.990
25158W        W97583   7.706  24.896   4.623
25159W        W97584  21.459  11.859   3.479
25160W        W97585  21.231  36.491  13.748
25161W        W97586  40.771  22.030   4.276
25162W        W97587   5.739  20.170   3.636
25163W        W97588  27.751  26.988  12.517
25164W        W97589  33.147  33.895  12.563
25165W        W97590  20.220  44.692  10.751
25166W        W97591  31.720  39.822   1.987
25167W        W97592  16.209  11.259  11.564
25168W        W97593  44.296  26.171  11.435
25169W        W97594   8.527  19.346   1.263
25170W        W97595  17.293  31.968   1.180
25171W        W97596  43.548  17.108  12.900
25172W        W97597  19.179  24.410  11.596
25173W        W97598  22.265  19.501   3.824
25174W        W97599  35.095   5.413   0.740
25175W        W97600  42.986   7.676  12.095
25176W        W97601  27.380  28.877   0.818
25177W        W97602  13.799  15.760   3.413
25178W        W97603  34.315  11.807   0.863
25179W        W97604  39.002   4.598   5.040
25180W        W97605   0.523  22.932  12.584
25181W        W97606  19.128   0.138  12.987
25182W        W97607  28.515  44.078   0.479
25183W        W97608   0.672  40.508  14.266
25184W        W97609  35.721  39.135  11.543
25185W        W97610   4.322  43.699   3.252
25186W        W97611  37.860  35.198   1.113
25187W        W97612  30.644  29.492   1.405
25188W        W97613  44.870  42.022  12.590
25189W        W97614  15.718  29.412   3.515
25190W        W97615  34.474   9.835   0.501
25191W        W97616  37.615   5.865  14.401
25192W        W97617  13.898  44.937   2.691
25193W        W97618  22.732   5.453  12.944
25194W        W97619  35.388  41.605   4.137
25195W        W97620   9.329  10.133   2.223
25196W        W97621  44.437  44.530   4.589
25197W        W97622  12.079  27.754  13.611
25198W        W97623  33.051  10.649   3.527
25199W        W97624  11.158  39.444   2.425
25200W        W97625  25.971   4.616   1.813
25201W        W97626   2.979  26.865  11.134
25202W        W97627  26.281  13.948   4.044
25203W        W97628   1.655  32.469  12.347
25204W        W97629  35.040   3.641   4.049
25205W        W97630  26.260  35.616  12.673
25206W        W97631  35.849   5.240  11.963
25207W        W97632  39.926  10.655   3.216
25208W        W97633  29.437   0.952   0.788
25209W        W97634  33.449  11.158  14.397
25210W        W97635  33.488  17.077   0.469
25211W        W97636  19.739  16.575  14.385
25212W        W97637  40.044  39.897   4.370
25213W        W97638  24.077  29.476   2.224
25214W        W97639  21.276   8.753  12.105
25215W        W97640  36.113   6.321   1.791
25216W        W97641  35.099   0.146   3.854
25217W        W97642  37.913  14.777   2.877
25218W        W97643  16.567  18.824  11.498
25219W        W97644  33.327  26.950   2.777
25220W        W97645  26.438  10.333   3.962
25221W        W97646  39.907  33.695  14.888
25222W        W97647  19.298  29.517   0.505
25223W        W97648  29.697   3.396   0.064
25224W        W97649  11.699  27.391  11.406
25225W        W97650  18.680   9.145   2.184
25226W        W97651  19.965  16.028   3.692
25227W        W97652   3.056  40.754  12.932
25228W        W97653  39.957   2.470   0.552
25229W        W97654  36.072  43.545   1.982
25230W        W97655  14.712  10.368  13.256
25231W        W97656  16.159   7.610   0.562
25232W        W97657  25.662  37.352  13.862
25233W        W97658  16.569   0.338   0.811
25234W        W97659  30.176  23.804   3.588
25235W        W97660  14.512  39.536   0.884
25236W        W97661  24.130  21.531   5.459
25237W        W97662  20.259   6.313  13.949
25238W        W97663  35.035  18.273   4.274
25239W        W97664  31.188  38.330  10.682
25240W        W97665  40.754   9.780  14.069
25241W        W97666  11.073  33.558   4.052
25242W        W97667  34.909  26.912   0.306
25243W        W97668  18.777  26.288   1.859
25244W        W97669  42.457   0.848   3.902
25245W        W97670  38.497   1.929   2.718
25246W        W97671   6.395   3.252  11.634
25247W        W97672  19.379  37.369  11.169
25248W        W97673  15.685  33.712   3.496
25249W        W97674  11.781  31.981   3.460
25250W        W97675   1.304   2.937   0.872
25251W        W97676  42.332  20.269   1.471
25252W        W97677  16.139  24.563  11.210
25253W        W97678  12.121  16.158   0.737
25254W        W97679  25.736  27.769  14.459
25255W        W97680  36.018  37.509   2.749
25256W        W97681  29.065  18.036   3.159
25257W        W97682  41.120  29.540  12.179
25258W        W97683   4.093  42.481   4.625
25259W        W97684  41.364  14.488  10.738
25260W        W97685  17.857  35.893  10.380
25261W        W97686  38.500  43.587  12.638
25262W        W97687   2.352   5.815   2.667
25263W        W97688   4.653  40.050   1.298
25264W        W97689   6.402  39.814   3.771
25265W        W97690  30.004  27.147  14.032
25266W        W97691   9.225  19.713  10.228
25267W        W97692  42.887  28.856  12.478
25268W        W97693   0.232  27.530  13.534
25269W        W97694  34.430   2.948   3.216
25270W        W97695  29.202  31.219   4.134
25271W        W97696  22.181  25.920  10.292
25272W        W97697  10.398   4.427   3.178
25273W        W97698   5.904  20.677  11.835
25274W        W97699   2.881  42.695  13.470
25275W        W97700   7.324  14.256   1.880
25276W        W97701  17.589  22.261   1.732
25277W        W97702  26.638  37.632   0.457
25278W        W97703   4.906  21.349   0.877
25279W        W97704  19.296   0.840  13.350
25280W        W97705   9.281  36.425  12.372
25281W        W97706  38.812  36.339   1.260
25282W        W97707   2.368  39.243   3.339
25283W        W97708  12.801  34.046   0.965
25284W        W97709  38.919  40.284   3.051
25285W        W97710  26.613  20.714   4.605
25286W        W97711   3.391  37.326  12.967
25287W        W97712  37.962  21.297   1.689
25288W        W97713  28.349  42.094   3.642
25289W        W97714  41.440  39.327   0.700
25290W        W97715  33.645  39.437   1.567
25291W        W97716  17.599  18.652  11.641
25292W        W97717  21.917  37.614   2.228
25293W        W97718  36.784   7.418   4.038
25294W        W97719  34.480  25.912   4.820
25295W        W97720   5.397  38.812   2.312
25296W        W97721   1.997  27.082   0.647
25297W        W97722  39.039  24.755   2.214
25298W        W97723  37.448  23.092   1.391
25299W        W97724  10.003   5.125  12.440
25300W        W97725   3.797  42.939   1.931
25301W        W97726   2.510  16.233  11.551
25302W        W97727  41.710   1.721   0.988
25303W        W97728  39.003  21.242   1.790
25304W        W97729  28.389  10.810  13.287
25305W        W97730   4.085  23.473   0.658
25306W        W97731  24.771  34.342   0.676
25307W        W97732   6.389  23.654  13.492
25308W        W97733  39.439  21.615  14.728
25309W        W97734  17.612   9.837  14.590
25310W        W97735  38.816  37.603  10.555
25311W        W97736  33.273  28.127  12.720
25312W        W97737   2.803  29.653   1.691
25313W        W97738   1.323  32.367   3.696
25314W        W97739  34.459  43.393  14.885
25315W        W97740   9.426  38.562  12.469
25316W        W97741   6.288  33.095   0.872
25317W        W97742  30.463  18.739   3.262
25318W        W97743  12.205   9.208   3.539
25319W        W97744   3.585  38.363  14.298
25320W        W97745  10.581  17.363  13.019
25321W        W97746  11.114  28.995  14.736
25322W        W97747  44.764  14.645  12.593
25323W        W97748   5.773  25.091  13.934
25324W        W97749  13.673  10.489  13.976
25325W        W97750  37.528  44.877   3.588
25326W        W97751  21.201  42.046   1.371
25327W        W97752  22.554  22.506  12.475
25328W        W97753  30.602  28.164  10.983
25329W        W97754  19.558  33.928   3.501
25330W        W97755  18.073   0.315   2.452
25331W        W97756  40.407  20.596   1.430
25332W        W97757  38.022  19.810  14.855
25333W        W97758  38.570  33.050   2.135
25334W        W97759  32.155  18.473   2.743
25335W        W97760  30.409  20.369   2.265
25336W        W97761  24.595  27.139  11.655
25337W        W97762  38.262  41.020   0.845
25338W        W97763  31.066  36.152   0.881
25339W        W97764  31.695  25.145   1.821
25340W        W97765   9.650  27.487   4.074
25341W        W97766  29.853   0.161   4.402
25342W        W97767   4.932   2.813  11.739
25343W        W97768   1.340  15.645  14.940
25344W        W97769   3.343   4.980  12.022
25345W        W97770  28.513  44.182  14.948
25346W        W97771  11.829  44.824   0.525
25347W        W97772  36.977  17.287  14.888
25348W        W97773   8.292  33.214   4.028
25349W        W97774   1.189  16.145  10.721
25350W        W97775   1.805  11.627  13.049
25351W        W97776  18.260  31.693   1.478
25352W        W97777  22.251  15.569   1.296
25353W        W97778  37.435   9.227   5.019
25354W        W97779  44.255  17.590   1.269
25355W        W97780  27.397  10.835  12.524
25356W        W97781  41.955  17.099   3.022
25357W        W97782  20.178  11.917  12.507
25358W        W97783   4.246  27.893  12.904
25359W        W97784  19.465  21.242  11.854
25360W        W97785  21.017  38.276  14.677
25361W        W97786  29.252  40.919  14.297
25362W        W97787  17.551  43.361  13.528
25363W        W97788  33.157  36.611   1.018
25364W        W97789  36.862  17.678  11.711
25365W        W97790  14.027   1.731  10.713
25366W        W97791  30.080   3.467   2.388
25367W        W97792  24.466  29.080   0.091
25368W        W97793  29.955  11.129   2.173
25369W        W97794   8.629  21.110   2.770
25370W        W97795   0.781   4.430  13.071
25371W        W97796  30.613  44.346  11.097
25372W        W97797  12.252   7.695  11.962
25373W        W97798   3.245  12.436   4.234
25374W        W97799  26.486  22.750  11.691
25375W        W97800   1.377  16.065  14.398
25376W        W97801  33.320  35.333   1.357
25377W        W97802   5.958  18.665   0.712
25378W        W97803  29.156   4.447   1.288
25379W        W97804  26.418  31.902  13.885
25380W        W97805  39.916  29.398   4.296
25381W        W97806  24.046  26.124  12.544
25382W        W97807  41.464  37.479  10.688
25383W        W97808  18.783  11.353  11.206
25384W        W97809  27.609  33.304  14.494
25385W        W97810   4.732  38.393  10.637
25386W        W97811  41.604   2.751   3.764
25387W        W97812  16.837  19.234   4.187
25388W        W97813  20.404   5.146  11.347
25389W        W97814   9.435  32.919   2.285
25390W        W97815  43.790  28.104   4.496
25391W        W97816  28.623  20.209   1.735
25392W        W97817  35.071   6.398   1.836
25393W        W97818  31.606   7.254   2.374
25394W        W97819   9.584   9.674   4.442
25395W        W97820   4.955  15.327   1.803
25396W        W97821  32.159  39.646   3.759
25397W        W97822  36.870  38.593  13.416
25398W        W97823  31.307   8.902  12.074
25399W        W97824  19.229  38.360   3.115
25400W        W97825  24.103  40.909   2.297
25401W        W97826  26.537  33.661   2.367
25402W        W97827  19.448  16.641  13.969
25403W        W97828  12.789   2.803  11.613
25404W        W97829  10.637   5.656   0.296
25405W        W97830   1.440  19.803   4.164
25406W        W97831  17.743   9.378  10.397
25407W        W97832  32.465  18.312   0.253
25408W        W97833  13.466  19.189  13.634
25409W        W97834  36.895   9.877  13.950
25410W        W97835   4.526  33.381  10.396
25411W        W97836   8.713  10.695  12.221
25412W        W97837   8.372  31.359  13.028
25413W        W97838   7.931  30.422   4.283
25414W        W97839   3.722   4.313  13.362
25415W        W97840   5.291  30.154  14.275
25416W        W97841  17.129   3.435  11.381
25417W        W97842   6.478   3.147  14.214
25418W        W97843  41.471  43.039   2.236
25419W        W97844  11.188   6.870   1.222
25420W        W97845  34.636  26.852  14.065
25421W        W97846   7.182   4.839   3.392
25422W        W97847   2.192  15.720  10.644
25423W        W97848  12.999   1.254   0.948
25424W        W97849  26.310  13.771  11.990
25425W        W97850   7.290  32.656  13.518
25426W        W97851  35.008  17.354  12.147
25427W        W97852   9.183  10.657   0.782
25428W        W97853  23.334  35.963  10.788
25429W        W97854   7.002   5.964  10.690
25430W        W97855  21.051  17.834   2.250
25431W        W97856  35.934   8.841   5.815
25432W        W97857  24.650  26.068   0.813
25433W        W97858  42.371  15.538  11.614
25434W        W97859  34.049  44.309  14.275
25435W        W97860   6.175  39.038  14.343
25436W        W97861  38.395  20.074   2.120
25437W        W97862  18.394  35.386  13.456
25438W        W97863  20.738  40.195  14.576
25439W        W97864  28.599  13.244  14.840
25440W        W97865  44.810   8.483   3.627
25441W        W97866  33.137   0.469  13.484
25442W        W97867  27.033   1.810  14.080
25443W        W97868   3.301   4.628   1.965
25444W        W97869  37.373  37.346   1.977
25445W        W97870  39.991  15.760   4.142
25446W        W97871  43.387   9.905   0.821
25447W        W97872  10.973  35.112  11.067
25448W        W97873  25.467  44.830  12.038
25449W        W97874   4.908  17.310  12.422
25450W        W97875  36.939   2.236  13.555
25451W        W97876  13.090  41.821  14.461
25452W        W97877   4.785  15.609  11.098
25453W        W97878  30.006  15.741   4.103
25454W        W97879  34.593  42.666  12.508
25455W        W97880  40.170  25.207   2.754
25456W        W97881  28.149  44.810  10.237
25457W        W97882  39.589  29.671  14.973
25458W        W97883   7.074  16.793   0.346
25459W        W97884  28.846  41.872  11.313
25460W        W97885   7.909  11.146   4.019
25461W        W97886  22.847  31.148  13.874
25462W        W97887  32.451  30.234  13.875
25463W        W97888  29.523  17.702   2.734
25464W        W97889  38.803  26.748   2.255
25465W        W97890  15.456   7.823  11.169
25466W        W97891   2.739  43.491   0.917
25467W        W97892   8.900  19.832  12.511
25468W        W97893  12.158   6.682   0.956
25469W        W97894  16.393  33.055  12.036
25470W        W97895  20.608  17.892  10.522
25471W        W97896   0.310  23.933   2.237
25472W        W97897   2.029   7.638   3.508
25473W        W97898  21.802  37.600   0.256
25474W        W97899  32.107  40.242  11.190
25475W        W97900  25.099  22.269  11.959
25476W        W97901  24.262  16.530   4.098
25477W        W97902  38.348  22.577  14.540
25478W        W97903  29.698  16.758   2.541
25479W        W97904  36.107  10.230  12.856
25480W        W97905  44.954  14.468  10.799
25481W        W97906   2.254  29.937  14.418
25482W        W97907  37.539  38.057   4.149
25483W        W97908  43.340  13.218  13.831
25484W        W97909  35.362  39.905  13.093
25485W        W97910  39.394   7.721   4.064
25486W        W97911   9.730   9.218   4.331
25487W        W97912  20.249  17.097  13.882
25488W        W97913  12.773  25.447  10.818
25489W        W97914  38.238   4.706  14.333
25490W        W97915   3.453  40.179  10.199
25491W        W97916   4.199  30.273   1.477
25492W        W97917   6.335  19.646   1.776
25493W        W97918  22.519  34.166   0.960
25494W        W97919  15.353  39.775  14.672
25495W        W97920  27.084  11.091   3.611
25496W        W97921  22.183  39.812  11.842
25497W        W97922   2.328  19.237  12.796
25498W        W97923  19.741  21.502   0.056
25499W        W97924   2.840  33.487  11.955
25500W        W97925  13.449   1.000  12.589
25501W        W97926  25.827  22.217  10.819
25502W        W97927  30.697  36.690  11.564
25503W        W97928  18.694  15.923   1.748
25504W        W97929  37.784  35.332   0.312
25505W        W97930  35.630  17.644   4.823
25506W        W97931   2.071  33.561   0.781
25507W        W97932   7.856  11.653   4.041
25508W        W97933  30.551  37.036   3.850
25509W        W97934  34.837  20.183   0.885
25510W        W97935   9.320  24.626   0.075
25511W        W97936  23.240  36.268   4.912
25512W        W97937   6.400   6.993  14.962
25513W        W97938  20.994   7.219  14.754
25514W        W97939  31.776  38.568   3.833
25515W        W97940  22.419  27.017   0.970
25516W        W97941  37.934  25.734   2.400
25517W        W97942   7.709   6.485  13.580
25518W        W97943  23.718  40.460  14.177
25519W        W97944  34.396  11.616   0.011
25520W        W97945  36.400  42.102  11.925
25521W        W97946  41.346   7.726   2.298
25522W        W97947  13.268  19.588   1.682
25523W        W97948  31.710  43.316   1.303
25524W        W97949  23.444   6.663  11.177
25525W        W97950  30.459   8.569   3.096
25526W        W97951  13.101  37.100   0.847
25527W        W97952  22.669  32.846   3.477
25528W        W97953  31.350  14.075   4.302
25529W        W97954   4.738  17.746   2.717
25530W        W97955  14.592  24.608   9.597
25531W        W97956  18.686  21.006  13.756
25532W        W97957   6.094  12.089   2.229
25533W        W97958  40.973  35.244  11.067
25534W        W97959  29.895   9.909  11.662
25535W        W97960  10.771  35.529  10.709
25536W        W97961  22.232  12.545   1.871
25537W        W97962  40.407  24.961   1.395
25538W        W97963  16.646  31.581  10.594
25539W        W97964  41.847  40.734  12.517
25540W        W97965  37.865   7.143  11.028
25541W        W97966   2.492  32.571   2.359
25542W        W97967  28.670   6.221   4.639
25543W        W97968  26.639  12.275   4.253
25544W        W97969  44.191  13.240  12.192
25545W        W97970  16.149  22.282  10.711
25546W        W97971  44.865  16.148   1.972
25547W        W97972  34.857  17.546   4.190
25548W        W97973  38.785  16.271   0.394
25549W        W97974  31.104  23.104  10.093
25550W        W97975  36.542  27.899  14.554
25551W        W97976  13.602  40.786   0.921
25552W        W97977  22.822  12.082  14.181
25553W        W97978   4.750  42.998  13.047
25554W        W97979  41.835  19.276  14.904
25555W        W97980  27.401   1.854  11.153
25556W        W97981   9.143  10.621   2.169
25557W        W97982  27.394  20.217   0.968
25558W        W97983  40.991  33.373  11.912
25559W        W97984  20.030  27.547  14.883
25560W        W97985  41.775  15.125  11.966
25561W        W97986  23.276   3.849  13.058
25562W        W97987  33.662  23.740  10.554
25563W        W97988   7.775  12.613  13.289
25564W        W97989  10.163  30.827  11.160
25565W        W97990  39.073  23.061  13.076
25566W        W97991  35.525  16.230  13.842
25567W        W97992  19.643  39.297  14.068
25568W        W97993  22.426  35.574  11.920
25569W        W97994  16.565  36.876   2.289
25570W        W97995   6.206  20.139  10.150
25571W        W97996  20.761  22.728   1.807
25572W        W97997  39.327  29.211   1.270
25573W        W97998   5.253  43.851  13.412
25574W        W97999  35.420   0.231  14.309
25575W        W98000  24.405  22.218   2.010
25576W        W98001   5.843   3.768   2.703
25577W        W98002   1.764  41.511   1.876
25578W        W98003  20.833  40.445  12.357
25579W        W98004  35.278  36.413  13.602
25580W        W98005  24.048  22.091  11.951
25581W        W98006  19.409  22.762   1.246
25582W        W98007   9.775  23.783  11.216
25583W        W98008  12.677  26.627   3.795
25584W        W98009   0.657  16.026  13.802
25585W        W98010   5.934   0.835   3.826
25586W        W98011  24.396  41.141  11.139
25587W        W98012   9.305  22.335  12.940
25588W        W98013  31.691  30.084  12.508
25589W        W98014  24.968  38.116   4.287
25590W        W98015   0.585  39.886  11.590
25591W        W98016  15.651  19.819  12.923
25592W        W98017  20.616  14.547   3.250
25593W        W98018  31.223  10.057   3.720
25594W        W98019  13.664  22.431  10.922
25595W        W98020  15.534  11.795  14.911
25596W        W98021  21.058  23.066   2.749
25597W        W98022   7.079   1.275  13.518
25598W        W98023  15.701  29.574  14.346
25599W        W98024   7.705  14.634   1.217
25600W        W98025  12.344  27.773   1.377
25601W        W98026  26.573  28.655  10.371
25602W        W98027  44.832  41.977   3.163
25603W        W98028   7.193  15.137   2.037
25604W        W98029  24.698  25.045  14.737
25605W        W98030  43.708  25.939   0.786
25606W        W98031  10.167  42.819   3.644
25607W        W98032   8.799  33.680   3.402
25608W        W98033  22.064  32.071   2.428
25609W        W98034   8.661   6.901   4.113
25610W        W98035  14.267  10.116  13.372
25611W        W98036   2.746  21.553   4.001
25612W        W98037  15.722  15.076   3.931
25613W        W98038   7.148  36.997   1.572
25614W        W98039   9.898   6.754   2.799
25615W        W98040  38.270  34.557  12.893
25616W        W98041  43.009  43.744   3.356
25617W        W98042  24.507  31.131  10.646
25618W        W98043   0.023  15.244  11.215
25619W        W98044  21.183  43.842   4.800
25620W        W98045  40.526  11.557   0.955
25621W        W98046   3.195  25.658  13.887
25622W        W98047  42.719  40.539   2.639
25623W        W98048  43.429  33.539  10.739
25624W        W98049  40.301  34.607   0.740
25625W        W98050  30.122  23.634   5.543
25626W        W98051  21.183  19.510   0.631
25627W        W98052  10.422  35.451  12.455
25628W        W98053  38.441   8.709   4.182
25629W        W98054  18.723  33.306   4.539
25630W        W98055  30.090  19.850  10.870
25631W        W98056  23.354  30.574  13.198
25632W        W98057  24.433  42.774   4.470
25633W        W98058  35.144  16.581   4.158
25634W        W98059  11.869  37.832   2.607
25635W        W98060  29.730  35.089   4.135
25636W        W98061  16.035   9.804   4.269
25637W        W98062  22.616  20.812  11.071
25638W        W98063  19.170  10.239   0.488
25639W        W98064   9.319  18.144  12.955
25640W        W98065   2.280  22.576   0.695
25641W        W98066  11.770  11.416  11.749
25642W        W98067  39.852  38.815   3.217
25643W        W98068  43.498  11.334   0.666
25644W        W98069  31.308  18.439  10.857
25645W        W98070  19.093  12.775   4.787
25646W        W98071   5.718   7.420  14.329
25647W        W98072  21.368   1.256  11.247
25648W        W98073  15.656  29.726   4.006
25649W        W98074  37.648  32.206  12.084
25650W        W98075   1.945  21.310   3.226
25651W        W98076  41.774  43.357  11.998
25652W        W98077  25.728  37.039  10.736
25653W        W98078  19.317   7.332   4.158
25654W        W98079  40.365  11.372   1.442
25655W        W98080   9.281  26.042  11.980
25656W        W98081  33.033  16.310  11.698
25657W        W98082  27.186   6.697   3.601
25658W        W98083  41.953  37.269  10.635
25659W        W98084  39.902  20.997   0.789
25660W        W98085   9.937  34.338  12.488
25661W        W98086  15.801  23.300  11.508
25662W        W98087  27.133  34.980  11.134
25663W        W98088  14.727  10.305   0.339
25664W        W98089  31.687   7.190  11.473
25665W        W98090  10.385  37.960   3.386
25666W        W98091  21.275  25.533  13.759
25667W        W98092  39.806  33.707   3.644
25668W        W98093  21.651  38.234   2.296
25669W        W98094  16.810  40.999  13.775
25670W        W98095  34.443  25.406  10.910
25671W        W98096  23.562   1.773   1.203
25672W        W98097  29.410  12.350   2.389
25673W        W98098   6.498  35.352  11.485
25674W        W98099  17.883  34.896  13.919
25675W        W98100  35.998  24.235  13.875
25676W        W98101   8.615  32.126   1.513
25677W        W98102  38.290  42.110  13.118
25678W        W98103   6.756   8.883   1.819
25679W        W98104  11.145  36.224   3.378
25680W        W98105  25.530  20.076  14.332
25681W        W98106   0.378  37.934  10.747
25682W        W98107   5.790  31.510   3.200
25683W        W98108  26.366   6.181   3.766
25684W        W98109  34.537  43.458  11.685
25685W        W98110   4.499   1.777   4.346
25686W        W98111   6.364  12.019   1.322
25687W        W98112   1.411  36.927  14.802
25688W        W98113   0.822  16.137   0.423
25689W        W98114  44.296   4.463  10.646
25690W        W98115  22.269  33.826  10.510
25691W        W98116  31.043  15.499   3.197
25692W        W98117   6.390   4.895  11.865
25693W        W98118  36.929  25.849  14.746
25694W        W98119   2.004  21.179  13.963
25695W        W98120  38.555  40.996  12.025
25696W        W98121  12.399  28.879  13.882
25697W        W98122  12.882  37.390  10.637
25698W        W98123  14.198  32.987  13.957
25699W        W98124   2.888  13.792  14.780
25700W        W98125  26.087  44.482  12.631
25701W        W98126   0.724  12.214  13.455
25702W        W98127  25.142  20.728  10.700
25703W        W98128  19.661  34.812  14.008
25704W        W98129  35.771  14.683  13.834
25705W        W98130  29.651  19.802  11.133
25706W        W98131  17.031  35.210  11.147
25707W        W98132  44.413  28.087  14.957
25708W        W98133   3.841  37.917   1.861
25709W        W98134   0.975   0.375   4.603
25710W        W98135  22.110   0.361   2.818
25711W        W98136  26.267  39.784  10.659
25712W        W98137  22.782  34.597   0.794
25713W        W98138  13.305  11.852  14.782
25714W        W98139   9.163  35.125  12.886
25715W        W98140  21.650   6.129   0.774
25716W        W98141  10.153  42.353  10.698
25717W        W98142  21.141  33.626   1.729
25718W        W98143   0.510  23.999   1.756
25719W        W98144  24.842  12.429  12.714
25720W        W98145  44.381  30.194   0.813
25721W        W98146  43.229   8.708  11.196
25722W        W98147   8.277  21.709   0.976
25723W        W98148  27.064  42.554   0.530
25724W        W98149  44.494  14.210  12.513
25725W        W98150   5.938  43.983  13.982
25726W        W98151  25.132  41.992   4.473
25727W        W98152  43.862   0.842   1.342
25728W        W98153  35.130   1.796   9.894
25729W        W98154  33.624  31.618   4.223
25730W        W98155  37.572  13.808   4.377
25731W        W98156  26.046   3.052   4.248
25732W        W98157  31.589  23.322  11.008
25733W        W98158  20.048   1.923   3.958
25734W        W98159  24.530  14.827   4.024
25735W        W98160   4.939  38.019  12.593
25736W        W98161  33.545  41.838   2.766
25737W        W98162  21.715  40.969   0.718
25738W        W98163  37.329  34.063  14.862
25739W        W98164  39.664  31.447   0.432
25740W        W98165  42.749  26.905  14.018
25741W        W98166   7.531   9.596   2.703
25742W        W98167  33.306   6.230   1.829
25743W        W98168  10.875  35.544  14.929
25744W        W98169   0.885  16.304  12.298
25745W        W98170  31.821  22.510   2.576
25746W        W98171  16.409   2.306  14.986
25747W        W98172   7.292  21.663  13.889
25748W        W98173   2.812  28.754  11.488
25749W        W98174  27.931   8.737   2.274
25750W        W98175  27.135  30.610   2.468
25751W        W98176  38.530  11.259   4.653
25752W        W98177   9.963  27.437  11.753
25753W        W98178   4.745  29.538   2.128
25754W        W98179  13.627  30.402  12.918
25755W        W98180  31.673  25.473   1.323
25756W        W98181  15.808   3.749  11.407
25757W        W98182  27.652  14.144  12.126
25758W        W98183  29.459  32.710  11.932
25759W        W98184  42.387  38.091  11.998
25760W        W98185  44.447  39.842   1.968
25761W        W98186  38.286   8.619  12.872
25762W        W98187  42.262  37.561  14.936
25763W        W98188  15.024  28.090   2.181
25764W        W98189  16.098  27.496  13.323
25765W        W98190  27.957   3.510   4.672
25766W        W98191  41.879  40.905  12.999
25767W        W98192  44.948   9.667  13.768
25768W        W98193  39.972   9.112   1.330
25769W        W98194   0.742  19.704   1.263
25770W        W98195  12.405  13.066   2.235
25771W        W98196  33.638   2.203   0.792
25772W        W98197  13.712  30.942   3.647
25773W        W98198  40.114  10.771  13.082
25774W        W98199  16.053  15.092  14.066
25775W        W98200   7.643   7.665   0.315
25776W        W98201  12.317   3.936  10.574
25777W        W98202  31.450  13.164  10.479
25778W        W98203   7.467  28.248  10.262
25779W        W98204   8.305  34.129  14.874
25780W        W98205  35.885  41.058   0.245
25781W        W98206  41.753   4.642  12.971
25782W        W98207  10.207  44.653   4.279
25783W        W98208  10.774  17.288  14.107
25784W        W98209  27.244  32.674   2.919
25785W        W98210   5.330   5.014  14.704
25786W        W98211  29.207  42.568  13.382
25787W        W98212   4.864  22.070   1.483
25788W        W98213   9.157  23.490  13.740
25789W        W98214  25.668  42.074   2.296
25790W        W98215   2.053  30.743  13.041
25791W        W98216  41.551  21.031  12.948
25792W        W98217  27.216  30.922   0.787
25793W        W98218  35.610  42.478  13.455
25794W        W98219  39.041  33.873   0.766
25795W        W98220  28.182   2.417  11.235
25796W        W98221  34.389  38.561  11.729
25797W        W98222  12.245  27.992  10.709
25798W        W98223   8.275   9.752   2.779
25799W        W98224   3.855  30.161   2.394
25800W        W98225  21.089  25.949  11.028
25801W        W98226   5.657  13.835   4.247
25802W        W98227  41.550  12.746   4.057
25803W        W98228  28.964   8.632  10.674
25804W        W98229  38.999  14.019   3.101
25805W        W98230  11.797  24.594  14.790
25806W        W98231   3.915  24.874   4.141
25807W        W98232  24.489  14.349   1.753
25808W        W98233  12.695  19.612   3.695
25809W        W98234  11.347  25.929   3.756
25810W        W98235   4.172   8.883   4.586
25811W        W98236  30.088   4.544   4.259
25812W        W98237  11.234  30.207  11.587
25813W        W98238   9.388  31.432   4.224
25814W        W98239  14.736  30.147  11.540
25815W        W98240  44.650  36.325  14.741
25816W        W98241  25.573   5.460   1.843
25817W        W98242  15.283  12.203  10.784
25818W        W98243  26.501   4.533  12.201
25819W        W98244  12.538   7.965  14.811
25820W        W98245  23.517  28.705  13.855
25821W        W98246   1.288  31.087   3.230
25822W        W98247  37.982  39.091  13.391
25823W        W98248  27.556  17.767  10.608
25824W        W98249  38.947  34.098  14.813
25825W        W98250  38.767  18.230   0.227
25826W        W98251  39.877  29.163   4.782
25827W        W98252  38.001  35.284  14.829
25828W        W98253  44.879  19.561  12.584
25829W        W98254  13.164  19.841  10.835
25830W        W98255   9.309  30.106   1.395
25831W        W98256  37.695   9.465   3.798
25832W        W98257  31.088   1.893   2.484
25833W        W98258  11.740  38.919  10.091
25834W        W98259  36.886   9.190  11.648
25835W        W98260  32.723  35.310   3.156
25836W        W98261  21.265  43.066   0.298
25837W        W98262  34.145  44.984   2.013
25838W        W98263  17.487  13.538  12.374
25839W        W98264  42.227   6.923  12.456
25840W        W98265  15.277  20.281  14.410
25841W        W98266  28.714   0.239   3.863
25842W        W98267   7.231  31.042   2.708
25843W        W98268  43.221  29.539   2.936
25844W        W98269   2.528  32.078  14.364
25845W        W98270  34.461  34.476  13.500
25846W        W98271  16.682  44.216   2.438
25847W        W98272  19.192  31.532   1.667
25848W        W98273  17.800  26.610   4.232
25849W        W98274  12.564  17.029   2.676
25850W        W98275  17.648  30.566   0.227
25851W        W98276  43.355  20.042  13.708
25852W        W98277  30.953   7.864   1.673
25853W        W98278  44.336  37.230  14.417
25854W        W98279  42.201  26.623  12.493
25855W        W98280  24.465  11.675  14.993
25856W        W98281  14.008  22.710  13.437
25857W        W98282   3.705  39.982  14.385
25858W        W98283   8.671   6.660  13.869
25859W        W98284   3.002  33.539   2.391
25860W        W98285  40.363   6.163  14.776
25861W        W98286  17.750  33.159   4.388
25862W        W98287  16.790  37.468  11.057
25863W        W98288  33.487  11.646  11.133
25864W        W98289  11.617  14.658  11.674
25865W        W98290  28.569   8.388  11.712
25866W        W98291  28.705   4.075  12.451
25867W        W98292  10.099  23.574   0.038
25868W        W98293  29.524  10.319  11.653
25869W        W98294   6.775   1.341   2.246
25870W        W98295   9.283  35.511  13.938
25871W        W98296   5.811   9.894   3.339
25872W        W98297  16.674  13.153   2.937
25873W        W98298  40.115  18.251   3.342
25874W        W98299  28.415  16.937   2.355
25875W        W98300  44.785  12.593   0.869
25876W        W98301  34.376   3.545   0.441
25877W        W98302  12.061  40.313   4.579
25878W        W98303  17.597  29.892  12.439
25879W        W98304   6.258  44.553  14.863
25880W        W98305  13.557  23.702  12.578
25881W        W98306   9.350  16.159   0.369
25882W        W98307  17.185  14.804   2.880
25883W        W98308  38.437  31.515  11.152
25884W        W98309  27.047  15.666  12.483
25885W        W98310  12.642   5.661   3.414
25886W        W98311  23.313  32.204   3.290
25887W        W98312  33.488   9.319  10.938
25888W        W98313  10.249  12.193   3.942
25889W        W98314  12.049  27.650   4.893
25890W        W98315   8.448  27.589  13.263
25891W        W98316   1.912   7.283  13.352
25892W        W98317  21.616  18.739   0.873
25893W        W98318  11.411  26.916   2.201
25894W        W98319  11.811  44.143  10.993
25895W        W98320   2.067  12.658   0.962
25896W        W98321   6.620  34.503   2.242
25897W        W98322  14.726  13.802  14.419
25898W        W98323  23.948  44.449  14.261
25899W        W98324  28.288  33.474  10.002
25900W        W98325  35.771   6.133  13.448
25901W        W98326   8.711  15.533   3.840
25902W        W98327  13.322  24.754   2.782
25903W        W98328   3.285  10.758   0.254
25904W        W98329  20.064  16.584  12.016
25905W        W98330  29.702  10.119   4.580
25906W        W98331   4.281   4.252   3.014
25907W        W98332   8.619  11.130   0.050
25908W        W98333  34.112  33.070   1.884
25909W        W98334  20.658  24.552   2.315
25910W        W98335  41.610  16.310  11.563
25911W        W98336  35.658  44.021  10.703
25912W        W98337  42.277  11.590  14.950
25913W        W98338  12.061  43.085   3.293
25914W        W98339  42.913  16.793   9.921
25915W        W98340  43.890  36.809  10.320
25916W        W98341  17.271  10.291  13.111
25917W        W98342  22.736  14.072  11.270
25918W        W98343  34.959  20.688  10.244
25919W        W98344  40.294  14.567   3.773
25920W        W98345  29.945   5.444  13.572
25921W        W98346   4.327  36.425   2.950
25922W        W98347  34.474  27.465   0.496
25923W        W98348  41.462  24.135   4.563
25924W        W98349  17.990  20.007   4.598
25925W        W98350  14.330  42.085  13.343
25926W        W98351  40.216  23.554   4.192
25927W        W98352  26.127  29.004  12.553
25928W        W98353  13.885  14.102  14.272
25929W        W98354  39.048  18.640   0.346
25930W        W98355  28.970   8.261  13.289
25931W        W98356  14.310   0.685   0.434
25932W        W98357  24.248  25.566   4.192
25933W        W98358  39.523  11.522   4.579
25934W        W98359  28.623  22.139  11.619
25935W        W98360  31.145  17.409  10.753
25936W        W98361  27.618  10.208   4.696
25937W        W98362  32.304  23.781  11.521
25938W        W98363   7.826  28.613   1.361
25939W        W98364  12.927  21.723  11.210
25940W        W98365  21.007  35.175   1.722
25941W        W98366  40.001  17.262  12.628
25942W        W98367  38.156  33.043  12.016
25943W        W98368  29.516  25.717  13.852
25944W        W98369  21.023  42.794  12.312
25945W        W98370  43.015  38.046   1.233
25946W        W98371  24.602  35.789   3.574
25947W        W98372  40.836  10.518  12.541
25948W        W98373   6.392  25.448   0.226
25949W        W98374   6.130  37.779   4.439
25950W        W98375  32.537   3.985  12.371
25951W        W98376   6.360  34.020  11.008
25952W        W98377   6.653   7.341  14.239
25953W        W98378  30.338  25.225  13.456
25954W        W98379  31.540  33.191  14.434
25955W        W98380   0.418   0.541   1.785
25956W        W98381  29.630   1.511  14.032
25957W        W98382  44.510  10.636  13.215
25958W        W98383   8.430  35.470  12.485
25959W        W98384  41.022   9.186  14.790
25960W        W98385  20.803  14.588  10.606
25961W        W98386   7.890  19.131   3.402
25962W        W98387   4.638  35.874  12.150
25963W        W98388  38.942  28.708  11.974
25964W        W98389  16.198  35.379  11.769
25965W        W98390  16.385  14.797  11.652
25966W        W98391  41.457  15.601   0.871
25967W        W98392  15.619  20.001   1.406
25968W        W98393  11.723  30.984  13.826
25969W        W98394  35.616  40.123   4.071
25970W        W98395  21.797   3.959  13.819
25971W        W98396   1.980   1.186  13.068
25972W        W98397  25.037   5.662   1.642
25973W        W98398  34.375  19.246   1.318
25974W        W98399  43.321  19.656  13.369
25975W        W98400   8.017  24.924   0.354
25976W        W98401  12.019  30.489   5.065
25977W        W98402  41.762   4.215   0.725
25978W        W98403  33.045  27.178  11.193
25979W        W98404   4.763  44.316  12.891
25980W        W98405  30.616  32.691   2.936
25981W        W98406  11.484   2.240  11.491
25982W        W98407  26.653  10.834  14.867
25983W        W98408  38.705   8.288   1.432
25984W        W98409   9.787  15.347   1.453
25985W        W98410  37.097   3.100  13.708
25986W        W98411   3.255  20.246  13.197
25987W        W98412  21.239   8.684  14.283
25988W        W98413  28.597  36.841   2.660
25989W        W98414  41.616  39.941   2.922
25990W        W98415  41.230  22.369   0.497
25991W        W98416  10.226   8.049  11.598
25992W        W98417  17.111  13.978  10.637
25993W        W98418  42.587  11.543   3.024
25994W        W98419  36.033   0.419  12.522
25995W        W98420  15.726  17.129   1.358
25996W        W98421  10.905  32.068   0.883
25997W        W98422  28.626   3.868   5.035
25998W        W98423  23.631  36.010  12.784
25999W        W98424  42.813  18.002   3.889
26000W        W98425  30.620  35.318  12.056
26001W        W98426  12.342   4.451  10.622
26002W        W98427  27.507  15.550  11.698
26003W        W98428  11.433  40.541  11.103
26004W        W98429  41.431  39.842   2.455
26005W        W98430   1.377  32.040  12.514
26006W        W98431  13.546  22.770  14.201
26007W        W98432   3.447   7.336   0.810
26008W        W98433  21.570  38.059   0.117
26009W        W98434  20.043  12.183  12.947
26010W        W98435  40.785  12.341  11.533
26011W        W98436  13.424  17.052   4.997
26012W        W98437   7.522  16.480  11.675
26013W        W98438  34.538  23.707   0.416
26014W        W98439  29.807  23.681   5.076
26015W        W98440   4.521   7.866   2.373
26016W        W98441   4.994   1.274   4.138
26017W        W98442  31.472  42.784   1.949
26018W        W98443  11.206   1.028  11.033
26019W        W98444  25.162  33.089   3.240
26020W        W98445  14.203  24.506  11.941
26021W        W98446  19.323  38.638   2.704
26022W        W98447   6.304  39.598   3.289
26023W        W98448  34.029   8.669   3.002
26024W        W98449  15.240   0.216   0.372
26025W        W98450  14.606   2.982  14.988
26026W        W98451  15.359  40.821  13.050
26027W        W98452  30.248   1.817   4.144
26028W        W98453  44.508  43.858  12.034
26029W        W98454  20.678  40.545  13.939
26030W        W98455   0.560  21.276  11.971
26031W        W98456  28.593  15.663  10.225
26032W        W98457  15.045   4.128  14.899
26033W        W98458  13.756  37.868   1.844
26034W        W98459  20.575   9.486  14.132
26035W        W98460  32.811  34.580  12.133
26036W        W98461  32.432   1.940  14.314
26037W        W98462  15.723  12.653   2.220
26038W        W98463  39.972  44.578   0.473
26039W        W98464  10.404  17.321   3.071
26040W        W98465  12.378   3.452  12.817
26041W        W98466  10.039  13.543   9.945
26042W        W98467   2.758  33.193  10.650
26043W        W98468  11.101  44.705   4.864
26044W        W98469  30.438  10.190  12.483
26045W        W98470  34.570  34.750  11.467
26046W        W98471  40.657  11.322  14.250
26047W        W98472  37.095  20.682   4.250
26048W        W98473   0.099  38.466  12.606
26049W        W98474   5.444  26.147   3.149
26050W        W98475  43.198  43.003   2.945
26051W        W98476  10.344   5.146   0.670
26052W        W98477  27.562   0.437   2.205
26053W        W98478  14.130  22.004   1.107
26054W        W98479  10.344  10.177  12.915
26055W        W98480  26.633  42.292   0.429
26056W        W98481  26.723  43.797  14.414
26057W        W98482  27.669  16.788   3.176
26058W        W98483  17.804  28.398  13.340
26059W        W98484  42.479   3.301   2.725
26060W        W98485  26.067  40.799  13.903
26061W        W98486  20.766  35.039  11.489
26062W        W98487  15.804   3.228  12.529
26063W        W98488  39.893  25.126   2.261
26064W        W98489  25.169  14.999   4.797
26065W        W98490  36.258  37.075   4.219
26066W        W98491   4.057  29.385   4.936
26067W        W98492  29.500   7.362  13.535
26068W        W98493   2.538  16.659   2.409
26069W        W98494   5.887  36.433  10.678
26070W        W98495  13.718  42.726   0.932
26071W        W98496  43.272   8.420   2.273
26072W        W98497  35.332  15.830  13.351
26073W        W98498  20.698  13.878  13.070
26074W        W98499  22.193   9.852   2.289
26075W        W98500  13.238  38.622   3.810
26076W        W98501  26.797  31.527   4.538
26077W        W98502  37.104  32.532  11.468
26078W        W98503  37.849   7.433  13.626
26079W        W98504  28.200  30.645   5.075
26080W        W98505  14.581  10.331  14.315
26081W        W98506  11.880   4.217  10.516
26082W        W98507  36.308  26.020   1.649
26083W        W98508  10.644  14.708   4.872
26084W        W98509   2.942  29.552   1.193
26085W        W98510  27.423   7.594  11.929
26086W        W98511  26.650  35.933   0.953
26087W        W98512  29.956  33.575  10.813
26088W        W98513  23.961   4.811  10.960
26089W        W98514  26.099  30.544  14.842
26090W        W98515  27.299  31.483   4.618
26091W        W98516  38.619  21.686  14.398
26092W        W98517  16.827  26.822  13.012
26093W        W98518  41.471  21.493  14.257
26094W        W98519   4.791  19.807  10.712
26095W        W98520  30.655  41.343   2.249
26096W        W98521  43.025  11.393  13.259
26097W        W98522   4.329  13.094  11.865
26098W        W98523  29.923  40.981  10.122
26099W        W98524  41.834   2.148   0.713
26100W        W98525   7.905   0.753  11.920
26101W        W98526  40.041  42.544   1.781
26102W        W98527  16.873  36.187   3.356
26103W        W98528  21.691  23.713   2.994
26104W        W98529   4.276  14.577   0.466
26105W        W98530  31.424   4.256  11.202
26106W        W98531  36.036  36.627  14.251
26107W        W98532  12.271   0.797   1.347
26108W        W98533  14.818   2.536  14.851
26109W        W98534  32.416  35.986   3.680
26110W        W98535  15.307   8.944   4.208
26111W        W98536   5.328   9.594   2.216
26112W        W98537   9.915  28.574   1.445
26113W        W98538   4.518  43.475   3.688
26114W        W98539  24.502   1.815  12.092
26115W        W98540   8.220  14.098  12.988
26116W        W98541   2.191  35.828  11.606
26117W        W98542  21.555  44.683   3.799
26118W        W98543  43.526  14.597   4.436
26119W        W98544   6.904  39.328   0.640
26120W        W98545  27.156   3.409  11.904
26121W        W98546  34.506  22.220   1.620
26122W        W98547   0.383  20.018  12.349
26123W        W98548  42.286  11.129   2.820
26124W        W98549  20.243  42.512  12.927
26125W        W98550  14.349  24.219   2.727
26126W        W98551  28.715  38.259   5.463
26127W        W98552  29.031  39.494   4.991
26128W        W98553  12.629   1.031  13.569
26129W        W98554  28.921  38.322   0.100
26130W        W98555  22.229  27.120  12.848
26131W        W98556   8.944  42.746  12.384
26132W        W98557  32.940  42.026  11.721
26133W        W98558   6.901  35.580  14.474
26134W        W98559  41.261  32.130   2.733
26135W        W98560  10.643  34.319  11.953
26136W        W98561  20.426  11.275   9.698
26137W        W98562  17.694   5.942  12.451
26138W        W98563  31.791  40.831  12.533
26139W        W98564  31.976  35.485  12.094
26140W        W98565  16.115  19.518   0.032
26141W        W98566  35.088  27.889   1.225
26142W        W98567   5.074   8.192  13.987
26143W        W98568  30.976  27.656  12.819
26144W        W98569  44.974  21.333  13.496
26145W        W98570   2.403  28.420  13.040
26146W        W98571   4.377   9.339  12.284
26147W        W98572  37.653  26.103   3.046
26148W        W98573  40.831   5.501   2.700
26149W        W98574  20.825  11.747   3.150
26150W        W98575  44.239  30.960  11.532
26151W        W98576  28.961  41.828   9.496
26152W        W98577  41.881  25.640  12.562
26153W        W98578  37.066   2.793   3.262
26154W        W98579  30.157  27.196   0.539
26155W        W98580  11.361  23.161  13.975
26156W        W98581   1.224   1.402   1.271
26157W        W98582  29.066  28.704   2.194
26158W        W98583  12.302  39.908  10.626
26159W        W98584  40.316  26.560  11.476
26160W        W98585  37.981  12.754  14.425
26161W        W98586  42.327  11.621   3.951
26162W        W98587  17.598  42.848  14.110
26163W        W98588   7.712   0.833   2.113
26164W        W98589  26.119  39.002   0.434
26165W        W98590  26.131   2.125   3.203
26166W        W98591  44.357  39.283   3.132
26167W        W98592  13.539  26.314  11.156
26168W        W98593  35.341  16.353  13.375
26169W        W98594  12.720  16.206  11.617
26170W        W98595   0.258  31.923   2.802
26171W        W98596  38.482  20.285   2.643
26172W        W98597  21.544  16.546   2.269
26173W        W98598  18.089   4.138  13.883
26174W        W98599  15.930  17.115   3.618
26175W        W98600  36.168  22.486   0.013
26176W        W98601  32.977  25.275   2.294
26177W        W98602  14.941  22.344   1.416
26178W        W98603  25.273  32.504  11.887
26179W        W98604   9.250  34.801  10.145
26180W        W98605  42.940  25.703  14.762
26181W        W98606  15.337  28.394  14.207
26182W        W98607  42.751  37.003   2.192
26183W        W98608   3.884   4.175   3.346
26184W        W98609  41.298  33.635   2.910
26185W        W98610  44.942  15.293  14.890
26186W        W98611  30.395  23.657  10.079
26187W        W98612   6.260  41.026  13.394
26188W        W98613  27.774   0.433   1.670
26189W        W98614  38.930   4.188   4.664
26190W        W98615   5.339  24.518   4.480
26191W        W98616   4.688   6.149  11.683
26192W        W98617  39.386  40.026  12.051
26193W        W98618  20.703  13.156  13.459
26194W        W98619  41.916  12.607   2.897
26195W        W98620  42.847  22.103  11.129
26196W        W98621  20.592  24.328  13.530
26197W        W98622   4.862  28.779   0.505
26198W        W98623  16.062  10.509  13.367
26199W        W98624  37.781  24.238   3.169
26200W        W98625   4.222  40.355   1.478
26201W        W98626  24.315   8.539   1.154
26202W        W98627  19.972  17.518  13.771
26203W        W98628  15.745  20.074   2.288
26204W        W98629  43.776  34.050   4.908
26205W        W98630  32.564   7.250  13.908
26206W        W98631  24.031  12.286   4.618
26207W        W98632  17.049  35.523  13.983
26208W        W98633  14.694  26.568  11.408
26209W        W98634  42.480  43.256   4.602
26210W        W98635  11.822  40.803   4.429
26211W        W98636  41.083  37.442   4.656
26212W        W98637  33.800   8.200   0.756
26213W        W98638   5.357  26.498  12.845
26214W        W98639  28.543  41.583  11.933
26215W        W98640  44.296  17.359   1.765
26216W        W98641   6.390  44.831   1.406
26217W        W98642  38.497  32.823  13.434
26218W        W98643  16.980  29.903   3.515
26219W        W98644  18.768  24.770  11.624
26220W        W98645   0.987  11.703  10.220
26221W        W98646  21.894  28.552  10.640
26222W        W98647  42.506  11.051  12.023
26223W        W98648   1.101  26.195   0.528
26224W        W98649  10.736  31.486   3.652
26225W        W98650  43.955  33.011   1.431
26226W        W98651  37.053  26.344  14.831
26227W        W98652  14.091   3.335  13.274
26228W        W98653  29.813   3.805   4.741
26229W        W98654  16.125   3.161   2.503
26230W        W98655  19.795  19.678  11.976
26231W        W98656   2.943  35.133  11.217
26232W        W98657   6.185   0.848  12.022
26233W        W98658  35.400  34.039  10.455
26234W        W98659  42.530  43.469  12.372
26235W        W98660  17.561   1.002  11.461
26236W        W98661  36.972  11.537   4.504
26237W        W98662   3.121  34.630  11.539
26238W        W98663  36.514  31.079   3.749
26239W        W98664   8.185   8.668  10.678
26240W        W98665  17.224   5.471   0.841
26241W        W98666   5.253  43.362   0.336
26242W        W98667  36.623  23.259   1.837
26243W        W98668  19.192  40.613  13.905
26244W        W98669  35.556  29.599   3.366
26245W        W98670  31.268  36.677   4.977
26246W        W98671  32.466   2.472   4.151
26247W        W98672  18.520  19.265   0.415
26248W        W98673   0.109  22.512  11.208
26249W        W98674  32.651  21.583   0.336
26250W        W98675   0.342  44.715   4.689
26251W        W98676   3.914  25.649  10.486
26252W        W98677  30.366  42.606   1.202
26253W        W98678  14.688  44.919  13.351
26254W        W98679  11.828  32.054  14.436
26255W        W98680  36.134  42.994  13.856
26256W        W98681   9.220  11.888   2.851
26257W        W98682  30.224  44.378   3.469
26258W        W98683  12.652   3.742   1.406
26259W        W98684   4.166   4.261   0.774
26260W        W98685  42.332   1.182  11.913
26261W        W98686  18.301  23.861  13.154
26262W        W98687  20.299  32.973   3.648
26263W        W98688  21.883  22.017   4.740
26264W        W98689  17.317  32.836   4.459
26265W        W98690  21.094   6.370  11.669
26266W        W98691   8.197   6.604  11.367
26267W        W98692  35.010  15.096   0.922
26268W        W98693  17.085  21.989   1.561
26269W        W98694  31.566  37.960  11.572
26270W        W98695  19.746  10.397  11.792
26271W        W98696  28.299  44.868  14.754
26272W        W98697  26.266  15.154   2.947
26273W        W98698  25.699  33.356  14.366
26274W        W98699  31.402  28.469  12.138
26275W        W98700  43.301  26.940   1.806
26276W        W98701  20.330  33.376   1.349
26277W        W98702   9.361  19.976  14.799
26278W        W98703  27.943  12.622  14.871
26279W        W98704  20.836  42.858   0.476
26280W        W98705  22.273  16.672  14.758
26281W        W98706  10.806  44.558   1.842
26282W        W98707  42.054  28.362  12.600
26283W        W98708  10.298  18.510  12.470
26284W        W98709  26.265   9.828   2.184
26285W        W98710  13.550  42.873  12.083
26286W        W98711  32.043   6.457  11.116
26287W        W98712   0.238   1.832   2.611
26288W        W98713  26.513  28.966  13.159
26289W        W98714  24.143  23.712  11.631
26290W        W98715  34.388  16.114   2.381
26291W        W98716  18.908  26.307  13.108
26292W        W98717  41.240   1.328   0.273
26293W        W98718  40.782  40.067  13.510
26294W        W98719   7.651  18.041  11.565
26295W        W98720   6.070  28.557   2.830
26296W        W98721  10.314  29.542  14.488
26297W        W98722   2.461   5.687   1.474
26298W        W98723  31.530  17.638   1.718
26299W        W98724  22.333  27.090   2.254
26300W        W98725  25.520  34.007   3.776
26301W        W98726  30.045  29.965   0.437
26302W        W98727  31.808  11.248   2.139
26303W        W98728  33.522  22.928   3.195
26304W        W98729  15.219  33.898   2.026
26305W        W98730  30.963  25.494  11.618
26306W        W98731  40.580  29.447   3.747
26307W        W98732   0.355   4.752   0.513
26308W        W98733  26.940   0.991   0.960
26309W        W98734  41.982  28.521   2.275
26310W        W98735   8.718  13.577   4.534
26311W        W98736  31.547  40.856   3.242
26312W        W98737  18.377  37.326   3.339
26313W        W98738  10.363   1.786   0.857
26314W        W98739  28.634   5.722  11.616
26315W        W98740  43.992  42.059   0.467
26316W        W98741  20.741  19.570  14.370
26317W        W98742   8.778   8.226   2.755
26318W        W98743  14.222   8.600   0.203
26319W        W98744   7.815  15.182  11.014
26320W        W98745  31.602   7.240   4.691
26321W        W98746  26.946  37.849  13.855
26322W        W98747  39.989  43.829   0.755
26323W        W98748  44.006  20.539  13.160
26324W        W98749  35.909  25.974  11.627
26325W        W98750  41.772  16.619  12.886
26326W        W98751   1.436  40.406   0.024
26327W        W98752  27.212  33.324   1.972
26328W        W98753  28.538  29.225   2.911
26329W        W98754  40.581  38.992  10.719
26330W        W98755  35.515  19.594  10.609
26331W        W98756  20.838   0.176   3.615
26332W        W98757  20.479  17.791   1.340
26333W        W98758  24.271  12.725  13.873
26334W        W98759  27.093  36.878  11.063
26335W        W98760  29.040  11.385  11.167
26336W        W98761  24.951  17.020   3.299
26337W        W98762  34.286  15.938   1.001
26338W        W98763  38.519   3.647  11.333
26339W        W98764   2.420   4.198  13.660
26340W        W98765  27.075  31.711   0.781
26341W        W98766  16.752  39.312   1.359
26342W        W98767  42.526  43.651  10.667
26343W        W98768  11.290  15.093  13.472
26344W        W98769  43.826  32.737   3.194
26345W        W98770  37.923  44.184   4.090
26346W        W98771  41.461  40.839   1.254
26347W        W98772  31.568  22.491  13.420
26348W        W98773  37.607   9.232   4.250
26349W        W98774  17.108   9.763  11.837
26350W        W98775  20.549  41.365  12.465
26351W        W98776   6.095  22.912   3.546
26352W        W98777  41.353  43.334  12.286
26353W        W98778  24.066   6.101  13.012
26354W        W98779  23.642  38.941   4.824
26355W        W98780   5.372   4.119   2.944
26356W        W98781  23.637  43.091  12.525
26357W        W98782  41.450  37.681  12.026
26358W        W98783  17.048   0.468  12.018
26359W        W98784  12.677  32.209  12.817
26360W        W98785  41.037  31.386   3.687
26361W        W98786   6.803   4.806   0.193
26362W        W98787   9.816  43.927  12.306
26363W        W98788   3.536  37.658  11.099
26364W        W98789   3.034  40.241   3.717
26365W        W98790   4.853  30.966   0.576
26366W        W98791   8.035   3.012  12.491
26367W        W98792  43.707  14.056  14.327
26368W        W98793  42.003  10.366   3.971
26369W        W98794  10.474  40.373  14.778
26370W        W98795   7.722  34.713  12.889
26371W        W98796  42.709  35.616   4.185
26372W        W98797  22.645  21.936   3.774
26373W        W98798   6.721  11.960  10.946
26374W        W98799   8.125  38.761   3.217
26375W        W98800  29.648   4.234   2.185
26376W        W98801  38.456   5.146   1.886
26377W        W98802  26.603   9.698  13.400
26378W        W98803  31.844  37.469  11.677
26379W        W98804  28.990   1.801  12.843
26380W        W98805   6.355  42.912   2.354
26381W        W98806  12.399   0.849  10.402
26382W        W98807  42.111  37.341  12.999
26383W        W98808  15.594  17.078   2.302
26384W        W98809  11.899  19.076   0.858
26385W        W98810  17.333  31.075  11.236
26386W        W98811   8.113  43.411   4.089
26387W        W98812  33.007  26.389  13.202
26388W        W98813  24.844   9.606   4.582
26389W        W98814  19.441  39.575  14.466
26390W        W98815  20.703  41.001   4.911
26391W        W98816  18.311  13.243   1.160
26392W        W98817  12.113   1.492   9.789
26393W        W98818  22.544   1.394   0.131
26394W        W98819   6.707  26.387   3.647
26395W        W98820  44.591  24.791   3.670
26396W        W98821  25.170  43.616   0.234
26397W        W98822   1.293   4.408   0.759
26398W        W98823   2.231  23.078  12.131
26399W        W98824  14.633  40.742   1.714
26400W        W98825  19.290  23.051  13.428
26401W        W98826  16.710  15.902   4.027
26402W        W98827  32.202  16.775   4.112
26403W        W98828   3.533  35.339   0.006
26404W        W98829  33.459  39.931   0.194
26405W        W98830  34.089  17.670  12.491
26406W        W98831  26.418   7.070   3.956
26407W        W98832  12.482  24.212   3.114
26408W        W98833   9.012  44.249  11.576
26409W        W98834  25.695  34.121   4.297
26410W        W98835  31.500  15.708  13.337
26411W        W98836   6.390  11.244  14.523
26412W        W98837  22.066   5.813  13.958
26413W        W98838  20.121  25.114  11.023
26414W        W98839   2.084  15.990   1.381
26415W        W98840  13.258   4.423   3.060
26416W        W98841  36.398  41.123   2.201
26417W        W98842  37.326  10.269   1.172
26418W        W98843   7.410  10.280   2.678
26419W        W98844  36.062  26.940  14.547
26420W        W98845  11.218  26.106  10.723
26421W        W98846  39.206  22.406  10.285
26422W        W98847  16.030  11.591  14.779
26423W        W98848  27.435  23.058   0.406
26424W        W98849  26.146  18.274  14.417
26425W        W98850   7.109  35.974  12.664
26426W        W98851  25.497  20.128   0.439
26427W        W98852   9.160  12.628  14.458
26428W        W98853   2.152  22.463  13.887
26429W        W98854   9.030  29.297   0.761
26430W        W98855  27.140   1.723  11.584
26431W        W98856  16.801  22.578   4.277
26432W        W98857   2.913  34.629   1.069
26433W        W98858  10.207  11.012   1.388
26434W        W98859   2.829  43.316   3.598
26435W        W98860   6.790  37.280  12.099
26436W        W98861  30.210  14.558   2.908
26437W        W98862  27.716  37.926  12.858
26438W        W98863  14.860  29.697  13.999
26439W        W98864  19.555  19.297   0.383
26440W        W98865  31.012  25.816  13.016
26441W        W98866  28.402   4.412   3.601
26442W        W98867  23.962  17.200   2.099
26443W        W98868   2.334  11.351   0.961
26444W        W98869  29.897  29.588  12.452
26445W        W98870  23.457  43.878   0.275
26446W        W98871   8.829  32.644   3.163
26447W        W98872  23.620  22.308  13.380
26448W        W98873   6.970  27.062   3.120
26449W        W98874  26.402  29.865   1.857
26450W        W98875  27.252  18.699   3.329
26451W        W98876  28.535  18.327  14.951
26452W        W98877   5.005  32.366  14.275
26453W        W98878  41.617   5.656  12.180
26454W        W98879  27.465  18.075  12.453
26455W        W98880  35.111  40.795   0.338
26456W        W98881  29.063  20.476   5.940
26457W        W98882  17.373  21.164   1.967
26458W        W98883   7.754  28.908   3.319
26459W        W98884  14.572   5.844  12.487
26460W        W98885  14.252  21.996   3.207
26461W        W98886   4.897  11.560   1.346
26462W        W98887  27.928  32.939   0.332
26463W        W98888  12.331  44.136   0.794
26464W        W98889  13.865   7.750  12.349
26465W        W98890   1.899  34.051  13.863
26466W        W98891  30.543  14.834   0.404
26467W        W98892  29.630  24.722   2.312
26468W        W98893   4.584  44.431  12.401
26469W        W98894   5.721  24.304   2.498
26470W        W98895  17.176  15.734  12.931
26471W        W98896  38.921  40.758   2.711
26472W        W98897   8.686   7.166  13.840
26473W        W98898  30.975   5.929  13.977
26474W        W98899  31.556  32.097  13.446
26475W        W98900  14.277  17.485   1.204
26476W        W98901  40.544  12.666  13.933
26477W        W98902  44.457  43.012   3.728
26478W        W98903  18.876  30.708  14.844
26479W        W98904   4.665  44.904   3.817
26480W        W98905  43.450   4.194   4.714
26481W        W98906   7.345  15.306  10.756
26482W        W98907  37.537  12.935   4.133
26483W        W98908  13.597   5.295   3.292
26484W        W98909  16.888  36.621  12.047
26485W        W98910  32.042   7.065  13.887
26486W        W98911  21.743  19.158   4.216
26487W        W98912  17.292  23.284  10.608
26488W        W98913   7.212   8.699   2.623
26489W        W98914   9.225  38.936  11.663
26490W        W98915   6.539  11.040   4.665
26491W        W98916  22.970  24.211   0.381
26492W        W98917  44.039   2.855  13.457
26493W        W98918  32.395  27.613   4.570
26494W        W98919   3.370  26.668   4.148
26495W        W98920  29.835  21.600   5.967
26496W        W98921  43.381  12.079   3.355
26497W        W98922  20.085  35.371   3.231
26498W        W98923  37.052   7.027  11.459
26499W        W98924   5.165  15.381   4.115
26500W        W98925  31.593  30.484   0.958
26501W        W98926  43.460  18.990   3.172
26502W        W98927  22.611   3.482   1.320
26503W        W98928  27.657  31.495   3.459
26504W        W98929   4.342  15.797   4.840
26505W        W98930  37.282  20.530   2.262
26506W        W98931  21.677  36.879  14.479
26507W        W98932  30.243  29.987   4.676
26508W        W98933  19.631  39.075   2.777
26509W        W98934  28.099   3.635  12.947
26510W        W98935  40.057  40.834   4.119
26511W        W98936   6.763  31.454   3.285
26512W        W98937  26.213  42.558   4.733
26513W        W98938  15.226  19.573  11.725
26514W        W98939   0.364  13.045  14.782
26515W        W98940   4.444  44.400  10.933
26516W        W98941  44.358   7.535  13.800
26517W        W98942  14.153   1.403  11.111
26518W        W98943  24.905  21.920   1.258
26519W        W98944  33.547  21.010  14.570
26520W        W98945  25.717   0.484  12.414
26521W        W98946  38.608  25.713  11.638
26522W        W98947  27.762  25.021   4.785
26523W        W98948  42.967  25.452   2.306
26524W        W98949  38.973   3.337  11.646
26525W        W98950  15.363   5.220   1.383
26526W        W98951  20.464  21.371   3.624
26527W        W98952  32.536  34.798  13.893
26528W        W98953  38.338  12.642  11.672
26529W        W98954  38.946  27.635   1.839
26530W        W98955  15.433  23.799  13.044
26531W        W98956  24.580  40.264  11.978
26532W        W98957  36.578   2.658  12.343
26533W        W98958  18.765  44.892  11.855
26534W        W98959  43.071  40.112   1.741
26535W        W98960  10.309  13.634  10.591
26536W        W98961   5.920  22.699  13.485
26537W        W98962  27.711  24.968  14.846
26538W        W98963  13.146  18.602   0.901
26539W        W98964  13.292  44.618   1.754
26540W        W98965  23.470   1.356  12.198
26541W        W98966  26.259  31.022  11.059
26542W        W98967  17.627  17.042  13.804
26543W        W98968  42.164  44.506  13.898
26544W        W98969  22.416  17.751  14.469
26545W        W98970  34.706   9.316   2.119
26546W        W98971  40.433  35.765   0.363
26547W        W98972  21.023  11.288   4.619
26548W        W98973   2.355  37.015  12.893
26549W        W98974  29.589  11.370  13.009
26550W        W98975  28.639  23.677  12.891
26551W        W98976  22.123  37.629   4.530
26552W        W98977   4.918  16.981  12.799
26553W        W98978  41.108  44.098  12.656
26554W        W98979  17.000  32.897   1.371
26555W        W98980  10.648  37.560  13.043
26556W        W98981  34.186  38.801  12.131
26557W        W98982  39.941  15.990  14.738
26558W        W98983  22.010  20.550  10.651
26559W        W98984  41.525  29.628   4.057
26560W        W98985  36.166  28.578  14.806
26561W        W98986   7.826  10.140  13.401
26562W        W98987  13.679  27.953   1.196
26563W        W98988  27.474   4.878   0.952
26564W        W98989  27.271  18.642   0.800
26565W        W98990  20.747  23.859   2.922
26566W        W98991  14.789  22.109   3.214
26567W        W98992   8.278   3.905  12.604
26568W        W98993  39.396   1.931   4.697
26569W        W98994  37.866  41.430   1.110
26570W        W98995  37.808   8.875  13.783
26571W        W98996  15.138  11.904   4.862
26572W        W98997  28.408  13.520   4.861
26573W        W98998  11.715  11.259  11.270
26574W        W98999  25.468  27.557   3.950
26575W        W99000  38.893   2.407   2.327
26576W        W99001   2.421  39.477   3.821
26577W        W99002  32.057  40.131   4.933
26578W        W99003  37.565  39.914   0.016
26579W        W99004  11.887  40.525  14.796
26580W        W99005  27.460  23.460  11.601
26581W        W99006  18.640  14.248  10.627
26582W        W99007   4.266   3.721   1.851
26583W        W99008  28.641   3.978  10.711
26584W        W99009  36.770   0.527  11.956
26585W        W99010   1.520  20.433  10.592
26586W        W99011   4.453  19.088   3.701
26587W        W99012   3.218  18.738   5.045
26588W        W99013  17.745  42.296  14.826
26589W        W99014  44.887   3.807  11.943
26590W        W99015  33.088  41.950  13.853
26591W        W99016  26.569  16.150  14.041
26592W        W99017  41.564   2.863   2.735
26593W        W99018  23.925  25.756  11.609
26594W        W99019  14.042  41.270   4.213
26595W        W99020  13.153   1.688  11.123
26596W        W99021  18.297  14.284  11.176
26597W        W99022  16.538  15.784  13.991
26598W        W99023  16.335   9.071   1.446
26599W        W99024  33.642  32.640   0.071
26600W        W99025   8.973  21.028  11.630
26601W        W99026  38.016  32.544  11.953
26602W        W99027  18.136  22.548  13.435
26603W        W99028  18.781   8.355   2.906
26604W        W99029  31.995  43.637   0.974
26605W        W99030  18.488  19.283   4.544
26606W        W99031  43.878  16.121   4.724
26607W        W99032  29.735  40.623   5.066
26608W        W99033  42.053  25.728   1.967
26609W        W99034  36.617  33.350  12.095
26610W        W99035  23.256   6.269   1.731
26611W        W99036  31.167   0.464  10.374
26612W        W99037   5.973  25.106   4.187
26613W        W99038  22.405  44.888   3.677
26614W        W99039  27.342  19.709  13.296
26615W        W99040  28.238  14.500  14.347
26616W        W99041  27.145  42.994   0.274
26617W        W99042   5.877  25.053   3.124
26618W        W99043  31.448  25.098   2.287
26619W        W99044   5.974  25.246  11.675
26620W        W99045   1.303   4.840  12.188
26621W        W99046  44.817  34.094   2.324
26622W        W99047  12.272  13.736  14.476
26623W        W99048  13.314  23.348   0.762
26624W        W99049  31.174  40.978   4.999
26625W        W99050  24.136   8.623  14.522
26626W        W99051  18.533  23.241   3.139
26627W        W99052  11.293  26.721  13.363
26628W        W99053  35.786  43.950   2.785
26629W        W99054  26.015  16.310  14.799
26630W        W99055  21.031  28.038  11.160
26631W        W99056   2.164   4.023   4.149
26632W        W99057  27.613   1.950  11.615
26633W        W99058  30.671  27.178   0.454
26634W        W99059  13.678  21.682  12.625
26635W        W99060  10.889  41.258  14.994
26636W        W99061  26.594  22.691   0.289
26637W        W99062  29.431   0.257   2.335
26638W        W99063  21.703  43.820   2.353
26639W        W99064  12.126   9.822  11.019
26640W        W99065  36.421   1.928   4.999
26641W        W99066  41.567  19.692  13.970
26642W        W99067  17.083   9.772   2.853
26643W        W99068  39.932   4.199   1.075
26644W        W99069  37.979  42.385   4.188
26645W        W99070   6.738  23.125   4.538
26646W        W99071   6.670  13.593  13.566
26647W        W99072  31.055  18.172   4.820
26648W        W99073   6.181  11.186  12.836
26649W        W99074  34.425  22.586  14.259
26650W        W99075   4.777   5.529   1.153
26651W        W99076  40.866  38.395   3.481
26652W        W99077  22.323  27.438   1.779
26653W        W99078  21.536  22.031  14.921
26654W        W99079  15.454   6.721  12.538
26655W        W99080  31.106  31.873  13.574
26656W        W99081   0.909  23.957  12.022
26657W        W99082  28.621   3.481  12.284
26658W        W99083  40.043  43.040   0.307
26659W        W99084  28.145  15.757   4.097
26660W        W99085  10.299  26.482   5.134
26661W        W99086  19.347   7.032  13.892
26662W        W99087  44.441  16.952   5.218
26663W        W99088   3.420   8.911  14.943
26664W        W99089  44.419  40.499  12.084
26665W        W99090  31.283  30.031  12.126
26666W        W99091  36.510  23.942   1.256
26667W        W99092   8.037  23.169   0.782
26668W        W99093  34.704  14.330   1.651
26669W        W99094  30.208  14.730  13.588
26670W        W99095  38.938  24.958   4.529
26671W        W99096   5.765   9.316   0.310
26672W        W99097   5.433  31.573  13.454
26673W        W99098  10.169  28.101  14.829
26674W        W99099  25.295  22.607   3.269
26675W        W99100   5.915  34.700   1.489
26676W        W99101  38.835  32.404   1.924
26677W        W99102  40.461  20.541   0.287
26678W        W99103  17.191  37.393  12.501
26679W        W99104  15.508   3.047   5.040
26680W        W99105  19.720  41.312  14.488
26681W        W99106   8.680  32.350   4.973
26682W        W99107  38.152  10.096  12.010
26683W        W99108   7.206   9.161   4.156
26684W        W99109   0.694  39.972  14.007
26685W        W99110   1.683  29.040  11.915
26686W        W99111  19.679  34.573   0.469
26687W        W99112  12.097  33.128  12.429
26688W        W99113  15.085  23.442  11.066
26689W        W99114  21.973  20.729  13.366
26690W        W99115  27.463   7.420   2.177
26691W        W99116  40.329  37.010   2.257
26692W        W99117  30.445  26.483  14.486
26693W        W99118   0.413  40.766  12.502
26694W        W99119  41.706   2.291   4.383
26695W        W99120   6.852   3.468  14.822
26696W        W99121  27.235  24.022   3.200
26697W        W99122  28.867  20.917  10.236
26698W        W99123   8.630  10.091   1.667
26699W        W99124  42.767  34.845   1.733
26700W        W99125  40.395  12.840  12.106
26701W        W99126  15.273  42.800   1.334
26702W        W99127   6.478  18.859  13.179
26703W        W99128  33.670  18.083   4.508
26704W        W99129  28.200   7.748  13.485
26705W        W99130  41.576  17.219  11.786
26706W        W99131   2.003  11.407  13.914
26707W        W99132  38.151   4.944   3.556
26708W        W99133  11.788  43.178  11.913
26709W        W99134  25.471  12.704  14.478
26710W        W99135  10.037  28.063   0.794
26711W        W99136  10.956   7.745  13.837
26712W        W99137  27.195  29.158   3.218
26713W        W99138   4.433  31.774   1.687
26714W        W99139  18.982  32.430   3.699
26715W        W99140  32.363  35.383   4.104
26716W        W99141  37.465  27.225  11.477
26717W        W99142  41.485  23.059   4.300
26718W        W99143  17.923  11.483   4.437
26719W        W99144  42.900  32.095   4.100
26720W        W99145   1.920  29.955  11.966
26721W        W99146  16.673  32.860   4.133
26722W        W99147  17.579   4.340   1.495
26723W        W99148   3.247  32.161   4.344
26724W        W99149   4.876  13.460  13.812
26725W        W99150  15.017  44.906  13.779
26726W        W99151  34.853  26.995   2.768
26727W        W99152  34.506  30.191   4.124
26728W        W99153  42.813  22.168  14.272
26729W        W99154  22.767  44.472  12.969
26730W        W99155  34.239  22.228  12.418
26731W        W99156  17.774  39.980   1.804
26732W        W99157  22.533   3.728   3.676
26733W        W99158  26.634  18.150   2.877
26734W        W99159  30.687  43.412  12.030
26735W        W99160  28.185  10.200   3.135
26736W        W99161   8.137  31.248   2.203
26737W        W99162  44.879  43.454   4.161
26738W        W99163  32.786   3.399   0.030
26739W        W99164  21.359   3.874  10.640
26740W        W99165  16.067  11.292   2.045
26741W        W99166  38.418   9.332   4.910
26742W        W99167  11.124  25.097  13.410
26743W        W99168  31.648  30.999   0.881
26744W        W99169  27.921   8.431  12.891
26745W        W99170   6.191  21.497  11.163
26746W        W99171  23.423   7.367  13.234
26747W        W99172  13.300  28.381  14.769
26748W        W99173  27.600  41.691  11.840
26749W        W99174  11.211  35.614   4.778
26750W        W99175   2.309  13.626  10.518
26751W        W99176  19.764   1.285   0.732
26752W        W99177  44.957  17.528   3.735
26753W        W99178  27.115  26.670   0.477
26754W        W99179  40.023  31.899   4.312
26755W        W99180  25.677  12.643  10.683
26756W        W99181  12.326   4.908  12.101
26757W        W99182  37.298  25.316  11.579
26758W        W99183  21.632  37.366   4.359
26759W        W99184  17.503   3.276  11.703
26760W        W99185  19.846   2.062  11.186
26761W        W99186  44.380  17.676  10.654
26762W        W99187  31.328  32.954   4.831
26763W        W99188  23.186  15.647   4.868
26764W        W99189  32.648  32.507  10.675
26765W        W99190  23.200   1.664  14.450
26766W        W99191  34.948  31.903  14.291
26767W        W99192  28.669  32.967   1.784
26768W        W99193  13.868  13.385   3.559
26769W        W99194  10.106  25.000  13.502
26770W        W99195   6.652  19.048   1.912
26771W        W99196   0.193  26.098   0.189
26772W        W99197  13.376  20.995  11.813
26773W        W99198  18.421   0.957  11.217
26774W        W99199  37.947  39.624   1.756
26775W        W99200  23.564  35.694   4.088
26776W        W99201  13.828  26.939   1.947
26777W        W99202  35.170   9.265   1.229
26778W        W99203   4.837  25.149  14.023
26779W        W99204  28.400   1.342   3.801
26780W        W99205  41.287  28.780   0.180
26781W        W99206  24.529  28.208  12.058
26782W        W99207   1.244  26.420   2.663
26783W        W99208  44.335  20.671  11.053
26784W        W99209  30.662  10.377   4.114
26785W        W99210  38.266  12.339  14.423
26786W        W99211  25.194  37.587  12.018
26787W        W99212  39.326  10.803   3.260
26788W        W99213  16.906  22.084  12.329
26789W        W99214   5.255  20.569  12.807
26790W        W99215  12.447   4.391   3.564
26791W        W99216  14.163  36.165  11.954
26792W        W99217  22.598   0.960   0.380
26793W        W99218   4.120  20.066  11.509
26794W        W99219   0.279  17.492   2.719
26795W        W99220  26.372   4.808  12.619
26796W        W99221  32.150  30.476   2.185
26797W        W99222   0.227  35.957   4.733
26798W        W99223  21.655  38.667  12.969
26799W        W99224  25.599  31.609   1.269
26800W        W99225   0.910   8.912  12.984
26801W        W99226  39.775  15.640   2.648
26802W        W99227  30.392  41.459  13.336
26803W        W99228  13.945  15.413   2.118
26804W        W99229  14.236  31.365  13.361
26805W        W99230  14.632  35.335   4.724
26806W        W99231  17.115  26.534   2.202
26807W        W99232  39.325  11.890   3.262
26808W        W99233  35.017  18.545  13.878
26809W        W99234  39.158  43.141  13.760
26810W        W99235   4.796  15.779   5.095
26811W        W99236   0.836   0.520  12.986
26812W        W99237  42.006  17.692  12.658
26813W        W99238  41.005  15.350  13.837
26814W        W99239  31.674  40.595   0.355
26815W        W99240   0.986   5.164  14.883
26816W        W99241  37.511   6.178  10.582
26817W        W99242  10.104  20.998   3.867
26818W        W99243  26.126  18.771   3.737
26819W        W99244   8.246  13.106   2.152
26820W        W99245  42.789  10.873  11.567
26821W        W99246  39.344  35.008  10.707
26822W        W99247   0.025   1.012   3.837
26823W        W99248  29.638  40.859   3.258
26824W        W99249   7.289  21.155  14.968
26825W        W99250  37.056  41.319   3.312
26826W        W99251  44.312   2.444  12.441
26827W        W99252  42.889   5.345  11.704
26828W        W99253  27.502  25.004  12.533
26829W        W99254  32.562  29.504  10.242
26830W        W99255  39.225  34.015  11.921
26831W        W99256  15.166  32.168   1.338
26832W        W99257   1.995  39.377  10.665
26833W        W99258  38.773  34.392   4.513
26834W        W99259  14.180  24.233   5.180
26835W        W99260  14.885   3.414   3.269
26836W        W99261  30.840  31.594   4.138
26837W        W99262  16.580  41.008  12.352
26838W        W99263  14.548  22.018   3.668
26839W        W99264  19.231  11.660  13.837
26840W        W99265  30.512  39.298   3.027
26841W        W99266   4.485  24.617  10.817
26842W        W99267  22.827  42.323  14.870
26843W        W99268  18.157   8.132  11.699
26844W        W99269   6.783  33.881  12.528
26845W        W99270  40.796  31.584  13.851
26846W        W99271  13.963   8.437  11.974
26847W        W99272   4.377   8.718   2.142
26848W        W99273  25.024  14.384  12.417
26849W        W99274  18.011  43.071   2.371
26850W        W99275  13.439  21.613  12.158
26851W        W99276  27.837  15.131   2.045
26852W        W99277   2.106  33.417  14.478
26853W        W99278  16.711   7.697  10.629
26854W        W99279  19.203  25.409  14.784
26855W        W99280  22.695  31.355  11.586
26856W        W99281   2.476  21.846  11.635
26857W        W99282  35.948  15.671   1.684
26858W        W99283   3.013  30.486   0.404
26859W        W99284  22.902  18.594   4.344
26860W        W99285  37.668  13.094  14.218
26861W        W99286  29.078   1.539  13.897
26862W        W99287   0.300  19.770  14.446
26863W        W99288  20.703   7.730  14.957
26864W        W99289  24.666   4.812  12.847
26865W        W99290  41.932  28.186  11.659
26866W        W99291  43.756  24.984  11.975
26867W        W99292   6.266  24.690   4.401
26868W        W99293  14.830  19.654  12.071
26869W        W99294  28.202   4.261  12.375
26870W        W99295  17.399  28.088  14.042
26871W        W99296   7.034  10.721   3.278
26872W        W99297  14.142  16.219  14.993
26873W        W99298  12.670   2.852   4.532
26874W        W99299   0.698  30.479  12.921
26875W        W99300  17.691  18.761   3.420
26876W        W99301  38.410   2.918  14.027
26877W        W99302  31.893  26.497   0.259
26878W        W99303  33.201  14.094   1.804
26879W        W99304  16.813  37.938   3.809
26880W        W99305  32.675   6.279   2.058
26881W        W99306  13.130  36.970  14.038
26882W        W99307  41.694  20.103   4.983
26883W        W99308  43.072  11.777  12.459
26884W        W99309  30.157   5.250   0.990
26885W        W99310   1.888   8.469   1.742
26886W        W99311   0.917   8.888  11.206
26887W        W99312   5.147  22.625  12.617
26888W        W99313   2.023  36.547  13.553
26889W        W99314   4.897  18.464  13.438
26890W        W99315  25.711   6.723   0.225
26891W        W99316   4.939  40.221  11.492
26892W        W99317  23.410   8.192  14.882
26893W        W99318  31.060   5.537  11.159
26894W        W99319  35.470   0.521   3.362
26895W        W99320  33.888  31.401  11.392
26896W        W99321  43.928  41.417   4.448
26897W        W99322   8.632  41.936  11.134
26898W        W99323   2.707  10.268   1.798
26899W        W99324   6.835  38.901   0.925
26900W        W99325  25.646   7.477  14.486
26901W        W99326  12.648  35.919   0.912
26902W        W99327   2.410  44.416   4.518
26903W        W99328   0.000  33.016   1.258
26904W        W99329   0.882   3.138  14.999
26905W        W99330   6.401  41.308  12.941
26906W        W99331  23.594   3.080  14.242
26907W        W99332  16.580  29.013   2.162
26908W        W99333   9.328  42.423  11.633
26909W        W99334  15.144  15.499  12.904
26910W        W99335  18.231  26.099   2.529
26911W        W99336  33.920   2.874  10.337
26912W        W99337  21.539  14.838   2.066
26913W        W99338  11.726  22.607   3.619
26914W        W99339  22.511   2.298   1.711
26915W        W99340  37.592   0.765   2.583
26916W        W99341  11.887  23.052  12.441
26917W        W99342  29.687  22.034  14.824
26918W        W99343  27.799   6.681   4.676
26919W        W99344  19.153   9.776  14.726
26920W        W99345  42.119  15.538   3.242
26921W        W99346  26.582  17.648  10.958
26922W        W99347  21.280  44.281   1.769
26923W        W99348  43.950  40.221  11.386
26924W        W99349   6.062  13.714   2.656
26925W        W99350  41.554  22.175  11.884
26926W        W99351  31.120  16.135   0.323
26927W        W99352   1.456   8.308  11.555
26928W        W99353  17.078  39.594  12.955
26929W        W99354   6.685  22.703  11.758
26930W        W99355  13.491   2.898   0.318
26931W        W99356   3.804  17.589   4.163
26932W        W99357   3.018  43.182   2.730
26933W        W99358  30.048  12.188  11.282
26934W        W99359  32.950  21.751  13.011
26935W        W99360  23.546  14.952  11.620
26936W        W99361   5.294  34.118  13.362
26937W        W99362  19.652  30.692   0.778
26938W        W99363  13.564   8.722  13.156
26939W        W99364  40.799  36.249  11.205
26940W        W99365  16.312  26.300   0.336
26941W        W99366  36.973  21.118  10.660
26942W        W99367  38.720  40.383  10.175
26943W        W99368  12.097  38.392  12.988
26944W        W99369  44.483  43.857   2.610
26945W        W99370  16.170   4.118  14.883
26946W        W99371  31.900  16.732   0.668
26947W        W99372  38.787   9.384  13.001
26948W        W99373  14.707  17.507  11.229
26949W        W99374  16.711  18.387   1.953
26950W        W99375  37.470  34.887  10.914
26951W        W99376  27.763  41.015   4.974
26952W        W99377  22.016  38.066   3.329
26953W        W99378  39.301  21.331   4.637
26954W        W99379  12.906  28.898  13.932
26955W        W99380  11.211  22.777  14.317
26956W        W99381  10.265  41.527   3.283
26957W        W99382  16.393   4.833   1.653
26958W        W99383  29.302  27.993  10.190
26959W        W99384  14.949  27.481   4.325
26960W        W99385  15.763   8.385   0.307
26961W        W99386  30.397  35.482   3.664
26962W        W99387  44.365  14.183   1.725
26963W        W99388  12.668  21.755  13.900
26964W        W99389  35.611  32.039   2.645
26965W        W99390   0.850  40.471   2.711
26966W        W99391  37.625  38.017  11.983
26967W        W99392   5.794  28.465  12.833
26968W        W99393   8.805  11.819  13.315
26969W        W99394   3.531   1.341  12.853
26970W        W99395   3.723   0.254   2.315
26971W        W99396  21.448   7.827  13.398
26972W        W99397  38.251  25.422  13.489
26973W        W99398  12.076  44.841   2.382
26974W        W99399   8.924  26.669   0.197
26975W        W99400  17.736   6.927  13.432
26976W        W99401  17.521  25.885  13.327
26977W        W99402  18.143  31.395   4.122
26978W        W99403  25.468  27.685  11.535
26979W        W99404  35.353   4.159   2.523
26980W        W99405  33.033  16.469  10.745
26981W        W99406   4.784  35.563   0.343
26982W        W99407  14.586   6.208  11.632
26983W        W99408  12.138  38.062  10.746
26984W        W99409  32.962   5.319   0.312
26985W        W99410  21.184   3.449   1.747
26986W        W99411  21.596  44.807   2.119
26987W        W99412  42.602   8.779  12.011
26988W        W99413  18.878  11.439   4.061
26989W        W99414   6.873  12.134   1.351
26990W        W99415  18.606  29.109  10.957
26991W        W99416  28.609  41.953   1.187
26992W        W99417  16.777  15.723  10.680
26993W        W99418   5.276  21.599  14.782
26994W        W99419  12.814  19.295   4.674
26995W        W99420  40.623  24.145  13.788
26996W        W99421  30.684  35.106  12.692
26997W        W99422  28.149  10.301  11.993
26998W        W99423  37.683  13.394  13.439
26999W        W99424  18.208  16.124   1.640
27000W        W99425  10.073   0.552   2.299
27001W        W99426  15.431  22.480  14.963
27002W        W99427  43.425   7.478   0.318
27003W        W99428   5.801  34.257   2.799
27004W        W99429  12.110  22.700   1.719
27005W        W99430  26.723  13.772  11.633
27006W        W99431  32.959   5.084  13.048
27007W        W99432  13.106   3.483   1.408
27008W        W99433  27.148  19.692   3.956
27009W        W99434  29.259  44.712   3.226
27010W        W99435  26.064  14.365   0.780
27011W        W99436  16.575  16.357  11.619
27012W        W99437  10.670  18.059  13.551
27013W        W99438  31.894  15.243   0.334
27014W        W99439  12.857  25.069  10.491
27015W        W99440  39.030  27.933  11.161
27016W        W99441  13.935  42.884   4.111
27017W        W99442  16.400   1.927  14.312
27018W        W99443  17.144   7.432  11.510
27019W        W99444  30.410   3.077   2.355
27020W        W99445  36.399   9.701  11.294
27021W        W99446   9.981  22.603   4.440
27022W        W99447   3.887  39.452   1.427
27023W        W99448  28.033  39.391   1.417
27024W        W99449   3.471  22.685   4.050
27025W        W99450  26.532   6.478   1.188
27026W        W99451  38.040  42.010   2.404
27027W        W99452  40.029   5.402   1.311
27028W        W99453   4.436  16.027   3.706
27029W        W99454  24.601  31.484   3.554
27030W        W99455  31.450  25.546  10.425
27031W        W99456  39.051  28.864  11.015
27032W        W99457   9.069  29.189   4.932
27033W        W99458  37.770  33.153  12.461
27034W        W99459  44.485  28.740   2.313
27035W        W99460  12.407  23.081  12.508
27036W        W99461  27.918  41.403   3.315
27037W        W99462   1.964  11.334   3.691
27038W        W99463  26.917   0.649   1.786
27039W        W99464  42.855  41.554  11.149
27040W        W99465  20.201  40.830   4.882
27041W        W99466  44.841  11.646  11.435
27042W        W99467  15.691  37.563   0.120
27043W        W99468  39.600  43.825  12.332
27044W        W99469  23.078  20.684  13.068
27045W        W99470  41.269  44.917   1.443
27046W        W99471  14.040  39.346   0.709
27047W        W99472  42.444  26.627   0.734
27048W        W99473  25.492  14.225  11.578
27049W        W99474  10.168   0.282   0.952
27050W        W99475  32.002  40.122  12.049
27051W        W99476  13.414  40.468   3.771
27052W        W99477   0.346  17.795  13.844
27053W        W99478   6.877   9.836  13.873
27054W        W99479  44.415  22.484   5.147
27055W        W99480  14.543   3.978  12.144
27056W        W99481  27.908   1.741  13.886
27057W        W99482  29.518  19.423   2.579
27058W        W99483  20.191   8.767   0.683
27059W        W99484  40.920  23.120  13.886
27060W        W99485  14.732  25.459   1.132
27061W        W99486  40.732  29.616  11.806
27062W        W99487   8.653   6.709   0.052
27063W        W99488  23.114  37.964  11.305
27064W        W99489   9.317  20.610   1.436
27065W        W99490  33.586   1.470   2.305
27066W        W99491   1.126  36.988   2.653
27067W        W99492  15.914   0.048  11.593
27068W        W99493  41.498  17.017  13.151
27069W        W99494  31.732  12.059   3.861
27070W        W99495  24.404  22.458  12.616
27071W        W99496  38.963  34.248  10.592
27072W        W99497  14.846  17.343   1.785
27073W        W99498  15.791  18.325  12.962
27074W        W99499  15.715  10.387   0.427
27075W        W99500   0.495  40.846   0.483
27076W        W99501  18.675  37.132   2.441
27077W        W99502  35.086  21.805  12.436
27078W        W99503   7.774  41.541  14.958
27079W        W99504  24.248  33.046   4.123
27080W        W99505  28.550  36.071  13.951
27081W        W99506  36.070  11.106  12.212
27082W        W99507  13.886   1.944  13.367
27083W        W99508  11.883  35.357  14.854
27084W        W99509   1.828  14.382  13.916
27085W        W99510   3.822   0.761  14.050
27086W        W99511  23.178  22.111  10.356
27087W        W99512  27.483  12.705   4.579
27088W        W99513  35.832   2.015  12.989
27089W        W99514  33.099   5.271   4.977
27090W        W99515  41.475  41.189  13.751
27091W        W99516  25.175  44.838  11.041
27092W        W99517  41.298  31.600   2.669
27093W        W99518  10.334   2.808   2.464
27094W        W99519  24.713   3.060  14.821
27095W        W99520  10.212   2.908  13.521
27096W        W99521  12.157  31.068   0.779
27097W        W99522   3.521  41.220  11.209
27098W        W99523  16.830   5.678   1.216
27099W        W99524  34.970  16.790   2.175
27100W        W99525  31.399  42.089   4.256
27101W        W99526   8.186  20.242   4.157
27102W        W99527  44.515   2.376  13.752
27103W        W99528   4.110  41.257   0.968
27104W        W99529  29.350  16.608   0.689
27105W        W99530  33.063   1.650  12.643
27106W        W99531  20.188  17.749   2.660
27107W        W99532  16.461  27.870  12.135
27108W        W99533  41.960   9.314  13.748
27109W        W99534   1.201  40.114  12.045
27110W        W99535  39.933  23.052  11.617
27111W        W99536  41.260  20.742  11.072
27112W        W99537   7.910  41.314  10.287
27113W        W99538   4.960   4.864   1.833
27114W        W99539  15.479  38.966  14.065
27115W        W99540  28.775  41.428   1.382
27116W        W99541  16.220  17.140   1.171
27117W        W99542  38.931   8.210  10.912
27118W        W99543  16.556  28.913  12.156
27119W        W99544  41.505  40.006   3.967
27120W        W99545  14.009   9.524   3.668
27121W        W99546  34.826  42.419  12.913
27122W        W99547   1.871  40.707   1.473
27123W        W99548  28.057  12.819  12.173
27124W        W99549  14.728   2.473  13.064
27125W        W99550  33.118  44.735  13.982
27126W        W99551   5.961  29.208   1.744
27127W        W99552  26.306  40.009   2.995
27128W        W99553  16.623   7.400  14.032
27129W        W99554   9.371  13.325  14.927
27130W        W99555  25.341  32.260   1.163
27131W        W99556  22.032  39.758   3.747
27132W        W99557  28.479  44.470  14.485
27133W        W99558  17.433  14.554   1.828
27134W        W99559  24.744   0.981   3.402
27135W        W99560   0.418  24.631  14.431
27136W        W99561  13.320  28.899  14.775
27137W        W99562  25.085  24.515  10.876
27138W        W99563  11.590  37.530  12.897
27139W        W99564   1.448  43.198  10.516
27140W        W99565  18.614   7.451  13.561
27141W        W99566  20.641   3.089   1.122
27142W        W99567  43.220  26.771  14.318
27143W        W99568  28.008  44.892   0.775
27144W        W99569  19.535  19.298  10.703
27145W        W99570   1.462  41.800  14.546
27146W        W99571  26.873   1.748   1.312
27147W        W99572  26.649  18.379   0.246
27148W        W99573  14.534  33.352   3.988
27149W        W99574  32.314  33.511   4.213
27150W        W99575   7.882  17.667   2.680
27151W        W99576  33.101  32.859  13.251
27152W        W99577  17.996  36.944  12.510
27153W        W99578  43.532   3.746  11.264
27154W        W99579  39.817  35.845   4.753
27155W        W99580  28.671   6.927   3.278
27156W        W99581  22.158   3.282   1.469
27157W        W99582  23.534  30.231   2.758
27158W        W99583  13.709  23.613   3.311
27159W        W99584  14.158   3.135   5.012
27160W        W99585  13.224   0.296   4.383
27161W        W99586  39.748  32.632  11.092
27162W        W99587  10.809  39.524   2.790
27163W        W99588  13.219  11.381  13.874
27164W        W99589  29.920   7.163   3.774
27165W        W99590  17.518  35.099   4.281
27166W        W99591  43.233  30.692   3.674
27167W        W99592  25.570   2.762  12.950
27168W        W99593   9.242   8.894  11.685
27169W        W99594  42.450  37.098   1.768
27170W        W99595  25.535  35.692   3.336
27171W        W99596   2.830  25.261   0.297
27172W        W99597  15.893  20.028   0.438
27173W        W99598  37.370  33.129   0.880
27174W        W99599  17.862   5.799  10.896
27175W        W99600  20.974  16.535   1.009
27176W        W99601  35.414  13.591   1.030
27177W        W99602  33.464   7.754  10.663
27178W        W99603   7.796   0.636   3.106
27179W        W99604  22.343   0.385   0.720
27180W        W99605   7.919  32.509   1.778
27181W        W99606  27.744  35.573   3.374
27182W        W99607  39.744  33.980  11.901
27183W        W99608  19.277  19.198   1.558
27184W        W99609   1.359  27.642  14.319
27185W        W99610   8.885  31.873   4.846
27186W        W99611  24.084  26.581  11.145
27187W        W99612  33.211  33.585   0.484
27188W        W99613   1.309  38.823  10.499
27189W        W99614  34.392  21.062   1.799
27190W        W99615  21.119  17.486  12.337
27191W        W99616  32.203  33.167   3.847
27192W        W99617  15.853  27.990   3.851
27193W        W99618  27.912   0.485   0.366
27194W        W99619  10.204  11.747  11.551
27195W        W99620  22.884  12.703   2.294
27196W        W99621   7.890  15.781  12.795
27197W        W99622   8.699  18.674  11.191
27198W        W99623   9.179  29.452  12.965
27199W        W99624   6.300  10.160   2.925
27200W        W99625  35.928  24.361   4.610
27201W        W99626  26.254  12.063  10.920
27202W        W99627  33.006   9.410   2.212
27203W        W99628  42.902  13.135   1.877
27204W        W99629   4.877  43.206  11.630
27205W        W99630  10.365  25.383   1.846
27206W        W99631  39.408  26.708  12.551
27207W        W99632  11.125  16.795   4.102
27208W        W99633  40.006  38.896  12.531
27209W        W99634  12.600  37.507  12.913
27210W        W99635  33.868  29.148   1.357
27211W        W99636  29.087  18.894   3.436
27212W        W99637  33.883   8.107  14.020
27213W        W99638  15.622   1.833  14.743
27214W        W99639  14.178  14.507  13.101
27215W        W99640  19.354   3.279  13.067
27216W        W99641  15.780  33.427   1.335
27217W        W99642  32.835  39.332   3.135
27218W        W99643  14.722  10.979   4.748
27219W        W99644  11.850  37.337  14.812
27220W        W99645  38.795  26.713  13.771
27221W        W99646  40.605  30.014  11.067
27222W        W99647  18.716  28.720   3.003
27223W        W99648  39.547  41.467   0.696
27224W        W99649   6.206  21.227   1.237
27225W        W99650  20.209  35.368  13.760
27226W        W99651  21.736  12.604   1.751
27227W        W99652  10.202  10.262   4.031
27228W        W99653  29.352  25.250   1.830
27229W        W99654  31.369  37.543   0.540
27230W        W99655  42.589  44.053   3.241
27231W        W99656  44.732   7.691   3.248
27232W        W99657  41.506  18.774   0.798
27233W        W99658  25.924  43.728   0.765
27234W        W99659  34.918  38.940   0.023
27235W        W99660   1.808   4.175  13.081
27236W        W99661  21.459  31.378  10.560
27237W        W99662  15.329  23.511  14.376
27238W        W99663  23.035  39.369  10.659
27239W        W99664  25.108   4.512   0.128
27240W        W99665  42.945  24.947   2.235
27241W        W99666   4.823  42.405   0.199
27242W        W99667   0.016  21.179   4.131
27243W        W99668  34.792  27.371  14.093
27244W        W99669  36.905  24.946   2.705
27245W        W99670   3.939   6.972  12.859
27246W        W99671   8.741  12.633  12.921
27247W        W99672   8.644  38.647  11.034
27248W        W99673  25.329  27.457   4.440
27249W        W99674  42.042  22.976   5.036
27250W        W99675  23.193  13.891  12.587
27251W        W99676   5.952  34.800  12.504
27252W        W99677  13.271  23.436  12.141
27253W        W99678  37.049  29.887  14.878
27254W        W99679  21.526   0.092   1.677
27255W        W99680   7.909   1.851  11.945
27256W        W99681  22.257  30.066  12.613
27257W        W99682  23.753  23.197  10.802
27258W        W99683   1.220  35.044  13.171
27259W        W99684  36.812  21.082  14.497
27260W        W99685   9.877  44.778   3.640
27261W        W99686  44.604   5.815   2.468
27262W        W99687   4.901  24.408  13.483
27263W        W99688  43.744  39.116  13.722
27264W        W99689  11.998  14.262   2.644
27265W        W99690  31.074  32.968   1.258
27266W        W99691  27.356   8.153   0.013
27267W        W99692  25.019   2.523   4.973
27268W        W99693  28.400  29.117  14.965
27269W        W99694  27.509  34.840   3.147
27270W        W99695  24.112   4.404  12.235
27271W        W99696  28.500  42.610  14.512
27272W        W99697  21.703   8.234  11.907
27273W        W99698   1.908  43.868   4.379
27274W        W99699  12.343  35.312  11.041
27275W        W99700  28.577  36.584  14.716
27276W        W99701  24.726  43.015  10.583
27277W        W99702   9.432  37.016   2.331
27278W        W99703   0.497  34.527   4.035
27279W        W99704   8.227   9.750  12.047
27280W        W99705  20.954  44.799  12.403
27281W        W99706  26.602  30.156  12.575
27282W        W99707  32.394  37.887  14.336
27283W        W99708   3.844  24.900   4.992
27284W        W99709   8.504  24.195   3.779
27285W        W99710  32.492  40.549   0.482
27286W        W99711  32.441   1.938   1.318
27287W        W99712  38.360  15.059  14.447
27288W        W99713  25.037  30.152  10.156
27289W        W99714  22.553  38.997   0.963
27290W        W99715  31.277  23.593   5.177
27291W        W99716  14.764  39.942  11.329
27292W        W99717  17.769  27.706  13.924
27293W        W99718  17.128  18.825   4.111
27294W        W99719  31.868  15.710   2.936
27295W        W99720  18.678  18.735   1.655
27296W        W99721  31.636  13.641   4.220
27297W        W99722  16.098  43.247   4.298
27298W        W99723  37.865  11.055   0.169
27299W        W99724  27.301  38.467  11.549
27300W        W99725  32.140  22.696   1.156
27301W        W99726  39.045  25.123  13.404
27302W        W99727  22.991  42.121  11.180
27303W        W99728   0.223  31.942   4.548
27304W        W99729  31.012   4.853  12.888
27305W        W99730   8.301  13.822  13.567
27306W        W99731  37.036   9.727  14.424
27307W        W99732   5.331  40.234  10.693
27308W        W99733  34.614  35.053   0.293
27309W        W99734  15.350   0.971   4.602
27310W        W99735   0.891  43.060  12.723
27311W        W99736  11.705  28.136  12.869
27312W        W99737   6.637  33.575   0.394
27313W        W99738   5.050   1.326  12.990
27314W        W99739  27.942  28.948   0.168
27315W        W99740  12.905  20.706  10.675
27316W        W99741  13.880  31.723   0.388
27317W        W99742  27.951   4.217   3.813
27318W        W99743  16.629  14.318  11.543
27319W        W99744  35.286  42.880  13.496
27320W        W99745  34.123  39.615  14.418
27321W        W99746   3.836  40.235   1.817
27322W        W99747  35.493  15.918   2.835
27323W        W99748  10.836   6.375  14.452
27324W        W99749  21.427  37.827   2.097
27325W        W99750   0.789  22.293  12.589
27326W        W99751  14.674  20.098   1.842
27327W        W99752  28.160  44.054  14.508
27328W        W99753  24.231   3.612   2.720
27329W        W99754   0.187  23.228  12.970
27330W        W99755   8.073  20.250  12.194
27331W        W99756  37.157  33.996   3.632
27332W        W99757  17.320  43.218   1.749
27333W        W99758  17.855   6.688  10.466
27334W        W99759   3.349  26.249  11.428
27335W        W99760  42.930   7.674   3.796
27336W        W99761  11.796  13.757   1.459
27337W        W99762  12.154  30.142  14.979
27338W        W99763  33.866  33.114  12.955
27339W        W99764  24.736  21.596  14.403
27340W        W99765   7.666  24.188   0.101
27341W        W99766   6.763  23.550   2.630
27342W        W99767   9.303  27.410  11.211
27343W        W99768  20.704  18.553   2.197
27344W        W99769  36.270  43.352  14.818
27345W        W99770  21.078  27.720   2.849
27346W        W99771   4.245  38.951  10.925
27347W        W99772   0.892   1.906  12.580
27348W        W99773   9.388  28.304  10.314
27349W        W99774  29.612   2.902  13.320
27350W        W99775  34.514  25.597  11.366
27351W        W99776   2.411  40.963  11.614
27352W        W99777  38.371  37.056   4.653
27353W        W99778   8.734  13.602  11.648
27354W        W99779  21.249  21.557   1.702
27355W        W99780  13.050  15.317  12.845
27356W        W99781   8.803  19.233  14.876
27357W        W99782  10.223  39.417  10.681
27358W        W99783  26.456  14.404  10.672
27359W        W99784  10.391   2.574  10.993
27360W        W99785  33.692  19.984   4.485
27361W        W99786  36.509  42.977   2.364
27362W        W99787  34.427   6.192   3.563
27363W        W99788   8.340  40.900   4.363
27364W        W99789  23.838  35.120  11.339
27365W        W99790   0.226   7.556   0.340
27366W        W99791  13.581   1.993   3.645
27367W        W99792  38.488  20.121  10.925
27368W        W99793   7.361   8.896  12.925
27369W        W99794   2.920  40.996  11.660
27370W        W99795  10.135  22.652   0.446
27371W        W99796  17.079  25.178  14.892
27372W        W99797  29.962   9.596  12.489
27373W        W99798  21.570  21.223   3.210
27374W        W99799  14.360  30.982  11.514
27375W        W99800  38.414  43.991  10.663
27376W        W99801  12.650  32.706  12.853
27377W        W99802  15.712  10.215  10.829
27378W        W99803  31.954   3.645  14.537
27379W        W99804   9.302  23.067   0.475
27380W        W99805  23.557  23.712  13.355
27381W        W99806   8.671   6.627   3.672
27382W        W99807  26.048  42.268   4.071
27383W        W99808  37.536  25.909   3.499
27384W        W99809  44.684   3.954   2.676
27385W        W99810  36.385  23.453   1.415
27386W        W99811   9.060  11.889   2.362
27387W        W99812  42.382   7.379  14.922
27388W        W99813  36.906  21.107   0.023
27389W        W99814   2.411  33.556  11.681
27390W        W99815   9.423   0.750  14.805
27391W        W99816   9.838  24.943  12.188
27392W        W99817  24.789  14.321  13.993
27393W        W99818  18.248  30.210   1.362
27394W        W99819  37.007   5.358   0.782
27395W        W99820  25.413  18.990  14.454
27396W        W99821  18.020  41.995  10.446
27397W        W99822   1.843  28.343   4.523
27398W        W99823  15.655  38.954   2.898
27399W        W99824  43.598   0.710  11.989
27400W        W99825  16.146   7.365  14.716
27401W        W99826  44.775  35.785   0.880
27402W        W99827  18.226  16.661  13.058
27403W        W99828  41.073  17.269   2.545
27404W        W99829   0.968  16.781  12.131
27405W        W99830  29.887   3.820  13.772
27406W        W99831  42.798  25.028  12.304
27407W        W99832   5.460  36.991   0.895
27408W        W99833  41.329   0.502  14.207
27409W        W99834  33.291  18.085  14.214
27410W        W99835  11.430  40.845   1.644
27411W        W99836  32.082  22.188   1.378
27412W        W99837  16.520  37.551  11.867
27413W        W99838   2.629  34.490   0.330
27414W        W99839  39.534  21.936  10.699
27415W        W99840  22.784  20.100   1.859
27416W        W99841  31.809  16.573   0.145
27417W        W99842   1.003   2.178   0.152
27418W        W99843  44.149  12.178   2.845
27419W        W99844  32.663  37.379   2.792
27420W        W99845  20.840  17.613  11.357
27421W        W99846   9.694   4.644  10.252
27422W        W99847  21.258  10.825   4.691
27423W        W99848  10.825  36.895  12.360
27424W        W99849  40.367  39.266  14.973
27425W        W99850  37.004   7.914  14.024
27426W        W99851  23.051  34.132   0.217
27427W        W99852  25.699  24.430  13.047
27428W        W99853  35.550  27.076   1.381
27429W        W99854  13.342  20.125  14.412
27430W        W99855  18.169  17.783  14.766
27431W        W99856  38.909  37.391  11.026
27432W        W99857  17.330  41.380  10.669
27433W        W99858  20.738  35.862  14.535
27434W        W99859  37.854   9.974   3.645
27435W        W99860   9.635  18.147   4.478
27436W        W99861  15.950  24.082   3.713
27437W        W99862  38.945   9.333   0.292
27438W        W99863  28.160  24.700  14.708
27439W        W99864   1.096  37.311   3.265
27440W        W99865   6.546  15.260  14.057
27441W        W99866  23.557  13.534   2.303
27442W        W99867  44.813  31.017   2.128
27443W        W99868  36.855   5.415  10.950
27444W        W99869   7.462  38.895  13.216
27445W        W99870  22.633  34.126  12.049
27446W        W99871  21.017  25.860   0.965
27447W        W99872  27.925  17.041   2.346
27448W        W99873   8.830  23.777   3.739
27449W        W99874  29.078  13.250   1.229
27450W        W99875   7.617  26.931   0.475
27451W        W99876  30.901  19.954   4.235
27452W        W99877  30.495  13.749   1.847
27453W        W99878  18.310  14.242  14.347
27454W        W99879  13.061  20.086  13.337
27455W        W99880   6.898  17.723  10.658
27456W        W99881   4.970  35.599  11.883
27457W        W99882  19.753   6.132   4.672
27458W        W99883  35.895  41.432   1.344
27459W        W99884  17.779  10.605  10.318
27460W        W99885   2.879   0.471   4.871
27461W        W99886   6.305  40.565  11.520
27462W        W99887   4.813  31.957  11.502
27463W        W99888   8.890   7.676  12.318
27464W        W99889  38.185  16.581   1.699
27465W        W99890  32.353  26.984   3.133
27466W        W99891  41.905  31.148  13.960
27467W        W99892   4.676  28.517  13.469
27468W        W99893  31.554  30.392  14.904
27469W        W99894   7.257  14.225   2.883
27470W        W99895  38.545  27.724   4.424
27471W        W99896  33.202  18.593  14.275
27472W        W99897  36.025  29.878  13.360
27473W        W99898  16.285   4.021  13.547
27474W        W99899  27.649  25.277   2.319
27475W        W99900  38.244   1.480  10.312
27476W        W99901  43.538  21.655   1.352
27477W        W99902  38.356  14.051  11.697
27478W        W99903  35.148  20.213   4.505
27479W        W99904  15.270  32.614  12.442
27480W        W99905  30.492  34.622  12.598
27481W        W99906  15.293  34.749   4.133
27482W        W99907   1.724  13.595   1.053
27483W        W99908  16.218  12.775   0.452
27484W        W99909  44.408   7.152   0.045
27485W        W99910  15.036  30.967  11.971
27486W        W99911  14.203  32.674  10.640
27487W        W99912  25.150  23.826  14.854
27488W        W99913  36.822  40.542   3.720
27489W        W99914   4.814  14.810   1.805
27490W        W99915  33.447  31.631  11.014
27491W        W99916   6.590  24.053   9.978
27492W        W99917  23.030  30.137  14.851
27493W        W99918   1.810  32.653  10.847
27494W        W99919  19.470  35.827  12.437
27495W        W99920  17.157  44.027  11.519
27496W        W99921  43.048  26.412  12.853
27497W        W99922   5.210   6.944  11.872
27498W        W99923  10.316  24.612   4.689
27499W        W99924  16.013  34.530   0.757
27500W        W99925  12.724  43.805  13.157
27501W        W99926  24.514  12.334   1.346
27502W        W99927  15.175  15.384  13.997
27503W        W99928  41.337  36.909  11.538
27504W        W99929   4.032  36.157   3.291
27505W        W99930  26.856  29.054  10.574
27506W        W99931  43.959  21.053  12.466
27507W        W99932  35.486   9.191   4.838
27508W        W99933   2.588  41.559   2.182
27509W        W99934  19.027  25.161   1.640
27510W        W99935  39.002  17.225   0.845
27511W        W99936  41.846  24.635  12.227
27512W        W99937  38.421   8.343   0.982
27513W        W99938  23.438  21.723  13.088
27514W        W99939  17.755  35.446   4.590
27515W        W99940  11.600  16.242   0.759
27516W        W99941  42.071  24.684  14.822
27517W        W99942  39.465  24.680  13.987
27518W        W99943  10.098  37.289   3.697
27519W        W99944  35.369  17.609  12.917
27520W        W99945  12.069  27.150  11.073
27521W        W99946   1.495  36.845   0.338
27522W        W99947  29.010   5.418  14.042
27523W        W99948   3.689  12.195  14.383
27524W        W99949  43.313   1.886   1.931
27525W        W99950   9.275  40.712   4.153
27526W        W99951   1.183   0.834   4.667
27527W        W99952   0.030   6.186  12.671
27528W        W99953  25.739   5.842  13.826
27529W        W99954  26.167  36.421  12.010
27530W        W99955  18.626  12.076  13.129
27531W        W99956  38.053  14.336   0.711
27532W        W99957  39.715  31.641  11.226
27533W        W99958  36.548  11.553   1.507
27534W        W99959   5.353  39.274  12.084
27535W        W99960   4.424  31.794  11.846
27536W        W99961  23.107  35.949  11.262
27537W        W99962  23.171   6.651  10.731
27538W        W99963  33.861  28.434   0.769
27539W        W99964  24.624  16.222  10.583
27540W        W99965   0.231  41.778   1.240
27541W        W99966   3.364  37.961   3.552
27542W        W99967  16.631  40.822   0.215
27543W        W99968  38.878  25.991  12.566
27544W        W99969  18.394   3.943  13.481
27545W        W99970  44.828  42.213   4.663
27546W        W99971   7.620  39.351  10.648
27547W        W99972  34.151  20.596   1.843
27548W        W99973  34.635  17.847  13.351
27549W        W99974  15.323  38.186   1.403
27550W        W99975   1.568   0.401  11.335
27551W        W99976   8.683  36.897   1.180
27552W        W99977  25.793  30.098   2.754
27553W        W99978  42.903  43.924   2.836
27554W        W99979  32.416  32.848  12.970
27555W        W99980  30.564  22.991   1.943
27556W        W99981  17.009  40.512   3.179
27557W        W99982   2.479  11.947  12.585
27558W        W99983  39.432   1.662   4.259
27559W        W99984  11.652  33.119   3.881
27560W        W99985  21.507   0.794   4.536
27561W        W99986  25.488  36.286  11.678
27562W        W99987  41.582  44.310  10.170
27563W        W99988   1.740  44.083   0.925
27564W        W99989  40.289  28.895  10.801
27565W        W99990  33.863   5.425   4.233
27566W        W99991  41.390   8.857  11.485
27567W        W99992  24.105  24.258  10.827
27568W        W99993  42.432  21.647  13.745
27569W        W99994  39.330  28.561   4.362
27570W        W99995  42.830  40.860   4.624
27571W        W99996  20.364  15.686  11.564
27572W        W99997  31.002  39.553   5.057
27573W        W99998  34.575  19.178  11.670
27574W        W99999  35.088  29.976  14.844
27575W        W    0  42.743  44.508   3.445
27576W        W    1  11.348  33.289   2.786
27577W        W    2  11.347  34.090   4.800
27578W        W    3  28.155  29.276  14.242
27579W        W    4  32.659  42.743   4.202
27580W        W    5  25.625  43.388  12.281
27581W        W    6  29.385   7.369   1.478
27582W        W    7   2.294  23.765   3.843
27583W        W    8  27.652   7.214   5.129
27584W        W    9  34.112   9.199  12.321
27585W        W   10  34.345   1.424   3.802
27586W        W   11  21.023  23.212  12.950
27587W        W   12  37.131  34.390   1.029
27588W        W   13  21.670  44.456   0.516
27589W        W   14  42.280  29.897  14.060
27590W        W   15   0.743  20.171   3.637
27591W        W   16  42.386  33.967  13.234
27592W        W   17  34.906  26.400  11.532
27593W        W   18  37.590  34.987  14.888
27594W        W   19  19.153   7.820  12.943
27595W        W   20  44.814  18.073  13.541
27596W        W   21   3.171  35.981  11.177
27597W        W   22   6.615   7.655  10.470
27598W        W   23  44.599  40.282   1.767
27599W        W   24   5.810  14.640   4.783
27600W        W   25  32.087  43.491   2.741
27601W        W   26  22.067   1.918  14.865
27602W        W   27  10.776  17.318  13.574
27603W        W   28   4.616   7.359   2.264
27604W        W   29   7.985  20.470  14.769
27605W        W   30  24.570   2.937   3.259
27606W        W   31   8.159   8.941   4.780
27607W        W   32  14.821  26.835  14.733
27608W        W   33  17.856  34.040   0.513
27609W        W   34  10.283  35.826  13.597
27610W        W   35   4.336  18.832  13.955
27611W        W   36  10.172  39.804   2.213
27612W        W   37  19.732  11.210   2.547
27613W        W   38   2.212   8.148   3.412
27614W        W   39  15.557  41.322   3.161
27615W        W   40   2.542   6.797   3.249
27616W        W   41  24.571  41.870   3.164
27617W        W   42  17.164   7.196   1.302
27618W        W   43  13.788  14.909   0.294
27619W        W   44   6.682  13.536   0.459
27620W        W   45  25.783  19.795   1.771
27621W        W   46   7.227   5.437  14.042
27622W        W   47  33.132  34.841   4.236
27623W        W   48  31.068   2.293  14.224
27624W        W   49  41.018  19.980   3.627
27625W        W   50  27.414  21.831  14.396
27626W        W   51   5.364  44.219   4.803
27627W        W   52  23.836   0.247  14.687
27628W        W   53  38.761  39.429   1.259
27629W        W   54   1.526  27.070   0.941
27630W        W   55  13.789  23.309  12.823
27631W        W   56  34.323  11.299  11.519
27632W        W   57  23.402  27.217   3.860
27633W        W   58   1.836  11.729   1.798
27634W        W   59  15.256  28.596   3.001
27635W        W   60   9.753   2.496  14.870
27636W        W   61  13.344  24.237   0.258
27637W        W   62  37.572  12.817  12.563
27638W        W   63  16.295  22.196   1.151
27639W        W   64  40.990  28.068   4.602
27640W        W   65  13.620   2.971   4.452
27641W        W   66   0.247  16.036  12.256
27642W        W   67  13.050  37.542  11.991
27643W        W   68  12.626  35.433   4.588
27644W        W   69  35.601  41.534   2.305
27645W        W   70  44.131  14.798   1.781
27646W        W   71   7.737   3.743   3.447
27647W        W   72  15.996  36.442  12.542
27648W        W   73  11.059   2.756   5.656
27649W        W   74  37.201  28.134  13.770
27650W        W   75   0.570  35.136   3.666
27651W        W   76  19.209  21.459  11.131
27652W        W   77  26.982  31.911  13.878
27653W        W   78   5.529  34.669  13.873
27654W        W   79  37.487  41.064   3.493
27655W        W   80  13.597  31.856  13.040
27656W        W   81  44.392  30.702   1.976
27657W        W   82  36.156  43.138   0.296
27658W        W   83  15.007  19.173  11.040
27659W        W   84  30.988  33.591   2.527
27660W        W   85  27.507  26.122  14.330
27661W        W   86  42.462  33.979  13.964
27662W        W   87  17.002   5.992   4.808
27663W        W   88  34.457  14.242  13.825
27664W        W   89  20.726  27.554   0.785
27665W        W   90  11.334  15.078   3.497
27666W        W   91   6.854  42.034   2.406
27667W        W   92  36.483  16.116  14.062
27668W        W   93   9.482  20.951  13.538
27669W        W   94   5.398  40.978  14.334
27670W        W   95   8.242  11.091   3.617
27671W        W   96   0.985  22.296   0.958
27672W        W   97  42.373  23.172   4.266
27673W        W   98  24.925  36.804   2.209
27674W        W   99   1.503  42.049   4.170
27675W        W  100  37.314  24.985  11.192
27676W        W  101  28.943  39.037   9.717
27677W        W  102  22.499   4.259   2.404
27678W        W  103  31.131  31.387   1.333
27679W        W  104  39.489  22.832   0.765
27680W        W  105  20.185  11.009   2.365
27681W        W  106   3.935   4.769  10.875
27682W        W  107  40.990  26.106  14.413
27683W        W  108  31.402   0.115  11.853
27684W        W  109  14.803  17.421   2.733
27685W        W  110  13.654  33.538   3.591
27686W        W  111   8.747  25.706   5.186
27687W        W  112  25.740   1.149   4.170
27688W        W  113  13.847   1.435   1.949
27689W        W  114  24.195   6.643   2.741
27690W        W  115  33.607   6.293   3.949
27691W        W  116  41.665   9.121   4.671
27692W        W  117  42.023   3.579   2.820
27693W        W  118  44.477  21.006   3.224
27694W        W  119  20.094  15.288  10.870
27695W        W  120  28.634   8.542  12.360
27696W        W  121  19.487  19.114   2.854
27697W        W  122   4.858   2.751  14.287
27698W        W  123  30.312  37.854  12.894
27699W        W  124   2.509  37.033   4.574
27700W        W  125  33.685  37.335   3.611
27701W        W  126  31.829  26.852   4.819
27702W        W  127   6.613   4.391  12.587
27703W        W  128   2.097  16.766  10.612
27704W        W  129   1.406  36.868   1.453
27705W        W  130   9.751   9.061  11.549
27706W        W  131   0.288  12.569  11.677
27707W        W  132   0.847  30.482  13.745
27708W        W  133  28.135  35.275   3.633
27709W        W  134   2.864  16.139   3.608
27710W        W  135  38.991   0.270  13.385
27711W        W  136  15.026   3.930   4.134
27712W        W  137  28.632  11.336   2.753
27713W        W  138  26.498  35.311   2.318
27714W        W  139   4.661   4.872   2.245
27715W        W  140   0.237  30.110  11.484
27716W        W  141  11.350  12.681  12.859
27717W        W  142  41.346  30.623   0.416
27718W        W  143  39.789  31.991   0.289
27719W        W  144  26.494  39.544   3.734
27720W        W  145   7.797  35.298   4.729
27721W        W  146  39.770   2.377   3.684
27722W        W  147  14.422   1.018   4.209
27723W        W  148  33.501   0.696  10.855
27724W        W  149  13.084  37.164   5.147
27725W        W  150  40.389  21.112   1.431
27726W        W  151  16.723  38.527   3.271
27727W        W  152  44.308   8.305   4.994
27728W        W  153  19.740  31.833  11.670
27729W        W  154   4.000   7.150   4.947
27730W        W  155  26.989  44.988   1.011
27731W        W  156  24.444   9.438  10.595
27732W        W  157  38.464  28.589  12.846
27733W        W  158   7.048   2.994   4.108
27734W        W  159  10.877   0.528   2.757
27735W        W  160  32.125  30.639   1.693
27736W        W  161   5.675  30.578   0.305
27737W        W  162  28.012  33.328  11.018
27738W        W  163  33.006  38.542   2.126
27739W        W  164  38.615  19.776  12.154
27740W        W  165  13.898  44.461   4.719
27741W        W  166  32.260  30.254   0.195
27742W        W  167  35.616  11.068  11.936
27743W        W  168  31.771  30.150   0.315
27744W        W  169  19.967  30.492  12.062
27745W        W  170   3.274  30.143   3.198
27746W        W  171  31.892  32.728  14.879
27747W        W  172  37.817  32.678  10.828
27748W        W  173  11.037  15.808   3.273
27749W        W  174   4.836   2.513   4.227
27750W        W  175  12.578  14.670  12.480
27751W        W  176  18.732  16.298  10.754
27752W        W  177  25.956  15.506  11.402
27753W        W  178  38.713  27.675  10.269
27754W        W  179  15.844  34.778   1.705
27755W        W  180   5.197  25.017   1.717
27756W        W  181   2.421  12.851   2.350
27757W        W  182  23.617   6.450  14.939
27758W        W  183  14.817   8.106   4.240
27759W        W  184  11.377  39.947   1.172
27760W        W  185  39.050  34.542  13.986
27761W        W  186   2.397  36.301   0.424
27762W        W  187  16.364  35.019  11.223
27763W        W  188  41.031  28.151   2.265
27764W        W  189   0.801  24.173   1.304
27765W        W  190  37.570  33.630  13.597
27766W        W  191  21.998  35.321   3.408
27767W        W  192  21.045   0.298   2.795
27768W        W  193  31.387  25.702  14.318
27769W        W  194  38.907  28.723  14.600
27770W        W  195   7.360  37.625   0.750
27771W        W  196  36.017  26.247  13.106
27772W        W  197   1.485  17.820  13.021
27773W        W  198  14.164  19.084   1.349
27774W        W  199  14.913   5.242  13.066
27775W        W  200   4.903  30.112   0.586
27776W        W  201   1.412  19.543  14.262
27777W        W  202  33.331  24.535   4.113
27778W        W  203  33.581  30.882   2.214
27779W        W  204  18.962  14.847  12.454
27780W        W  205  27.085  26.066  11.125
27781W        W  206  16.204  39.396   3.305
27782W        W  207  12.367  34.077  13.998
27783W        W  208  13.419   3.884   9.819
27784W        W  209  27.957  42.856  10.663
27785W        W  210  27.414   4.954   2.851
27786W        W  211  33.047  39.375   4.815
27787W        W  212   2.761  17.969   0.439
27788W        W  213  18.646   9.096   3.875
27789W        W  214   4.420   6.152  14.478
27790W        W  215   1.345  29.210   3.707
27791W        W  216  38.262  11.731  13.820
27792W        W  217   5.669  23.668   1.145
27793W        W  218  31.976   2.671   4.271
27794W        W  219  10.433   4.424   4.055
27795W        W  220  17.224   8.927   0.797
27796W        W  221  20.112   0.571  14.850
27797W        W  222   4.706  13.301  12.878
27798W        W  223  28.884  22.763   0.684
27799W        W  224   3.542   4.424  11.738
27800W        W  225  13.333   2.258  12.934
27801W        W  226  40.000  32.988   4.820
27802W        W  227   1.425   6.148   2.908
27803W        W  228  32.433  27.165  11.484
27804W        W  229  38.136  24.472   3.621
27805W        W  230  42.105  12.679   0.529
27806W        W  231   4.862  26.957  14.379
27807W        W  232  20.979  15.619  11.166
27808W        W  233  15.837  42.498   2.760
27809W        W  234  11.064  28.017   0.752
27810W        W  235  12.341   2.674   3.710
27811W        W  236  24.018  27.136   1.682
27812W        W  237   0.217  15.909   0.474
27813W        W  238  39.559  40.097  13.954
27814W        W  239   7.261  23.528  13.519
27815W        W  240  24.697   5.480  14.581
27816W        W  241  28.580  42.944  12.010
27817W        W  242   1.016   0.908   3.306
27818W        W  243  44.193  29.542  11.694
27819W        W  244  11.199  11.114   4.230
27820W        W  245  17.011  38.612   0.510
27821W        W  246  42.079  18.083   2.679
27822W        W  247  35.804  20.042  14.983
27823W        W  248   0.163  22.717  12.898
27824W        W  249  23.722  37.703  14.446
27825W        W  250  42.933  15.682   4.725
27826W        W  251  31.213   3.643   0.815
27827W        W  252   4.501  28.991  11.656
27828W        W  253  28.332  20.679  12.177
27829W        W  254   3.515  16.066  10.676
27830W        W  255   9.823   0.981  13.480
27831W        W  256  14.833  24.381  12.463
27832W        W  257   7.698  28.058   0.141
27833W        W  258   1.727  23.906  13.849
27834W        W  259  24.489  37.138   3.268
27835W        W  260   7.406   3.226   2.427
27836W        W  261  42.500   1.236   3.089
27837W        W  262  27.596  10.379  14.289
27838W        W  263  39.044  22.997   2.785
27839W        W  264  39.890  23.542   1.063
27840W        W  265  19.550  21.789  12.629
27841W        W  266   4.415  28.617  11.323
27842W        W  267  31.155  39.933   1.062
27843W        W  268  14.820  43.269   2.708
27844W        W  269  14.524  39.544   1.401
27845W        W  270   3.898  33.368   4.559
27846W        W  271   6.961   3.292   0.865
27847W        W  272  16.135   4.400   2.750
27848W        W  273  38.270  41.629  10.203
27849W        W  274  21.579   4.462  11.882
27850W        W  275  16.226  39.886  10.776
27851W        W  276   1.781   8.699  11.690
27852W        W  277  15.952   9.530   0.513
27853W        W  278  29.642  36.764   0.475
27854W        W  279  28.605  24.334   5.108
27855W        W  280  41.755   4.401  12.387
27856W        W  281   2.134  21.959  12.025
27857W        W  282  21.758   4.205  12.293
27858W        W  283   6.092   3.199   4.178
27859W        W  284  34.155   0.022   3.694
27860W        W  285  10.615  13.139   1.958
27861W        W  286  20.040  14.705   0.942
27862W        W  287  19.326  17.369   2.215
27863W        W  288  31.108  25.332   5.011
27864W        W  289  27.203  11.560  14.768
27865W        W  290  43.700   4.248  11.493
27866W        W  291  14.392  33.850   0.398
27867W        W  292   8.344  18.234   4.404
27868W        W  293   7.503  36.092  13.058
27869W        W  294  17.293  16.573   2.900
27870W        W  295   9.246  22.962   1.427
27871W        W  296  43.005  41.221   1.006
27872W        W  297  39.876  20.242  12.643
27873W        W  298  40.419  32.859  11.458
27874W        W  299  44.214  35.977   2.171
27875W        W  300  26.275  40.395   4.190
27876W        W  301   2.010  32.995   4.136
27877W        W  302   3.698  39.413   0.607
27878W        W  303   8.077  22.028  13.006
27879W        W  304   8.215  41.288  10.717
27880W        W  305  23.993  17.893  13.978
27881W        W  306  17.300  14.833  11.967
27882W        W  307  30.863  16.726   4.733
27883W        W  308  16.143  13.105   1.772
27884W        W  309  25.466  24.160   0.517
27885W        W  310  10.180  24.503   0.136
27886W        W  311   9.847  34.411  10.917
27887W        W  312   7.597  25.743  14.285
27888W        W  313  31.647  23.670   4.372
27889W        W  314   9.686  24.656   1.836
27890W        W  315  24.728  10.300   3.931
27891W        W  316   6.421  21.719   4.296
27892W        W  317  41.150  33.994  14.499
27893W        W  318  28.037  36.032  11.474
27894W        W  319  14.639   7.223   1.733
27895W        W  320  39.084  17.732  11.651
27896W        W  321  28.508   9.451  12.523
27897W        W  322  41.582  22.012   0.603
27898W        W  323  24.728  31.116  10.187
27899W        W  324  18.582  42.506   0.036
27900W        W  325  23.552  40.010   3.728
27901W        W  326   8.350   0.437   2.175
27902W        W  327  26.900   7.901   3.253
27903W        W  328  19.470  18.574  11.096
27904W        W  329  30.681  40.454   2.622
27905W        W  330  36.896  40.827   4.194
27906W        W  331  16.153   1.361   4.773
27907W        W  332  28.019  11.687  12.394
27908W        W  333  42.272   3.299   3.630
27909W        W  334   7.157  18.676  10.957
27910W        W  335  35.566  33.389   0.690
27911W        W  336  38.809   2.249  11.980
27912W        W  337   8.129   1.471   4.166
27913W        W  338  12.572  18.542   1.545
27914W        W  339  28.612  32.263   3.661
27915W        W  340  42.340  31.976   0.272
27916W        W  341  25.016  32.572   4.603
27917W        W  342  36.661  23.670   3.077
27918W        W  343  40.428  31.602   2.873
27919W        W  344  35.343  34.911   3.081
27920W        W  345  20.727  28.164  10.658
27921W        W  346   1.402  34.884   0.475
27922W        W  347  23.903  37.688   1.224
27923W        W  348   3.677  41.033   0.379
27924W        W  349  33.098   8.956   1.917
27925W        W  350   1.999   5.196  13.919
27926W        W  351  29.769  38.912   1.635
27927W        W  352   4.291  13.228  14.013
27928W        W  353   3.669   5.000   0.356
27929W        W  354  10.205   0.022   1.412
27930W        W  355  36.934  28.478   4.093
27931W        W  356  32.003  24.798   0.807
27932W        W  357  43.352   9.815  13.400
27933W        W  358  28.208   0.130   1.848
27934W        W  359  30.013   6.121  11.586
27935W        W  360  36.812  39.973   1.767
27936W        W  361   4.893  16.435  12.784
27937W        W  362   4.047  15.662   0.881
27938W        W  363   3.495  35.963   3.378
27939W        W  364   9.751  32.491   1.177
27940W        W  365  31.828  20.286  10.694
27941W        W  366   4.906  28.559  10.568
27942W        W  367   3.766  20.571  10.689
27943W        W  368  11.812  26.255   3.801
27944W        W  369  27.972   4.353  11.423
27945W        W  370  19.514  40.929  14.174
27946W        W  371  17.288  33.209   0.351
27947W        W  372   0.884  27.416  14.389
27948W        W  373  35.988  34.088  12.569
27949W        W  374  18.333  13.167   3.254
27950W        W  375  40.272  41.517   0.420
27951W        W  376  20.662  38.545   3.640
27952W        W  377  42.271  12.184   4.643
27953W        W  378  28.047   5.853   3.592
27954W        W  379   7.755  24.473   3.348
27955W        W  380  19.331  27.206   0.306
27956W        W  381  31.676  25.068   4.206
27957W        W  382   8.280   1.783  11.225
27958W        W  383  19.617  19.940   3.102
27959W        W  384  20.496  19.258   2.839
27960W        W  385  20.138  41.543  11.151
27961W        W  386  33.642  29.440   0.971
27962W        W  387   4.097  28.455   2.726
27963W        W  388   1.026  32.039  14.618
27964W        W  389  12.164  40.474   3.196
27965W        W  390  12.833  37.894  13.163
27966W        W  391  36.975  11.189   4.897
27967W        W  392  28.996   0.303   2.035
27968W        W  393  15.811   6.931  12.843
27969W        W  394  17.727  40.594   3.653
27970W        W  395  21.005  19.678   4.398
27971W        W  396  22.423  11.299   4.232
27972W        W  397  40.100  31.529  12.515
27973W        W  398  37.579  44.319  11.183
27974W        W  399  25.494  35.557   4.331
27975W        W  400  16.651  10.947   4.649
27976W        W  401  26.989  18.714  13.783
27977W        W  402   9.247   4.951   2.838
27978W        W  403  18.715  34.006   3.012
27979W        W  404  32.133  35.037  12.326
27980W        W  405  18.970  29.212  12.215
27981W        W  406  38.470  21.236  13.627
27982W        W  407  11.464  17.643  10.151
27983W        W  408  16.810  41.047   4.281
27984W        W  409  32.236  31.190  11.011
27985W        W  410  18.687  24.038  12.836
27986W        W  411  28.013  34.161  10.647
27987W        W  412   0.994   1.470   0.785
27988W        W  413  43.072  44.812   4.229
27989W        W  414  41.453  30.528   0.956
27990W        W  415  44.735  24.113  14.379
27991W        W  416  22.210  42.515   2.269
27992W        W  417  26.700  42.699  11.767
27993W        W  418  23.551  19.330   4.654
27994W        W  419  31.864   2.959   4.698
27995W        W  420   6.240  11.272   0.519
27996W        W  421  37.927   8.082   9.793
27997W        W  422   2.909  36.793  12.117
27998W        W  423   2.843  32.502   4.466
27999W        W  424   0.021   4.461   3.729
28000W        W  425  33.059   5.971   2.236
28001W        W  426  13.093  10.354   3.890
28002W        W  427   0.772   3.340  11.111
28003W        W  428  16.128  38.252   0.315
28004W        W  429  35.404  11.402   0.753
28005W        W  430  12.392   7.696  12.963
28006W        W  431  35.180  17.565   2.987
28007W        W  432  40.044  15.378   0.783
28008W        W  433  16.357  30.666   1.949
28009W        W  434  40.282   3.206  12.114
28010W        W  435  36.300  23.518  13.503
28011W        W  436  41.829  39.406   1.926
28012W        W  437   7.673  33.587   0.274
28013W        W  438  26.412   7.719  10.830
28014W        W  439  40.090  27.925  12.105
28015W        W  440  16.038  10.512   0.001
28016W        W  441  32.232  43.017   4.140
28017W        W  442  34.902  32.552  12.939
28018W        W  443  40.016  14.793   2.638
28019W        W  444  24.517  11.734  10.926
28020W        W  445  17.329  19.679  12.598
28021W        W  446   1.694  36.522  14.981
28022W        W  447  32.113  31.137   1.223
28023W        W  448  30.137  35.480  14.502
28024W        W  449  18.273   6.815   4.249
28025W        W  450  35.091  43.368  14.303
28026W        W  451  17.682  33.943  13.291
28027W        W  452  18.861  19.178   1.876
28028W        W  453  17.842  33.480  13.085
28029W        W  454  17.660   0.944  14.239
28030W        W  455  19.436  31.736  12.138
28031W        W  456  38.860  40.797  10.525
28032W        W  457  37.372  18.007   3.235
28033W        W  458  28.514  44.953   0.837
28034W        W  459  39.622  41.868   1.876
28035W        W  460  23.228  16.927  11.013
28036W        W  461  39.651   9.369  11.089
28037W        W  462  39.854  29.652   0.452
28038W        W  463   8.242  14.042   1.882
28039W        W  464  34.420   5.424   3.377
28040W        W  465  39.473  39.237  11.706
28041W        W  466   0.237  39.989   0.757
28042W        W  467   0.226  43.228  13.995
28043W        W  468   1.289   4.980   2.124
28044W        W  469  38.785  15.238  13.471
28045W        W  470   1.214  41.378   2.684
28046W        W  471  37.408  15.323   2.796
28047W        W  472  22.258  31.438   4.503
28048W        W  473  42.539  16.023   1.886
28049W        W  474   8.647   2.629   2.849
28050W        W  475  20.022  26.044  11.975
28051W        W  476  37.961  33.958  11.605
28052W        W  477   5.908   9.458  14.151
28053W        W  478  42.423  44.260   2.789
28054W        W  479  40.323   8.742   1.288
28055W        W  480  23.278  27.735   4.638
28056W        W  481   3.866   3.243  10.439
28057W        W  482  26.611  38.316  13.789
28058W        W  483   4.169  36.759  14.933
28059W        W  484  42.447  35.052  13.875
28060W        W  485  14.846  32.599   3.733
28061W        W  486   6.815  27.793   4.301
28062W        W  487  37.195   9.543  10.086
28063W        W  488  34.547  20.878  10.561
28064W        W  489   0.803   4.130   4.251
28065W        W  490  28.891  13.416  11.800
28066W        W  491   8.276  35.624   4.283
28067W        W  492  41.956  22.529  11.187
28068W        W  493  25.490  37.892  14.973
28069W        W  494   1.314  22.092  13.772
28070W        W  495  40.842   0.393   2.473
28071W        W  496  42.082  35.187  14.767
28072W        W  497  33.949  28.402  13.538
28073W        W  498  32.768  38.948   0.747
28074W        W  499   6.266  10.812  11.741
28075W        W  500  11.692  35.644   2.730
28076W        W  501  41.246  27.766  11.138
28077W        W  502  34.022  17.777   1.370
28078W        W  503  13.207   9.651   3.012
28079W        W  504   5.114  31.973  13.506
28080W        W  505  41.924  31.985  10.591
28081W        W  506   1.190  16.265   1.676
28082W        W  507  30.575  16.828   1.864
28083W        W  508   2.537   3.206  11.758
28084W        W  509   1.295  22.991  11.637
28085W        W  510   2.000  16.688  14.184
28086W        W  511  25.861  29.481   5.356
28087W        W  512  37.794   4.338   1.842
28088W        W  513  32.021   7.796  12.502
28089W        W  514  12.701   9.489  13.075
28090W        W  515  33.424  42.261  12.949
28091W        W  516  33.096  16.689  14.912
28092W        W  517  32.607  31.865  13.027
28093W        W  518  10.882  29.022   2.268
28094W        W  519   0.785  31.703   0.505
28095W        W  520  10.295  36.021   4.329
28096W        W  521   7.300  14.358   0.291
28097W        W  522  32.471  40.916  14.422
28098W        W  523  26.531  43.815   3.032
28099W        W  524  22.582  23.512  11.677
28100W        W  525   9.803  20.332   1.506
28101W        W  526  35.310  13.326   3.754
28102W        W  527  14.754  22.113   5.033
28103W        W  528   9.809  39.142   4.863
28104W        W  529  14.193  32.941   3.118
28105W        W  530  15.144   0.893  13.812
28106W        W  531  35.935   9.358   9.599
28107W        W  532  17.587   8.875   2.679
28108W        W  533  18.203  34.632  14.754
28109W        W  534  39.323  39.377   4.381
28110W        W  535  36.432  18.750  13.983
28111W        W  536  10.779  33.095   2.746
28112W        W  537  44.216  12.408  11.185
28113W        W  538  18.670  31.123  11.184
28114W        W  539  25.221  30.459   2.277
28115W        W  540  24.753   2.732   4.240
28116W        W  541  12.448   3.814   2.805
28117W        W  542  44.368  22.751   0.744
28118W        W  543  11.928  26.957  11.591
28119W        W  544  39.840  40.312   1.341
28120W        W  545  44.382  20.082   4.702
28121W        W  546  15.401  35.113  10.753
28122W        W  547  32.248   9.673   3.615
28123W        W  548  29.884  38.915  10.720
28124W        W  549  44.311  32.338  13.298
28125W        W  550   4.810  31.462   1.482
28126W        W  551  35.166  29.511   5.072
28127W        W  552  36.573  34.520  14.660
28128W        W  553  11.595  21.042  11.124
28129W        W  554  43.744   2.480   4.725
28130W        W  555  38.005  15.154  10.980
28131W        W  556  38.911  15.037   1.441
28132W        W  557  33.584  25.262   5.045
28133W        W  558   5.233  20.946   1.774
28134W        W  559  32.394  37.020  13.451
28135W        W  560  13.817   3.737   2.268
28136W        W  561  39.894  37.425   4.652
28137W        W  562  26.178   5.376  14.633
28138W        W  563  25.963  23.495  10.521
28139W        W  564  24.850  15.558  12.887
28140W        W  565  31.686  41.723   5.261
28141W        W  566  44.216  35.541  12.692
28142W        W  567  10.621  32.568  10.920
28143W        W  568  41.061  12.380   3.206
28144W        W  569  26.256  27.892   0.407
28145W        W  570   4.828   9.634   3.700
28146W        W  571  26.535  34.772  13.109
28147W        W  572  16.779  13.885   2.677
28148W        W  573   3.963   2.600  12.357
28149W        W  574  31.344   0.083   4.071
28150W        W  575  25.453  25.764  14.913
28151W        W  576  27.481   3.648   3.416
28152W        W  577  16.779  30.167  12.498
28153W        W  578  11.532   2.785   5.454
28154W        W  579  10.312  36.392  13.320
28155W        W  580  33.401  42.921   2.353
28156W        W  581  41.037  42.887   1.917
28157W        W  582  18.738  24.152  13.369
28158W        W  583  36.817  10.889  13.097
28159W        W  584  11.174  35.546  14.452
28160W        W  585   8.804   8.858   2.095
28161W        W  586  11.573   4.036  13.987
28162W        W  587  32.120   0.487  10.513
28163W        W  588  35.130  24.963   3.342
28164W        W  589  28.021   8.261   0.205
28165W        W  590  36.041  35.114   2.798
28166W        W  591  18.083  32.437  14.215
28167W        W  592   1.928   9.266  12.506
28168W        W  593   3.050  31.279  12.204
28169W        W  594  35.437  37.829  14.357
28170W        W  595  31.912   4.000   2.373
28171W        W  596  42.800  11.541  14.891
28172W        W  597  30.479  25.482   2.127
28173W        W  598  29.737  10.076   3.700
28174W        W  599   9.445  18.745   2.896
28175W        W  600   7.565  42.521   0.930
28176W        W  601  16.217  32.499   3.427
28177W        W  602  40.283  14.402   1.031
28178W        W  603   3.899   2.316  13.809
28179W        W  604  31.114  16.529  12.885
28180W        W  605  34.573   5.711  11.616
28181W        W  606  31.860   9.201   0.851
28182W        W  607  25.355  15.367   0.275
28183W        W  608   1.541   1.905  11.150
28184W        W  609   8.781  16.795  10.768
28185W        W  610  21.071   1.090   4.228
28186W        W  611   0.419  28.420   2.844
28187W        W  612  28.788  26.048   4.487
28188W        W  613   8.415   8.228  14.442
28189W        W  614   4.386  33.120   3.359
28190W        W  615  30.815  12.554   3.138
28191W        W  616  12.252  22.534   3.636
28192W        W  617  39.404  17.739  14.777
28193W        W  618  12.394  13.609   2.659
28194W        W  619  37.452   3.274  11.547
28195W        W  620  30.583  35.343  14.782
28196W        W  621   5.447  43.415   1.851
28197W        W  622  15.677  27.554  14.444
28198W        W  623  26.293   2.750  13.385
28199W        W  624  11.251  18.368  12.539
28200W        W  625  38.456  17.921   1.178
28201W        W  626   8.332  27.260  14.906
28202W        W  627  33.508  30.814  10.608
28203W        W  628  29.022  36.134   0.722
28204W        W  629  41.732  33.346   2.223
28205W        W  630  37.490  22.132  11.960
28206W        W  631  36.905  36.980  14.261
28207W        W  632   0.896  31.816  10.619
28208W        W  633   2.543   1.209  13.861
28209W        W  634  16.957  10.579   3.258
28210W        W  635  40.989  27.636   2.408
28211W        W  636   2.233  44.476  10.507
28212W        W  637  37.314   4.188  12.115
28213W        W  638  23.692  33.491   2.309
28214W        W  639  32.640  33.897  13.883
28215W        W  640   5.480  35.955  11.079
28216W        W  641  33.292   0.363  11.183
28217W        W  642  14.385  31.861   0.481
28218W        W  643  10.211  35.983   0.164
28219W        W  644  17.167  41.929  10.926
28220W        W  645  39.215  42.012  11.153
28221W        W  646   7.308  31.907  11.943
28222W        W  647  38.306  28.291  12.460
28223W        W  648  13.779  26.182  11.602
28224W        W  649  42.658  28.045   2.909
28225W        W  650  43.522   1.609   1.541
28226W        W  651  31.988  38.969   0.049
28227W        W  652  34.972  32.409   2.409
28228W        W  653  11.836   6.201  14.456
28229W        W  654  19.287   8.967   5.055
28230W        W  655  23.733  35.899   0.828
28231W        W  656  29.439   9.110   0.166
28232W        W  657  38.318  34.479   4.761
28233W        W  658   7.826  36.585  12.469
28234W        W  659   5.156  44.810  12.129
28235W        W  660  20.695   1.345  13.906
28236W        W  661   8.608  10.109   4.638
28237W        W  662  30.959  41.628   3.186
28238W        W  663  19.288  11.201   3.900
28239W        W  664  28.790   7.012   2.328
28240W        W  665  34.516  10.115   1.426
28241W        W  666  38.582  22.763   2.882
28242W        W  667  28.318  10.695  10.004
28243W        W  668  23.990  10.597   3.049
28244W        W  669  40.752  32.652  14.778
28245W        W  670   2.480   1.449  14.343
28246W        W  671  23.725   4.886   1.955
28247W        W  672  39.006  10.686  11.571
28248W        W  673  27.140  41.929  14.823
28249W        W  674  38.762  31.664  12.493
28250W        W  675   9.622   1.851  11.544
28251W        W  676  24.727   2.174  11.378
28252W        W  677  25.344  42.490   2.270
28253W        W  678  30.844  44.906   1.257
28254W        W  679   7.158  23.277  14.547
28255W        W  680  28.847  29.165   0.259
28256W        W  681  11.856  36.805   1.691
28257W        W  682  18.443   1.632   9.901
28258W        W  683  12.446  37.849  14.177
28259W        W  684  43.777   2.503  12.347
28260W        W  685   4.703   5.160  13.413
28261W        W  686  26.708   0.276  12.440
28262W        W  687  19.494  32.586   3.684
28263W        W  688  11.383  16.111  11.870
28264W        W  689  19.575  24.013  11.448
28265W        W  690  22.988   5.179  10.633
28266W        W  691  40.016  40.373  14.751
28267W        W  692  40.588  16.543  11.170
28268W        W  693  10.673  43.475  12.860
28269W        W  694   7.483  36.929   4.245
28270W        W  695   4.240  19.242  11.097
28271W        W  696   9.658  12.620  11.710
28272W        W  697  28.762  17.194  12.881
28273W        W  698  36.722  41.838  13.042
28274W        W  699  32.644   1.389   1.290
28275W        W  700   5.293  10.721   3.691
28276W        W  701  11.512   2.488   0.848
28277W        W  702  15.152  12.380   0.906
28278W        W  703  27.490   0.458  12.862
28279W        W  704  37.919  32.145   0.470
28280W        W  705  33.948  21.954  13.120
28281W        W  706  27.076  15.239  11.523
28282W        W  707   1.041  24.517  13.269
28283W        W  708   1.028  27.877  10.814
28284W        W  709  28.987  27.238  11.604
28285W        W  710  10.622  39.650   1.316
28286W        W  711  30.418  20.635   1.587
28287W        W  712  19.642  44.595  12.436
28288W        W  713  27.069  31.128   2.357
28289W        W  714  12.014   4.118   2.702
28290W        W  715   1.517  44.505   1.877
28291W        W  716  16.099   9.170   4.835
28292W        W  717   0.677  20.861  14.436
28293W        W  718  40.872  22.784   4.550
28294W        W  719  37.961  27.437  13.886
28295W        W  720  20.055  33.874  12.177
28296W        W  721  38.505  24.569  14.472
28297W        W  722  15.616  35.006   1.239
28298W        W  723  14.282  42.331   3.308
28299W        W  724  31.047   1.888   1.952
28300W        W  725  13.385   4.966  14.828
28301W        W  726  15.117   5.948  12.549
28302W        W  727  20.467  13.622  14.847
28303W        W  728  34.526  17.593   3.778
28304W        W  729  17.378   5.419  13.429
28305W        W  730  20.776  33.200  10.697
28306W        W  731  10.644  30.726  13.086
28307W        W  732  44.393   2.270  14.813
28308W        W  733  15.172  11.303   1.362
28309W        W  734  28.001   8.520  11.211
28310W        W  735  27.160  28.006  12.446
28311W        W  736  40.487   5.691  12.523
28312W        W  737  10.597   6.331   0.385
28313W        W  738  24.660  18.815   4.515
28314W        W  739  44.374  23.243   2.777
28315W        W  740  26.940  15.849  13.842
28316W        W  741  25.921   0.948  12.558
28317W        W  742  20.633  28.388  11.122
28318W        W  743  21.637  28.732  11.082
28319W        W  744   7.663  25.624   2.476
28320W        W  745  14.578  29.742   0.751
28321W        W  746  23.750  34.160   4.291
28322W        W  747   1.686  35.910   4.537
28323W        W  748  33.567   2.836   2.450
28324W        W  749  32.528  17.641   1.624
28325W        W  750  35.973  34.206   4.116
28326W        W  751  12.675  23.559   2.372
28327W        W  752  44.014  42.911  10.697
28328W        W  753   6.305  33.351  10.947
28329W        W  754  23.683  36.647   1.758
28330W        W  755  42.014  21.372  13.580
28331W        W  756   5.736  13.831  13.622
28332W        W  757  15.222  34.619  12.576
28333W        W  758  44.824  17.071   0.867
28334W        W  759  11.262  23.032   2.332
28335W        W  760  32.212  13.766   5.098
28336W        W  761   4.683  25.599  11.181
28337W        W  762   8.436  44.932  13.957
28338W        W  763   3.454  32.639   0.356
28339W        W  764   3.660  32.022   1.285
28340W        W  765  22.240  13.843   0.315
28341W        W  766   2.357  37.949   3.298
28342W        W  767  26.859  17.272   0.936
28343W        W  768  44.925  41.439   0.969
28344W        W  769  44.517   3.327   1.787
28345W        W  770   5.755   2.511   3.248
28346W        W  771  22.122  41.065   3.378
28347W        W  772   9.382   0.175  12.562
28348W        W  773  27.597  41.535   1.448
28349W        W  774  20.198  21.571   1.831
28350W        W  775  30.828  23.822  10.856
28351W        W  776  42.534   9.588  11.067
28352W        W  777  42.983  19.331  14.312
28353W        W  778  23.903  23.037   3.176
28354W        W  779  24.905  44.561   4.561
28355W        W  780   6.414  30.823  14.499
28356W        W  781  38.498   6.348   2.274
28357W        W  782  12.627  21.671  12.649
28358W        W  783   2.281  23.801  13.362
28359W        W  784  26.118  12.208   4.193
28360W        W  785  19.319  24.771   1.816
28361W        W  786  11.356  11.935   0.917
28362W        W  787  32.066  15.581  10.145
28363W        W  788   9.807  38.775   2.614
28364W        W  789  41.378  44.524  14.332
28365W        W  790  35.071  10.743  11.555
28366W        W  791  38.042  39.931   2.341
28367W        W  792  25.414   3.952   3.616
28368W        W  793  43.311  37.972   3.218
28369W        W  794  22.995  17.571  14.810
28370W        W  795   6.660  11.326   0.832
28371W        W  796  33.896  43.063  13.020
28372W        W  797  41.003   8.728   0.792
28373W        W  798  15.112   1.890  13.798
28374W        W  799   5.770  32.474  13.835
28375W        W  800   4.319  29.139   4.180
28376W        W  801  40.364   4.916   3.160
28377W        W  802  38.951  28.880   4.147
28378W        W  803  15.435  23.036   1.768
28379W        W  804   1.646  23.249   3.199
28380W        W  805  21.020   2.584  12.970
28381W        W  806  13.814  39.037  14.436
28382W        W  807  38.359   2.144  13.556
28383W        W  808  26.093  15.888  10.259
28384W        W  809  43.719   6.678   4.105
28385W        W  810  36.184  38.136   3.293
28386W        W  811  22.211  21.893  10.567
28387W        W  812  17.478  16.105   2.735
28388W        W  813  34.429   3.240   2.795
28389W        W  814  39.588   8.756  10.510
28390W        W  815   4.426  25.473  10.405
28391W        W  816   9.215  10.584   1.286
28392W        W  817  16.450  31.522  11.096
28393W        W  818   5.201  19.194  11.603
28394W        W  819  20.742  26.757  12.102
28395W        W  820   1.383  14.080  13.949
28396W        W  821  20.179  19.064  11.413
28397W        W  822  20.072  25.128  14.025
28398W        W  823  25.279  24.174   1.750
28399W        W  824  29.470  15.629   1.498
28400W        W  825  42.827  38.344  12.066
28401W        W  826  23.424   8.082  10.957
28402W        W  827  35.630  13.829  10.789
28403W        W  828  40.415  44.754  12.047
28404W        W  829  27.803  34.275  12.508
28405W        W  830  40.067  10.842   3.688
28406W        W  831  41.554  37.432   1.862
28407W        W  832  17.357   7.834   1.260
28408W        W  833  20.101   6.230   3.367
28409W        W  834  16.075  16.202  14.803
28410W        W  835  18.207  43.782  13.378
28411W        W  836  12.151  27.684   3.383
28412W        W  837  13.118   0.554  12.435
28413W        W  838   1.353  32.774   2.890
28414W        W  839  13.639  43.066   4.525
28415W        W  840  10.641  35.838   0.391
28416W        W  841  33.331  24.549  10.819
28417W        W  842  18.046   6.374   1.639
28418W        W  843  27.257  22.476   2.584
28419W        W  844  20.099  28.866   1.954
28420W        W  845  39.793  25.557   2.852
28421W        W  846  37.819  12.195   2.239
28422W        W  847  21.971  35.516  11.448
28423W        W  848  24.793  32.027   2.513
28424W        W  849  34.647  33.548  11.571
28425W        W  850  29.533   6.817  13.424
28426W        W  851  17.873  15.775  12.468
28427W        W  852  33.147  40.819   3.156
28428W        W  853  35.169   9.399   2.342
28429W        W  854  41.325  19.317  14.932
28430W        W  855   8.497  22.966   0.962
28431W        W  856   5.374  29.676  14.059
28432W        W  857  37.767  39.982   2.808
28433W        W  858   2.733  40.773   1.299
28434W        W  859  35.514   0.278  12.947
28435W        W  860  22.668   8.074   1.845
28436W        W  861  32.995  15.825  10.246
28437W        W  862  34.241  35.474  12.923
28438W        W  863   7.150   7.343  14.041
28439W        W  864  40.103  39.774   1.391
28440W        W  865  39.472  21.202   0.111
28441W        W  866  18.315  31.427   0.032
28442W        W  867  40.230  34.127   4.083
28443W        W  868   8.228  34.321   1.952
28444W        W  869  14.627  17.534   2.248
28445W        W  870  29.991  36.104  11.817
28446W        W  871  15.718  20.569   4.869
28447W        W  872  25.111  21.184  10.954
28448W        W  873   5.231  43.237   3.151
28449W        W  874   2.772  40.808   1.803
28450W        W  875  14.572  32.578  10.257
28451W        W  876   9.509  25.329   4.278
28452W        W  877  30.241  21.242  10.486
28453W        W  878  13.812  14.698   0.793
28454W        W  879   8.950  27.359  14.003
28455W        W  880   9.777  27.066   4.878
28456W        W  881  15.326  18.131  13.187
28457W        W  882   9.167  26.852  10.400
28458W        W  883  11.403   5.329   0.516
28459W        W  884  25.773  37.922   2.826
28460W        W  885  44.421  37.584   2.402
28461W        W  886  10.414  31.306   0.344
28462W        W  887  41.757   1.769  14.014
28463W        W  888  25.835  13.312   1.273
28464W        W  889  27.940  43.708  14.162
28465W        W  890  12.056  12.366  12.992
28466W        W  891  14.208  31.501  11.434
28467W        W  892  37.470  37.041  12.102
28468W        W  893   1.463   2.338  10.437
28469W        W  894  23.071  33.469   1.788
28470W        W  895   9.843  19.933   0.921
28471W        W  896  32.640  41.388  12.774
28472W        W  897  12.707   1.813   9.736
28473W        W  898   4.300  29.872  13.323
28474W        W  899  19.446  27.066   0.801
28475W        W  900  42.051  28.695   0.972
28476W        W  901  17.332  36.956   2.782
28477W        W  902  37.712  15.684  12.553
28478W        W  903  13.122  36.126   0.020
28479W        W  904  44.837  27.532  10.971
28480W        W  905  32.412   7.554   0.313
28481W        W  906  13.640  29.651   2.715
28482W        W  907  44.324  15.007  11.164
28483W        W  908  29.645   6.772  13.919
28484W        W  909  42.732  35.042   0.323
28485W        W  910  28.485  44.875  13.684
28486W        W  911  20.465  34.661  10.738
28487W        W  912  13.108   9.230  10.679
28488W        W  913   4.614  44.762   2.479
28489W        W  914   3.790  13.721   3.205
28490W        W  915   1.428   0.925  12.582
28491W        W  916  24.415  38.562   0.021
28492W        W  917  19.651  31.324  11.574
28493W        W  918   3.212   6.312  11.929
28494W        W  919  37.030  14.394   0.836
28495W        W  920   4.878  27.968   4.200
28496W        W  921  37.698  23.137  13.470
28497W        W  922  27.849  28.449   0.775
28498W        W  923   4.923  21.025  11.115
28499W        W  924  21.384  42.065  10.692
28500W        W  925  38.118  43.474   0.300
28501W        W  926  28.687  25.111   2.416
28502W        W  927  37.707  30.397  10.012
28503W        W  928  20.744   0.714  11.787
28504W        W  929  43.934   2.955   4.304
28505W        W  930  18.593   3.173  11.668
28506W        W  931   9.897   7.476   3.369
28507W        W  932  23.853  15.855  14.897
28508W        W  933  10.821  11.270  12.548
28509W        W  934  39.463   3.596   3.277
28510W        W  935  43.241   4.544  11.681
28511W        W  936  11.496  41.081   9.953
28512W        W  937  18.737  35.073   1.179
28513W        W  938   3.439  20.884   1.282
28514W        W  939   2.869  16.366   2.678
28515W        W  940   5.723  29.849  12.424
28516W        W  941  38.330   5.436   0.930
28517W        W  942   5.982  29.117   0.866
28518W        W  943  33.569  44.916  11.180
28519W        W  944  36.069  10.902   1.875
28520W        W  945   9.222  25.449   3.842
28521W        W  946  19.220  24.800  11.945
28522W        W  947  43.641  44.921  14.408
28523W        W  948  39.417  42.083   4.284
28524W        W  949  13.843  40.939  11.172
28525W        W  950  26.605   8.697  12.272
28526W        W  951   2.165  20.581   4.719
28527W        W  952   8.442  23.241   4.041
28528W        W  953   5.826  17.194   1.334
28529W        W  954  40.233  32.948   3.593
28530W        W  955  17.093  23.626   3.713
28531W        W  956  42.300  32.967   4.335
28532W        W  957  30.283  31.000   0.755
28533W        W  958  41.018   6.479   2.699
28534W        W  959   0.314  36.136  12.716
28535W        W  960   3.879   2.513  14.813
28536W        W  961  19.839  38.456  11.757
28537W        W  962  25.078   5.458   4.533
28538W        W  963  30.329  14.675  14.417
28539W        W  964  38.040  18.801   4.186
28540W        W  965  38.684  43.591   0.267
28541W        W  966   0.426   4.064   3.718
28542W        W  967  44.024   4.327  11.930
28543W        W  968   5.878  36.512  11.532
28544W        W  969  25.244  24.014   4.536
28545W        W  970  41.384  23.928   2.657
28546W        W  971  12.864  31.465   0.030
28547W        W  972  20.300  30.535   4.273
28548W        W  973  18.291  12.153   3.408
28549W        W  974  12.648  14.651  10.794
28550W        W  975  37.776  12.660  13.937
28551W        W  976   2.176  16.226  13.969
28552W        W  977  39.386  32.078   2.219
28553W        W  978  39.504   8.905  14.719
28554W        W  979  22.165  12.921   3.635
28555W        W  980  20.848  37.778  12.541
28556W        W  981  14.262  14.649   0.299
28557W        W  982  10.428   7.869  12.800
28558W        W  983  17.939  33.612   0.801
28559W        W  984  16.961   8.901  11.675
28560W        W  985  17.495  31.596  13.333
28561W        W  986  11.343  17.659   2.887
28562W        W  987  32.624  20.365  13.703
28563W        W  988   4.256   4.360  13.685
28564W        W  989  25.488  36.417  14.847
28565W        W  990  28.709  23.840  10.893
28566W        W  991  18.569  32.067   1.695
28567W        W  992  17.305  18.458   3.189
28568W        W  993  25.619  41.128  10.714
28569W        W  994  15.553  28.128   3.063
28570W        W  995   8.246  27.380   3.723
28571W        W  996  19.311  27.325  13.018
28572W        W  997   5.980  15.053  14.896
28573W        W  998  19.816  17.059  11.872
28574W        W  999  11.931   4.423  14.030
28575W        W 1000   4.532  24.001  11.975
28576W        W 1001   4.924   5.722   1.644
28577W        W 1002   7.035  17.757   4.983
28578W        W 1003  13.825  35.921  10.674
28579W        W 1004   0.485  31.959   0.160
28580W        W 1005   0.236  43.256  14.811
28581W        W 1006  25.949  13.460  11.799
28582W        W 1007  18.092  12.764   4.523
28583W        W 1008  42.807  26.578  14.561
28584W        W 1009  40.261   6.222  11.059
28585W        W 1010  12.203   0.944  13.285
28586W        W 1011  18.871  37.500   3.195
28587W        W 1012  41.306  13.964   1.758
28588W        W 1013  29.580  23.208   0.361
28589W        W 1014  10.298  10.914  13.432
28590W        W 1015   2.177  44.277  14.740
28591W        W 1016  35.423   8.391   2.206
28592W        W 1017  37.857  26.494  11.449
28593W        W 1018   2.415   1.800  12.436
28594W        W 1019  21.715   6.915  13.841
28595W        W 1020  18.123   4.364   2.183
28596W        W 1021  36.396  40.634  10.090
28597W        W 1022  10.067  20.513   3.727
28598W        W 1023  23.985  39.234   3.634
28599W        W 1024  27.501  33.430  11.123
28600W        W 1025  18.601  34.027   2.491
28601W        W 1026  27.931  28.473  12.050
28602W        W 1027  37.097  12.287  12.826
28603W        W 1028   6.579   2.348   0.949
28604W        W 1029  23.879  31.460  11.834
28605W        W 1030  13.680  11.929   2.709
28606W        W 1031  21.243  25.125   2.278
28607W        W 1032   7.308   6.904  13.808
28608W        W 1033  29.445  28.279  10.604
28609W        W 1034  43.922  16.108   1.683
28610W        W 1035  13.655  10.703   3.185
28611W        W 1036  23.114  24.643  11.238
28612W        W 1037  35.406   1.590  13.040
28613W        W 1038  33.050  16.987  10.705
28614W        W 1039  43.852  32.828  14.231
28615W        W 1040  26.447  23.639  14.679
28616W        W 1041  31.883  27.711   3.799
28617W        W 1042  35.662  24.039   0.935
28618W        W 1043  10.510  26.182   2.832
28619W        W 1044  12.343  37.964  11.694
28620W        W 1045   5.302  12.723  11.192
28621W        W 1046  21.823  17.559   2.245
28622W        W 1047  12.079   2.948  10.643
28623W        W 1048  17.037  23.074  10.998
28624W        W 1049   9.123  26.121   2.486
28625W        W 1050  25.061  23.065   2.528
28626W        W 1051  41.367  12.629  12.033
28627W        W 1052  38.610  15.728   0.464
28628W        W 1053   1.560  29.384  11.185
28629W        W 1054   7.979  27.102  11.679
28630W        W 1055  12.407  40.851  11.077
28631W        W 1056   3.906   3.607  12.385
28632W        W 1057  36.125  27.152  14.069
28633W        W 1058   3.352  13.039   0.789
28634W        W 1059  41.804  11.348   3.303
28635W        W 1060  36.544  27.983   1.406
28636W        W 1061   3.518   2.830   0.988
28637W        W 1062   9.884  38.804  11.114
28638W        W 1063  38.775  28.430   1.450
28639W        W 1064  18.736  44.449   3.692
28640W        W 1065   7.220   8.032  14.858
28641W        W 1066  37.051   6.285   5.071
28642W        W 1067  39.348  17.828   4.580
28643W        W 1068  27.108  14.683   4.797
28644W        W 1069  34.509  33.624  12.122
28645W        W 1070  40.496  42.236  11.627
28646W        W 1071  28.030   2.399   4.958
28647W        W 1072   2.691  36.002  14.612
28648W        W 1073  36.878   6.374   0.283
28649W        W 1074  13.141  15.101   3.741
28650W        W 1075   9.550  30.743   2.253
28651W        W 1076   9.977  27.038   1.985
28652W        W 1077   9.127  21.648  11.982
28653W        W 1078  22.545   5.317   1.616
28654W        W 1079  20.189  36.398  13.866
28655W        W 1080   8.660  43.903  11.912
28656W        W 1081  28.258  16.199   1.309
28657W        W 1082   0.987  24.010   3.430
28658W        W 1083  26.530  36.559   1.619
28659W        W 1084  15.137  37.782  13.473
28660W        W 1085  41.981  21.281  10.250
28661W        W 1086   8.360  19.292   3.170
28662W        W 1087  36.326   7.856   2.168
28663W        W 1088  33.295   9.111   0.049
28664W        W 1089   2.092  19.328   4.214
28665W        W 1090   4.789  16.781   1.328
28666W        W 1091  44.791  36.003  12.292
28667W        W 1092  43.438  21.639   5.155
28668W        W 1093  18.114   6.500  12.669
28669W        W 1094  19.071  32.739   1.176
28670W        W 1095  42.360  13.953  13.558
28671W        W 1096  26.750  22.503   2.761
28672W        W 1097  21.052  13.831   3.146
28673W        W 1098   6.533   3.670  12.406
28674W        W 1099  17.650   7.944   4.131
28675W        W 1100  16.739  37.048  12.976
28676W        W 1101  36.601  37.790   0.005
28677W        W 1102  32.964   9.547  11.658
28678W        W 1103   3.268  24.886  14.323
28679W        W 1104  10.710   9.843  10.720
28680W        W 1105  12.321  39.352   0.840
28681W        W 1106  11.316  31.947   1.183
28682W        W 1107  13.589  26.111   2.383
28683W        W 1108  37.358   7.625   2.992
28684W        W 1109  19.340  31.234  12.121
28685W        W 1110   2.897  11.939  12.883
28686W        W 1111  22.305  20.519   0.830
28687W        W 1112  11.838  16.118   3.424
28688W        W 1113  36.333  24.696   0.777
28689W        W 1114  32.086  42.354   1.375
28690W        W 1115   1.936  32.892  14.479
28691W        W 1116  22.539  22.153   0.270
28692W        W 1117  42.271   4.981   4.104
28693W        W 1118   5.751  10.834   1.004
28694W        W 1119   7.637  36.943   1.385
28695W        W 1120   0.283  37.471  13.754
28696W        W 1121  30.886  41.442   1.772
28697W        W 1122   0.964  34.925  11.663
28698W        W 1123  14.189  16.542   3.621
28699W        W 1124  27.915  38.965   1.738
28700W        W 1125  33.867  42.503  11.249
28701W        W 1126  18.251  30.976  13.143
28702W        W 1127  33.876  29.915   3.684
28703W        W 1128  35.161   8.145  13.444
28704W        W 1129  18.280  44.620  14.493
28705W        W 1130  21.687   0.490  14.462
28706W        W 1131  31.486   0.440  11.326
28707W        W 1132  10.865  38.756   3.093
28708W        W 1133  22.897  22.134   4.822
28709W        W 1134   2.268  39.079  11.942
28710W        W 1135   5.670  36.859   1.773
28711W        W 1136   0.461  31.546  12.342
28712W        W 1137  34.878  13.636  13.333
28713W        W 1138  18.087   7.797   0.496
28714W        W 1139  28.164  28.697  11.633
28715W        W 1140  30.905  14.471   1.304
28716W        W 1141  30.010  35.961   0.264
28717W        W 1142  10.337  38.790   0.216
28718W        W 1143  24.089  44.031   0.934
28719W        W 1144  26.469  40.723  12.070
28720W        W 1145  23.266  24.139  11.480
28721W        W 1146   7.338   7.218   0.331
28722W        W 1147  44.093  25.653   3.469
28723W        W 1148  36.818  31.648  10.404
28724W        W 1149   6.676  15.316  11.638
28725W        W 1150   0.759  16.596   0.694
28726W        W 1151  23.766  14.305   2.695
28727W        W 1152  43.252  17.961   3.616
28728W        W 1153   7.727  39.829  11.474
28729W        W 1154  35.734  25.087   0.023
28730W        W 1155  25.854  35.317   3.164
28731W        W 1156  11.058  30.200   2.391
28732W        W 1157  24.178  34.851  10.587
28733W        W 1158  42.749  34.963  12.956
28734W        W 1159  11.640  16.600   1.910
28735W        W 1160   5.710  40.548   4.006
28736W        W 1161  13.883   7.915  12.859
28737W        W 1162  18.201  36.564   0.868
28738W        W 1163   2.969  39.514  14.304
28739W        W 1164   1.501  16.544   0.851
28740W        W 1165  13.195  26.677  13.475
28741W        W 1166  18.569  38.521   1.782
28742W        W 1167  44.352  26.526   2.604
28743W        W 1168  38.948  33.589   4.497
28744W        W 1169  29.413  40.051  10.603
28745W        W 1170  37.841  14.224   3.689
28746W        W 1171   6.832   3.931   4.623
28747W        W 1172  40.752  18.543  14.517
28748W        W 1173  10.823  22.017   1.728
28749W        W 1174   8.840  34.067  10.940
28750W        W 1175  33.304  39.063   0.788
28751W        W 1176  38.445  27.148  13.874
28752W        W 1177   7.542  40.478  12.008
28753W        W 1178  24.537  41.074   1.653
28754W        W 1179  42.431  11.216   1.979
28755W        W 1180  12.256  43.983  12.575
28756W        W 1181  44.247  34.163  11.052
28757W        W 1182  43.542  41.299   4.101
28758W        W 1183  39.386  40.305  11.552
28759W        W 1184  31.456  30.038   0.726
28760W        W 1185  10.678   7.080  13.629
28761W        W 1186   4.639   2.446  11.919
28762W        W 1187  33.851  40.388  12.479
28763W        W 1188  22.185  26.955  10.313
28764W        W 1189  30.272  29.564   2.699
28765W        W 1190  39.016  19.109   2.354
28766W        W 1191  16.145  28.618  12.356
28767W        W 1192  40.199  14.657   1.510
28768W        W 1193  30.451  24.990  12.030
28769W        W 1194  22.574   8.792  13.551
28770W        W 1195  26.645  34.882   3.272
28771W        W 1196  34.950   8.418  14.871
28772W        W 1197  20.083  18.517   1.629
28773W        W 1198  29.815  32.806   2.780
28774W        W 1199  23.886  30.948  12.018
28775W        W 1200  20.676  40.116   4.668
28776W        W 1201  41.344  27.240  11.071
28777W        W 1202  32.124  25.524  12.078
28778W        W 1203  21.255  29.578   4.150
28779W        W 1204   1.344   5.960  13.705
28780W        W 1205  31.101  11.292  14.860
28781W        W 1206  39.437   1.250   0.292
28782W        W 1207  27.290   2.852   2.391
28783W        W 1208  33.694  34.504   4.692
28784W        W 1209  29.191  33.565   3.996
28785W        W 1210  28.542  22.830  11.075
28786W        W 1211  33.947  28.513  11.564
28787W        W 1212  23.018  37.834   1.350
28788W        W 1213  40.588  24.174   1.877
28789W        W 1214  33.268   0.401   3.849
28790W        W 1215  24.943  25.496  14.762
28791W        W 1216  22.456  11.216  14.819
28792W        W 1217  13.819  17.292   4.793
28793W        W 1218  27.824   2.365   3.248
28794W        W 1219  41.920  41.519  13.792
28795W        W 1220  19.190  25.065   4.704
28796W        W 1221  22.662  42.344   2.464
28797W        W 1222  25.379  39.592   2.694
28798W        W 1223   6.229  31.948  13.468
28799W        W 1224  24.378  44.542   2.303
28800W        W 1225  23.460   5.297  11.533
28801W        W 1226  44.462  17.017   0.406
28802W        W 1227  21.994  13.393   3.737
28803W        W 1228  11.738  42.653   3.390
28804W        W 1229   4.855  16.019  14.044
28805W        W 1230  41.818  14.253  13.632
28806W        W 1231  19.452  14.804  14.717
28807W        W 1232  26.522  34.170   4.271
28808W        W 1233   5.275   6.010   3.829
28809W        W 1234   7.651   5.077   2.199
28810W        W 1235  41.795  43.374  13.530
28811W        W 1236  17.001   1.551   1.486
28812W        W 1237  16.879   4.246   0.365
28813W        W 1238  27.671   6.365   1.650
28814W        W 1239   5.116   3.683   0.161
28815W        W 1240   3.677  33.359  14.747
28816W        W 1241  31.187   9.449   2.374
28817W        W 1242  30.895  39.357   3.658
28818W        W 1243   0.711  23.258  14.323
28819W        W 1244   4.091   0.331   4.279
28820W        W 1245   0.348  31.454  10.916
28821W        W 1246  17.291   6.295  11.579
28822W        W 1247  43.938  35.859  10.800
28823W        W 1248  27.524  22.862   2.816
28824W        W 1249  22.979   7.955  14.325
28825W        W 1250  43.495  15.516  10.865
28826W        W 1251  32.335  35.418   0.300
28827W        W 1252   9.663  43.593  10.682
28828W        W 1253   7.325  43.744  12.534
28829W        W 1254  33.441   4.466   0.601
28830W        W 1255  35.182  17.870   3.976
28831W        W 1256  27.557  17.989   0.320
28832W        W 1257  10.161  39.100  14.741
28833W        W 1258  21.555   5.081  13.417
28834W        W 1259  10.608  28.369  14.919
28835W        W 1260  37.004  33.823  14.519
28836W        W 1261  34.888   3.202   3.203
28837W        W 1262  36.745   7.457  11.483
28838W        W 1263  24.609  20.887   4.467
28839W        W 1264  21.824   7.719   1.898
28840W        W 1265  16.332   9.788  13.845
28841W        W 1266  38.599  20.222  11.455
28842W        W 1267  18.173  23.802  13.868
28843W        W 1268  19.283  43.386   0.741
28844W        W 1269  42.517  42.507  14.448
28845W        W 1270  12.272  39.754  12.995
28846W        W 1271  23.657   3.886  11.294
28847W        W 1272   8.396  21.606  14.852
28848W        W 1273  21.528  42.094  14.884
28849W        W 1274  37.655  34.877   3.097
28850W        W 1275   1.077  18.042  12.759
28851W        W 1276  17.848  41.378   2.745
28852W        W 1277  16.059  11.073  10.660
28853W        W 1278  37.368  12.503  10.837
28854W        W 1279  44.486   0.607  12.340
28855W        W 1280  16.327  15.267   4.590
28856W        W 1281  31.879  36.882  13.397
28857W        W 1282  31.413  24.228  10.009
28858W        W 1283  36.935  19.674  12.108
28859W        W 1284  28.490  15.053  11.020
28860W        W 1285  40.456  32.534   3.917
28861W        W 1286   2.784  18.647  10.729
28862W        W 1287  22.605  38.632  10.969
28863W        W 1288  27.251  23.992  13.372
28864W        W 1289  35.566  13.771   0.534
28865W        W 1290   3.363  25.211   2.243
28866W        W 1291  10.600  24.285  14.944
28867W        W 1292  42.678  31.506  10.705
28868W        W 1293   6.868  16.823  13.724
28869W        W 1294  20.842  13.543   4.200
28870W        W 1295  38.233   2.758   0.023
28871W        W 1296  18.335  25.188  10.671
28872W        W 1297  16.358  19.987   3.705
28873W        W 1298   6.745  17.755  13.799
28874W        W 1299   3.229  27.443  12.015
28875W        W 1300  18.111  13.616   2.358
28876W        W 1301  17.803   1.975  11.587
28877W        W 1302  12.882  23.459   1.869
28878W        W 1303   5.951   4.630  11.983
28879W        W 1304  21.264  33.379   1.268
28880W        W 1305  27.442  38.023  12.368
28881W        W 1306   9.636  12.600   3.207
28882W        W 1307   7.675  19.706   1.250
28883W        W 1308   6.447   1.612   2.563
28884W        W 1309   9.912  42.365  13.913
28885W        W 1310   1.460   2.450   2.509
28886W        W 1311  30.129  16.698   2.241
28887W        W 1312   7.270  31.013   0.829
28888W        W 1313  22.237  36.921  12.633
28889W        W 1314  43.335  18.974   4.911
28890W        W 1315   0.247  15.411   3.200
28891W        W 1316  15.422  43.755  10.641
28892W        W 1317  38.599  22.382   3.259
28893W        W 1318   3.302  18.948  13.833
28894W        W 1319   7.851  38.218   4.765
28895W        W 1320  29.125  40.016   4.883
28896W        W 1321  44.881  15.329   4.471
28897W        W 1322  41.457   2.736   4.261
28898W        W 1323  33.232  17.754   3.263
28899W        W 1324  17.996   4.435  11.555
28900W        W 1325  31.994  11.660  11.901
28901W        W 1326  33.678  16.291  14.369
28902W        W 1327  28.614   5.887  12.484
28903W        W 1328  31.524  42.719   2.862
28904W        W 1329   4.427  32.295  10.197
28905W        W 1330  34.820   6.886  11.966
28906W        W 1331  33.522   8.226  14.411
28907W        W 1332  26.542   7.287  13.490
28908W        W 1333  26.673  19.466  11.545
28909W        W 1334  35.769  16.086   0.419
28910W        W 1335  44.085   5.006   2.660
28911W        W 1336  24.597  43.894   3.985
28912W        W 1337  38.088  29.010   4.196
28913W        W 1338  30.044  43.854   3.688
28914W        W 1339  30.049  38.241   5.465
28915W        W 1340  39.364  41.273   4.616
28916W        W 1341   2.389   2.474  13.236
28917W        W 1342   1.228  34.485   2.333
28918W        W 1343   6.802  13.325   2.691
28919W        W 1344  16.025  17.330  14.431
28920W        W 1345  15.656  43.303   3.068
28921W        W 1346  17.024  15.505   1.915
28922W        W 1347  24.599  10.075  12.896
28923W        W 1348  14.737  33.062  14.846
28924W        W 1349   9.249  43.263  10.623
28925W        W 1350   0.317  39.887   3.137
28926W        W 1351   6.717  11.365  13.998
28927W        W 1352  28.857   2.648   1.714
28928W        W 1353  29.689  42.703  14.842
28929W        W 1354  30.661  15.668   0.069
28930W        W 1355  40.253  36.302  13.841
28931W        W 1356  22.009  42.830  12.007
28932W        W 1357  40.372  22.792   0.844
28933W        W 1358   5.367  14.199  13.574
28934W        W 1359  12.914  15.250   2.265
28935W        W 1360   3.692  41.557  12.427
28936W        W 1361  29.492  33.047   0.575
28937W        W 1362  14.991  17.375  14.426
28938W        W 1363  18.913  21.264  13.368
28939W        W 1364   5.873   9.949  14.276
28940W        W 1365  44.301  34.631  13.926
28941W        W 1366  24.744  26.359  12.510
28942W        W 1367   7.688   9.191   4.276
28943W        W 1368  11.044  38.135   2.572
28944W        W 1369  44.098  31.130  12.019
28945W        W 1370  34.839  36.748  12.992
28946W        W 1371  18.554  17.823   4.832
28947W        W 1372  43.806  15.095  13.271
28948W        W 1373   2.749  23.436   1.012
28949W        W 1374  31.453  28.163   4.612
28950W        W 1375  38.120  25.510  14.288
28951W        W 1376  41.408  38.268   3.449
28952W        W 1377   3.193  26.834  13.474
28953W        W 1378  10.390  17.297   1.322
28954W        W 1379  34.421   1.051  11.655
28955W        W 1380  14.949  38.079  14.950
28956W        W 1381  18.490  32.942  11.951
28957W        W 1382  19.220  18.931   3.272
28958W        W 1383  15.746  17.327   2.738
28959W        W 1384   0.696  19.157   4.159
28960W        W 1385  43.859  28.165   2.740
28961W        W 1386  26.116  39.281  10.658
28962W        W 1387  22.911   0.877  12.503
28963W        W 1388  27.959  31.973   4.638
28964W        W 1389  44.692  43.228  11.276
28965W        W 1390  44.801  16.263   3.941
28966W        W 1391   9.255  32.408   3.360
28967W        W 1392  14.672   4.273   0.281
28968W        W 1393  24.310  30.729  12.825
28969W        W 1394  26.096  39.482  12.968
28970W        W 1395  28.124  28.912   3.673
28971W        W 1396  39.540  20.175   0.006
28972W        W 1397  33.158   1.840  14.112
28973W        W 1398   1.886  13.006   4.576
28974W        W 1399  37.590  15.209  10.426
28975W        W 1400  36.576  11.500   3.987
28976W        W 1401   5.623  23.621   4.580
28977W        W 1402  28.064  38.397  11.148
28978W        W 1403  19.694  32.173  12.074
28979W        W 1404  42.010  38.899   1.897
28980W        W 1405  19.783  23.651  10.674
28981W        W 1406   2.660  33.112   3.312
28982W        W 1407  14.655   7.108  12.029
28983W        W 1408  35.616  42.528  10.778
28984W        W 1409   8.406   9.752  14.921
28985W        W 1410  16.129   7.244  12.578
28986W        W 1411  31.360  12.687   0.858
28987W        W 1412   4.847  10.138   4.054
28988W        W 1413   0.963  19.216  14.913
28989W        W 1414  40.340  42.237   2.651
28990W        W 1415   2.854  14.932  10.822
28991W        W 1416  37.105   4.359   4.595
28992W        W 1417  21.992   5.183   0.224
28993W        W 1418  42.569  36.617   4.410
28994W        W 1419  11.051  28.939  12.703
28995W        W 1420   5.164  17.527   3.251
28996W        W 1421  15.878  29.119  11.154
28997W        W 1422  32.629  43.904  14.073
28998W        W 1423  39.614  44.827  10.573
28999W        W 1424   3.824  37.608  12.938
29000W        W 1425  41.387  12.812  11.542
29001W        W 1426  32.955   6.111  10.619
29002W        W 1427  29.101   1.826   0.417
29003W        W 1428  39.482  32.134   3.152
29004W        W 1429   1.942  27.262   0.157
29005W        W 1430  13.751  39.671   1.881
29006W        W 1431   9.690  41.752   2.456
29007W        W 1432  30.423   0.387  13.411
29008W        W 1433  15.647  27.856  11.705
29009W        W 1434  39.499  20.254   2.754
29010W        W 1435   9.539  13.631  14.237
29011W        W 1436  29.835  15.433  11.247
29012W        W 1437  34.501  40.728  12.508
29013W        W 1438  39.448  16.093  12.046
29014W        W 1439  30.519  11.625   2.683
29015W        W 1440  22.534  19.080   3.624
29016W        W 1441  36.044  21.908  14.968
29017W        W 1442   8.616  35.866   0.659
29018W        W 1443  36.798  21.481   0.532
29019W        W 1444  42.379  44.890  10.957
29020W        W 1445   3.714  24.067   0.294
29021W        W 1446  42.353  19.682  11.708
29022W        W 1447  18.018  24.535  12.462
29023W        W 1448   5.900  12.630   0.319
29024W        W 1449  33.053  34.966  10.948
29025W        W 1450   0.773  12.128   3.920
29026W        W 1451  24.264   3.916   0.453
29027W        W 1452  36.127   4.131   1.386
29028W        W 1453  14.845  43.358   3.689
29029W        W 1454  21.462  28.418  11.534
29030W        W 1455  19.255  44.718  12.123
29031W        W 1456  23.669  21.280   1.093
29032W        W 1457   3.396  27.702   4.254
29033W        W 1458  42.465   7.881  14.072
29034W        W 1459  28.081  11.687   0.250
29035W        W 1460   8.622  16.046   0.851
29036W        W 1461  33.906  20.455  12.440
29037W        W 1462  33.289   8.439  10.992
29038W        W 1463  33.332  30.528  13.875
29039W        W 1464  33.379  19.188  13.143
29040W        W 1465  42.062   4.714   3.686
29041W        W 1466   9.130  14.337  13.873
29042W        W 1467  33.844  37.758  11.976
29043W        W 1468  36.040   3.483   5.018
29044W        W 1469  12.214  22.217   2.666
29045W        W 1470  20.519  41.961   1.929
29046W        W 1471   1.959  43.512   3.163
29047W        W 1472  44.214  41.891  10.927
29048W        W 1473  21.717   3.286  14.995
29049W        W 1474   8.161  44.478  12.563
29050W        W 1475  35.820   1.742   2.626
29051W        W 1476   2.800  23.882   0.015
29052W        W 1477   0.231  22.186   3.850
29053W        W 1478  15.446  44.869  13.493
29054W        W 1479  34.019   5.444   3.726
29055W        W 1480  16.778  32.760  13.508
29056W        W 1481   2.329  42.282  11.975
29057W        W 1482  37.591  39.469   0.356
29058W        W 1483  23.164  14.237  11.511
29059W        W 1484  32.872  20.838  12.019
29060W        W 1485  38.814  32.573  13.948
29061W        W 1486  38.038  40.467  12.090
29062W        W 1487   9.658  25.522   3.567
29063W        W 1488  17.733  16.738  12.947
29064W        W 1489  20.063  13.704  12.466
29065W        W 1490  29.908   8.274  14.460
29066W        W 1491   2.650  44.463  14.411
29067W        W 1492   2.137  13.215   4.163
29068W        W 1493  44.025  19.296   2.319
29069W        W 1494  26.983  37.415   1.758
29070W        W 1495   3.338  19.289   1.813
29071W        W 1496  11.835   6.252   2.198
29072W        W 1497  11.705  16.017  12.898
29073W        W 1498   6.447  40.871   1.353
29074W        W 1499  41.385  15.352  14.960
29075W        W 1500  17.768  36.883   4.624
29076W        W 1501  38.550  37.972  14.736
29077W        W 1502  37.568  23.155   3.699
29078W        W 1503  27.023  20.224   0.543
29079W        W 1504  10.261  21.201  13.039
29080W        W 1505  44.274   3.402   1.314
29081W        W 1506  19.981  33.557  10.901
29082W        W 1507  44.732  21.325   5.124
29083W        W 1508  41.997  42.804   1.738
29084W        W 1509  31.749  34.378   0.821
29085W        W 1510  14.040  41.766   4.318
29086W        W 1511   6.166  14.183  12.118
29087W        W 1512   7.864   9.378   0.729
29088W        W 1513   6.713   6.502  13.230
29089W        W 1514  38.908  36.016  12.119
29090W        W 1515  21.655  39.563  12.569
29091W        W 1516  40.549  40.254  11.584
29092W        W 1517  26.647   5.250   0.862
29093W        W 1518   7.680  11.230  12.918
29094W        W 1519  19.651  26.433  13.513
29095W        W 1520  21.133   6.864  11.863
29096W        W 1521  33.940  37.108   2.588
29097W        W 1522  31.922  39.810   1.436
29098W        W 1523  27.440  28.386  11.907
29099W        W 1524  23.139  41.531   2.163
29100W        W 1525  20.333  37.382  14.017
29101W        W 1526  35.547  36.771   0.847
29102W        W 1527   5.190  35.942   9.999
29103W        W 1528  37.543  38.325   1.405
29104W        W 1529  13.228  40.472  10.742
29105W        W 1530  28.944  24.787  10.434
29106W        W 1531   1.235  26.191   3.660
29107W        W 1532  37.017  32.071   0.373
29108W        W 1533  12.138  41.019  14.903
29109W        W 1534  22.826   0.409  13.249
29110W        W 1535  21.608  24.695  14.599
29111W        W 1536  21.185  23.553   2.928
29112W        W 1537   7.441   4.778   0.444
29113W        W 1538   5.266  11.698   1.023
29114W        W 1539  27.456  32.226   4.225
29115W        W 1540  38.983  39.863  13.619
29116W        W 1541   3.541  21.249   4.191
29117W        W 1542  17.144  20.480  12.875
29118W        W 1543  22.123   8.463   2.248
29119W        W 1544   6.409  24.229   4.610
29120W        W 1545  21.627  10.700   1.223
29121W        W 1546  40.539  21.905   3.751
29122W        W 1547  42.360  39.413   0.812
29123W        W 1548  12.762  17.013   3.733
29124W        W 1549  25.495  27.660  12.799
29125W        W 1550  38.859  37.066  11.413
29126W        W 1551  34.625  33.765   3.053
29127W        W 1552   6.907  43.913   2.634
29128W        W 1553   2.705  11.419   0.261
29129W        W 1554  23.020   8.430   1.783
29130W        W 1555  44.094   1.949  12.597
29131W        W 1556  11.842  23.829   2.544
29132W        W 1557  24.575  39.973   3.650
29133W        W 1558   8.535  18.828  12.170
29134W        W 1559  40.993  36.861  13.506
29135W        W 1560  44.369  20.127  11.059
29136W        W 1561  19.613   2.648   3.830
29137W        W 1562   8.468  14.565   3.720
29138W        W 1563  15.163  20.689  10.729
29139W        W 1564  13.095   7.458   4.627
29140W        W 1565  40.849  41.491   2.704
29141W        W 1566  31.834  20.271   1.329
29142W        W 1567  16.739  25.580   0.390
29143W        W 1568  33.429  24.592  12.841
29144W        W 1569  42.868  10.470  13.246
29145W        W 1570  25.108  35.240  14.781
29146W        W 1571   6.488  34.060   0.959
29147W        W 1572   2.768  14.240  13.471
29148W        W 1573   8.230  17.278  14.636
29149W        W 1574  31.845  44.375  13.966
29150W        W 1575   3.588  10.756   0.680
29151W        W 1576  34.972  39.493   3.918
29152W        W 1577  30.216  44.502   1.854
29153W        W 1578   7.652  33.912   2.804
29154W        W 1579  22.030  34.834   3.286
29155W        W 1580  31.609  12.719  14.118
29156W        W 1581  40.530  15.123   4.574
29157W        W 1582   7.683  18.185  10.741
29158W        W 1583  31.850  19.192   2.443
29159W        W 1584  43.986  24.820  12.507
29160W        W 1585   8.980  20.152   1.315
29161W        W 1586   9.900  24.124  12.102
29162W        W 1587  41.663  15.838   2.397
29163W        W 1588  30.880   8.739   1.352
29164W        W 1589  21.763  19.178  10.562
29165W        W 1590  40.427  19.384  11.671
29166W        W 1591   6.195  27.718  13.812
29167W        W 1592  30.499  14.239   2.631
29168W        W 1593  19.417  28.613   4.610
29169W        W 1594  17.101  10.288  10.932
29170W        W 1595   9.112  37.897   2.689
29171W        W 1596   0.726  38.177   1.467
29172W        W 1597  23.216  16.195  14.246
29173W        W 1598  35.019   8.737  11.619
29174W        W 1599   9.734  25.734   4.502
29175W        W 1600  31.610  13.373   0.227
29176W        W 1601  34.844   4.385  12.347
29177W        W 1602   0.984  35.135   2.633
29178W        W 1603   0.259  11.228  13.037
29179W        W 1604  39.339  23.273  10.940
29180W        W 1605  24.165  12.003   5.075
29181W        W 1606  34.325   2.522  14.381
29182W        W 1607  18.208  42.888  12.913
29183W        W 1608   2.301  18.499  12.530
29184W        W 1609  37.956   9.471   4.562
29185W        W 1610  12.799   8.822  14.818
29186W        W 1611  24.157   3.251   4.549
29187W        W 1612  21.181   0.257  13.593
29188W        W 1613  17.754  13.589   2.783
29189W        W 1614  43.086   8.678  13.859
29190W        W 1615   1.771   4.030   0.235
29191W        W 1616  37.065  21.625   2.264
29192W        W 1617  39.959  18.809   1.372
29193W        W 1618  35.038   0.240  14.763
29194W        W 1619  37.592  14.476  11.132
29195W        W 1620  15.388  38.866   3.392
29196W        W 1621  21.572  26.963   3.204
29197W        W 1622  15.215  24.165  10.632
29198W        W 1623  43.298  41.352  11.040
29199W        W 1624  26.159  32.631   9.970
29200W        W 1625  26.561  15.248  13.590
29201W        W 1626  28.044  36.916  12.968
29202W        W 1627  32.175   5.468   4.971
29203W        W 1628   5.910  35.073   3.723
29204W        W 1629  30.064  11.689   0.775
29205W        W 1630  15.870  33.438  11.119
29206W        W 1631   3.683   9.299  13.487
29207W        W 1632  27.042  12.691   0.860
29208W        W 1633  30.044  37.923   1.392
29209W        W 1634   1.257  38.373  11.128
29210W        W 1635  11.336  10.848   3.577
29211W        W 1636  44.450  34.848   2.334
29212W        W 1637  23.843  32.233  10.123
29213W        W 1638  32.090  43.208   3.170
29214W        W 1639   4.057  31.904  12.499
29215W        W 1640  31.317  31.121   0.390
29216W        W 1641   2.904   4.346   4.188
29217W        W 1642  30.818   4.855  12.404
29218W        W 1643  40.485  25.588  11.424
29219W        W 1644   9.337  37.151  12.907
29220W        W 1645  39.832  11.323  13.296
29221W        W 1646  16.248  30.681  14.715
29222W        W 1647  39.545  31.616  12.994
29223W        W 1648  29.990   0.397  14.363
29224W        W 1649  16.653   6.409  14.106
29225W        W 1650  33.271  42.712   0.812
29226W        W 1651  11.390  22.705   3.244
29227W        W 1652   2.735   3.847  11.120
29228W        W 1653  33.124  22.648   3.749
29229W        W 1654   4.562  17.876   1.727
29230W        W 1655   0.854  25.383  13.685
29231W        W 1656  34.410  13.724  10.917
29232W        W 1657  17.631  21.497   4.132
29233W        W 1658  12.322  22.968  14.748
29234W        W 1659   9.015  35.099  11.626
29235W        W 1660  18.463  39.579  14.962
29236W        W 1661  24.215  33.526   2.757
29237W        W 1662  36.826  10.362  13.328
29238W        W 1663  18.622   7.105  13.151
29239W        W 1664  41.445  29.188   0.453
29240W        W 1665  41.379  19.320  13.607
29241W        W 1666  15.198  13.263   4.192
29242W        W 1667  39.470  14.375  14.017
29243W        W 1668  26.186  33.410  14.513
29244W        W 1669  39.288  41.485  11.007
29245W        W 1670  43.028  27.723   2.753
29246W        W 1671   0.880  39.511  12.395
29247W        W 1672  21.183  38.327  11.690
29248W        W 1673   2.397  27.544   1.930
29249W        W 1674  41.763   0.302   2.127
29250W        W 1675  13.661  34.690  13.503
29251W        W 1676  18.812   3.250  12.131
29252W        W 1677  44.217  15.823  11.451
29253W        W 1678   8.997  25.217   4.232
29254W        W 1679  17.671  24.526  11.600
29255W        W 1680  40.090  27.731  10.615
29256W        W 1681  40.346   8.084   2.752
29257W        W 1682  36.759   6.542   3.629
29258W        W 1683  39.500  24.176   0.303
29259W        W 1684  38.208   0.997  12.408
29260W        W 1685  18.737   6.691   0.807
29261W        W 1686   2.679  19.748  12.794
29262W        W 1687  11.758  28.656  12.901
29263W        W 1688  23.140  25.432   2.371
29264W        W 1689  33.503   4.368   1.719
29265W        W 1690  23.232  33.173   1.343
29266W        W 1691  43.180  27.911  12.128
29267W        W 1692  18.677   8.108   2.446
29268W        W 1693  39.053  22.345   1.709
29269W        W 1694  37.748  14.783  10.710
29270W        W 1695   3.845  41.868   4.229
29271W        W 1696  27.181  24.691  11.381
29272W        W 1697  39.303   9.381  13.052
29273W        W 1698  35.328   7.957  11.223
29274W        W 1699  27.072   9.799   4.125
29275W        W 1700  32.177  41.686   3.283
29276W        W 1701   6.400  41.789   2.427
29277W        W 1702   2.964  40.040  12.427
29278W        W 1703  11.347  41.525  14.767
29279W        W 1704  41.297   5.278   2.778
29280W        W 1705  19.797  38.044  11.416
29281W        W 1706  36.708   9.269   1.258
29282W        W 1707   7.843  12.721  10.749
29283W        W 1708   4.871  28.000  14.536
29284W        W 1709  30.120  30.097  13.928
29285W        W 1710  17.662   4.930   2.825
29286W        W 1711  11.384   0.770  11.455
29287W        W 1712  17.260  39.562  11.538
29288W        W 1713   7.621  29.431  13.848
29289W        W 1714  42.062  12.926   3.279
29290W        W 1715  30.330  11.325   0.346
29291W        W 1716  13.156  38.527   1.970
29292W        W 1717  27.592  21.187  10.204
29293W        W 1718  24.053  12.406  12.968
29294W        W 1719  10.666   4.320  11.056
29295W        W 1720  32.392   1.402  14.882
29296W        W 1721  30.908  43.865   3.224
29297W        W 1722   4.716  43.103  14.069
29298W        W 1723  40.798   4.854   4.310
29299W        W 1724  38.515  34.526   0.801
29300W        W 1725   9.709  26.203  10.734
29301W        W 1726   0.863  13.804  11.521
29302W        W 1727  33.435   4.151  13.771
29303W        W 1728  31.641   3.384   0.926
29304W        W 1729  23.919  16.348   2.750
29305W        W 1730  10.317  28.275   1.185
29306W        W 1731  30.950   6.659   0.863
29307W        W 1732  43.979  41.527   1.741
29308W        W 1733  36.936  27.660  13.958
29309W        W 1734  29.402  25.030  11.591
29310W        W 1735   2.756  33.546   4.772
29311W        W 1736  13.809  24.712  12.868
29312W        W 1737   9.028  18.582   3.150
29313W        W 1738  23.158  37.022  13.419
29314W        W 1739  38.549  10.776  12.859
29315W        W 1740  35.153   8.446   1.742
29316W        W 1741   6.659   3.772  12.920
29317W        W 1742  42.341  26.708   4.702
29318W        W 1743  26.809  32.050   9.827
29319W        W 1744   2.832  25.762   0.201
29320W        W 1745   3.838   8.443  13.065
29321W        W 1746  35.781  33.612  12.496
29322W        W 1747  34.440  35.098   3.752
29323W        W 1748  12.720  21.615   1.914
29324W        W 1749  20.965   7.255  12.583
29325W        W 1750  41.767   4.966  13.980
29326W        W 1751  12.192  15.700  11.748
29327W        W 1752   0.397  20.097   1.360
29328W        W 1753   2.384  37.555  12.912
29329W        W 1754  31.821  34.448   2.781
29330W        W 1755   7.372  12.553   4.468
29331W        W 1756  29.413   6.249  11.161
29332W        W 1757  23.000  37.877   0.348
29333W        W 1758  10.179  34.722   2.348
29334W        W 1759  18.863  21.131  10.600
29335W        W 1760  27.137  17.898  12.852
29336W        W 1761  41.102   9.863   3.686
29337W        W 1762  27.489  16.686   1.293
29338W        W 1763   2.367  20.706   0.032
29339W        W 1764  33.065  41.483  11.572
29340W        W 1765  13.585  43.517   1.291
29341W        W 1766   0.392  23.495   1.913
29342W        W 1767  35.071  43.897   0.486
29343W        W 1768  24.710  37.286  11.967
29344W        W 1769  17.580  29.524  11.499
29345W        W 1770  20.707  34.118  12.775
29346W        W 1771  43.369  33.667   1.348
29347W        W 1772  21.008  25.944  13.522
29348W        W 1773   4.083  33.372  12.535
29349W        W 1774   3.976   9.201  14.718
29350W        W 1775  24.141  30.245   4.345
29351W        W 1776  43.430  13.704  14.071
29352W        W 1777  10.671  39.814   2.355
29353W        W 1778  24.415  25.587  14.895
29354W        W 1779  44.314  35.640   4.251
29355W        W 1780  24.148   5.204  14.677
29356W        W 1781  25.458  20.192   4.372
29357W        W 1782  36.168  28.915   1.719
29358W        W 1783  10.876  15.434  13.513
29359W        W 1784  26.832   4.193  12.458
29360W        W 1785  21.191   8.184   5.083
29361W        W 1786  35.416   2.675   0.807
29362W        W 1787  36.993  32.366   2.636
29363W        W 1788  10.799   2.472  12.032
29364W        W 1789  20.767  35.988  11.543
29365W        W 1790  36.169  28.488  13.993
29366W        W 1791  29.051  38.985  14.413
29367W        W 1792   5.629  14.314  12.993
29368W        W 1793  19.644  26.330  11.484
29369W        W 1794   9.347  17.364  14.386
29370W        W 1795  16.892  35.894  10.755
29371W        W 1796  12.680  31.810   3.226
29372W        W 1797   6.829  37.886   1.977
29373W        W 1798   0.321  10.065   2.330
29374W        W 1799   5.230  26.364   4.090
29375W        W 1800  44.974  24.312  10.333
29376W        W 1801  28.661   4.915   0.460
29377W        W 1802  35.167  18.211   4.758
29378W        W 1803   8.388   8.886   3.339
29379W        W 1804   7.862  44.618   4.019
29380W        W 1805  24.138  16.296   3.635
29381W        W 1806  37.903  30.131   4.352
29382W        W 1807   3.972  34.090  12.880
29383W        W 1808  27.060  38.857   3.098
29384W        W 1809  38.581  31.167   3.820
29385W        W 1810  14.956  18.722   3.205
29386W        W 1811  31.922  33.563   4.546
29387W        W 1812   0.202   3.460  13.059
29388W        W 1813  35.340  23.711  12.693
29389W        W 1814  20.134  29.062  10.966
29390W        W 1815  18.099  20.151  12.728
29391W        W 1816  18.319  21.468   4.067
29392W        W 1817  30.478  25.699   5.181
29393W        W 1818  29.209  12.052   0.086
29394W        W 1819  32.938  27.891  11.822
29395W        W 1820  18.284   8.365  14.055
29396W        W 1821  33.122  24.146  12.676
29397W        W 1822   4.559  18.342  13.936
29398W        W 1823  17.721  38.003   0.939
29399W        W 1824  25.473  41.160  14.351
29400W        W 1825  29.753  43.480  12.202
29401W        W 1826  13.658   3.437   9.881
29402W        W 1827  26.190   9.141  13.491
29403W        W 1828  23.573  19.022  12.416
29404W        W 1829   3.513  26.417  12.772
29405W        W 1830  21.279  32.866   0.435
29406W        W 1831  38.592  27.210   4.810
29407W        W 1832  31.122   9.288  14.290
29408W        W 1833   4.980  24.318   1.284
29409W        W 1834  44.561  34.660   1.159
29410W        W 1835  24.439  10.384  12.489
29411W        W 1836  37.818   3.561   2.388
29412W        W 1837  31.946  12.540  12.898
29413W        W 1838  32.962   3.585  14.034
29414W        W 1839   9.479  18.747   3.427
29415W        W 1840   5.804  42.726   2.210
29416W        W 1841  38.138  34.544  12.395
29417W        W 1842  21.177  24.745  12.812
29418W        W 1843  36.562   0.160  10.744
29419W        W 1844  14.594  35.478   3.289
29420W        W 1845  22.761  32.309  14.632
29421W        W 1846  11.435   8.769   1.243
29422W        W 1847  13.036  15.597  10.562
29423W        W 1848   4.795  31.909   2.799
29424W        W 1849  42.435  18.438  14.075
29425W        W 1850  10.559   9.786   2.624
29426W        W 1851  36.376  34.084   0.706
29427W        W 1852  23.043   5.781   4.964
29428W        W 1853  16.527  19.734  11.328
29429W        W 1854   1.999   0.409   4.576
29430W        W 1855  10.860   6.864  11.672
29431W        W 1856   7.723  42.357   2.319
29432W        W 1857  34.993  30.809   5.083
29433W        W 1858  34.464  24.806   2.654
29434W        W 1859   9.270  38.361  14.402
29435W        W 1860  13.709   6.669  13.227
29436W        W 1861  33.035  34.360   1.179
29437W        W 1862  28.740  36.939  12.418
29438W        W 1863  34.500  30.961   0.911
29439W        W 1864   3.823  21.470  14.369
29440W        W 1865   3.568  11.321  14.318
29441W        W 1866  18.449   8.629   4.770
29442W        W 1867  27.704  30.533   3.221
29443W        W 1868  42.103   0.347  13.849
29444W        W 1869  29.139  24.694   3.416
29445W        W 1870   3.862  29.391  13.822
29446W        W 1871  13.972  32.373   1.222
29447W        W 1872  31.010  17.536   0.102
29448W        W 1873  22.148  35.558   4.726
29449W        W 1874  38.827  12.294   0.425
29450W        W 1875   6.060  30.939  11.447
29451W        W 1876  39.077  41.767   4.061
29452W        W 1877  44.704  26.505  12.152
29453W        W 1878   8.209  23.303  14.961
29454W        W 1879  11.295   0.268  12.433
29455W        W 1880   0.493  32.130  11.599
29456W        W 1881   4.949  24.956   0.323
29457W        W 1882  23.578  39.248   4.370
29458W        W 1883   5.666   2.706   0.640
29459W        W 1884  10.320  34.617  10.703
29460W        W 1885  12.772  28.891   0.447
29461W        W 1886  19.230   5.077   3.372
29462W        W 1887   3.269   5.831   4.312
29463W        W 1888   6.851  32.490   3.619
29464W        W 1889  22.293  35.101  11.629
29465W        W 1890  33.509   8.330   4.530
29466W        W 1891  22.482  37.923   3.824
29467W        W 1892   4.611  11.124   0.435
29468W        W 1893  14.586   9.239  12.963
29469W        W 1894  42.529  38.939   1.833
29470W        W 1895  40.576  34.367   4.472
29471W        W 1896  26.075  39.205  11.434
29472W        W 1897  18.963  31.759   0.442
29473W        W 1898   1.541   5.252  11.975
29474W        W 1899  23.967  44.786   1.515
29475W        W 1900  27.647  31.370  14.830
29476W        W 1901  38.949  36.096   5.287
29477W        W 1902  31.957  16.953  13.373
29478W        W 1903  11.646  19.753  12.294
29479W        W 1904  43.519  18.665  14.811
29480W        W 1905  22.778  17.839   3.300
29481W        W 1906  16.187  14.664  13.828
29482W        W 1907   2.120  41.793   3.733
29483W        W 1908  26.048  19.241   0.459
29484W        W 1909  37.568   0.807   4.540
29485W        W 1910  17.482  27.499   3.175
29486W        W 1911  21.955  38.937   3.243
29487W        W 1912  14.532  31.938  12.674
29488W        W 1913  20.335   5.614   1.937
29489W        W 1914   8.127  12.063   2.309
29490W        W 1915  40.016  24.737   2.631
29491W        W 1916   6.726  34.006  13.930
29492W        W 1917  21.111  37.853  11.958
29493W        W 1918  21.041  22.505   0.698
29494W        W 1919  30.313  16.438  12.515
29495W        W 1920  25.090   8.823   3.733
29496W        W 1921  33.911  26.383  13.264
29497W        W 1922   4.989  23.256   2.188
29498W        W 1923   6.057  37.616  10.344
29499W        W 1924  34.007  12.935   0.481
29500W        W 1925  25.104  19.129   1.377
29501W        W 1926  26.179  39.572   1.721
29502W        W 1927  29.966  22.148   4.614
29503W        W 1928   2.313  30.864  14.455
29504W        W 1929   6.204  35.630  12.249
29505W        W 1930  41.544  10.875  13.244
29506W        W 1931   4.374  42.911   0.641
29507W        W 1932  36.928  42.815   1.391
29508W        W 1933  22.088  42.034   3.171
29509W        W 1934  14.611   7.199  14.378
29510W        W 1935  14.094  39.927  12.501
29511W        W 1936   2.695   8.867   1.743
29512W        W 1937   0.923   5.966   3.070
29513W        W 1938  20.956  11.948  10.740
29514W        W 1939  24.246  12.946   3.264
29515W        W 1940  40.220  21.300  13.663
29516W        W 1941  26.809   3.200   2.374
29517W        W 1942  12.778  38.607   2.320
29518W        W 1943  13.821  36.548   0.794
29519W        W 1944  15.164   4.374   4.454
29520W        W 1945  16.255  38.577  14.000
29521W        W 1946  24.499   8.873  11.481
29522W        W 1947  37.092  40.909   0.764
29523W        W 1948  33.584  37.028   1.771
29524W        W 1949  18.324  13.344  14.507
29525W        W 1950   1.523  22.027   2.286
29526W        W 1951  27.100   1.206  11.602
29527W        W 1952  40.013  35.147   1.020
29528W        W 1953  26.150   7.333  11.647
29529W        W 1954  10.351   4.632   0.686
29530W        W 1955  26.509   2.845   4.185
29531W        W 1956  21.265  10.956   0.818
29532W        W 1957  11.786  30.932   0.005
29533W        W 1958  32.859   4.200  11.389
29534W        W 1959  17.762  23.648  14.485
29535W        W 1960  28.301  10.229   3.639
29536W        W 1961  29.926   3.578  12.458
29537W        W 1962  28.567  19.610   2.607
29538W        W 1963  37.883  17.291   4.397
29539W        W 1964  26.993  28.547  11.673
29540W        W 1965  19.310  10.288   3.696
29541W        W 1966  15.954   4.182  10.708
29542W        W 1967  24.861   0.013  12.751
29543W        W 1968   5.706   7.001   2.763
29544W        W 1969  13.486  32.487   1.411
29545W        W 1970  19.227  30.060  11.668
29546W        W 1971  33.201  23.126   3.605
29547W        W 1972  26.047  44.334  10.254
29548W        W 1973  25.468   9.948  12.397
29549W        W 1974  34.164  34.704   3.951
29550W        W 1975   0.327   5.957  14.393
29551W        W 1976  41.591  34.674  11.581
29552W        W 1977  27.099  33.383  14.672
29553W        W 1978  27.553  10.686   2.226
29554W        W 1979  22.513   2.382   2.558
29555W        W 1980   2.316  39.121  11.023
29556W        W 1981  27.100  14.416   1.653
29557W        W 1982  17.610  36.851  10.717
29558W        W 1983  13.078  23.658  14.090
29559W        W 1984  21.718  20.195   4.857
29560W        W 1985   9.370  28.624  11.092
29561W        W 1986  36.457  18.258  13.826
29562W        W 1987  41.404  20.465  11.515
29563W        W 1988  21.939  24.169  13.893
29564W        W 1989  32.143  37.838   4.244
29565W        W 1990  44.940  26.966   4.178
29566W        W 1991  34.340   2.277  12.008
29567W        W 1992  43.738   6.771  14.572
29568W        W 1993  21.012  13.207  10.940
29569W        W 1994  18.191  26.550   0.247
29570W        W 1995  12.905  37.279  14.904
29571W        W 1996  18.061  41.874  13.499
29572W        W 1997   0.948  30.613  11.737
29573W        W 1998  27.314  28.176  13.843
29574W        W 1999  35.066   9.362  10.147
29575W        W 2000  39.286  25.410   2.833
29576W        W 2001   7.365  16.440   1.267
29577W        W 2002   4.503   1.875  14.355
29578W        W 2003  13.830  34.967   0.926
29579W        W 2004  14.341  12.796  11.132
29580W        W 2005  18.585  20.557   1.448
29581W        W 2006  33.959   4.720   3.134
29582W        W 2007   2.236  31.603  11.109
29583W        W 2008  32.806  25.206   0.237
29584W        W 2009  26.526  25.312  13.916
29585W        W 2010   0.964  14.762  11.154
29586W        W 2011  35.166  30.705   2.876
29587W        W 2012   8.657   5.769  10.819
29588W        W 2013  28.049  35.951   2.609
29589W        W 2014  21.996   9.789  11.449
29590W        W 2015  24.193  30.120  14.034
29591W        W 2016  31.068  24.249  14.033
29592W        W 2017  10.082  23.012   1.782
29593W        W 2018  36.920  10.199  12.470
29594W        W 2019   9.627  17.831   1.444
29595W        W 2020   9.342  23.468   1.354
29596W        W 2021   3.902  23.992   2.817
29597W        W 2022  16.694  28.882  14.888
29598W        W 2023  25.674  31.016   1.308
29599W        W 2024  29.556  27.449   4.234
29600W        W 2025  21.088   4.160   0.032
29601W        W 2026  22.560  20.075  14.328
29602W        W 2027  25.225  15.373  10.676
29603W        W 2028  35.628   7.408  13.340
29604W        W 2029  20.294  44.958  11.185
29605W        W 2030  29.999   6.637   4.668
29606W        W 2031  16.294   5.786   0.809
29607W        W 2032  11.011  10.091   2.882
29608W        W 2033  17.821  27.580   0.247
29609W        W 2034  16.294  22.805  12.530
29610W        W 2035   8.910  34.572  12.481
29611W        W 2036  33.539  36.568  14.898
29612W        W 2037  24.240  18.681  14.953
29613W        W 2038  25.128  38.886  13.100
29614W        W 2039  42.151  31.863  13.827
29615W        W 2040  14.634  19.900  11.644
29616W        W 2041  24.947   7.796   4.624
29617W        W 2042  14.449   7.996  11.033
29618W        W 2043  42.299  21.685   0.295
29619W        W 2044  41.118  44.434  13.872
29620W        W 2045  35.609  43.921  11.642
29621W        W 2046  26.737  31.953   2.811
29622W        W 2047  23.081  23.479  10.513
29623W        W 2048  27.532  40.092  13.760
29624W        W 2049   8.468  36.500   2.866
29625W        W 2050  34.451  24.732   0.704
29626W        W 2051  21.548   0.374  10.979
29627W        W 2052  14.004  17.616  13.867
29628W        W 2053  15.180  17.861   3.137
29629W        W 2054  22.153  42.279  14.417
29630W        W 2055  34.711   6.135  11.949
29631W        W 2056  20.949   1.666   1.243
29632W        W 2057   7.174  18.608  12.544
29633W        W 2058   4.523  22.488  13.263
29634W        W 2059  15.255  17.200  13.308
29635W        W 2060  16.737  33.379   4.168
29636W        W 2061   2.626  16.961  14.958
29637W        W 2062  14.186  32.088   3.353
29638W        W 2063  26.820  27.101   0.380
29639W        W 2064  34.156  18.279  12.858
29640W        W 2065  43.277  23.799  10.982
29641W        W 2066   3.174  12.201   3.409
29642W        W 2067   3.899  28.665  11.492
29643W        W 2068  19.341  26.766  11.431
29644W        W 2069  12.493  22.835   1.387
29645W        W 2070   7.877  21.788   3.210
29646W        W 2071  36.073  17.962  13.999
29647W        W 2072  28.018  21.101   0.972
29648W        W 2073  10.299  23.465   1.566
29649W        W 2074  11.238  17.283   4.223
29650W        W 2075  12.182  39.169  13.938
29651W        W 2076  22.636  17.233   1.168
29652W        W 2077  31.240  39.396  12.410
29653W        W 2078   5.767  32.107   3.847
29654W        W 2079  20.239  22.202   0.257
29655W        W 2080  29.589  17.406   0.170
29656W        W 2081  20.082  40.435  11.484
29657W        W 2082   5.384   3.195  14.342
29658W        W 2083   8.232   7.379   3.178
29659W        W 2084  11.389   3.791  14.443
29660W        W 2085  18.582  12.710   0.802
29661W        W 2086  11.884  38.489   4.046
29662W        W 2087   5.223  37.762  11.262
29663W        W 2088  14.904   3.713  11.587
29664W        W 2089   9.203  20.781  13.135
29665W        W 2090  38.411  41.917   0.866
29666W        W 2091  40.872  23.555   1.012
29667W        W 2092  28.125  42.623  13.301
29668W        W 2093  21.727  13.819   0.453
29669W        W 2094  25.506  40.223   4.852
29670W        W 2095  28.874  34.569  11.546
29671W        W 2096  42.400  32.517   4.537
29672W        W 2097   7.789  41.855   3.574
29673W        W 2098  31.964  29.402   0.959
29674W        W 2099  25.268  18.078   4.637
29675W        W 2100  24.725  26.337  13.371
29676W        W 2101   3.603  42.996  12.206
29677W        W 2102  20.244   9.229  12.742
29678W        W 2103  31.158  12.895  13.875
29679W        W 2104  42.462  42.987  12.176
29680W        W 2105  11.678   5.629   3.720
29681W        W 2106  37.932  37.035   0.706
29682W        W 2107  42.596  22.957   0.560
29683W        W 2108  22.999   3.468  11.112
29684W        W 2109   2.992  25.573  12.100
29685W        W 2110  36.287  21.626   0.377
29686W        W 2111  44.300   5.898  14.456
29687W        W 2112  15.264   2.423   3.831
29688W        W 2113  41.341  23.937   0.341
29689W        W 2114   5.321  15.660   4.534
29690W        W 2115  41.396  37.154  11.101
29691W        W 2116  28.904  34.330   0.748
29692W        W 2117  31.527  15.654  12.336
29693W        W 2118  42.812  15.304  13.603
29694W        W 2119   2.095  11.844   0.055
29695W        W 2120  43.364   6.159  12.107
29696W        W 2121  13.857  31.354   4.578
29697W        W 2122  21.738  26.424  14.074
29698W        W 2123  19.828  42.371  14.851
29699W        W 2124  38.223  14.955  12.681
29700W        W 2125  12.868  12.315   2.653
29701W        W 2126  41.125  13.246  14.956
29702W        W 2127  15.511  36.448   1.351
29703W        W 2128  31.516   2.244  14.495
29704W        W 2129  28.116  12.571  13.511
29705W        W 2130  30.769  34.892   2.006
29706W        W 2131  26.221  13.768  11.458
29707W        W 2132   0.331  23.517   3.486
29708W        W 2133  42.113  34.649  11.525
29709W        W 2134  12.301  24.030  12.414
29710W        W 2135  29.107  28.854  12.439
29711W        W 2136  34.938  40.245  13.388
29712W        W 2137  17.737   2.796   0.255
29713W        W 2138   5.446  23.490  10.692
29714W        W 2139   4.390  31.873  14.329
29715W        W 2140   7.244  11.606   3.695
29716W        W 2141   8.654  19.032  12.623
29717W        W 2142   5.060   7.739   1.504
29718W        W 2143  21.665   4.880   4.585
29719W        W 2144   8.269  16.007  13.120
29720W        W 2145  10.301  29.966   5.136
29721W        W 2146  25.130  16.815  14.885
29722W        W 2147  20.250  16.166  10.994
29723W        W 2148  16.558  41.182  12.869
29724W        W 2149  29.521  24.254   0.265
29725W        W 2150   3.286  21.014  12.594
29726W        W 2151  11.886  26.952  13.995
29727W        W 2152  36.332  16.703  14.759
29728W        W 2153  23.204  36.977   0.281
29729W        W 2154  28.232  28.038  13.963
29730W        W 2155  42.605   6.991   2.769
29731W        W 2156  43.902  32.984  13.734
29732W        W 2157  42.573  11.389   2.459
29733W        W 2158  19.269  14.837   0.213
29734W        W 2159  22.415  34.875   5.106
29735W        W 2160  12.898  16.209   0.383
29736W        W 2161  20.231  27.937   4.872
29737W        W 2162  13.760  22.656  10.476
29738W        W 2163  40.546   5.313   2.069
29739W        W 2164  22.690  10.817   4.380
29740W        W 2165  37.024  21.298   1.461
29741W        W 2166  10.915  35.942   2.208
29742W        W 2167   5.476  23.439  13.108
29743W        W 2168  36.964  34.347  13.524
29744W        W 2169  30.265   4.948   3.306
29745W        W 2170  41.106  34.312   3.717
29746W        W 2171  16.037  26.336   1.414
29747W        W 2172  38.390   1.183   2.202
29748W        W 2173  26.521  39.449   2.376
29749W        W 2174  41.885  24.659   0.455
29750W        W 2175  26.587  42.702   1.663
29751W        W 2176   5.851   3.668   4.192
29752W        W 2177  32.429  30.037  10.380
29753W        W 2178  19.589  13.544   2.301
29754W        W 2179  15.195  26.147   4.203
29755W        W 2180  40.287  16.058  11.494
29756W        W 2181   4.256  25.622   1.967
29757W        W 2182  20.031  44.261  13.293
29758W        W 2183  42.964   0.328   4.331
29759W        W 2184  29.560  38.918   3.140
29760W        W 2185  16.192  25.225  11.044
29761W        W 2186  43.729  40.901   1.895
29762W        W 2187  19.874  15.227   3.225
29763W        W 2188  17.192  31.221   3.397
29764W        W 2189   1.968   7.662   0.806
29765W        W 2190  23.251   0.273   4.631
29766W        W 2191   7.533  10.656  13.957
29767W        W 2192   8.896  36.808   1.680
29768W        W 2193  43.842   8.202  10.719
29769W        W 2194  29.457   9.341  11.576
29770W        W 2195  36.087  38.281  13.766
29771W        W 2196  19.756  44.020   1.886
29772W        W 2197  22.268   0.870  10.635
29773W        W 2198  36.287  43.388   3.235
29774W        W 2199  35.847  25.190   2.379
29775W        W 2200  13.620  25.143  11.378
29776W        W 2201  40.497  21.606  10.047
29777W        W 2202  12.343  17.600   1.199
29778W        W 2203  38.144  11.631  14.414
29779W        W 2204   0.502  30.335   5.060
29780W        W 2205  34.721  26.041  13.277
29781W        W 2206  23.455   6.208   2.200
29782W        W 2207  37.360   1.213   2.671
29783W        W 2208  37.561  20.291   2.663
29784W        W 2209   0.459   2.224   4.561
29785W        W 2210   7.888  11.136  14.346
29786W        W 2211   3.346  29.715  10.564
29787W        W 2212  40.487  40.239  10.730
29788W        W 2213  36.795  21.515   1.053
29789W        W 2214  34.074  27.836  10.697
29790W        W 2215  13.167  29.892  13.982
29791W        W 2216   2.339  27.759   1.071
29792W        W 2217   3.963   3.315  13.389
29793W        W 2218   8.679  33.677   1.328
29794W        W 2219   1.898  35.445   1.088
29795W        W 2220  22.659  27.070   0.504
29796W        W 2221  22.076  35.808  14.859
29797W        W 2222  32.097  10.083   3.986
29798W        W 2223   9.785  13.272   1.036
29799W        W 2224  15.756  31.482   2.842
29800W        W 2225  21.244   7.484  14.330
29801W        W 2226   1.523  24.693   1.885
29802W        W 2227   2.232  25.707   2.301
29803W        W 2228  35.583  18.174  14.067
29804W        W 2229  28.679  17.987   1.333
29805W        W 2230  36.996  20.026  14.977
29806W        W 2231  44.047   3.345  13.681
29807W        W 2232  21.050  32.586   2.546
29808W        W 2233   3.620  32.495   2.221
29809W        W 2234  36.419  38.040   1.856
29810W        W 2235   1.925  33.004   1.858
29811W        W 2236   7.301  16.024  11.649
29812W        W 2237  33.021  42.915  10.839
29813W        W 2238  24.763  40.789  10.961
29814W        W 2239  18.735   9.586   2.460
29815W        W 2240  31.090  41.080  11.999
29816W        W 2241  42.799  32.891   3.150
29817W        W 2242  29.487  31.663  12.862
29818W        W 2243  38.276  25.532   0.042
29819W        W 2244   7.771   7.476   3.761
29820W        W 2245   4.862  14.638  10.076
29821W        W 2246  27.191  21.512  14.739
29822W        W 2247  36.958  13.396  14.602
29823W        W 2248  43.769  30.975  14.867
29824W        W 2249  13.023  43.318   2.313
29825W        W 2250   2.698   7.845   0.328
29826W        W 2251  36.412   4.533   1.642
29827W        W 2252   8.615  28.306  14.828
29828W        W 2253  22.043   2.794   4.527
29829W        W 2254  29.045  35.835  13.285
29830W        W 2255  12.853   3.748  14.484
29831W        W 2256  43.968  19.472  14.881
29832W        W 2257  44.852  20.233   2.610
29833W        W 2258  34.390   3.301  13.531
29834W        W 2259  39.436  37.405  14.692
29835W        W 2260  18.353  31.925  11.472
29836W        W 2261  40.993  41.498  11.090
29837W        W 2262  20.568  31.483  13.480
29838W        W 2263  23.617  18.734   1.807
29839W        W 2264   9.466  13.832  10.969
29840W        W 2265  17.139   1.207  10.629
29841W        W 2266  19.596  14.387   5.136
29842W        W 2267  34.060  19.010  13.813
29843W        W 2268  13.835   0.339  13.035
29844W        W 2269  16.068  36.922   2.414
29845W        W 2270  34.164   8.216  10.834
29846W        W 2271   6.888  25.954   1.904
29847W        W 2272  11.914  16.388   3.880
29848W        W 2273   7.318   5.656  12.616
29849W        W 2274  11.477  23.894   0.705
29850W        W 2275   3.227   8.804   2.370
29851W        W 2276   5.634  14.615  11.010
29852W        W 2277  30.151  26.041  10.625
29853W        W 2278   4.302  21.106   1.963
29854W        W 2279   9.382  19.802   4.594
29855W        W 2280  25.034  29.053   2.896
29856W        W 2281  24.200  39.228   4.121
29857W        W 2282  12.338  32.199   3.075
29858W        W 2283  43.418   7.638  13.897
29859W        W 2284  20.484   4.399   3.599
29860W        W 2285  21.732  16.216  14.304
29861W        W 2286  36.787  11.216  13.559
29862W        W 2287  27.266  41.975   2.226
29863W        W 2288  27.096  14.653   1.091
29864W        W 2289   0.795   7.597  10.711
29865W        W 2290   7.901   6.310   2.213
29866W        W 2291  10.229  27.943   3.070
29867W        W 2292  34.883  29.406  14.167
29868W        W 2293  29.114  23.228   0.602
29869W        W 2294   1.480  43.863   4.071
29870W        W 2295  26.032  36.381   2.807
29871W        W 2296  42.514  24.583   3.765
29872W        W 2297  20.938   5.745   0.891
29873W        W 2298  31.166   5.116   1.641
29874W        W 2299  39.423   9.788   1.350
29875W        W 2300   4.938  36.558   3.614
29876W        W 2301  35.037  39.692  13.430
29877W        W 2302  16.908  38.588  12.618
29878W        W 2303  31.352   6.081   1.675
29879W        W 2304  18.788  24.945  10.533
29880W        W 2305  31.492  31.783   3.201
29881W        W 2306  36.990  41.541  13.910
29882W        W 2307  30.931  32.557  14.246
29883W        W 2308   5.744  29.494   2.307
29884W        W 2309  14.232  31.628   4.802
29885W        W 2310  15.906   7.995   4.164
29886W        W 2311  37.947  14.784  14.848
29887W        W 2312   2.505  21.275   2.393
29888W        W 2313  14.948  18.050  14.786
29889W        W 2314  37.269  29.192  11.837
29890W        W 2315  16.050   8.659   1.526
29891W        W 2316  28.538  35.713  13.558
29892W        W 2317  44.399  29.674   4.126
29893W        W 2318  25.986  33.856  10.745
29894W        W 2319  18.155  10.163  14.032
29895W        W 2320  25.528  28.317   0.829
29896W        W 2321  32.657  26.639   9.858
29897W        W 2322  10.144  21.810  13.375
29898W        W 2323  34.353  31.158   1.434
29899W        W 2324   9.237   1.034   9.914
29900W        W 2325  16.177  22.112   4.534
29901W        W 2326  16.582  21.009  14.116
29902W        W 2327  43.266  40.434  14.119
29903W        W 2328  12.369  40.671   3.636
29904W        W 2329   3.374  22.657   2.711
29905W        W 2330  10.302   2.802  14.595
29906W        W 2331   8.183   3.281   0.000
29907W        W 2332  27.674  36.894   4.578
29908W        W 2333  19.597  22.730  14.838
29909W        W 2334   3.927  19.716   3.311
29910W        W 2335   3.959  17.692   0.282
29911W        W 2336  37.580  42.535  14.303
29912W        W 2337  15.651  12.220   1.073
29913W        W 2338  21.996  13.277  11.195
29914W        W 2339  24.447   6.830   1.316
29915W        W 2340  35.562  44.851  12.595
29916W        W 2341  44.198  30.826  13.902
29917W        W 2342  30.064  23.262  14.548
29918W        W 2343  27.232  13.841   2.282
29919W        W 2344   8.862   1.321   2.562
29920W        W 2345  37.625  25.290   4.348
29921W        W 2346  14.579  35.853  11.956
29922W        W 2347   9.436  40.226  10.971
29923W        W 2348  20.173  35.874  13.904
29924W        W 2349  28.702  43.373   3.191
29925W        W 2350  40.090  10.228   4.434
29926W        W 2351  35.551  10.130   2.966
29927W        W 2352  41.378  40.707  10.510
29928W        W 2353  31.073  11.216  13.929
29929W        W 2354  28.449  27.626   0.253
29930W        W 2355  33.881  44.899  13.155
29931W        W 2356  38.754  21.530  12.049
29932W        W 2357  19.949  15.674  11.245
29933W        W 2358   8.250  41.002   2.972
29934W        W 2359  34.861  11.586  14.776
29935W        W 2360  33.028  43.940   1.416
29936W        W 2361  43.715  24.739   3.175
29937W        W 2362  20.184  28.152   2.657
29938W        W 2363  25.134  12.378   4.783
29939W        W 2364  26.187   7.629   3.813
29940W        W 2365  33.400   0.383  13.049
29941W        W 2366   5.687  13.676   0.466
29942W        W 2367  18.536  38.810   5.029
29943W        W 2368  14.839  22.274  11.179
29944W        W 2369  33.781  17.299   1.439
29945W        W 2370  21.610  18.719   1.767
29946W        W 2371   5.438   4.601   2.758
29947W        W 2372   6.791  30.091   4.916
29948W        W 2373  30.201  12.914  13.544
29949W        W 2374  17.094  27.970   2.285
29950W        W 2375   1.800   2.193  14.815
29951W        W 2376  19.954  39.549  14.430
29952W        W 2377   5.341   8.219  14.428
29953W        W 2378  32.611   3.218  12.038
29954W        W 2379  13.276  42.535   0.789
29955W        W 2380  25.103  31.782  10.671
29956W        W 2381  24.934  22.816  14.876
29957W        W 2382  14.233   1.166   4.693
29958W        W 2383  27.043  28.401  14.759
29959W        W 2384  23.115  41.488  12.953
29960W        W 2385   1.880  11.115  12.762
29961W        W 2386  41.967   2.773   3.092
29962W        W 2387  16.689  44.235  14.476
29963W        W 2388   4.817  33.132  10.749
29964W        W 2389  10.747  30.133  10.938
29965W        W 2390  31.600  22.185  10.141
29966W        W 2391  19.320   5.288   2.369
29967W        W 2392  43.582  37.055   2.829
29968W        W 2393  37.015   8.701  14.427
29969W        W 2394  13.277  13.570  12.653
29970W        W 2395  44.904  30.942   3.569
29971W        W 2396  43.331  25.041  14.904
29972W        W 2397  36.492  24.204  14.476
29973W        W 2398  32.567  17.190  10.698
29974W        W 2399   5.782  27.086  11.209
29975W        W 2400   7.310  39.556   0.395
29976W        W 2401   8.194  31.704   0.850
29977W        W 2402  14.939  32.308   9.840
29978W        W 2403  19.499  14.263   3.286
29979W        W 2404  34.931   8.537   4.568
29980W        W 2405  33.975  16.778  14.673
29981W        W 2406  19.264   1.397  13.969
29982W        W 2407   2.413   9.915   1.497
29983W        W 2408  28.082   8.956  14.569
29984W        W 2409  16.231  16.555   1.783
29985W        W 2410  32.852  27.191  13.945
29986W        W 2411  15.310  27.635   2.277
29987W        W 2412   8.832   1.949   4.847
29988W        W 2413  25.921  14.586   0.347
29989W        W 2414  29.382   5.957   2.062
29990W        W 2415  31.632  36.488  14.486
29991W        W 2416  29.146  16.864  14.396
29992W        W 2417   4.213  40.797   4.152
29993W        W 2418   5.014  29.373   1.707
29994W        W 2419  18.679  20.535  13.504
29995W        W 2420   7.797  36.929   2.885
29996W        W 2421  44.387  25.643   4.616
29997W        W 2422  22.792  21.069  13.251
29998W        W 2423   7.642  32.654   0.183
29999W        W 2424   0.795  17.105   4.740
30000W        W 2425  33.691  14.850   2.259
30001W        W 2426  10.499  38.492   1.804
30002W        W 2427  43.237   8.833   4.137
30003W        W 2428  31.527  34.710  11.152
30004W        W 2429  29.058   8.514   4.599
30005W        W 2430  14.671  44.250  10.962
30006W        W 2431  13.184   2.513   0.195
30007W        W 2432   1.310  25.439  13.418
30008W        W 2433  31.563  44.560   4.876
30009W        W 2434   0.402  28.614   1.438
30010W        W 2435   6.430  20.632   1.461
30011W        W 2436   4.556   7.346   3.112
30012W        W 2437  25.439  35.557  10.539
30013W        W 2438  19.841  34.603   2.812
30014W        W 2439  34.520  23.132  13.869
30015W        W 2440   4.753   5.343   4.894
30016W        W 2441  34.015  16.849   2.323
30017W        W 2442  30.971  10.230  12.460
30018W        W 2443   1.398  44.124  12.205
30019W        W 2444   4.704   3.375  12.865
30020W        W 2445  34.421   2.547   0.249
30021W        W 2446  12.094  43.522  11.647
30022W        W 2447  18.162  20.534   1.769
30023W        W 2448  44.950  17.585  13.591
30024W        W 2449   4.911  42.797   2.447
30025W        W 2450  27.061  10.648  11.003
30026W        W 2451   8.210   1.748   3.734
30027W        W 2452  22.717  38.000  14.514
30028W        W 2453   7.444  14.642   2.616
30029W        W 2454   0.865  39.072  12.678
30030W        W 2455  15.383   0.468   2.290
30031W        W 2456   9.856  20.716   0.015
30032W        W 2457  31.057  19.696  12.981
30033W        W 2458   0.285   6.440  10.989
30034W        W 2459  15.579  22.188   0.716
30035W        W 2460  23.036  28.114  14.676
30036W        W 2461  32.864  24.133  14.944
30037W        W 2462  28.192  35.130   0.780
30038W        W 2463  30.710  27.502  12.402
30039W        W 2464  10.738  33.985  13.989
30040W        W 2465  28.483  42.700  12.942
30041W        W 2466   4.007  19.359  14.845
30042W        W 2467  37.533  28.666   2.773
30043W        W 2468  33.429  40.763  14.565
30044W        W 2469  39.001   7.403   4.164
30045W        W 2470  39.402   7.696   1.740
30046W        W 2471  37.862  20.433  13.495
30047W        W 2472   7.407   2.333   4.819
30048W        W 2473  12.264  35.767  10.781
30049W        W 2474  25.891  37.533  12.401
30050W        W 2475   9.865  40.418   0.416
30051W        W 2476  20.203   0.877   0.342
30052W        W 2477  33.871  40.832  10.744
30053W        W 2478  11.786  27.141   1.400
30054W        W 2479  39.523   0.157  12.526
30055W        W 2480  15.244  42.371   0.436
30056W        W 2481  11.899  15.122   0.211
30057W        W 2482   4.739  18.493   4.735
30058W        W 2483   4.320  39.383  13.558
30059W        W 2484  25.484   1.488   3.839
30060W        W 2485  24.058  23.156   2.282
30061W        W 2486  29.122   0.277  14.164
30062W        W 2487   3.615  41.459  10.701
30063W        W 2488  35.894   5.709   0.988
30064W        W 2489   7.195  33.255   3.438
30065W        W 2490  12.212  18.777   1.197
30066W        W 2491  15.173  42.554  11.133
30067W        W 2492  10.463  29.536  10.461
30068W        W 2493   3.203  40.918   1.144
30069W        W 2494   6.310  29.015   2.842
30070W        W 2495  28.387  22.726   4.600
30071W        W 2496  31.123   7.815   0.335
30072W        W 2497  28.947  19.291  10.969
30073W        W 2498   5.768  28.043  14.051
30074W        W 2499  22.636  13.672   2.559
30075W        W 2500  14.985  13.788   0.872
30076W        W 2501  19.605  37.469   2.038
30077W        W 2502  19.172  21.556   1.845
30078W        W 2503  32.267  40.396   2.663
30079W        W 2504   1.473  18.392   3.551
30080W        W 2505  13.358  44.934   1.313
30081W        W 2506   1.703  11.268   4.169
30082W        W 2507  33.494  15.552  13.944
30083W        W 2508   4.416   4.758   1.777
30084W        W 2509  43.807  24.310  12.435
30085W        W 2510  43.226   1.308   4.335
30086W        W 2511  43.779  11.637   2.293
30087W        W 2512  24.602  38.721  13.009
30088W        W 2513  22.564  25.026   4.098
30089W        W 2514  37.007  39.533   2.635
30090W        W 2515   9.011  20.482  10.629
30091W        W 2516  24.204   5.727   4.038
30092W        W 2517   0.989  23.071  14.708
30093W        W 2518  41.885  12.398   4.273
30094W        W 2519  27.173  10.567  14.926
30095W        W 2520  20.407   8.451  14.253
30096W        W 2521  39.326  18.624   3.263
30097W        W 2522  14.320  21.104   1.921
30098W        W 2523  15.900  18.792   2.946
30099W        W 2524   3.644  18.026   3.207
30100W        W 2525  12.212  42.441   0.084
30101W        W 2526  28.986  10.150  11.509
30102W        W 2527  10.891   0.757  14.878
30103W        W 2528  26.572  30.018   3.205
30104W        W 2529   7.277  43.526   4.570
30105W        W 2530  13.086   3.686  10.207
30106W        W 2531  17.365  43.027  10.975
30107W        W 2532  11.156  21.718   4.361
30108W        W 2533   3.908   8.020   0.285
30109W        W 2534  31.458  14.880  11.553
30110W        W 2535   8.589  20.696   1.921
30111W        W 2536   4.994  34.305  12.057
30112W        W 2537  12.323  39.446   2.630
30113W        W 2538   8.690   6.269   4.507
30114W        W 2539   1.683  20.792  14.470
30115W        W 2540  21.048  44.658   3.654
30116W        W 2541  40.962  26.451   0.806
30117W        W 2542  14.872  10.078   9.896
30118W        W 2543  39.766  19.268   1.850
30119W        W 2544   8.337  31.135  14.056
30120W        W 2545  35.313   1.303  12.174
30121W        W 2546  36.922  26.228   2.803
30122W        W 2547   4.238  21.115  12.574
30123W        W 2548  13.805  25.613  12.327
30124W        W 2549  11.859   6.176   4.596
30125W        W 2550  25.050  42.257  14.908
30126W        W 2551   7.725  41.453   2.208
30127W        W 2552  29.360  34.356   0.967
30128W        W 2553  41.769  31.879   4.853
30129W        W 2554  21.665  27.586  12.146
30130W        W 2555  29.728  32.187  13.531
30131W        W 2556  37.945  11.346  13.680
30132W        W 2557  29.994  37.135  11.110
30133W        W 2558  14.643  36.403  12.053
30134W        W 2559  44.902  33.999  14.359
30135W        W 2560  42.839  34.286   3.177
30136W        W 2561  13.666   8.375   1.919
30137W        W 2562  23.799  37.495   2.677
30138W        W 2563  17.797  28.124  14.862
30139W        W 2564  18.523   8.830   3.448
30140W        W 2565  14.865  38.148   3.283
30141W        W 2566  41.087  27.682   1.594
30142W        W 2567   2.697  41.168  11.213
30143W        W 2568  22.255  38.455   4.580
30144W        W 2569  22.191  31.234  14.988
30145W        W 2570   5.228  34.891  11.075
30146W        W 2571  19.863  41.794  13.763
30147W        W 2572   6.446  12.214  11.735
30148W        W 2573  27.905  24.590   5.049
30149W        W 2574  17.553   1.209  12.436
30150W        W 2575  26.870  32.922  14.594
30151W        W 2576  37.830   5.337   0.838
30152W        W 2577  21.458  37.022  12.164
30153W        W 2578  42.583   5.421   4.078
30154W        W 2579  34.417  23.266   1.757
30155W        W 2580   5.267  24.868  14.083
30156W        W 2581  34.385  44.516  10.647
30157W        W 2582  39.445  42.588   4.205
30158W        W 2583  14.650   3.296  14.460
30159W        W 2584  36.533  41.092   1.333
30160W        W 2585  30.366  37.868  11.958
30161W        W 2586  32.340  10.196  12.549
30162W        W 2587  14.119  18.535  13.249
30163W        W 2588   5.838  41.686   0.432
30164W        W 2589   7.328   5.211  10.632
30165W        W 2590  26.739  15.147   1.019
30166W        W 2591  23.732  17.690  14.934
30167W        W 2592  14.491  39.260   1.832
30168W        W 2593  11.303  38.934  11.051
30169W        W 2594  37.256  35.885   1.880
30170W        W 2595  21.541  37.332  14.262
30171W        W 2596  40.634  26.204  13.982
30172W        W 2597   1.890  40.189   1.442
30173W        W 2598   2.190  33.059   0.924
30174W        W 2599  31.046  28.008   4.918
30175W        W 2600  15.123   2.831  12.034
30176W        W 2601  13.216  10.159   1.745
30177W        W 2602  12.998  24.686   2.391
30178W        W 2603  13.296  10.206  11.513
30179W        W 2604  27.587  20.101  11.543
30180W        W 2605  38.154  44.417  13.013
30181W        W 2606  44.214  18.170   3.734
30182W        W 2607  23.728  38.982  13.792
30183W        W 2608  16.086  42.047   1.890
30184W        W 2609  19.561  31.937  14.006
30185W        W 2610   3.326   5.916  12.803
30186W        W 2611  44.375  18.192   2.769
30187W        W 2612   6.026  31.691   3.621
30188W        W 2613  18.076  15.612   4.234
30189W        W 2614  18.247  14.314  13.516
30190W        W 2615   8.784  13.582   3.069
30191W        W 2616  41.937   7.814  12.465
30192W        W 2617   5.114  28.781   0.049
30193W        W 2618  29.998  24.293   3.818
30194W        W 2619   0.021   4.700   4.561
30195W        W 2620  31.654  27.399   4.130
30196W        W 2621   7.662  13.670  11.538
30197W        W 2622   9.867  21.240   2.444
30198W        W 2623  12.124  22.729  14.279
30199W        W 2624  17.389  42.750  10.544
30200W        W 2625  32.217  31.974   2.280
30201W        W 2626  18.322  10.289   3.845
30202W        W 2627   6.588  32.253   0.694
30203W        W 2628  10.645  27.867  14.812
30204W        W 2629   2.739  12.894  12.885
30205W        W 2630  10.370  37.477   3.166
30206W        W 2631  41.293  31.371  11.196
30207W        W 2632  36.006  11.814  11.562
30208W        W 2633  23.440  16.610   0.438
30209W        W 2634  17.660   1.593  14.835
30210W        W 2635  30.177  15.549  12.539
30211W        W 2636  31.035  40.312  14.044
30212W        W 2637  29.822   7.350  12.087
30213W        W 2638  19.188  36.394  13.399
30214W        W 2639   9.445  21.169  12.528
30215W        W 2640  15.664  12.291   3.887
30216W        W 2641  14.657  34.533   2.405
30217W        W 2642  31.480   9.701  12.889
30218W        W 2643  39.952  12.166  11.441
30219W        W 2644  22.902  13.151  11.576
30220W        W 2645  12.141   2.354   4.105
30221W        W 2646  29.101  26.071   3.138
30222W        W 2647  18.972  31.587   4.127
30223W        W 2648  10.897  26.221   3.768
30224W        W 2649   8.398  35.036  11.675
30225W        W 2650   4.136  22.227   0.778
30226W        W 2651  44.533   0.164  10.663
30227W        W 2652  36.963  34.177   3.180
30228W        W 2653   5.383   0.261   3.411
30229W        W 2654  21.526  18.161  11.638
30230W        W 2655  33.915   3.669   1.613
30231W        W 2656  18.247   1.421  12.878
30232W        W 2657   9.568  16.816  12.503
30233W        W 2658  14.148   7.286  10.584
30234W        W 2659  11.342  11.706   2.953
30235W        W 2660  26.455   0.994  12.475
30236W        W 2661  12.424   9.705   1.380
30237W        W 2662  19.695  29.994   4.787
30238W        W 2663  43.435   6.015   3.429
30239W        W 2664  42.311  20.718   1.210
30240W        W 2665  25.733  34.917  10.261
30241W        W 2666   0.449  39.190  13.348
30242W        W 2667   8.381  25.705   2.606
30243W        W 2668  29.565   2.907   3.906
30244W        W 2669  29.306  16.266  11.000
30245W        W 2670  22.470  17.056   3.340
30246W        W 2671   7.376  16.958   1.413
30247W        W 2672   0.491  30.403  14.474
30248W        W 2673   6.645  31.393  12.367
30249W        W 2674   9.778   6.432  14.363
30250W        W 2675  33.177  30.736   5.073
30251W        W 2676  41.296  14.139   0.903
30252W        W 2677  28.962  42.449  12.115
30253W        W 2678  36.851  24.450  14.840
30254W        W 2679   7.096  30.681  14.770
30255W        W 2680  20.232  29.161   4.504
30256W        W 2681  12.169  36.996   3.738
30257W        W 2682  24.777  10.145  14.113
30258W        W 2683   5.647  34.239   0.352
30259W        W 2684  41.313  21.003   0.796
30260W        W 2685  39.164  37.396  12.955
30261W        W 2686  36.934   5.486  12.620
30262W        W 2687   1.908  26.692  11.604
30263W        W 2688  21.170  36.812   4.539
30264W        W 2689  14.235   1.983   2.592
30265W        W 2690   8.934  40.860   4.541
30266W        W 2691  41.072  17.408  12.557
30267W        W 2692   6.030  29.708   1.863
30268W        W 2693  10.788  21.792   1.258
30269W        W 2694   4.259  29.729   3.449
30270W        W 2695  39.686  23.495   4.266
30271W        W 2696  16.261   3.393  11.665
30272W        W 2697  30.492   0.161  12.431
30273W        W 2698  21.830  40.806  14.297
30274W        W 2699  15.211  29.370  14.206
30275W        W 2700   9.674   9.200  12.946
30276W        W 2701  17.249  24.374  11.929
30277W        W 2702  44.819  37.850   1.970
30278W        W 2703  23.556  15.455  11.503
30279W        W 2704  12.288  21.801  10.617
30280W        W 2705   0.129  16.588   2.767
30281W        W 2706  36.327   1.744  10.733
30282W        W 2707  12.422  42.455  12.548
30283W        W 2708  16.737  17.852   1.945
30284W        W 2709   1.052  20.861   5.055
30285W        W 2710   7.384  16.621   3.438
30286W        W 2711  38.070  41.883   3.610
30287W        W 2712  10.845   4.381  12.437
30288W        W 2713   5.722   7.847   1.649
30289W        W 2714  27.155  28.166  10.311
30290W        W 2715  41.490  39.331   2.339
30291W        W 2716   8.799  31.336  13.891
30292W        W 2717   4.786  10.617   3.777
30293W        W 2718  33.916  40.710  11.648
30294W        W 2719  42.873  32.004  14.497
30295W        W 2720   4.296  22.184   2.621
30296W        W 2721   7.943   5.276  13.748
30297W        W 2722   0.384  19.057  14.826
30298W        W 2723  33.586   6.730  12.502
30299W        W 2724  41.962   9.431  10.944
30300W        W 2725  18.382  16.374  11.525
30301W        W 2726   7.695  35.121   3.217
30302W        W 2727   8.169  13.263   0.320
30303W        W 2728  12.615  12.761   3.743
30304W        W 2729  14.092  18.695  11.671
30305W        W 2730   5.974  26.022   3.258
30306W        W 2731  10.278  23.134   0.324
30307W        W 2732  14.876  27.257   0.455
30308W        W 2733  14.542  35.471  14.058
30309W        W 2734  20.167  26.189   2.727
30310W        W 2735   0.858  16.665   2.046
30311W        W 2736  28.800   2.848  13.642
30312W        W 2737  17.698   1.351   0.685
30313W        W 2738   2.784   2.679  12.061
30314W        W 2739  18.496   3.295   4.810
30315W        W 2740   4.684  10.911  14.841
30316W        W 2741  18.086  21.812  12.854
30317W        W 2742  40.458  16.661  12.470
30318W        W 2743   3.482   6.663   0.289
30319W        W 2744  16.821   7.371   2.277
30320W        W 2745  19.419   3.760   3.215
30321W        W 2746   9.847  24.059  13.484
30322W        W 2747  41.258   5.779   2.885
30323W        W 2748   0.730  28.742  12.532
30324W        W 2749  14.257  13.238  13.987
30325W        W 2750   6.571   6.269  11.950
30326W        W 2751  38.069  44.932   1.863
30327W        W 2752  41.316  31.951  13.636
30328W        W 2753  15.315  36.084   2.414
30329W        W 2754   2.226  36.353  10.809
30330W        W 2755  41.586   6.367   5.135
30331W        W 2756  14.298  18.111  10.699
30332W        W 2757  10.647  13.666   2.049
30333W        W 2758  27.134  38.342  13.901
30334W        W 2759  32.455  26.154  11.727
30335W        W 2760  40.365   2.182   0.760
30336W        W 2761  25.654  44.704  11.149
30337W        W 2762  26.008   1.503  12.955
30338W        W 2763  41.738  42.545   2.363
30339W        W 2764  29.521  23.403   2.988
30340W        W 2765  36.531   7.169   0.359
30341W        W 2766  34.573   7.577  13.544
30342W        W 2767  25.904  17.969  12.492
30343W        W 2768  41.496  33.915   3.823
30344W        W 2769   9.079   5.751   1.828
30345W        W 2770  25.900  22.757   0.702
30346W        W 2771  22.170  16.980   1.973
30347W        W 2772  25.719  43.830   2.453
30348W        W 2773  15.626  31.213  10.660
30349W        W 2774  40.988  17.506   0.814
30350W        W 2775  40.902  34.512   2.670
30351W        W 2776  25.677  36.606   0.544
30352W        W 2777  41.707   1.865  12.965
30353W        W 2778  32.355  29.632  10.695
30354W        W 2779  43.767   2.849   2.640
30355W        W 2780  22.697  22.096  11.635
30356W        W 2781   5.140  22.039  10.386
30357W        W 2782  27.654  41.897  12.788
30358W        W 2783  38.789  40.507  14.780
30359W        W 2784   5.288   8.952   1.740
30360W        W 2785  23.091  29.957  13.866
30361W        W 2786  37.432  22.241   2.916
30362W        W 2787  24.177   0.792   4.067
30363W        W 2788  42.011   9.493   3.681
30364W        W 2789   2.864  31.150  11.579
30365W        W 2790  43.312  14.226  12.089
30366W        W 2791   3.959   8.447   1.990
30367W        W 2792   2.890  41.005   2.257
30368W        W 2793  13.107   2.456  13.343
30369W        W 2794  31.117  34.560  13.382
30370W        W 2795   2.419  29.561   3.378
30371W        W 2796  22.977  41.422  14.459
30372W        W 2797  40.457  29.375  10.957
30373W        W 2798   1.195   0.385   2.227
30374W        W 2799  23.598  35.505  12.650
30375W        W 2800  35.940   8.423  14.959
30376W        W 2801   7.368   8.008   3.216
30377W        W 2802  30.370  22.160  12.083
30378W        W 2803  39.195  40.714   4.112
30379W        W 2804  13.063  21.940   1.228
30380W        W 2805  38.390  13.514  13.898
30381W        W 2806  37.471  44.979  14.779
30382W        W 2807  25.259  14.815   0.272
30383W        W 2808  27.705   0.342   0.838
30384W        W 2809   4.869  26.661   1.018
30385W        W 2810  23.148  44.114   2.834
30386W        W 2811  17.514  24.423  12.580
30387W        W 2812  27.111  37.536   3.281
30388W        W 2813  38.321  37.965  12.770
30389W        W 2814   9.628  26.140   0.027
30390W        W 2815   9.316  20.906  10.804
30391W        W 2816   9.511  40.599   2.415
30392W        W 2817   0.361  35.466   1.819
30393W        W 2818  10.815  17.099  12.515
30394W        W 2819  26.435  38.090  12.405
30395W        W 2820  21.664  40.456  11.150
30396W        W 2821   5.411   5.750   1.471
30397W        W 2822  21.522  20.699  12.892
30398W        W 2823  30.037  23.580  12.553
30399W        W 2824  25.265  32.436   0.437
30400W        W 2825  13.791   4.802  13.876
30401W        W 2826   8.419  31.982  14.407
30402W        W 2827  15.048  44.255  14.798
30403W        W 2828  23.007  10.690  12.921
30404W        W 2829  15.056  44.807   4.202
30405W        W 2830  23.258  30.542   0.126
30406W        W 2831  17.051  19.725  14.597
30407W        W 2832  39.034  22.910  14.950
30408W        W 2833  36.939  34.342  12.499
30409W        W 2834  38.847  30.881  13.009
30410W        W 2835  28.422  11.236  10.906
30411W        W 2836   6.235  40.485   0.389
30412W        W 2837  19.135  30.222  14.736
30413W        W 2838  25.507   7.945  14.297
30414W        W 2839  21.556  44.207   0.042
30415W        W 2840  40.693  37.341   3.856
30416W        W 2841  25.789  39.981  10.805
30417W        W 2842  32.524  11.363  12.934
30418W        W 2843  13.242  37.667   1.624
30419W        W 2844   6.265   6.479  12.944
30420W        W 2845  10.682   3.852  13.070
30421W        W 2846  30.599  11.740  14.536
30422W        W 2847  43.351  24.972   1.760
30423W        W 2848  26.145  29.920   2.372
30424W        W 2849  11.331   5.020  11.906
30425W        W 2850  32.092  35.888   2.795
30426W        W 2851  30.941  16.709  13.769
30427W        W 2852  24.977  40.650   2.362
30428W        W 2853  44.758  21.609   3.778
30429W        W 2854  25.062   6.122  11.510
30430W        W 2855  13.176  28.055  12.490
30431W        W 2856   8.364  39.688  13.847
30432W        W 2857  31.872  30.592   2.616
30433W        W 2858  42.190  15.522   3.746
30434W        W 2859  29.427  44.174   3.123
30435W        W 2860   1.911   6.873  14.526
30436W        W 2861  33.098   6.040  12.803
30437W        W 2862  14.121   0.994   1.262
30438W        W 2863  10.381  39.095  11.073
30439W        W 2864   9.132   2.565  11.705
30440W        W 2865  11.559  41.289   0.299
30441W        W 2866  12.401   4.002   2.315
30442W        W 2867  22.792   7.794   3.690
30443W        W 2868  36.033  20.752  13.102
30444W        W 2869  41.489  33.198  11.935
30445W        W 2870  35.656  44.755  11.212
30446W        W 2871   4.186  36.883   1.837
30447W        W 2872  10.697  42.099   0.807
30448W        W 2873   6.349  31.255   2.348
30449W        W 2874  14.586   5.372   0.296
30450W        W 2875  38.932  23.938   4.562
30451W        W 2876  37.129  26.244  12.069
30452W        W 2877   6.842  43.493  11.086
30453W        W 2878  19.511  27.255   2.152
30454W        W 2879   0.908   2.755  13.552
30455W        W 2880  31.930   2.266   2.764
30456W        W 2881   6.630  16.160   3.400
30457W        W 2882  43.509   6.446   0.621
30458W        W 2883  31.085  43.964  14.975
30459W        W 2884  13.335   0.467   1.370
30460W        W 2885  20.230  19.639  14.380
30461W        W 2886  35.954   5.419   1.443
30462W        W 2887  13.379   5.709  11.181
30463W        W 2888  10.810   4.133   3.375
30464W        W 2889  40.459   5.875   4.545
30465W        W 2890  29.005  43.040   4.565
30466W        W 2891  25.083  31.438   0.831
30467W        W 2892  19.165  29.739   3.961
30468W        W 2893  41.300  33.765  11.800
30469W        W 2894  31.098  23.050   3.372
30470W        W 2895  33.243   3.852  12.213
30471W        W 2896  36.516  20.105   1.988
30472W        W 2897   1.211  26.201  12.254
30473W        W 2898  41.320  32.881   4.515
30474W        W 2899  17.560  22.193  12.845
30475W        W 2900  24.081  31.325  10.993
30476W        W 2901  40.918  13.367   4.797
30477W        W 2902  34.435  44.376  11.665
30478W        W 2903  12.385  43.689  14.411
30479W        W 2904  34.843  41.019   2.185
30480W        W 2905  21.970  22.581  10.599
30481W        W 2906  13.920  39.982  11.620
30482W        W 2907  12.356  21.515   5.066
30483W        W 2908  23.543  32.282  11.990
30484W        W 2909  29.711  33.526  12.991
30485W        W 2910   3.944   7.363   1.697
30486W        W 2911  15.614   8.103  14.876
30487W        W 2912  44.288  19.229   3.663
30488W        W 2913  29.371  41.042   5.075
30489W        W 2914   2.122   9.689  11.565
30490W        W 2915  40.936  19.119  13.373
30491W        W 2916  37.409   0.834   0.707
30492W        W 2917  38.382  20.588  12.181
30493W        W 2918  25.742  12.129   0.933
30494W        W 2919  31.665   3.301  14.047
30495W        W 2920  30.484  36.632   4.221
30496W        W 2921  26.256  24.676  12.427
30497W        W 2922   0.752  37.706   5.358
30498W        W 2923  24.430   0.621  13.469
30499W        W 2924  22.198  35.033   4.633
30500W        W 2925  29.123  41.423  10.246
30501W        W 2926   6.959  18.552   2.757
30502W        W 2927  12.235  20.555   0.771
30503W        W 2928  14.136  33.718  10.753
30504W        W 2929  15.648  17.121   4.603
30505W        W 2930  26.537  18.067   0.715
30506W        W 2931  23.722  36.494  12.940
30507W        W 2932  27.557  21.990   3.596
30508W        W 2933  24.575  29.586  11.200
30509W        W 2934  40.810  38.563  10.590
30510W        W 2935  34.400  23.067   1.260
30511W        W 2936   1.351  28.488   0.522
30512W        W 2937  14.231  38.560  12.418
30513W        W 2938  34.427  27.648   1.791
30514W        W 2939  14.363   6.402   5.065
30515W        W 2940  44.790  11.850   4.281
30516W        W 2941   0.890  21.784  12.543
30517W        W 2942  40.298  19.223  14.080
30518W        W 2943  27.965  10.818  10.444
30519W        W 2944  30.568  21.353   0.459
30520W        W 2945   3.933   9.372   1.329
30521W        W 2946  30.573  29.171  11.186
30522W        W 2947  16.001  22.986  12.130
30523W        W 2948  31.480  27.510  14.747
30524W        W 2949  22.488  33.121  11.846
30525W        W 2950  12.269  18.985   4.712
30526W        W 2951  30.508  30.487  10.706
30527W        W 2952  31.284  22.100   0.368
30528W        W 2953  31.828  43.918  10.753
30529W        W 2954  26.448  15.643   1.152
30530W        W 2955  15.544  33.807  13.913
30531W        W 2956   2.765  25.995  14.745
30532W        W 2957  24.628   3.034   4.663
30533W        W 2958  29.540  33.583   5.401
30534W        W 2959   5.025   4.498  12.924
30535W        W 2960  40.014  36.587  14.244
30536W        W 2961  30.135  41.769   5.705
30537W        W 2962  28.606  42.467  14.033
30538W        W 2963  18.393   7.317   3.233
30539W        W 2964  34.126  37.016   3.710
30540W        W 2965  17.718  35.092   9.924
30541W        W 2966   1.758  40.857   2.839
30542W        W 2967  22.231  31.018  13.315
30543W        W 2968  23.204  15.873  10.873
30544W        W 2969   8.880  36.919  12.096
30545W        W 2970   9.758  19.254  10.618
30546W        W 2971  31.436  24.079  14.753
30547W        W 2972  38.111  25.639   0.529
30548W        W 2973  36.322  29.052  11.423
30549W        W 2974  12.643   0.634  12.126
30550W        W 2975   8.209   4.762  14.920
30551W        W 2976  30.168   9.556  13.059
30552W        W 2977   8.213   5.483   1.774
30553W        W 2978  44.933  32.800  13.774
30554W        W 2979   6.254  43.050   0.042
30555W        W 2980  15.798  22.244   2.379
30556W        W 2981  17.805  43.044  13.209
30557W        W 2982  24.236  41.902  13.607
30558W        W 2983  36.988  28.656  11.262
30559W        W 2984  25.645  30.371   3.175
30560W        W 2985  44.435  35.398  14.457
30561W        W 2986  39.779  30.964   3.284
30562W        W 2987  27.223  32.708   4.145
30563W        W 2988  42.483  22.575  14.244
30564W        W 2989  36.973  38.887  10.606
30565W        W 2990   9.855  43.974   1.858
30566W        W 2991  41.258  29.471  13.306
30567W        W 2992   7.133  16.022  14.774
30568W        W 2993  24.335  15.406  11.126
30569W        W 2994  38.857  14.532   1.324
30570W        W 2995  35.667  43.073  10.826
30571W        W 2996  31.953  28.177   0.265
30572W        W 2997   8.634  26.057   2.291
30573W        W 2998  18.783  13.507  11.288
30574W        W 2999  44.841  32.091   3.091
30575W        W 3000   5.920  20.504  13.501
30576W        W 3001  28.910  44.009   4.886
30577W        W 3002  14.506   3.924  11.187
30578W        W 3003  42.696  12.110   1.768
30579W        W 3004  18.793  30.368   2.366
30580W        W 3005  42.448  14.044   4.631
30581W        W 3006  36.283  38.855  13.035
30582W        W 3007  35.535  15.331   3.214
30583W        W 3008  21.170  14.667  11.992
30584W        W 3009   6.648  18.246   0.731
30585W        W 3010  31.566  31.166  11.018
30586W        W 3011   8.249   4.608  14.384
30587W        W 3012  18.042  37.389  11.528
30588W        W 3013  35.779  35.373  11.152
30589W        W 3014  35.565  25.767   3.828
30590W        W 3015  37.933   0.102  11.273
30591W        W 3016   2.371   6.454  10.981
30592W        W 3017  36.413  12.600   5.178
30593W        W 3018  32.381  41.822   4.116
30594W        W 3019  27.314  23.991   1.380
30595W        W 3020  17.260   2.478  13.088
30596W        W 3021   7.145  39.359   3.878
30597W        W 3022  21.765  15.012   3.246
30598W        W 3023  32.763  31.603  13.834
30599W        W 3024  18.517  36.981   1.335
30600W        W 3025  24.663  33.073   0.044
30601W        W 3026   9.431  21.298  11.622
30602W        W 3027  17.626  18.358   1.699
30603W        W 3028   9.601  44.869  12.053
30604W        W 3029  10.791   2.136   3.301
30605W        W 3030  33.338  44.832   1.332
30606W        W 3031  24.113  17.969   2.239
30607W        W 3032  34.894  36.800   2.197
30608W        W 3033   2.864   0.832  14.995
30609W        W 3034  29.173  24.588   0.489
30610W        W 3035  10.218  12.130   3.440
30611W        W 3036  17.969  26.123  14.022
30612W        W 3037   8.693   9.350  13.892
30613W        W 3038  13.681   6.834   1.837
30614W        W 3039  28.201   7.245   9.672
30615W        W 3040  12.842  16.689   2.370
30616W        W 3041  36.521  11.086   1.172
30617W        W 3042  11.927  42.344   4.806
30618W        W 3043  30.531  14.328  13.675
30619W        W 3044   5.029  40.481  11.044
30620W        W 3045   4.679  13.691  10.604
30621W        W 3046  40.052  14.128   1.418
30622W        W 3047  43.966  40.445  13.748
30623W        W 3048   2.474  31.079   1.323
30624W        W 3049  12.032  36.126  13.485
30625W        W 3050   3.880  25.482   2.825
30626W        W 3051  38.887  40.075  14.481
30627W        W 3052  31.111  12.102   1.326
30628W        W 3053   9.156  35.332  12.070
30629W        W 3054  12.366  31.373   1.222
30630W        W 3055  33.830   2.323  11.913
30631W        W 3056  41.531  10.264   3.769
30632W        W 3057  18.654   8.776  13.866
30633W        W 3058   5.438  28.907   0.860
30634W        W 3059  22.610   4.670  14.394
30635W        W 3060  20.062  44.266   2.378
30636W        W 3061  10.385  43.296   3.686
30637W        W 3062  16.788   2.284  13.101
30638W        W 3063   9.681  20.211   4.457
30639W        W 3064   8.908   8.162   0.497
30640W        W 3065  23.177   6.632   3.771
30641W        W 3066  20.805  29.614  14.791
30642W        W 3067  21.482  37.114   1.487
30643W        W 3068   8.474   0.484  12.617
30644W        W 3069  33.484  14.131   0.902
30645W        W 3070  33.065  35.397  13.505
30646W        W 3071   3.465   8.583   0.368
30647W        W 3072  36.097   6.291  14.799
30648W        W 3073  44.470  11.067   4.579
30649W        W 3074   8.056  35.743  14.651
30650W        W 3075  11.384  11.755   3.960
30651W        W 3076  44.493  12.795  10.958
30652W        W 3077  27.128  11.808  11.139
30653W        W 3078  12.422  25.676  11.594
30654W        W 3079  11.254  22.004   1.434
30655W        W 3080  17.742  39.329   2.224
30656W        W 3081  30.171  29.921   3.032
30657W        W 3082  28.860  34.069   1.869
30658W        W 3083  41.822  43.479   1.375
30659W        W 3084  15.907  41.208  10.665
30660W        W 3085  23.211  11.159  12.956
30661W        W 3086  16.580  28.127   4.961
30662W        W 3087  11.543  17.171   3.755
30663W        W 3088   5.981  27.148  14.492
30664W        W 3089  29.868   2.540   1.732
30665W        W 3090  21.632  10.440   3.666
30666W        W 3091  23.037  31.550  14.182
30667W        W 3092   5.969   6.768   1.846
30668W        W 3093  44.568  31.857  13.870
30669W        W 3094  19.846  21.889   0.402
30670W        W 3095  41.076  25.737   0.004
30671W        W 3096   3.245  42.162   1.037
30672W        W 3097   8.444  38.223  14.081
30673W        W 3098  29.869  31.326  11.002
30674W        W 3099   2.913  37.546  13.116
30675W        W 3100  34.108  21.120  10.763
30676W        W 3101  39.386  40.900   3.609
30677W        W 3102  38.886  21.215   2.715
30678W        W 3103  36.604  42.022   3.362
30679W        W 3104  27.166  28.000  13.383
30680W        W 3105  16.718  34.000   1.367
30681W        W 3106   7.773  21.057   3.212
30682W        W 3107  12.429  41.902   1.940
30683W        W 3108  33.295  31.880   3.045
30684W        W 3109  31.658   7.104  10.463
30685W        W 3110  29.921  23.784   9.919
30686W        W 3111   2.990  22.132   3.329
30687W        W 3112  41.977   6.983   4.791
30688W        W 3113   7.395  35.991  14.069
30689W        W 3114   9.379   5.346  10.771
30690W        W 3115  33.370  33.017  14.748
30691W        W 3116  35.327  35.626  11.025
30692W        W 3117  16.544   9.288  13.872
30693W        W 3118  41.544  10.249  10.316
30694W        W 3119  13.462  12.057   4.939
30695W        W 3120  34.943   5.165   1.439
30696W        W 3121  34.320  17.633   2.880
30697W        W 3122  35.487  35.271   1.971
30698W        W 3123  25.073  33.152   2.655
30699W        W 3124  42.065  39.403   1.262
30700W        W 3125  25.831  29.491   1.366
30701W        W 3126  21.308   0.023   3.384
30702W        W 3127  29.967  42.993  11.577
30703W        W 3128   3.160  36.424  11.473
30704W        W 3129   7.359  13.833   0.288
30705W        W 3130  23.213   2.154  12.329
30706W        W 3131   5.407  23.990  10.941
30707W        W 3132  33.629  20.603   1.796
30708W        W 3133  42.605  36.765  14.341
30709W        W 3134  37.122  23.589   0.662
30710W        W 3135  22.436  29.166  13.535
30711W        W 3136  37.355  20.464   4.765
30712W        W 3137  20.100  44.889   4.757
30713W        W 3138  37.036  38.969  11.642
30714W        W 3139   7.300  22.493  13.474
30715W        W 3140  16.134   0.028  12.963
30716W        W 3141   7.928  22.596   4.482
30717W        W 3142  15.644   6.497   2.816
30718W        W 3143  22.613  44.235   2.079
30719W        W 3144  21.613   2.310  14.858
30720W        W 3145  18.729   3.853   0.179
30721W        W 3146  23.435  37.891  12.479
30722W        W 3147  23.477  31.942   4.982
30723W        W 3148  24.794   1.488  13.505
30724W        W 3149  22.754  43.317  10.350
30725W        W 3150   9.617  17.960   4.018
30726W        W 3151  26.110  35.364  11.010
30727W        W 3152  12.408  22.637  10.388
30728W        W 3153  43.801   2.928  13.941
30729W        W 3154  33.555  32.015  12.973
30730W        W 3155  40.263  37.276   3.613
30731W        W 3156   0.914  32.792  14.949
30732W        W 3157  22.831  24.212   4.341
30733W        W 3158  21.220  43.546   1.242
30734W        W 3159  20.791  33.361  14.289
30735W        W 3160  21.915  27.946   4.894
30736W        W 3161  37.709  15.315   1.687
30737W        W 3162  16.143   1.024  14.228
30738W        W 3163  36.305  18.445  12.794
30739W        W 3164  21.582   8.134   4.728
30740W        W 3165  42.542  10.139   2.583
30741W        W 3166   6.676  43.913  13.295
30742W        W 3167  21.739  37.027   0.434
30743W        W 3168  32.214  35.448  10.599
30744W        W 3169  20.251  23.205   4.392
30745W        W 3170   5.966  39.100   1.029
30746W        W 3171   6.069  36.720   2.086
30747W        W 3172   9.743   3.404   4.833
30748W        W 3173   1.126  16.356   1.169
30749W        W 3174  43.438  24.251  11.492
30750W        W 3175  32.109  41.651  14.130
30751W        W 3176  42.054  10.883  12.829
30752W        W 3177   3.817   2.223   2.322
30753W        W 3178   0.164  11.089   3.227
30754W        W 3179  31.423   3.764   2.321
30755W        W 3180  32.033   4.905  12.111
30756W        W 3181  31.231  12.197   3.893
30757W        W 3182  33.261  17.328   2.437
30758W        W 3183  41.850  21.566   0.519
30759W        W 3184  29.279  44.898  14.491
30760W        W 3185  37.574   3.834   3.769
30761W        W 3186  11.417  41.863  13.386
30762W        W 3187   1.467  37.325   0.516
30763W        W 3188  20.923   5.382   4.094
30764W        W 3189  32.511  35.544   0.773
30765W        W 3190  39.433  40.269   4.280
30766W        W 3191   4.250  13.149  13.025
30767W        W 3192  44.203   9.931   2.182
30768W        W 3193  41.500  32.651  10.766
30769W        W 3194  22.221   8.001   2.075
30770W        W 3195  37.675  42.999  14.079
30771W        W 3196  42.784  23.095  10.994
30772W        W 3197  28.432  27.064   3.713
30773W        W 3198  20.222  16.798   4.033
30774W        W 3199  28.396  43.402  12.167
30775W        W 3200  34.837  28.339   1.286
30776W        W 3201   5.401  11.283   3.745
30777W        W 3202  43.320   2.090  10.725
30778W        W 3203  19.834  27.340  13.530
30779W        W 3204  11.170  29.744   2.128
30780W        W 3205  39.891  38.129  12.926
30781W        W 3206  29.172  36.581  12.335
30782W        W 3207  19.459  27.580   2.744
30783W        W 3208  35.542  37.689  10.919
30784W        W 3209  21.307  19.585   4.810
30785W        W 3210   7.305   0.474   3.192
30786W        W 3211  16.160  28.464   1.289
30787W        W 3212   8.629   7.310  12.943
30788W        W 3213   5.972  34.541   3.699
30789W        W 3214  36.358  19.379  14.573
30790W        W 3215   0.110  33.991   5.373
30791W        W 3216  24.309   6.583   4.265
30792W        W 3217  21.024  35.911   4.400
30793W        W 3218  10.656   5.667  11.240
30794W        W 3219   5.707  43.387   3.336
30795W        W 3220  23.184   5.667  12.934
30796W        W 3221  17.172  15.625   4.317
30797W        W 3222  13.239  33.141  10.804
30798W        W 3223  41.651  27.800   2.784
30799W        W 3224  14.320  43.390   0.942
30800W        W 3225  27.597  38.594  11.110
30801W        W 3226  38.867  11.080   2.503
30802W        W 3227  19.568  21.494  13.903
30803W        W 3228   1.814  24.691   0.236
30804W        W 3229  11.711  27.321   3.656
30805W        W 3230   9.767   3.726  14.333
30806W        W 3231  34.647  37.137  13.275
30807W        W 3232  30.436  39.869   4.458
30808W        W 3233  19.639  10.121  14.733
30809W        W 3234  29.741  29.250   3.685
30810W        W 3235  39.052  37.054  14.020
30811W        W 3236   7.846  24.923  11.218
30812W        W 3237  44.477  43.310  10.813
30813W        W 3238  42.666   9.098   1.446
30814W        W 3239  23.739  13.070  12.789
30815W        W 3240  32.920  27.769   4.538
30816W        W 3241   1.868  23.099   0.255
30817W        W 3242  38.725  13.392  13.505
30818W        W 3243  38.041  34.854   2.271
30819W        W 3244  16.382  21.291  10.694
30820W        W 3245  19.262  42.936  11.846
30821W        W 3246  34.045  42.852   2.318
30822W        W 3247   7.457  44.016  12.986
30823W        W 3248  17.115  36.035   3.897
30824W        W 3249  23.443  42.370  13.900
30825W        W 3250   5.371  18.123   0.324
30826W        W 3251  35.133  41.461  10.044
30827W        W 3252   3.474  17.717   4.615
30828W        W 3253  26.709  38.123   3.610
30829W        W 3254  21.079   3.491  10.846
30830W        W 3255   4.578  22.962   2.352
30831W        W 3256   0.280  41.105   1.862
30832W        W 3257  44.046  34.313  13.096
30833W        W 3258  44.951   0.837  13.587
30834W        W 3259  24.889  13.626  13.399
30835W        W 3260  31.967  40.629  13.001
30836W        W 3261  30.106  36.936  12.566
30837W        W 3262  29.124   8.487   1.881
30838W        W 3263   3.573  21.485   4.640
30839W        W 3264   6.470  43.162  14.451
30840W        W 3265  30.761  28.137  12.606
30841W        W 3266  36.330  12.206  12.866
30842W        W 3267  18.237  18.215  10.729
30843W        W 3268  11.742  40.793   3.922
30844W        W 3269  30.581   2.967  10.923
30845W        W 3270  15.806  43.528   1.677
30846W        W 3271  42.050  25.457   2.410
30847W        W 3272  40.333  33.205  10.601
30848W        W 3273  32.623  22.205   3.406
30849W        W 3274  15.632  41.296   4.047
30850W        W 3275  27.609   8.823  12.446
30851W        W 3276   0.256  12.317  12.146
30852W        W 3277  28.116  40.700  11.584
30853W        W 3278  17.137   8.329  10.970
30854W        W 3279  31.829   1.513   0.831
30855W        W 3280  24.916  14.870   2.781
30856W        W 3281  12.104   5.888   0.279
30857W        W 3282  20.818  33.430  11.932
30858W        W 3283  19.586   0.786   4.121
30859W        W 3284  12.051  20.960   2.591
30860W        W 3285   5.288  41.869  13.354
30861W        W 3286   0.920   1.843  13.519
30862W        W 3287   4.502  34.437   0.914
30863W        W 3288  28.506  20.989   2.243
30864W        W 3289  44.522  17.365  13.063
30865W        W 3290  29.990  13.231   3.090
30866W        W 3291  10.751  37.755  12.242
30867W        W 3292  38.991  40.423   4.515
30868W        W 3293  26.255   0.531   0.527
30869W        W 3294  43.681  23.255  11.481
30870W        W 3295   6.313   7.294  10.691
30871W        W 3296  20.643   0.817  13.034
30872W        W 3297   8.411  29.430   0.579
30873W        W 3298  26.825  32.563  11.207
30874W        W 3299   6.853   5.119   1.173
30875W        W 3300  19.574  26.209   3.110
30876W        W 3301  33.089  38.285   0.247
30877W        W 3302  11.363  37.723   3.297
30878W        W 3303  17.470  31.809  14.421
30879W        W 3304  22.223  22.300  13.540
30880W        W 3305  13.844  19.532   2.465
30881W        W 3306  38.819  36.746   2.608
30882W        W 3307  36.383   1.641   1.939
30883W        W 3308  34.246  18.588   4.324
30884W        W 3309  36.895  33.936   4.576
30885W        W 3310  34.433  12.825  13.543
30886W        W 3311  16.986  21.585   3.661
30887W        W 3312  29.417  19.084   2.986
30888W        W 3313  37.596  27.673   9.918
30889W        W 3314  35.361  12.268  11.951
30890W        W 3315  29.505  20.162   0.870
30891W        W 3316  35.955  43.580   1.493
30892W        W 3317  30.190  19.428  10.602
30893W        W 3318  25.684  38.590   1.711
30894W        W 3319  25.353  43.497  11.095
30895W        W 3320  31.969  43.852   0.345
30896W        W 3321  16.890  34.527   5.041
30897W        W 3322  34.921  35.993   0.300
30898W        W 3323  32.034   5.199   4.073
30899W        W 3324  36.558   6.166   2.769
30900W        W 3325  24.962  37.820   3.399
30901W        W 3326  30.630  43.608   1.342
30902W        W 3327  39.461  19.722   1.805
30903W        W 3328   2.692  25.151  12.192
30904W        W 3329  40.283   7.291   1.834
30905W        W 3330   6.282  33.499  13.526
30906W        W 3331  43.092  25.148   4.996
30907W        W 3332  23.115  42.550   2.675
30908W        W 3333   2.305  15.316  14.899
30909W        W 3334  33.057  32.302   2.801
30910W        W 3335  37.884  25.596  13.842
30911W        W 3336  42.895  43.818  14.892
30912W        W 3337   3.454  23.236  12.886
30913W        W 3338  26.567  43.747  12.048
30914W        W 3339   8.752  20.574   4.568
30915W        W 3340   5.153  36.564  11.887
30916W        W 3341  14.354   9.414   2.304
30917W        W 3342  28.688  16.489   0.725
30918W        W 3343  14.746  38.218  10.870
30919W        W 3344  33.454  43.911  12.592
30920W        W 3345   6.911  33.815   0.758
30921W        W 3346   8.001  26.050  14.901
30922W        W 3347  17.803  14.771  11.977
30923W        W 3348  16.053  22.722   3.961
30924W        W 3349  12.278  35.182  14.515
30925W        W 3350   8.236  18.112   2.695
30926W        W 3351  19.276  18.775   3.748
30927W        W 3352   0.819  13.107   2.912
30928W        W 3353  42.442   2.222   2.736
30929W        W 3354  30.253  37.764   2.329
30930W        W 3355  23.222  29.758  12.966
30931W        W 3356  40.592  19.032  14.481
30932W        W 3357  39.396  40.746   4.596
30933W        W 3358  32.039  34.764  11.041
30934W        W 3359  44.536  43.428   2.315
30935W        W 3360  28.475   4.734   9.727
30936W        W 3361  10.282  32.980   1.871
30937W        W 3362  17.533  30.671  14.278
30938W        W 3363  19.090  11.928   2.691
30939W        W 3364  34.581   0.765  12.069
30940W        W 3365  36.411  30.754   2.377
30941W        W 3366  31.478  33.714  11.491
30942W        W 3367  22.643   0.435   0.281
30943W        W 3368  33.534  19.490   4.555
30944W        W 3369  41.704   4.950   2.779
30945W        W 3370  39.163  19.540   0.794
30946W        W 3371  25.004  12.133  13.849
30947W        W 3372   1.276  15.200  14.710
30948W        W 3373   7.703  21.248  11.159
30949W        W 3374  18.723  34.932  10.632
30950W        W 3375  38.461  34.815   2.768
30951W        W 3376  14.780  15.816  13.148
30952W        W 3377  23.510   4.545   4.723
30953W        W 3378  16.087  16.043  13.942
30954W        W 3379   7.564  10.642   3.217
30955W        W 3380  43.041  14.780  11.109
30956W        W 3381  37.235  30.324   0.150
30957W        W 3382  16.620  16.771  13.806
30958W        W 3383   8.784  29.138   1.670
30959W        W 3384  32.604  36.497  11.572
30960W        W 3385   2.748  24.750   0.275
30961W        W 3386   8.685  34.012  10.456
30962W        W 3387  44.060  29.674   3.295
30963W        W 3388   3.867  27.199   2.109
30964W        W 3389  12.307  15.908  14.869
30965W        W 3390  40.930  20.094  12.185
30966W        W 3391  43.592  41.263  11.438
30967W        W 3392  14.319  38.322   2.630
30968W        W 3393  21.048  24.232   0.276
30969W        W 3394  19.057   5.784   1.640
30970W        W 3395   4.447  40.943   4.586
30971W        W 3396  39.848   8.007  12.979
30972W        W 3397   5.187  11.643   3.450
30973W        W 3398  26.106  33.874   4.123
30974W        W 3399  33.398   7.873   3.555
30975W        W 3400  24.074  19.519   4.523
30976W        W 3401  12.879  12.327  13.324
30977W        W 3402  39.888  19.033   0.065
30978W        W 3403  22.986  41.476  10.619
30979W        W 3404   8.653  37.385  12.132
30980W        W 3405  22.439  43.505  13.158
30981W        W 3406   8.871  13.367  13.379
30982W        W 3407  38.267  16.246   4.541
30983W        W 3408  19.936   8.679   4.588
30984W        W 3409  20.699  15.117   0.828
30985W        W 3410  42.589  35.593  11.435
30986W        W 3411  11.421   4.855  14.903
30987W        W 3412  39.747  38.119   0.156
30988W        W 3413   9.929  38.398   0.167
30989W        W 3414  29.398  10.196  12.529
30990W        W 3415   7.930  27.234   3.355
30991W        W 3416  19.069  20.817  14.067
30992W        W 3417  17.976  11.398  12.116
30993W        W 3418  13.569  15.859   1.412
30994W        W 3419  32.619  24.242   2.925
30995W        W 3420  44.227   2.652   3.762
30996W        W 3421  28.498  30.607   4.640
30997W        W 3422   4.752  23.865   1.340
30998W        W 3423  12.305  38.766   1.552
30999W        W 3424  15.200  15.597  14.471
31000W        W 3425  35.664   6.217   5.199
31001W        W 3426  19.753  42.134   3.103
31002W        W 3427  15.221  11.082   2.302
31003W        W 3428  38.737   2.245  13.202
31004W        W 3429  10.543  33.931  14.465
31005W        W 3430  13.695  36.767  10.535
31006W        W 3431   9.671  17.076   3.855
31007W        W 3432   1.201  19.664  13.331
31008W        W 3433  37.611   1.779  12.013
31009W        W 3434  37.858  43.906  10.647
31010W        W 3435  28.744  18.275  13.631
31011W        W 3436  23.177  40.965  14.294
31012W        W 3437  31.724  37.326   0.925
31013W        W 3438  33.560   2.738  12.971
31014W        W 3439  16.343   9.749   3.418
31015W        W 3440   0.280  35.543  14.886
31016W        W 3441  13.795  34.391   1.867
31017W        W 3442  37.104  14.277   2.225
31018W        W 3443  32.899  25.090   0.909
31019W        W 3444  38.946  38.319  12.603
31020W        W 3445   2.347   7.296  14.082
31021W        W 3446  43.995  36.337   4.725
31022W        W 3447   0.284  37.250  11.895
31023W        W 3448  21.141  28.564  11.122
31024W        W 3449  40.206   2.853   0.175
31025W        W 3450  14.751  40.586  12.446
31026W        W 3451  43.451  43.265   0.193
31027W        W 3452   1.051  35.528  12.957
31028W        W 3453   0.265  37.799   1.726
31029W        W 3454   7.887  10.934  10.619
31030W        W 3455  11.608   5.252  14.617
31031W        W 3456  18.654  30.564   0.398
31032W        W 3457  26.506  23.623  11.697
31033W        W 3458  17.067   8.939   1.841
31034W        W 3459   8.223  15.402   4.720
31035W        W 3460   2.059  10.717   4.825
31036W        W 3461  25.041  20.812  12.988
31037W        W 3462  14.145  12.264   2.856
31038W        W 3463  43.924  41.564  14.664
31039W        W 3464  38.543  36.614   2.154
31040W        W 3465  38.560  34.984  12.701
31041W        W 3466  31.966  29.036   2.287
31042W        W 3467  35.813  44.412   2.187
31043W        W 3468  20.013  36.546   2.259
31044W        W 3469  10.073  22.010  14.687
31045W        W 3470  43.490   4.725   4.691
31046W        W 3471   0.256  38.881   3.088
31047W        W 3472  23.778  13.059   2.278
31048W        W 3473  21.155  24.444  11.987
31049W        W 3474  11.957   9.715   0.319
31050W        W 3475  22.463  40.200  10.532
31051W        W 3476  42.488  21.691  13.216
31052W        W 3477  37.554   5.201   2.465
31053W        W 3478  32.483  43.679   0.368
31054W        W 3479   1.737  34.442  14.411
31055W        W 3480  26.131  33.383  10.569
31056W        W 3481  28.950  17.509   4.515
31057W        W 3482   7.974  14.710   0.780
31058W        W 3483  15.584  17.589   2.272
31059W        W 3484  15.908  25.711   3.670
31060W        W 3485  17.045   5.351  14.456
31061W        W 3486  42.785   8.243  13.871
31062W        W 3487   7.740  32.209   2.197
31063W        W 3488   5.620  24.415  11.194
31064W        W 3489  16.071  35.957  11.079
31065W        W 3490  12.004  43.428  10.681
31066W        W 3491   9.230  13.380   2.892
31067W        W 3492   6.862  26.639  12.200
31068W        W 3493  33.433  24.301  11.784
31069W        W 3494  12.592   8.635  10.971
31070W        W 3495   4.683  24.403   4.203
31071W        W 3496   1.359  28.613  10.790
31072W        W 3497  38.342  20.148  12.999
31073W        W 3498  10.279  13.438  13.309
31074W        W 3499   5.700  20.389   0.391
31075W        W 3500  43.884  33.671  10.495
31076W        W 3501  43.655  41.509  13.353
31077W        W 3502   3.981   0.885   0.513
31078W        W 3503  40.344  21.101   0.012
31079W        W 3504  23.726  26.757   1.435
31080W        W 3505   8.423  44.527   0.872
31081W        W 3506   6.891  14.926  13.829
31082W        W 3507  12.807  34.564   4.455
31083W        W 3508  12.076  21.621   4.641
31084W        W 3509  43.004  32.521  11.479
31085W        W 3510  28.861  29.149   1.226
31086W        W 3511  15.836   4.368  12.484
31087W        W 3512  35.487  27.330   0.417
31088W        W 3513  38.554  43.716  14.394
31089W        W 3514  22.928   8.108   4.103
31090W        W 3515  32.037   7.418  11.170
31091W        W 3516   2.511  19.274  11.582
31092W        W 3517  44.409  11.338  13.776
31093W        W 3518   0.359  16.728   2.250
31094W        W 3519  15.322  32.425  10.161
31095W        W 3520  17.062  36.641   3.146
31096W        W 3521  22.839  35.920  10.696
31097W        W 3522  33.703   5.422  12.236
31098W        W 3523  37.822  21.792  13.993
31099W        W 3524  24.401  29.573  11.686
31100W        W 3525  12.082  30.946   1.276
31101W        W 3526   0.219  25.538   2.179
31102W        W 3527  26.541  41.408   4.138
31103W        W 3528  25.981  41.670   2.385
31104W        W 3529  18.466   9.147   1.722
31105W        W 3530  33.630   4.231  10.565
31106W        W 3531   1.905  40.355   0.916
31107W        W 3532  19.132  43.201   1.191
31108W        W 3533  18.808  31.930   4.702
31109W        W 3534  19.938  33.085  10.677
31110W        W 3535   0.261  18.571   4.652
31111W        W 3536  42.066  32.436  12.101
31112W        W 3537  43.928  18.526  11.566
31113W        W 3538   0.379  22.713   3.554
31114W        W 3539  20.115  24.184   4.699
31115W        W 3540  12.140  11.266   0.165
31116W        W 3541  16.726   1.730   2.196
31117W        W 3542  25.554   8.317   4.662
31118W        W 3543   9.140  28.362   4.038
31119W        W 3544   9.269   5.742   4.536
31120W        W 3545  30.542   2.221  13.569
31121W        W 3546  34.123  10.286   2.653
31122W        W 3547  12.037   3.693  13.131
31123W        W 3548  39.521  10.266  10.757
31124W        W 3549  23.596  32.677  14.741
31125W        W 3550  43.871  18.079   2.863
31126W        W 3551  24.454  36.819   2.875
31127W        W 3552   7.785  39.838  10.594
31128W        W 3553  22.210   9.341   0.626
31129W        W 3554  25.748   5.394  14.361
31130W        W 3555  34.546  42.237   2.001
31131W        W 3556  22.643  31.635  13.847
31132W        W 3557  12.120   8.869  10.763
31133W        W 3558  11.725  44.040   2.779
31134W        W 3559   0.016  13.423  14.688
31135W        W 3560  24.961   4.690  12.407
31136W        W 3561  22.483  43.904  12.781
31137W        W 3562  11.667   2.769  14.867
31138W        W 3563  38.326  29.288   2.420
31139W        W 3564  19.046   7.955   2.141
31140W        W 3565   4.055  21.357   4.751
31141W        W 3566  17.424  33.434  14.397
31142W        W 3567  24.500  32.470   2.480
31143W        W 3568  43.459   1.824   2.423
31144W        W 3569   7.294  18.709   0.328
31145W        W 3570  18.193  24.180   3.248
31146W        W 3571  27.170  30.590   1.921
31147W        W 3572  21.260   5.141  14.774
31148W        W 3573  13.363  31.447  13.422
31149W        W 3574  27.892   0.952   1.662
31150W        W 3575  37.324   6.954   2.876
31151W        W 3576  41.924  20.588  12.494
31152W        W 3577   6.637  13.311   0.004
31153W        W 3578  14.846  24.662  12.935
31154W        W 3579  28.046  32.896   1.950
31155W        W 3580  15.154  27.942  11.931
31156W        W 3581  41.626  41.311  14.537
31157W        W 3582   0.818   6.526  11.063
31158W        W 3583  22.791   9.785  13.327
31159W        W 3584  22.771  26.192   2.275
31160W        W 3585   4.808  30.938   4.603
31161W        W 3586   1.344  33.442  13.625
31162W        W 3587  32.301  12.956   2.981
31163W        W 3588  33.782   0.535   3.759
31164W        W 3589  17.682  27.547   4.658
31165W        W 3590  44.293  35.576   1.817
31166W        W 3591   1.088  25.636   2.740
31167W        W 3592  19.229  41.689  11.970
31168W        W 3593  21.599  18.990   2.218
31169W        W 3594  16.713  34.841   5.434
31170W        W 3595  31.469  41.895  10.615
31171W        W 3596  14.174  29.467   0.932
31172W        W 3597  43.794  38.881  11.430
31173W        W 3598   8.112  20.464   3.686
31174W        W 3599  21.368  20.165  14.887
31175W        W 3600  23.023   5.923   2.054
31176W        W 3601   7.603  38.935   3.208
31177W        W 3602   5.291  44.848   3.116
31178W        W 3603  19.084  15.749   0.457
31179W        W 3604  30.594  29.019   4.717
31180W        W 3605  42.446   0.255   1.272
31181W        W 3606  11.045  39.933   3.644
31182W        W 3607  43.903   1.946   2.649
31183W        W 3608   4.806  36.384   0.759
31184W        W 3609   6.514  13.915  11.204
31185W        W 3610  22.134  17.258   3.707
31186W        W 3611   0.048  15.228  14.000
31187W        W 3612  36.326  14.402  12.610
31188W        W 3613  26.085   4.788   3.198
31189W        W 3614  15.509  17.531  12.574
31190W        W 3615  24.004  36.524   0.389
31191W        W 3616  31.648  24.099   4.049
31192W        W 3617   4.841  20.592  13.732
31193W        W 3618  22.682  41.767  10.936
31194W        W 3619  38.446   3.941  14.859
31195W        W 3620  15.434  42.163   2.825
31196W        W 3621  39.782  15.119  11.184
31197W        W 3622   6.113  35.983   2.788
31198W        W 3623  24.447  22.128  11.060
31199W        W 3624  32.503  24.928  11.064
31200W        W 3625  32.190  31.404  12.549
31201W        W 3626  27.234  13.848  14.932
31202W        W 3627  33.439  11.387   3.803
31203W        W 3628  15.746  39.672   4.736
31204W        W 3629   6.534  32.931  10.717
31205W        W 3630   4.165  42.155  11.081
31206W        W 3631  42.916  15.217  13.116
31207W        W 3632  12.912  16.928  11.135
31208W        W 3633  27.737  27.522   2.719
31209W        W 3634   6.871   7.928   1.486
31210W        W 3635  20.269  26.067   0.395
31211W        W 3636  42.109   0.684  12.534
31212W        W 3637  42.768  14.411   0.249
31213W        W 3638   0.245  17.197  11.592
31214W        W 3639  41.943  36.687   0.075
31215W        W 3640  18.465  10.590  14.034
31216W        W 3641   5.616  27.601   0.610
31217W        W 3642  30.906  39.974   4.127
31218W        W 3643  11.728  18.500   3.328
31219W        W 3644   9.360   0.948  13.246
31220W        W 3645  35.477  30.604  14.405
31221W        W 3646  37.937   1.984  13.862
31222W        W 3647  36.099  10.242   4.573
31223W        W 3648  16.802  43.375   4.569
31224W        W 3649  16.484  15.621  11.100
31225W        W 3650  33.110  28.185   3.327
31226W        W 3651  19.845  11.457  10.953
31227W        W 3652  30.700  13.849   1.361
31228W        W 3653   5.348   2.674  12.950
31229W        W 3654   8.788   5.464  14.460
31230W        W 3655  34.622  34.603   4.801
31231W        W 3656   0.971  18.221  13.832
31232W        W 3657   0.446  25.923   2.460
31233W        W 3658  23.183  17.761   1.722
31234W        W 3659  30.840  33.941  13.090
31235W        W 3660  12.591   6.887   3.070
31236W        W 3661  11.678  35.933   3.521
31237W        W 3662  33.455  24.070   3.902
31238W        W 3663   6.897  16.328  11.588
31239W        W 3664  26.283  17.512   3.108
31240W        W 3665   7.925  31.770   0.323
31241W        W 3666  43.412  42.001  14.451
31242W        W 3667  36.750  34.220   1.351
31243W        W 3668  25.996  35.621   3.601
31244W        W 3669  24.475  32.395  13.342
31245W        W 3670  27.550  40.545  12.922
31246W        W 3671  12.604  30.110   0.814
31247W        W 3672   4.188   5.994  10.690
31248W        W 3673  30.413  29.625  12.410
31249W        W 3674  39.852   3.436  13.828
31250W        W 3675  17.063  10.679  11.892
31251W        W 3676  14.272  35.035  12.664
31252W        W 3677  12.412   8.693   2.350
31253W        W 3678  18.330   0.455  11.322
31254W        W 3679  44.051  36.074  11.640
31255W        W 3680  20.157  42.437  12.432
31256W        W 3681  44.289  26.085  12.989
31257W        W 3682  43.500  21.388  10.233
31258W        W 3683  25.665  17.602  13.996
31259W        W 3684  36.456  37.519   1.984
31260W        W 3685  35.839  34.014   2.180
31261W        W 3686  34.658   7.410  12.862
31262W        W 3687  22.266  36.386  11.180
31263W        W 3688  12.291  31.434  13.049
31264W        W 3689  33.659  38.221   3.281
31265W        W 3690  39.595  11.832   1.760
31266W        W 3691  13.163  25.647  12.102
31267W        W 3692   1.713  11.106  11.534
31268W        W 3693  31.445  33.459  13.997
31269W        W 3694  35.106  26.083  11.107
31270W        W 3695  41.245   8.305   1.871
31271W        W 3696  14.707  28.673  13.853
31272W        W 3697   6.019  17.711  14.448
31273W        W 3698  40.099  35.522  14.804
31274W        W 3699  16.220  35.155   1.843
31275W        W 3700  30.838  23.238   4.170
31276W        W 3701  22.799   4.627   2.732
31277W        W 3702  10.874  13.733   1.569
31278W        W 3703  26.788  21.993  12.027
31279W        W 3704  12.383  33.176  11.921
31280W        W 3705  28.527  31.127  12.884
31281W        W 3706  22.917  40.555   0.278
31282W        W 3707  31.356   9.557  14.708
31283W        W 3708  16.046   2.890   2.955
31284W        W 3709  27.961   3.198  10.795
31285W        W 3710   2.806  18.316  12.015
31286W        W 3711  32.946  23.993  13.147
31287W        W 3712  31.008  41.390   5.697
31288W        W 3713   1.557  35.056  10.824
31289W        W 3714   5.591  33.849  11.881
31290W        W 3715  35.135  37.092   0.986
31291W        W 3716  20.584  31.011   3.665
31292W        W 3717  24.167  44.519  10.958
31293W        W 3718  29.491  43.440   1.879
31294W        W 3719  10.882  41.237  13.365
31295W        W 3720  31.893  31.989   0.274
31296W        W 3721  34.384  42.448   3.907
31297W        W 3722   0.806   2.873   0.444
31298W        W 3723  26.552   0.576  14.596
31299W        W 3724  44.552  17.836  12.328
31300W        W 3725  37.187  31.781  10.029
31301W        W 3726   4.411  11.185   4.857
31302W        W 3727  30.629  22.926  11.570
31303W        W 3728  11.821   6.562   1.798
31304W        W 3729  38.374  22.663  14.026
31305W        W 3730  12.108  42.817   4.652
31306W        W 3731  11.664  37.580   1.293
31307W        W 3732  20.100   1.863  11.969
31308W        W 3733   9.319  34.823  13.652
31309W        W 3734  17.877  26.944  12.468
31310W        W 3735  13.024   3.234   3.695
31311W        W 3736  31.654  18.138  11.074
31312W        W 3737  16.569  32.502   4.574
31313W        W 3738  42.929  32.886  11.071
31314W        W 3739  10.173  39.286   1.455
31315W        W 3740  41.869  21.447  12.053
31316W        W 3741  22.574  26.934  12.489
31317W        W 3742   0.388   4.316  14.659
31318W        W 3743  19.154   8.341  11.846
31319W        W 3744  18.647   3.072   3.421
31320W        W 3745  17.615  18.993  12.988
31321W        W 3746  41.472  31.734  12.338
31322W        W 3747   1.475  10.878  10.959
31323W        W 3748  26.348  29.573   1.410
31324W        W 3749  26.092  29.678  13.565
31325W        W 3750   0.392  20.802  13.030
31326W        W 3751  10.778  32.566   0.854
31327W        W 3752  36.631  34.136  14.304
31328W        W 3753  14.705  27.169  14.269
31329W        W 3754   3.402  36.530  12.458
31330W        W 3755  36.779   2.434  11.023
31331W        W 3756  31.500   0.236   1.740
31332W        W 3757   9.205  12.610  13.181
31333W        W 3758   9.831  11.165  12.180
31334W        W 3759  18.407  24.317  13.994
31335W        W 3760  25.537   4.021  14.370
31336W        W 3761   1.846   5.272  14.453
31337W        W 3762  10.177  28.894  12.536
31338W        W 3763  36.342   1.063   0.879
31339W        W 3764  18.785  13.246  10.441
31340W        W 3765   0.547  36.496   0.189
31341W        W 3766  37.236  11.197  13.290
31342W        W 3767  36.504  31.574   0.888
31343W        W 3768  38.361  21.023  12.606
31344W        W 3769  12.425  42.367   4.667
31345W        W 3770   5.912   2.057  11.421
31346W        W 3771  26.925  34.447   3.201
31347W        W 3772  40.990  10.212  13.573
31348W        W 3773  15.996  15.652  12.384
31349W        W 3774  24.143  44.386   3.249
31350W        W 3775   4.375  23.042  14.827
31351W        W 3776  24.657   9.102   3.596
31352W        W 3777  25.587  39.116  14.299
31353W        W 3778  27.710   8.643   3.751
31354W        W 3779  41.942   2.773  12.665
31355W        W 3780  43.861  25.452   2.144
31356W        W 3781  28.979  41.287  12.104
31357W        W 3782  14.760  12.188  10.741
31358W        W 3783  12.683  13.187   2.753
31359W        W 3784  21.794   4.678  12.459
31360W        W 3785   5.381  18.111   1.208
31361W        W 3786   1.963   0.609  11.745
31362W        W 3787  11.452  23.153  14.915
31363W        W 3788  41.584  29.386  12.004
31364W        W 3789  31.999  18.732   2.289
31365W        W 3790  29.648  10.777   0.509
31366W        W 3791  20.488  41.758   1.459
31367W        W 3792  35.964   6.584   2.215
31368W        W 3793  32.373  15.663   2.878
31369W        W 3794  28.517  23.515   1.247
31370W        W 3795   4.866  25.557   4.576
31371W        W 3796  44.772  18.306  12.454
31372W        W 3797  27.250  39.637  14.389
31373W        W 3798  16.019  23.098  11.049
31374W        W 3799  43.779   3.298   2.324
31375W        W 3800  35.922  32.353  11.597
31376W        W 3801  11.809  14.141  12.006
31377W        W 3802  31.623  21.307   3.377
31378W        W 3803  43.331  34.170   3.208
31379W        W 3804  15.653  14.591   3.623
31380W        W 3805  43.283  24.541   3.382
31381W        W 3806  15.882  40.337   1.715
31382W        W 3807  33.388  14.025  11.648
31383W        W 3808  25.633  10.361   3.480
31384W        W 3809  25.671  25.230   4.245
31385W        W 3810  37.079  44.850   4.384
31386W        W 3811   9.666  37.934  14.435
31387W        W 3812  38.994  11.825   0.317
31388W        W 3813   2.781  44.446  14.919
31389W        W 3814  39.465  41.339  11.472
31390W        W 3815   8.786  33.532   4.809
31391W        W 3816  34.380   1.203  12.990
31392W        W 3817  14.633  26.038  10.703
31393W        W 3818  20.208  14.181   1.659
31394W        W 3819  23.999  13.367   1.869
31395W        W 3820  30.577  32.926  10.833
31396W        W 3821  23.418  33.978   0.994
31397W        W 3822  33.692  44.639   2.816
31398W        W 3823  11.383  23.593  13.008
31399W        W 3824  25.777  29.433   3.271
31400W        W 3825   5.512  34.937   1.693
31401W        W 3826  39.578  34.278  12.328
31402W        W 3827  26.505  36.303  11.639
31403W        W 3828  37.908   0.968  11.594
31404W        W 3829   4.510  27.207  14.676
31405W        W 3830   8.465  43.780  12.978
31406W        W 3831  34.451   2.639   4.100
31407W        W 3832  33.327  15.362  11.998
31408W        W 3833   2.759  22.803  13.180
31409W        W 3834  11.758  10.987  10.425
31410W        W 3835  24.105  32.707  10.415
31411W        W 3836  10.265  32.183  13.925
31412W        W 3837   4.141  41.739   2.736
31413W        W 3838   9.281  32.537   4.390
31414W        W 3839  21.117   4.023   3.575
31415W        W 3840   5.148   4.056  11.959
31416W        W 3841  28.260  12.377  11.543
31417W        W 3842  12.740  25.070  12.768
31418W        W 3843  27.645  35.105   3.573
31419W        W 3844  23.095  43.336   3.966
31420W        W 3845  27.772  19.841   3.263
31421W        W 3846  37.449  34.088   4.096
31422W        W 3847  32.923  19.083   1.319
31423W        W 3848  13.872  35.867   1.544
31424W        W 3849  23.980   2.756   1.113
31425W        W 3850  24.325  24.195  14.805
31426W        W 3851  14.062   8.668   2.834
31427W        W 3852  43.024   4.433  11.230
31428W        W 3853  43.726  12.454   2.744
31429W        W 3854  33.799  30.762   2.926
31430W        W 3855  36.402  33.303   4.984
31431W        W 3856  20.480   3.871  11.168
31432W        W 3857  40.348  20.875   4.032
31433W        W 3858  34.623  28.685  12.004
31434W        W 3859  24.968   6.779   1.249
31435W        W 3860  35.511  42.925   4.007
31436W        W 3861  39.083  20.415  14.947
31437W        W 3862   0.733  11.957   1.011
31438W        W 3863  24.573   7.266  10.716
31439W        W 3864  15.593  42.310   3.290
31440W        W 3865  23.529   6.336   1.287
31441W        W 3866  36.892  32.875   0.859
31442W        W 3867  24.111  10.351  12.940
31443W        W 3868   9.992  20.912  13.391
31444W        W 3869   8.869  44.902   1.830
31445W        W 3870  10.299  15.644   5.068
31446W        W 3871  29.419  31.460  13.335
31447W        W 3872  32.725  33.480   0.303
31448W        W 3873  37.892   7.533   9.746
31449W        W 3874   0.289  16.231  10.524
31450W        W 3875  34.461  29.655  12.937
31451W        W 3876  24.147  18.050   3.152
31452W        W 3877  40.489  36.915   1.743
31453W        W 3878  20.616   1.868  13.931
31454W        W 3879  16.106   0.493   1.968
31455W        W 3880  11.479  18.806  14.967
31456W        W 3881  34.875  13.551   4.072
31457W        W 3882   2.121  38.409  10.752
31458W        W 3883  44.319  27.560  13.738
31459W        W 3884  21.136  23.475   3.785
31460W        W 3885   4.352  36.305   0.501
31461W        W 3886  21.716  33.594  13.083
31462W        W 3887  43.519  44.881  14.930
31463W        W 3888  38.176   7.192   0.245
31464W        W 3889  35.653   6.954  13.581
31465W        W 3890  19.538  17.351  13.480
31466W        W 3891  22.045  26.753  14.357
31467W        W 3892  21.628  22.005   1.469
31468W        W 3893   8.016  21.085   4.516
31469W        W 3894   1.240  21.084   4.605
31470W        W 3895  24.490   9.538   0.838
31471W        W 3896   4.749  29.027   1.406
31472W        W 3897  40.510   7.458   1.366
31473W        W 3898  36.013   0.323   1.708
31474W        W 3899  11.062  18.428  13.466
31475W        W 3900   5.680  44.005  12.941
31476W        W 3901  23.032  24.978   3.636
31477W        W 3902  16.019  15.459  13.285
31478W        W 3903  20.717  23.783   1.535
31479W        W 3904  35.565   2.112  14.942
31480W        W 3905  17.131  15.177   9.797
31481W        W 3906  13.409   4.515   3.545
31482W        W 3907  35.123   2.067  12.557
31483W        W 3908   5.731  14.121  11.152
31484W        W 3909  31.633  40.810   0.838
31485W        W 3910   1.241   0.200   3.131
31486W        W 3911   9.824  28.858  11.927
31487W        W 3912  30.311  40.049   3.459
31488W        W 3913  35.464  36.866   3.884
31489W        W 3914  16.767  15.634  11.946
31490W        W 3915  23.405  32.011   2.465
31491W        W 3916  43.257  34.183   2.314
31492W        W 3917  40.583  39.327   4.810
31493W        W 3918  35.874  13.833   2.249
31494W        W 3919  23.551  36.913   0.638
31495W        W 3920  44.425   3.336  13.328
31496W        W 3921  20.581  15.607   2.098
31497W        W 3922   7.610   5.323  12.327
31498W        W 3923  33.123   5.319  12.570
31499W        W 3924   0.890  33.888  10.967
31500W        W 3925  40.436  23.141  12.967
31501W        W 3926   4.785  27.713   1.911
31502W        W 3927   6.414  32.430  13.458
31503W        W 3928   6.054  36.959   4.144
31504W        W 3929  34.165  16.159   2.847
31505W        W 3930  32.693  34.065  12.417
31506W        W 3931  31.977  41.245  11.066
31507W        W 3932  42.924  36.285   1.779
31508W        W 3933  20.056  41.748   2.886
31509W        W 3934  19.056  29.352   4.279
31510W        W 3935  33.442  16.078  13.951
31511W        W 3936  25.512  29.406   4.115
31512W        W 3937  21.184   2.969  13.375
31513W        W 3938  12.617   3.873   0.898
31514W        W 3939   9.187  20.285  13.039
31515W        W 3940  28.701  29.112   4.836
31516W        W 3941  32.187  25.151   2.730
31517W        W 3942  13.115  17.257   4.040
31518W        W 3943  23.798  23.635   2.273
31519W        W 3944  43.813   6.351   4.884
31520W        W 3945  41.733   5.724  10.289
31521W        W 3946  12.874  30.564   3.801
31522W        W 3947  19.783   0.708  11.464
31523W        W 3948  34.427   4.300   0.092
31524W        W 3949  28.910  34.079   4.178
31525W        W 3950   4.141  17.392  12.250
31526W        W 3951   3.332  43.237  14.509
31527W        W 3952  17.660  37.396   3.249
31528W        W 3953  17.449  38.466   0.876
31529W        W 3954  17.583  17.076  10.186
31530W        W 3955  22.123   8.045  11.617
31531W        W 3956  22.002   6.275  13.762
31532W        W 3957   1.160  32.610   9.773
31533W        W 3958  18.716  39.134   0.092
31534W        W 3959  24.268  32.179  11.594
31535W        W 3960   1.374  11.663  10.714
31536W        W 3961   6.913  41.327  11.246
31537W        W 3962  34.885  43.376   3.011
31538W        W 3963  11.775  13.205   0.272
31539W        W 3964  24.106   8.321   4.170
31540W        W 3965  43.501  11.420   3.933
31541W        W 3966  18.748  15.683  12.646
31542W        W 3967  24.220   9.319   1.772
31543W        W 3968  12.459  44.948   3.745
31544W        W 3969   2.998  19.309   4.178
31545W        W 3970  23.189  43.544   0.807
31546W        W 3971   4.308   0.269  11.652
31547W        W 3972  28.077  14.773  10.679
31548W        W 3973  33.609  17.780  14.499
31549W        W 3974  15.792  26.699  12.003
31550W        W 3975  40.370  10.743   4.165
31551W        W 3976  28.287   5.321   4.532
31552W        W 3977  25.042  10.120   2.299
31553W        W 3978  20.009  32.193  13.857
31554W        W 3979  24.633   7.432   0.293
31555W        W 3980  24.509   7.364  12.606
31556W        W 3981  19.226  26.716   4.595
31557W        W 3982  17.151  14.763  14.813
31558W        W 3983  21.260  24.222  14.006
31559W        W 3984  15.362   1.437  10.531
31560W        W 3985  24.038  25.476  14.535
31561W        W 3986   5.464   9.775   1.333
31562W        W 3987  21.339   4.345   1.521
31563W        W 3988  35.588   2.322  12.529
31564W        W 3989  17.957  35.024  11.147
31565W        W 3990  41.884  10.133   4.398
31566W        W 3991  18.782  33.552  12.905
31567W        W 3992  17.145  18.198   2.434
31568W        W 3993  16.085   1.384   1.507
31569W        W 3994  35.877  44.353  13.991
31570W        W 3995  22.207   4.738  14.983
31571W        W 3996  14.301   3.181   0.355
31572W        W 3997  28.071  27.306   1.497
31573W        W 3998   0.415   2.978  11.234
31574W        W 3999   0.765  29.621  13.783
31575W        W 4000   1.595   2.939   1.323
31576W        W 4001  14.239   0.146   3.020
31577W        W 4002   9.305  13.040  13.446
31578W        W 4003  44.929  12.942  11.596
31579W        W 4004  19.714   2.609   0.958
31580W        W 4005  32.951  17.787   4.788
31581W        W 4006  25.225  11.820  10.684
31582W        W 4007  34.319   9.682   4.233
31583W        W 4008  22.298  38.559   2.598
31584W        W 4009  28.007  31.061   1.356
31585W        W 4010  11.395  15.278   0.884
31586W        W 4011  41.312   6.831  11.663
31587W        W 4012  43.345  20.075  14.947
31588W        W 4013  26.196   5.964  11.350
31589W        W 4014  31.764  33.290   4.150
31590W        W 4015  22.458  15.172   4.617
31591W        W 4016  18.509  33.928  11.960
31592W        W 4017  23.515  39.915   1.317
31593W        W 4018  13.266  43.456  13.226
31594W        W 4019  15.964  34.638   9.894
31595W        W 4020  38.404  41.948  12.650
31596W        W 4021  26.414  30.449   0.830
31597W        W 4022   9.614  23.403  14.901
31598W        W 4023   7.980  13.733  11.141
31599W        W 4024   3.644   9.801  13.328
31600W        W 4025  17.738  44.251   2.388
31601W        W 4026  37.869  37.299   0.268
31602W        W 4027  36.789  22.777   1.137
31603W        W 4028  36.144  31.038   1.353
31604W        W 4029  42.329  38.016   2.944
31605W        W 4030  42.618  10.571  11.946
31606W        W 4031   8.535   4.188  14.399
31607W        W 4032  25.572  19.161  10.449
31608W        W 4033  40.855  23.461  10.936
31609W        W 4034  25.682  36.927  12.530
31610W        W 4035   4.013  35.650   1.262
31611W        W 4036  14.817  20.017   4.127
31612W        W 4037  28.879   4.931   4.390
31613W        W 4038  10.643   2.907  12.603
31614W        W 4039  38.952   9.589  12.215
31615W        W 4040  12.744   5.829   2.323
31616W        W 4041  42.520  29.893   4.936
31617W        W 4042  31.529   9.205  13.947
31618W        W 4043  26.725  23.625   2.816
31619W        W 4044  15.328  13.880  12.766
31620W        W 4045   1.959  20.839  12.163
31621W        W 4046   2.912  17.021   0.545
31622W        W 4047  28.102  13.857  12.169
31623W        W 4048  38.415   4.924   1.238
31624W        W 4049  30.119  44.324   2.394
31625W        W 4050  19.082  14.805   4.112
31626W        W 4051  29.397  26.099   3.666
31627W        W 4052  22.916   8.789   0.301
31628W        W 4053   5.336  40.587  11.557
31629W        W 4054  35.540   6.659   4.954
31630W        W 4055  28.114  14.854  12.165
31631W        W 4056   2.265  35.394   2.600
31632W        W 4057  27.067   1.164   1.953
31633W        W 4058  18.816  43.098  13.571
31634W        W 4059  22.571  21.757  10.929
31635W        W 4060  14.105  44.286  14.465
31636W        W 4061  43.737   1.946  12.993
31637W        W 4062  41.743   6.768  12.343
31638W        W 4063  26.183  18.018   3.137
31639W        W 4064  25.985  31.073   3.570
31640W        W 4065   5.192   1.345   1.909
31641W        W 4066  23.614  15.219  10.627
31642W        W 4067  40.863   3.265   2.674
31643W        W 4068  39.704  30.472  11.635
31644W        W 4069  19.022  40.594   0.810
31645W        W 4070  17.294  23.866   3.286
31646W        W 4071  34.610  39.484  11.261
31647W        W 4072  15.641  17.708  14.984
31648W        W 4073  16.978  28.195  10.820
31649W        W 4074  18.782  39.053   0.598
31650W        W 4075   9.928  35.051  11.091
31651W        W 4076  21.738  13.056  10.811
31652W        W 4077   9.563  26.576  11.102
31653W        W 4078  27.389   4.409   0.729
31654W        W 4079  23.220  20.779  12.172
31655W        W 4080  16.099  35.537  10.750
31656W        W 4081  44.258  13.072   4.607
31657W        W 4082  15.754  37.112   4.210
31658W        W 4083  11.818  41.945   1.454
31659W        W 4084   0.510   5.514  12.478
31660W        W 4085  23.924  21.010   2.716
31661W        W 4086  15.927  20.858   0.882
31662W        W 4087  41.087  16.591  11.083
31663W        W 4088  23.972  26.984  13.581
31664W        W 4089  40.654   7.958  11.939
31665W        W 4090  13.349  22.960   4.272
31666W        W 4091   4.945  24.927  13.555
31667W        W 4092  21.633  15.812   1.815
31668W        W 4093  21.620  13.503  13.139
31669W        W 4094   9.163   0.557   2.495
31670W        W 4095   4.344  12.143   3.294
31671W        W 4096  33.103   5.630   1.849
31672W        W 4097  21.548  40.499   1.981
31673W        W 4098  34.445  34.104   4.753
31674W        W 4099  21.970  32.081  11.546
31675W        W 4100  20.415  35.522  14.236
31676W        W 4101  25.752   3.726   3.946
31677W        W 4102  35.599  32.104  10.679
31678W        W 4103  40.360  37.573  13.431
31679W        W 4104   5.955   8.261  11.246
31680W        W 4105  25.925  44.975  12.270
31681W        W 4106  35.866   4.948  12.975
31682W        W 4107  30.102  25.388   1.274
31683W        W 4108   1.380  19.928   1.019
31684W        W 4109  40.482  22.427   3.634
31685W        W 4110  28.953  33.007   4.673
31686W        W 4111   2.532   2.679  12.505
31687W        W 4112  18.533  30.057   4.555
31688W        W 4113  22.904  34.419   4.233
31689W        W 4114   2.651  36.143  11.058
31690W        W 4115  24.111  22.504  13.103
31691W        W 4116  15.759   4.478  13.142
31692W        W 4117   9.395  28.013  12.081
31693W        W 4118  16.052   6.727  13.250
31694W        W 4119  27.993   7.549  10.194
31695W        W 4120  41.569   2.671  14.997
31696W        W 4121   3.798  33.236  10.704
31697W        W 4122   9.393  14.599  11.351
31698W        W 4123  24.177  14.242   2.382
31699W        W 4124  28.687   7.851   2.537
31700W        W 4125  23.753  27.432  13.456
31701W        W 4126  29.703  28.814   0.285
31702W        W 4127  10.240  20.584  11.606
31703W        W 4128  25.244  41.698   1.390
31704W        W 4129  31.924  36.914   3.875
31705W        W 4130  26.558  12.960   3.276
31706W        W 4131  23.660  15.671   0.330
31707W        W 4132  33.646   8.871   4.512
31708W        W 4133  44.504  44.782   4.128
31709W        W 4134  34.321   9.390  10.746
31710W        W 4135   6.178  41.492  11.555
31711W        W 4136   9.631  44.791   4.625
31712W        W 4137  17.292  44.009  13.003
31713W        W 4138  16.885  23.121   4.395
31714W        W 4139  34.476   2.281   1.716
31715W        W 4140  39.127  12.086   2.539
31716W        W 4141   1.001  38.463   0.414
31717W        W 4142  18.254  10.258  13.023
31718W        W 4143  32.365  28.413  14.482
31719W        W 4144  11.541  30.671   2.298
31720W        W 4145  44.714  37.462   0.227
31721W        W 4146   8.296   1.172  13.025
31722W        W 4147  42.025  11.380  12.952
31723W        W 4148  31.609   1.503   3.059
31724W        W 4149  43.893  35.749  13.715
31725W        W 4150  27.978  33.888  10.181
31726W        W 4151  35.217  37.181  11.752
31727W        W 4152  16.645  40.910   4.772
31728W        W 4153  18.821  40.336  10.842
31729W        W 4154  41.958  28.175   0.961
31730W        W 4155  20.193  22.134   2.683
31731W        W 4156  11.110  36.945  14.877
31732W        W 4157  11.074   1.906  10.613
31733W        W 4158  25.681  39.870   2.353
31734W        W 4159  36.384  30.091   4.210
31735W        W 4160   5.736  24.542  13.019
31736W        W 4161   7.730  36.094   2.117
31737W        W 4162  25.481   6.332   3.675
31738W        W 4163  44.853  25.713  14.439
31739W        W 4164  42.753  16.188  13.117
31740W        W 4165   5.281  31.788   0.370
31741W        W 4166  31.617  17.365  12.850
31742W        W 4167  10.391  21.068  11.502
31743W        W 4168   7.456  27.985  13.215
31744W        W 4169  29.473   3.458  10.231
31745W        W 4170  23.212   5.383  11.962
31746W        W 4171   1.260  33.181  14.070
31747W        W 4172  36.830  36.348   0.344
31748W        W 4173  19.008  10.134   1.888
31749W        W 4174   6.363   4.370  11.807
31750W        W 4175  17.519   8.959  14.945
31751W        W 4176  43.510  10.927  10.998
31752W        W 4177  37.068  21.173  12.086
31753W        W 4178  43.777  33.463   0.553
31754W        W 4179  16.272  35.488   9.810
31755W        W 4180  37.322  11.182   4.096
31756W        W 4181   8.165   1.427  14.325
31757W        W 4182  19.648  25.716  14.834
31758W        W 4183   0.364  24.105   4.159
31759W        W 4184   1.723  35.091  13.269
31760W        W 4185  28.213  16.650  12.472
31761W        W 4186  44.399  21.783   2.702
31762W        W 4187  44.197  22.960   1.216
31763W        W 4188  12.199  17.253   2.979
31764W        W 4189  25.153   2.905   3.541
31765W        W 4190  44.367   7.210   2.623
31766W        W 4191  38.621   2.342  12.711
31767W        W 4192  44.311   1.091  12.505
31768W        W 4193  15.080  39.123  11.095
31769W        W 4194  35.109  10.840   3.283
31770W        W 4195  40.021  21.638   5.693
31771W        W 4196  30.631   0.889  14.799
31772W        W 4197  40.812   5.096   2.980
31773W        W 4198  15.592  44.348   3.775
31774W        W 4199  18.394  17.375  14.448
31775W        W 4200  16.347  17.637   0.497
31776W        W 4201  22.787   1.798   1.726
31777W        W 4202  31.784  16.125  12.472
31778W        W 4203   7.336  28.151   0.952
31779W        W 4204   5.269  37.615   4.718
31780W        W 4205  42.815  43.057  13.923
31781W        W 4206  43.806  40.346  14.240
31782W        W 4207  29.459  39.788   3.158
31783W        W 4208   1.287  13.897   0.863
31784W        W 4209  44.460  26.964   2.913
31785W        W 4210  44.357  13.505  13.086
31786W        W 4211  28.236  11.391  11.572
31787W        W 4212  28.560   3.307  11.796
31788W        W 4213  13.613  41.684  12.079
31789W        W 4214   8.873  37.351  10.775
31790W        W 4215  33.052  16.244  12.981
31791W        W 4216  42.811  16.690  12.969
31792W        W 4217  31.901  18.102  14.386
31793W        W 4218  15.399   2.698  14.275
31794W        W 4219   7.442   3.262   1.014
31795W        W 4220  43.900  42.118   1.796
31796W        W 4221  15.303  11.355  14.727
31797W        W 4222  23.299  24.155  12.549
31798W        W 4223  12.584  28.671   0.020
31799W        W 4224  16.138  24.300  10.540
31800W        W 4225   6.282   1.705  12.604
31801W        W 4226  24.691  21.086   1.354
31802W        W 4227   0.690   7.322  12.478
31803W        W 4228  40.006  36.470   0.239
31804W        W 4229  10.192   1.919  12.362
31805W        W 4230  14.089   6.717  14.867
31806W        W 4231   9.447   6.768   4.549
31807W        W 4232  38.506   7.258   1.980
31808W        W 4233  13.168  38.615  14.820
31809W        W 4234  12.256  28.144  12.519
31810W        W 4235  31.940   9.573   4.761
31811W        W 4236  33.712  18.829   0.875
31812W        W 4237   2.480   9.727   0.211
31813W        W 4238  13.796  34.651   1.402
31814W        W 4239   3.851  16.006   2.377
31815W        W 4240  35.058  38.469   4.458
31816W        W 4241   2.521  32.055  11.186
31817W        W 4242  25.012  21.749  13.006
31818W        W 4243  20.127  39.485  11.333
31819W        W 4244  20.511  25.602   4.094
31820W        W 4245  27.476  19.022   3.687
31821W        W 4246   2.175  43.666  14.844
31822W        W 4247  32.016   6.694   3.743
31823W        W 4248  28.403  22.621  11.525
31824W        W 4249   3.356  21.213   2.303
31825W        W 4250  34.593  17.136  11.509
31826W        W 4251  16.206  44.745   4.174
31827W        W 4252  41.482  20.545   2.864
31828W        W 4253  42.127   8.227  11.235
31829W        W 4254  15.140  18.090   0.276
31830W        W 4255  42.431  40.141   3.295
31831W        W 4256  14.768  24.793   1.880
31832W        W 4257  22.646  13.116  12.915
31833W        W 4258  23.652  18.561  14.850
31834W        W 4259   5.465  23.156  11.451
31835W        W 4260  28.017  39.740  13.002
31836W        W 4261  25.322  24.666  12.154
31837W        W 4262  31.863   9.954   0.507
31838W        W 4263  42.820   6.251  13.729
31839W        W 4264   3.265  13.540  12.361
31840W        W 4265  29.134  29.640   4.297
31841W        W 4266   2.356  42.025   4.616
31842W        W 4267  27.075  16.229   3.598
31843W        W 4268  14.347  15.220   1.463
31844W        W 4269   4.956  25.634  14.077
31845W        W 4270  27.470  32.884   1.699
31846W        W 4271  15.171  11.089  11.909
31847W        W 4272  13.353  40.958   4.566
31848W        W 4273  32.454  35.615   1.774
31849W        W 4274  15.486   7.912   2.305
31850W        W 4275  18.087  37.412  10.665
31851W        W 4276  21.084  29.651  13.437
31852W        W 4277   4.378  11.239   2.519
31853W        W 4278   3.278  30.475  11.793
31854W        W 4279   9.715  16.509  10.945
31855W        W 4280  32.216  22.825  14.858
31856W        W 4281  12.495   2.777   0.260
31857W        W 4282  17.344  34.191   0.559
31858W        W 4283   9.182  14.776   2.699
31859W        W 4284   3.535  27.781   1.208
31860W        W 4285  19.229   9.221   2.835
31861W        W 4286  25.140  21.578  14.028
31862W        W 4287   6.409  44.209   4.688
31863W        W 4288  40.109  41.017  14.408
31864W        W 4289  40.898  18.001   0.761
31865W        W 4290  11.755  26.808   3.772
31866W        W 4291  18.607  28.429  11.645
31867W        W 4292  15.696  44.959  14.965
31868W        W 4293  15.310  22.569   4.852
31869W        W 4294  26.910  24.984   3.291
31870W        W 4295  10.229  38.667  13.479
31871W        W 4296  39.460  44.291   3.996
31872W        W 4297  36.066   6.790   3.172
31873W        W 4298  35.590  40.764   0.612
31874W        W 4299  21.130  16.136  11.084
31875W        W 4300  42.057   6.885  10.750
31876W        W 4301  16.615  42.910  12.463
31877W        W 4302  36.532  26.729  11.551
31878W        W 4303  44.041  27.467   4.517
31879W        W 4304  28.049  21.774  13.632
31880W        W 4305  31.126   4.458   0.763
31881W        W 4306   3.641  15.081  11.567
31882W        W 4307  11.832  43.956  14.302
31883W        W 4308  14.992  38.452   2.686
31884W        W 4309  24.355  22.941  12.975
31885W        W 4310   3.295  13.862   2.294
31886W        W 4311  32.168   7.400   3.099
31887W        W 4312  36.804   3.482   0.970
31888W        W 4313   4.756  22.340  14.444
31889W        W 4314   7.694  44.482  12.339
31890W        W 4315  25.847  43.795   1.972
31891W        W 4316  30.877  22.183  11.956
31892W        W 4317  28.665   9.415   2.273
31893W        W 4318  16.490  39.473   1.837
31894W        W 4319   4.043  12.155  12.575
31895W        W 4320  41.629  32.907   1.378
31896W        W 4321   2.971  20.701  13.276
31897W        W 4322  43.746  11.904  13.979
31898W        W 4323  35.498  44.431   2.613
31899W        W 4324  31.424  32.510  14.905
31900W        W 4325  37.900  14.663  12.368
31901W        W 4326   3.800   2.954   0.513
31902W        W 4327  28.525  13.218   2.924
31903W        W 4328   7.764  21.505  11.657
31904W        W 4329  44.471  17.231   4.767
31905W        W 4330  13.648   6.907  11.536
31906W        W 4331   9.765  44.306  13.592
31907W        W 4332  35.939   4.733   4.025
31908W        W 4333  43.761  36.543   2.718
31909W        W 4334   5.204   2.355   2.779
31910W        W 4335  38.562  12.399   2.665
31911W        W 4336  33.493  43.913  13.090
31912W        W 4337  41.030  40.377  12.533
31913W        W 4338  13.786  43.072  13.837
31914W        W 4339  20.636   0.008  10.585
31915W        W 4340  31.467  10.391  12.038
31916W        W 4341  30.959  29.706  14.772
31917W        W 4342  33.129  41.440  13.958
31918W        W 4343  26.990  38.169  14.812
31919W        W 4344  15.598  26.216  13.928
31920W        W 4345  36.672   1.387   1.195
31921W        W 4346  33.884  15.108  12.442
31922W        W 4347  15.608  13.674  14.315
31923W        W 4348  15.210  36.028   1.415
31924W        W 4349  15.496  42.380   2.353
31925W        W 4350  10.838   3.786  14.430
31926W        W 4351  38.021  41.013  14.781
31927W        W 4352  28.457  31.966   0.194
31928W        W 4353  39.064  42.237  13.516
31929W        W 4354   5.836  33.632  10.924
31930W        W 4355   6.251  22.548  10.566
31931W        W 4356  36.588  22.061  13.563
31932W        W 4357  11.101  24.006   4.910
31933W        W 4358  16.582  14.280  12.913
31934W        W 4359   6.579  37.457  14.020
31935W        W 4360  17.706   5.174   3.763
31936W        W 4361  35.120  16.247  12.917
31937W        W 4362  31.170  17.775  13.501
31938W        W 4363   0.506  28.311   4.212
31939W        W 4364   0.493   6.736  12.023
31940W        W 4365  33.038   1.912  12.077
31941W        W 4366  35.497  33.528   2.631
31942W        W 4367  30.934  38.640   0.571
31943W        W 4368  21.119  11.807  13.428
31944W        W 4369  37.575  22.504  10.712
31945W        W 4370  43.153  41.436  13.391
31946W        W 4371   2.829   2.692  14.035
31947W        W 4372  32.987   4.733   3.242
31948W        W 4373  43.467  32.492  12.003
31949W        W 4374  32.830  17.155  11.137
31950W        W 4375  12.259  41.860   4.746
31951W        W 4376   3.312   7.828   1.960
31952W        W 4377  32.112  28.445   1.149
31953W        W 4378  13.655   4.219   2.300
31954W        W 4379  42.773  15.094  12.133
31955W        W 4380  15.509  10.275   2.245
31956W        W 4381  44.410  41.025  13.308
31957W        W 4382  39.093   5.231  12.094
31958W        W 4383  32.245  25.136  10.493
31959W        W 4384  40.494  22.764  12.620
31960W        W 4385  42.605   0.811  13.137
31961W        W 4386  28.898  24.616   2.972
31962W        W 4387  36.945   0.786  14.300
31963W        W 4388  33.966  13.284  11.153
31964W        W 4389  29.210  13.817  11.667
31965W        W 4390   5.365  42.998   0.678
31966W        W 4391   4.000  23.070  14.446
31967W        W 4392  35.881  42.814   4.614
31968W        W 4393   6.259   8.875   2.403
31969W        W 4394  44.809  40.527   3.645
31970W        W 4395  39.448  22.304   0.697
31971W        W 4396   1.898  19.328  12.081
31972W        W 4397  38.617  35.372   0.767
31973W        W 4398   7.284   9.337   0.200
31974W        W 4399  38.455  32.415  12.766
31975W        W 4400   3.282  27.939   4.714
31976W        W 4401  14.355  36.046   1.478
31977W        W 4402  21.292  31.026  13.517
31978W        W 4403  15.876   2.866   2.181
31979W        W 4404  15.506  29.501   0.725
31980W        W 4405  26.316  25.636   2.188
31981W        W 4406  24.300  24.541   2.368
31982W        W 4407  14.052  29.190   4.107
31983W        W 4408  20.369  41.830  12.325
31984W        W 4409  19.242   5.383   1.301
31985W        W 4410  41.644  28.121  12.129
31986W        W 4411   4.785  13.528  12.410
31987W        W 4412  44.027  20.729  14.963
31988W        W 4413  32.429  35.318   1.271
31989W        W 4414  15.593  38.736  11.684
31990W        W 4415  37.891  28.906   1.285
31991W        W 4416  30.472  41.996   2.608
31992W        W 4417  11.305  43.514  13.458
31993W        W 4418  17.169   5.296  13.892
31994W        W 4419  34.603  39.427  10.735
31995W        W 4420   7.245   7.463  12.131
31996W        W 4421  31.424   4.666  13.988
31997W        W 4422  13.147  13.225  14.029
31998W        W 4423  17.214  35.578  11.459
31999W        W 4424  15.962  39.018   4.192
32000W        W 4425  22.252  29.957   2.587
32001W        W 4426  41.305  42.511   1.372
32002W        W 4427  36.998   6.873   3.928
32003W        W 4428  14.320   2.441   1.247
32004W        W 4429  18.740  30.703   1.972
32005W        W 4430   2.802  42.996  12.083
32006W        W 4431  33.464  13.349  14.767
32007W        W 4432  44.839   5.501   0.250
32008W        W 4433  23.246  20.144  13.902
32009W        W 4434  32.466  17.552   4.158
32010W        W 4435  41.444  10.693   1.689
32011W        W 4436  18.462  33.421   1.766
32012W        W 4437  26.511   0.950  10.277
32013W        W 4438  27.518  14.829  12.301
32014W        W 4439  15.923   0.459  12.738
32015W        W 4440  39.832  17.118   4.340
32016W        W 4441  44.351  13.686  10.509
32017W        W 4442  23.224  40.064  14.471
32018W        W 4443  21.014   8.989  12.508
32019W        W 4444  25.212   7.386  12.112
32020W        W 4445  32.495  32.056  13.968
32021W        W 4446  37.871  14.047  14.856
32022W        W 4447  42.298  11.123   1.477
32023W        W 4448  43.418  42.509   0.768
32024W        W 4449   8.969  14.080  11.774
32025W        W 4450  24.757  23.055  10.692
32026W        W 4451  32.382  32.458   0.750
32027W        W 4452  19.398  14.301   0.325
32028W        W 4453  42.762  27.666   3.270
32029W        W 4454  18.564   1.728   1.956
32030W        W 4455   2.088  12.644   9.875
32031W        W 4456  22.131  27.201  11.532
32032W        W 4457  41.257  27.134  14.979
32033W        W 4458  26.463  10.809   4.187
32034W        W 4459   9.943  37.896   2.358
32035W        W 4460   3.042  17.334  12.872
32036W        W 4461  33.083   8.610  12.001
32037W        W 4462  16.691  26.558  13.472
32038W        W 4463  36.764  43.848  12.909
32039W        W 4464  18.789  27.148   4.396
32040W        W 4465   6.174  23.471  12.448
32041W        W 4466  31.895  19.232  11.979
32042W        W 4467  27.758  31.732  11.983
32043W        W 4468  22.729  42.397  11.557
32044W        W 4469  14.819  19.996  14.442
32045W        W 4470  40.292  33.973   2.218
32046W        W 4471  13.041  24.185   0.687
32047W        W 4472  21.029  23.626   1.068
32048W        W 4473  15.601  23.529  13.489
32049W        W 4474   7.681   6.412   0.010
32050W        W 4475  39.408  40.361  12.540
32051W        W 4476  29.793  44.799  14.453
32052W        W 4477  10.837  11.054  11.034
32053W        W 4478  12.888  21.209   1.624
32054W        W 4479   4.689  23.477  11.079
32055W        W 4480  36.592  32.949  10.474
32056W        W 4481   3.546  37.985  12.644
32057W        W 4482   0.747  28.255  11.683
32058W        W 4483  10.132   7.341  11.982
32059W        W 4484   2.941   7.908   2.326
32060W        W 4485   6.316  37.560  12.137
32061W        W 4486  17.393  16.150   1.400
32062W        W 4487  15.524  44.789   0.445
32063W        W 4488  25.711  36.353  12.950
32064W        W 4489  41.702  15.122   4.586
32065W        W 4490  33.825  36.361   4.730
32066W        W 4491  14.190   9.813   3.267
32067W        W 4492   8.723  15.360  11.052
32068W        W 4493  41.964   7.857   3.508
32069W        W 4494  10.405  34.923  14.364
32070W        W 4495  32.642  24.556  14.695
32071W        W 4496   7.640  14.210  11.336
32072W        W 4497  43.403  38.984   3.164
32073W        W 4498   5.869  23.890   0.727
32074W        W 4499   6.515  14.303   4.442
32075W        W 4500  18.249  14.465   4.457
32076W        W 4501  29.239  22.324   3.415
32077W        W 4502   8.822  27.437  14.994
32078W        W 4503   6.906   0.681  11.470
32079W        W 4504  21.649  27.028  13.522
32080W        W 4505  23.249  30.724  11.086
32081W        W 4506   8.799   5.796  12.640
32082W        W 4507  30.586  20.513  14.356
32083W        W 4508  43.900  22.484   2.900
32084W        W 4509  15.298  21.498  11.317
32085W        W 4510  19.336  37.060   1.879
32086W        W 4511  34.849   7.755  11.162
32087W        W 4512  41.507  13.606   3.829
32088W        W 4513  14.837  32.177  11.714
32089W        W 4514  36.542  34.335  11.513
32090W        W 4515  15.683   7.400   0.455
32091W        W 4516  41.914  24.140   4.183
32092W        W 4517  25.081  15.139   1.448
32093W        W 4518  21.558   7.238   0.975
32094W        W 4519  14.231  11.801   3.243
32095W        W 4520   2.339  14.897   0.883
32096W        W 4521  32.431  41.350  13.275
32097W        W 4522  22.804   2.271  12.589
32098W        W 4523  22.845  27.450   0.843
32099W        W 4524   9.680  31.478  14.910
32100W        W 4525   3.417  33.594  10.683
32101W        W 4526  39.791  36.607  12.918
32102W        W 4527  24.791  34.075   1.478
32103W        W 4528   1.222   4.909  11.688
32104W        W 4529   3.515  25.258  13.877
32105W        W 4530  33.890  20.796  12.061
32106W        W 4531   6.752  31.625  11.001
32107W        W 4532  39.352   6.392   3.335
32108W        W 4533  42.082  16.722   4.831
32109W        W 4534  13.589  44.031   1.316
32110W        W 4535  16.692  31.133   3.268
32111W        W 4536   8.378  20.287  12.641
32112W        W 4537  11.718  11.916  13.918
32113W        W 4538  11.889  11.786   4.155
32114W        W 4539  16.817   4.798   0.336
32115W        W 4540  16.992   7.621  11.983
32116W        W 4541   0.710   0.302  13.455
32117W        W 4542  26.173  31.749  11.487
32118W        W 4543  19.819  12.712  12.621
32119W        W 4544  28.670  24.443   3.407
32120W        W 4545  16.216  24.360  12.144
32121W        W 4546  44.721  24.532   4.175
32122W        W 4547   1.603  38.413  10.661
32123W        W 4548   5.903  42.780   3.705
32124W        W 4549  15.032  10.965  14.951
32125W        W 4550  40.238  20.626  11.105
32126W        W 4551   6.256  44.055   2.061
32127W        W 4552   1.688   5.825   1.894
32128W        W 4553   8.900  19.133  11.921
32129W        W 4554  14.035  20.660   2.041
32130W        W 4555   3.268   8.775  14.445
32131W        W 4556  35.378   3.478  13.286
32132W        W 4557   6.803   8.623   2.288
32133W        W 4558   0.531   2.426   0.635
32134W        W 4559  32.672  32.513   1.728
32135W        W 4560  44.249  22.703   2.065
32136W        W 4561  16.555  24.668  13.602
32137W        W 4562  24.435  29.865  12.390
32138W        W 4563  25.784  41.552  14.309
32139W        W 4564  10.481  17.915   4.390
32140W        W 4565  12.853  21.708  10.672
32141W        W 4566  11.099   3.944  14.847
32142W        W 4567  40.048  16.655   2.327
32143W        W 4568  28.940   9.608  11.612
32144W        W 4569  15.038   7.408  10.463
32145W        W 4570  27.356  35.395  12.935
32146W        W 4571   6.121  40.730  14.928
32147W        W 4572   6.816   6.897  13.992
32148W        W 4573  29.146  15.560   4.135
32149W        W 4574  36.314  10.195   1.315
32150W        W 4575   8.236  20.854  12.891
32151W        W 4576  42.526  34.334  13.578
32152W        W 4577  24.434   2.879  13.958
32153W        W 4578   1.800  14.701   2.873
32154W        W 4579  28.693   8.182  10.777
32155W        W 4580  21.506  43.606  12.882
32156W        W 4581  27.212  31.928  10.119
32157W        W 4582  29.458  31.169   0.545
32158W        W 4583  29.875   8.801   1.465
32159W        W 4584  42.753  24.155  14.382
32160W        W 4585   0.925  16.325  13.455
32161W        W 4586  20.112  32.900  11.127
32162W        W 4587  21.699   8.735   4.113
32163W        W 4588  20.918  22.277  13.545
32164W        W 4589   8.318  30.514  11.271
32165W        W 4590  20.711  36.359   0.208
32166W        W 4591  39.106  17.654   1.786
32167W        W 4592  18.730  38.773   2.716
32168W        W 4593  39.558  19.803  12.910
32169W        W 4594  33.228  34.489   3.874
32170W        W 4595   4.184  13.849  10.625
32171W        W 4596  11.176   5.327   0.040
32172W        W 4597  30.734  30.041   0.201
32173W        W 4598   6.381   0.853  13.106
32174W        W 4599  12.843  12.691  12.565
32175W        W 4600  14.773  36.249   1.269
32176W        W 4601   4.248  14.371   2.284
32177W        W 4602  36.899   8.965   2.707
32178W        W 4603  41.138   5.383   0.740
32179W        W 4604   4.345   4.495  10.699
32180W        W 4605   1.951  26.535   4.755
32181W        W 4606  19.605  33.432   4.300
32182W        W 4607  28.544  27.648  10.293
32183W        W 4608  42.793  12.620   1.874
32184W        W 4609  15.659  24.464  10.557
32185W        W 4610  39.391  35.527   4.149
32186W        W 4611  39.101   5.079   0.467
32187W        W 4612  34.514  41.416   2.384
32188W        W 4613   5.614  42.828  11.078
32189W        W 4614   0.396   0.175   3.377
32190W        W 4615  33.228  31.864  12.475
32191W        W 4616   4.282  27.660  14.725
32192W        W 4617  15.230  21.112  11.004
32193W        W 4618  21.487   5.686  12.504
32194W        W 4619  18.020  17.016  14.508
32195W        W 4620  24.242  41.302  10.666
32196W        W 4621  35.110  14.348  14.934
32197W        W 4622  41.942  30.031   1.320
32198W        W 4623  11.892   7.946   3.493
32199W        W 4624  30.346  34.262   4.066
32200W        W 4625  17.505   6.389   1.340
32201W        W 4626  33.649  32.046   3.937
32202W        W 4627  32.199  40.783  11.029
32203W        W 4628  35.184  19.133   1.632
32204W        W 4629   1.574  12.326   1.808
32205W        W 4630  38.400  42.788  14.484
32206W        W 4631  43.810  33.802  14.032
32207W        W 4632  31.196  31.592   2.260
32208W        W 4633   6.470  19.564   2.286
32209W        W 4634  39.508  17.700  10.570
32210W        W 4635  12.674   7.416  12.136
32211W        W 4636  32.448  27.675  10.977
32212W        W 4637  41.845   9.186  12.338
32213W        W 4638  31.932  24.289   1.801
32214W        W 4639  38.928  33.596  12.655
32215W        W 4640  13.495   3.751   0.558
32216W        W 4641  35.541  31.205  14.676
32217W        W 4642  27.862  35.436   0.489
32218W        W 4643  20.173  26.896   3.354
32219W        W 4644  19.767  24.550  10.758
32220W        W 4645  25.215  27.289  13.138
32221W        W 4646  40.407  23.433   2.295
32222W        W 4647  15.744  24.754  14.442
32223W        W 4648  37.094  15.947   2.701
32224W        W 4649   9.269   2.024  14.384
32225W        W 4650  18.173  44.487   0.881
32226W        W 4651  24.882  23.529   1.064
32227W        W 4652  23.201  40.592   3.670
32228W        W 4653  29.556   1.364  11.679
32229W        W 4654  31.663  36.988   4.766
32230W        W 4655  29.955  29.078  11.845
32231W        W 4656  18.570   6.562  14.444
32232W        W 4657  10.326   4.370   4.548
32233W        W 4658  21.011  15.567  12.039
32234W        W 4659  10.695  36.501  13.654
32235W        W 4660  41.953  36.052   2.675
32236W        W 4661  15.165  28.545   4.068
32237W        W 4662  14.360  31.697   2.435
32238W        W 4663  16.530  37.017   0.294
32239W        W 4664  21.640  29.766   3.572
32240W        W 4665  22.927  43.905  14.004
32241W        W 4666  17.367   9.805   1.145
32242W        W 4667   3.194  23.987  13.438
32243W        W 4668  37.044  16.320  14.910
32244W        W 4669  43.772  25.715   3.055
32245W        W 4670  13.057   6.238  13.795
32246W        W 4671   7.953  38.835  12.998
32247W        W 4672   7.675  37.701   2.002
32248W        W 4673  36.244  28.119   2.709
32249W        W 4674   5.489  35.150  10.716
32250W        W 4675  36.586   4.713   0.389
32251W        W 4676  14.026  16.179  12.677
32252W        W 4677  11.992  32.898   0.397
32253W        W 4678  31.852  44.242   4.575
32254W        W 4679  11.277  19.178  11.386
32255W        W 4680  38.429  14.441  12.668
32256W        W 4681   5.102   2.015   5.131
32257W        W 4682  27.425  42.584  12.347
32258W        W 4683  13.597  37.203  10.267
32259W        W 4684  25.222  22.734   4.936
32260W        W 4685  23.706  42.577  11.493
32261W        W 4686  11.632   3.764  12.236
32262W        W 4687   4.157  42.349  10.613
32263W        W 4688  43.567   5.245  12.260
32264W        W 4689  21.653  43.825  13.585
32265W        W 4690  32.188   0.408   0.395
32266W        W 4691  11.232  40.520   3.919
32267W        W 4692  14.618   5.861   0.116
32268W        W 4693  32.543  13.643  12.394
32269W        W 4694  15.219   7.167  12.610
32270W        W 4695  26.892  16.139   0.783
32271W        W 4696  12.157  19.254  10.856
32272W        W 4697   8.918  23.957   1.872
32273W        W 4698   8.453  34.025   0.372
32274W        W 4699  14.540  10.455   2.372
32275W        W 4700  21.691  44.503  10.907
32276W        W 4701  24.635  29.737   0.762
32277W        W 4702  33.487   4.892   1.523
32278W        W 4703  27.190  30.760   3.356
32279W        W 4704  25.695  17.210   1.745
32280W        W 4705  26.566  17.728   1.679
32281W        W 4706  24.468  19.346  13.383
32282W        W 4707   8.006  34.583   2.457
32283W        W 4708  37.774  15.746  13.820
32284W        W 4709   3.315   9.115  13.157
32285W        W 4710   9.827  36.609   4.862
32286W        W 4711   3.936  36.521  14.084
32287W        W 4712  26.866  28.483   1.690
32288W        W 4713  39.886  38.298   3.247
32289W        W 4714   8.479  42.320  14.880
32290W        W 4715  15.863  30.554   2.922
32291W        W 4716   0.978  34.631   1.370
32292W        W 4717  43.980  26.609  11.468
32293W        W 4718  19.997  38.402  12.912
32294W        W 4719  17.196  13.762   1.329
32295W        W 4720  22.424  34.603   1.914
32296W        W 4721  28.044   6.901   3.772
32297W        W 4722  11.234  24.856   5.144
32298W        W 4723  16.332   5.622  14.970
32299W        W 4724  25.174   4.950  14.840
32300W        W 4725  40.930  33.387   1.180
32301W        W 4726   6.110   1.501   0.881
32302W        W 4727  30.131  16.134  14.310
32303W        W 4728  17.107  35.632  14.478
32304W        W 4729  13.782  44.117  12.287
32305W        W 4730   4.185  16.563  11.055
32306W        W 4731  33.107  25.628   3.394
32307W        W 4732  19.829  24.460   3.416
32308W        W 4733  32.206  14.286  14.995
32309W        W 4734  32.523  43.705   1.809
32310W        W 4735  33.139   6.360  11.980
32311W        W 4736   8.846  34.907   2.902
32312W        W 4737  25.408  26.484   0.583
32313W        W 4738  16.382  14.365   0.151
32314W        W 4739  23.941  25.033  13.764
32315W        W 4740   4.334  13.300  10.545
32316W        W 4741  20.252  32.364   5.098
32317W        W 4742  15.495   3.374   4.612
32318W        W 4743  19.495   6.222  12.613
32319W        W 4744   7.874   6.228  11.286
32320W        W 4745  38.321  37.580   4.180
32321W        W 4746  22.254  33.439  12.209
32322W        W 4747  14.458   3.314  11.624
32323W        W 4748   1.731  18.739  12.842
32324W        W 4749  20.852   7.319   0.234
32325W        W 4750  27.192  44.472  12.479
32326W        W 4751  39.932  12.427   2.730
32327W        W 4752  13.089  41.956  11.584
32328W        W 4753  23.527  40.027  11.911
32329W        W 4754  40.234  39.093  14.499
32330W        W 4755  29.252  10.629   2.379
32331W        W 4756  18.787   8.414   0.451
32332W        W 4757  25.602   3.774   4.447
32333W        W 4758  34.584  32.101  12.942
32334W        W 4759  24.649  21.913   4.524
32335W        W 4760  25.737  36.255  11.225
32336W        W 4761  43.830  19.185   1.857
32337W        W 4762  19.834  25.904  14.398
32338W        W 4763  18.314   9.336   2.642
32339W        W 4764  23.325  18.580   2.239
32340W        W 4765  11.905  42.355  14.405
32341W        W 4766  44.956  29.274   2.028
32342W        W 4767  27.134  25.283   2.093
32343W        W 4768  28.253  44.279   2.600
32344W        W 4769  39.078  26.422  14.819
32345W        W 4770   0.324  18.394  10.724
32346W        W 4771  39.341   1.307   2.690
32347W        W 4772  22.219  32.883  13.515
32348W        W 4773  37.469  11.634  10.765
32349W        W 4774  29.056  23.582  10.186
32350W        W 4775  20.987  36.428   2.107
32351W        W 4776  28.956  29.442  11.187
32352W        W 4777  27.210  31.300   3.265
32353W        W 4778  38.996  16.452  14.715
32354W        W 4779  40.859   8.809  10.647
32355W        W 4780  34.789  24.093   1.843
32356W        W 4781  29.722  21.694   4.532
32357W        W 4782  14.001  33.594  12.000
32358W        W 4783  16.564  33.122  14.434
32359W        W 4784  10.272   9.190   3.602
32360W        W 4785  14.534  18.424  11.527
32361W        W 4786  24.764  28.172  14.825
32362W        W 4787  36.963  44.803  11.521
32363W        W 4788  15.186  20.931   2.298
32364W        W 4789  38.946  20.663  12.249
32365W        W 4790  17.222   6.663  13.015
32366W        W 4791  27.421  25.386   5.062
32367W        W 4792  20.595  21.554   2.159
32368W        W 4793  18.015  38.091  11.052
32369W        W 4794   3.414  24.612   4.900
32370W        W 4795   6.366  35.443   1.002
32371W        W 4796  32.041  11.553   9.995
32372W        W 4797   3.842  12.857   0.781
32373W        W 4798   3.387  26.110  14.101
32374W        W 4799  40.358  36.966  11.503
32375W        W 4800   7.875  38.917   4.076
32376W        W 4801  42.078  41.841  10.690
32377W        W 4802  31.735  40.089  14.433
32378W        W 4803  23.409  11.639  12.988
32379W        W 4804  40.863  35.756  12.543
32380W        W 4805  22.498   5.954  14.955
32381W        W 4806  32.317  31.962  14.933
32382W        W 4807   1.956  30.716  11.673
32383W        W 4808  18.932   5.270  13.488
32384W        W 4809  44.971  18.254  14.542
32385W        W 4810  20.505   6.262   2.669
32386W        W 4811  11.955   8.863  13.963
32387W        W 4812   6.610  18.661  12.693
32388W        W 4813  13.788  42.511  11.598
32389W        W 4814   0.669  23.335  11.270
32390W        W 4815   5.706  29.966  10.541
32391W        W 4816  20.975  25.329   0.985
32392W        W 4817  13.690  13.970  11.538
32393W        W 4818  39.391  44.324  10.639
32394W        W 4819  37.556  25.155  13.900
32395W        W 4820  38.508  12.827  14.392
32396W        W 4821   3.297   0.921  14.754
32397W        W 4822   2.248  25.164   3.843
32398W        W 4823  27.905   4.594   0.940
32399W        W 4824  37.044   8.195  13.507
32400W        W 4825  24.629  14.386   4.246
32401W        W 4826   0.419  32.632  14.029
32402W        W 4827  29.917   0.563   4.707
32403W        W 4828  23.186  11.149  11.259
32404W        W 4829  22.961  11.204  14.843
32405W        W 4830  22.150  29.072  14.969
32406W        W 4831  19.691  31.147   3.807
32407W        W 4832  15.231  33.518  11.451
32408W        W 4833   0.032  24.730   0.293
32409W        W 4834   2.804  10.625  14.825
32410W        W 4835  31.950   8.743   4.146
32411W        W 4836   7.379  38.392   3.846
32412W        W 4837  42.761   0.388   3.862
32413W        W 4838  32.680  13.123  13.363
32414W        W 4839   3.965  20.289   1.702
32415W        W 4840  41.326   6.436   0.872
32416W        W 4841  11.374   8.790  13.297
32417W        W 4842  11.562   3.252   0.468
32418W        W 4843   7.783  29.928   1.417
32419W        W 4844  27.617  44.784   4.662
32420W        W 4845  38.490  40.311  11.866
32421W        W 4846  28.599  41.744  13.004
32422W        W 4847   8.871  36.691  12.581
32423W        W 4848  20.604   4.418   0.901
32424W        W 4849  13.778  22.037   5.214
32425W        W 4850  13.150  44.332   1.335
32426W        W 4851  36.806  34.070  14.955
32427W        W 4852  43.281  35.430   1.694
32428W        W 4853  22.784  41.819  14.004
32429W        W 4854  34.606  27.628   4.111
32430W        W 4855  16.547   0.904   1.876
32431W        W 4856  30.207  24.567  11.410
32432W        W 4857  14.131  23.786   1.237
32433W        W 4858  24.678  39.463  10.718
32434W        W 4859  37.428   8.691   4.256
32435W        W 4860  41.847  26.445   4.653
32436W        W 4861  32.918   1.493  11.242
32437W        W 4862  15.118  26.556   1.359
32438W        W 4863   1.503  20.068   2.938
32439W        W 4864  12.566  21.544   0.253
32440W        W 4865  24.499   1.028   1.269
32441W        W 4866  13.617  12.626  14.344
32442W        W 4867  15.828  34.143   3.224
32443W        W 4868  36.616  28.178   4.412
32444W        W 4869   2.212   8.227   2.382
32445W        W 4870   4.496   3.380  13.855
32446W        W 4871  37.283  19.666   0.234
32447W        W 4872  33.554  44.385  14.587
32448W        W 4873  41.081  19.665   1.821
32449W        W 4874  27.178   5.923   3.924
32450W        W 4875  11.380  40.725  13.796
32451W        W 4876  10.792   4.793  11.936
32452W        W 4877   2.868  37.065   3.294
32453W        W 4878  23.105  22.697  12.071
32454W        W 4879  38.290  23.171  13.882
32455W        W 4880  37.814  30.292   3.853
32456W        W 4881  17.009   6.380   4.095
32457W        W 4882   3.220  26.778   0.921
32458W        W 4883  37.034   0.329  11.524
32459W        W 4884  18.707   5.100  11.603
32460W        W 4885  31.621   4.164  14.885
32461W        W 4886  36.902  10.311   2.064
32462W        W 4887  14.153  25.937  12.533
32463W        W 4888   0.971  13.982   3.804
32464W        W 4889  28.212  16.740   3.194
32465W        W 4890  36.551  15.211  13.185
32466W        W 4891  26.192  43.073   3.296
32467W        W 4892  31.014  26.284   3.202
32468W        W 4893  28.392  16.056   0.035
32469W        W 4894  31.279   6.017  13.582
32470W        W 4895  29.721  20.719   0.924
32471W        W 4896  39.084   7.120   4.556
32472W        W 4897  21.169  34.029  10.668
32473W        W 4898  11.538  20.961   3.480
32474W        W 4899  22.740  32.918  13.427
32475W        W 4900  14.182  29.331  13.333
32476W        W 4901   9.378   6.258  11.594
32477W        W 4902  32.992  18.084   0.711
32478W        W 4903   7.695  30.635  12.117
32479W        W 4904  23.973   8.443   1.526
32480W        W 4905  28.692   8.096  12.603
32481W        W 4906  43.417  27.903   0.120
32482W        W 4907  24.963  40.587   3.259
32483W        W 4908  44.004  36.440   2.255
32484W        W 4909   5.817   9.130  13.751
32485W        W 4910  29.672  15.637  12.584
32486W        W 4911  20.645  31.931   4.315
32487W        W 4912  28.784  27.783   2.388
32488W        W 4913   9.649  32.971  11.337
32489W        W 4914   9.894  39.451  13.895
32490W        W 4915  43.010  29.980   1.338
32491W        W 4916  40.488  34.615  14.413
32492W        W 4917  18.703   6.422   1.261
32493W        W 4918  17.212  26.574  10.571
32494W        W 4919  11.378  21.838  10.612
32495W        W 4920  12.238  38.833   3.841
32496W        W 4921  37.356  17.743   0.491
32497W        W 4922   7.366   9.680   1.704
32498W        W 4923   4.346  27.474  14.266
32499W        W 4924   3.395  32.420   3.513
32500W        W 4925  16.307  23.688   1.355
32501W        W 4926  39.095  43.587   2.923
32502W        W 4927  25.885  33.087  11.449
32503W        W 4928  36.558  22.750  14.768
32504W        W 4929  35.068  16.977  11.262
32505W        W 4930  26.841  14.677  13.369
32506W        W 4931  24.993  15.687  11.060
32507W        W 4932  36.068  24.492  14.322
32508W        W 4933  14.201  23.680   3.412
32509W        W 4934  10.523  12.748  11.890
32510W        W 4935   4.606  37.384   2.836
32511W        W 4936   2.718  10.840   2.262
32512W        W 4937   7.253  30.090   4.583
32513W        W 4938  14.250  42.624   2.858
32514W        W 4939  25.734  26.877   0.967
32515W        W 4940  28.752  22.463   3.261
32516W        W 4941   3.001  42.377   4.196
32517W        W 4942   7.929  13.224  11.491
32518W        W 4943  37.505  39.265   5.015
32519W        W 4944  26.439  44.883   4.215
32520W        W 4945  40.441  11.597   3.674
32521W        W 4946  25.589  33.790   1.598
32522W        W 4947  38.516  23.733   1.797
32523W        W 4948  15.178  26.714  13.470
32524W        W 4949  43.319  35.981  11.146
32525W        W 4950  38.510   0.806  12.018
32526W        W 4951  20.117  29.958  10.740
32527W        W 4952  21.259  26.604   1.624
32528W        W 4953  39.798  38.647  12.935
32529W        W 4954  41.294  39.001  12.036
32530W        W 4955  15.393  16.535  14.445
32531W        W 4956  16.675   6.778  11.465
32532W        W 4957  21.118  33.557   2.716
32533W        W 4958  32.463  11.890  11.703
32534W        W 4959  14.888  22.141   1.889
32535W        W 4960  44.209  14.822   3.630
32536W        W 4961  27.707   6.918   1.300
32537W        W 4962  25.098  17.148   5.022
32538W        W 4963   9.350  36.406   4.714
32539W        W 4964   1.521   7.743   3.965
32540W        W 4965  16.564   2.976  10.775
32541W        W 4966  39.027  32.127  14.113
32542W        W 4967  44.761   6.377  11.709
32543W        W 4968  13.704  34.195  11.977
32544W        W 4969  29.095  11.148  11.615
32545W        W 4970  13.376  37.553   2.667
32546W        W 4971  33.312   7.260  14.765
32547W        W 4972  40.296  21.691  11.063
32548W        W 4973  40.378  37.294  12.060
32549W        W 4974  30.091  19.116   1.317
32550W        W 4975  10.146  43.706   4.509
32551W        W 4976  18.211  44.416   3.696
32552W        W 4977  32.213  12.838  11.970
32553W        W 4978  13.652  11.992  11.115
32554W        W 4979  40.554  13.831  14.443
32555W        W 4980  11.811  11.623   4.635
32556W        W 4981   0.644   0.828   4.602
32557W        W 4982  23.436  20.612   4.600
32558W        W 4983  21.037   1.900   3.517
32559W        W 4984  23.002  25.008  11.605
32560W        W 4985  18.210   6.171   1.200
32561W        W 4986   3.488   9.243  14.555
32562W        W 4987   4.647  35.355  14.828
32563W        W 4988  42.716  18.507   3.814
32564W        W 4989  31.986   6.675   5.111
32565W        W 4990  31.635  23.694   9.676
32566W        W 4991  24.736  12.298  12.227
32567W        W 4992   2.009   4.827  14.274
32568W        W 4993  20.475   7.574   1.576
32569W        W 4994  30.150  16.970   2.732
32570W        W 4995  38.329  28.707  13.775
32571W        W 4996  34.932  27.714   1.687
32572W        W 4997  31.158   8.677   1.801
32573W        W 4998  20.097  39.397  12.850
32574W        W 4999  26.515   1.379  10.678
32575W        W 5000   4.818  13.866  11.957
32576W        W 5001  35.345  23.159  11.905
32577W        W 5002  29.539  12.239  11.602
32578W        W 5003   4.949  27.510   3.359
32579W        W 5004  10.618  36.319  14.453
32580W        W 5005  26.468  27.229   4.564
32581W        W 5006  43.431   2.164   2.853
32582W        W 5007  15.116  32.949  13.086
32583W        W 5008  42.997  24.439   1.363
32584W        W 5009  12.131   7.181   0.845
32585W        W 5010  30.940  39.057  11.115
32586W        W 5011  23.516   4.731   1.297
32587W        W 5012   5.889  14.728  13.756
32588W        W 5013   9.099  15.826  10.451
32589W        W 5014  18.619  44.983  11.372
32590W        W 5015   3.132  19.074   3.586
32591W        W 5016   6.879  37.148   2.567
32592W        W 5017  28.538  17.500  10.543
32593W        W 5018  18.190  26.127   3.286
32594W        W 5019  43.908  16.234   1.176
32595W        W 5020   8.457  14.552  11.518
32596W        W 5021  11.377  20.572   0.276
32597W        W 5022  19.800   0.379   0.710
32598W        W 5023   9.858  34.847  10.620
32599W        W 5024  19.035  31.424   2.148
32600W        W 5025  10.280  18.130  12.819
32601W        W 5026  40.004  44.766  12.836
32602W        W 5027  26.446  18.678   1.153
32603W        W 5028  14.583  22.521  14.052
32604W        W 5029  24.510  33.526   3.203
32605W        W 5030  21.565  42.765   3.325
32606W        W 5031  44.480  44.496   1.840
32607W        W 5032  17.568   1.559  10.763
32608W        W 5033   7.353  35.607  12.932
32609W        W 5034  36.614   6.831   1.319
32610W        W 5035  25.493  20.042  12.982
32611W        W 5036  42.400  42.484   1.835
32612W        W 5037  27.560  29.617   4.577
32613W        W 5038  20.939  34.027   3.205
32614W        W 5039  15.095   6.254  11.638
32615W        W 5040  16.325  23.671  12.774
32616W        W 5041  17.039  13.490  13.482
32617W        W 5042  39.039  38.773  13.794
32618W        W 5043  16.164  44.511   1.751
32619W        W 5044  13.638  16.217   3.213
32620W        W 5045  27.642   7.578  11.122
32621W        W 5046  37.707   8.515   9.989
32622W        W 5047   6.692  38.426   1.149
32623W        W 5048  20.466  27.002   1.912
32624W        W 5049  39.355  37.147   0.962
32625W        W 5050  20.639   2.914  12.921
32626W        W 5051  11.853  32.872  13.256
32627W        W 5052  16.411  16.167  11.156
32628W        W 5053  21.319   2.351   4.163
32629W        W 5054  11.851  29.535  14.300
32630W        W 5055  12.062   1.231   4.141
32631W        W 5056  14.358   4.702   3.950
32632W        W 5057  25.877  37.430   2.711
32633W        W 5058  33.918  21.483  13.358
32634W        W 5059   7.006   3.421  12.452
32635W        W 5060   2.059   3.435  10.130
32636W        W 5061  13.584  21.638   0.392
32637W        W 5062  30.070  27.509   0.090
32638W        W 5063  12.041  35.030   4.065
32639W        W 5064  37.104   8.941  10.602
32640W        W 5065   4.000  19.106  10.665
32641W        W 5066   5.405  25.922   2.657
32642W        W 5067  29.947  23.934  12.130
32643W        W 5068  39.442  44.955  14.502
32644W        W 5069  28.261  37.008  13.464
32645W        W 5070  39.852  11.584  12.117
32646W        W 5071  19.424  36.567  14.372
32647W        W 5072  39.326   9.774   3.852
32648W        W 5073  11.815   8.795   5.052
32649W        W 5074  42.615  12.666  12.901
32650W        W 5075  17.683   2.233   3.805
32651W        W 5076  37.456   4.735   3.848
32652W        W 5077  17.717  19.520  14.354
32653W        W 5078  19.770  16.712   4.244
32654W        W 5079   8.687   1.798   0.267
32655W        W 5080  18.343  12.741  13.993
32656W        W 5081  13.226  18.781  12.857
32657W        W 5082  13.620  28.879   0.363
32658W        W 5083  31.837  33.915   1.537
32659W        W 5084   9.486   7.222  14.428
32660W        W 5085  35.514   1.886   3.540
32661W        W 5086  20.138  16.285   2.440
32662W        W 5087  30.865  22.402  12.445
32663W        W 5088  35.189  29.183  13.519
32664W        W 5089  13.811  36.400  13.385
32665W        W 5090  33.979   6.716   4.560
32666W        W 5091  33.456  34.961  12.702
32667W        W 5092  39.319  37.535   0.186
32668W        W 5093  37.389   9.691  14.003
32669W        W 5094  17.210  31.594  12.897
32670W        W 5095  18.327  24.149  14.756
32671W        W 5096  17.030   7.286   4.561
32672W        W 5097   4.241  12.814  11.437
32673W        W 5098   2.260  36.202   2.365
32674W        W 5099  38.057   7.741   4.111
32675W        W 5100  41.589   1.428  13.251
32676W        W 5101   5.838  43.279   3.832
32677W        W 5102   3.810  36.890  13.721
32678W        W 5103  30.732  12.882  13.518
32679W        W 5104  42.795  12.079   2.770
32680W        W 5105  43.860  24.957   2.315
32681W        W 5106  34.485  44.501   0.541
32682W        W 5107  24.126   0.673  10.271
32683W        W 5108   0.722  42.751   0.450
32684W        W 5109   0.753  18.998  12.966
32685W        W 5110   1.501  15.126   3.531
32686W        W 5111   5.438  39.876  13.328
32687W        W 5112  36.763  35.140  12.049
32688W        W 5113  30.101   1.883  12.213
32689W        W 5114  34.219  32.351   2.838
32690W        W 5115  41.081   9.051  12.291
32691W        W 5116  30.442  15.774   3.830
32692W        W 5117  33.643   7.635   3.948
32693W        W 5118  38.536  13.073  11.224
32694W        W 5119  15.290  35.201   0.799
32695W        W 5120  28.521  31.732   0.825
32696W        W 5121  43.727  39.923  11.029
32697W        W 5122  39.080   8.227   3.238
32698W        W 5123  35.380  39.493   2.014
32699W        W 5124  13.129  19.062  11.982
32700W        W 5125  29.575  12.102  13.484
32701W        W 5126  39.088  31.854  12.864
32702W        W 5127  16.107  29.611   1.433
32703W        W 5128  31.995  15.176  14.821
32704W        W 5129  25.005   5.429   0.568
32705W        W 5130  18.914  10.729  12.796
32706W        W 5131  13.665  16.886  12.029
32707W        W 5132  16.897   4.839  12.194
32708W        W 5133  13.231   1.402  11.999
32709W        W 5134  34.189   8.860  14.395
32710W        W 5135  36.237  10.552  14.015
32711W        W 5136  21.236  35.994  12.370
32712W        W 5137  10.490  23.015   0.784
32713W        W 5138  11.970  17.256  14.682
32714W        W 5139   9.888  27.175  14.039
32715W        W 5140  43.811  38.811  12.873
32716W        W 5141  40.854  25.742  14.056
32717W        W 5142  25.966  30.604   2.767
32718W        W 5143  36.864  27.005  12.523
32719W        W 5144  41.179  10.333   1.347
32720W        W 5145   6.553  17.590   0.219
32721W        W 5146   3.983  40.423  14.277
32722W        W 5147  33.661   8.675   5.004
32723W        W 5148   0.500  44.903   0.684
32724W        W 5149  37.003   5.075  12.977
32725W        W 5150   0.467  10.327  12.361
32726W        W 5151  13.356  41.509  14.866
32727W        W 5152  28.911   0.243  13.456
32728W        W 5153  38.463   4.758  12.425
32729W        W 5154  23.556  27.678  13.879
32730W        W 5155  20.251   0.871  14.416
32731W        W 5156  15.817   5.398  13.079
32732W        W 5157  13.776  12.731   1.793
32733W        W 5158  29.424  21.528  13.731
32734W        W 5159  10.743  33.827  10.625
32735W        W 5160  12.056   5.299   2.435
32736W        W 5161  11.608   2.929   3.167
32737W        W 5162  43.297  11.583   1.298
32738W        W 5163   0.480   3.941   2.177
32739W        W 5164  14.854  27.334  11.373
32740W        W 5165  10.686  36.992   2.957
32741W        W 5166  34.132  38.876  13.953
32742W        W 5167  11.599  42.655  11.997
32743W        W 5168  11.398  28.579  10.621
32744W        W 5169  13.356  42.533  12.988
32745W        W 5170   5.223   1.458   0.720
32746W        W 5171  20.680  31.867   3.145
32747W        W 5172  28.908  24.558   4.755
32748W        W 5173   4.486  10.638   3.219
32749W        W 5174  39.846  13.208   2.404
32750W        W 5175  40.848   2.201   0.030
32751W        W 5176   3.842  24.425  12.578
32752W        W 5177  12.639  29.950  14.814
32753W        W 5178  18.592  35.239   0.682
32754W        W 5179  36.940  44.380  14.709
32755W        W 5180   4.772  14.828   3.344
32756W        W 5181   7.396   6.218  14.407
32757W        W 5182  19.291   1.796   1.511
32758W        W 5183  38.521  36.538  14.919
32759W        W 5184  26.503  13.088  11.164
32760W        W 5185  21.692   3.208   2.223
32761W        W 5186  36.431   8.348   3.262
32762W        W 5187  15.121  42.443   1.741
32763W        W 5188  17.055  25.451   4.187
32764W        W 5189  16.253  17.651  13.482
32765W        W 5190  17.403  44.872   2.072
32766W        W 5191  43.391  21.410  14.581
32767W        W 5192  12.740  15.778  13.440
32768W        W 5193  29.713  20.584  14.912
32769W        W 5194  44.261  19.952  14.420
32770W        W 5195  27.709   0.754  14.744
32771W        W 5196  18.667  32.690  11.183
32772W        W 5197   6.275   9.621   2.882
32773W        W 5198  39.542  18.201  11.167
32774W        W 5199  20.034   5.844   1.308
32775W        W 5200  18.568   2.132   0.348
32776W        W 5201  34.191  37.410   0.868
32777W        W 5202  36.834  29.227  12.110
32778W        W 5203  29.104  13.602   0.828
32779W        W 5204  29.405  21.532   4.128
32780W        W 5205  23.729  27.678  12.050
32781W        W 5206  13.705  14.406  13.290
32782W        W 5207  25.388  32.353   9.800
32783W        W 5208  43.038  42.491   2.817
32784W        W 5209  38.660  17.297  10.417
32785W        W 5210  42.324  16.070  10.873
32786W        W 5211  16.555  19.531  14.723
32787W        W 5212   4.098  11.761   4.220
32788W        W 5213  15.161  33.431   5.085
32789W        W 5214   1.286  29.583  14.033
32790W        W 5215  31.634   3.947   0.867
32791W        W 5216  38.980   5.107   2.231
32792W        W 5217   1.987  36.922   4.630
32793W        W 5218   0.015  14.776   3.714
32794W        W 5219  18.658   6.975  11.121
32795W        W 5220  17.793  28.920   4.629
32796W        W 5221  20.766  39.385  11.177
32797W        W 5222   6.434  21.326  11.612
32798W        W 5223  26.225  31.504  11.937
32799W        W 5224   0.173  32.454  11.157
32800W        W 5225  24.240   8.676   4.570
32801W        W 5226  20.280   4.335   4.123
32802W        W 5227  36.537  21.671   2.249
32803W        W 5228  13.249   1.663  13.979
32804W        W 5229  16.015  19.203   2.650
32805W        W 5230  23.653   3.874  10.749
32806W        W 5231  25.560  14.198  10.668
32807W        W 5232  34.037  28.795  13.904
32808W        W 5233  37.402   2.495   4.188
32809W        W 5234  21.499   0.876   1.449
32810W        W 5235  34.968  33.908  11.785
32811W        W 5236   6.958   2.231   3.588
32812W        W 5237   0.434  44.954  12.001
32813W        W 5238  29.456  20.400   1.329
32814W        W 5239   1.626  25.613   2.650
32815W        W 5240  37.674  37.521  10.717
32816W        W 5241  17.127  18.540   1.668
32817W        W 5242  23.993   4.428   2.709
32818W        W 5243  19.170  17.169   1.317
32819W        W 5244   2.513  35.775   2.881
32820W        W 5245   2.618   4.181   2.303
32821W        W 5246   0.560  18.805   0.245
32822W        W 5247  23.753  29.822   2.550
32823W        W 5248   4.908  11.223  10.071
32824W        W 5249  42.929   4.255  10.772
32825W        W 5250  39.028  36.364  13.425
32826W        W 5251  33.073  23.464   1.803
32827W        W 5252   3.991  34.872   2.130
32828W        W 5253   7.575  11.150   2.615
32829W        W 5254  15.557  10.091  14.437
32830W        W 5255  23.981  39.849  11.147
32831W        W 5256   5.996  19.149   3.624
32832W        W 5257   2.841  37.226  14.000
32833W        W 5258  14.010  16.690   0.155
32834W        W 5259  32.433  22.220   4.389
32835W        W 5260  22.699  19.757  14.699
32836W        W 5261  25.425   1.783  11.801
32837W        W 5262   0.595  34.908   0.002
32838W        W 5263   6.725  24.975   3.692
32839W        W 5264  37.455  14.031   1.916
32840W        W 5265   6.617   4.211   3.356
32841W        W 5266  13.174  23.767  10.750
32842W        W 5267  21.804  41.156  12.511
32843W        W 5268   4.969  41.848   2.297
32844W        W 5269  44.941  30.016   4.360
32845W        W 5270  18.884  16.887   4.694
32846W        W 5271   1.285   4.377  12.408
32847W        W 5272  43.919   8.640   4.737
32848W        W 5273  41.988  41.922   4.724
32849W        W 5274  22.715  22.771   2.796
32850W        W 5275   6.808  29.520  13.350
32851W        W 5276  31.988  18.862  11.645
32852W        W 5277  22.787  37.640   9.994
32853W        W 5278  34.301   8.245   2.256
32854W        W 5279  20.716  16.066  10.769
32855W        W 5280  30.076  19.973   2.265
32856W        W 5281   7.471  25.980   3.281
32857W        W 5282  16.108  26.239   4.103
32858W        W 5283  17.703  37.646   2.710
32859W        W 5284  13.626  30.641   2.275
32860W        W 5285  19.735   3.311  14.411
32861W        W 5286   6.904   1.470  13.953
32862W        W 5287   8.867   8.878  10.753
32863W        W 5288   5.633  12.436   0.794
32864W        W 5289  22.567   1.483   2.731
32865W        W 5290  15.609  37.532  14.599
32866W        W 5291  12.154   1.501  14.924
32867W        W 5292  43.290  31.406   4.781
32868W        W 5293  38.637  44.869  13.550
32869W        W 5294  23.241  44.545   4.295
32870W        W 5295   9.620  19.111   0.395
32871W        W 5296  39.417  34.658  13.661
32872W        W 5297  40.867  30.453  12.034
32873W        W 5298  23.658  14.754   3.401
32874W        W 5299  32.555  24.664   0.716
32875W        W 5300  34.591  44.286   3.133
32876W        W 5301  12.142  44.523   4.072
32877W        W 5302  26.665  17.625  11.975
32878W        W 5303   1.031  14.035  14.812
32879W        W 5304   1.188  30.016  14.272
32880W        W 5305   3.235  19.737   2.084
32881W        W 5306   2.799  26.835   2.097
32882W        W 5307  31.665  43.310   0.261
32883W        W 5308  24.473  31.917  11.212
32884W        W 5309  12.619  24.109  13.505
32885W        W 5310  40.481   9.802  12.966
32886W        W 5311  29.077  11.194   3.028
32887W        W 5312  13.810   8.958   0.029
32888W        W 5313   5.186   4.831   2.347
32889W        W 5314   0.455  31.280   5.305
32890W        W 5315  12.168  12.550  14.905
32891W        W 5316  23.840  23.066  13.013
32892W        W 5317  29.018  15.326  12.964
32893W        W 5318  33.956  10.311  10.677
32894W        W 5319  14.395  17.163   2.878
32895W        W 5320  42.945  38.626   3.797
32896W        W 5321  14.177  15.661   2.566
32897W        W 5322  29.042  31.521   2.597
32898W        W 5323  41.508  40.025  12.922
32899W        W 5324  19.548  43.257  14.521
32900W        W 5325   1.513  19.563  13.735
32901W        W 5326   5.256  24.655   3.472
32902W        W 5327  21.997  29.056  10.729
32903W        W 5328   0.887  33.269   2.190
32904W        W 5329  44.147   2.384   1.900
32905W        W 5330  40.022  18.804  13.719
32906W        W 5331  21.370   2.820   0.028
32907W        W 5332  10.301   3.802   2.481
32908W        W 5333  13.088   7.653   2.850
32909W        W 5334  12.608  31.612   4.112
32910W        W 5335  36.603  19.523  13.780
32911W        W 5336  32.403  42.802   2.267
32912W        W 5337  18.792  29.645  12.013
32913W        W 5338  42.046  24.904  10.597
32914W        W 5339  12.869   0.911   0.483
32915W        W 5340  19.985  27.653   2.716
32916W        W 5341  36.378  29.231   0.854
32917W        W 5342  20.104  37.957   2.359
32918W        W 5343   4.260   7.716   0.537
32919W        W 5344  14.322  15.320  14.495
32920W        W 5345   2.212  23.690   2.167
32921W        W 5346  39.357   5.738   1.544
32922W        W 5347  13.907  23.208  13.802
32923W        W 5348  32.436  10.857  13.887
32924W        W 5349  17.873  29.422  12.062
32925W        W 5350  37.131   3.878   4.327
32926W        W 5351   0.064  26.932   0.758
32927W        W 5352   3.835  12.600  11.706
32928W        W 5353  33.612   6.835  14.563
32929W        W 5354  29.821   4.776   3.883
32930W        W 5355  38.866  12.347   3.920
32931W        W 5356  30.169  35.502   3.203
32932W        W 5357  34.245  43.368   2.232
32933W        W 5358  44.831  33.616  14.744
32934W        W 5359  44.263  11.863  10.724
32935W        W 5360  14.252  12.166   0.516
32936W        W 5361  44.636   9.640   2.241
32937W        W 5362  28.039   3.353   3.287
32938W        W 5363  41.628  43.476  11.508
32939W        W 5364  32.943  30.577   3.226
32940W        W 5365   0.793   6.749  11.617
32941W        W 5366  42.377  31.693  12.560
32942W        W 5367  16.511  22.466  13.876
32943W        W 5368  24.890  13.575   2.852
32944W        W 5369  29.914  15.966   2.715
32945W        W 5370  40.341   2.096  14.850
32946W        W 5371  13.997  41.366  11.415
32947W        W 5372  14.058  37.557   1.447
32948W        W 5373  27.578  30.344   2.148
32949W        W 5374  17.743  38.360   3.268
32950W        W 5375  32.698  40.626   2.857
32951W        W 5376  29.838   1.845   1.140
32952W        W 5377  44.309  42.399  10.986
32953W        W 5378   9.130  14.452   1.474
32954W        W 5379   0.057  28.625  11.107
32955W        W 5380  35.576  36.449  14.034
32956W        W 5381  34.380  18.030   0.431
32957W        W 5382  13.807  21.602   2.782
32958W        W 5383  36.875  13.723   1.398
32959W        W 5384  32.346   9.332   3.207
32960W        W 5385  20.987  24.465   1.290
32961W        W 5386  40.624  30.374   4.737
32962W        W 5387   4.731   5.657   3.152
32963W        W 5388  33.084  13.193   0.415
32964W        W 5389   1.127  11.878  13.435
32965W        W 5390  14.732  42.084   1.879
32966W        W 5391   9.745  19.769  10.501
32967W        W 5392  31.419  35.058  14.386
32968W        W 5393   8.280   3.209  12.014
32969W        W 5394  16.307  27.081  14.761
32970W        W 5395  44.517  11.104   1.252
32971W        W 5396   0.766  24.191   0.335
32972W        W 5397  32.367   3.982   3.710
32973W        W 5398  43.288  26.212   1.003
32974W        W 5399  26.955  12.125   1.439
32975W        W 5400   8.685  34.971  11.246
32976W        W 5401   6.803  24.721   0.341
32977W        W 5402  39.154   6.166   3.775
32978W        W 5403  32.868  10.871   4.590
32979W        W 5404   7.123   3.444   3.856
32980W        W 5405  15.487  40.210  11.548
32981W        W 5406  22.602  31.867   4.569
32982W        W 5407  33.127  23.739  11.163
32983W        W 5408  37.411  12.379   3.373
32984W        W 5409  36.322  36.468  11.473
32985W        W 5410  25.271   0.747  11.629
32986W        W 5411  44.971  44.266  12.579
32987W        W 5412  18.557  11.240   2.281
32988W        W 5413   2.676   3.641   4.949
32989W        W 5414  38.930  14.416   4.413
32990W        W 5415  34.120  38.057   3.101
32991W        W 5416  11.345  41.394  11.596
32992W        W 5417  20.090  24.580   1.334
32993W        W 5418   6.559  40.389   4.584
32994W        W 5419  28.255  12.227   0.018
32995W        W 5420  36.125   9.638   0.786
32996W        W 5421  42.476  16.167  13.562
32997W        W 5422  26.203  34.558  11.980
32998W        W 5423  24.975   4.867  11.918
32999W        W 5424  11.219  35.273  10.639
33000W        W 5425  19.219   9.790   0.791
33001W        W 5426   2.773  10.258  10.566
33002W        W 5427  23.937   1.466   9.983
33003W        W 5428   4.848  28.760  13.053
33004W        W 5429   7.552  22.962   0.806
33005W        W 5430  32.301   2.750  13.645
33006W        W 5431  17.614  14.742  11.497
33007W        W 5432  41.498  40.383  14.939
33008W        W 5433  43.709  36.502  14.739
33009W        W 5434  10.800  22.855   5.433
33010W        W 5435   9.594  27.073   3.756
33011W        W 5436  20.688   9.338   2.643
33012W        W 5437  38.906   9.729   4.407
33013W        W 5438   1.823  14.850  14.840
33014W        W 5439  43.970  15.707   1.193
33015W        W 5440  28.549  36.863  12.877
33016W        W 5441  26.479   9.404  13.837
33017W        W 5442  38.472  29.053   2.859
33018W        W 5443  39.674  29.447   2.742
33019W        W 5444  21.936  44.188   1.394
33020W        W 5445  39.309  44.474   0.904
33021W        W 5446  16.701   9.767   1.039
33022W        W 5447  33.566  25.622  12.954
33023W        W 5448  23.523   7.352  14.232
33024W        W 5449  37.192  30.183  11.026
33025W        W 5450  41.803  39.921   4.541
33026W        W 5451  39.023  11.566   2.568
33027W        W 5452  10.839  29.864   0.210
33028W        W 5453  15.349  37.034   4.950
33029W        W 5454  26.110  32.184   1.851
33030W        W 5455  20.143  35.880  13.381
33031W        W 5456  38.170  30.568   4.571
33032W        W 5457  39.457  28.465   1.956
33033W        W 5458  39.312  40.299   1.335
33034W        W 5459   7.800  14.123  14.462
33035W        W 5460   8.167  28.716  13.414
33036W        W 5461   0.324   0.960  12.109
33037W        W 5462  44.373   0.798   1.369
33038W        W 5463  11.760  39.940  12.954
33039W        W 5464  38.773   5.370  13.777
33040W        W 5465   2.370   7.466  12.000
33041W        W 5466  24.645  42.230   0.218
33042W        W 5467  22.041  14.733  11.136
33043W        W 5468  43.752  29.960  12.485
33044W        W 5469   6.951  31.564   0.181
33045W        W 5470  37.785  40.453  13.422
33046W        W 5471  10.625  32.960   1.163
33047W        W 5472  18.999   4.765  14.817
33048W        W 5473  33.813  23.709  14.423
33049W        W 5474  41.010   5.167   4.645
33050W        W 5475  26.983  20.300   3.312
33051W        W 5476  13.591  10.976   0.653
33052W        W 5477  19.030  20.464   0.005
33053W        W 5478  19.696  37.303  12.110
33054W        W 5479   3.838  13.824  12.964
33055W        W 5480  24.030   9.366  13.027
33056W        W 5481  37.431  25.160   4.843
33057W        W 5482  26.070  13.584  10.583
33058W        W 5483  17.262  14.753  11.088
33059W        W 5484  21.292  26.071   0.404
33060W        W 5485   7.373  29.600   4.716
33061W        W 5486   5.804  20.149  14.383
33062W        W 5487  22.628  13.153   3.687
33063W        W 5488   6.759  42.416  14.708
33064W        W 5489  16.065  42.722   4.253
33065W        W 5490  15.023  43.849   1.979
33066W        W 5491  44.527   9.589   3.134
33067W        W 5492   0.858   0.569  12.028
33068W        W 5493   6.138  14.567  14.238
33069W        W 5494  26.202  40.019  11.115
33070W        W 5495  27.508  35.851   2.789
33071W        W 5496  17.029  27.590  11.071
33072W        W 5497  32.534  21.667  13.883
33073W        W 5498  40.268  40.728   0.046
33074W        W 5499  24.658  32.953   2.335
33075W        W 5500   4.347  43.441  12.401
33076W        W 5501  10.202  16.889   3.299
33077W        W 5502  31.388  43.551  14.842
33078W        W 5503  13.295  26.953  13.906
33079W        W 5504   3.934  29.360  11.123
33080W        W 5505   8.303  39.449  12.438
33081W        W 5506  21.272  42.241   0.896
33082W        W 5507   7.058  22.454  14.950
33083W        W 5508  42.424  16.257   4.164
33084W        W 5509  36.629  30.794  11.211
33085W        W 5510   0.420  29.752   3.085
33086W        W 5511   1.220  41.833  12.541
33087W        W 5512   4.581   4.156   4.192
33088W        W 5513  10.613  10.393   4.357
33089W        W 5514  30.051   8.119   4.705
33090W        W 5515  34.389  10.764   1.959
33091W        W 5516  23.935  26.696   2.835
33092W        W 5517   0.323   2.506  11.411
33093W        W 5518  22.150   5.042  12.534
33094W        W 5519  40.764  13.346  10.797
33095W        W 5520  42.765  17.436   2.376
33096W        W 5521  44.863  29.907  14.899
33097W        W 5522  13.076  39.346   1.418
33098W        W 5523  23.231  12.326  14.358
33099W        W 5524  39.263  41.479  10.480
33100W        W 5525   7.624  24.502   3.854
33101W        W 5526  33.258  44.490   4.289
33102W        W 5527   0.897  35.772   4.522
33103W        W 5528  26.709  41.478  11.632
33104W        W 5529  32.931  29.410   2.824
33105W        W 5530   7.945  34.171  11.158
33106W        W 5531  21.459   9.909   2.804
33107W        W 5532  12.994   7.301  10.707
33108W        W 5533  17.774  11.232   1.885
33109W        W 5534  36.436   9.812   9.734
33110W        W 5535  32.088  40.038   2.310
33111W        W 5536  32.422  35.367   2.255
33112W        W 5537  43.583  26.150  10.824
33113W        W 5538  12.720  16.833  13.999
33114W        W 5539  43.125  36.795  12.205
33115W        W 5540   5.858   0.880  11.499
33116W        W 5541  43.232   2.588  10.568
33117W        W 5542  36.388  24.073   3.816
33118W        W 5543   5.768  41.986  12.574
33119W        W 5544  38.843  35.864  14.430
33120W        W 5545  31.121  17.605   4.219
33121W        W 5546  25.576  19.730   4.111
33122W        W 5547  36.816  36.933   4.616
33123W        W 5548  44.505   1.371  11.669
33124W        W 5549  19.737  18.935   3.257
33125W        W 5550   4.460  33.661   4.123
33126W        W 5551  12.814  39.304   0.977
33127W        W 5552  40.109  18.684   3.671
33128W        W 5553  33.992   9.799  10.630
33129W        W 5554  27.404  42.572   3.637
33130W        W 5555   5.947  18.230   4.199
33131W        W 5556  13.749  21.211   4.472
33132W        W 5557  16.994  42.893   2.005
33133W        W 5558  23.637  37.728  13.620
33134W        W 5559  23.140  10.754  14.409
33135W        W 5560  12.698  17.681  12.969
33136W        W 5561   1.523  36.120   1.870
33137W        W 5562  15.834  42.044   3.658
33138W        W 5563   0.174   6.266   0.336
33139W        W 5564  13.904   3.473  10.593
33140W        W 5565  37.554  42.770  12.810
33141W        W 5566  18.047   2.376  10.895
33142W        W 5567   2.471  30.075   3.604
33143W        W 5568  25.525  44.871   0.537
33144W        W 5569  11.417  27.699   4.884
33145W        W 5570   2.898  10.199  13.446
33146W        W 5571  44.766   0.904  14.971
33147W        W 5572  20.938   6.859  10.997
33148W        W 5573  42.878   6.279  14.265
33149W        W 5574  16.216  38.014  10.365
33150W        W 5575   8.881  11.382  12.378
33151W        W 5576  24.990  20.519   4.412
33152W        W 5577  20.758  10.821   3.558
33153W        W 5578  27.642   0.284  10.927
33154W        W 5579  21.741  24.827   1.419
33155W        W 5580  32.385  41.937   1.354
33156W        W 5581  42.674  24.804  11.862
33157W        W 5582  17.112  23.211  12.821
33158W        W 5583   5.699  27.450   2.114
33159W        W 5584  42.699  11.785   3.606
33160W        W 5585  20.721  18.635  12.961
33161W        W 5586   9.864  23.891   2.642
33162W        W 5587  40.759   7.928  13.433
33163W        W 5588  39.881   3.143  14.296
33164W        W 5589  10.186  26.205  10.486
33165W        W 5590  41.635  43.891   1.618
33166W        W 5591   7.365  40.224  14.906
33167W        W 5592  11.556  17.674  13.529
33168W        W 5593  31.060   1.337   0.367
33169W        W 5594  40.026  29.144  11.192
33170W        W 5595   7.347  23.486   0.017
33171W        W 5596  24.859   1.169  14.898
33172W        W 5597  32.637  34.221  11.037
33173W        W 5598  13.296  24.142   4.655
33174W        W 5599  39.817  23.114   3.360
33175W        W 5600  41.352  32.990   2.333
33176W        W 5601   3.487  35.791   1.943
33177W        W 5602  22.108   4.707   1.392
33178W        W 5603  23.742  17.594   2.394
33179W        W 5604  29.130  11.335   3.548
33180W        W 5605   2.162   1.551   4.085
33181W        W 5606  37.389   2.376  13.343
33182W        W 5607  15.277  26.728   3.316
33183W        W 5608   4.962   2.758   4.710
33184W        W 5609  23.663  39.807  12.369
33185W        W 5610  27.231  16.428  11.661
33186W        W 5611  17.297  38.067   2.748
33187W        W 5612  31.450  26.152   2.940
33188W        W 5613  34.878  17.684  13.811
33189W        W 5614   8.722  13.719   3.557
33190W        W 5615  24.057  41.287  12.859
33191W        W 5616   5.195  31.062  14.793
33192W        W 5617  25.983  29.480   3.838
33193W        W 5618  33.374   7.711  11.685
33194W        W 5619  31.004  20.197  11.332
33195W        W 5620   6.167  23.494   3.715
33196W        W 5621  22.459  25.757   0.081
33197W        W 5622  33.604  30.194  11.582
33198W        W 5623  40.324  30.691   0.218
33199W        W 5624  14.179  11.716   2.733
33200W        W 5625  25.147  26.836   2.351
33201W        W 5626  42.205  24.260   5.003
33202W        W 5627  19.791   3.177  13.865
33203W        W 5628   5.482   5.266   0.742
33204W        W 5629  24.151   9.185   3.736
33205W        W 5630  27.539  21.387   5.585
33206W        W 5631  42.051  28.763   1.827
33207W        W 5632  39.437  26.415  14.391
33208W        W 5633   6.103  14.800  10.981
33209W        W 5634  18.527  28.626   1.760
33210W        W 5635  15.697  17.187  14.825
33211W        W 5636  20.664  16.145  11.281
33212W        W 5637  36.353  13.726  11.284
33213W        W 5638  28.704  30.650  13.044
33214W        W 5639  35.111  16.142  12.039
33215W        W 5640  14.198  42.497  13.053
33216W        W 5641   7.202   4.621  14.453
33217W        W 5642  39.146  17.061   3.675
33218W        W 5643   2.383  15.338   9.984
33219W        W 5644  29.477  30.914  14.049
33220W        W 5645  42.869   9.213  12.136
33221W        W 5646  36.402   3.245   1.870
33222W        W 5647  10.303  26.929   0.836
33223W        W 5648   7.214  19.878  14.292
33224W        W 5649  31.441   1.803  14.744
33225W        W 5650  28.927  27.772   4.002
33226W        W 5651  13.600   2.047  13.815
33227W        W 5652   6.861  44.332   4.899
33228W        W 5653  21.072  23.790   2.496
33229W        W 5654   2.222   8.357  14.837
33230W        W 5655  25.607  36.118   2.646
33231W        W 5656  35.436  37.125   4.879
33232W        W 5657  44.965  39.511   0.921
33233W        W 5658  17.226  44.928  14.710
33234W        W 5659  21.540  39.544   0.751
33235W        W 5660  31.577  39.591  14.405
33236W        W 5661  17.289  32.127  14.032
33237W        W 5662   8.507  33.495   0.334
33238W        W 5663  39.269  43.819  10.400
33239W        W 5664  18.606   1.304  12.461
33240W        W 5665  33.074  25.200  12.173
33241W        W 5666  40.087  13.537  11.078
33242W        W 5667  23.152   6.671  14.892
33243W        W 5668  20.621  37.696  12.090
33244W        W 5669  30.449  27.176   4.903
33245W        W 5670  14.034  35.141  13.134
33246W        W 5671  16.220  21.701  14.229
33247W        W 5672  35.930  18.654  13.396
33248W        W 5673  28.938  15.216   0.401
33249W        W 5674   7.971  26.084  11.806
33250W        W 5675  13.600  25.570  10.621
33251W        W 5676  33.332  28.170   3.829
33252W        W 5677  33.291  26.109   3.315
33253W        W 5678  14.890  32.157  10.336
33254W        W 5679  25.197  15.240  13.403
33255W        W 5680  35.507  27.026  14.752
33256W        W 5681  21.856  29.946   2.926
33257W        W 5682  35.355  28.032  12.131
33258W        W 5683  28.850  28.619  14.400
33259W        W 5684   6.419  33.429  11.669
33260W        W 5685  19.099   9.318   0.002
33261W        W 5686  40.812  11.227   1.688
33262W        W 5687  24.451  19.647  12.397
33263W        W 5688  37.558  27.039   4.310
33264W        W 5689  38.774  26.476   1.429
33265W        W 5690   8.253  26.985  14.482
33266W        W 5691   6.125  30.464  14.759
33267W        W 5692  11.720  38.362  13.924
33268W        W 5693  34.438  15.271  14.945
33269W        W 5694  41.588  44.826  12.993
33270W        W 5695  35.489   4.497   2.888
33271W        W 5696  32.348  16.735  14.163
33272W        W 5697   9.250   9.374   1.818
33273W        W 5698  19.184  28.750  12.426
33274W        W 5699  13.116  10.026  11.073
33275W        W 5700   1.947  21.486  14.982
33276W        W 5701  12.529  43.236   2.459
33277W        W 5702  10.862  43.777  14.985
33278W        W 5703  33.695  18.122  11.466
33279W        W 5704  25.634  15.572  10.365
33280W        W 5705   5.323  16.313  10.728
33281W        W 5706  38.787  18.307   2.710
33282W        W 5707   1.826  31.593  11.857
33283W        W 5708  16.325  39.898  13.798
33284W        W 5709  33.385  13.735   4.884
33285W        W 5710  23.404  10.365   4.153
33286W        W 5711  43.954  42.703  14.278
33287W        W 5712  34.951  41.545   0.801
33288W        W 5713  12.118  40.433  11.816
33289W        W 5714  12.585   4.507  13.351
33290W        W 5715   0.898   5.143   4.202
33291W        W 5716   0.416  25.808   3.353
33292W        W 5717  23.331  40.913  12.894
33293W        W 5718  17.798  38.089   1.851
33294W        W 5719  24.690  14.859   1.654
33295W        W 5720  24.043  19.756  12.652
33296W        W 5721  21.727  18.642  11.630
33297W        W 5722  44.292   0.488  14.581
33298W        W 5723   3.815  11.764  12.981
33299W        W 5724  30.082  29.111   4.637
33300W        W 5725  40.360   0.795   0.030
33301W        W 5726  16.747  20.488   1.025
33302W        W 5727  41.349  24.732   3.049
33303W        W 5728  37.800  31.981  11.655
33304W        W 5729   6.414   6.694   4.203
33305W        W 5730   2.765  16.973  14.445
33306W        W 5731  18.836  14.719  11.488
33307W        W 5732  33.337  37.814  12.098
33308W        W 5733  32.499  30.162   2.426
33309W        W 5734  36.264  29.547  11.581
33310W        W 5735  30.291  40.686  14.482
33311W        W 5736  12.046  37.307   2.090
33312W        W 5737  18.313  32.711  13.814
33313W        W 5738   9.126   6.489  11.986
33314W        W 5739   3.813   3.074   1.856
33315W        W 5740  25.039  28.095   0.260
33316W        W 5741  25.670  24.018   0.016
33317W        W 5742  16.493  32.007   1.381
33318W        W 5743  25.195   0.452   0.337
33319W        W 5744  39.600   8.777  11.040
33320W        W 5745  44.004  26.093   3.808
33321W        W 5746  14.400  26.745   2.795
33322W        W 5747  16.541  11.734  13.090
33323W        W 5748  36.020  13.212  14.897
33324W        W 5749  38.502  20.929   1.994
33325W        W 5750  12.744  15.745   1.481
33326W        W 5751  22.294  32.108   9.878
33327W        W 5752   1.343  43.268  14.175
33328W        W 5753  16.257  39.487   1.326
33329W        W 5754  33.679  33.320   1.770
33330W        W 5755   8.598  43.357   2.741
33331W        W 5756  17.538  33.948   0.974
33332W        W 5757  14.261  40.280   4.084
33333W        W 5758  36.530  34.356  10.536
33334W        W 5759  34.656   8.619  13.509
33335W        W 5760  25.644   1.391  12.606
33336W        W 5761  36.554  38.080  11.015
33337W        W 5762   4.962  17.076   1.698
33338W        W 5763  35.079  43.458  11.570
33339W        W 5764  38.437   7.801   2.194
33340W        W 5765   0.960  32.720  14.038
33341W        W 5766  22.858   0.518   2.131
33342W        W 5767  34.363  15.422   3.113
33343W        W 5768  44.452  12.464  13.150
33344W        W 5769  34.044  37.242   3.251
33345W        W 5770   1.372  30.242   2.233
33346W        W 5771   3.664  33.141   1.311
33347W        W 5772   1.824  32.574  12.822
33348W        W 5773  19.168  40.578   3.692
33349W        W 5774  32.853  21.289   5.148
33350W        W 5775  20.555  17.836   4.748
33351W        W 5776  11.421  19.270   3.815
33352W        W 5777  20.745  35.833   1.065
33353W        W 5778  35.306  27.435  13.008
33354W        W 5779  38.884  33.856   1.248
33355W        W 5780  43.014   5.114   1.659
33356W        W 5781  14.776  28.197   0.863
33357W        W 5782  41.795  19.100  13.376
33358W        W 5783  27.605   5.691  12.359
33359W        W 5784  23.502  24.737  13.388
33360W        W 5785  16.578  31.934  11.404
33361W        W 5786  22.504   7.706   2.736
33362W        W 5787  37.272   5.761   4.658
33363W        W 5788  37.337  25.530   3.161
33364W        W 5789  17.596  28.550  11.554
33365W        W 5790  23.321  20.997   4.921
33366W        W 5791  21.407  37.318  14.755
33367W        W 5792  15.764  43.696  14.900
33368W        W 5793   9.272  18.666   0.378
33369W        W 5794  38.262  31.732   4.645
33370W        W 5795  14.739  38.821   1.856
33371W        W 5796  18.027   4.348  14.790
33372W        W 5797  17.901  32.190  11.479
33373W        W 5798  34.305  16.126  13.424
33374W        W 5799  40.035  43.563   0.270
33375W        W 5800   8.672  16.703   4.407
33376W        W 5801  43.944   9.404  11.438
33377W        W 5802  30.574  23.102   0.922
33378W        W 5803  28.605  30.481   3.072
33379W        W 5804  32.427  13.829   1.851
33380W        W 5805   0.600  18.381  11.152
33381W        W 5806  21.593  13.813   0.972
33382W        W 5807  27.238  13.336   0.376
33383W        W 5808  42.909  21.759  13.526
33384W        W 5809  31.011  20.219  11.852
33385W        W 5810  17.864  18.521  12.544
33386W        W 5811  10.167   6.674   1.340
33387W        W 5812  15.672   0.287  13.750
33388W        W 5813  29.878   8.186   0.370
33389W        W 5814   2.699   1.810  11.999
33390W        W 5815  14.519   6.365  12.501
33391W        W 5816  40.775  15.811   0.156
33392W        W 5817  34.921  17.295   2.158
33393W        W 5818  41.048  23.826   4.440
33394W        W 5819  28.097  12.475  10.681
33395W        W 5820  16.638  39.085   3.286
33396W        W 5821  36.068   3.404  12.439
33397W        W 5822  43.507  11.834   0.897
33398W        W 5823   6.374  20.407   4.267
33399W        W 5824   5.653  30.377   1.307
33400W        W 5825   0.868  26.043   0.989
33401W        W 5826  14.706  22.792  12.843
33402W        W 5827  36.798  40.831  14.397
33403W        W 5828   7.707  17.740   4.506
33404W        W 5829  20.936  43.367  14.471
33405W        W 5830  28.939   1.301  12.578
33406W        W 5831  27.457  40.058   5.151
33407W        W 5832  36.013  42.530   2.239
33408W        W 5833  34.013  28.598   0.159
33409W        W 5834   7.390  32.051  10.529
33410W        W 5835  18.531  32.289   5.066
33411W        W 5836  29.564  40.110  14.432
33412W        W 5837  35.397  21.188   2.850
33413W        W 5838  22.153  26.898   2.708
33414W        W 5839  38.267  37.259   1.862
33415W        W 5840   9.387   6.923  11.821
33416W        W 5841  42.680  19.794  11.319
33417W        W 5842  44.056  14.690  14.803
33418W        W 5843  16.782  27.407  13.830
33419W        W 5844  12.389  33.009   4.061
33420W        W 5845  44.957  35.957   3.759
33421W        W 5846  16.964  30.047   0.759
33422W        W 5847  16.133  31.175  13.427
33423W        W 5848   8.830   1.854   2.814
33424W        W 5849  20.568  19.327  11.657
33425W        W 5850   8.195  18.557   0.001
33426W        W 5851  36.839  33.155   3.163
33427W        W 5852   4.741  41.949   0.497
33428W        W 5853  11.979  14.620   0.263
33429W        W 5854  35.419  28.148   4.490
33430W        W 5855  16.093  10.619   3.903
33431W        W 5856  10.708  11.990  11.566
33432W        W 5857  22.667   8.452  11.954
33433W        W 5858  14.582  26.668  12.406
33434W        W 5859  32.485   8.717  13.766
33435W        W 5860  42.970   1.363  14.695
33436W        W 5861  36.410  20.780  12.509
33437W        W 5862  40.418   1.216   0.961
33438W        W 5863  19.525  34.627   3.909
33439W        W 5864  13.575  27.667   3.319
33440W        W 5865  39.456  37.339  11.948
33441W        W 5866  14.279  32.659   5.022
33442W        W 5867  24.239  13.311   2.326
33443W        W 5868  34.938  27.194   3.231
33444W        W 5869  30.000  25.461  10.913
33445W        W 5870  44.897   8.164   1.944
33446W        W 5871  14.436  41.343  11.678
33447W        W 5872  33.059  33.195  12.013
33448W        W 5873  16.937  34.284   5.489
33449W        W 5874  36.989  43.359   1.390
33450W        W 5875  26.581  23.560  14.177
33451W        W 5876  11.392  37.335  10.485
33452W        W 5877  29.519  39.799   0.969
33453W        W 5878  20.832  38.254  10.522
33454W        W 5879   6.812  40.591   3.625
33455W        W 5880  33.011  17.247  13.073
33456W        W 5881  23.367  31.938  12.365
33457W        W 5882  22.330  42.430  14.934
33458W        W 5883  14.320   3.166  10.577
33459W        W 5884   7.258  28.895  11.530
33460W        W 5885  43.878  42.587   0.533
33461W        W 5886  11.229  33.461  11.227
33462W        W 5887  21.631   1.650   0.790
33463W        W 5888  31.268  30.123   4.384
33464W        W 5889   9.713  38.385  14.703
33465W        W 5890  12.760  36.486  11.728
33466W        W 5891  14.101  43.774  14.230
33467W        W 5892  16.607   1.208   4.530
33468W        W 5893   4.384  17.501  10.672
33469W        W 5894   5.157  30.276   3.236
33470W        W 5895  13.715  33.716   3.119
33471W        W 5896  39.061  17.197   3.167
33472W        W 5897   0.487  34.679  12.830
33473W        W 5898  38.080  19.082  11.676
33474W        W 5899  23.937   2.754   2.794
33475W        W 5900   9.821  25.895  12.688
33476W        W 5901  38.887   9.905  14.403
33477W        W 5902  43.949  34.451   4.004
33478W        W 5903  25.053   5.251  14.085
33479W        W 5904  39.012  37.413   1.251
33480W        W 5905   5.093   9.407   0.949
33481W        W 5906  11.819   7.971  11.994
33482W        W 5907  13.079  33.969   3.134
33483W        W 5908  21.306  30.440   1.175
33484W        W 5909  42.591  14.987  11.577
33485W        W 5910   4.449  24.653   2.342
33486W        W 5911  28.653  14.778   3.934
33487W        W 5912  23.801  20.179   1.810
33488W        W 5913  36.341   7.282   1.216
33489W        W 5914  39.585  40.756   1.291
33490W        W 5915  32.939  28.963  12.839
33491W        W 5916  10.891  23.060  12.531
33492W        W 5917  22.051  10.393   1.417
33493W        W 5918  27.018  32.702   0.810
33494W        W 5919  24.993   0.687   1.001
33495W        W 5920  27.760  24.134   3.236
33496W        W 5921   2.691  39.540  11.095
33497W        W 5922  28.721  23.132   1.532
33498W        W 5923  25.533  36.459  10.800
33499W        W 5924  19.991  14.394  10.693
33500W        W 5925   9.423  14.196   4.026
33501W        W 5926  20.965  18.825  11.215
33502W        W 5927  12.683  11.831  13.572
33503W        W 5928   1.002  24.201   3.901
33504W        W 5929  38.028  18.266   1.420
33505W        W 5930  40.821  25.178   0.597
33506W        W 5931  40.609   4.641  14.748
33507W        W 5932  32.077  41.554  10.620
33508W        W 5933  27.634  41.853   3.229
33509W        W 5934  11.232  21.835   0.957
33510W        W 5935  16.713   0.250  13.399
33511W        W 5936  34.083   6.418   4.128
33512W        W 5937  24.023  25.173   0.366
33513W        W 5938  25.587  44.951  13.130
33514W        W 5939   3.452  23.782  12.083
33515W        W 5940  41.895   0.878   5.042
33516W        W 5941  10.798   6.425   0.873
33517W        W 5942  13.590  40.250   3.289
33518W        W 5943  28.050  39.721  10.131
33519W        W 5944  31.559  27.261  14.245
33520W        W 5945  34.402  27.539  14.425
33521W        W 5946  15.127  24.835   0.163
33522W        W 5947  36.875   5.863  10.647
33523W        W 5948  22.813  10.801  12.406
33524W        W 5949   4.383  15.480   0.306
33525W        W 5950  44.262  41.883   3.409
33526W        W 5951   2.851   7.789   3.220
33527W        W 5952  32.692  21.008   3.281
33528W        W 5953  37.341   5.785  11.638
33529W        W 5954  16.798  39.554   4.152
33530W        W 5955   1.756  32.513  11.325
33531W        W 5956  24.447  40.468   3.341
33532W        W 5957   3.764  34.641  12.020
33533W        W 5958  10.796  17.144   4.488
33534W        W 5959   3.684   9.389   0.862
33535W        W 5960  30.613   9.496   1.702
33536W        W 5961  43.749   6.908   3.142
33537W        W 5962  27.835  35.578  11.561
33538W        W 5963  35.596  33.950   3.438
33539W        W 5964   0.527  22.169   0.048
33540W        W 5965  25.583  13.063   3.350
33541W        W 5966  37.810  31.466   3.200
33542W        W 5967  36.543  16.206  13.538
33543W        W 5968  25.662  25.101   1.469
33544W        W 5969  35.767  33.336  12.055
33545W        W 5970  10.627  32.232   1.264
33546W        W 5971  19.279  44.442  10.164
33547W        W 5972  12.671  30.768  11.455
33548W        W 5973   6.885  26.732   0.357
33549W        W 5974  21.536  15.206   2.832
33550W        W 5975   4.476  38.706   3.546
33551W        W 5976   3.182  19.640   1.213
33552W        W 5977  22.326  32.110  12.397
33553W        W 5978  15.138  20.182   4.855
33554W        W 5979  18.697  38.782  14.689
33555W        W 5980  30.507  25.592   4.691
33556W        W 5981  41.371  20.265   0.640
33557W        W 5982   9.229  15.416  11.204
33558W        W 5983  27.232  41.793   1.191
33559W        W 5984  12.605  16.707  11.812
33560W        W 5985  41.025  24.958  13.571
33561W        W 5986  28.700  36.500  14.202
33562W        W 5987  16.288   2.262   3.822
33563W        W 5988  19.686   2.364  10.510
33564W        W 5989  40.853  24.784   4.044
33565W        W 5990  43.018  18.763   1.768
33566W        W 5991  37.419  12.763   0.173
33567W        W 5992   2.390  20.960  11.044
33568W        W 5993   4.212  33.782   4.560
33569W        W 5994   5.345  32.532  12.488
33570W        W 5995  29.687  17.046  14.399
33571W        W 5996  37.468   4.121   1.025
33572W        W 5997  28.535  40.954   9.792
33573W        W 5998  25.208  38.006   1.963
33574W        W 5999  11.683  35.461   3.227
33575W        W 6000  36.056  15.715   0.200
33576W        W 6001  33.637  42.478   2.430
33577W        W 6002   3.344   0.618   0.195
33578W        W 6003  35.944  31.992  13.016
33579W        W 6004  22.976  27.506   3.304
33580W        W 6005  24.750  29.967  13.407
33581W        W 6006  42.492  43.238  11.491
33582W        W 6007  26.478  16.183  13.533
33583W        W 6008   0.428   2.948  14.730
33584W        W 6009  43.649  31.581   2.739
33585W        W 6010  15.666   8.732   1.052
33586W        W 6011  29.113  42.943  12.041
33587W        W 6012  33.641  42.334   0.586
33588W        W 6013  18.938   1.952  13.085
33589W        W 6014  17.782  36.183  11.853
33590W        W 6015  43.319   4.227   2.694
33591W        W 6016  42.972  25.145  13.948
33592W        W 6017  28.889  30.934  11.231
33593W        W 6018  15.027  28.139   3.096
33594W        W 6019  32.412  14.172  11.616
33595W        W 6020  21.445  31.056  12.636
33596W        W 6021  22.259  41.479   2.301
33597W        W 6022  10.580  19.766  13.078
33598W        W 6023  24.012   4.607   4.569
33599W        W 6024  17.229  32.492   1.965
33600W        W 6025  43.328   0.749   4.290
33601W        W 6026  25.935   8.620   4.044
33602W        W 6027  44.415  14.598   4.379
33603W        W 6028  21.003  24.292   0.802
33604W        W 6029  16.775  41.428  13.479
33605W        W 6030  16.764  38.825   4.569
33606W        W 6031  31.696  19.873  12.144
33607W        W 6032  36.495  38.494  14.359
33608W        W 6033  20.161  20.048  12.055
33609W        W 6034  28.354   5.840   0.952
33610W        W 6035   7.638  24.757   1.799
33611W        W 6036  20.678  40.514  11.865
33612W        W 6037  39.093  36.603  14.853
33613W        W 6038  43.972  16.334   2.311
33614W        W 6039  34.237   3.212   5.133
33615W        W 6040  14.811  41.558  12.436
33616W        W 6041  20.105  39.541   3.449
33617W        W 6042  29.457   2.762   4.387
33618W        W 6043  19.546  26.453  11.006
33619W        W 6044  27.644  12.319   4.913
33620W        W 6045  36.566  23.708  14.372
33621W        W 6046   1.027  14.618   2.170
33622W        W 6047  11.352  23.692   0.174
33623W        W 6048  19.677  12.343  10.916
33624W        W 6049   7.879  16.219  14.466
33625W        W 6050  17.215  40.449  10.926
33626W        W 6051   4.921  15.201  10.810
33627W        W 6052   1.912  24.785   4.579
33628W        W 6053   0.715  10.567   4.107
33629W        W 6054  24.701  32.402  12.341
33630W        W 6055  33.527  40.315  12.873
33631W        W 6056  11.792  14.508  13.011
33632W        W 6057  10.111  35.515  11.144
33633W        W 6058  10.694  43.081   0.561
33634W        W 6059  23.501   5.816  12.056
33635W        W 6060  38.006   7.282   5.045
33636W        W 6061  44.496  26.909   1.579
33637W        W 6062  11.361   4.339  14.636
33638W        W 6063  34.532  43.012   1.307
33639W        W 6064  22.950  29.008  11.611
33640W        W 6065  21.071   6.180  13.943
33641W        W 6066  24.030  43.775  13.071
33642W        W 6067  11.127   7.398  11.885
33643W        W 6068  24.082   3.442   0.555
33644W        W 6069  36.880  25.694   2.860
33645W        W 6070  30.395  26.566   3.214
33646W        W 6071  14.355  42.863  10.845
33647W        W 6072   8.851  18.654  13.539
33648W        W 6073  17.959  43.752   4.451
33649W        W 6074  21.669   2.679   1.702
33650W        W 6075  40.955   8.645   4.819
33651W        W 6076   7.442  31.090  13.943
33652W        W 6077  37.364  18.272   0.557
33653W        W 6078  21.514   8.149   0.974
33654W        W 6079  24.558  22.450   3.718
33655W        W 6080  14.334  13.598  13.610
33656W        W 6081   3.772  14.729   3.504
33657W        W 6082  26.285  38.131   1.355
33658W        W 6083  28.075   1.948   3.120
33659W        W 6084   3.225  34.527   2.933
33660W        W 6085   3.751   5.605  11.145
33661W        W 6086  37.852  32.592   4.256
33662W        W 6087  27.662  12.331   2.835
33663W        W 6088  27.041   6.497   1.311
33664W        W 6089  24.234  14.649  10.805
33665W        W 6090  22.154  31.083  10.475
33666W        W 6091  11.324  18.197  11.378
33667W        W 6092   0.845  10.458   0.485
33668W        W 6093  17.213  14.761  10.192
33669W        W 6094  30.761  20.614  12.394
33670W        W 6095  17.154  21.889   1.051
33671W        W 6096  29.630  36.877   1.371
33672W        W 6097  22.796  17.186  12.047
33673W        W 6098  25.632   9.458   3.190
33674W        W 6099  44.046  30.378  11.091
33675W        W 6100  42.488  26.129   3.455
33676W        W 6101  27.976  28.777  14.277
33677W        W 6102  40.785   1.411   0.056
33678W        W 6103  15.312  36.523   3.733
33679W        W 6104   6.589  22.123   1.225
33680W        W 6105  42.123  25.629  14.356
33681W        W 6106   0.857  14.495   1.323
33682W        W 6107  44.251  11.491  12.872
33683W        W 6108  21.315   4.126  11.548
33684W        W 6109  33.130  13.051  13.085
33685W        W 6110  41.965  12.023  14.349
33686W        W 6111  42.356  10.936   1.002
33687W        W 6112  27.101   5.714   0.236
33688W        W 6113  31.252  30.095   0.251
33689W        W 6114  44.074  39.674  11.571
33690W        W 6115  34.924   6.249  11.163
33691W        W 6116  16.812  41.432  12.490
33692W        W 6117  38.021  16.217   0.808
33693W        W 6118   9.517  34.890  13.182
33694W        W 6119  39.280  41.332  13.406
33695W        W 6120  35.792  23.164   3.147
33696W        W 6121  11.032  31.026  10.734
33697W        W 6122  11.608  34.916   3.781
33698W        W 6123  15.949  38.915   5.100
33699W        W 6124  37.704   3.472  11.149
33700W        W 6125  23.868   8.049   3.676
33701W        W 6126  29.602  33.262   2.707
33702W        W 6127   3.182  36.357  12.919
33703W        W 6128  26.244  27.610  11.114
33704W        W 6129  44.471  36.963   1.839
33705W        W 6130  43.847  17.643  14.717
33706W        W 6131  12.611   8.396   2.745
33707W        W 6132  21.415  18.302   0.730
33708W        W 6133  10.825  44.024   4.100
33709W        W 6134  27.517  24.203  12.065
33710W        W 6135  34.863   5.145  14.804
33711W        W 6136  20.306  31.941  13.491
33712W        W 6137   2.737  21.070   4.631
33713W        W 6138  42.887   3.801  12.426
33714W        W 6139   5.902  28.807  10.331
33715W        W 6140  13.919   7.765   4.148
33716W        W 6141  43.580  43.837   3.280
33717W        W 6142  16.508  44.715  12.389
33718W        W 6143  44.101  10.335   2.679
33719W        W 6144   0.830   0.162   1.012
33720W        W 6145  43.401  29.733  12.907
33721W        W 6146   8.202  11.331  13.815
33722W        W 6147  26.837  23.245   4.949
33723W        W 6148   4.743  42.503  12.925
33724W        W 6149   6.273  34.959   1.238
33725W        W 6150   6.221  15.378  12.498
33726W        W 6151  18.817   7.824  12.097
33727W        W 6152  41.859  40.135   0.829
33728W        W 6153   9.735  33.455  11.224
33729W        W 6154  24.663  21.863   0.626
33730W        W 6155  35.349   7.809   5.017
33731W        W 6156  16.094  11.942  12.276
33732W        W 6157   1.213   8.080  12.795
33733W        W 6158   9.449   5.942  13.427
33734W        W 6159  36.837  33.146   1.293
33735W        W 6160  36.176   9.195   1.277
33736W        W 6161   8.799   0.520  12.133
33737W        W 6162  35.201  13.538   1.505
33738W        W 6163  16.638  40.454  13.023
33739W        W 6164  24.130  44.436   0.481
33740W        W 6165  15.655  27.702   5.108
33741W        W 6166   1.747  26.408   3.436
33742W        W 6167   0.980  26.976   4.126
33743W        W 6168  31.595   6.700   2.845
33744W        W 6169  44.734  18.549  14.127
33745W        W 6170  41.282   6.294  14.986
33746W        W 6171  24.572  27.116   4.574
33747W        W 6172  44.228  32.011  11.953
33748W        W 6173   2.300  15.855   4.141
33749W        W 6174   6.820  34.202  12.079
33750W        W 6175   7.693  22.448   4.963
33751W        W 6176   0.236  13.211  11.230
33752W        W 6177   4.223   4.815   4.752
33753W        W 6178  11.020  27.150  14.265
33754W        W 6179  33.609  43.705   0.353
33755W        W 6180   9.786  13.801   3.692
33756W        W 6181   9.121   4.897  10.764
33757W        W 6182  31.889  43.792  12.435
33758W        W 6183  16.518  17.136  12.908
33759W        W 6184   3.051  41.801   4.282
33760W        W 6185  13.122  19.031   4.270
33761W        W 6186   1.247  19.321  12.938
33762W        W 6187  13.625  37.296   3.651
33763W        W 6188  30.076  40.601   3.404
33764W        W 6189  29.189  29.917  11.016
33765W        W 6190   4.890  13.780   0.889
33766W        W 6191  15.383  16.195  11.208
33767W        W 6192  38.961  13.771   2.098
33768W        W 6193  38.900  27.842  14.721
33769W        W 6194  35.330  17.370   4.222
33770W        W 6195  17.256  18.680  11.248
33771W        W 6196  23.396  20.796  10.689
33772W        W 6197  29.370  34.526   3.728
33773W        W 6198  35.476   0.981   2.525
33774W        W 6199  16.636  39.354  14.910
33775W        W 6200   2.004  15.161   3.440
33776W        W 6201  19.721  26.459   2.681
33777W        W 6202  42.479  14.283   1.308
33778W        W 6203  18.523  34.663   5.199
33779W        W 6204  25.564   5.002  13.528
33780W        W 6205  25.007  30.431   4.917
33781W        W 6206  31.628   7.879   0.265
33782W        W 6207  26.189   6.885   1.174
33783W        W 6208  15.217  37.003   3.937
33784W        W 6209   1.487  36.537  12.593
33785W        W 6210  29.168  18.047  10.941
33786W        W 6211   3.927  44.074  13.477
33787W        W 6212  41.426  35.465  12.224
33788W        W 6213  37.071  44.758   3.877
33789W        W 6214   4.815  34.665  10.820
33790W        W 6215  38.067  33.078  13.585
33791W        W 6216  21.976   8.940   2.303
33792W        W 6217   1.224  18.156   1.359
33793W        W 6218  30.660  12.396  12.515
33794W        W 6219  38.829  26.251   2.294
33795W        W 6220  15.599  34.522   0.415
33796W        W 6221  37.790  34.476   4.619
33797W        W 6222  41.546  31.672  13.239
33798W        W 6223  38.960  14.381   3.501
33799W        W 6224   1.447  10.655   1.460
33800W        W 6225  26.188  28.433  12.502
33801W        W 6226  32.631  14.265  11.140
33802W        W 6227  39.316  42.623  13.783
33803W        W 6228  15.366   2.752   2.182
33804W        W 6229   0.732  15.128  12.007
33805W        W 6230  38.515   1.755   0.396
33806W        W 6231  40.365  27.422  14.412
33807W        W 6232   1.961  19.794  11.054
33808W        W 6233  21.561  34.742  11.159
33809W        W 6234   1.638  21.284  11.331
33810W        W 6235  16.839  27.527   2.465
33811W        W 6236  31.909  22.975   2.323
33812W        W 6237  32.442   1.674  12.002
33813W        W 6238  41.418  16.052  14.421
33814W        W 6239  29.712  16.204  12.963
33815W        W 6240  32.525  14.264  13.756
33816W        W 6241  11.128  23.627  14.096
33817W        W 6242  43.362  26.183  14.055
33818W        W 6243  43.177  22.048   1.203
33819W        W 6244  29.379  43.281  12.489
33820W        W 6245  23.085  29.345   3.114
33821W        W 6246  11.621  24.225  11.922
33822W        W 6247  39.939  20.892   5.044
33823W        W 6248  44.092  11.736  14.896
33824W        W 6249  12.582   9.715   2.270
33825W        W 6250  24.506  14.581   1.267
33826W        W 6251  28.897  28.924   1.705
33827W        W 6252   6.322  11.082   1.540
33828W        W 6253   7.756  34.855   4.465
33829W        W 6254  10.089  38.167  13.451
33830W        W 6255  16.587  14.761  13.179
33831W        W 6256  42.426  35.289   1.174
33832W        W 6257   3.217  15.669   1.639
33833W        W 6258  35.467   1.782   0.951
33834W        W 6259  38.720  44.357  14.483
33835W        W 6260  44.192  25.725  12.642
33836W        W 6261  28.172  41.066   2.378
33837W        W 6262  21.702  23.369  14.099
33838W        W 6263  12.260  13.187  14.406
33839W        W 6264  29.127  18.109   3.983
33840W        W 6265  34.542   8.627   0.984
33841W        W 6266   1.457  32.763  14.318
33842W        W 6267  27.658   5.127  14.890
33843W        W 6268  30.588  15.578   4.831
33844W        W 6269  16.776  39.415  11.540
33845W        W 6270   3.363  21.002   1.785
33846W        W 6271  10.234   2.410  14.237
33847W        W 6272  26.133  26.879   4.366
33848W        W 6273  27.943  12.198   1.453
33849W        W 6274  18.592  32.261  13.851
33850W        W 6275  22.736   1.007   2.378
33851W        W 6276  40.848   6.205   4.635
33852W        W 6277  28.197  36.415   0.261
33853W        W 6278   0.381  17.776  13.329
33854W        W 6279  32.980  18.722   3.699
33855W        W 6280   6.281  15.733   9.978
33856W        W 6281  10.676  42.553   0.426
33857W        W 6282   8.715  22.202   1.433
33858W        W 6283   0.167  28.508  13.458
33859W        W 6284  34.919  42.508   3.281
33860W        W 6285  33.310  14.826   1.375
33861W        W 6286  34.643  13.277  13.653
33862W        W 6287  44.583  14.782   2.746
33863W        W 6288  12.773  22.025   0.267
33864W        W 6289   1.031  10.373   3.731
33865W        W 6290  20.895  22.847   3.226
33866W        W 6291  44.828   5.963  14.527
33867W        W 6292  25.007  16.696   4.753
33868W        W 6293  21.464  26.674  13.172
33869W        W 6294  31.683  16.817  12.952
33870W        W 6295   1.597   9.706  11.578
33871W        W 6296  22.796  35.529  11.018
33872W        W 6297  44.487  14.701   0.452
33873W        W 6298   5.327  40.387   2.749
33874W        W 6299  16.791  39.011  11.887
33875W        W 6300  25.947  20.255  13.119
33876W        W 6301  38.373  28.076  10.316
33877W        W 6302  18.199  21.051   1.641
33878W        W 6303  42.310  20.779   3.632
33879W        W 6304  40.006  29.023  13.363
33880W        W 6305   9.916  40.011   4.613
33881W        W 6306   5.832  23.186   4.376
33882W        W 6307  28.402  25.655   3.743
33883W        W 6308  35.494  29.807  12.605
33884W        W 6309  23.651  43.216   0.852
33885W        W 6310  30.688  30.051  12.590
33886W        W 6311   2.805  26.554  11.496
33887W        W 6312  26.026  43.939  12.782
33888W        W 6313  44.500  12.753   1.319
33889W        W 6314   1.154   1.343  12.763
33890W        W 6315  42.555  43.496   1.683
33891W        W 6316  12.736  24.555  11.293
33892W        W 6317  31.020  37.815  11.620
33893W        W 6318  25.098  22.560   0.310
33894W        W 6319   2.673   8.945  11.382
33895W        W 6320   6.813  15.915   1.910
33896W        W 6321   1.871  21.976  13.216
33897W        W 6322  33.163  26.011  11.270
33898W        W 6323   1.297  14.276   0.462
33899W        W 6324  35.926  21.475  10.547
33900W        W 6325   2.829   7.776   4.660
33901W        W 6326   5.070  33.799   0.951
33902W        W 6327   3.641   7.785  11.675
33903W        W 6328  32.607   5.878   1.745
33904W        W 6329  42.909  35.248   2.019
33905W        W 6330  11.768   7.559  13.511
33906W        W 6331  23.461  34.907  14.967
33907W        W 6332  10.802  14.855  14.878
33908W        W 6333  30.086  42.504   3.073
33909W        W 6334  20.866  27.601  11.511
33910W        W 6335  32.960  11.885   4.448
33911W        W 6336  23.746  41.321  14.852
33912W        W 6337  41.901  23.461   4.943
33913W        W 6338   1.795  28.829   0.352
33914W        W 6339  17.976  26.014  13.136
33915W        W 6340  12.097  15.904  11.268
33916W        W 6341  14.205  31.060   3.492
33917W        W 6342  29.561  36.536   0.934
33918W        W 6343  11.423   1.157   1.334
33919W        W 6344  11.863  16.635   3.377
33920W        W 6345  42.699   2.407   4.672
33921W        W 6346  13.234  33.436   1.407
33922W        W 6347   6.162   5.369  11.851
33923W        W 6348  21.918   3.598   4.183
33924W        W 6349  28.962  31.347  10.918
33925W        W 6350   5.204  44.466  13.960
33926W        W 6351  41.524  32.957   3.669
33927W        W 6352  15.756  29.906  12.492
33928W        W 6353   1.219   5.862  10.683
33929W        W 6354   4.920  38.248  14.333
33930W        W 6355  26.269  33.579   2.814
33931W        W 6356  28.125  40.675  10.593
33932W        W 6357  26.623  22.559  13.977
33933W        W 6358  42.385  18.105  12.109
33934W        W 6359  43.002  14.323   1.225
33935W        W 6360  18.056   5.669  12.186
33936W        W 6361  15.356  39.509   0.154
33937W        W 6362  39.557  16.334   4.668
33938W        W 6363  40.358  15.696  14.860
33939W        W 6364  24.935   8.394  12.089
33940W        W 6365  14.334  17.933   1.579
33941W        W 6366   2.949  17.529   3.338
33942W        W 6367   7.014  37.791  10.890
33943W        W 6368  15.165  44.220   1.607
33944W        W 6369  41.089  36.943   3.703
33945W        W 6370  15.381  37.382   1.772
33946W        W 6371  12.595  19.133  10.555
33947W        W 6372  23.545  27.146  13.861
33948W        W 6373  27.152  24.539  10.891
33949W        W 6374   4.894  38.952   0.315
33950W        W 6375  21.148   9.612   3.615
33951W        W 6376  13.821  38.844  11.995
33952W        W 6377  25.485  11.643   0.885
33953W        W 6378  35.525  11.130   3.264
33954W        W 6379  27.497  25.908   4.425
33955W        W 6380  23.902  11.043  11.819
33956W        W 6381  35.444  29.617  13.623
33957W        W 6382   5.301  34.169  11.581
33958W        W 6383   8.230  22.491  13.265
33959W        W 6384  19.239   5.789  13.419
33960W        W 6385  40.963  42.589  13.585
33961W        W 6386  21.294   7.347   4.403
33962W        W 6387   2.262   2.858  12.069
33963W        W 6388  34.893  12.614  14.376
33964W        W 6389  18.657  12.344  11.721
33965W        W 6390   3.311  44.320  11.928
33966W        W 6391  36.569  40.926  11.414
33967W        W 6392  20.196  11.081  10.123
33968W        W 6393  44.018  38.979  13.312
33969W        W 6394  14.041  26.565   3.690
33970W        W 6395  13.343  11.231   4.810
33971W        W 6396   7.427  40.457   0.433
33972W        W 6397  33.344  20.211  14.765
33973W        W 6398   7.830  35.068   1.403
33974W        W 6399  21.994  27.389   2.692
33975W        W 6400  21.436  38.511  14.916
33976W        W 6401   6.792   8.918  13.054
33977W        W 6402  26.302  17.012  12.602
33978W        W 6403  33.627  28.427   2.344
33979W        W 6404  15.825  15.849  14.509
33980W        W 6405  14.180  34.093  11.153
33981W        W 6406  37.810  41.392  14.330
33982W        W 6407  35.163   1.462  11.196
33983W        W 6408  43.251  16.710   1.883
33984W        W 6409  10.731   7.457  12.459
33985W        W 6410  32.329  20.156   1.172
33986W        W 6411  12.506  42.906  11.189
33987W        W 6412  26.535  19.325   0.220
33988W        W 6413  32.979  25.040  11.661
33989W        W 6414  31.301  32.566  13.858
33990W        W 6415   3.216   6.344   1.730
33991W        W 6416  28.073  37.101   4.301
33992W        W 6417   6.871  13.162  10.689
33993W        W 6418  31.467  24.571  14.313
33994W        W 6419   7.530   4.465   2.424
33995W        W 6420  10.401   4.205  11.479
33996W        W 6421  24.952  24.130  13.903
33997W        W 6422   3.797  29.874  10.240
33998W        W 6423   5.313   0.349   2.905
33999W        W 6424   7.405  27.213   0.893
34000W        W 6425  17.054  28.038  13.005
34001W        W 6426  44.816  10.896  11.931
34002W        W 6427   3.161   9.584  13.860
34003W        W 6428  17.590   7.087   2.765
34004W        W 6429  15.613   5.202   1.891
34005W        W 6430   6.416  15.896   4.538
34006W        W 6431  18.291  42.029   0.862
34007W        W 6432   6.445  33.936  14.431
34008W        W 6433  21.454   7.292   2.827
34009W        W 6434  39.447  40.405   3.782
34010W        W 6435  24.742  39.410  11.229
34011W        W 6436  22.511  25.535   4.537
34012W        W 6437   7.314  21.476  11.426
34013W        W 6438  34.977  15.595  14.385
34014W        W 6439  21.413  37.525  11.051
34015W        W 6440  44.458  11.433   0.845
34016W        W 6441  18.561   6.871   1.910
34017W        W 6442  40.256   4.165  12.643
34018W        W 6443  18.871  39.429  10.870
34019W        W 6444   6.399  35.443  12.670
34020W        W 6445  14.756  38.389  14.564
34021W        W 6446  43.376  14.331   3.685
34022W        W 6447  25.510  14.910  12.937
34023W        W 6448  33.239  43.749   2.806
34024W        W 6449  32.704  39.867   3.175
34025W        W 6450  30.945   2.438  13.279
34026W        W 6451  12.735  13.236   4.360
34027W        W 6452   1.790  35.676   4.058
34028W        W 6453   2.798  38.989  11.697
34029W        W 6454   8.413  38.229   0.812
34030W        W 6455  34.905   4.323  12.867
34031W        W 6456  12.417  18.404  13.318
34032W        W 6457  25.444  29.019   0.286
34033W        W 6458   2.832  40.254   1.324
34034W        W 6459  10.809  31.106  11.990
34035W        W 6460  17.823  23.018  11.233
34036W        W 6461  42.013  43.527  10.630
34037W        W 6462  20.696  22.563   4.605
34038W        W 6463   7.903  16.658  13.244
34039W        W 6464   8.293   6.227   1.424
34040W        W 6465  29.975  24.701  14.471
34041W        W 6466  31.559  15.299   2.921
34042W        W 6467  19.883  11.938   2.819
34043W        W 6468  22.507  22.083   1.726
34044W        W 6469  29.109   1.180  13.053
34045W        W 6470  27.962  33.438  13.700
34046W        W 6471  42.758  39.767   2.353
34047W        W 6472  34.991  15.045  10.901
34048W        W 6473   7.105  35.095   1.924
34049W        W 6474  17.214  30.187  13.997
34050W        W 6475  29.917  38.794  14.324
34051W        W 6476  19.158  10.770   3.614
34052W        W 6477   5.655  11.353  12.161
34053W        W 6478  30.989  21.624   3.215
34054W        W 6479   0.747  21.448   3.328
34055W        W 6480  23.147  38.793   3.334
34056W        W 6481  34.135  20.945  10.251
34057W        W 6482  36.514  25.756  13.473
34058W        W 6483   9.712  44.911  10.698
34059W        W 6484   9.696  31.023  13.168
34060W        W 6485  26.433  17.192   2.411
34061W        W 6486   1.554  34.028   1.702
34062W        W 6487  30.481   9.416   3.801
34063W        W 6488  32.075  28.905  13.848
34064W        W 6489  16.175  44.231   1.300
34065W        W 6490  22.910  41.946   1.699
34066W        W 6491  37.552  37.018   1.055
34067W        W 6492  36.404   9.680   1.378
34068W        W 6493  15.416  19.808  14.285
34069W        W 6494   1.337  24.140  13.584
34070W        W 6495  12.773  21.251   3.310
34071W        W 6496  11.897  24.792   2.315
34072W        W 6497  29.906   5.867  14.872
34073W        W 6498  31.110  30.630   0.075
34074W        W 6499   6.921  20.552   1.293
34075W        W 6500  22.006  27.723   1.458
34076W        W 6501  14.526  29.016   4.219
34077W        W 6502  15.600  11.687  14.396
34078W        W 6503   5.425  12.604  14.130
34079W        W 6504  30.842  44.657  13.992
34080W        W 6505  22.460  41.269   3.723
34081W        W 6506  44.385  24.638  10.704
34082W        W 6507   2.295  40.792   2.830
34083W        W 6508  36.678   9.758  12.602
34084W        W 6509  34.777  40.524   4.661
34085W        W 6510  15.159  27.984  12.868
34086W        W 6511   8.441  31.677   2.146
34087W        W 6512  23.673  18.944  10.628
34088W        W 6513  27.390   0.470   0.460
34089W        W 6514  18.051   4.478  14.282
34090W        W 6515  21.303  22.743   1.095
34091W        W 6516  32.605  34.602   1.849
34092W        W 6517  44.260  27.592  13.240
34093W        W 6518  35.461  14.772   0.913
34094W        W 6519  40.073  43.396   3.571
34095W        W 6520  23.970  30.114  12.503
34096W        W 6521   0.268   2.762   4.417
34097W        W 6522  41.608  16.998  13.684
34098W        W 6523  39.753  33.325  13.875
34099W        W 6524  20.149  18.672  12.914
34100W        W 6525   2.116  10.093   4.941
34101W        W 6526  32.478  42.926  11.596
34102W        W 6527  33.605  31.504  12.369
34103W        W 6528  39.789   4.029   0.192
34104W        W 6529  18.662   7.139   0.309
34105W        W 6530  26.582  19.187   1.728
34106W        W 6531  10.673  38.446   0.034
34107W        W 6532  23.998  25.930   3.214
34108W        W 6533  29.573   9.419  12.071
34109W        W 6534  18.200  31.036   0.354
34110W        W 6535  24.678  28.499   0.237
34111W        W 6536  15.145  28.048  13.378
34112W        W 6537  15.612  31.644  12.126
34113W        W 6538  33.071   4.630   1.621
34114W        W 6539   6.976  19.990  13.783
34115W        W 6540  40.170  31.624   1.867
34116W        W 6541  33.427  20.646  13.985
34117W        W 6542  24.731  29.254   3.276
34118W        W 6543  24.999  32.600  11.445
34119W        W 6544  18.444  28.579   4.980
34120W        W 6545  15.856   5.328  12.542
34121W        W 6546  43.512  29.370   1.958
34122W        W 6547  26.935  29.935   4.197
34123W        W 6548  12.482  17.515   4.681
34124W        W 6549   5.416  26.380  11.020
34125W        W 6550  44.226  32.509   0.487
34126W        W 6551  30.302  27.478  12.063
34127W        W 6552  26.371  27.840   1.727
34128W        W 6553  29.244  39.208   4.597
34129W        W 6554  21.810  25.913   2.668
34130W        W 6555  10.757  18.447   0.958
34131W        W 6556  36.512   8.334  12.117
34132W        W 6557  17.328  26.140  10.804
34133W        W 6558  18.272  14.760  13.769
34134W        W 6559   2.861  11.770  11.516
34135W        W 6560   2.934  20.311   3.579
34136W        W 6561  36.093  43.399  14.327
34137W        W 6562  19.343  36.008   4.245
34138W        W 6563  10.822  17.027   3.163
34139W        W 6564  36.423   5.914  12.969
34140W        W 6565  38.758  44.965   3.170
34141W        W 6566  15.654  35.000   0.238
34142W        W 6567  24.196   6.937   2.283
34143W        W 6568   6.949  42.545  10.743
34144W        W 6569  32.393  34.556  10.726
34145W        W 6570  28.227  28.246   4.513
34146W        W 6571   7.152  14.173  14.831
34147W        W 6572  37.701   0.298   1.812
34148W        W 6573  13.604  15.617   0.969
34149W        W 6574   1.318  43.399   1.193
34150W        W 6575  39.463  29.799  14.007
34151W        W 6576   8.006  40.836  13.686
34152W        W 6577  19.427   5.338  13.594
34153W        W 6578  29.591  18.277  10.511
34154W        W 6579  16.143   4.574   0.763
34155W        W 6580  16.498   5.120   2.803
34156W        W 6581  16.937  32.416  11.447
34157W        W 6582  23.312  17.067  12.842
34158W        W 6583   9.384  31.454  13.087
34159W        W 6584  18.475  27.364   2.931
34160W        W 6585  18.811  29.600   0.716
34161W        W 6586  26.554  44.005  13.491
34162W        W 6587  37.703  42.459   4.615
34163W        W 6588   5.336  34.817   0.495
34164W        W 6589   6.421  28.654  10.702
34165W        W 6590  29.562   3.891  11.136
34166W        W 6591   4.703  17.101   4.876
34167W        W 6592   9.195  18.198  12.145
34168W        W 6593  13.992  33.108   5.139
34169W        W 6594  42.132  34.289   4.710
34170W        W 6595  17.035  18.565   0.749
34171W        W 6596  16.871  18.621   1.229
34172W        W 6597   3.351  30.702   4.017
34173W        W 6598   2.862  13.823   4.540
34174W        W 6599   4.762  39.761  14.936
34175W        W 6600   8.995  24.906  13.959
34176W        W 6601  21.958  17.088  14.925
34177W        W 6602  42.140  29.066   2.291
34178W        W 6603   9.603  12.266   0.884
34179W        W 6604  22.040  13.921  10.695
34180W        W 6605   6.962  39.951   1.367
34181W        W 6606  41.361  36.183  12.030
34182W        W 6607  40.752  25.680   4.433
34183W        W 6608   5.816  11.705  10.271
34184W        W 6609  22.537  12.542   1.451
34185W        W 6610  25.617  39.193  11.170
34186W        W 6611   8.268  41.481  14.733
34187W        W 6612  42.720   7.324  11.405
34188W        W 6613   4.627  40.564   1.231
34189W        W 6614  12.571   3.672  12.356
34190W        W 6615  19.684  13.037   2.199
34191W        W 6616  27.564  14.292  13.477
34192W        W 6617   8.276   3.316   2.321
34193W        W 6618  26.583  40.362   0.300
34194W        W 6619  40.504  12.818   1.332
34195W        W 6620  36.911  18.240   3.252
34196W        W 6621  38.645  35.656   3.242
34197W        W 6622  26.637  29.051   4.655
34198W        W 6623   8.700  36.626  11.138
34199W        W 6624   4.461  18.598   0.378
34200W        W 6625  21.387   0.719  14.869
34201W        W 6626  15.285  43.498  11.954
34202W        W 6627  17.597   9.179   1.957
34203W        W 6628  28.714  41.985  10.846
34204W        W 6629  13.356  36.879   3.837
34205W        W 6630   9.904  35.539  12.448
34206W        W 6631  22.710   6.251   4.630
34207W        W 6632  11.354  39.438   2.930
34208W        W 6633  35.238  19.785   2.799
34209W        W 6634   9.502  41.800   0.201
34210W        W 6635  36.614   8.293   2.128
34211W        W 6636  12.637   4.412   9.417
34212W        W 6637  26.201  29.421   0.163
34213W        W 6638  17.264  36.039  11.170
34214W        W 6639  27.425  13.221  14.369
34215W        W 6640  27.072  28.402   1.214
34216W        W 6641  37.962  41.783   1.935
34217W        W 6642  23.168  16.051  13.325
34218W        W 6643  39.794  24.651  14.623
34219W        W 6644  28.666  18.390  11.601
34220W        W 6645  33.691   0.773  12.946
34221W        W 6646  42.257  41.479  13.359
34222W        W 6647  42.568  37.608   1.746
34223W        W 6648  11.718  14.433   0.714
34224W        W 6649  18.600  16.443   1.818
34225W        W 6650  26.135  24.418   2.017
34226W        W 6651  38.788   0.725  13.479
34227W        W 6652  39.633  44.861   0.963
34228W        W 6653   5.315  30.417   4.923
34229W        W 6654  15.757   6.807  14.084
34230W        W 6655  13.558  43.292  11.169
34231W        W 6656   0.401  14.850  14.232
34232W        W 6657  24.012  37.994   0.219
34233W        W 6658  27.989   1.846  14.613
34234W        W 6659  42.257  11.675   2.156
34235W        W 6660   2.238  38.814  12.393
34236W        W 6661  26.941  26.433   4.038
34237W        W 6662  27.376   1.684   1.382
34238W        W 6663  32.558  42.976  11.075
34239W        W 6664  11.687  29.630   2.252
34240W        W 6665  38.431  20.971   1.049
34241W        W 6666  38.177   9.336  10.012
34242W        W 6667  20.657  20.762   4.811
34243W        W 6668  15.713  13.317  13.347
34244W        W 6669  15.203   8.822  13.485
34245W        W 6670  20.206  38.048  12.027
34246W        W 6671  12.937  31.192  12.140
34247W        W 6672  44.909  24.573  10.788
34248W        W 6673   8.176  33.114   2.785
34249W        W 6674  14.173  41.289   0.236
34250W        W 6675  41.274  44.586   3.277
34251W        W 6676  38.969  29.669   0.806
34252W        W 6677  33.166  28.626  11.139
34253W        W 6678  21.260  21.246  11.269
34254W        W 6679   9.064   8.151  12.132
34255W        W 6680   2.357  26.770   0.861
34256W        W 6681   3.430  36.523  14.132
34257W        W 6682  17.108   4.187   1.243
34258W        W 6683  30.128  35.433  11.989
34259W        W 6684  32.948  11.193  12.713
34260W        W 6685   2.408  14.372   2.191
34261W        W 6686  11.279   0.124  13.504
34262W        W 6687  43.128  37.384   2.843
34263W        W 6688  21.878  25.202   0.432
34264W        W 6689   0.552  24.093   0.842
34265W        W 6690  39.848  28.127   1.854
34266W        W 6691  30.492  26.440   2.347
34267W        W 6692   1.749   7.002   2.757
34268W        W 6693  39.820   5.972  14.413
34269W        W 6694  37.641  21.009  11.268
34270W        W 6695  32.674   6.731   1.776
34271W        W 6696  28.580  21.463   4.091
34272W        W 6697  18.252  20.749   0.308
34273W        W 6698  29.486  12.274  10.676
34274W        W 6699   8.608   3.178  14.724
34275W        W 6700  14.690  13.830   3.590
34276W        W 6701  10.540  34.361   1.623
34277W        W 6702  14.227  23.636  14.392
34278W        W 6703  44.181   0.541   0.971
34279W        W 6704   9.330   8.454   4.114
34280W        W 6705   5.170  26.156   3.613
34281W        W 6706  12.201  14.795  14.211
34282W        W 6707  36.412  41.855  14.489
34283W        W 6708  20.220   4.137   0.349
34284W        W 6709  36.360  14.563   2.492
34285W        W 6710  13.631  32.862   1.921
34286W        W 6711  23.714  13.381   4.334
34287W        W 6712  40.274  29.025  12.872
34288W        W 6713   7.228  14.898   4.168
34289W        W 6714  33.407   2.955  11.078
34290W        W 6715   8.113   4.383   4.607
34291W        W 6716  24.260  34.277  14.411
34292W        W 6717  33.492  23.910   3.413
34293W        W 6718  35.686  29.160  13.684
34294W        W 6719  17.820   9.321  11.421
34295W        W 6720  31.192   6.898  10.324
34296W        W 6721  16.086  13.771   4.033
34297W        W 6722  31.484  27.641   4.574
34298W        W 6723  20.654   0.530  14.320
34299W        W 6724  37.191  10.328   2.803
34300W        W 6725   9.861  12.014  14.914
34301W        W 6726  10.813  35.181  13.452
34302W        W 6727  22.934  22.282   2.793
34303W        W 6728   4.781  11.896   3.134
34304W        W 6729  18.734  37.029   2.957
34305W        W 6730  21.479  15.761  14.031
34306W        W 6731  43.444  24.718   1.271
34307W        W 6732  21.660  34.941   4.657
34308W        W 6733  14.032  33.498   5.477
34309W        W 6734  30.485  26.332  11.940
34310W        W 6735  41.796  39.451   2.805
34311W        W 6736  20.615  30.932   2.615
34312W        W 6737  28.869   5.412   1.331
34313W        W 6738  37.683  10.336  12.037
34314W        W 6739  25.025  11.290  12.974
34315W        W 6740   6.930  19.751  14.925
34316W        W 6741  35.722  30.043   1.783
34317W        W 6742  44.476  16.276  11.517
34318W        W 6743  37.532  10.859   0.806
34319W        W 6744  12.219  19.348   4.324
34320W        W 6745  26.189   8.239  13.929
34321W        W 6746   8.107  31.503   3.104
34322W        W 6747  26.550   0.328   1.016
34323W        W 6748   4.393  33.668   1.495
34324W        W 6749  12.305  43.604   4.166
34325W        W 6750  27.020  30.888  11.990
34326W        W 6751  32.789  33.728  13.421
34327W        W 6752   6.984  13.227  13.388
34328W        W 6753  34.119  41.029   2.722
34329W        W 6754  39.249  29.141  12.917
34330W        W 6755  29.427  32.877  12.462
34331W        W 6756  28.482  12.579  12.004
34332W        W 6757  13.227  37.778  14.425
34333W        W 6758   9.452  27.263  13.268
34334W        W 6759  39.516   5.121   0.169
34335W        W 6760  32.342  13.653  10.628
34336W        W 6761   1.244  31.714   1.338
34337W        W 6762  37.520  35.472  13.506
34338W        W 6763   5.633  25.187   2.663
34339W        W 6764  10.180  12.379  13.407
34340W        W 6765  44.063  40.720   4.632
34341W        W 6766  44.722  16.528  12.906
34342W        W 6767  13.101  44.311  12.525
34343W        W 6768  12.636  35.685   3.740
34344W        W 6769  14.099  41.858   1.547
34345W        W 6770  41.721  35.961  10.314
34346W        W 6771  44.950  32.155   4.130
34347W        W 6772  29.614  18.274   3.818
34348W        W 6773  38.822  35.876   1.787
34349W        W 6774  42.944  16.317  12.647
34350W        W 6775   2.203  19.672   4.589
34351W        W 6776  33.993  14.058  14.751
34352W        W 6777  13.821   4.215  12.983
34353W        W 6778  17.159  15.441   0.516
34354W        W 6779  17.094  20.801   2.328
34355W        W 6780  43.411  25.201   2.247
34356W        W 6781   6.709   6.296   4.097
34357W        W 6782  20.200  24.536  14.781
34358W        W 6783  40.536  39.364  12.898
34359W        W 6784   7.103  24.768  11.136
34360W        W 6785  22.061  43.209   0.375
34361W        W 6786  37.903  11.402   1.788
34362W        W 6787   5.421  40.035  11.564
34363W        W 6788  22.702  39.794  10.801
34364W        W 6789  42.076  26.892   2.955
34365W        W 6790  26.798  44.982  13.253
34366W        W 6791   4.686  12.536   4.635
34367W        W 6792  11.730  24.822   5.343
34368W        W 6793  16.573  15.918   2.640
34369W        W 6794  29.631   4.364   3.157
34370W        W 6795  14.794   3.012  13.286
34371W        W 6796  40.243   1.306   2.337
34372W        W 6797   1.289  26.708   3.655
34373W        W 6798  29.929  44.356   0.446
34374W        W 6799  23.857   5.316   2.308
34375W        W 6800  23.100  25.990  11.804
34376W        W 6801   9.814   9.936  10.382
34377W        W 6802  29.988   3.903  12.053
34378W        W 6803  26.249  20.761  12.506
34379W        W 6804  18.215  23.462   0.778
34380W        W 6805  26.989   2.066   2.791
34381W        W 6806   6.773  20.549  10.710
34382W        W 6807  39.206  43.472  12.469
34383W        W 6808   1.902  31.707   4.480
34384W        W 6809  21.531  14.296  11.907
34385W        W 6810  18.598  12.623  14.433
34386W        W 6811   3.967  22.004   1.224
34387W        W 6812  27.563   8.422   0.424
34388W        W 6813  33.505  24.551  10.082
34389W        W 6814  15.966  39.938   4.302
34390W        W 6815  43.746  17.754   2.491
34391W        W 6816  11.502   3.367   2.859
34392W        W 6817   7.995  41.758  10.554
34393W        W 6818  44.108  10.219  12.038
34394W        W 6819  31.969  38.932   4.184
34395W        W 6820  16.571  25.123  12.138
34396W        W 6821  14.633   1.283  11.009
34397W        W 6822  11.268   8.642  12.292
34398W        W 6823  13.291  25.171   3.098
34399W        W 6824  14.299  31.407   3.881
34400W        W 6825   3.993  21.592  12.154
34401W        W 6826  32.457   8.177   2.157
34402W        W 6827  21.678  31.531  14.513
34403W        W 6828  39.930  32.391  13.549
34404W        W 6829  13.675  39.662   4.142
34405W        W 6830  11.902  20.729   0.373
34406W        W 6831   0.391  37.308   4.620
34407W        W 6832  29.907  35.062  14.304
34408W        W 6833  30.452  12.513  11.087
34409W        W 6834  13.245  13.275   2.664
34410W        W 6835  36.679   2.268   0.535
34411W        W 6836  32.093  12.194   2.131
34412W        W 6837  24.434  24.479   0.861
34413W        W 6838  23.148  43.033   0.769
34414W        W 6839  41.962  39.909  13.151
34415W        W 6840  19.214  16.807  13.386
34416W        W 6841   4.234  30.151  11.991
34417W        W 6842  28.093   5.332  11.708
34418W        W 6843  16.361  43.245   3.658
34419W        W 6844  13.188  17.225   3.515
34420W        W 6845  28.080  13.556   1.729
34421W        W 6846  36.411  33.013   0.694
34422W        W 6847   2.133  43.926  12.913
34423W        W 6848  41.833  10.727  12.381
34424W        W 6849  33.193  30.762  11.017
34425W        W 6850   3.742  37.195   9.747
34426W        W 6851  29.516   3.866  14.960
34427W        W 6852   9.454  26.411   2.178
34428W        W 6853  41.464  26.221   1.024
34429W        W 6854   9.349  41.688   1.568
34430W        W 6855  33.659  33.829   1.840
34431W        W 6856   7.927  26.229   3.331
34432W        W 6857  40.641  32.994  11.911
34433W        W 6858  18.486  24.132  10.087
34434W        W 6859  33.566  19.426  12.028
34435W        W 6860  37.900   0.931   2.078
34436W        W 6861  35.877   3.404  11.941
34437W        W 6862  10.244  39.034  12.520
34438W        W 6863  13.515   0.471   4.978
34439W        W 6864  21.064  16.831  10.307
34440W        W 6865  13.147  33.426   4.963
34441W        W 6866  41.489  20.441  14.629
34442W        W 6867  36.868  29.690   2.738
34443W        W 6868   4.495   5.310   2.802
34444W        W 6869   9.982  25.441   4.108
34445W        W 6870  14.825  17.318  12.909
34446W        W 6871  35.909   3.976   1.823
34447W        W 6872  20.202   8.720   1.762
34448W        W 6873  34.372  37.914   0.860
34449W        W 6874  42.795   5.490  11.223
34450W        W 6875   0.294  31.195   3.274
34451W        W 6876  35.419  18.132   2.301
34452W        W 6877   6.335   4.782   3.394
34453W        W 6878  28.889  16.239   0.000
34454W        W 6879  31.436  25.360   0.410
34455W        W 6880   1.835  23.536  13.455
34456W        W 6881  12.798  42.877   2.164
34457W        W 6882  21.765  42.577   4.570
34458W        W 6883   2.691   7.431   1.415
34459W        W 6884  31.658  26.426   1.749
34460W        W 6885  10.129  23.317  12.895
34461W        W 6886   8.276  22.680  14.294
34462W        W 6887  34.670  32.901   2.462
34463W        W 6888  40.454  27.482   0.355
34464W        W 6889  36.597   1.967  11.102
34465W        W 6890  13.403  19.052   3.805
34466W        W 6891  25.943  37.403   1.770
34467W        W 6892  11.306  17.766   3.406
34468W        W 6893  39.272  17.791  14.273
34469W        W 6894  39.279  16.154  10.651
34470W        W 6895  26.321  33.407   4.901
34471W        W 6896  20.368   1.961   4.930
34472W        W 6897  38.786  21.956  11.761
34473W        W 6898  44.078  44.791  11.948
34474W        W 6899   2.075   3.754  12.970
34475W        W 6900  36.029  19.609  14.854
34476W        W 6901  21.994   1.002  13.827
34477W        W 6902  42.469  22.095   0.537
34478W        W 6903  30.003  15.638  11.695
34479W        W 6904  20.259  24.633  10.920
34480W        W 6905  31.833  32.870  11.684
34481W        W 6906  26.942  31.628  13.437
34482W        W 6907   0.896  13.054   0.017
34483W        W 6908   0.841  20.073  13.807
34484W        W 6909   2.317  25.548   4.630
34485W        W 6910   9.002  25.523  10.625
34486W        W 6911  15.670   1.711   3.534
34487W        W 6912  28.561  36.163   1.820
34488W        W 6913   9.266  19.945  13.425
34489W        W 6914  28.354  29.059   0.461
34490W        W 6915  18.816  35.743  12.658
34491W        W 6916  14.396  12.126  13.397
34492W        W 6917  16.990  38.528  12.094
34493W        W 6918  11.021  18.872  12.881
34494W        W 6919   1.913   0.301  12.158
34495W        W 6920  26.938  12.616  12.369
34496W        W 6921   9.536   0.331   2.828
34497W        W 6922  36.557  39.324  12.776
34498W        W 6923   3.870  16.723  11.435
34499W        W 6924  34.176  34.054  13.403
34500W        W 6925  36.676  42.951   0.468
34501W        W 6926  25.845  22.637  12.908
34502W        W 6927  33.158  37.515   2.825
34503W        W 6928  38.863  42.725  13.549
34504W        W 6929  13.782  37.558  11.595
34505W        W 6930  29.443  41.112   0.269
34506W        W 6931  22.873  24.511  11.693
34507W        W 6932  22.769   4.730   3.752
34508W        W 6933  38.991  38.381  11.106
34509W        W 6934  38.239  36.875  10.787
34510W        W 6935  34.642   4.866  13.929
34511W        W 6936  14.503  37.206   1.390
34512W        W 6937   1.343  39.050   0.817
34513W        W 6938  37.007   5.375  13.400
34514W        W 6939  16.447  42.805  11.058
34515W        W 6940  24.407   1.536   3.349
34516W        W 6941   7.702  39.324  14.346
34517W        W 6942  28.176  22.590   1.642
34518W        W 6943  16.802  43.763  14.003
34519W        W 6944   5.176  15.050  14.481
34520W        W 6945  22.151  12.862  10.421
34521W        W 6946   8.154   4.444  11.010
34522W        W 6947  29.548   4.892   0.095
34523W        W 6948  27.566  14.657  14.436
34524W        W 6949  42.135  41.040   2.186
34525W        W 6950  15.656  39.577   2.344
34526W        W 6951  41.252  18.697  14.440
34527W        W 6952   0.547  30.390   3.738
34528W        W 6953  16.605  17.180   0.713
34529W        W 6954  10.349  43.214  13.581
34530W        W 6955  36.326   7.697   1.657
34531W        W 6956  14.608  18.817   3.576
34532W        W 6957  41.768  30.100   3.151
34533W        W 6958  13.074  28.944   4.045
34534W        W 6959  39.282  10.286   2.689
34535W        W 6960  18.234  11.391  11.149
34536W        W 6961  42.490   8.190  10.897
34537W        W 6962  24.120  26.061   0.887
34538W        W 6963   4.273  27.293   0.153
34539W        W 6964  11.070  44.564   2.303
34540W        W 6965  27.120  40.484   1.024
34541W        W 6966  26.128  12.614   5.078
34542W        W 6967  42.194  19.733  11.203
34543W        W 6968  34.592  10.622  11.418
34544W        W 6969  40.542  42.417  11.163
34545W        W 6970  23.840   3.308   1.777
34546W        W 6971  19.814  11.226  13.796
34547W        W 6972  10.117  20.620   1.794
34548W        W 6973  38.438  33.527  14.393
34549W        W 6974  28.475  10.733  10.983
34550W        W 6975  39.033   2.335  14.575
34551W        W 6976  13.306  36.363   1.372
34552W        W 6977  26.732  33.001  13.488
34553W        W 6978   1.372   1.337  12.269
34554W        W 6979  10.396  13.138  10.756
34555W        W 6980   2.800   7.588   4.173
34556W        W 6981  43.806  17.080   0.762
34557W        W 6982  13.014  43.390  11.183
34558W        W 6983   3.840  11.697   1.420
34559W        W 6984   4.181  42.971  13.387
34560W        W 6985  31.474   7.401   0.498
34561W        W 6986  26.636  14.316   2.611
34562W        W 6987  12.857  38.102  11.271
34563W        W 6988  10.646  34.326   4.508
34564W        W 6989  37.694  35.960   3.198
34565W        W 6990  31.084  41.355  14.384
34566W        W 6991   6.952  31.694  13.784
34567W        W 6992  41.781  22.289   5.467
34568W        W 6993  32.633  36.551  13.472
34569W        W 6994  39.611  31.551   4.546
34570W        W 6995  28.991  33.175  12.584
34571W        W 6996  26.203  39.403   4.144
34572W        W 6997  28.095  40.242  10.879
34573W        W 6998  27.392   8.387   1.297
34574W        W 6999   4.195  19.532  13.443
34575W        W 7000  14.240  17.230   5.097
34576W        W 7001  12.286  36.083   3.304
34577W        W 7002  35.407  11.224  10.714
34578W        W 7003  30.348  15.410  11.082
34579W        W 7004  33.894  34.578   0.747
34580W        W 7005  20.419  36.310  12.479
34581W        W 7006  42.305  28.228   4.832
34582W        W 7007  41.640  28.918   2.224
34583W        W 7008  42.098   8.794  10.388
34584W        W 7009  29.583   2.926   1.969
34585W        W 7010  30.906   5.489   1.413
34586W        W 7011  37.286   0.004  12.305
34587W        W 7012  39.619  12.151   2.417
34588W        W 7013   5.190  18.767  14.941
34589W        W 7014  13.971   7.637   2.353
34590W        W 7015   7.628  28.230   4.492
34591W        W 7016  25.727  39.115  12.368
34592W        W 7017  44.260  19.995   1.419
34593W        W 7018   8.148  26.358   3.804
34594W        W 7019  44.914   6.177  10.730
34595W        W 7020   3.555  23.524  11.616
34596W        W 7021  18.094   1.926   3.905
34597W        W 7022  27.656   9.400   1.411
34598W        W 7023  15.658  21.637   1.915
34599W        W 7024  27.028  19.661  14.740
34600W        W 7025  27.141  18.399  12.950
34601W        W 7026  19.851  30.125   2.831
34602W        W 7027  10.236   0.242   5.147
34603W        W 7028  38.907  41.884  10.501
34604W        W 7029  40.626   5.365   4.331
34605W        W 7030  25.927   5.448   0.608
34606W        W 7031  36.983  37.284  11.893
34607W        W 7032   8.712  18.170   3.675
34608W        W 7033  44.507  18.383  12.009
34609W        W 7034  26.683  32.081  13.450
34610W        W 7035  40.625  42.921  14.038
34611W        W 7036  10.675  42.966  12.874
34612W        W 7037   6.202  32.336   3.107
34613W        W 7038  22.024  33.121  12.556
34614W        W 7039  34.210  14.318   2.672
34615W        W 7040  11.340  23.622   4.113
34616W        W 7041  30.889  29.393  10.617
34617W        W 7042  12.147  40.526  12.333
34618W        W 7043  24.745   6.306  14.835
34619W        W 7044   5.833  21.232  14.441
34620W        W 7045  13.878   9.185   4.546
34621W        W 7046  23.686   7.439  11.580
34622W        W 7047  19.274  42.928  10.454
34623W        W 7048   1.637  30.102   0.238
34624W        W 7049  38.283   2.735   1.370
34625W        W 7050  12.883   4.612   3.370
34626W        W 7051   8.862  20.016   3.660
34627W        W 7052   2.340   9.609  13.831
34628W        W 7053  17.121  32.059  12.664
34629W        W 7054  40.556  39.395   3.465
34630W        W 7055  39.968  14.575   2.168
34631W        W 7056  10.234  37.422  11.450
34632W        W 7057   7.873  15.744   2.148
34633W        W 7058  41.745   2.514  14.316
34634W        W 7059  25.398   3.934  12.076
34635W        W 7060  35.844  36.502   2.415
34636W        W 7061   9.328  16.254  13.772
34637W        W 7062  21.157  23.533  11.971
34638W        W 7063  40.917  15.271  14.332
34639W        W 7064  20.777  21.519  11.916
34640W        W 7065  35.888  44.391  11.578
34641W        W 7066   4.291  21.615   4.373
34642W        W 7067  42.496  23.633  13.465
34643W        W 7068  25.452  16.589   0.800
34644W        W 7069  38.589  36.322   4.864
34645W        W 7070  31.598  15.711   1.981
34646W        W 7071  34.489  25.214   1.647
34647W        W 7072  10.161  26.576  11.803
34648W        W 7073  22.067  14.192   3.257
34649W        W 7074  34.484   2.420   4.791
34650W        W 7075   6.191  35.041  12.899
34651W        W 7076   8.836  11.641   4.289
34652W        W 7077  23.703  36.440   0.814
34653W        W 7078  41.926  10.134  13.516
34654W        W 7079  35.728  22.286   0.229
34655W        W 7080  35.498  24.051   4.610
34656W        W 7081  15.178  10.669  11.599
34657W        W 7082  21.523  20.100  12.061
34658W        W 7083  16.653   4.016  12.902
34659W        W 7084  22.225  42.795   3.628
34660W        W 7085  19.808  11.031   0.253
34661W        W 7086  16.382  27.074  12.787
34662W        W 7087  38.530  35.897  10.995
34663W        W 7088  25.001   2.386  14.486
34664W        W 7089  11.858   0.447   3.206
34665W        W 7090  23.032  11.371  11.719
34666W        W 7091   4.811  21.073  14.948
34667W        W 7092   6.358  23.997   3.666
34668W        W 7093  38.637  44.758   0.624
34669W        W 7094  36.449  32.380  12.226
34670W        W 7095  38.106   5.916  14.101
34671W        W 7096  26.522  40.769  12.957
34672W        W 7097  44.159   5.704  11.209
34673W        W 7098  25.984  21.286   0.942
34674W        W 7099  42.158  12.684  11.552
34675W        W 7100   3.966  16.775   0.422
34676W        W 7101  25.740  30.591   2.283
34677W        W 7102  42.350  28.175   2.096
34678W        W 7103  38.032  18.636   0.791
34679W        W 7104  20.707   8.393   5.139
34680W        W 7105  29.110  11.992  11.380
34681W        W 7106  41.105   4.421   4.307
34682W        W 7107   2.907  25.484  14.750
34683W        W 7108  24.190  32.214  10.535
34684W        W 7109  32.925  37.754  12.566
34685W        W 7110  36.281   2.791   1.316
34686W        W 7111  10.719   2.805  13.793
34687W        W 7112   7.384  27.865  11.386
34688W        W 7113  44.191   2.145   3.798
34689W        W 7114   9.053  17.116  13.373
34690W        W 7115   6.389   8.626  12.436
34691W        W 7116  30.310   9.339  10.706
34692W        W 7117  21.171  31.756   9.949
34693W        W 7118  28.085   3.677   0.479
34694W        W 7119  27.756  29.009  10.284
34695W        W 7120  15.592  36.115  11.107
34696W        W 7121  21.450  25.202   3.675
34697W        W 7122  33.334  17.207  12.381
34698W        W 7123  44.573  33.798   0.905
34699W        W 7124   8.927  36.350  10.574
34700W        W 7125  30.133  32.155  10.756
34701W        W 7126  35.152   8.996   9.782
34702W        W 7127  39.369  26.866   1.754
34703W        W 7128  39.605  34.077  13.061
34704W        W 7129  32.881  39.976  13.853
34705W        W 7130   0.039  38.027  11.774
34706W        W 7131   4.410  15.952  10.925
34707W        W 7132  35.493  14.850  13.444
34708W        W 7133  15.246   7.102   0.439
34709W        W 7134  37.254  40.182   1.331
34710W        W 7135  27.263   2.772  13.520
34711W        W 7136  22.854  11.198  10.443
34712W        W 7137  38.664   0.787   0.819
34713W        W 7138  14.221   1.951   1.263
34714W        W 7139  27.080  12.621  14.921
34715W        W 7140  17.649  19.543  13.019
34716W        W 7141  39.978   7.172   3.097
34717W        W 7142  17.726   8.964  14.069
34718W        W 7143   6.411  14.741  11.940
34719W        W 7144  34.913  39.443  14.835
34720W        W 7145  31.198  22.729   1.082
34721W        W 7146  40.467  20.094   2.764
34722W        W 7147   8.631  30.046   4.949
34723W        W 7148   9.618   3.970   3.303
34724W        W 7149   2.532   3.774   0.720
34725W        W 7150   9.674   6.035   0.461
34726W        W 7151  36.931  26.966   3.197
34727W        W 7152  19.192  37.754   4.712
34728W        W 7153  40.102  40.520  12.773
34729W        W 7154  44.032  38.868  12.398
34730W        W 7155  18.081  17.146   4.908
34731W        W 7156  24.558  35.086  11.553
34732W        W 7157  16.587   7.647   1.853
34733W        W 7158  25.026  32.067   3.371
34734W        W 7159  35.223  28.971   2.604
34735W        W 7160   9.746  10.776   1.960
34736W        W 7161  41.999  23.305   5.439
34737W        W 7162  15.253  38.335  14.340
34738W        W 7163   7.273  20.070  13.381
34739W        W 7164   6.132  28.074  14.461
34740W        W 7165  21.614  28.235   2.301
34741W        W 7166  42.928  42.052  11.126
34742W        W 7167   5.766   9.919  10.629
34743W        W 7168   7.648  29.225  14.501
34744W        W 7169   9.948   6.098  12.926
34745W        W 7170  29.565  42.353  11.500
34746W        W 7171   3.869  38.946   9.828
34747W        W 7172   7.653  29.670  12.993
34748W        W 7173  31.338  23.588  14.523
34749W        W 7174  41.368   0.998  14.003
34750W        W 7175  21.053  17.227   3.471
34751W        W 7176  38.780  37.934   1.890
34752W        W 7177   9.187  29.876  14.930
34753W        W 7178  33.036   1.393  13.091
34754W        W 7179  28.195  31.332   4.007
34755W        W 7180   0.032   9.704   3.202
34756W        W 7181  44.038  11.619   1.838
34757W        W 7182   7.357  40.489  10.417
34758W        W 7183  42.023  37.828   3.677
34759W        W 7184  38.087  32.152  13.076
34760W        W 7185  26.688   4.703  13.875
34761W        W 7186  40.786  14.817   3.721
34762W        W 7187  40.628   9.611  11.167
34763W        W 7188  12.257  24.776   1.203
34764W        W 7189   2.769  34.473  11.896
34765W        W 7190  39.532  15.559   3.137
34766W        W 7191  10.697  28.179  10.652
34767W        W 7192   3.395  29.645   2.327
34768W        W 7193  39.253   0.970  13.489
34769W        W 7194  44.420  23.726  14.495
34770W        W 7195   4.853  12.862   1.760
34771W        W 7196  19.818  27.878  13.526
34772W        W 7197  38.605  19.727   5.111
34773W        W 7198  34.286  23.732   4.186
34774W        W 7199  43.848   5.335  11.416
34775W        W 7200   6.019  14.086   0.460
34776W        W 7201  30.182   9.198  14.936
34777W        W 7202  42.038   7.106  13.056
34778W        W 7203  22.935  41.771  13.364
34779W        W 7204  28.139  25.436  14.022
34780W        W 7205   3.707   3.377  11.954
34781W        W 7206  27.898   1.223   3.746
34782W        W 7207  41.869  37.333   3.200
34783W        W 7208  15.636  19.523   1.271
34784W        W 7209  43.555  39.580  14.373
34785W        W 7210   8.787  13.288   1.149
34786W        W 7211  31.481  39.301  10.471
34787W        W 7212   3.992  13.784  14.847
34788W        W 7213   9.405  13.610  12.389
34789W        W 7214  15.862  27.000   1.528
34790W        W 7215  16.768  40.732  10.997
34791W        W 7216  37.798  16.691  11.731
34792W        W 7217  12.121  35.610   3.523
34793W        W 7218  44.275   5.590   4.124
34794W        W 7219  27.185  15.557   0.360
34795W        W 7220  38.101   9.242   4.118
34796W        W 7221  38.536   8.785   1.226
34797W        W 7222   7.776  32.340   3.177
34798W        W 7223  40.153  24.871  14.902
34799W        W 7224  28.588  23.123   2.324
34800W        W 7225  43.790  39.338  13.033
34801W        W 7226  34.537  12.122   2.238
34802W        W 7227  24.991  13.106  11.117
34803W        W 7228  31.157  43.301   2.209
34804W        W 7229   1.679  10.194  12.340
34805W        W 7230  43.569  20.798   0.886
34806W        W 7231  32.079   4.682   4.153
34807W        W 7232  15.095  34.660   1.872
34808W        W 7233  32.413  17.633   2.633
34809W        W 7234  44.372  11.727  14.419
34810W        W 7235   7.772  12.665   2.975
34811W        W 7236  33.425   3.312   4.711
34812W        W 7237  37.512  31.905   1.274
34813W        W 7238  18.720  38.492  11.167
34814W        W 7239  34.911   8.325  13.879
34815W        W 7240  11.862  35.425  11.181
34816W        W 7241  31.636  38.776  14.649
34817W        W 7242  11.745   6.648   2.735
34818W        W 7243  40.005  44.974   3.768
34819W        W 7244  12.687  27.562  12.092
34820W        W 7245  23.630  18.842   3.719
34821W        W 7246  33.890   4.685   1.817
34822W        W 7247  39.391  40.894  12.520
34823W        W 7248  41.342  41.847  13.622
34824W        W 7249  26.596   5.946   1.215
34825W        W 7250   0.855  23.935   4.304
34826W        W 7251  36.619  40.365   4.164
34827W        W 7252  37.791  16.694   1.382
34828W        W 7253  34.496   3.719  10.349
34829W        W 7254  41.356  32.095  14.893
34830W        W 7255  43.454  20.249  11.666
34831W        W 7256  20.484  35.516  11.402
34832W        W 7257   7.383  34.926  11.621
34833W        W 7258   1.092  38.543   2.685
34834W        W 7259  18.709  27.010  11.292
34835W        W 7260  29.491   9.869  13.232
34836W        W 7261  12.047  38.021   4.269
34837W        W 7262   5.900  25.607  11.138
34838W        W 7263   3.709  26.733   0.800
34839W        W 7264  19.985  36.313  13.027
34840W        W 7265  22.572  19.658   0.189
34841W        W 7266   7.256  25.152   4.579
34842W        W 7267  20.253  15.585   3.749
34843W        W 7268  43.645   3.641  12.921
34844W        W 7269  25.940  14.733   4.179
34845W        W 7270  43.725  20.337   0.141
34846W        W 7271   5.827  31.866  11.471
34847W        W 7272   3.662  38.468  11.595
34848W        W 7273  12.125  35.205   3.156
34849W        W 7274  26.008  30.040  12.619
34850W        W 7275  36.554  30.651   0.852
34851W        W 7276  38.515  16.045  13.456
34852W        W 7277   5.968   5.181  12.598
34853W        W 7278  27.646  26.828  13.791
34854W        W 7279   4.706   4.017   2.716
34855W        W 7280  20.983  23.753  12.906
34856W        W 7281  32.438  14.090  13.276
34857W        W 7282  29.404   8.715   3.188
34858W        W 7283  17.265  11.375  14.734
34859W        W 7284   4.381  31.106   2.416
34860W        W 7285  22.776   1.998   4.493
34861W        W 7286  28.019  33.823   3.356
34862W        W 7287  17.550  40.438   0.557
34863W        W 7288  20.330  25.767  12.884
34864W        W 7289  25.230  27.029  13.583
34865W        W 7290  24.114  38.241  14.732
34866W        W 7291  35.808  42.269   3.661
34867W        W 7292  12.608  17.630  12.467
34868W        W 7293  34.663  34.002  13.680
34869W        W 7294  28.538   7.795  11.194
34870W        W 7295  11.924  22.615  11.972
34871W        W 7296   9.052  24.747  11.053
34872W        W 7297  39.834  20.315  11.173
34873W        W 7298   5.020  13.890   1.811
34874W        W 7299  33.626  18.065  10.054
34875W        W 7300  38.059  28.182   1.830
34876W        W 7301  35.354  36.899  14.797
34877W        W 7302  25.478  35.934  13.873
34878W        W 7303  19.150  20.996   4.792
34879W        W 7304   6.887  21.544  11.677
34880W        W 7305  34.047  38.380   0.735
34881W        W 7306  29.581  10.497  12.130
34882W        W 7307   8.583  12.745   3.407
34883W        W 7308  18.827  42.353   1.366
34884W        W 7309   4.253   3.743   2.846
34885W        W 7310  36.503  27.451   1.287
34886W        W 7311  33.085  22.730   2.033
34887W        W 7312   9.203  17.556   1.304
34888W        W 7313  11.018   5.625   3.959
34889W        W 7314  25.011  18.394   4.995
34890W        W 7315  36.618   7.429  12.996
34891W        W 7316   0.143  39.916  13.038
34892W        W 7317  24.753   4.888   0.243
34893W        W 7318  10.950  13.122  12.476
34894W        W 7319  40.356  24.598  12.003
34895W        W 7320  17.466  36.500  13.127
34896W        W 7321  38.793  39.370   2.185
34897W        W 7322  18.683  43.913   0.315
34898W        W 7323  17.219  44.431   2.319
34899W        W 7324   9.317  22.851  12.951
34900W        W 7325  23.469  27.872   2.749
34901W        W 7326  39.773  15.787   3.612
34902W        W 7327  15.775  21.496  14.976
34903W        W 7328  38.613  21.514   4.237
34904W        W 7329  27.282  14.606   2.427
34905W        W 7330  16.929  17.289  11.282
34906W        W 7331  44.491   8.597   0.406
34907W        W 7332  34.016  40.990   1.833
34908W        W 7333  19.168  25.993  13.494
34909W        W 7334   7.310  24.674   2.197
34910W        W 7335  32.139  35.348  13.580
34911W        W 7336  25.475  23.587  11.806
34912W        W 7337   8.450  40.484   0.335
34913W        W 7338  30.654  20.244   1.823
34914W        W 7339  39.380  18.263  14.656
34915W        W 7340  13.276  17.295   1.363
34916W        W 7341   9.283  15.815  14.038
34917W        W 7342  17.326  44.554  13.031
34918W        W 7343  13.807  34.411   0.949
34919W        W 7344  40.022  27.208  10.732
34920W        W 7345  39.360  32.176   1.115
34921W        W 7346  22.712  14.208  12.585
34922W        W 7347  18.945  32.085   0.016
34923W        W 7348   3.973  13.090   4.324
34924W        W 7349  31.108  25.280  14.083
34925W        W 7350  33.375  16.806   2.265
34926W        W 7351  44.992  15.423  11.682
34927W        W 7352   6.350  12.441   3.070
34928W        W 7353  33.990  12.183   4.007
34929W        W 7354   0.715  26.147   3.635
34930W        W 7355  39.127  11.209  11.600
34931W        W 7356  21.795  26.343   1.255
34932W        W 7357  21.707  13.171  12.568
34933W        W 7358  19.629  33.445   3.214
34934W        W 7359  22.579   9.644  14.514
34935W        W 7360  27.772   6.521  14.260
34936W        W 7361   0.179  11.268  12.062
34937W        W 7362  40.275  19.014   0.438
34938W        W 7363   3.726   0.547  13.440
34939W        W 7364   1.431  20.660  14.945
34940W        W 7365  21.499  19.605  11.393
34941W        W 7366  44.720  16.855   1.326
34942W        W 7367  28.643  13.836  13.041
34943W        W 7368  35.268   0.776   1.590
34944W        W 7369  40.823  11.765   0.079
34945W        W 7370  44.796  20.845   4.969
34946W        W 7371   4.927   0.923   3.628
34947W        W 7372  19.710  44.708  14.157
34948W        W 7373  21.211  26.137  10.560
34949W        W 7374  36.312  35.332  14.556
34950W        W 7375  10.955  13.147   4.406
34951W        W 7376   9.631   9.797  13.439
34952W        W 7377  37.288   4.463   5.130
34953W        W 7378  37.269  28.208   2.817
34954W        W 7379  29.499  37.805  11.173
34955W        W 7380  24.623  11.838   1.172
34956W        W 7381   3.646  25.671  14.177
34957W        W 7382  15.129  20.009  11.468
34958W        W 7383  34.269  36.055   1.057
34959W        W 7384   3.923  27.698  10.877
34960W        W 7385   7.744  21.305   4.095
34961W        W 7386  17.552  42.735   1.167
34962W        W 7387  25.633  32.203   0.701
34963W        W 7388  27.767  41.182  11.698
34964W        W 7389  15.835  43.885   3.689
34965W        W 7390   6.905  44.842   1.370
34966W        W 7391   2.726  29.615  14.121
34967W        W 7392  10.762   8.386  14.926
34968W        W 7393  37.556  24.112  13.778
34969W        W 7394  22.474   9.334  12.097
34970W        W 7395  28.644   2.472  14.946
34971W        W 7396   4.302  14.161  12.953
34972W        W 7397  40.822  20.002   3.160
34973W        W 7398  20.259  12.331   1.870
34974W        W 7399  12.761  40.555  11.257
34975W        W 7400  25.189   7.166   1.749
34976W        W 7401  36.055  23.073  13.368
34977W        W 7402  14.925  41.048  13.701
34978W        W 7403  28.633   0.788   3.160
34979W        W 7404  30.233  18.411  11.888
34980W        W 7405  44.367  19.729   0.508
34981W        W 7406  26.686   1.457  12.478
34982W        W 7407  23.270  12.686  11.773
34983W        W 7408  19.174  16.840  11.103
34984W        W 7409   9.365  36.576  10.738
34985W        W 7410   0.901  43.506  14.295
34986W        W 7411  28.645  42.488  12.507
34987W        W 7412   5.156  43.538  12.570
34988W        W 7413  11.895  32.946  10.319
34989W        W 7414  36.516  39.872  12.382
34990W        W 7415  20.093  10.601  11.000
34991W        W 7416   3.469   8.791  10.283
34992W        W 7417   9.378  26.114  12.474
34993W        W 7418  21.188   9.436  14.924
34994W        W 7419  14.780  34.995   3.362
34995W        W 7420   8.854  24.161   3.370
34996W        W 7421  25.634  14.088   2.377
34997W        W 7422  18.290  40.020   1.761
34998W        W 7423  19.609  41.452  14.989
34999W        W 7424  29.725  16.625  11.798
35000W        W 7425  22.947  11.048   5.169
35001W        W 7426   9.868  23.151   3.332
35002W        W 7427   9.120  26.435  13.134
35003W        W 7428  23.597  36.346   3.131
35004W        W 7429  32.550   8.707   0.747
35005W        W 7430  13.153  42.052   3.249
35006W        W 7431  12.545   1.794  10.616
35007W        W 7432  23.515  31.205  14.815
35008W        W 7433  15.813  35.088  10.450
35009W        W 7434  31.171  17.784  11.619
35010W        W 7435  18.487  25.420  12.358
35011W        W 7436  37.420  44.210  14.932
35012W        W 7437  28.598  42.795  14.982
35013W        W 7438  38.713  18.070  11.575
35014W        W 7439  23.713  29.531   0.344
35015W        W 7440  15.350  23.374   1.394
35016W        W 7441   1.332   2.128  14.383
35017W        W 7442  36.365   3.213   2.757
35018W        W 7443  10.263  22.776  14.485
35019W        W 7444  36.844  33.153   0.396
35020W        W 7445   9.925  11.241   2.161
35021W        W 7446  32.505   7.740   1.697
35022W        W 7447   5.743  43.993  11.932
35023W        W 7448   5.799  34.061   3.659
35024W        W 7449  17.491  29.384  13.409
35025W        W 7450  42.804   2.917  12.017
35026W        W 7451  24.162   7.798  12.147
35027W        W 7452  22.700   1.463   4.552
35028W        W 7453  29.983  44.701   4.593
35029W        W 7454   2.433  36.830   1.700
35030W        W 7455  43.771  16.366   4.303
35031W        W 7456   6.475   8.174   3.080
35032W        W 7457  38.776   3.937   3.306
35033W        W 7458  28.193  30.471  11.474
35034W        W 7459  41.006  12.592  11.135
35035W        W 7460   4.273  41.622   1.907
35036W        W 7461   3.161  24.603  12.945
35037W        W 7462  31.380  11.809  14.036
35038W        W 7463  39.508  23.166   1.200
35039W        W 7464  29.999  26.243   3.230
35040W        W 7465  16.234  32.438   2.932
35041W        W 7466  28.924  25.115  11.855
35042W        W 7467  22.596  20.985   1.558
35043W        W 7468  27.050   3.884   1.366
35044W        W 7469   3.469  20.491   1.651
35045W        W 7470   7.489   5.869  14.029
35046W        W 7471  14.411  11.756   4.260
35047W        W 7472  22.784  27.896   2.900
35048W        W 7473  12.507  23.133  13.288
35049W        W 7474  38.408  44.945  11.409
35050W        W 7475   6.267  23.444   2.801
35051W        W 7476  38.039  35.987  12.990
35052W        W 7477  40.076  26.731   5.017
35053W        W 7478  35.428  37.981  11.807
35054W        W 7479  40.814  12.455   3.783
35055W        W 7480  26.505  36.463   4.563
35056W        W 7481  12.245  26.438  12.709
35057W        W 7482  31.468  28.591   4.948
35058W        W 7483   6.326  18.547  11.130
35059W        W 7484  21.322   8.900   0.945
35060W        W 7485  25.732  40.436   4.215
35061W        W 7486   1.470  21.752  11.494
35062W        W 7487  44.882  22.510   2.899
35063W        W 7488  15.649  41.050  14.358
35064W        W 7489  41.906   2.082  11.536
35065W        W 7490  16.707  40.111   3.288
35066W        W 7491   6.409  16.831  11.038
35067W        W 7492  31.419  15.237   1.500
35068W        W 7493  20.223   1.379  11.859
35069W        W 7494   7.977   5.885   2.518
35070W        W 7495   7.428  37.846  11.657
35071W        W 7496  42.819  13.282  14.615
35072W        W 7497  29.027  32.307  13.249
35073W        W 7498  37.214  34.170   1.529
35074W        W 7499  33.156  20.316   0.855
35075W        W 7500   5.375  33.943   2.913
35076W        W 7501  29.441  39.953  13.937
35077W        W 7502  26.220  27.170  12.795
35078W        W 7503  26.527  42.596  11.239
35079W        W 7504  21.211  30.075   2.000
35080W        W 7505   9.976  18.133  10.905
35081W        W 7506   5.973  42.544   4.195
35082W        W 7507  21.716  32.068   1.294
35083W        W 7508  29.997  25.694  14.972
35084W        W 7509  34.600  21.233   1.353
35085W        W 7510  11.828   6.376   4.118
35086W        W 7511  18.492  41.833  12.876
35087W        W 7512  18.395  39.081  13.421
35088W        W 7513  39.310  33.944  12.618
35089W        W 7514  43.248  40.962   4.336
35090W        W 7515  26.182   8.167   0.818
35091W        W 7516  44.600  25.535   3.331
35092W        W 7517  37.888  40.719  12.517
35093W        W 7518  16.700  38.430  13.737
35094W        W 7519  23.316  41.675   0.342
35095W        W 7520  28.313  14.830  13.878
35096W        W 7521   8.726  40.915  14.761
35097W        W 7522  42.906   2.032   2.908
35098W        W 7523   8.309  44.386   3.880
35099W        W 7524   0.061  19.457  14.770
35100W        W 7525  41.660  24.437  11.629
35101W        W 7526   6.771  10.614   4.438
35102W        W 7527  16.130   2.344   1.539
35103W        W 7528  26.957  42.373   3.820
35104W        W 7529  30.466  18.414   4.221
35105W        W 7530  22.135  18.239  13.782
35106W        W 7531  37.555   2.946  11.158
35107W        W 7532  24.200  24.482   3.252
35108W        W 7533  34.058  23.559   3.618
35109W        W 7534  28.734  37.081  13.320
35110W        W 7535  41.048  12.298   0.825
35111W        W 7536   8.404  10.414  10.006
35112W        W 7537  20.749  25.449   3.612
35113W        W 7538  29.793  30.448  12.138
35114W        W 7539   5.615  25.615  11.564
35115W        W 7540  42.902  19.336  10.747
35116W        W 7541  18.759  44.021   4.630
35117W        W 7542  18.054  24.658   1.005
35118W        W 7543   0.631  44.924   2.765
35119W        W 7544  24.732   2.055  13.092
35120W        W 7545  38.846   8.390   2.803
35121W        W 7546  34.477  36.890  14.788
35122W        W 7547  21.298  17.013  12.145
35123W        W 7548   7.244  13.202  12.026
35124W        W 7549   8.535  11.384   3.947
35125W        W 7550   1.759  31.108   2.990
35126W        W 7551  27.631  13.602  13.011
35127W        W 7552  21.257   0.803  14.390
35128W        W 7553  40.023  24.941   1.765
35129W        W 7554  23.382   7.761  12.335
35130W        W 7555   9.263   3.029   1.313
35131W        W 7556  41.095  15.721  14.188
35132W        W 7557   0.419   3.316   1.020
35133W        W 7558  19.728  29.988   1.491
35134W        W 7559   1.228   4.683  13.149
35135W        W 7560  34.179  12.892   1.957
35136W        W 7561  23.667  11.970   4.803
35137W        W 7562  32.457  30.656   0.452
35138W        W 7563  18.777   1.317   4.214
35139W        W 7564  28.697  27.539   2.841
35140W        W 7565  21.615  44.229   4.062
35141W        W 7566  44.384  19.500   3.221
35142W        W 7567  10.565  21.252   4.686
35143W        W 7568  31.964   0.683   3.035
35144W        W 7569  30.596   9.162   1.293
35145W        W 7570  31.865  22.830   4.424
35146W        W 7571  11.316  30.562  12.434
35147W        W 7572  16.679  25.391  11.133
35148W        W 7573  36.618  36.335  14.853
35149W        W 7574  13.291  16.659  12.600
35150W        W 7575  44.858  24.499  12.156
35151W        W 7576  40.579  17.090  14.504
35152W        W 7577  39.593  40.493   1.786
35153W        W 7578  36.183  39.771  13.542
35154W        W 7579  17.575  36.832   2.189
35155W        W 7580  36.939  13.597   0.498
35156W        W 7581  33.411  12.473   0.130
35157W        W 7582  14.864  31.710  14.396
35158W        W 7583  43.290   2.666  13.086
35159W        W 7584   6.273  19.700   0.763
35160W        W 7585  15.850   2.702  11.355
35161W        W 7586  29.383  23.022  12.847
35162W        W 7587   1.065  20.141   4.042
35163W        W 7588  23.504  30.956  14.369
35164W        W 7589  18.988  13.823  11.675
35165W        W 7590  19.559  22.214   4.301
35166W        W 7591  39.873  42.028   2.652
35167W        W 7592  10.791  38.945  11.451
35168W        W 7593  44.338  42.596  12.698
35169W        W 7594  23.923   7.433  13.074
35170W        W 7595   8.320  20.298   1.713
35171W        W 7596  22.960  13.268   2.708
35172W        W 7597   3.679  42.957   3.389
35173W        W 7598  44.838   6.671  10.710
35174W        W 7599   0.779   0.768  11.557
35175W        W 7600  39.067   7.252  11.651
35176W        W 7601  27.594  33.359  12.769
35177W        W 7602   3.781  10.322   0.419
35178W        W 7603  12.572  28.039  12.966
35179W        W 7604  23.833  35.887   2.229
35180W        W 7605  24.731  28.715  12.101
35181W        W 7606  12.227  43.672  13.371
35182W        W 7607  16.250  34.053  13.963
35183W        W 7608  10.396  26.349   1.283
35184W        W 7609  27.459   8.209  12.936
35185W        W 7610  44.326  13.109   1.720
35186W        W 7611  32.008  11.688   1.379
35187W        W 7612   4.115  34.602  11.561
35188W        W 7613  19.661   3.327  11.399
35189W        W 7614  41.084  21.034   1.972
35190W        W 7615  18.874  11.781   4.591
35191W        W 7616   5.460  38.413  11.976
35192W        W 7617  27.442   3.423   4.722
35193W        W 7618  18.126  26.683   3.834
35194W        W 7619  25.659  30.493   1.265
35195W        W 7620  16.783  28.646  11.199
35196W        W 7621   5.976   5.850  14.357
35197W        W 7622  12.645  21.219  14.778
35198W        W 7623  18.693  20.036  13.371
35199W        W 7624  21.532  24.997   2.711
35200W        W 7625  20.242  33.264   0.533
35201W        W 7626  28.991  16.648   0.324
35202W        W 7627  38.104  11.882   1.905
35203W        W 7628  22.000   4.605   2.242
35204W        W 7629  29.809  23.710  14.441
35205W        W 7630  14.326  19.984   4.860
35206W        W 7631   5.612   1.257   0.993
35207W        W 7632  41.612   5.398  13.395
35208W        W 7633  39.260   1.239  11.219
35209W        W 7634  10.770  28.600   1.096
35210W        W 7635  30.589  35.575   0.277
35211W        W 7636  28.509  22.849  14.883
35212W        W 7637  28.173  34.622  14.264
35213W        W 7638  20.897   4.004   0.814
35214W        W 7639   2.606   8.640  13.408
35215W        W 7640   0.434   5.423   2.480
35216W        W 7641   0.952  19.305   0.871
35217W        W 7642   1.710  20.245  14.026
35218W        W 7643   9.194  13.768   3.831
35219W        W 7644  14.276  26.121   3.618
35220W        W 7645  16.916  44.210   4.972
35221W        W 7646   5.956  32.043  10.130
35222W        W 7647  21.463  22.289  11.537
35223W        W 7648  39.190  15.314   0.840
35224W        W 7649  20.676  36.345   1.698
35225W        W 7650   5.630  22.697   1.832
35226W        W 7651   4.421  20.766   3.902
35227W        W 7652  15.286  26.507   2.845
35228W        W 7653  43.231  29.345   1.223
35229W        W 7654  16.020  15.240  14.952
35230W        W 7655  23.087  25.847   2.098
35231W        W 7656   8.872  39.048  11.317
35232W        W 7657  26.467  31.006  12.178
35233W        W 7658  33.856  26.936  10.442
35234W        W 7659  34.781  22.032   4.229
35235W        W 7660   6.252  33.052  12.573
35236W        W 7661  15.717   8.118  10.598
35237W        W 7662  11.048  32.105  14.961
35238W        W 7663  38.304  17.867  13.872
35239W        W 7664  31.176  33.450  11.170
35240W        W 7665  28.031   0.454   2.417
35241W        W 7666  15.334  22.203  13.459
35242W        W 7667  30.965   7.311   1.245
35243W        W 7668  43.470  40.124   2.346
35244W        W 7669  43.421  27.414  11.251
35245W        W 7670   4.661  10.103  10.735
35246W        W 7671  24.522  34.817   3.424
35247W        W 7672  35.488  27.086   2.346
35248W        W 7673  33.933   5.245   3.215
35249W        W 7674  25.300  26.047  14.498
35250W        W 7675   4.686  20.583  14.239
35251W        W 7676   4.944   4.183   0.215
35252W        W 7677  29.115  33.640   3.427
35253W        W 7678  38.922  21.974   2.539
35254W        W 7679   5.740  29.554  10.840
35255W        W 7680  21.656  23.638  11.267
35256W        W 7681  34.194  23.264   0.829
35257W        W 7682  12.011  39.771  13.443
35258W        W 7683   2.675  40.496  13.759
35259W        W 7684  18.953   3.348   0.006
35260W        W 7685  19.131  42.894   0.756
35261W        W 7686   1.026   2.314  13.298
35262W        W 7687  35.877  14.183   1.600
35263W        W 7688  21.634  17.561   4.847
35264W        W 7689  35.555  21.043  12.027
35265W        W 7690   3.635   6.871  13.691
35266W        W 7691  33.790   7.933  11.020
35267W        W 7692   5.233  14.678   3.103
35268W        W 7693  35.090   1.737   1.358
35269W        W 7694  11.834  18.940  11.689
35270W        W 7695  30.526  22.420  11.600
35271W        W 7696  40.630   1.501   5.081
35272W        W 7697  42.829   3.976  14.279
35273W        W 7698  14.837   8.145  10.664
35274W        W 7699  13.041  28.279   2.877
35275W        W 7700   1.257   6.508   0.835
35276W        W 7701  12.097  43.292  11.173
35277W        W 7702  38.364  30.074   4.593
35278W        W 7703  16.522   2.890  12.066
35279W        W 7704   7.167  24.693  14.979
35280W        W 7705  19.706  42.765  14.314
35281W        W 7706  30.103  10.936   4.489
35282W        W 7707  28.553  24.425  14.959
35283W        W 7708  30.598  44.202   2.225
35284W        W 7709  38.011  42.760  13.440
35285W        W 7710  35.934  27.995   0.694
35286W        W 7711  26.187  37.048  13.464
35287W        W 7712  20.484  28.399   3.668
35288W        W 7713  37.889  42.797  10.634
35289W        W 7714  24.779  17.131  12.370
35290W        W 7715  16.947  17.616   1.250
35291W        W 7716   1.782  30.678  12.601
35292W        W 7717  20.436  17.700  14.944
35293W        W 7718  30.194  31.521  13.979
35294W        W 7719  24.718  10.173   1.831
35295W        W 7720  36.616   4.240   1.233
35296W        W 7721  36.099  23.044  14.772
35297W        W 7722  23.587  38.922   2.470
35298W        W 7723   5.863  23.272   4.907
35299W        W 7724  11.340  39.105   4.755
35300W        W 7725  11.362  40.768  12.819
35301W        W 7726  29.164  41.068  11.639
35302W        W 7727  35.860  21.159   2.586
35303W        W 7728  10.177  34.656   3.283
35304W        W 7729  29.376  13.306  12.447
35305W        W 7730   4.656  17.266  14.569
35306W        W 7731  40.254  41.980  11.246
35307W        W 7732  18.152   7.674  10.906
35308W        W 7733   3.327  34.911   1.185
35309W        W 7734  11.790  38.875   0.084
35310W        W 7735  37.953   4.145   1.349
35311W        W 7736  23.818  12.724   4.822
35312W        W 7737  21.058  20.769  11.316
35313W        W 7738  14.204  26.451   3.192
35314W        W 7739  20.608  34.895   1.856
35315W        W 7740  44.102  25.285   1.298
35316W        W 7741   5.688  37.270  10.171
35317W        W 7742  37.635  44.210   4.513
35318W        W 7743  28.890  30.961   4.458
35319W        W 7744  12.442   4.655  13.956
35320W        W 7745  21.805  29.154  12.445
35321W        W 7746  11.426  21.354   4.097
35322W        W 7747  37.405  29.965   3.093
35323W        W 7748  13.127  43.788   1.318
35324W        W 7749  33.420  23.818  11.974
35325W        W 7750  32.121  32.910  12.113
35326W        W 7751   0.945   8.776   3.155
35327W        W 7752  19.105  22.220  12.952
35328W        W 7753   0.078   5.742   2.293
35329W        W 7754  34.145  42.420   0.668
35330W        W 7755  16.612  31.421   2.212
35331W        W 7756  33.397  14.332   1.384
35332W        W 7757  15.731  31.568   4.251
35333W        W 7758  36.478  13.607   0.778
35334W        W 7759  37.957  41.357   1.625
35335W        W 7760  25.742  19.215   4.127
35336W        W 7761  22.271  28.112   3.530
35337W        W 7762  37.024  10.282   4.962
35338W        W 7763   6.620  31.345  13.579
35339W        W 7764  37.770  16.045   0.351
35340W        W 7765  33.510   0.745  14.482
35341W        W 7766  24.157  29.496   0.061
35342W        W 7767   8.185  19.542  11.076
35343W        W 7768  33.872   5.595   2.786
35344W        W 7769   7.983  33.494  10.679
35345W        W 7770  30.266  13.231  12.184
35346W        W 7771  40.387  33.918  14.970
35347W        W 7772  36.237  29.467  10.690
35348W        W 7773  23.148  23.474   0.792
35349W        W 7774  38.421  44.027   4.104
35350W        W 7775  32.591  16.739  13.066
35351W        W 7776   1.810  23.971   3.922
35352W        W 7777  38.000  23.196   4.009
35353W        W 7778  20.645   9.383   0.418
35354W        W 7779  17.259  17.346  12.277
35355W        W 7780  16.027  34.185  10.156
35356W        W 7781  17.604  20.280  14.056
35357W        W 7782  25.553  29.530  11.975
35358W        W 7783   9.780  10.805  13.342
35359W        W 7784   7.733  18.136   2.794
35360W        W 7785  34.183  17.532  13.327
35361W        W 7786  20.277  30.084  13.378
35362W        W 7787   6.785  35.661   1.257
35363W        W 7788  13.697  12.312   1.150
35364W        W 7789   0.385  30.467  13.469
35365W        W 7790  22.080  12.285  11.147
35366W        W 7791   8.794   5.934   1.396
35367W        W 7792   6.473  40.879  10.206
35368W        W 7793  10.309  36.854  13.105
35369W        W 7794  11.655  16.641  13.993
35370W        W 7795  38.804  21.574  12.968
35371W        W 7796   2.424   8.255   3.864
35372W        W 7797   5.400  12.333  12.348
35373W        W 7798  17.993  32.415  12.488
35374W        W 7799  39.121  16.897  11.138
35375W        W 7800   8.315   1.930   1.142
35376W        W 7801   9.832  11.142   4.296
35377W        W 7802   0.819   5.992  14.597
35378W        W 7803  15.662  17.360  11.616
35379W        W 7804  44.876  39.453  14.990
35380W        W 7805   8.589  35.012   4.307
35381W        W 7806  28.420  16.087   1.784
35382W        W 7807   7.894  27.050   1.659
35383W        W 7808  43.520   3.042   1.228
35384W        W 7809  30.350  14.281   2.121
35385W        W 7810  18.140  32.943   2.424
35386W        W 7811  22.708  27.425   2.146
35387W        W 7812  28.465  21.210  10.287
35388W        W 7813   5.941  22.467  13.979
35389W        W 7814  33.407  39.683  14.705
35390W        W 7815   6.240  38.282  13.987
35391W        W 7816  27.133   6.749  12.608
35392W        W 7817  10.729  35.385   4.806
35393W        W 7818  22.142  23.622  11.052
35394W        W 7819  34.598   1.262  14.652
35395W        W 7820  21.256  32.568  14.825
35396W        W 7821  23.675  12.439  14.596
35397W        W 7822   9.946  13.619  10.970
35398W        W 7823  39.994  29.861  13.361
35399W        W 7824  38.420  12.686   4.530
35400W        W 7825   1.379  12.818   1.852
35401W        W 7826  20.414  34.373   3.645
35402W        W 7827  24.477  18.209  13.442
35403W        W 7828   6.503  39.763   1.179
35404W        W 7829  13.404   0.294   0.127
35405W        W 7830  38.886   1.247  12.929
35406W        W 7831  39.313  39.392  10.745
35407W        W 7832   6.708  21.499  14.431
35408W        W 7833  10.367  16.331   0.358
35409W        W 7834  17.694  13.828   4.613
35410W        W 7835  43.430  18.108  10.561
35411W        W 7836  14.083   5.641  12.253
35412W        W 7837  36.471  24.172  12.556
35413W        W 7838  26.129   0.931   2.672
35414W        W 7839  34.520  13.611   0.734
35415W        W 7840  35.041  10.990  13.532
35416W        W 7841  41.068  39.382  12.990
35417W        W 7842  27.052  26.869  14.913
35418W        W 7843  11.996  21.691  10.103
35419W        W 7844  18.022  25.374   1.675
35420W        W 7845   2.195  27.560   0.559
35421W        W 7846  25.706  21.050   1.304
35422W        W 7847  42.359   5.816   2.369
35423W        W 7848  26.137  41.529   0.503
35424W        W 7849  24.714  30.141   3.572
35425W        W 7850   5.317   7.754  14.120
35426W        W 7851  10.353  31.969   2.704
35427W        W 7852  40.053  31.428  14.463
35428W        W 7853  25.392  36.987   0.287
35429W        W 7854  14.549  26.276  13.244
35430W        W 7855   9.179  23.047   4.786
35431W        W 7856  15.760  16.457  13.532
35432W        W 7857   4.046  35.089   4.875
35433W        W 7858  28.235   1.484  14.262
35434W        W 7859  32.286  36.092  12.472
35435W        W 7860  18.340  25.704  10.635
35436W        W 7861   3.334   4.462  13.882
35437W        W 7862  18.685  29.900   3.674
35438W        W 7863  31.122   0.381   1.398
35439W        W 7864  37.491   2.379  14.386
35440W        W 7865  21.292   6.040   1.175
35441W        W 7866  14.724  35.284  12.695
35442W        W 7867  12.620  25.572  13.405
35443W        W 7868  27.670  42.844   3.312
35444W        W 7869  14.614  22.572   1.820
35445W        W 7870  30.206  29.537  11.440
35446W        W 7871  29.530  16.482   1.158
35447W        W 7872   4.898   1.583  13.415
35448W        W 7873  42.454  31.515   0.521
35449W        W 7874  18.667  25.154  13.662
35450W        W 7875  37.572  34.515  10.108
35451W        W 7876  18.492  15.134   0.315
35452W        W 7877  43.911   5.556   0.276
35453W        W 7878  44.685  41.942  14.845
35454W        W 7879  10.833   2.439  12.599
35455W        W 7880  12.724  33.476  13.934
35456W        W 7881  33.182  41.958  13.319
35457W        W 7882   9.743  40.413  12.283
35458W        W 7883  13.315  13.088  12.381
35459W        W 7884  23.965  10.126  12.491
35460W        W 7885  10.742  17.054  11.116
35461W        W 7886  41.530  17.362   2.771
35462W        W 7887  21.396   6.607  10.926
35463W        W 7888  39.512  41.061  12.032
35464W        W 7889  31.188  43.439   3.227
35465W        W 7890  34.329  36.537   3.818
35466W        W 7891   8.338   0.785   2.930
35467W        W 7892  14.743  40.480  11.180
35468W        W 7893  28.158   1.943   2.618
35469W        W 7894  21.290   8.312   3.345
35470W        W 7895  22.520  28.580   0.415
35471W        W 7896  21.859  41.243   2.991
35472W        W 7897  34.152  42.845   1.796
35473W        W 7898  19.017  11.143  10.805
35474W        W 7899  15.145  27.023   2.778
35475W        W 7900  29.625   5.791  11.451
35476W        W 7901  23.506   3.459  11.021
35477W        W 7902  43.949  41.725  12.974
35478W        W 7903   4.425  31.607  13.900
35479W        W 7904   5.313  20.729   3.297
35480W        W 7905  36.316  13.062   0.282
35481W        W 7906  27.618  18.101   1.284
35482W        W 7907  34.913   6.280   0.313
35483W        W 7908   7.265   8.158   1.738
35484W        W 7909  34.631  14.078  13.220
35485W        W 7910   1.763  23.936   2.339
35486W        W 7911  10.669  42.402  13.567
35487W        W 7912  11.314  33.139   4.283
35488W        W 7913  44.709   8.701   0.861
35489W        W 7914   5.283  19.637   0.467
35490W        W 7915   1.392  25.483  11.932
35491W        W 7916  40.429  42.403   0.278
35492W        W 7917  42.267  39.012   4.236
35493W        W 7918   4.941  27.483  13.463
35494W        W 7919   6.725  32.829  13.388
35495W        W 7920  23.411  41.555  13.487
35496W        W 7921  29.062   4.410  13.906
35497W        W 7922   7.362   0.200   2.202
35498W        W 7923   2.436  20.283   2.573
35499W        W 7924  24.986  35.298   2.718
35500W        W 7925  30.359  37.975   2.786
35501W        W 7926   0.496  44.871  10.993
35502W        W 7927  15.577  42.927  11.184
35503W        W 7928  24.549  17.259   0.645
35504W        W 7929  38.004  15.366   2.376
35505W        W 7930   9.201  18.771   4.741
35506W        W 7931   0.810  21.074   3.683
35507W        W 7932  30.493  16.524  14.040
35508W        W 7933  32.946   9.573  12.176
35509W        W 7934  18.038   9.902   1.721
35510W        W 7935  44.855  42.868  11.677
35511W        W 7936  21.754  29.861   4.664
35512W        W 7937   3.680   4.041  11.408
35513W        W 7938  24.999  14.176  11.120
35514W        W 7939  44.908   9.311   1.406
35515W        W 7940  35.945  24.018   2.703
35516W        W 7941  32.479   1.159  11.954
35517W        W 7942   8.397  11.695   4.705
35518W        W 7943  16.709   7.148   0.049
35519W        W 7944  32.710   4.660  13.871
35520W        W 7945   8.721  13.350   2.231
35521W        W 7946  43.917  12.839   1.207
35522W        W 7947  41.966  20.761   2.843
35523W        W 7948  24.245   7.386   9.787
35524W        W 7949  41.577  22.139   2.047
35525W        W 7950  17.791   9.374  11.937
35526W        W 7951  38.026  31.840   5.131
35527W        W 7952  22.518   2.021  12.946
35528W        W 7953  41.423  14.998  10.725
35529W        W 7954  18.567  17.672   4.325
35530W        W 7955  28.766  36.695  13.713
35531W        W 7956  11.892  44.430  11.674
35532W        W 7957   7.883  42.824  14.535
35533W        W 7958   9.742  24.175   1.618
35534W        W 7959  44.625  22.504  11.055
35535W        W 7960  25.801  25.712  11.596
35536W        W 7961  35.037   9.308   1.727
35537W        W 7962  24.755  31.564   0.357
35538W        W 7963   8.933   5.366  11.725
35539W        W 7964  28.465  38.294   4.643
35540W        W 7965  19.727  17.119  14.015
35541W        W 7966  27.773   4.914   3.284
35542W        W 7967  12.795  16.681  12.803
35543W        W 7968  15.925  28.803   2.701
35544W        W 7969  43.770  17.138   3.755
35545W        W 7970  36.900  28.680   0.412
35546W        W 7971  40.861  41.207   3.193
35547W        W 7972  19.163  18.197   0.219
35548W        W 7973  38.899  32.182   2.396
35549W        W 7974  33.149   5.591   3.662
35550W        W 7975  38.137   3.937  11.759
35551W        W 7976  26.573   9.906  13.883
35552W        W 7977  23.390  32.256  13.795
35553W        W 7978  35.415  32.013   3.163
35554W        W 7979  42.977  14.674   2.934
35555W        W 7980  44.774  42.027  11.562
35556W        W 7981   5.107   2.322  14.899
35557W        W 7982  27.204  27.486   2.738
35558W        W 7983   9.661  26.490   3.097
35559W        W 7984  14.865  10.316  11.415
35560W        W 7985  10.638  27.349   2.253
35561W        W 7986  29.184  23.805   4.323
35562W        W 7987  13.091   2.385  12.455
35563W        W 7988   1.292  31.061  14.461
35564W        W 7989  21.449  19.216  12.867
35565W        W 7990  38.153  22.673   2.609
35566W        W 7991   4.439  44.845  13.073
35567W        W 7992  15.777  18.743  12.019
35568W        W 7993  30.487  37.532   4.082
35569W        W 7994  28.607  22.459  12.447
35570W        W 7995   6.372  32.313   0.232
35571W        W 7996  11.635  18.095  12.814
35572W        W 7997  21.026  26.962   4.392
35573W        W 7998  27.197  10.672  12.046
35574W        W 7999  30.177  14.178  10.629
35575W        W 8000   5.338  15.670  11.936
35576W        W 8001  28.443  24.997  11.647
35577W        W 8002  19.843  31.466  12.021
35578W        W 8003   5.912  23.610   2.141
35579W        W 8004  25.797  33.467   5.004
35580W        W 8005  35.306   2.401   2.348
35581W        W 8006  13.663  32.193   3.292
35582W        W 8007   7.238  38.722  11.035
35583W        W 8008  16.136  14.170  14.006
35584W        W 8009  23.776  12.814   9.752
35585W        W 8010   6.377  41.338  13.829
35586W        W 8011   2.521  29.183  11.128
35587W        W 8012  11.123  29.868  11.158
35588W        W 8013  27.066  28.398   2.719
35589W        W 8014  29.724  14.279   3.278
35590W        W 8015  18.591  17.135   2.349
35591W        W 8016  40.684  26.564  13.006
35592W        W 8017  18.558  23.033   2.668
35593W        W 8018  36.305  38.505   2.697
35594W        W 8019  35.914  43.583  10.753
35595W        W 8020  42.330  26.052  13.005
35596W        W 8021  14.896   4.906   1.669
35597W        W 8022  29.132  14.597   3.723
35598W        W 8023  13.764  17.247  11.610
35599W        W 8024  42.349  39.799   1.371
35600W        W 8025  36.381  32.920   0.175
35601W        W 8026  27.967  11.592   2.018
35602W        W 8027  34.915  14.577   4.218
35603W        W 8028  38.360  32.107   0.740
35604W        W 8029  26.865   5.601   4.228
35605W        W 8030  26.667  25.430  11.313
35606W        W 8031  34.840  22.328  13.026
35607W        W 8032  39.803  29.459  14.530
35608W        W 8033  29.262  30.699   0.841
35609W        W 8034  31.632  41.838   4.667
35610W        W 8035  24.571  35.606   0.482
35611W        W 8036   8.379  22.259  11.969
35612W        W 8037  24.668  43.494  11.685
35613W        W 8038   8.187   9.250   4.369
35614W        W 8039  35.535  21.029  13.065
35615W        W 8040  35.574  38.945   2.683
35616W        W 8041  34.996  11.147  12.524
35617W        W 8042  16.011  11.564  11.945
35618W        W 8043  36.098  20.233   1.685
35619W        W 8044  16.237  12.824   3.173
35620W        W 8045   4.438  15.080   3.025
35621W        W 8046  13.172   8.466  13.961
35622W        W 8047  39.414  36.164  10.561
35623W        W 8048  41.948  29.494  14.947
35624W        W 8049  39.765  32.952   0.373
35625W        W 8050  36.481  18.913   0.265
35626W        W 8051  20.302  32.458   0.529
35627W        W 8052   8.747  27.732  11.985
35628W        W 8053   4.246   5.731  12.523
35629W        W 8054   7.124   7.247  13.123
35630W        W 8055  41.991  19.780  14.970
35631W        W 8056  15.659   7.825  13.099
35632W        W 8057  25.963  17.338   0.785
35633W        W 8058  29.618   4.717   2.011
35634W        W 8059  19.128  28.067   0.560
35635W        W 8060   8.286  35.554   0.405
35636W        W 8061  42.877   2.060   5.056
35637W        W 8062  30.468  28.426  14.915
35638W        W 8063  15.205  31.891  11.022
35639W        W 8064  36.286  21.734  13.215
35640W        W 8065  19.011  20.360  14.334
35641W        W 8066  43.392  24.191   4.229
35642W        W 8067  20.024  21.532   0.945
35643W        W 8068  38.446  13.894   2.881
35644W        W 8069  11.790  29.677  11.180
35645W        W 8070  29.508  10.658   3.330
35646W        W 8071  18.957   4.033   1.865
35647W        W 8072   2.881  33.417  13.792
35648W        W 8073   8.447   3.821   2.322
35649W        W 8074  22.331  14.914   0.344
35650W        W 8075  39.963  13.571  12.950
35651W        W 8076   2.716  26.024   1.335
35652W        W 8077  15.456   0.565  12.526
35653W        W 8078   6.803  42.574   2.936
35654W        W 8079   6.081   9.660  13.290
35655W        W 8080  39.322  30.662  14.377
35656W        W 8081  38.500  44.932  11.911
35657W        W 8082  21.809   8.866   3.631
35658W        W 8083  25.678  14.432  13.029
35659W        W 8084  37.123  29.008  13.957
35660W        W 8085  17.754  27.075   3.425
35661W        W 8086   6.132  44.301   1.343
35662W        W 8087  25.513  18.620   0.510
35663W        W 8088  26.982   5.176  13.480
35664W        W 8089  16.071  43.956  14.548
35665W        W 8090  35.785   1.803  10.779
35666W        W 8091  39.918  43.263  14.834
35667W        W 8092   1.799  14.793  12.167
35668W        W 8093  23.011   9.174  13.899
35669W        W 8094  37.396  44.922   1.158
35670W        W 8095  29.623  28.052  11.033
35671W        W 8096  30.711  35.390   1.248
35672W        W 8097  21.063  40.572   4.380
35673W        W 8098   2.939   3.815   2.103
35674W        W 8099  26.670   2.966   1.224
35675W        W 8100  23.960   0.006   4.186
35676W        W 8101  40.420  31.202   0.296
35677W        W 8102  43.897  13.527   1.800
35678W        W 8103   6.677  32.784   0.743
35679W        W 8104  25.515  38.455   3.642
35680W        W 8105   5.521  15.816   0.746
35681W        W 8106  37.470  21.463  11.171
35682W        W 8107  43.380  35.063   0.856
35683W        W 8108  20.874  35.562   3.808
35684W        W 8109   8.927  15.895  12.082
35685W        W 8110  24.631  15.108   1.161
35686W        W 8111  27.051   9.432  11.544
35687W        W 8112  22.411   9.220  14.769
35688W        W 8113   4.791  32.556   1.378
35689W        W 8114  44.248  34.517  14.432
35690W        W 8115  32.103  34.926   4.020
35691W        W 8116  20.333  41.928  13.931
35692W        W 8117  19.223  15.540  10.550
35693W        W 8118  35.018   5.435  12.488
35694W        W 8119  29.627   7.845   0.709
35695W        W 8120  22.579  23.255  13.976
35696W        W 8121  11.646   3.939   1.816
35697W        W 8122  13.250   4.505   2.522
35698W        W 8123   9.320   8.249  10.540
35699W        W 8124   3.525   8.252   1.743
35700W        W 8125  39.531  25.468  14.455
35701W        W 8126  36.309  43.792   3.675
35702W        W 8127  14.211   1.625   0.203
35703W        W 8128   3.820   0.986  10.129
35704W        W 8129  35.703   8.211   2.624
35705W        W 8130   4.893   8.722  11.544
35706W        W 8131  12.318  39.180   1.897
35707W        W 8132  11.798  21.334  11.489
35708W        W 8133  30.435  27.904  14.008
35709W        W 8134  37.552  44.731   2.062
35710W        W 8135   3.787  15.988   4.095
35711W        W 8136  28.118  26.548  13.820
35712W        W 8137   4.416   5.948  12.991
35713W        W 8138  42.015  41.367   1.812
35714W        W 8139  33.470  30.548  12.524
35715W        W 8140  11.189  23.032   3.752
35716W        W 8141  14.034  20.230   2.577
35717W        W 8142  27.446   8.952   4.121
35718W        W 8143   1.203  31.573  14.534
35719W        W 8144  26.561  37.080  12.023
35720W        W 8145  18.047   1.408   4.551
35721W        W 8146  23.610  14.765   2.875
35722W        W 8147  43.438  23.736  14.289
35723W        W 8148  13.827  24.087  13.529
35724W        W 8149  12.138  22.265  14.550
35725W        W 8150   6.789   4.250  12.091
35726W        W 8151   1.271  28.733   1.491
35727W        W 8152  39.973  33.421   0.387
35728W        W 8153  29.016   4.245  11.588
35729W        W 8154   2.298  32.070   3.136
35730W        W 8155  31.967  17.771  14.869
35731W        W 8156   1.281  33.407   0.991
35732W        W 8157  14.308   5.162  12.079
35733W        W 8158   7.725   9.104   0.284
35734W        W 8159  27.919  34.783  12.478
35735W        W 8160  14.554  21.685   4.798
35736W        W 8161  26.405  35.508   4.544
35737W        W 8162  36.264   6.941   4.554
35738W        W 8163  19.939  19.181  13.092
35739W        W 8164   6.113  16.520  12.065
35740W        W 8165  12.645  39.469  12.113
35741W        W 8166   2.972  13.301   4.468
35742W        W 8167  20.116   1.947   1.167
35743W        W 8168  12.028  15.822  10.747
35744W        W 8169  25.515   4.448   2.746
35745W        W 8170  43.789  18.237  14.908
35746W        W 8171   8.566  24.631  11.000
35747W        W 8172  36.346  27.916  10.378
35748W        W 8173  18.024  23.645   1.260
35749W        W 8174  35.611   9.114  14.441
35750W        W 8175  20.352  31.372  11.987
35751W        W 8176  23.094  17.644  13.807
35752W        W 8177  38.231  31.498   2.213
35753W        W 8178  38.213  30.344  11.626
35754W        W 8179  10.557  44.879  14.977
35755W        W 8180   0.254  23.582   4.077
35756W        W 8181  14.140  43.725  13.368
35757W        W 8182  30.771  26.098  12.650
35758W        W 8183  22.056  15.259  10.431
35759W        W 8184  25.965   0.383  11.958
35760W        W 8185  14.149  44.086  11.730
35761W        W 8186  28.320  37.355  13.085
35762W        W 8187  23.576  28.720  12.979
35763W        W 8188  23.593  44.660  13.939
35764W        W 8189  24.020  19.280  12.448
35765W        W 8190  42.577  44.914  13.000
35766W        W 8191  43.934  17.154   4.708
35767W        W 8192  15.506  32.442  14.027
35768W        W 8193  28.983  18.738  13.124
35769W        W 8194  24.355  34.376   3.200
35770W        W 8195  11.726  11.151   0.432
35771W        W 8196  27.772  44.839  11.678
35772W        W 8197  14.380  35.853  10.754
35773W        W 8198  20.292  29.733  12.968
35774W        W 8199  22.495   1.763  10.702
35775W        W 8200  22.778   9.405  11.625
35776W        W 8201  37.591  12.379  13.513
35777W        W 8202   9.495  34.793  11.012
35778W        W 8203   1.317  29.618  10.387
35779W        W 8204   0.867  41.933   2.424
35780W        W 8205  14.151   6.873  11.408
35781W        W 8206  23.531  23.223  14.005
35782W        W 8207  24.858  43.079   0.234
35783W        W 8208  11.845   9.222  13.590
35784W        W 8209   4.528  24.268  11.245
35785W        W 8210   9.919  24.623  12.819
35786W        W 8211  12.225  19.753  13.130
35787W        W 8212  40.552  10.804  12.229
35788W        W 8213  44.003  21.974   2.084
35789W        W 8214  11.869   3.181  10.209
35790W        W 8215  36.100   7.718  13.361
35791W        W 8216  10.713  28.580   4.080
35792W        W 8217  10.669   9.662  13.946
35793W        W 8218  25.474   2.767   0.792
35794W        W 8219   2.489   6.577   2.208
35795W        W 8220  11.878   6.828   4.363
35796W        W 8221  10.630  42.119  10.670
35797W        W 8222  15.517   5.172   3.444
35798W        W 8223   5.704   4.365   4.687
35799W        W 8224  28.414   1.468   1.568
35800W        W 8225  19.557   5.765   2.374
35801W        W 8226  28.530  19.172  12.026
35802W        W 8227  10.267  13.599  12.088
35803W        W 8228  18.061  13.789  13.468
35804W        W 8229  32.776  26.023   0.416
35805W        W 8230  19.216  39.373   3.085
35806W        W 8231  32.589  16.517   3.334
35807W        W 8232  21.551  23.650  14.505
35808W        W 8233  26.105   6.042  10.848
35809W        W 8234   2.727   8.145   2.740
35810W        W 8235  33.977  30.989  11.716
35811W        W 8236  12.334  14.641  11.897
35812W        W 8237  16.286  37.343  12.999
35813W        W 8238  17.224  29.694  13.745
35814W        W 8239  23.668  13.588  11.897
35815W        W 8240  18.298  44.271  12.890
35816W        W 8241  32.583  42.366   1.517
35817W        W 8242  32.412  38.076  12.556
35818W        W 8243  44.088  43.761   4.193
35819W        W 8244  35.209  22.204   0.265
35820W        W 8245   2.042   9.349  14.640
35821W        W 8246  28.146  15.539   2.863
35822W        W 8247  42.834   8.596  12.891
35823W        W 8248  15.347   7.772   1.425
35824W        W 8249  37.555  27.202  10.588
35825W        W 8250  37.081  39.922   0.274
35826W        W 8251  21.051  10.104  12.106
35827W        W 8252  16.574  11.340   2.174
35828W        W 8253   1.260   2.961   3.416
35829W        W 8254  24.496   3.224   4.162
35830W        W 8255   5.238  36.117  10.637
35831W        W 8256  34.499  20.345  14.302
35832W        W 8257  11.081  19.646   1.861
35833W        W 8258   5.615  44.423  11.634
35834W        W 8259   7.150  38.459   1.407
35835W        W 8260   0.398  44.347  10.949
35836W        W 8261  31.492  28.144   0.503
35837W        W 8262  43.755  43.349   1.252
35838W        W 8263  40.910  38.031  14.847
35839W        W 8264  11.651  34.499   5.189
35840W        W 8265  36.126  35.950  10.651
35841W        W 8266  31.170  29.498   1.220
35842W        W 8267  21.481  13.672   2.878
35843W        W 8268  25.379  39.376   1.237
35844W        W 8269  13.767   1.762   1.130
35845W        W 8270  27.793  26.517   2.701
35846W        W 8271  12.806  13.586  13.926
35847W        W 8272  25.513  30.056   1.010
35848W        W 8273  40.009  11.662  11.246
35849W        W 8274   7.820  10.281   0.980
35850W        W 8275  23.232   6.883   2.751
35851W        W 8276  36.910   8.655   4.237
35852W        W 8277  24.143  35.578   3.728
35853W        W 8278  40.296  32.848   1.774
35854W        W 8279   3.266  36.357  10.464
35855W        W 8280  34.999  16.355  13.787
35856W        W 8281  18.121  42.304   0.184
35857W        W 8282  43.957  14.787   0.322
35858W        W 8283  38.540   5.798  10.972
35859W        W 8284  21.335   6.269   2.957
35860W        W 8285  37.022  23.288   3.753
35861W        W 8286  23.006   4.929  13.484
35862W        W 8287   4.993   8.282   3.262
35863W        W 8288  25.451  43.069  13.052
35864W        W 8289  35.036  25.643   3.729
35865W        W 8290  26.512  27.683  10.683
35866W        W 8291  28.036  35.500  12.021
35867W        W 8292  35.132  18.672  11.959
35868W        W 8293  43.439  35.547   2.166
35869W        W 8294   3.897  17.468  13.805
35870W        W 8295  33.130  12.195   0.711
35871W        W 8296  37.026   2.521  12.558
35872W        W 8297   0.518   8.208  12.610
35873W        W 8298  35.618  30.060   0.000
35874W        W 8299  13.876  29.040   4.557
35875W        W 8300  27.687  33.090   0.800
35876W        W 8301  18.615  35.443  10.695
35877W        W 8302   1.459  16.697   1.385
35878W        W 8303  42.921   8.767  12.422
35879W        W 8304  39.774  42.927  11.122
35880W        W 8305  33.477  19.229   3.255
35881W        W 8306   6.306  22.568   1.274
35882W        W 8307  17.017   4.472   2.312
35883W        W 8308   4.782   4.942  14.831
35884W        W 8309  14.987  17.054  11.077
35885W        W 8310  20.164  17.801   3.175
35886W        W 8311  43.854   1.052  12.279
35887W        W 8312  12.382  13.114  10.929
35888W        W 8313   7.863   6.524   1.171
35889W        W 8314  36.009  19.330   3.340
35890W        W 8315   7.244  15.350   3.710
35891W        W 8316  35.648  10.106  11.941
35892W        W 8317  18.782  40.550   2.492
35893W        W 8318  18.053  15.235  12.080
35894W        W 8319   5.014  33.366   2.285
35895W        W 8320   9.809   1.224  13.008
35896W        W 8321   7.312  36.955  13.120
35897W        W 8322  30.909   0.792   1.036
35898W        W 8323  32.232  29.511  11.576
35899W        W 8324   6.980   6.864   1.833
35900W        W 8325  22.766  10.649   4.856
35901W        W 8326  16.712  23.105   2.357
35902W        W 8327  35.001  20.641  11.796
35903W        W 8328  15.750  30.661  14.356
35904W        W 8329   8.266  18.230   1.931
35905W        W 8330   2.257  18.667  10.707
35906W        W 8331  27.234   3.747  13.149
35907W        W 8332   1.575  37.176  11.233
35908W        W 8333  16.281  44.503   2.243
35909W        W 8334  30.582  24.126   4.944
35910W        W 8335  42.221  23.258   3.313
35911W        W 8336  18.053  24.574  14.263
35912W        W 8337  16.209  21.676  14.740
35913W        W 8338  27.114  42.430   0.034
35914W        W 8339  13.444   9.731  11.662
35915W        W 8340  11.184  17.195  11.665
35916W        W 8341  10.892   4.401   3.808
35917W        W 8342   6.713  28.998  12.524
35918W        W 8343  39.309  19.952  10.517
35919W        W 8344  34.971  31.519  12.049
35920W        W 8345  16.022   5.391   0.412
35921W        W 8346  40.060  22.542  10.883
35922W        W 8347  31.829  41.272   0.184
35923W        W 8348  25.632   7.656  13.870
35924W        W 8349  33.597  14.901  11.996
35925W        W 8350  41.318  43.091   4.508
35926W        W 8351  26.460  40.950  14.271
35927W        W 8352  19.511   1.597  11.466
35928W        W 8353  11.031   5.811  12.954
35929W        W 8354  15.714  32.334   3.114
35930W        W 8355  44.920  26.386  12.594
35931W        W 8356  19.463   5.852   0.892
35932W        W 8357  19.817  38.974   3.697
35933W        W 8358  11.748  21.774   9.612
35934W        W 8359  34.591  22.540   4.881
35935W        W 8360  30.071  25.744   3.340
35936W        W 8361   2.776  20.176   0.078
35937W        W 8362  21.783  13.314  14.467
35938W        W 8363  22.869  34.494  13.832
35939W        W 8364  10.670  33.439  14.454
35940W        W 8365  11.121   1.416  13.444
35941W        W 8366  19.506  34.374   4.354
35942W        W 8367  11.717  27.608  12.834
35943W        W 8368  11.305   0.825  12.326
35944W        W 8369   7.899  29.648  13.461
35945W        W 8370  30.657  29.925   2.760
35946W        W 8371  29.017  29.951   3.658
35947W        W 8372  10.775  43.509   1.870
35948W        W 8373  13.289  22.833  10.571
35949W        W 8374  17.855  24.309  14.921
35950W        W 8375  23.015  35.479  11.486
35951W        W 8376  21.346  10.157  10.345
35952W        W 8377   3.819   2.107  12.267
35953W        W 8378  34.343  24.112  13.422
35954W        W 8379  18.279   0.741  13.528
35955W        W 8380   0.814  16.104  14.312
35956W        W 8381   4.880  39.920  12.096
35957W        W 8382  39.744  25.939  11.171
35958W        W 8383  35.430  37.815  13.409
35959W        W 8384  44.915  16.272  14.815
35960W        W 8385  25.609  25.021  14.020
35961W        W 8386  11.327   7.385   1.878
35962W        W 8387  44.997   1.837  13.545
35963W        W 8388  39.169  33.421   1.031
35964W        W 8389  33.024   8.650   0.918
35965W        W 8390  37.340  20.738   0.423
35966W        W 8391   6.859  24.821  10.682
35967W        W 8392   7.193   9.735  10.754
35968W        W 8393  19.665  26.010  12.419
35969W        W 8394  17.311  16.250  11.202
35970W        W 8395  22.065  31.421  11.992
35971W        W 8396  11.066  24.098   4.419
35972W        W 8397  29.531  17.032   3.218
35973W        W 8398  16.157  24.866  14.103
35974W        W 8399  17.652  17.362   4.526
35975W        W 8400  34.287  20.775   0.491
35976W        W 8401  36.356   7.194  11.238
35977W        W 8402   5.077  39.427   4.321
35978W        W 8403  32.449  35.081   3.667
35979W        W 8404  34.757  43.830  11.986
35980W        W 8405  33.075  35.561  14.324
35981W        W 8406  37.393  13.698  13.138
35982W        W 8407  36.844  23.689  13.855
35983W        W 8408  19.635  42.499   4.557
35984W        W 8409  19.077  10.684   4.118
35985W        W 8410  22.632  32.824  11.420
35986W        W 8411   6.657  24.246  12.413
35987W        W 8412  25.261  27.891   4.692
35988W        W 8413  13.459   0.350  14.562
35989W        W 8414   4.920  40.858   0.900
35990W        W 8415  43.223  42.709   1.593
35991W        W 8416  10.226   6.658   3.636
35992W        W 8417  38.957  30.427   2.989
35993W        W 8418  21.370  17.668   3.416
35994W        W 8419  37.430  12.735   1.204
35995W        W 8420   0.347   5.424  14.319
35996W        W 8421  24.528  33.220  14.344
35997W        W 8422  28.925  25.542   2.979
35998W        W 8423  37.297  34.454   2.872
35999W        W 8424  22.023  28.401  11.107
36000W        W 8425   7.589   2.250  12.581
36001W        W 8426   4.707  43.921  14.674
36002W        W 8427  18.695   8.416  14.920
36003W        W 8428  37.387  44.309   3.264
36004W        W 8429   8.856  42.396  13.690
36005W        W 8430   5.789  33.863   4.129
36006W        W 8431  11.752  41.693  10.724
36007W        W 8432  35.399  25.583  10.812
36008W        W 8433   2.711  37.444   1.172
36009W        W 8434  15.819  22.092   4.128
36010W        W 8435  27.711   7.722   4.318
36011W        W 8436   4.244  10.466  11.560
36012W        W 8437  30.976  37.108  13.054
36013W        W 8438  42.299  11.185   3.323
36014W        W 8439  24.427  32.730   9.627
36015W        W 8440  41.469  19.311   0.794
36016W        W 8441  36.932  26.048   1.475
36017W        W 8442  30.474   1.723   3.236
36018W        W 8443  41.799  12.898  11.857
36019W        W 8444   4.323  14.762  12.220
36020W        W 8445   7.919  37.102  14.555
36021W        W 8446  43.429  35.558   0.739
36022W        W 8447   2.751  36.891  14.414
36023W        W 8448  23.161  28.037   3.735
36024W        W 8449  33.171  14.059   0.281
36025W        W 8450  38.274  39.075  12.677
36026W        W 8451   2.876  15.351   2.791
36027W        W 8452   9.533  40.857   0.386
36028W        W 8453  35.873  15.537  11.926
36029W        W 8454  26.197  14.541  11.125
36030W        W 8455  20.236  34.305  13.909
36031W        W 8456  43.727   8.387  12.368
36032W        W 8457  11.644   1.489  13.466
36033W        W 8458  14.368  15.037  11.938
36034W        W 8459  41.076  16.438  12.436
36035W        W 8460  28.331  35.547  10.732
36036W        W 8461  27.731  22.710   1.363
36037W        W 8462   8.152  23.013   2.826
36038W        W 8463   3.418  29.866   3.693
36039W        W 8464   9.695  23.167   4.712
36040W        W 8465  18.124  23.184  12.053
36041W        W 8466  19.854  26.319   4.736
36042W        W 8467  13.233   7.607   1.885
36043W        W 8468  25.247   8.392   2.046
36044W        W 8469  17.428  33.349   4.737
36045W        W 8470  44.272  12.145   5.195
36046W        W 8471  20.700  28.230   2.356
36047W        W 8472  20.690  23.082   2.183
36048W        W 8473  17.645  22.011   4.265
36049W        W 8474   5.251   9.148  10.500
36050W        W 8475   5.201   7.358  12.744
36051W        W 8476  22.956  33.938   3.184
36052W        W 8477  16.733  30.203   0.300
36053W        W 8478  14.653   4.492   4.413
36054W        W 8479   3.408   0.790   3.550
36055W        W 8480  24.636  22.696  13.573
36056W        W 8481   7.287  32.349  13.035
36057W        W 8482   6.088  43.321  10.397
36058W        W 8483  40.181   8.415  13.065
36059W        W 8484  38.353  33.439   2.417
36060W        W 8485  39.091   0.574   3.454
36061W        W 8486  36.540  41.335  13.728
36062W        W 8487   3.782  23.679   1.022
36063W        W 8488  14.212  10.794   2.143
36064W        W 8489  37.819  21.419  11.557
36065W        W 8490  13.410  44.259  11.228
36066W        W 8491   3.306  44.751   1.355
36067W        W 8492  13.005   0.118  14.796
36068W        W 8493  25.154  20.750  11.592
36069W        W 8494  40.981  13.398   0.431
36070W        W 8495  20.571  23.503  13.095
36071W        W 8496  39.047  38.394   2.202
36072W        W 8497  29.991  26.883   5.218
36073W        W 8498  18.076  37.439  14.772
36074W        W 8499  34.625  14.354   2.983
36075W        W 8500  32.830  24.581  10.727
36076W        W 8501  25.539  11.717   4.374
36077W        W 8502   6.702  20.061   1.247
36078W        W 8503  40.824  22.127  12.500
36079W        W 8504  13.803   0.035  12.593
36080W        W 8505  11.326  29.735   2.623
36081W        W 8506  27.951  33.135   5.103
36082W        W 8507   2.698  23.999  13.583
36083W        W 8508  19.102  32.125  12.069
36084W        W 8509  23.946  31.998   0.060
36085W        W 8510  27.668  32.314  14.338
36086W        W 8511  12.066   9.065  12.560
36087W        W 8512  41.971  32.700   0.262
36088W        W 8513  24.525   9.654  14.862
36089W        W 8514  35.204  28.450  13.880
36090W        W 8515  25.302  30.660   4.575
36091W        W 8516   4.354  16.669  11.624
36092W        W 8517  37.458   2.821  10.663
36093W        W 8518  39.906  14.448  13.404
36094W        W 8519  36.676  35.550  12.765
36095W        W 8520  25.254  40.447  14.230
36096W        W 8521  15.161   4.792  13.078
36097W        W 8522  20.261  17.738   0.723
36098W        W 8523  22.922   2.969   2.570
36099W        W 8524  44.280  43.285   4.996
36100W        W 8525  16.805  22.416   0.301
36101W        W 8526  33.843  37.060   4.126
36102W        W 8527  13.223   1.941   9.721
36103W        W 8528  21.167  34.068  14.137
36104W        W 8529  21.616  18.850  13.286
36105W        W 8530   8.455  36.579  10.603
36106W        W 8531  11.864   7.719  13.019
36107W        W 8532   3.558  33.054   0.794
36108W        W 8533   4.392  38.235   1.359
36109W        W 8534  34.166  30.193  10.766
36110W        W 8535  15.770  41.505  13.357
36111W        W 8536  37.332  39.454  14.918
36112W        W 8537  16.164   8.884  11.106
36113W        W 8538  17.289  29.646   1.233
36114W        W 8539  28.868  36.838   4.610
36115W        W 8540   4.620  30.580  13.268
36116W        W 8541  27.150  40.039  11.070
36117W        W 8542   5.432  43.498   2.366
36118W        W 8543  14.835  39.112   1.436
36119W        W 8544   7.128   6.501   0.822
36120W        W 8545  11.674  11.624  13.485
36121W        W 8546  43.920  36.920  12.508
36122W        W 8547   8.228  26.524  14.224
36123W        W 8548  13.354  29.040  11.444
36124W        W 8549  19.069  33.887  12.422
36125W        W 8550  29.388  43.345  14.362
36126W        W 8551   5.530   6.811   0.174
36127W        W 8552   5.823   4.932   1.522
36128W        W 8553   5.688  16.983  13.353
36129W        W 8554  31.926  32.022   1.793
36130W        W 8555  34.452   2.358  13.432
36131W        W 8556  35.576   3.512   1.137
36132W        W 8557  22.991  35.080  14.843
36133W        W 8558  38.866  34.061  12.351
36134W        W 8559   6.416  22.562  14.262
36135W        W 8560  44.762  12.746   1.783
36136W        W 8561   3.864  35.363   3.559
36137W        W 8562  16.456  17.027  11.194
36138W        W 8563  43.263  19.780  11.534
36139W        W 8564  40.218  20.573  14.308
36140W        W 8565  29.648  44.096  14.917
36141W        W 8566  34.668   5.350   1.033
36142W        W 8567  38.048   0.962  13.740
36143W        W 8568   9.176   0.036   2.414
36144W        W 8569  30.362   5.408   3.083
36145W        W 8570  11.325   7.763  12.511
36146W        W 8571  44.020  25.780   0.390
36147W        W 8572  44.035  16.729   2.639
36148W        W 8573  34.622   3.674  13.247
36149W        W 8574   7.594  10.472  11.625
36150W        W 8575  28.999  17.560  12.109
36151W        W 8576  43.238   9.274  14.270
36152W        W 8577  42.358  13.615  11.977
36153W        W 8578  10.858  20.466   0.144
36154W        W 8579  10.958  20.204  13.825
36155W        W 8580  18.493  25.634   4.122
36156W        W 8581  39.013   6.671   0.711
36157W        W 8582   0.413  23.726  13.548
36158W        W 8583  31.231  12.358   4.772
36159W        W 8584  43.542  10.268  10.690
36160W        W 8585   1.993  28.093  14.780
36161W        W 8586  44.357  36.492   0.752
36162W        W 8587  12.022  42.732  11.160
36163W        W 8588  21.318   0.229  12.228
36164W        W 8589  40.919  32.869   1.021
36165W        W 8590   5.160  31.338   4.517
36166W        W 8591  16.170   4.619   2.258
36167W        W 8592   0.310  34.367  13.433
36168W        W 8593  25.731  19.970   0.896
36169W        W 8594  38.397   0.849  11.516
36170W        W 8595  12.924   3.748   0.486
36171W        W 8596  37.081  44.734   3.365
36172W        W 8597  36.880  19.653   4.632
36173W        W 8598  31.653  14.555   1.240
36174W        W 8599  37.659  11.086   3.725
36175W        W 8600  35.904  32.137   0.439
36176W        W 8601  21.218   9.944   0.847
36177W        W 8602  31.231   9.785  12.271
36178W        W 8603   4.332  24.651   4.616
36179W        W 8604  36.058   8.619  12.358
36180W        W 8605  23.719  37.133   3.927
36181W        W 8606  24.755  13.246   1.226
36182W        W 8607  13.659   6.692   3.237
36183W        W 8608  35.880   1.341  11.945
36184W        W 8609  17.068   3.564   1.837
36185W        W 8610  38.342  24.222  11.919
36186W        W 8611  17.630  12.394  12.064
36187W        W 8612   8.433  28.545   3.682
36188W        W 8613   0.401  29.395  12.477
36189W        W 8614  32.850  40.299  12.432
36190W        W 8615   9.452  14.780   0.921
36191W        W 8616  11.373   7.963  13.576
36192W        W 8617  44.503   4.172   0.079
36193W        W 8618   0.487   1.532   0.728
36194W        W 8619  16.962  27.576   1.942
36195W        W 8620  34.014   3.347  12.461
36196W        W 8621  44.343   5.788   1.189
36197W        W 8622  36.906  23.202   1.408
36198W        W 8623  30.964  27.697  14.726
36199W        W 8624  36.673  21.491   2.854
36200W        W 8625  22.190  12.756  11.908
36201W        W 8626   5.396  20.296  11.219
36202W        W 8627  41.500   2.892   0.433
36203W        W 8628  20.104   4.638   0.383
36204W        W 8629  18.361   1.772   4.894
36205W        W 8630  15.270  44.027  13.566
36206W        W 8631   2.691   8.093   4.267
36207W        W 8632  25.420  13.277  13.120
36208W        W 8633  10.854   3.493  14.000
36209W        W 8634  30.954  30.394  13.457
36210W        W 8635  20.913  36.470  12.513
36211W        W 8636  37.874   5.615  11.582
36212W        W 8637   3.293  23.717   2.197
36213W        W 8638  43.964  30.391   4.220
36214W        W 8639  43.027   9.179  11.151
36215W        W 8640  24.763  24.707   1.190
36216W        W 8641  32.253  19.906   2.684
36217W        W 8642  43.475  11.773   2.951
36218W        W 8643  12.223  24.228   2.648
36219W        W 8644  10.385  17.629  13.412
36220W        W 8645  33.878  31.468  11.903
36221W        W 8646  26.310  22.499  12.701
36222W        W 8647  28.142  12.512   2.685
36223W        W 8648  31.161  18.952   4.093
36224W        W 8649  35.965   5.193   4.218
36225W        W 8650  19.924  12.223   4.476
36226W        W 8651  40.859   1.034  13.270
36227W        W 8652   3.696  35.550  10.550
36228W        W 8653  16.352  24.999  11.485
36229W        W 8654  14.525  19.822   2.275
36230W        W 8655  16.408  32.050   4.334
36231W        W 8656  40.571   3.064  14.807
36232W        W 8657   3.813   3.259  10.993
36233W        W 8658  33.024  31.509  11.566
36234W        W 8659  24.767  14.049   5.090
36235W        W 8660  44.862  34.064   4.058
36236W        W 8661  26.511  27.013  14.954
36237W        W 8662  22.753  36.631   1.721
36238W        W 8663  40.032  26.695   4.201
36239W        W 8664  23.793  43.875   4.404
36240W        W 8665  17.720  30.018  10.412
36241W        W 8666  25.339  37.606   2.778
36242W        W 8667   8.751  23.435  14.763
36243W        W 8668  13.708   4.456   2.782
36244W        W 8669  14.690   3.020   2.435
36245W        W 8670  23.482  14.192   0.294
36246W        W 8671  16.557  37.901  14.422
36247W        W 8672   5.822  43.087   0.898
36248W        W 8673  43.395  26.650   0.222
36249W        W 8674  39.483  34.047   3.351
36250W        W 8675   6.994   5.701   0.435
36251W        W 8676  13.378   1.789  13.415
36252W        W 8677  27.622  24.617  11.140
36253W        W 8678  13.401   6.681  11.155
36254W        W 8679   8.365  11.369  14.299
36255W        W 8680   1.467  21.232  10.848
36256W        W 8681  12.884  29.367   3.789
36257W        W 8682  13.244  11.166   0.974
36258W        W 8683  12.438  44.438   3.647
36259W        W 8684  22.282  26.132   1.309
36260W        W 8685   1.396  40.798  12.396
36261W        W 8686  22.242  11.361  14.323
36262W        W 8687  19.930   1.201  11.485
36263W        W 8688  22.264  18.570   2.387
36264W        W 8689  20.772   3.980   2.694
36265W        W 8690   2.144  27.679   2.380
36266W        W 8691  44.746  29.145   1.541
36267W        W 8692  14.329  36.327   3.831
36268W        W 8693  17.334   0.112   2.902
36269W        W 8694   9.590   1.049   4.167
36270W        W 8695  10.690  44.936  11.665
36271W        W 8696  27.942  43.367   2.885
36272W        W 8697   5.346  15.116   4.530
36273W        W 8698  35.515   9.730   4.265
36274W        W 8699  22.239   7.298  12.386
36275W        W 8700  41.003  22.027  14.863
36276W        W 8701  41.949   1.068   3.186
36277W        W 8702  15.412  31.172   4.288
36278W        W 8703  23.513  24.737  14.331
36279W        W 8704   8.207  40.555  14.053
36280W        W 8705  27.472   7.359  13.088
36281W        W 8706  36.456  27.776   2.258
36282W        W 8707  18.808  33.880  14.380
36283W        W 8708  29.558  28.278  13.485
36284W        W 8709  39.799  30.588   3.632
36285W        W 8710  43.056  20.370   3.247
36286W        W 8711  25.906   0.243   0.804
36287W        W 8712  19.566   0.200   1.122
36288W        W 8713  28.934   4.145   1.674
36289W        W 8714   5.282  28.700  14.562
36290W        W 8715  25.064  44.852   3.130
36291W        W 8716  20.847  27.145   2.332
36292W        W 8717  31.552  41.321   0.652
36293W        W 8718  30.682   5.661   1.863
36294W        W 8719  15.263  42.992  12.010
36295W        W 8720   7.282  35.613   0.968
36296W        W 8721  24.984  21.241  14.918
36297W        W 8722  19.281  29.264   1.474
36298W        W 8723  13.438  37.989  13.983
36299W        W 8724  43.986  14.812   4.598
36300W        W 8725  22.500  12.277  13.830
36301W        W 8726  25.364  31.829   5.511
36302W        W 8727  36.621  19.279  12.440
36303W        W 8728  38.468  43.046   1.660
36304W        W 8729  10.278  41.103  12.553
36305W        W 8730  44.326  20.821   2.763
36306W        W 8731  19.612   0.193  10.657
36307W        W 8732  21.741  35.591  12.767
36308W        W 8733  36.348  22.630  11.154
36309W        W 8734   6.159   3.441  12.067
36310W        W 8735  18.498  38.410  12.972
36311W        W 8736   7.167  27.439  11.645
36312W        W 8737  38.274  30.289   2.703
36313W        W 8738  29.462  39.472  12.840
36314W        W 8739  35.500  21.000  14.919
36315W        W 8740  24.695  34.827  13.013
36316W        W 8741  16.443  37.819  13.066
36317W        W 8742  15.617  17.334   0.883
36318W        W 8743  23.470  41.709   0.905
36319W        W 8744  25.274  10.243  13.989
36320W        W 8745   3.474  21.735   1.050
36321W        W 8746  10.941  27.005   1.985
36322W        W 8747  31.889  44.767  13.563
36323W        W 8748  17.061  40.835  14.433
36324W        W 8749  25.571  18.500  14.458
36325W        W 8750   1.655  20.653   4.596
36326W        W 8751   8.396  30.143   0.806
36327W        W 8752  25.752   6.158  11.197
36328W        W 8753  41.960  30.603   2.171
36329W        W 8754  36.961  12.138  10.890
36330W        W 8755  24.051  35.449  13.543
36331W        W 8756  35.357  17.133  10.857
36332W        W 8757  19.628   8.515  11.638
36333W        W 8758   2.658  21.992  14.476
36334W        W 8759  44.007  33.583   4.885
36335W        W 8760  44.377  24.149   4.215
36336W        W 8761  18.572  29.186  11.894
36337W        W 8762  43.188   3.833  13.039
36338W        W 8763   0.851  26.627   1.838
36339W        W 8764  32.668  26.492  12.451
36340W        W 8765  35.934  19.119   0.365
36341W        W 8766   4.537   4.342  11.183
36342W        W 8767  17.013  22.993  12.333
36343W        W 8768  15.121   3.197   2.244
36344W        W 8769  14.929  19.030  14.469
36345W        W 8770  24.162  41.983   4.459
36346W        W 8771  27.557   9.325  11.640
36347W        W 8772  31.715   3.765   2.798
36348W        W 8773  30.690  12.266   4.703
36349W        W 8774  28.597  44.065   1.429
36350W        W 8775  16.194   8.309  10.648
36351W        W 8776  22.699  20.166   3.220
36352W        W 8777   7.898  33.518   4.577
36353W        W 8778  42.286  14.598  12.385
36354W        W 8779  40.491   3.301   0.255
36355W        W 8780  21.973  31.008   4.391
36356W        W 8781   5.452  17.845  11.151
36357W        W 8782  27.137  15.883  12.969
36358W        W 8783  39.782  20.608   3.676
36359W        W 8784  31.492  16.655   2.834
36360W        W 8785  16.764   5.265  12.625
36361W        W 8786  23.545  36.386   1.307
36362W        W 8787  29.122   3.445   2.156
36363W        W 8788  11.815  24.035   3.787
36364W        W 8789  25.092  41.405  12.237
36365W        W 8790  15.825  24.032   0.340
36366W        W 8791  40.383  16.495   3.687
36367W        W 8792  33.335  16.052  12.471
36368W        W 8793  29.652   3.356   3.683
36369W        W 8794  40.072  32.954   1.310
36370W        W 8795  25.989  24.969  11.642
36371W        W 8796  28.362  19.573  14.499
36372W        W 8797  25.692   5.489  13.445
36373W        W 8798  34.390   8.365  14.007
36374W        W 8799  21.255  24.616  13.301
36375W        W 8800  17.498  24.284   2.763
36376W        W 8801  28.935   2.228   3.220
36377W        W 8802  31.108   9.659  11.781
36378W        W 8803  30.606  13.815   2.348
36379W        W 8804  34.606  35.899   4.999
36380W        W 8805  38.871   7.911   1.935
36381W        W 8806  10.137  20.924   4.551
36382W        W 8807  38.273  26.141   0.366
36383W        W 8808  24.103  16.142  13.791
36384W        W 8809  28.097  23.166  14.804
36385W        W 8810   4.507  10.305   2.333
36386W        W 8811  25.324  22.684   2.757
36387W        W 8812  15.070  14.271  12.568
36388W        W 8813  41.350  18.386  10.683
36389W        W 8814  25.921  44.281  11.175
36390W        W 8815  31.198  43.391   4.569
36391W        W 8816  32.506  36.955   2.017
36392W        W 8817  10.908   0.151  11.255
36393W        W 8818  39.538  44.280   0.483
36394W        W 8819  31.429  30.964  11.514
36395W        W 8820  15.097  39.023   3.799
36396W        W 8821   2.935  37.024   4.261
36397W        W 8822  25.968  28.941  13.045
36398W        W 8823  31.315   0.463   0.022
36399W        W 8824  39.102  42.091   0.319
36400W        W 8825  28.988  25.709   0.935
36401W        W 8826  28.460   2.875   1.980
36402W        W 8827   3.629  30.719  12.612
36403W        W 8828   7.138   5.270   3.862
36404W        W 8829  10.603  42.938  14.584
36405W        W 8830  23.546  16.750  14.543
36406W        W 8831  33.408  19.944  13.433
36407W        W 8832   5.762  13.702   1.369
36408W        W 8833  36.115  39.474  11.512
36409W        W 8834  16.144  18.350  12.097
36410W        W 8835  36.382  37.763  11.387
36411W        W 8836  14.387  38.991  12.647
36412W        W 8837  12.001  19.534   2.256
36413W        W 8838  39.601  15.823   4.531
36414W        W 8839  44.410  12.132   0.100
36415W        W 8840  18.046  11.601   3.859
36416W        W 8841  20.295  36.659   0.245
36417W        W 8842  10.798  18.074  10.706
36418W        W 8843  31.147  24.207   4.092
36419W        W 8844  43.979  37.493  11.453
36420W        W 8845  23.709  12.727   2.740
36421W        W 8846  42.456  38.639  10.625
36422W        W 8847  38.811   8.921   2.739
36423W        W 8848   4.146  28.618  14.273
36424W        W 8849  11.836  30.025   4.363
36425W        W 8850  12.403  36.680   2.729
36426W        W 8851   4.842   9.232  13.413
36427W        W 8852  38.794   9.669   4.914
36428W        W 8853  21.731   3.919  12.972
36429W        W 8854   4.337  35.444   3.334
36430W        W 8855  11.554  44.800  13.800
36431W        W 8856   2.745  12.494   3.702
36432W        W 8857  16.027   4.784  14.444
36433W        W 8858  29.484   7.655   2.980
36434W        W 8859  30.031  36.283   3.766
36435W        W 8860   4.471  20.333  12.480
36436W        W 8861  17.541  30.477  10.617
36437W        W 8862  41.835   2.770   2.286
36438W        W 8863   0.811   4.475   5.096
36439W        W 8864  26.608   6.577   3.992
36440W        W 8865  23.277   3.795   3.178
36441W        W 8866  22.641   8.945  11.825
36442W        W 8867  14.297  25.324   1.394
36443W        W 8868  44.420  28.361   4.844
36444W        W 8869  29.194  32.631   4.394
36445W        W 8870  40.022  41.391   4.169
36446W        W 8871  15.666  40.315   3.129
36447W        W 8872  11.665   4.763   0.425
36448W        W 8873  40.924  16.390   2.840
36449W        W 8874  17.175  10.458  14.557
36450W        W 8875  38.386   5.412  11.657
36451W        W 8876   4.366   2.721   4.117
36452W        W 8877   7.129   0.016   3.401
36453W        W 8878  26.892   8.902   4.123
36454W        W 8879  17.770  22.153  12.314
36455W        W 8880  43.903  31.180   1.624
36456W        W 8881   0.830  22.129  13.929
36457W        W 8882  33.700  37.970  13.855
36458W        W 8883   2.793   7.923  14.416
36459W        W 8884  33.631  26.216  14.510
36460W        W 8885  44.869   9.232  14.043
36461W        W 8886  32.439  18.866   4.971
36462W        W 8887  30.494  21.026  13.451
36463W        W 8888  39.776  42.379   4.553
36464W        W 8889   8.302  44.978  12.580
36465W        W 8890  11.206  23.181   3.271
36466W        W 8891  32.623  21.195   4.350
36467W        W 8892  38.449   3.267   3.055
36468W        W 8893  44.319  31.140   2.266
36469W        W 8894  12.190  27.174   4.689
36470W        W 8895  37.256  26.139   4.842
36471W        W 8896  13.451  43.737   1.737
36472W        W 8897  27.028  27.656   4.578
36473W        W 8898  15.552  42.145  12.042
36474W        W 8899  26.048  31.998  12.107
36475W        W 8900  16.170   5.711  12.867
36476W        W 8901   7.971  40.499  11.079
36477W        W 8902  33.931   3.518   3.675
36478W        W 8903  36.870  16.322  11.681
36479W        W 8904   6.990  30.902   4.509
36480W        W 8905  30.874   7.254  11.246
36481W        W 8906  44.439  41.581  13.089
36482W        W 8907  40.921  33.623  11.459
36483W        W 8908  11.653   3.341   1.438
36484W        W 8909  20.924  20.213   2.829
36485W        W 8910  24.157  23.688  13.890
36486W        W 8911  11.805  12.125   0.348
36487W        W 8912  27.066  42.377   4.330
36488W        W 8913   9.215  41.843  14.792
36489W        W 8914  16.029  27.091   2.432
36490W        W 8915  21.098  37.891  11.434
36491W        W 8916   8.710  40.348   4.514
36492W        W 8917   8.370  21.363  12.973
36493W        W 8918   3.007  27.643  11.597
36494W        W 8919  22.604   7.167   4.774
36495W        W 8920  27.518  16.722  11.041
36496W        W 8921  17.511  23.379   3.201
36497W        W 8922  31.527  27.005  11.928
36498W        W 8923  10.659  13.927  12.059
36499W        W 8924  15.284  43.000   5.002
36500W        W 8925  41.006  26.581   1.705
36501W        W 8926  40.021  27.367   0.802
36502W        W 8927  17.777  19.313   1.700
36503W        W 8928  22.096  22.585   0.957
36504W        W 8929  25.603  40.046   2.827
36505W        W 8930   8.681  33.050   3.729
36506W        W 8931  16.835  17.687   4.584
36507W        W 8932   6.132  23.386  14.929
36508W        W 8933   7.669   9.000  10.614
36509W        W 8934   7.767  18.468   1.864
36510W        W 8935  38.985  37.973   2.815
36511W        W 8936   3.728  13.285  13.023
36512W        W 8937   7.859  18.832   4.428
36513W        W 8938  17.026  38.868   1.414
36514W        W 8939  38.046  40.302   3.123
36515W        W 8940   8.319  16.872   4.771
36516W        W 8941  42.371  22.578   9.650
36517W        W 8942   5.073  44.555  10.626
36518W        W 8943  17.116  31.578   0.278
36519W        W 8944  33.570  31.811   1.643
36520W        W 8945  11.011  15.165  11.622
36521W        W 8946   9.852  27.444  13.585
36522W        W 8947  38.069  31.532  13.871
36523W        W 8948  25.901   1.320   2.101
36524W        W 8949   8.899  21.242   3.318
36525W        W 8950  21.593  36.399  14.764
36526W        W 8951   1.835  10.174  11.524
36527W        W 8952  29.380  29.582  12.517
36528W        W 8953  32.934  12.345  10.703
36529W        W 8954  17.190  11.784  10.072
36530W        W 8955   5.883  44.338   0.391
36531W        W 8956   0.652  34.530  13.779
36532W        W 8957   4.318  23.968  14.426
36533W        W 8958  16.491   8.711  14.883
36534W        W 8959  20.433   7.812  11.654
36535W        W 8960  28.972  20.637   1.885
36536W        W 8961  27.405  24.944   3.400
36537W        W 8962  41.568  12.103   2.164
36538W        W 8963  21.991  34.502  10.702
36539W        W 8964  14.091  37.088   0.162
36540W        W 8965  21.229  38.483   2.136
36541W        W 8966  26.109  35.614  14.896
36542W        W 8967  36.986   6.673   1.649
36543W        W 8968  44.541  24.221   4.705
36544W        W 8969  36.640  27.117  14.801
36545W        W 8970   9.936   4.499   4.183
36546W        W 8971   7.341  26.476   0.443
36547W        W 8972   6.460  25.913  10.634
36548W        W 8973  41.772  11.182   2.792
36549W        W 8974  27.708  21.539  14.763
36550W        W 8975  41.607  27.081   4.117
36551W        W 8976  22.733  43.335   4.349
36552W        W 8977  22.684  33.139   4.308
36553W        W 8978  10.631  16.764  10.592
36554W        W 8979  10.837  39.868  12.429
36555W        W 8980   4.815  44.423   1.921
36556W        W 8981  26.594  10.834  10.878
36557W        W 8982  15.102  13.439  11.093
36558W        W 8983  44.545  22.191  13.423
36559W        W 8984  28.922   4.318  14.415
36560W        W 8985  18.773  17.341   1.658
36561W        W 8986  30.515  38.027   3.730
36562W        W 8987  25.613  10.801   4.949
36563W        W 8988  21.709  10.735   0.655
36564W        W 8989  19.781  43.732   3.627
36565W        W 8990   4.440  37.464  13.778
36566W        W 8991  34.639  41.819  13.943
36567W        W 8992   2.763  27.513   1.248
36568W        W 8993  12.757   4.246  10.408
36569W        W 8994  36.442   0.745  14.366
36570W        W 8995  42.803  29.611   2.645
36571W        W 8996  10.315  14.732  14.031
36572W        W 8997  44.446   4.788  13.056
36573W        W 8998  26.507   4.431  13.447
36574W        W 8999   8.447  18.596   1.017
36575W        W 9000  23.797  33.136  14.788
36576W        W 9001  35.351  10.222  12.927
36577W        W 9002  18.254  21.873  14.355
36578W        W 9003  29.595  32.632   4.064
36579W        W 9004  11.143  20.018   2.425
36580W        W 9005   6.777  43.932   2.109
36581W        W 9006  31.862  34.504   4.212
36582W        W 9007  20.717  27.440   3.657
36583W        W 9008   9.271  20.716  11.904
36584W        W 9009  36.497  37.042   1.674
36585W        W 9010  28.934  40.709   2.590
36586W        W 9011  35.851   6.632   4.554
36587W        W 9012  12.448   9.419   1.847
36588W        W 9013  20.359  40.453  10.490
36589W        W 9014   0.754  30.596   2.360
36590W        W 9015  34.046  19.292  11.364
36591W        W 9016  33.537  35.904   4.690
36592W        W 9017   8.666  11.605  12.839
36593W        W 9018  21.717  44.134   3.577
36594W        W 9019  25.345  15.633   1.727
36595W        W 9020   1.468   0.644   3.350
36596W        W 9021  29.923  33.659  13.480
36597W        W 9022  36.040  13.611  13.016
36598W        W 9023   4.991   0.330  10.915
36599W        W 9024  24.768  42.851   3.616
36600W        W 9025  26.603  44.499  11.497
36601W        W 9026  17.623   6.992   3.556
36602W        W 9027  34.097  16.383  11.614
36603W        W 9028  40.619  15.598  11.144
36604W        W 9029   4.874  29.878  12.061
36605W        W 9030  38.283  43.353   4.394
36606W        W 9031  26.991  22.711   3.727
36607W        W 9032  32.399  32.008   1.526
36608W        W 9033  37.974  38.503  14.511
36609W        W 9034  41.853  43.348  12.539
36610W        W 9035  31.816  28.910   4.719
36611W        W 9036  31.140  41.566   0.873
36612W        W 9037  40.631  27.971  11.977
36613W        W 9038   6.735  35.922  14.865
36614W        W 9039  39.423  38.176   2.611
36615W        W 9040  31.448   5.714  14.890
36616W        W 9041   8.980   2.386   4.588
36617W        W 9042   5.580   9.544  13.481
36618W        W 9043  23.231  23.576   3.168
36619W        W 9044  36.439   7.853   0.765
36620W        W 9045  21.649  33.404  10.545
36621W        W 9046  17.012  43.041   4.236
36622W        W 9047  37.090  44.888  13.288
36623W        W 9048  17.318  36.753  13.571
36624W        W 9049  11.095  41.878   3.225
36625W        W 9050  24.384  18.217   1.752
36626W        W 9051   9.425  25.554  11.884
36627W        W 9052  10.745  20.045  14.840
36628W        W 9053  40.426   3.386  10.760
36629W        W 9054   9.261   3.843  12.689
36630W        W 9055  36.031   1.893   3.380
36631W        W 9056  40.601  13.960  10.267
36632W        W 9057  44.789  29.234   2.838
36633W        W 9058  14.219  10.351  13.830
36634W        W 9059  35.889  13.699  14.900
36635W        W 9060   8.468  42.781   2.731
36636W        W 9061   2.597  25.135   9.828
36637W        W 9062  26.962   7.817  11.685
36638W        W 9063  12.884   4.899  14.852
36639W        W 9064  12.571  42.567  10.823
36640W        W 9065  33.015  12.520   2.853
36641W        W 9066  16.515  15.691  12.378
36642W        W 9067  15.712  28.618  11.216
36643W        W 9068  28.688  19.999  14.570
36644W        W 9069  18.011  21.679   4.449
36645W        W 9070  41.936   4.947  13.372
36646W        W 9071  21.313  30.443  13.019
36647W        W 9072  17.107   1.040   2.756
36648W        W 9073   8.873   5.684  14.952
36649W        W 9074  33.918  11.136  11.761
36650W        W 9075  31.349  39.094   3.673
36651W        W 9076  12.853  21.217   4.751
36652W        W 9077  39.116  13.672  11.903
36653W        W 9078  34.811  41.071  13.494
36654W        W 9079   6.187  22.027   4.650
36655W        W 9080   7.239  31.886  13.382
36656W        W 9081  36.972  32.993  14.020
36657W        W 9082  13.279  13.121  11.859
36658W        W 9083  38.949  43.275   4.331
36659W        W 9084  41.839   3.716   0.697
36660W        W 9085   4.884   2.417   2.246
36661W        W 9086  23.580  33.793  12.920
36662W        W 9087  43.188  41.160  12.028
36663W        W 9088   2.540   8.948  10.456
36664W        W 9089  10.699  29.447   3.876
36665W        W 9090   0.955   1.650   0.044
36666W        W 9091   7.672  18.331  12.985
36667W        W 9092  42.517  13.687  10.499
36668W        W 9093  38.652  16.650   1.900
36669W        W 9094  39.833   8.901  12.224
36670W        W 9095   5.782  23.158   3.858
36671W        W 9096   9.293  33.572  11.533
36672W        W 9097  21.688  31.187  14.937
36673W        W 9098   8.153  13.496   1.728
36674W        W 9099  15.186  38.389  11.830
36675W        W 9100  18.769   2.376   2.245
36676W        W 9101  42.454  37.387  12.354
36677W        W 9102  22.133  11.995   3.151
36678W        W 9103  11.066   5.968  12.158
36679W        W 9104  22.249  36.488   1.668
36680W        W 9105  33.633  24.413  11.264
36681W        W 9106   4.318   0.774   1.827
36682W        W 9107  37.341  35.568   2.292
36683W        W 9108   9.258  22.996   3.598
36684W        W 9109  30.508  34.256  14.035
36685W        W 9110   8.854   6.342   2.162
36686W        W 9111   0.860  20.115   2.163
36687W        W 9112   0.566  19.563  14.885
36688W        W 9113   2.724  13.147   0.021
36689W        W 9114  17.105  41.977  13.890
36690W        W 9115   8.190  44.442   2.346
36691W        W 9116  20.562  11.330   3.705
36692W        W 9117  37.286  26.077  12.575
36693W        W 9118  16.059  34.046  11.627
36694W        W 9119  28.040  44.067  10.971
36695W        W 9120   5.368  17.181  13.016
36696W        W 9121  10.345   7.179   1.250
36697W        W 9122  29.678  31.877   2.884
36698W        W 9123  22.579   2.857  13.974
36699W        W 9124  31.990   5.562   4.465
36700W        W 9125   2.240  44.937  11.198
36701W        W 9126  38.470  13.699  14.373
36702W        W 9127  24.678  32.391  11.087
36703W        W 9128  30.908  43.795   0.449
36704W        W 9129  25.718  21.279   4.951
36705W        W 9130  28.797  24.043   4.118
36706W        W 9131  24.092  35.090   3.544
36707W        W 9132  25.736   3.836  13.888
36708W        W 9133  27.307  19.237  13.517
36709W        W 9134  30.079  29.718  14.773
36710W        W 9135   5.802  40.489   3.474
36711W        W 9136  42.943   4.933  11.052
36712W        W 9137  44.060  40.604  11.001
36713W        W 9138  21.822  26.487  11.165
36714W        W 9139  14.742  31.539   3.671
36715W        W 9140   3.453  28.087   2.168
36716W        W 9141  36.493  42.372  11.490
36717W        W 9142  12.242  22.680  13.350
36718W        W 9143  22.282  37.373  12.329
36719W        W 9144  31.921  17.106   0.305
36720W        W 9145  33.886   9.145   0.746
36721W        W 9146   2.329  16.539  11.010
36722W        W 9147  14.052  43.223  13.341
36723W        W 9148  16.604   7.982   2.749
36724W        W 9149  26.148  39.214   1.349
36725W        W 9150  35.411  31.572  10.981
36726W        W 9151  15.760  42.416   0.444
36727W        W 9152   2.006   8.528   3.710
36728W        W 9153  16.314   6.211  12.096
36729W        W 9154   7.489   1.095  10.777
36730W        W 9155   2.212  44.349   0.319
36731W        W 9156  32.622  35.097  12.152
36732W        W 9157  15.203  43.898   4.927
36733W        W 9158  25.728   8.430  12.541
36734W        W 9159  30.901   6.727  14.427
36735W        W 9160  36.666  37.443   0.853
36736W        W 9161  23.629  41.209   2.922
36737W        W 9162  24.042  32.933  11.765
36738W        W 9163   2.376  12.411   1.316
36739W        W 9164  31.458   7.869   0.765
36740W        W 9165  14.924  22.430  13.673
36741W        W 9166  40.093  42.071   3.517
36742W        W 9167  29.271  17.310  12.875
36743W        W 9168  28.472  10.801  12.786
36744W        W 9169  13.871  13.693   2.994
36745W        W 9170  31.622  43.503   2.171
36746W        W 9171  26.977  10.537  10.485
36747W        W 9172   5.584  28.051  12.565
36748W        W 9173  10.278   8.915   0.476
36749W        W 9174  17.602  34.321   1.367
36750W        W 9175  42.054  41.949  12.064
36751W        W 9176   1.279  21.311  11.712
36752W        W 9177   6.811  14.073  10.805
36753W        W 9178  28.891  17.618  10.923
36754W        W 9179  28.199  20.666   0.008
36755W        W 9180  11.319  11.431   4.703
36756W        W 9181  22.528  33.861  13.502
36757W        W 9182   1.761   4.806  14.721
36758W        W 9183  44.867   9.190  10.654
36759W        W 9184  24.872   7.997   1.916
36760W        W 9185  37.588  37.093  14.876
36761W        W 9186  29.807  14.190   2.052
36762W        W 9187  38.554  35.450   1.644
36763W        W 9188  43.374  31.493  14.055
36764W        W 9189  28.494  24.824  10.688
36765W        W 9190   9.412  22.820  11.339
36766W        W 9191   1.148  16.286  11.414
36767W        W 9192   3.281  27.398   4.665
36768W        W 9193   1.513  38.251   2.532
36769W        W 9194  33.116  26.624  12.764
36770W        W 9195  34.853   2.990  11.622
36771W        W 9196  30.105  40.851  14.024
36772W        W 9197  33.518   1.276   0.372
36773W        W 9198  17.591  24.569   1.302
36774W        W 9199  23.198  44.802  11.997
36775W        W 9200  12.489  22.715  11.319
36776W        W 9201  15.669  15.456  14.207
36777W        W 9202   8.817  33.497   1.790
36778W        W 9203  20.715   5.729  10.591
36779W        W 9204  20.853   5.972   3.753
36780W        W 9205  40.859  33.388  13.403
36781W        W 9206   1.310  11.117   2.262
36782W        W 9207  39.363  40.099  11.069
36783W        W 9208  32.370  10.759   4.197
36784W        W 9209  23.619  33.018  11.482
36785W        W 9210  22.801   4.920   1.813
36786W        W 9211   8.800   5.819   2.365
36787W        W 9212  44.324   0.436   4.977
36788W        W 9213  33.014  24.653  12.507
36789W        W 9214  42.401   4.405   1.850
36790W        W 9215  15.843  30.499  10.040
36791W        W 9216   9.458   9.759   0.475
36792W        W 9217  16.811  36.889  14.861
36793W        W 9218  14.134   1.196  10.088
36794W        W 9219  28.613  11.493   4.447
36795W        W 9220  13.831  31.946   3.714
36796W        W 9221  18.577  12.124  10.768
36797W        W 9222  33.769  17.925  12.094
36798W        W 9223  39.911  38.084   1.732
36799W        W 9224  41.552  19.196  11.543
36800W        W 9225   3.731  27.294  12.158
36801W        W 9226  25.642  27.296  13.430
36802W        W 9227  36.018  30.921   3.794
36803W        W 9228  32.233  27.359  12.044
36804W        W 9229   3.737  13.556   1.424
36805W        W 9230   9.243  27.906   2.160
36806W        W 9231  35.643  33.032   2.460
36807W        W 9232  35.433   8.991  10.217
36808W        W 9233  30.934  18.525   3.206
36809W        W 9234   2.872  17.090  12.428
36810W        W 9235  41.534   6.154   2.119
36811W        W 9236  27.442   1.504  13.920
36812W        W 9237  21.015  27.404  11.059
36813W        W 9238  36.538   0.697  10.598
36814W        W 9239  31.892  15.015   1.331
36815W        W 9240  15.693  32.353  11.606
36816W        W 9241   4.431  40.395  13.367
36817W        W 9242  39.097  17.807   4.110
36818W        W 9243  18.731  41.052   0.857
36819W        W 9244  23.839  12.272   0.045
36820W        W 9245   4.808  36.068   1.547
36821W        W 9246  24.612  36.361   3.039
36822W        W 9247   7.692  18.617  11.060
36823W        W 9248   6.677  26.805  13.400
36824W        W 9249  33.959  38.588  14.362
36825W        W 9250   7.336   4.709  10.794
36826W        W 9251  18.738  17.587  11.553
36827W        W 9252   0.058   2.337  13.758
36828W        W 9253  31.498   5.590   3.541
36829W        W 9254  39.948  20.089  14.113
36830W        W 9255  10.108  39.749  14.426
36831W        W 9256  33.471  36.145  13.276
36832W        W 9257  28.924  20.214   1.253
36833W        W 9258  33.440  15.534   3.607
36834W        W 9259  20.064  32.482   4.582
36835W        W 9260  15.776  29.666   4.484
36836W        W 9261   6.800  25.695  14.991
36837W        W 9262  18.108  28.096   2.454
36838W        W 9263  16.995   9.763   1.490
36839W        W 9264  17.150  23.074   2.640
36840W        W 9265  44.063  33.868  14.897
36841W        W 9266  12.224  32.160   0.788
36842W        W 9267  22.072  27.228   4.583
36843W        W 9268  31.478  19.273   0.576
36844W        W 9269  28.067  44.267  11.476
36845W        W 9270  24.567   4.019  11.487
36846W        W 9271  24.133   0.529  11.163
36847W        W 9272  25.290   4.717   1.393
36848W        W 9273  32.163  35.516   3.640
36849W        W 9274  25.287  39.871  10.687
36850W        W 9275  33.353  10.660  14.466
36851W        W 9276  44.889  32.952  14.268
36852W        W 9277  18.492   7.605  11.751
36853W        W 9278  12.901  36.287   2.743
36854W        W 9279  37.770   5.204  13.003
36855W        W 9280  28.817  30.673  11.936
36856W        W 9281  12.642  10.934  13.087
36857W        W 9282  38.893   9.636   0.764
36858W        W 9283  10.494  32.926   0.065
36859W        W 9284   1.749  27.040  14.416
36860W        W 9285  36.893  23.140   2.309
36861W        W 9286  29.605  32.955   1.062
36862W        W 9287   7.882  22.689   3.129
36863W        W 9288  15.982  10.087   4.721
36864W        W 9289  10.766   1.031   2.685
36865W        W 9290  22.321   1.948   2.835
36866W        W 9291  18.642  21.073   1.348
36867W        W 9292  43.614  30.537   3.360
36868W        W 9293  15.765  32.826  13.789
36869W        W 9294  28.701  10.812   4.217
36870W        W 9295   9.031  28.963  12.883
36871W        W 9296  25.227   5.423  14.568
36872W        W 9297  25.528  35.621   3.838
36873W        W 9298  14.251  44.768   1.634
36874W        W 9299  31.526  14.301  14.920
36875W        W 9300   5.667  11.239   0.392
36876W        W 9301  37.882  16.167   4.126
36877W        W 9302  15.240   3.900   4.642
36878W        W 9303  20.631  16.148   0.909
36879W        W 9304  41.773  32.009  14.550
36880W        W 9305  38.083   8.425  10.368
36881W        W 9306  16.324  35.437  13.485
36882W        W 9307  15.699  10.361  14.008
36883W        W 9308   8.723  27.228  12.179
36884W        W 9309   2.603  35.087  13.046
36885W        W 9310  41.362   2.356   3.498
36886W        W 9311   5.475  23.758   2.426
36887W        W 9312  38.043  15.132   1.241
36888W        W 9313  35.812  42.994   3.120
36889W        W 9314  34.860  15.093  11.925
36890W        W 9315  16.390  29.420  12.172
36891W        W 9316  23.175  27.724  14.332
36892W        W 9317  44.200  22.168   1.189
36893W        W 9318  18.014  21.995  11.517
36894W        W 9319  37.475  20.473  14.024
36895W        W 9320  42.945  25.300   1.797
36896W        W 9321  25.722  18.807  14.073
36897W        W 9322   9.713  22.754   3.608
36898W        W 9323  12.645  18.601  10.617
36899W        W 9324   3.862  28.244  14.041
36900W        W 9325   2.520  16.626  14.136
36901W        W 9326   3.395   6.146   0.245
36902W        W 9327  36.360  14.071   3.408
36903W        W 9328   3.264  21.636  10.478
36904W        W 9329  30.989   3.496  11.818
36905W        W 9330  31.118  26.263  13.914
36906W        W 9331  30.478  41.379  11.439
36907W        W 9332   3.331  39.375   1.487
36908W        W 9333   4.666  36.312   2.160
36909W        W 9334  37.524  26.423   0.169
36910W        W 9335  26.863  10.789   0.371
36911W        W 9336   1.999  10.284   0.447
36912W        W 9337  10.075   4.123  14.227
36913W        W 9338  43.161  27.246  11.661
36914W        W 9339  21.880   4.820   2.692
36915W        W 9340  35.395  25.492  14.848
36916W        W 9341  41.244  14.574   3.643
36917W        W 9342  13.129  19.385  13.967
36918W        W 9343  33.648  37.757   0.285
36919W        W 9344  25.973   6.279  14.041
36920W        W 9345  19.175  42.956   4.733
36921W        W 9346  14.021  16.023   4.307
36922W        W 9347  36.292   2.888  13.720
36923W        W 9348  22.484  14.925  11.426
36924W        W 9349  42.076  16.893  12.568
36925W        W 9350  32.189  24.503   0.376
36926W        W 9351  29.436   9.268  14.681
36927W        W 9352  35.871  34.374   1.783
36928W        W 9353  23.017  37.294  14.140
36929W        W 9354   0.528  28.957   4.010
36930W        W 9355  19.662  24.466   0.365
36931W        W 9356  15.229  21.142   2.750
36932W        W 9357  31.915  13.787   3.740
36933W        W 9358  16.179  10.546  11.440
36934W        W 9359  25.930  39.435   4.924
36935W        W 9360   7.103  12.127   0.719
36936W        W 9361  16.475  10.721  13.073
36937W        W 9362  24.270  21.156  12.857
36938W        W 9363  43.518  29.218  12.957
36939W        W 9364  31.902  30.925   3.385
36940W        W 9365   8.139   3.442  10.937
36941W        W 9366  36.409  21.257   0.773
36942W        W 9367  10.942   4.234  11.489
36943W        W 9368  28.132   2.764   0.634
36944W        W 9369  43.039  24.679  12.591
36945W        W 9370  24.724  26.971   0.792
36946W        W 9371  29.440   5.186  14.257
36947W        W 9372   7.864  34.370   0.218
36948W        W 9373  22.292  35.454  10.954
36949W        W 9374  20.210  10.223  11.653
36950W        W 9375  35.150  19.296   2.950
36951W        W 9376  28.999  17.664  14.542
36952W        W 9377  29.384  28.815  10.603
36953W        W 9378  38.144  37.395  11.544
36954W        W 9379  14.340   6.459  13.398
36955W        W 9380  40.077  26.620  13.574
36956W        W 9381  35.463  41.547  13.055
36957W        W 9382   9.034  18.208   0.525
36958W        W 9383  29.594  27.918   1.707
36959W        W 9384  18.598  28.929  12.414
36960W        W 9385  11.813  23.997   2.042
36961W        W 9386  34.826   4.851  12.946
36962W        W 9387  23.001  10.535   2.223
36963W        W 9388   8.338  10.870  14.547
36964W        W 9389   8.525  43.332   0.644
36965W        W 9390  28.506   7.185   3.694
36966W        W 9391  27.051  13.748   1.263
36967W        W 9392  23.121  12.145   3.223
36968W        W 9393  22.985   3.538   5.061
36969W        W 9394  36.115  12.819  14.551
36970W        W 9395   2.060   2.668  12.660
36971W        W 9396  29.135  39.557   0.687
36972W        W 9397  37.333  42.735  11.982
36973W        W 9398  41.449  10.962   3.213
36974W        W 9399  23.532  22.717  13.901
36975W        W 9400  33.713  18.074   3.670
36976W        W 9401  43.462  27.472  12.080
36977W        W 9402  42.418   8.897   4.733
36978W        W 9403   7.378  22.145   1.798
36979W        W 9404  35.338   0.005  12.110
36980W        W 9405  38.433  20.495   3.535
36981W        W 9406  21.590  33.904   1.901
36982W        W 9407  14.365  35.479   3.798
36983W        W 9408   5.761  15.584  13.725
36984W        W 9409  43.495  16.098  14.907
36985W        W 9410  43.003  15.245   2.215
36986W        W 9411  24.929  32.442   3.752
36987W        W 9412  30.630  41.086  14.588
36988W        W 9413  20.652  35.421   0.253
36989W        W 9414  44.777   6.662   2.038
36990W        W 9415  21.653  27.691  14.334
36991W        W 9416   5.596   7.861   0.724
36992W        W 9417  43.772   9.111  13.428
36993W        W 9418  16.683  42.380   0.507
36994W        W 9419  37.216  16.598  11.093
36995W        W 9420  10.112  17.867   2.069
36996W        W 9421  38.069   8.691  12.412
36997W        W 9422  43.113  41.426  10.137
36998W        W 9423  40.507  41.466   1.796
36999W        W 9424  11.682  23.003   1.667
37000W        W 9425  38.538  16.184   1.726
37001W        W 9426  31.490  42.921  13.895
37002W        W 9427  33.262  26.520  11.736
37003W        W 9428  29.979   3.297   1.896
37004W        W 9429  25.762  40.917  13.465
37005W        W 9430   5.767   3.329  14.019
37006W        W 9431   2.768  34.439   4.628
37007W        W 9432   9.155  37.083  14.868
37008W        W 9433   1.763  44.483  14.030
37009W        W 9434  37.547   3.936   1.586
37010W        W 9435  25.521   4.358   1.819
37011W        W 9436   2.422  41.050  14.496
37012W        W 9437  43.164  10.797   4.484
37013W        W 9438   8.828  37.121   3.564
37014W        W 9439  13.891  26.070   1.460
37015W        W 9440  33.662  30.692  14.868
37016W        W 9441  18.526  29.393   2.360
37017W        W 9442  36.930  10.800   0.975
37018W        W 9443   8.138  41.937  14.939
37019W        W 9444  11.902  31.378   0.333
37020W        W 9445  38.273  39.300  10.989
37021W        W 9446   1.210  17.818  14.741
37022W        W 9447  22.620  13.211  13.987
37023W        W 9448  16.311  28.143   1.705
37024W        W 9449  21.000  21.550  10.943
37025W        W 9450  26.621  43.304  12.477
37026W        W 9451  37.418  10.275  12.471
37027W        W 9452  34.987   3.017  10.016
37028W        W 9453  38.810   8.579  13.883
37029W        W 9454  25.045  13.443   1.818
37030W        W 9455   5.901   6.373  14.302
37031W        W 9456  25.092  24.938   0.793
37032W        W 9457  32.911  37.575  13.933
37033W        W 9458  29.622  21.855  14.304
37034W        W 9459  11.617   7.814  14.845
37035W        W 9460  26.178  16.346  14.313
37036W        W 9461   8.851  42.306  10.337
37037W        W 9462  43.761  23.203  14.614
37038W        W 9463   7.328  13.900  14.446
37039W        W 9464  16.362  11.778   1.239
37040W        W 9465  30.845  26.770   3.214
37041W        W 9466   1.036  25.956   3.210
37042W        W 9467  21.916  22.706  13.619
37043W        W 9468  35.030  38.095   1.899
37044W        W 9469  44.952  17.110   2.922
37045W        W 9470  36.492   4.553  11.605
37046W        W 9471  42.109  24.648  13.316
37047W        W 9472  22.536  17.631  12.481
37048W        W 9473  23.213  36.818   1.971
37049W        W 9474  25.710   3.392   2.797
37050W        W 9475  36.698   5.310   3.072
37051W        W 9476  24.522  13.370  11.069
37052W        W 9477  37.956  11.520  10.717
37053W        W 9478  39.434  33.741  13.898
37054W        W 9479  25.707  25.663  14.457
37055W        W 9480   9.087  44.178   0.313
37056W        W 9481  10.678   8.939  10.730
37057W        W 9482  20.608  44.269   0.013
37058W        W 9483   0.911  24.535  11.156
37059W        W 9484   6.846  26.464  14.367
37060W        W 9485   9.426  31.344   2.135
37061W        W 9486  36.656  39.090   1.747
37062W        W 9487  40.550  28.006   0.464
37063W        W 9488  18.648  12.185   2.587
37064W        W 9489   7.739  17.090  14.440
37065W        W 9490   6.995   0.925  10.722
37066W        W 9491  14.149   5.555   1.920
37067W        W 9492   9.128  33.988  13.181
37068W        W 9493  28.625  37.323   2.879
37069W        W 9494  36.967  19.515  14.798
37070W        W 9495  31.204  33.283   0.883
37071W        W 9496   6.702  19.270   0.639
37072W        W 9497   5.758   4.495   1.254
37073W        W 9498   6.350  42.275  11.222
37074W        W 9499  19.037  23.216  10.623
37075W        W 9500  43.263  36.297   3.679
37076W        W 9501   9.608  33.421  14.796
37077W        W 9502  44.520  13.807  13.494
37078W        W 9503  22.788   8.290   0.425
37079W        W 9504  11.072  17.346   3.727
37080W        W 9505  20.122  22.659   2.727
37081W        W 9506  29.927  10.490   4.275
37082W        W 9507  26.414  38.912   3.237
37083W        W 9508  28.032  34.646   0.701
37084W        W 9509  23.996  28.442  14.744
37085W        W 9510  20.806  40.871   0.764
37086W        W 9511  30.669  30.450  11.616
37087W        W 9512   7.370  18.370   1.237
37088W        W 9513   8.206  20.277  14.357
37089W        W 9514  15.620  40.770  14.789
37090W        W 9515  12.090  41.221   4.602
37091W        W 9516  32.158  41.744   4.612
37092W        W 9517  20.547   9.882  10.442
37093W        W 9518  42.260  21.480  11.448
37094W        W 9519  28.033  21.449  10.250
37095W        W 9520  24.050  25.428   2.330
37096W        W 9521  30.849   4.888   4.833
37097W        W 9522  22.767  24.030  11.545
37098W        W 9523  26.440   0.409   4.351
37099W        W 9524  27.030  38.839  13.152
37100W        W 9525  19.748  37.949  14.258
37101W        W 9526  27.393  11.787   4.139
37102W        W 9527  13.108  40.882  12.490
37103W        W 9528  25.133  33.493  13.662
37104W        W 9529  27.071  32.674  10.216
37105W        W 9530  36.423  14.370  12.111
37106W        W 9531  31.049  40.581  11.862
37107W        W 9532   3.390  25.174   4.138
37108W        W 9533  18.043  22.845  11.663
37109W        W 9534  29.093  24.942  13.775
37110W        W 9535   7.717  44.993  13.497
37111W        W 9536  16.867  23.153   3.885
37112W        W 9537  35.793   9.172   2.845
37113W        W 9538   7.853  44.223   3.621
37114W        W 9539  25.110  30.740   0.042
37115W        W 9540  41.475  24.971   1.749
37116W        W 9541  31.830  12.889  10.710
37117W        W 9542  36.444  18.670   4.596
37118W        W 9543  44.676  36.605  13.892
37119W        W 9544   0.200  15.846  14.007
37120W        W 9545  38.925  16.223  11.838
37121W        W 9546  33.038  31.334   0.071
37122W        W 9547  40.598  43.915  12.640
37123W        W 9548   5.701  27.136   0.402
37124W        W 9549   9.757  29.513   4.531
37125W        W 9550   8.885   6.107  11.247
37126W        W 9551  22.959  35.546  11.989
37127W        W 9552  43.975   0.950  13.360
37128W        W 9553   5.647   3.886  14.514
37129W        W 9554   2.608  13.789   0.235
37130W        W 9555   3.794   6.921  11.990
37131W        W 9556   8.083  12.867  12.079
37132W        W 9557   1.430  34.384   2.799
37133W        W 9558  23.100   7.415   0.842
37134W        W 9559   6.174  17.380   4.588
37135W        W 9560   9.920  14.091   0.780
37136W        W 9561  11.410  17.582  13.016
37137W        W 9562  13.595  33.379   1.866
37138W        W 9563   3.630   8.070   1.271
37139W        W 9564  36.443  10.129   3.883
37140W        W 9565  28.051  17.777   1.246
37141W        W 9566  24.864  28.481  13.654
37142W        W 9567  25.721  26.245   2.810
37143W        W 9568  20.266  31.344   0.738
37144W        W 9569  10.633  33.173   3.781
37145W        W 9570  17.186  17.723  11.487
37146W        W 9571  23.529  29.833  12.554
37147W        W 9572  17.645  16.718  14.340
37148W        W 9573  14.881   3.223   9.693
37149W        W 9574   3.935  33.862   3.610
37150W        W 9575  10.434   6.597  12.502
37151W        W 9576  37.108   9.090   3.258
37152W        W 9577  13.704  31.595  11.594
37153W        W 9578  18.815  13.265  14.683
37154W        W 9579  38.323  18.596  14.418
37155W        W 9580  44.856  41.269   4.399
37156W        W 9581   4.556  26.616   2.383
37157W        W 9582  30.359  41.529   0.338
37158W        W 9583  20.077  12.784  11.292
37159W        W 9584  33.195  11.871  14.508
37160W        W 9585  38.862  23.090  10.926
37161W        W 9586  20.484  31.422   2.851
37162W        W 9587  38.483  18.195  12.032
37163W        W 9588  32.130  18.204   3.647
37164W        W 9589  27.216  15.389  12.942
37165W        W 9590  25.028  41.031   4.685
37166W        W 9591  29.647  39.371   3.922
37167W        W 9592  31.902  14.242   0.402
37168W        W 9593  11.446   9.199   0.913
37169W        W 9594  18.461   1.776  13.928
37170W        W 9595   4.675  37.221   4.175
37171W        W 9596  43.871  15.849   2.164
37172W        W 9597  22.538  35.067  11.175
37173W        W 9598  36.583  43.991   1.173
37174W        W 9599  23.766   4.758  13.067
37175W        W 9600  26.946   7.722   1.765
37176W        W 9601  25.295   9.248  13.338
37177W        W 9602  20.778  42.728   3.615
37178W        W 9603  12.122  14.094   0.787
37179W        W 9604   7.273  21.988  13.485
37180W        W 9605   7.522  40.411   2.405
37181W        W 9606  32.424   8.390   4.177
37182W        W 9607  23.465  31.260  12.122
37183W        W 9608  44.336  33.365   0.778
37184W        W 9609  22.670  35.109  14.445
37185W        W 9610  25.688  24.633   0.714
37186W        W 9611  12.889  31.536  12.494
37187W        W 9612  39.899  40.900  12.472
37188W        W 9613   4.391   8.689  14.368
37189W        W 9614  20.050  35.831  11.057
37190W        W 9615  21.708   6.875  11.611
37191W        W 9616  38.785   7.171  11.220
37192W        W 9617  24.478   1.760   2.879
37193W        W 9618   5.326  30.852   4.610
37194W        W 9619  33.346  26.974   1.360
37195W        W 9620  17.042  28.586   0.785
37196W        W 9621   7.758  32.260  11.510
37197W        W 9622  37.586  43.531  12.566
37198W        W 9623  35.410  30.790  12.380
37199W        W 9624  44.353  22.746   2.581
37200W        W 9625  26.634  33.513   0.825
37201W        W 9626  14.361  37.282  10.798
37202W        W 9627  24.636  29.144   3.764
37203W        W 9628   2.884  39.765  12.006
37204W        W 9629  30.268  30.624  13.950
37205W        W 9630  32.846  44.810  12.607
37206W        W 9631   4.349  37.855   1.726
37207W        W 9632  31.103  34.794   4.053
37208W        W 9633  16.373  20.745  12.473
37209W        W 9634   1.348  35.596   3.752
37210W        W 9635  24.222  21.582   4.552
37211W        W 9636   2.873  35.032  13.514
37212W        W 9637  14.671   8.257   1.947
37213W        W 9638   0.174  20.862  14.505
37214W        W 9639  14.813  20.691   3.576
37215W        W 9640  13.337  17.232  14.949
37216W        W 9641  37.231  31.274  12.129
37217W        W 9642  40.426  37.041  12.517
37218W        W 9643   0.273  34.503   1.683
37219W        W 9644   8.638   0.630   4.107
37220W        W 9645  10.628  34.937  13.874
37221W        W 9646  35.063  15.725  12.451
37222W        W 9647  13.829  23.032  11.458
37223W        W 9648   8.193  32.406   1.363
37224W        W 9649  43.727  27.659  10.497
37225W        W 9650  20.590  35.631   2.406
37226W        W 9651  23.654  44.470  13.474
37227W        W 9652  10.803  28.974   3.736
37228W        W 9653  39.508  17.340   3.424
37229W        W 9654   2.482  22.082   3.234
37230W        W 9655   8.253  30.273  10.554
37231W        W 9656  38.040  38.363  14.011
37232W        W 9657   1.943  33.086  11.124
37233W        W 9658   8.096   3.730   1.387
37234W        W 9659   4.462  33.926  13.786
37235W        W 9660   2.629  14.217   2.772
37236W        W 9661  32.502  35.531  11.898
37237W        W 9662  22.625   2.056   2.159
37238W        W 9663  36.962  20.719   2.628
37239W        W 9664  17.275  39.629   0.479
37240W        W 9665  39.919   8.199  12.411
37241W        W 9666  26.628   6.326   4.695
37242W        W 9667  32.894  40.322  11.589
37243W        W 9668  22.405  37.091  14.833
37244W        W 9669  41.012   1.809  14.312
37245W        W 9670  12.378  24.508  10.122
37246W        W 9671  29.167  36.997  13.574
37247W        W 9672  27.866  38.906  10.400
37248W        W 9673  36.368  18.587  14.834
37249W        W 9674   3.410   3.411  12.401
37250W        W 9675  34.515  39.758   2.024
37251W        W 9676  40.887  38.938   4.929
37252W        W 9677  36.343  37.323   1.242
37253W        W 9678  19.948   7.510   0.472
37254W        W 9679   6.620   3.221   3.795
37255W        W 9680  37.844  30.072  12.585
37256W        W 9681  34.689   8.162   5.486
37257W        W 9682  41.553   7.955  12.005
37258W        W 9683  11.416  42.299   4.681
37259W        W 9684  20.027  44.550   1.265
37260W        W 9685  42.235   6.737   4.013
37261W        W 9686   4.864  29.859  12.590
37262W        W 9687   2.212  39.886   2.814
37263W        W 9688  11.327  43.546   3.732
37264W        W 9689   3.001  21.722   3.025
37265W        W 9690   6.635  12.182   2.200
37266W        W 9691  33.604   6.191  13.401
37267W        W 9692  30.086  38.416   2.776
37268W        W 9693  12.706  19.447   0.187
37269W        W 9694   3.676   4.565  11.268
37270W        W 9695  39.845  39.418   4.219
37271W        W 9696   5.844  11.717  11.149
37272W        W 9697   8.147  41.799   2.852
37273W        W 9698   4.933  16.230   1.597
37274W        W 9699  13.394   4.199   3.938
37275W        W 9700   8.870  17.053   3.417
37276W        W 9701  38.531   4.709   3.806
37277W        W 9702  23.466   8.644  13.305
37278W        W 9703  21.566   4.745  10.936
37279W        W 9704  26.974  25.641   2.736
37280W        W 9705  20.756  10.861  14.374
37281W        W 9706  22.475   3.801   2.176
37282W        W 9707  18.941  28.015   4.056
37283W        W 9708  31.623   7.335   4.201
37284W        W 9709  18.602  24.705   2.200
37285W        W 9710  33.812  33.052   2.796
37286W        W 9711   6.219  37.904   0.273
37287W        W 9712  44.380   7.518   3.623
37288W        W 9713   8.662  21.846  11.869
37289W        W 9714   0.423   7.829  14.391
37290W        W 9715  35.304  26.207   1.888
37291W        W 9716  41.586   6.381   4.202
37292W        W 9717  44.155   5.270   3.127
37293W        W 9718  32.162   7.372  12.916
37294W        W 9719  30.931  19.778  13.546
37295W        W 9720  21.536  24.549  11.680
37296W        W 9721  10.225  34.050  14.035
37297W        W 9722  23.935  38.754  11.494
37298W        W 9723  31.581  26.495  13.904
37299W        W 9724  18.181  44.846   0.482
37300W        W 9725   2.858   6.249  13.410
37301W        W 9726  15.780  25.711  12.024
37302W        W 9727  16.769   6.643   1.881
37303W        W 9728   2.709  17.629  11.552
37304W        W 9729   5.029   8.155  13.045
37305W        W 9730   7.352  26.202   1.865
37306W        W 9731  31.473  35.322   0.773
37307W        W 9732   7.294   8.250   4.040
37308W        W 9733  37.349  15.654  14.678
37309W        W 9734  39.128  25.126  13.930
37310W        W 9735  44.470  17.733   0.277
37311W        W 9736  13.006  15.811  12.984
37312W        W 9737  23.548  34.738  13.284
37313W        W 9738  30.698  14.696   2.880
37314W        W 9739  38.288  34.047   1.976
37315W        W 9740  43.916  26.405   0.849
37316W        W 9741   9.626   2.882   1.728
37317W        W 9742  41.046  26.959   2.854
37318W        W 9743  16.693   7.682  13.399
37319W        W 9744  27.719  43.880   3.323
37320W        W 9745  20.272  35.603   2.819
37321W        W 9746  21.114  32.606   2.006
37322W        W 9747   0.232  30.941  11.133
37323W        W 9748  24.194  10.918  14.748
37324W        W 9749  30.168  35.558  13.438
37325W        W 9750  37.339  33.161  10.837
37326W        W 9751  35.600  42.062   4.134
37327W        W 9752  20.755   4.559   0.001
37328W        W 9753  43.255  35.813   1.344
37329W        W 9754  19.109  44.014  14.381
37330W        W 9755   8.284  21.271   3.349
37331W        W 9756  22.509  26.058  14.073
37332W        W 9757  25.192  10.767   0.811
37333W        W 9758  37.341   8.582   5.542
37334W        W 9759  19.992  27.177  14.076
37335W        W 9760   2.162  23.384  11.677
37336W        W 9761  41.003  22.957  14.766
37337W        W 9762  37.629  43.752  14.870
37338W        W 9763  11.708   9.870  14.178
37339W        W 9764   3.760  13.245   3.874
37340W        W 9765  42.595  18.655  11.955
37341W        W 9766  11.312   1.894  13.512
37342W        W 9767   5.120  41.875  11.162
37343W        W 9768  26.785   6.268  14.874
37344W        W 9769   9.826  27.159  10.397
37345W        W 9770  15.479  29.019   0.494
37346W        W 9771   8.821  29.501   3.639
37347W        W 9772  32.069  32.066  13.597
37348W        W 9773  38.738  19.209   1.942
37349W        W 9774  30.123   7.089   0.963
37350W        W 9775  14.918  35.341  12.208
37351W        W 9776   0.741  24.052  11.096
37352W        W 9777  27.636  26.650  14.257
37353W        W 9778  15.744  36.812   4.636
37354W        W 9779  31.282  16.143  12.569
37355W        W 9780   5.463  13.212  12.521
37356W        W 9781  41.554   1.137   3.669
37357W        W 9782  34.986  37.988  12.620
37358W        W 9783  31.108   2.149  11.229
37359W        W 9784  24.390   5.733  12.457
37360W        W 9785  14.256   6.248   2.901
37361W        W 9786  25.566  26.904   1.449
37362W        W 9787   6.837  20.568   3.253
37363W        W 9788  31.461  40.560   1.741
37364W        W 9789  39.051  43.973  14.452
37365W        W 9790   9.330  41.798   3.746
37366W        W 9791  37.490  37.586  12.543
37367W        W 9792  40.398   1.957  14.321
37368W        W 9793  14.820  27.494   1.098
37369W        W 9794  22.234  25.563  11.132
37370W        W 9795  33.439   4.490  12.097
37371W        W 9796  21.785  22.628  11.882
37372W        W 9797  25.964  25.464   1.255
37373W        W 9798   2.763   0.873   4.556
37374W        W 9799  27.214  31.026  11.099
37375W        W 9800  43.441  11.190  13.748
37376W        W 9801  13.790   6.463   2.807
37377W        W 9802  12.637  26.138   2.337
37378W        W 9803   0.749  19.183  13.899
37379W        W 9804  15.821   2.430  10.529
37380W        W 9805  24.441  21.705   4.109
37381W        W 9806  32.071  38.364  11.318
37382W        W 9807   2.468   6.667  11.495
37383W        W 9808  18.642  19.574   3.693
37384W        W 9809  33.087  21.101  11.076
37385W        W 9810  37.507  19.606  10.749
37386W        W 9811  13.288  25.659   1.426
37387W        W 9812  43.451  37.738  11.506
37388W        W 9813   9.335   7.400  12.490
37389W        W 9814  38.976   0.994   0.208
37390W        W 9815   9.385  16.879  11.061
37391W        W 9816  20.190  18.428   4.673
37392W        W 9817  42.528  25.240   2.491
37393W        W 9818   2.858  42.947   4.697
37394W        W 9819  27.751  44.383  12.471
37395W        W 9820  27.070  23.997   2.328
37396W        W 9821  35.630  11.882   2.805
37397W        W 9822  11.111  35.029   1.481
37398W        W 9823   4.521  43.316   0.960
37399W        W 9824  37.376   1.837   0.106
37400W        W 9825  43.813   8.150   0.024
37401W        W 9826  16.067  42.031  13.901
37402W        W 9827  26.870  10.469   4.224
37403W        W 9828   6.486  12.803   2.699
37404W        W 9829   8.417  43.098  11.565
37405W        W 9830  33.513  24.092   1.366
37406W        W 9831  41.519  29.881  12.074
37407W        W 9832  14.528  13.340   1.456
37408W        W 9833  16.196   3.804   1.818
37409W        W 9834   2.829   5.293  10.371
37410W        W 9835  30.552  42.508   2.656
37411W        W 9836  26.981  36.858   0.962
37412W        W 9837  27.895   1.224  13.928
37413W        W 9838   7.061   3.750  11.192
37414W        W 9839  23.487   3.804  14.792
37415W        W 9840  11.073  24.417  10.930
37416W        W 9841  32.041  35.845   0.038
37417W        W 9842  19.837  37.985   0.266
37418W        W 9843   2.497   4.373   3.839
37419W        W 9844  28.715  42.343   3.220
37420W        W 9845  26.553  21.333   3.790
37421W        W 9846  38.853  25.061  11.028
37422W        W 9847  41.991  22.109   0.315
37423W        W 9848   1.452  22.961   1.381
37424W        W 9849  17.477  43.605  12.143
37425W        W 9850  39.816  28.016  13.399
37426W        W 9851  40.423  37.559   3.205
37427W        W 9852  41.352   1.945   3.153
37428W        W 9853  32.953   6.345  11.068
37429W        W 9854  40.022  11.790   4.357
37430W        W 9855   5.819  24.321  10.722
37431W        W 9856  14.119  26.260  14.402
37432W        W 9857  15.713  11.198  13.432
37433W        W 9858  11.430   5.825   2.559
37434W        W 9859  16.281  11.239   4.874
37435W        W 9860   1.445   4.161   4.527
37436W        W 9861  42.278   5.900  14.500
37437W        W 9862   8.208   3.767  14.524
37438W        W 9863  24.107  18.401  12.118
37439W        W 9864  42.359  18.296  11.618
37440W        W 9865   2.806   8.970  10.894
37441W        W 9866  42.948  42.981  10.724
37442W        W 9867  34.943  39.303   1.385
37443W        W 9868  28.041  19.727  14.883
37444W        W 9869  38.755   8.788   4.588
37445W        W 9870  44.930  36.297  14.291
37446W        W 9871  30.576   4.391  14.838
37447W        W 9872  25.119  17.534  11.368
37448W        W 9873  12.349  36.108  12.588
37449W        W 9874  38.104  15.355  14.030
37450W        W 9875  16.095   5.436   1.807
37451W        W 9876   3.308  27.929  10.432
37452W        W 9877  44.904  26.400   4.254
37453W        W 9878  33.006  35.027  10.430
37454W        W 9879   0.983  19.574   3.294
37455W        W 9880   6.888   6.937  13.458
37456W        W 9881  24.264  40.473   4.623
37457W        W 9882  17.028  31.503   4.627
37458W        W 9883  19.987  24.975   1.730
37459W        W 9884   1.817   2.941   0.327
37460W        W 9885  18.171  20.742   4.557
37461W        W 9886  37.968  28.216  13.557
37462W        W 9887   8.141  28.527   3.237
37463W        W 9888  13.544  37.969  12.386
37464W        W 9889  26.086  43.891  13.685
37465W        W 9890  19.175  30.576  10.471
37466W        W 9891  44.270  26.641   1.181
37467W        W 9892  13.279  39.584  12.394
37468W        W 9893  14.543   3.426  13.501
37469W        W 9894  34.097  22.551   4.280
37470W        W 9895   5.370  34.034  12.822
37471W        W 9896  43.758  20.701  11.672
37472W        W 9897  30.362  20.836   2.057
37473W        W 9898  37.340   8.714  11.930
37474W        W 9899  33.465  31.083  11.537
37475W        W 9900  39.873   6.816  12.970
37476W        W 9901   4.317  29.921   2.364
37477W        W 9902  16.347  19.463  12.087
37478W        W 9903  15.951   6.609  12.430
37479W        W 9904   1.293  27.759  11.948
37480W        W 9905  11.741   8.861   4.057
37481W        W 9906  31.923  32.425  12.011
37482W        W 9907  44.890  23.507   3.210
37483W        W 9908  43.518  21.449   0.455
37484W        W 9909  35.379  34.811  13.949
37485W        W 9910  37.992   1.937   3.653
37486W        W 9911  31.430  13.312   1.534
37487W        W 9912  12.247  24.555   1.681
37488W        W 9913  17.627   6.814  14.270
37489W        W 9914  43.344  29.136  12.477
37490W        W 9915  37.064   3.524  14.047
37491W        W 9916  36.625  31.431  12.218
37492W        W 9917  36.211   8.338   3.741
37493W        W 9918  32.028  24.651   4.595
37494W        W 9919  15.669   3.588   5.042
37495W        W 9920  33.878  19.086   1.327
37496W        W 9921  22.200  14.682  14.908
37497W        W 9922   4.335  26.319   3.146
37498W        W 9923  26.621  34.987  14.313
37499W        W 9924   4.921  33.061   0.478
37500W        W 9925  31.964  12.840  14.958
37501W        W 9926  39.862  26.435   2.905
37502W        W 9927  41.287   7.799  12.546
37503W        W 9928   8.388  16.091  10.495
37504W        W 9929  14.426  28.583  14.750
37505W        W 9930  38.303  31.541  12.706
37506W        W 9931   5.781  43.788  13.439
37507W        W 9932  16.331  14.366  11.954
37508W        W 9933  11.446  29.466  14.718
37509W        W 9934  43.373   9.328   2.051
37510W        W 9935  43.262  20.045  10.560
37511W        W 9936  26.259   3.865  11.574
37512W        W 9937   9.429   3.379   1.649
37513W        W 9938  14.589  41.805  10.978
37514W        W 9939   1.306  10.831   3.613
37515W        W 9940  41.776  42.710   3.008
37516W        W 9941   1.766   9.032  13.464
37517W        W 9942  21.704  26.901  11.581
37518W        W 9943   0.530  22.164   2.299
37519W        W 9944  35.286  29.192  10.482
37520W        W 9945  10.238   0.323  14.868
37521W        W 9946  39.079  25.876   2.645
37522W        W 9947   1.833  32.423   1.341
37523W        W 9948   6.830  17.058  11.202
37524W        W 9949   7.912   8.677   3.389
37525W        W 9950  17.651  29.580   3.030
37526W        W 9951  14.201   2.656   1.707
37527W        W 9952   6.829  43.906  10.756
37528W        W 9953  41.922  24.442   4.598
37529W        W 9954   0.690  15.380  10.591
37530W        W 9955  17.505   9.732   3.157
37531W        W 9956  33.995  44.355  11.969
37532W        W 9957  29.543   2.408  11.532
37533W        W 9958   2.027  16.610   4.750
37534W        W 9959  17.843  22.138  13.315
37535W        W 9960   1.434  19.030  12.554
37536W        W 9961   9.152  22.989  14.990
37537W        W 9962  16.952  32.486  12.441
37538W        W 9963  39.381  20.451  10.661
37539W        W 9964  11.966  13.642   0.504
37540W        W 9965   7.898  24.313   1.953
37541W        W 9966  31.700  33.439   0.868
37542W        W 9967  13.185  33.001   1.709
37543W        W 9968  36.560  41.126   9.988
37544W        W 9969   2.676   8.372   1.188
37545W        W 9970  37.131  14.816   3.797
37546W        W 9971   0.465  27.968   1.845
37547W        W 9972  38.237   7.162   4.170
37548W        W 9973  25.890  36.998   3.341
37549W        W 9974  16.716  21.673  10.490
37550W        W 9975  17.556  11.868   0.746
37551W        W 9976  20.029  41.570   0.219
37552W        W 9977  19.450  33.274   2.287
37553W        W 9978  25.614  12.531   3.579
37554W        W 9979  14.738  18.909  13.598
37555W        W 9980  24.520  39.148   2.277
37556W        W 9981  24.633  17.749  13.199
37557W        W 9982  11.954  29.658  14.802
37558W        W 9983  39.430  10.667   0.430
37559W        W 9984   5.849  28.600   0.843
37560W        W 9985   3.320  13.325  14.270
37561W        W 9986  29.640  29.554   4.077
37562W        W 9987   1.429  22.661   1.811
37563W        W 9988  13.546   9.658  12.288
37564W        W 9989   4.818   2.472   3.226
37565W        W 9990   0.993  27.725  13.970
37566W        W 9991  44.934  43.113  10.772
37567W        W 9992  36.234  25.223  14.277
37568W        W 9993  21.050  37.393  12.899
37569W        W 9994   7.734  28.550  11.596
37570W        W 9995  12.662  19.570  13.337
37571W        W 9996  44.788   2.761   0.893
37572W        W 9997  31.445  13.826   1.680
37573W        W 9998  43.999  24.968   4.915
37574W        W 9999  17.246   5.506  14.931
37575W        W10000  32.804  31.010   4.157
37576W        W10001  22.143  17.669   4.708
37577W        W10002  31.293  40.583  10.258
37578W        W10003  38.046  31.173  13.480
37579W        W10004  34.460  19.040   0.456
37580W        W10005  28.899   8.270  14.294
37581W        W10006  44.968  11.741   2.939
37582W        W10007  41.889  24.417  11.154
37583W        W10008   9.575  26.119   2.759
37584W        W10009  33.558  40.751   1.822
37585W        W10010  44.438  38.146  12.881
37586W        W10011  36.401  36.268  14.379
37587W        W10012  30.447  27.734  12.815
37588W        W10013  41.519   5.775   0.067
37589W        W10014  34.545   4.358  14.541
37590W        W10015  39.369  12.186   0.252
37591W        W10016   5.436  31.008   0.442
37592W        W10017  43.214  40.597   2.801
37593W        W10018  37.417   0.987  14.297
37594W        W10019  13.065  17.278   0.402
37595W        W10020  36.969  31.325   0.914
37596W        W10021   0.580   7.347  14.535
37597W        W10022  44.976  16.130  13.199
37598W        W10023  22.618  30.825  11.657
37599W        W10024   7.140  33.587  11.108
37600W        W10025  26.204  34.420  12.492
37601W        W10026  34.503  21.212  13.404
37602W        W10027  28.120   8.053   1.740
37603W        W10028   2.270   4.479   3.333
37604W        W10029   7.669   0.085   1.742
37605W        W10030  40.594  39.589  11.973
37606W        W10031   8.867  31.491  11.118
37607W        W10032  20.583   3.854  13.984
37608W        W10033   0.331  33.559  10.322
37609W        W10034  18.734   5.351   0.150
37610W        W10035  38.611  18.610   1.544
37611W        W10036  25.241  30.007   5.241
37612W        W10037  33.486  30.452   3.215
37613W        W10038  33.767  32.102   1.265
37614W        W10039  30.525   6.353   2.202
37615W        W10040   7.975  19.299   0.556
37616W        W10041  35.677   2.746  11.853
37617W        W10042  39.304   6.470  10.169
37618W        W10043  28.462  11.002  10.451
37619W        W10044   5.790  12.280   1.363
37620W        W10045   9.924  32.223  14.517
37621W        W10046  18.439  15.072  12.460
37622W        W10047  29.436  35.263  12.571
37623W        W10048  18.522  10.408   5.096
37624W        W10049   3.689  40.759   1.852
37625W        W10050  22.560  33.564   1.877
37626W        W10051   7.522  34.857  10.724
37627W        W10052   2.366  14.993  10.999
37628W        W10053  19.374   0.553   4.586
37629W        W10054  28.171  35.343  11.246
37630W        W10055   8.641   7.785  11.460
37631W        W10056  22.509  37.846  12.025
37632W        W10057  42.380  34.570  14.974
37633W        W10058  22.139   0.922  11.143
37634W        W10059   6.461   7.557   2.172
37635W        W10060  29.990   9.779   3.357
37636W        W10061  41.599  37.380   4.576
37637W        W10062  29.509  41.500  10.544
37638W        W10063   0.113  40.465   0.515
37639W        W10064  15.319  18.836  14.846
37640W        W10065   3.418  27.183   4.207
37641W        W10066  32.507  30.858   1.390
37642W        W10067   4.013  19.360   3.705
37643W        W10068  35.045  16.883   1.661
37644W        W10069  35.592  31.112   2.158
37645W        W10070  33.523  14.830  14.808
37646W        W10071   9.256  42.418  12.658
37647W        W10072   1.883  41.977   2.827
37648W        W10073   6.651  35.361   3.177
37649W        W10074  36.557  11.959  12.452
37650W        W10075  35.960  30.087   0.368
37651W        W10076  34.310   0.484   2.212
37652W        W10077  24.107   9.380   0.009
37653W        W10078  23.399  40.827  13.837
37654W        W10079  19.423  44.217  10.780
37655W        W10080   9.830  34.074   0.492
37656W        W10081   8.598  29.540   4.168
37657W        W10082  29.753  41.800   4.634
37658W        W10083  42.077  39.105  10.850
37659W        W10084  28.942  24.035  14.280
37660W        W10085   2.743   5.257   1.316
37661W        W10086  26.135  12.077  12.910
37662W        W10087  36.167  17.286   0.947
37663W        W10088  31.859   1.679  14.369
37664W        W10089  21.495  26.004   3.126
37665W        W10090  11.959  29.382  12.365
37666W        W10091  18.163  34.611   4.732
37667W        W10092  42.100  15.798   2.061
37668W        W10093  32.571  20.683   1.772
37669W        W10094  26.726  24.553  11.184
37670W        W10095  36.262  22.428   2.765
37671W        W10096  41.498  10.612  11.992
37672W        W10097  41.569  34.173  11.648
37673W        W10098  34.735   6.895  10.465
37674W        W10099  19.446  28.198   1.920
37675W        W10100  26.104  41.967  10.736
37676W        W10101  14.103  44.018   3.679
37677W        W10102   5.155   8.635  13.762
37678W        W10103  11.816  19.480  13.849
37679W        W10104  28.642  14.973  12.032
37680W        W10105  25.208   9.377   2.860
37681W        W10106  39.828  24.446   3.006
37682W        W10107  42.533  38.918   2.788
37683W        W10108   2.941  23.586   3.119
37684W        W10109  34.595  43.930  11.448
37685W        W10110   1.217  11.247   1.294
37686W        W10111   0.373  36.047  13.946
37687W        W10112  20.710  43.309   3.635
37688W        W10113  13.233  41.226   1.258
37689W        W10114  28.088   1.413   0.325
37690W        W10115  43.207  32.962  10.173
37691W        W10116  31.669  39.974  10.946
37692W        W10117  21.227  20.122   3.254
37693W        W10118  27.577  24.473  12.542
37694W        W10119  41.947  17.728   3.669
37695W        W10120   8.914   7.358   4.090
37696W        W10121  29.417  40.986  12.110
37697W        W10122  32.422  18.174  12.227
37698W        W10123  41.007   4.840  13.778
37699W        W10124  28.962  15.874  11.020
37700W        W10125  32.523   3.349   4.267
37701W        W10126  16.016  10.185  12.233
37702W        W10127  24.620  17.104  11.876
37703W        W10128  11.637  22.155  12.066
37704W        W10129  13.108  21.667   4.717
37705W        W10130   1.349  44.105  10.638
37706W        W10131   8.297  36.781  11.437
37707W        W10132  13.434  31.612   4.476
37708W        W10133  10.501  13.750  14.381
37709W        W10134  10.284  28.649  12.023
37710W        W10135  16.067   2.350  12.564
37711W        W10136   7.548  27.898   1.899
37712W        W10137  42.294   3.058  12.143
37713W        W10138  44.244  42.723   4.115
37714W        W10139  18.025  31.547  12.462
37715W        W10140  27.602  32.045  12.395
37716W        W10141  28.385  36.077  14.877
37717W        W10142  38.583  29.922   4.138
37718W        W10143  24.180   6.190   1.983
37719W        W10144   6.766  14.732   3.215
37720W        W10145  19.624   6.371   3.208
37721W        W10146  32.382  11.139  14.372
37722W        W10147  30.592   8.387  12.409
37723W        W10148  18.454  12.169   1.566
37724W        W10149  17.813   3.280  13.085
37725W        W10150  14.728  19.407  11.618
37726W        W10151  24.513  13.368   1.756
37727W        W10152  40.864  25.731  11.735
37728W        W10153  36.083   0.356  11.657
37729W        W10154  10.155  44.020   2.322
37730W        W10155  34.036  35.395  14.284
37731W        W10156  16.925  36.057   0.701
37732W        W10157  23.928  20.117  13.418
37733W        W10158  20.254  42.827  11.681
37734W        W10159  25.712   7.191  11.418
37735W        W10160   6.302  12.796   1.722
37736W        W10161   3.734  42.087  11.314
37737W        W10162  12.969  39.763  11.214
37738W        W10163  27.956  37.500   0.568
37739W        W10164  39.062  20.202   1.378
37740W        W10165   9.401  28.864   0.751
37741W        W10166  12.140  44.297   0.267
37742W        W10167  10.967   8.231  14.468
37743W        W10168  24.263  12.215   4.142
37744W        W10169   4.812   5.632  13.579
37745W        W10170  34.582  23.312   2.260
37746W        W10171  25.626  21.693  13.833
37747W        W10172  38.625  19.484   3.216
37748W        W10173   7.716  39.479   0.064
37749W        W10174   8.838  42.874  13.937
37750W        W10175  21.706  15.358  11.797
37751W        W10176  30.087  41.113   4.295
37752W        W10177  29.607  37.274   0.569
37753W        W10178   8.380  14.619  14.807
37754W        W10179  40.985  13.931   0.459
37755W        W10180  26.236  22.494  13.209
37756W        W10181  16.227   3.678  13.928
37757W        W10182  24.762  16.779   2.882
37758W        W10183  41.420  44.065   0.079
37759W        W10184  28.273  14.387   1.483
37760W        W10185  11.157  37.582  13.871
37761W        W10186  13.890  20.558  10.348
37762W        W10187  18.139  30.520   1.894
37763W        W10188   3.726   2.251   0.867
37764W        W10189  20.123  16.800   3.174
37765W        W10190   6.684   1.883  10.470
37766W        W10191  26.935  11.613   2.752
37767W        W10192  21.753  36.901   2.900
37768W        W10193   9.854   0.499  12.546
37769W        W10194  12.908  36.666   3.649
37770W        W10195  15.365  16.207   0.285
37771W        W10196  23.882  21.335  10.134
37772W        W10197  35.961  16.044   2.461
37773W        W10198   3.243  32.453  11.642
37774W        W10199  27.237  37.767   1.401
37775W        W10200  16.085  20.431  12.185
37776W        W10201  32.996  40.317   3.192
37777W        W10202  13.387  42.421  11.938
37778W        W10203  11.782  33.949   4.457
37779W        W10204  27.166  17.460   4.121
37780W        W10205   5.121   1.294   3.315
37781W        W10206   7.444   5.073  14.494
37782W        W10207  40.063   1.460   1.465
37783W        W10208  36.030   7.370  10.372
37784W        W10209  19.290  44.006   3.230
37785W        W10210  44.741  38.302   2.396
37786W        W10211   7.809  32.422   4.075
37787W        W10212  35.091  28.143   0.248
37788W        W10213  28.798   9.928   2.126
37789W        W10214  24.751  42.890  13.900
37790W        W10215  37.248  19.151   0.741
37791W        W10216  19.230  18.811  11.497
37792W        W10217   7.616  19.128   0.920
37793W        W10218  43.526  42.306  12.540
37794W        W10219  15.580   6.678  11.023
37795W        W10220   3.752  14.031   1.585
37796W        W10221  20.547  30.542   4.728
37797W        W10222  21.358  35.254  10.023
37798W        W10223  22.498   8.776   9.973
37799W        W10224  42.257  30.489  11.567
37800W        W10225  34.024  21.539  12.787
37801W        W10226  31.590   7.435   1.888
37802W        W10227  17.540  28.040   3.359
37803W        W10228  37.644  39.340  10.769
37804W        W10229  44.927   1.525   3.747
37805W        W10230  18.860  19.578  10.196
37806W        W10231  42.267  38.562  13.812
37807W        W10232   2.752  40.118   3.279
37808W        W10233  29.482   5.959  10.520
37809W        W10234   2.840   2.702   3.113
37810W        W10235   4.157  11.626   2.808
37811W        W10236  28.154   6.007   4.095
37812W        W10237  14.776  44.445  11.451
37813W        W10238  28.562  22.571   2.356
37814W        W10239  28.912   1.146   3.817
37815W        W10240  23.239  26.887   4.255
37816W        W10241  22.030  11.672   1.839
37817W        W10242  10.145  21.294  11.927
37818W        W10243  20.920   3.593   4.961
37819W        W10244  16.813  31.150  11.058
37820W        W10245  22.651  30.668  12.153
37821W        W10246  14.238  13.326  14.534
37822W        W10247  37.569  38.579  12.374
37823W        W10248   1.190   0.267   1.390
37824W        W10249  19.533  27.501  10.963
37825W        W10250   5.124   6.265   4.816
37826W        W10251  24.644  29.962  11.932
37827W        W10252  19.950   7.090  14.504
37828W        W10253  38.242  36.446  12.961
37829W        W10254  23.056   0.491  12.799
37830W        W10255  32.434  16.966  11.480
37831W        W10256  38.026  15.825  13.367
37832W        W10257  34.818  24.432  14.946
37833W        W10258   2.767  39.544   2.208
37834W        W10259   0.365  21.155   1.756
37835W        W10260   6.338  43.721   4.503
37836W        W10261  38.559  24.991  13.510
37837W        W10262  25.787   2.075  11.513
37838W        W10263  10.821  31.262   1.260
37839W        W10264  21.253  23.744   2.022
37840W        W10265  43.371  19.482   3.307
37841W        W10266  38.899  33.808   4.038
37842W        W10267  40.355  22.634  13.130
37843W        W10268  32.451  23.058   1.451
37844W        W10269  14.485   5.333  11.237
37845W        W10270  28.478  29.180   2.425
37846W        W10271  14.123  26.142  10.626
37847W        W10272  21.741   5.756   0.405
37848W        W10273  32.495  42.381   1.015
37849W        W10274   9.396  10.370  14.809
37850W        W10275   9.398  42.386  13.961
37851W        W10276   6.711  28.639   2.183
37852W        W10277   3.476  30.365   3.618
37853W        W10278  18.922  10.937   3.160
37854W        W10279  25.286  31.560   4.618
37855W        W10280  44.501  14.598   4.894
37856W        W10281  14.056  41.407  13.802
37857W        W10282  33.753   9.730   4.835
37858W        W10283  16.700  15.645   0.319
37859W        W10284  35.108  44.868  13.515
37860W        W10285  40.933  43.951  14.904
37861W        W10286  33.778  20.756   0.430
37862W        W10287  29.918   5.314   2.326
37863W        W10288  19.508  29.970   4.278
37864W        W10289  31.707  13.272  12.488
37865W        W10290  18.670  37.446   3.756
37866W        W10291  18.797   2.915   2.433
37867W        W10292  13.128   7.847  13.448
37868W        W10293  25.546  28.959   3.142
37869W        W10294  29.581  13.839   2.399
37870W        W10295   9.283  40.481  11.514
37871W        W10296  26.043  14.133  10.802
37872W        W10297  34.461   0.807  13.330
37873W        W10298  13.514  14.199  12.832
37874W        W10299  15.764  27.465   1.309
37875W        W10300   4.965  25.348  10.793
37876W        W10301  40.880   5.978  12.671
37877W        W10302   5.843   3.690   3.657
37878W        W10303  29.015  12.788  13.926
37879W        W10304  18.025   8.939   3.585
37880W        W10305  15.211  19.490  13.926
37881W        W10306  37.159  23.132   1.852
37882W        W10307  43.236  34.676   3.270
37883W        W10308  10.873  20.646  13.521
37884W        W10309  20.334  35.908   3.236
37885W        W10310  20.818  36.122   3.293
37886W        W10311  23.643   8.752  14.486
37887W        W10312  26.549   6.331   5.269
37888W        W10313   1.467  13.719  14.992
37889W        W10314  17.050   4.290  11.152
37890W        W10315   0.684  29.981   3.475
37891W        W10316  14.299  40.103   0.179
37892W        W10317   5.689  21.981  11.657
37893W        W10318  15.639  16.572   4.286
37894W        W10319  43.047  35.032   3.633
37895W        W10320  23.054  10.374  12.509
37896W        W10321   1.862   6.364   0.204
37897W        W10322  26.538  18.250  12.106
37898W        W10323  25.476  18.669  10.679
37899W        W10324  26.444  43.413  12.974
37900W        W10325  40.490  17.278   4.993
37901W        W10326  23.123   9.887  12.409
37902W        W10327  34.830  32.927   1.666
37903W        W10328  43.742   7.369   4.338
37904W        W10329   6.691  44.361  10.574
37905W        W10330  12.349  29.121   4.541
37906W        W10331   6.193   5.958   0.878
37907W        W10332  37.387  33.600   3.385
37908W        W10333  15.922  42.415  11.803
37909W        W10334  13.599  18.226  10.620
37910W        W10335  22.752  38.755   2.476
37911W        W10336  22.517  10.184  11.892
37912W        W10337   5.625   1.035  14.845
37913W        W10338  34.570  31.923  14.820
37914W        W10339  24.181   9.304   2.702
37915W        W10340   7.935  34.482  10.735
37916W        W10341   8.931  29.649   4.581
37917W        W10342  33.106  15.165  14.810
37918W        W10343   0.389  27.715   1.380
37919W        W10344  16.076  17.526  12.475
37920W        W10345   8.936   3.806   2.165
37921W        W10346  34.871  16.304   2.306
37922W        W10347  41.940  30.056   0.314
37923W        W10348  27.095  29.836   4.681
37924W        W10349  28.074  10.809  11.918
37925W        W10350  36.786   0.338  14.570
37926W        W10351  41.827  21.223  14.915
37927W        W10352  39.929  23.948   4.347
37928W        W10353   7.997  11.355  10.881
37929W        W10354   4.784  29.028   2.400
37930W        W10355  31.189   1.233   2.807
37931W        W10356   8.681  19.842   0.178
37932W        W10357  32.634  44.891  10.685
37933W        W10358  40.829   3.597   4.807
37934W        W10359  26.149   6.550   4.711
37935W        W10360  32.589  25.158  11.988
37936W        W10361  39.352  15.848   1.376
37937W        W10362  32.055  28.640   2.616
37938W        W10363   7.502  23.469  12.284
37939W        W10364  24.613   3.973   3.221
37940W        W10365   5.470   9.812  12.541
37941W        W10366  35.343  12.133  10.814
37942W        W10367  15.086   0.503   0.787
37943W        W10368   7.988  37.423   2.990
37944W        W10369   6.306  11.839  12.060
37945W        W10370  23.659  22.441  12.873
37946W        W10371   3.821  31.384   1.733
37947W        W10372  18.790  33.086  11.509
37948W        W10373  29.176   2.836   3.546
37949W        W10374  39.162  10.286  13.759
37950W        W10375  17.943  31.561  14.684
37951W        W10376  35.490   6.808  12.668
37952W        W10377  19.869  22.581   0.268
37953W        W10378   1.236  39.952   1.393
37954W        W10379   2.398  24.547   4.561
37955W        W10380  29.606  39.295   0.809
37956W        W10381   5.366  14.218   3.719
37957W        W10382  11.790   5.835   3.265
37958W        W10383  44.687  34.700  10.938
37959W        W10384  29.193  20.571   0.932
37960W        W10385  40.745  26.744  12.511
37961W        W10386   0.754  37.878   4.069
37962W        W10387  39.768  32.089   4.722
37963W        W10388  24.056  14.131  14.064
37964W        W10389  17.360  23.428   5.032
37965W        W10390  37.182   4.334   4.069
37966W        W10391  35.826  18.208   2.845
37967W        W10392  10.124  36.591   3.157
37968W        W10393  31.481  28.415   3.931
37969W        W10394   4.876  21.517   1.373
37970W        W10395  44.300   6.955  12.451
37971W        W10396   3.901  20.172   3.566
37972W        W10397  21.344  15.702   5.079
37973W        W10398  12.629   1.733  12.852
37974W        W10399  11.520  16.575  14.913
37975W        W10400  43.298   1.331   2.477
37976W        W10401  20.183  25.949   0.925
37977W        W10402  38.314   4.756   0.259
37978W        W10403  31.476  13.715  12.459
37979W        W10404   1.349  30.441  12.491
37980W        W10405  28.176  13.199   4.501
37981W        W10406   0.414  27.437   1.825
37982W        W10407  35.557  23.986  13.993
37983W        W10408  19.613   3.491   2.322
37984W        W10409  40.000  31.963  14.312
37985W        W10410  36.095  11.853   0.034
37986W        W10411  21.026   6.266   0.739
37987W        W10412   5.662  26.047  12.918
37988W        W10413  34.914  40.009   3.786
37989W        W10414  11.230  38.368   0.163
37990W        W10415  18.895  11.494  12.059
37991W        W10416  43.599  21.097  12.069
37992W        W10417  20.133   9.158   4.585
37993W        W10418   2.190   5.363  13.464
37994W        W10419   3.065  30.673   2.344
37995W        W10420  29.160  20.668  11.033
37996W        W10421  34.904  40.525   3.311
37997W        W10422  38.851  34.082  12.884
37998W        W10423  22.980   5.235   1.341
37999W        W10424   4.706  10.683  12.144
38000W        W10425  37.971  20.821  10.851
38001W        W10426  42.571  43.424   0.661
38002W        W10427  19.503   8.114   3.379
38003W        W10428  25.515  39.375   2.247
38004W        W10429  33.697   9.891   3.820
38005W        W10430  17.928  44.840   3.670
38006W        W10431   0.078  31.608   4.198
38007W        W10432   7.786  26.460   2.882
38008W        W10433   0.063   5.914   3.690
38009W        W10434   0.927   5.184  10.740
38010W        W10435  14.961   2.081  11.015
38011W        W10436  41.729  39.131  14.880
38012W        W10437  13.988  33.918   0.111
38013W        W10438  44.827  29.619   3.833
38014W        W10439   3.948  41.340   4.071
38015W        W10440  43.495  43.488  14.223
38016W        W10441  37.281   1.258  13.085
38017W        W10442  36.316   9.271   4.628
38018W        W10443  30.485  20.588   4.504
38019W        W10444  19.597  43.206   1.451
38020W        W10445  31.420  29.488   3.110
38021W        W10446  13.606  26.507   0.234
38022W        W10447  13.609   8.925   2.733
38023W        W10448  44.738  23.021   1.260
38024W        W10449  27.810  39.370   4.196
38025W        W10450  27.705  11.142   0.870
38026W        W10451  43.215  43.037  10.265
38027W        W10452  20.262   8.308   0.461
38028W        W10453  27.018  40.457   2.505
38029W        W10454   4.422  35.989   4.256
38030W        W10455  10.166  42.423  13.493
38031W        W10456  37.559  12.708   1.717
38032W        W10457  25.610   1.304  14.173
38033W        W10458  28.072  23.151   0.500
38034W        W10459   7.745  14.107   2.794
38035W        W10460  34.012  19.638  14.234
38036W        W10461  33.340  22.144  14.842
38037W        W10462  35.903  29.102   3.876
38038W        W10463  24.073   2.398  10.794
38039W        W10464  20.713   3.158  13.396
38040W        W10465  14.241  27.560  13.918
38041W        W10466  23.568  42.436  12.001
38042W        W10467  24.086  27.095   2.531
38043W        W10468  37.666  25.116   3.205
38044W        W10469  16.632   9.975   3.793
38045W        W10470  11.637  14.036  13.123
38046W        W10471   3.465  26.529   2.870
38047W        W10472  31.673   8.726   4.581
38048W        W10473  12.561  25.507   0.317
38049W        W10474  30.639  39.393   1.184
38050W        W10475  44.037  31.706   3.082
38051W        W10476   1.508  44.568  12.426
38052W        W10477  33.693  44.357  12.491
38053W        W10478  10.304  17.202  12.626
38054W        W10479  41.222  34.180   0.368
38055W        W10480  11.088  37.258  13.048
38056W        W10481  37.752   0.048  12.524
38057W        W10482  10.199  18.184   3.228
38058W        W10483   9.893  21.996   1.904
38059W        W10484  37.979  15.294   2.910
38060W        W10485  40.029  19.140  11.392
38061W        W10486  23.756  43.524   2.620
38062W        W10487  26.402  34.122   0.502
38063W        W10488   0.782   4.189  13.905
38064W        W10489   1.324  32.424  12.847
38065W        W10490   6.936  37.506  12.913
38066W        W10491   5.315  10.419   4.159
38067W        W10492  33.818   1.127   1.960
38068W        W10493  42.854  22.575  10.603
38069W        W10494  23.302  12.776   4.847
38070W        W10495  10.873  26.151  14.434
38071W        W10496  41.044   7.321   0.771
38072W        W10497  23.969  31.778   2.627
38073W        W10498   2.393  39.747   3.282
38074W        W10499  14.714  10.193  12.766
38075W        W10500   9.514   2.427  13.682
38076W        W10501  44.888  18.708   2.407
38077W        W10502   8.421  29.532   3.276
38078W        W10503  22.047   1.509  10.486
38079W        W10504  16.575   3.843  12.428
38080W        W10505  19.595  14.143  10.941
38081W        W10506  35.099  20.637   0.869
38082W        W10507  21.115  26.357   0.800
38083W        W10508  23.781  25.763  13.324
38084W        W10509   3.313  44.121   4.870
38085W        W10510   0.353  24.421   1.449
38086W        W10511   8.647  19.987   0.966
38087W        W10512  29.346  26.621  11.485
38088W        W10513   2.978   6.774  13.109
38089W        W10514  24.794  27.813  11.118
38090W        W10515  22.467  22.707   2.335
38091W        W10516  12.281  18.174  13.796
38092W        W10517  11.756  44.807   1.982
38093W        W10518  34.590  42.493   2.441
38094W        W10519   2.457  37.556   0.744
38095W        W10520  15.122   8.322   4.596
38096W        W10521  17.511   3.348   1.647
38097W        W10522  20.187  21.322   4.072
38098W        W10523  22.253  31.030   1.504
38099W        W10524  40.570  12.839   4.061
38100W        W10525  10.796  44.207  14.016
38101W        W10526  22.456  32.505   3.152
38102W        W10527  28.104  23.118   3.357
38103W        W10528  15.607   3.023  12.076
38104W        W10529  38.091  16.167   3.118
38105W        W10530  13.649  13.395   1.220
38106W        W10531  22.568  35.508  12.420
38107W        W10532   4.467   1.785  12.586
38108W        W10533  25.941  24.091  13.817
38109W        W10534  26.616  18.553   3.643
38110W        W10535  36.705  17.077  10.321
38111W        W10536   5.025  11.788   4.459
38112W        W10537  26.694  19.986   4.053
38113W        W10538  29.627  35.959  13.034
38114W        W10539  21.533  19.723   1.864
38115W        W10540  12.303  33.085  10.628
38116W        W10541   3.593  43.465   3.660
38117W        W10542  37.903  34.660  13.311
38118W        W10543  31.526  18.605   1.313
38119W        W10544   0.731  23.784  11.538
38120W        W10545  13.527   2.207   2.351
38121W        W10546  21.528  28.482   3.372
38122W        W10547   2.872  27.346   2.123
38123W        W10548  20.461  41.910   3.813
38124W        W10549  27.978  23.503  14.067
38125W        W10550  16.788  29.152  11.474
38126W        W10551  24.064  27.255   4.514
38127W        W10552  21.622  37.940   1.166
38128W        W10553   2.282  30.111   2.222
38129W        W10554  14.426  24.687  12.362
38130W        W10555  17.514  42.369  13.929
38131W        W10556  32.585  24.348   1.118
38132W        W10557  29.390   0.589   2.759
38133W        W10558  17.370   6.710  10.647
38134W        W10559  38.610  16.582   4.761
38135W        W10560  24.184   5.732   1.615
38136W        W10561   6.803  35.861   4.331
38137W        W10562  40.410  44.553   3.142
38138W        W10563  24.737  15.265  12.489
38139W        W10564  25.276  37.160   4.505
38140W        W10565  15.659  29.709   1.681
38141W        W10566  19.848  42.438   2.155
38142W        W10567   3.804   9.922  12.846
38143W        W10568  32.877   9.541  12.949
38144W        W10569  40.564  15.771   3.174
38145W        W10570  24.545  31.833   1.352
38146W        W10571  10.641  16.056   0.870
38147W        W10572  40.216  28.978   4.365
38148W        W10573   0.726  30.213  11.527
38149W        W10574  36.557  23.625   3.609
38150W        W10575  40.764  30.844   4.531
38151W        W10576   7.646  26.065   1.224
38152W        W10577  33.526  29.684  13.070
38153W        W10578   1.344   9.283  11.690
38154W        W10579  32.037  27.498  14.916
38155W        W10580   8.331  36.396  12.414
38156W        W10581   8.213  27.133  11.041
38157W        W10582  17.843  39.047   1.794
38158W        W10583  39.753  28.103  14.389
38159W        W10584   7.014  41.529   4.296
38160W        W10585   6.151  21.271   4.338
38161W        W10586  32.176   8.128  11.781
38162W        W10587  18.563  12.981   3.718
38163W        W10588  13.806   1.348   1.456
38164W        W10589   1.923  26.245   4.321
38165W        W10590  44.476  32.091  12.857
38166W        W10591  19.732  38.343   2.569
38167W        W10592  44.025  34.502   0.359
38168W        W10593  10.304   8.800  13.325
38169W        W10594  39.938  12.635  12.001
38170W        W10595  19.341   3.650   0.982
38171W        W10596   6.678  18.721   1.488
38172W        W10597   9.911   2.252  10.661
38173W        W10598  27.518  31.096   4.920
38174W        W10599  39.945  24.966   4.553
38175W        W10600  33.482   5.731  12.582
38176W        W10601  24.245  33.556  13.938
38177W        W10602  33.487  11.653  10.559
38178W        W10603   5.894  12.884  13.928
38179W        W10604  44.523  24.212   2.600
38180W        W10605  32.096  33.984   4.301
38181W        W10606  33.930  11.625   3.747
38182W        W10607  10.649  24.913   3.149
38183W        W10608  22.662  30.418  12.618
38184W        W10609   3.240  41.377   1.396
38185W        W10610  22.107   4.847  14.447
38186W        W10611  10.765  36.066  10.626
38187W        W10612   4.399  29.148  11.147
38188W        W10613  25.041  16.301  14.336
38189W        W10614  38.054   1.369  11.335
38190W        W10615  39.696  34.382  11.145
38191W        W10616  25.681  35.375   2.152
38192W        W10617   7.753  39.292   1.489
38193W        W10618  44.817  21.019  12.950
38194W        W10619  12.111  19.065  14.033
38195W        W10620  24.711  34.161  13.437
38196W        W10621  33.552  12.786  13.330
38197W        W10622  28.488  35.790  11.590
38198W        W10623  26.059  41.343  11.506
38199W        W10624  35.012  21.774   0.046
38200W        W10625  26.139   0.257  11.390
38201W        W10626  11.757  40.804   0.208
38202W        W10627  14.357  37.393   4.253
38203W        W10628  40.567  39.852  10.391
38204W        W10629   2.661  39.947  14.314
38205W        W10630  32.426  38.833  12.997
38206W        W10631  27.258  17.567   1.090
38207W        W10632  19.291  34.016   1.762
38208W        W10633   8.408  25.158   1.857
38209W        W10634  36.914  30.357   1.169
38210W        W10635  43.507  23.582  14.825
38211W        W10636   2.441  10.723   1.813
38212W        W10637   8.372   5.350  10.612
38213W        W10638  29.313  16.888   3.670
38214W        W10639  44.752   6.899   3.901
38215W        W10640  28.966  19.680   0.422
38216W        W10641  19.455   2.951  12.398
38217W        W10642  43.081   1.905  12.605
38218W        W10643  25.033  26.130  14.041
38219W        W10644  16.808   2.142  11.231
38220W        W10645  21.737   2.790  13.573
38221W        W10646  41.416   8.390   3.290
38222W        W10647  27.246  19.838   3.201
38223W        W10648   0.351   1.250  13.946
38224W        W10649  10.443  19.388  11.201
38225W        W10650  14.688  14.304  10.722
38226W        W10651  13.145   0.403   2.965
38227W        W10652  41.744  35.735   4.168
38228W        W10653  34.509  40.885  12.993
38229W        W10654  35.761  40.805  14.327
38230W        W10655  33.649  44.673   4.564
38231W        W10656  16.293   7.214  13.072
38232W        W10657  28.212  26.022  13.053
38233W        W10658   0.465   9.707   4.723
38234W        W10659  34.338  15.405   0.892
38235W        W10660  41.719   1.131   0.317
38236W        W10661  12.165  18.781  11.071
38237W        W10662  17.272  38.553   3.328
38238W        W10663  44.447  17.200   2.347
38239W        W10664  35.335   6.914  13.995
38240W        W10665  15.279  28.035   0.859
38241W        W10666   7.159  35.344   1.468
38242W        W10667   0.982  32.336  10.619
38243W        W10668  20.581  16.015   2.422
38244W        W10669  19.300   1.811   0.601
38245W        W10670   1.882  39.400   4.046
38246W        W10671  29.606  11.623   2.319
38247W        W10672   9.946  44.366   4.631
38248W        W10673  33.285  37.368   3.291
38249W        W10674  33.891  31.894   4.807
38250W        W10675  43.840  20.829   4.896
38251W        W10676  31.208  23.637  10.583
38252W        W10677  40.818  31.113   4.994
38253W        W10678   2.637  18.382  14.459
38254W        W10679  20.783  38.870  11.119
38255W        W10680  34.427  18.547   1.838
38256W        W10681  37.851   7.156  14.840
38257W        W10682  35.955  33.265   3.342
38258W        W10683   3.072  36.156  14.930
38259W        W10684  23.679  16.749  13.052
38260W        W10685  25.930   6.529  10.895
38261W        W10686  36.498  12.477  14.496
38262W        W10687  11.890  13.166   4.039
38263W        W10688  20.073  35.883   4.535
38264W        W10689  42.310  14.182  12.075
38265W        W10690   0.216  32.047   2.215
38266W        W10691  42.841   8.125   2.089
38267W        W10692  20.003  15.748   1.775
38268W        W10693  15.676  34.402  12.547
38269W        W10694  28.418  32.593  12.540
38270W        W10695  39.965  28.186   3.278
38271W        W10696  35.774  20.216   2.222
38272W        W10697  44.823  13.503   0.457
38273W        W10698  38.785  30.993  14.796
38274W        W10699  19.469  20.606  13.135
38275W        W10700  36.616  20.545   1.748
38276W        W10701  13.968  13.408  14.988
38277W        W10702  12.969   4.814   5.100
38278W        W10703  27.074  10.135   0.884
38279W        W10704  39.800  16.348  12.352
38280W        W10705   3.293   4.729   2.917
38281W        W10706  15.530   8.711   1.540
38282W        W10707  34.612  43.542   1.378
38283W        W10708  44.574  25.221  11.101
38284W        W10709  41.058  18.886  11.107
38285W        W10710   4.758  17.105  10.410
38286W        W10711  33.875  26.727  14.753
38287W        W10712  30.161  28.872  11.003
38288W        W10713  23.320  30.187   1.811
38289W        W10714  22.365   3.781   3.176
38290W        W10715  35.573  23.259  12.557
38291W        W10716   2.370   7.591  14.507
38292W        W10717  34.151  41.838   0.332
38293W        W10718  39.097   5.195  10.984
38294W        W10719  24.518  36.685   0.731
38295W        W10720  24.921  33.549   3.993
38296W        W10721  30.956   9.675  12.680
38297W        W10722   1.079   2.359  13.858
38298W        W10723  44.707   8.786   2.746
38299W        W10724  10.650   8.228  11.930
38300W        W10725  32.477  31.227  14.042
38301W        W10726   1.585  20.883  13.957
38302W        W10727   1.209   5.294   3.151
38303W        W10728  37.547  32.593  13.546
38304W        W10729  16.651  17.597   0.078
38305W        W10730  14.281  36.434  13.588
38306W        W10731   6.831  11.603   0.421
38307W        W10732  27.088  33.628  11.434
38308W        W10733   1.201  12.175  10.294
38309W        W10734  26.528   4.377   2.714
38310W        W10735  29.824   8.970  11.445
38311W        W10736  13.741  35.547  13.429
38312W        W10737  22.456   3.839  14.982
38313W        W10738  26.124  38.946  13.115
38314W        W10739  21.042   7.367   4.835
38315W        W10740   4.507  30.897  14.543
38316W        W10741   6.873  14.146   2.167
38317W        W10742  36.358  20.702   3.264
38318W        W10743   7.175  33.048   4.344
38319W        W10744   5.046   7.703  14.993
38320W        W10745   9.429  19.516   5.057
38321W        W10746  26.435  27.338  10.303
38322W        W10747   7.477  38.451  14.301
38323W        W10748  22.107  13.810   0.849
38324W        W10749   5.000  16.228  14.498
38325W        W10750   1.491   0.444  11.844
38326W        W10751  19.196  44.504   0.749
38327W        W10752  40.811   5.331  13.814
38328W        W10753   7.312  19.247  14.959
38329W        W10754   0.963  12.291  13.886
38330W        W10755  38.398  26.499   4.243
38331W        W10756  42.500  27.116   3.202
38332W        W10757  31.932  14.746  14.256
38333W        W10758  13.800  41.608   2.821
38334W        W10759  42.070  23.679  12.442
38335W        W10760  21.813  38.864  10.276
38336W        W10761  31.122  21.272   4.742
38337W        W10762  40.707  22.576   5.000
38338W        W10763  21.018  22.135  13.068
38339W        W10764   8.762  20.462  11.123
38340W        W10765  17.172  12.264  13.694
38341W        W10766  41.324  44.922  11.411
38342W        W10767  43.710  21.565  14.952
38343W        W10768   9.098  26.978  12.998
38344W        W10769  32.106  18.291  10.355
38345W        W10770   4.920   4.514  12.018
38346W        W10771  35.273  15.943  11.106
38347W        W10772  22.938  18.042   0.016
38348W        W10773  35.815  35.398   2.353
38349W        W10774  15.560  20.998   1.437
38350W        W10775  44.411  26.969  12.155
38351W        W10776  17.730  41.889  12.632
38352W        W10777  10.323  30.949   5.018
38353W        W10778  24.305  31.936   0.515
38354W        W10779  19.479  10.353  10.352
38355W        W10780  23.547  43.291   2.187
38356W        W10781   0.847  42.158  12.410
38357W        W10782  37.482  16.373   1.695
38358W        W10783  38.697  24.425  11.116
38359W        W10784   7.851  21.565   4.581
38360W        W10785  12.747  31.706  11.113
38361W        W10786   7.610  21.316   1.352
38362W        W10787  42.271  28.438   3.071
38363W        W10788  30.542  44.935   3.641
38364W        W10789  11.652   7.965   1.305
38365W        W10790  10.574  17.516   4.765
38366W        W10791  36.533   8.511   9.828
38367W        W10792  18.153  40.549   1.878
38368W        W10793  40.086  10.741   4.626
38369W        W10794  22.469  14.766   1.025
38370W        W10795  24.764  34.047  11.616
38371W        W10796  34.377   5.708  13.501
38372W        W10797  22.568  34.366   1.477
38373W        W10798  43.306  44.980  11.452
38374W        W10799  17.770  41.292   4.102
38375W        W10800  18.223  25.795   3.683
38376W        W10801  30.330  39.464   0.211
38377W        W10802  29.567  15.459  12.127
38378W        W10803  39.571  18.980  12.591
38379W        W10804  33.863  16.790   4.842
38380W        W10805  42.722   6.075  13.253
38381W        W10806  43.284   6.785  14.813
38382W        W10807  12.014  17.822   1.802
38383W        W10808  32.878  10.692   1.710
38384W        W10809   3.234  39.545  11.145
38385W        W10810  39.621  35.591   0.732
38386W        W10811  17.058  25.064  14.051
38387W        W10812  24.599  22.611  11.271
38388W        W10813  28.465  41.921   4.118
38389W        W10814  19.110  19.819  14.041
38390W        W10815  38.570  22.463   4.158
38391W        W10816  37.864  33.177  10.972
38392W        W10817  28.646   3.258   1.677
38393W        W10818  23.707  15.340  12.095
38394W        W10819  30.688  23.978  13.835
38395W        W10820  17.299   2.300  14.567
38396W        W10821  25.038   9.348   3.845
38397W        W10822  44.423  21.807  12.434
38398W        W10823  17.237  34.561   4.675
38399W        W10824  20.181  15.218  11.356
38400W        W10825  44.360  20.786  12.320
38401W        W10826  12.226  21.170  12.207
38402W        W10827   1.608  35.346  14.856
38403W        W10828  40.854  28.908  14.849
38404W        W10829  14.714   7.948  13.571
38405W        W10830  10.301  27.022  11.146
38406W        W10831  35.770   7.242   2.866
38407W        W10832  26.590  34.525  11.100
38408W        W10833  32.053   8.772  10.495
38409W        W10834  14.744   7.708  13.082
38410W        W10835   3.838   9.905   3.833
38411W        W10836  38.544  30.834   4.224
38412W        W10837   2.035  25.016  10.715
38413W        W10838   8.920  32.360  11.190
38414W        W10839  21.449   0.775   0.938
38415W        W10840   1.376  42.957   1.456
38416W        W10841  15.790  32.146  10.653
38417W        W10842  34.150  20.732  14.524
38418W        W10843  34.526   9.682  11.122
38419W        W10844  20.652  39.556  12.488
38420W        W10845  25.933  37.564  13.450
38421W        W10846  22.999  20.496  10.857
38422W        W10847  33.018  30.564  11.937
38423W        W10848  25.228  35.557   1.351
38424W        W10849  15.936  37.799  13.008
38425W        W10850  33.821  32.957   1.391
38426W        W10851  33.139   6.148  14.276
38427W        W10852  44.576  27.913   4.058
38428W        W10853  42.634  27.068   0.491
38429W        W10854   1.381  12.142  14.762
38430W        W10855  41.937  22.043  11.240
38431W        W10856  41.056  33.663   4.112
38432W        W10857  26.017   4.761  13.404
38433W        W10858  22.030  33.490  14.361
38434W        W10859  27.460  21.011   2.918
38435W        W10860   7.656   2.349  11.199
38436W        W10861  32.576  38.104   4.383
38437W        W10862  14.406  24.396   3.238
38438W        W10863  40.949  14.257  12.376
38439W        W10864  33.835  12.301  14.864
38440W        W10865   8.747  29.088  12.450
38441W        W10866  35.920  35.033  12.465
38442W        W10867   1.899  41.272  10.757
38443W        W10868  25.461  30.960  12.844
38444W        W10869  19.497  25.664   2.334
38445W        W10870  32.455   8.588   0.240
38446W        W10871   9.749  28.075  10.658
38447W        W10872  34.513   9.890   2.809
38448W        W10873  31.588   7.103  12.899
38449W        W10874  35.624  43.330  12.169
38450W        W10875  32.169  24.063  13.653
38451W        W10876  44.831  34.638  13.454
38452W        W10877  42.845  38.428   0.436
38453W        W10878  17.684   1.851   0.795
38454W        W10879  17.484  41.549   4.507
38455W        W10880  21.055  18.278  14.915
38456W        W10881   0.672  41.857   2.934
38457W        W10882  11.686  41.224   2.334
38458W        W10883  17.551   3.520   4.754
38459W        W10884   4.988   1.546   2.776
38460W        W10885  42.778  32.188   4.596
38461W        W10886  20.317  29.437  14.702
38462W        W10887  17.286   9.460  12.824
38463W        W10888  42.777   2.326   0.677
38464W        W10889   0.685  23.167  10.770
38465W        W10890  41.143   5.372   3.261
38466W        W10891  40.716  29.080   2.100
38467W        W10892   4.042  33.427   2.440
38468W        W10893  27.624  32.968  12.401
38469W        W10894  13.391   5.891   1.269
38470W        W10895  10.732  28.024   1.931
38471W        W10896   7.075  24.177   2.243
38472W        W10897   9.083   5.248   3.784
38473W        W10898  13.568  37.516  12.050
38474W        W10899  44.293   6.549  13.380
38475W        W10900  40.979  12.802   4.720
38476W        W10901  18.497  39.005   4.154
38477W        W10902  20.475  10.200  10.867
38478W        W10903   7.116  28.226   4.557
38479W        W10904  30.930   7.719   3.324
38480W        W10905  14.357  43.555  11.496
38481W        W10906  37.455  26.713   1.190
38482W        W10907  16.342  19.613  10.871
38483W        W10908   4.807  10.488  14.081
38484W        W10909  38.858  21.049   4.596
38485W        W10910  38.976  26.089   0.557
38486W        W10911  33.578   1.918   3.745
38487W        W10912  10.260  29.604   4.578
38488W        W10913  36.922   6.868   0.160
38489W        W10914  12.749  31.111   4.069
38490W        W10915  13.566   4.733  10.889
38491W        W10916  24.562  32.875   4.628
38492W        W10917  39.444  27.055  12.954
38493W        W10918  14.564  42.202  11.307
38494W        W10919   7.514   7.814  12.480
38495W        W10920  33.081  12.217   3.327
38496W        W10921  27.223  33.001  12.035
38497W        W10922   0.040  36.948   4.536
38498W        W10923  21.472  39.037   4.498
38499W        W10924  44.316   3.421   3.225
38500W        W10925  40.835  31.886  13.413
38501W        W10926  30.540  15.158  11.966
38502W        W10927  10.867  36.475  13.155
38503W        W10928  38.102  28.758  12.271
38504W        W10929  21.874   2.803  14.886
38505W        W10930  33.371   4.764  13.100
38506W        W10931  36.064   2.777   4.541
38507W        W10932  11.697   1.853   2.087
38508W        W10933  28.017  18.075  12.343
38509W        W10934  23.747  17.092  12.362
38510W        W10935  30.369   5.300  10.950
38511W        W10936  14.244   4.844   2.434
38512W        W10937  12.445  32.610   1.542
38513W        W10938   7.090   5.208  13.572
38514W        W10939   3.174  38.593  12.939
38515W        W10940  33.498  38.340  11.225
38516W        W10941  35.135  33.837  13.901
38517W        W10942  12.341   8.176   2.295
38518W        W10943  10.200  36.566   2.202
38519W        W10944  41.855  13.660  14.461
38520W        W10945  11.495  28.716  14.990
38521W        W10946   9.749  18.767  14.564
38522W        W10947   7.632  43.796   3.848
38523W        W10948  18.052  12.694   0.770
38524W        W10949   8.702  30.041   0.247
38525W        W10950  16.727  18.698  10.444
38526W        W10951  31.050  21.302  10.137
38527W        W10952   9.906  34.986  11.749
38528W        W10953  26.736  16.911  13.633
38529W        W10954  33.526   5.154  13.451
38530W        W10955  15.359  39.353  13.332
38531W        W10956  26.162   3.970  13.011
38532W        W10957  34.506  35.539  11.435
38533W        W10958   3.418  30.964   1.423
38534W        W10959  41.112  30.735  13.966
38535W        W10960  39.133  40.124  14.929
38536W        W10961  13.188  19.572   3.558
38537W        W10962  10.385   3.410   0.736
38538W        W10963  22.972  27.542   3.820
38539W        W10964  16.167  26.611  13.552
38540W        W10965  39.603   4.690  14.828
38541W        W10966   6.849  22.847   0.309
38542W        W10967  27.266   8.208   2.638
38543W        W10968  19.558  27.804   0.467
38544W        W10969  18.011  41.661  13.029
38545W        W10970   9.295  34.131   1.225
38546W        W10971   7.134  18.099  13.856
38547W        W10972   9.379  37.476  12.526
38548W        W10973  42.801  26.197  14.889
38549W        W10974  33.612   5.578   3.424
38550W        W10975  40.119  20.712   3.265
38551W        W10976   7.684   3.713  10.916
38552W        W10977   4.958  17.994   3.133
38553W        W10978   2.841   3.188  13.158
38554W        W10979   5.362  11.185   3.235
38555W        W10980  35.955  28.033  10.720
38556W        W10981  33.943  40.896  13.926
38557W        W10982  22.048  12.938   2.699
38558W        W10983  19.319  15.175  14.286
38559W        W10984  25.651  26.095   4.600
38560W        W10985  10.159  39.048   2.365
38561W        W10986  30.195  20.771   2.533
38562W        W10987  20.471   6.581  11.088
38563W        W10988   8.285   3.825  13.113
38564W        W10989   8.683  34.568   0.389
38565W        W10990   7.369  27.646   0.585
38566W        W10991  13.574  32.088  11.509
38567W        W10992  27.991  38.548  15.000
38568W        W10993  35.953   4.341   3.113
38569W        W10994  18.338  12.877   1.853
38570W        W10995  30.953  14.413   4.273
38571W        W10996  44.380  16.329   2.643
38572W        W10997  34.989  19.566  13.077
38573W        W10998  29.182  11.581  10.432
38574W        W10999  35.540  25.725  14.316
38575W        W11000   9.800  31.226   3.051
38576W        W11001  38.303  36.829   2.677
38577W        W11002  31.336  20.025   1.238
38578W        W11003  10.101  32.101  13.062
38579W        W11004  15.571  41.272  12.921
38580W        W11005  35.887  37.008   0.499
38581W        W11006  25.807  15.187   2.729
38582W        W11007  34.620  39.528   3.189
38583W        W11008  31.564  43.988  11.190
38584W        W11009  28.715  15.235   4.208
38585W        W11010  43.306  19.204   1.829
38586W        W11011  41.055  35.754   3.560
38587W        W11012  20.620   7.378   3.620
38588W        W11013   2.651  19.337  12.429
38589W        W11014  31.839   1.916   3.317
38590W        W11015  43.139  44.704   0.253
38591W        W11016  18.761  23.546  14.308
38592W        W11017  25.723  27.471  11.094
38593W        W11018  32.538  12.562   4.183
38594W        W11019   0.365  19.264  11.399
38595W        W11020  21.219   0.057   3.952
38596W        W11021   7.415  24.521  14.055
38597W        W11022   1.114  32.419   1.766
38598W        W11023  17.085   7.407  10.057
38599W        W11024   6.428  37.409  13.025
38600W        W11025  34.533  29.683   0.491
38601W        W11026  29.101  32.041  12.658
38602W        W11027  13.323  43.080   2.728
38603W        W11028  30.835  42.969  11.794
38604W        W11029   7.447  21.218  12.776
38605W        W11030  44.930  21.184   3.107
38606W        W11031  17.719   0.909   1.368
38607W        W11032  31.215  34.865   1.311
38608W        W11033  10.701   3.163   4.139
38609W        W11034  35.039  22.698  12.560
38610W        W11035  17.540  32.354  14.411
38611W        W11036  26.946  30.361   4.674
38612W        W11037  44.660  19.691  13.466
38613W        W11038   0.294  31.027   4.587
38614W        W11039  42.484  33.624   0.939
38615W        W11040  24.582  33.172   2.815
38616W        W11041   2.202  36.257  11.321
38617W        W11042  18.847  14.698  11.985
38618W        W11043  23.474  27.452  11.631
38619W        W11044  21.769  44.082   1.874
38620W        W11045  14.764  41.493   3.602
38621W        W11046  17.182  16.146   3.166
38622W        W11047   4.739  10.151   4.891
38623W        W11048  22.140  30.273   3.195
38624W        W11049  31.016  43.636  13.878
38625W        W11050  18.631   2.182   3.754
38626W        W11051  15.292  43.285  12.440
38627W        W11052   8.308  27.450   2.289
38628W        W11053   2.405  43.278  11.211
38629W        W11054  30.720   3.857  11.404
38630W        W11055   2.297  29.704  13.829
38631W        W11056   1.980  20.073  14.452
38632W        W11057   4.745  23.998   3.185
38633W        W11058  41.880  34.505  14.403
38634W        W11059  20.777  35.966  12.570
38635W        W11060  43.454  42.751   3.735
38636W        W11061   9.568  20.621  14.569
38637W        W11062  42.798  37.855   3.132
38638W        W11063  13.194  33.015   4.457
38639W        W11064  30.625  31.927  11.429
38640W        W11065  11.864  40.169  11.068
38641W        W11066  24.075  16.794  14.602
38642W        W11067  18.689   4.918   1.768
38643W        W11068  24.270  41.545   0.750
38644W        W11069  13.220  17.076   0.864
38645W        W11070  29.209  26.497   2.827
38646W        W11071  37.291   1.693  12.826
38647W        W11072  33.338  11.214  10.285
38648W        W11073  15.593   9.773  10.605
38649W        W11074  34.095  25.594   0.426
38650W        W11075  41.519   1.913   2.172
38651W        W11076  27.727  14.614  11.897
38652W        W11077  33.635  38.896  13.888
38653W        W11078  42.908  26.008  13.777
38654W        W11079  14.050   3.244  10.152
38655W        W11080  16.550  16.707   3.068
38656W        W11081  30.124  40.023  13.403
38657W        W11082  40.475   8.523  11.560
38658W        W11083  40.958  35.014   2.825
38659W        W11084  31.634   1.319  11.738
38660W        W11085  39.972   7.192  13.406
38661W        W11086   8.123  32.645  11.552
38662W        W11087  35.518   2.039   0.485
38663W        W11088  30.850  23.570  13.561
38664W        W11089   2.729   7.802  11.617
38665W        W11090  11.892  14.271  10.616
38666W        W11091  12.319  38.786   0.265
38667W        W11092   3.249  25.107  13.011
38668W        W11093   7.582  24.070   2.295
38669W        W11094   3.769   2.749   2.439
38670W        W11095  34.574  18.791   1.426
38671W        W11096  18.161  23.707  12.169
38672W        W11097   0.719  32.564  11.036
38673W        W11098  23.622  16.141   0.517
38674W        W11099  21.191  18.016   0.365
38675W        W11100  16.808  40.996   3.308
38676W        W11101  14.306  23.096   9.886
38677W        W11102  31.574  28.853  13.084
38678W        W11103  37.328  10.351  13.324
38679W        W11104  36.515  35.565  12.249
38680W        W11105  43.503  10.341   1.460
38681W        W11106  31.486  16.626   1.929
38682W        W11107   5.306  29.117  12.809
38683W        W11108  44.074  29.178   2.320
38684W        W11109  29.764  13.842   0.211
38685W        W11110  10.791  32.854   4.152
38686W        W11111  30.512  13.675   4.654
38687W        W11112  23.733  42.406   3.330
38688W        W11113  17.565   6.435  12.517
38689W        W11114  41.602  38.628  14.942
38690W        W11115  32.560  16.208   4.021
38691W        W11116   2.496  44.584   2.784
38692W        W11117  28.484  39.523  14.920
38693W        W11118  36.682  27.226   4.460
38694W        W11119   6.164  41.428   2.717
38695W        W11120  14.575  26.564  11.909
38696W        W11121  17.971  33.144  10.716
38697W        W11122  40.254  19.490   3.960
38698W        W11123  38.978   1.041   4.683
38699W        W11124   0.165   2.297  12.996
38700W        W11125  25.966   7.718   2.748
38701W        W11126  18.406   0.335   0.483
38702W        W11127  33.691  23.612   1.242
38703W        W11128   6.642  27.313   0.516
38704W        W11129  35.326  16.348   0.427
38705W        W11130  37.800  25.935  13.465
38706W        W11131  35.059   5.668   1.389
38707W        W11132  15.623  35.669   2.463
38708W        W11133  40.857  13.181   1.483
38709W        W11134  19.144  32.972  13.354
38710W        W11135  25.404  14.748  11.517
38711W        W11136  38.369  32.191   4.908
38712W        W11137   6.837  29.050   4.256
38713W        W11138  26.689  43.341   0.488
38714W        W11139  38.468  11.851  11.886
38715W        W11140  11.083  14.603   3.366
38716W        W11141  32.596  35.628  11.402
38717W        W11142  24.694  13.278  14.271
38718W        W11143  29.905  25.954  11.062
38719W        W11144  41.420  37.838   4.736
38720W        W11145   2.341  42.448  10.646
38721W        W11146  15.138  44.098  11.162
38722W        W11147  22.131  44.983   2.128
38723W        W11148  37.771  26.063   0.476
38724W        W11149  40.347  28.350   0.887
38725W        W11150  38.513  27.920  11.111
38726W        W11151  23.508  30.038   1.286
38727W        W11152  30.530  32.448  11.632
38728W        W11153  21.019  14.610   3.560
38729W        W11154  35.089  35.614  14.954
38730W        W11155  29.625   2.899  12.811
38731W        W11156  24.952  12.035  14.354
38732W        W11157  26.409  15.211  14.078
38733W        W11158   3.192   5.191   0.291
38734W        W11159  11.855  21.176   3.838
38735W        W11160  43.919   8.707   3.321
38736W        W11161  28.050  37.360  11.165
38737W        W11162  34.090  26.594   1.748
38738W        W11163   3.467  13.353  11.934
38739W        W11164  15.078  17.796   2.288
38740W        W11165  42.520   3.781   3.634
38741W        W11166   5.144   4.078  14.381
38742W        W11167  32.846  35.444   2.591
38743W        W11168  40.555   5.596  11.609
38744W        W11169  43.879  23.042  11.053
38745W        W11170   5.178  33.360   0.141
38746W        W11171   7.358  42.864   4.340
38747W        W11172   4.280   7.626   4.238
38748W        W11173  41.347  43.972  10.976
38749W        W11174  24.455  10.845   0.551
38750W        W11175  12.934  26.079  13.392
38751W        W11176   4.215  18.141   0.329
38752W        W11177  23.086   4.371  11.150
38753W        W11178   9.852  26.042   2.331
38754W        W11179  34.080   8.001   4.156
38755W        W11180  26.105  40.910   3.496
38756W        W11181  20.305   4.416   1.321
38757W        W11182   0.666  22.612  13.811
38758W        W11183  19.195  42.386   4.855
38759W        W11184  40.144   9.171   4.538
38760W        W11185  12.638  29.436   1.920
38761W        W11186   3.113  28.656  12.676
38762W        W11187  30.731   9.762  13.148
38763W        W11188  15.563  38.292  11.375
38764W        W11189  38.574  14.748   2.414
38765W        W11190   5.392  27.752  13.383
38766W        W11191   6.821  10.336   1.034
38767W        W11192  31.887  41.898   2.386
38768W        W11193   0.875  28.968   2.205
38769W        W11194   2.437  36.544  12.640
38770W        W11195  20.290  26.087   4.544
38771W        W11196   1.682  11.198  12.293
38772W        W11197  15.381  15.673   0.928
38773W        W11198   8.242   8.245   4.159
38774W        W11199  26.571  19.356  14.195
38775W        W11200  21.612  12.555   4.556
38776W        W11201   0.727  33.190  10.270
38777W        W11202  31.426   6.389   1.231
38778W        W11203  21.089  34.064  12.392
38779W        W11204  34.537  12.270  12.437
38780W        W11205  31.681  39.379   1.266
38781W        W11206  12.699   4.445   2.176
38782W        W11207   1.255   6.949  13.381
38783W        W11208   4.925  15.462  13.861
38784W        W11209   5.259   8.185  12.557
38785W        W11210  21.277  11.182   1.306
38786W        W11211  23.618  34.969  14.084
38787W        W11212   5.401  26.022   0.734
38788W        W11213  30.123   1.725   0.261
38789W        W11214  17.315  40.009   0.863
38790W        W11215  28.204  38.394  11.643
38791W        W11216   4.631  33.378  12.920
38792W        W11217   7.190  42.914   2.794
38793W        W11218  39.331   4.768  11.660
38794W        W11219  16.317  40.774   2.405
38795W        W11220  29.627  23.572   4.223
38796W        W11221  39.348  42.134  13.951
38797W        W11222  10.662  42.718   1.378
38798W        W11223  42.711  31.121  13.524
38799W        W11224  23.980  39.279  11.530
38800W        W11225  19.713  24.686  12.125
38801W        W11226  10.406  37.366   4.111
38802W        W11227  24.113   0.493   0.482
38803W        W11228  18.673  21.971  14.056
38804W        W11229   6.562  27.656  13.437
38805W        W11230  43.202  26.001  11.177
38806W        W11231  37.307   2.504  11.035
38807W        W11232  32.557   3.510   3.652
38808W        W11233  24.431   4.969  14.307
38809W        W11234  30.723  31.633  13.886
38810W        W11235  14.270  18.468  12.119
38811W        W11236  26.275  20.619   3.357
38812W        W11237  32.620  34.911   4.134
38813W        W11238  20.593   2.346  10.937
38814W        W11239  18.304  42.016   2.235
38815W        W11240  25.769  22.692   5.034
38816W        W11241  14.790  21.238   2.122
38817W        W11242   0.262  40.039  11.991
38818W        W11243  15.549   5.985   0.299
38819W        W11244  22.641  38.963   5.115
38820W        W11245  11.600  43.008   3.030
38821W        W11246  40.610  17.030   4.535
38822W        W11247  27.111  30.973   4.549
38823W        W11248  30.453   3.807  14.909
38824W        W11249  17.737  20.637  11.436
38825W        W11250  32.862   2.361   0.688
38826W        W11251   2.237  36.750  11.113
38827W        W11252  39.066  44.093   4.611
38828W        W11253  14.693  23.586   9.992
38829W        W11254  25.122  16.607  12.099
38830W        W11255  35.148  21.650   2.880
38831W        W11256   3.313   2.411   4.149
38832W        W11257  26.072  24.379   4.495
38833W        W11258  17.257   4.519   4.324
38834W        W11259  35.871  22.976   3.622
38835W        W11260  32.547  21.323  12.493
38836W        W11261  15.831  35.395   4.654
38837W        W11262  13.448   9.053  11.037
38838W        W11263   5.967  33.376   4.066
38839W        W11264  32.019  10.860   0.101
38840W        W11265  17.123  40.924  10.547
38841W        W11266   4.061  16.071   1.250
38842W        W11267  18.013   6.842   0.058
38843W        W11268  33.970   1.032   0.196
38844W        W11269  10.582  36.968   4.389
38845W        W11270  33.159  28.603  12.529
38846W        W11271   2.973   4.609  11.934
38847W        W11272   1.501  20.710  12.463
38848W        W11273   1.275   5.674   2.761
38849W        W11274   7.584  29.483   4.241
38850W        W11275  24.291   9.114  12.660
38851W        W11276  39.998  20.638   4.584
38852W        W11277  22.150  16.006  14.525
38853W        W11278  12.325  25.938  12.982
38854W        W11279   1.887  37.826   3.105
38855W        W11280  11.817  17.163  10.797
38856W        W11281  44.971  31.178  14.459
38857W        W11282   9.739   9.475  13.830
38858W        W11283  30.555  16.243  12.086
38859W        W11284  39.986  39.157  13.768
38860W        W11285  24.680  43.737   2.724
38861W        W11286   8.218  28.242   4.494
38862W        W11287  27.943  15.357  12.982
38863W        W11288  27.970   2.768   1.659
38864W        W11289  15.057   8.743  12.615
38865W        W11290  33.860  25.084   4.625
38866W        W11291  30.939  37.620  13.936
38867W        W11292  42.611  24.957  14.589
38868W        W11293  17.682  31.214  11.636
38869W        W11294   6.167  44.022  13.154
38870W        W11295  39.322   6.907  11.371
38871W        W11296  17.091  11.329   2.786
38872W        W11297  31.619   1.341   1.282
38873W        W11298  21.468  18.227  10.620
38874W        W11299  32.171  20.446  11.061
38875W        W11300  34.231  26.918  14.355
38876W        W11301   7.805  10.268   2.298
38877W        W11302  31.149  25.460   1.318
38878W        W11303  18.306  17.806  12.464
38879W        W11304  12.601   1.289   9.803
38880W        W11305  24.288  30.168  13.527
38881W        W11306  17.070  29.314   3.924
38882W        W11307  39.418  42.987  12.395
38883W        W11308  36.677  43.294  13.476
38884W        W11309  39.122  39.700   4.020
38885W        W11310  15.046  20.221  10.508
38886W        W11311  11.367  22.202   2.780
38887W        W11312  24.054   2.920   0.556
38888W        W11313  15.267  24.959  11.223
38889W        W11314   0.344  25.291  12.042
38890W        W11315  33.139  16.636   0.430
38891W        W11316   5.766   3.929   2.214
38892W        W11317  33.697   4.752   3.704
38893W        W11318  40.810   4.771  13.301
38894W        W11319  22.170  44.966  10.751
38895W        W11320  35.461  10.807  12.358
38896W        W11321  16.830  17.725  14.100
38897W        W11322  29.390  42.288  14.770
38898W        W11323  24.738   7.427  14.375
38899W        W11324  10.034   4.919  13.813
38900W        W11325  36.997  39.409   5.024
38901W        W11326  41.863  29.000   1.376
38902W        W11327  40.879  10.837   4.066
38903W        W11328  32.611   5.778   3.670
38904W        W11329   4.752  26.002   0.392
38905W        W11330   4.210   9.914   2.144
38906W        W11331  44.790  23.989   2.187
38907W        W11332  42.766   7.387  12.537
38908W        W11333  32.407  41.259  10.317
38909W        W11334  27.034   8.385   0.399
38910W        W11335  27.495  27.545  12.499
38911W        W11336  35.565   8.639  10.603
38912W        W11337  23.177  10.674   4.513
38913W        W11338  14.662  18.715   0.841
38914W        W11339   7.992  42.272  10.552
38915W        W11340  38.818  27.561   0.519
38916W        W11341  26.545  12.855  10.604
38917W        W11342  17.356  26.939   4.172
38918W        W11343   8.518  12.829   1.348
38919W        W11344  28.104   7.584  11.388
38920W        W11345   3.347  23.171  13.824
38921W        W11346   5.816  40.390  11.619
38922W        W11347  24.669   0.337   4.155
38923W        W11348  43.922   1.713   3.588
38924W        W11349  19.958  18.175   0.789
38925W        W11350  10.876   2.447   1.857
38926W        W11351   1.677  44.272  14.501
38927W        W11352  42.717   3.101  11.155
38928W        W11353  43.452   6.564   4.532
38929W        W11354  27.489  13.352  12.571
38930W        W11355  42.478   6.883  14.165
38931W        W11356   3.966  38.019  14.961
38932W        W11357  33.677  39.815  14.241
38933W        W11358  27.753  40.770   2.262
38934W        W11359  33.868  44.821   4.104
38935W        W11360  25.663  38.847  14.774
38936W        W11361   3.921  31.813   0.862
38937W        W11362  11.683   6.749   3.440
38938W        W11363  43.842  12.271   3.261
38939W        W11364  41.771  33.691  11.556
38940W        W11365  42.838  15.178   1.719
38941W        W11366   8.813  30.037   1.217
38942W        W11367  20.050  41.129   3.700
38943W        W11368  14.257  30.858  13.281
38944W        W11369  41.421  39.919  11.935
38945W        W11370   1.773  16.764  14.688
38946W        W11371   8.956  32.031  11.584
38947W        W11372  40.407  35.165  12.988
38948W        W11373  18.514  39.905   1.292
38949W        W11374  15.579  37.363  11.635
38950W        W11375  20.479  35.081  11.077
38951W        W11376   9.367  15.312   1.167
38952W        W11377  10.798  12.742   2.311
38953W        W11378  23.514  14.494  13.837
38954W        W11379   5.314  28.459   4.923
38955W        W11380   1.957  32.712   3.670
38956W        W11381  40.297  17.276  14.929
38957W        W11382   4.049  16.664  10.494
38958W        W11383   2.439   9.367  12.522
38959W        W11384  34.023  24.045   1.262
38960W        W11385  43.247  23.315  11.173
38961W        W11386  37.365   5.867   5.145
38962W        W11387  14.112   3.862   3.378
38963W        W11388  10.359  18.627   2.609
38964W        W11389  30.624  12.299   1.785
38965W        W11390  16.092   2.317  14.521
38966W        W11391  17.775  21.987   3.325
38967W        W11392   3.181  34.634   4.356
38968W        W11393  38.275  25.703   1.203
38969W        W11394  23.533  37.233  14.315
38970W        W11395  11.831  44.665   0.021
38971W        W11396   0.735  27.014   3.607
38972W        W11397  32.444  41.574   2.850
38973W        W11398   1.869  30.534  11.175
38974W        W11399   3.419  12.130  12.869
38975W        W11400  18.318  22.069   1.117
38976W        W11401  23.177  21.947  14.026
38977W        W11402   5.594  44.802   0.320
38978W        W11403  43.950  35.842   4.566
38979W        W11404  43.545  43.878  12.441
38980W        W11405   8.216  40.111  11.408
38981W        W11406   0.501   0.318  13.967
38982W        W11407   3.774  21.491  12.617
38983W        W11408  25.793   2.417   2.897
38984W        W11409  27.441  28.488  10.932
38985W        W11410  25.434   7.151  13.844
38986W        W11411  11.675  32.292   4.231
38987W        W11412  44.597   6.727   1.339
38988W        W11413  44.228  23.701  11.094
38989W        W11414  39.870   0.448   4.641
38990W        W11415  38.840   3.087  13.284
38991W        W11416   6.191   5.228   1.706
38992W        W11417  29.420  30.381   2.751
38993W        W11418  11.324  27.893  12.581
38994W        W11419   8.248  30.452  12.656
38995W        W11420   9.632  28.176  14.000
38996W        W11421  13.663  35.558   0.697
38997W        W11422  16.138  24.446   1.315
38998W        W11423  13.742  12.175   3.161
38999W        W11424   2.374   7.437   3.924
39000W        W11425  28.728  44.971   0.328
39001W        W11426  33.948   4.994   1.357
39002W        W11427   9.744  21.117  12.986
39003W        W11428  20.192  18.591  11.598
39004W        W11429  25.711  34.649  10.735
39005W        W11430  16.334   9.714  14.809
39006W        W11431   6.818  28.154  13.171
39007W        W11432  25.202   4.257   1.143
39008W        W11433  11.096  26.371  13.017
39009W        W11434  38.517  13.667   4.434
39010W        W11435   0.329  12.072   3.127
39011W        W11436  17.782  27.458  12.117
39012W        W11437  41.535  33.544  10.915
39013W        W11438  37.082  29.192   2.731
39014W        W11439  20.163   9.657   0.406
39015W        W11440   8.513  27.605  13.796
39016W        W11441  33.619   4.273   3.543
39017W        W11442  30.985  25.686   4.068
39018W        W11443  30.612  33.814   4.028
39019W        W11444  42.890  31.934   2.364
39020W        W11445  28.271  35.330   4.133
39021W        W11446  26.095  40.095   1.198
39022W        W11447  36.862  42.552  13.858
39023W        W11448   4.696  41.463   0.227
39024W        W11449  22.510  35.387   2.238
39025W        W11450  12.726   4.735   3.846
39026W        W11451  38.283  39.519   2.128
39027W        W11452   2.272  25.993  13.141
39028W        W11453   7.103  34.441  13.959
39029W        W11454  44.773  34.411   4.460
39030W        W11455  21.480   2.548   2.149
39031W        W11456  24.720  12.822  11.468
39032W        W11457  13.202  41.978   2.338
39033W        W11458  40.980  10.790   1.482
39034W        W11459  24.605  33.104  10.558
39035W        W11460  26.602   7.577  14.270
39036W        W11461  17.623  18.186   2.199
39037W        W11462   4.920  41.809  12.017
39038W        W11463  43.790  15.150  14.762
39039W        W11464   8.878  41.888   4.567
39040W        W11465  38.158  18.102   0.793
39041W        W11466  13.797  43.489  10.675
39042W        W11467  19.093   5.791  12.930
39043W        W11468  29.097  31.407  14.867
39044W        W11469  20.359  12.558  13.945
39045W        W11470  10.122  35.061   0.068
39046W        W11471  15.258  29.514  11.154
39047W        W11472  14.138  34.938   2.248
39048W        W11473  13.078  24.668  13.443
39049W        W11474   0.392  12.060  11.690
39050W        W11475   7.524  38.119   0.737
39051W        W11476  31.971  38.633  12.858
39052W        W11477   0.115  20.834   0.769
39053W        W11478  30.436  41.018  10.206
39054W        W11479  33.018  41.046  10.749
39055W        W11480  16.752  23.872   2.257
39056W        W11481  41.966  29.043  13.010
39057W        W11482  35.023  35.332  10.672
39058W        W11483  41.526  10.173   0.326
39059W        W11484  27.092  41.384   1.474
39060W        W11485  31.995  23.231   0.958
39061W        W11486  18.267   6.441   0.768
39062W        W11487  23.080   1.271  11.290
39063W        W11488  43.550  38.085   1.783
39064W        W11489  40.577  31.804  12.514
39065W        W11490  30.588   3.431  14.054
39066W        W11491  26.295   1.827   2.232
39067W        W11492  18.808  16.064   2.228
39068W        W11493  41.054  26.482  13.415
39069W        W11494   1.003  19.019   0.405
39070W        W11495  33.813   4.533  11.488
39071W        W11496   2.508  39.560  14.987
39072W        W11497  34.613   4.965   4.379
39073W        W11498  15.174   0.980   3.599
39074W        W11499  31.266  23.292   9.635
39075W        W11500  30.368  19.020  13.504
39076W        W11501  38.338  13.888  10.782
39077W        W11502  21.680  38.454  11.503
39078W        W11503  11.857  17.114  13.822
39079W        W11504   2.322  30.567   5.034
39080W        W11505  41.245  37.729   1.532
39081W        W11506  19.973  20.547   2.730
39082W        W11507  37.448  35.083   3.542
39083W        W11508  44.711  13.330  13.442
39084W        W11509  27.577  24.758   0.320
39085W        W11510  15.090  36.051   0.391
39086W        W11511  32.923  13.620   4.649
39087W        W11512  25.965  14.047   0.394
39088W        W11513  36.996  15.881  10.024
39089W        W11514  29.980  12.283   3.451
39090W        W11515  32.921   3.203   0.489
39091W        W11516  23.661  31.848  12.773
39092W        W11517  10.982   1.168   3.168
39093W        W11518  10.861  34.663  13.372
39094W        W11519  26.919  15.486   9.852
39095W        W11520  25.367   9.739   1.244
39096W        W11521  18.214  37.416   2.424
39097W        W11522  32.937   8.344   4.041
39098W        W11523  10.167   0.798   1.842
39099W        W11524   3.996   6.784   0.133
39100W        W11525  29.366  29.236   0.298
39101W        W11526  35.953   7.538   2.027
39102W        W11527  41.433  21.735   3.316
39103W        W11528  15.403   7.286  11.400
39104W        W11529  17.508  33.599   2.610
39105W        W11530  21.988  13.785   2.415
39106W        W11531  35.756  22.710   1.925
39107W        W11532   8.689  15.075   0.460
39108W        W11533  31.168  12.856  12.136
39109W        W11534  20.490  25.064   1.847
39110W        W11535  31.006  13.435  14.032
39111W        W11536  14.765   1.353   3.101
39112W        W11537  12.810  15.888   4.017
39113W        W11538  24.190  17.251  14.355
39114W        W11539   6.327  41.111  14.290
39115W        W11540   8.641  21.535   3.668
39116W        W11541  16.296  32.054  10.598
39117W        W11542  12.583  33.170  14.333
39118W        W11543  12.158  23.949   0.717
39119W        W11544  25.583  15.218  11.602
39120W        W11545  13.626  23.880  11.015
39121W        W11546  18.244  39.669   3.990
39122W        W11547  32.084  14.597  12.612
39123W        W11548  44.690   9.788  13.344
39124W        W11549  42.233  23.672  12.988
39125W        W11550  42.944  12.284  12.661
39126W        W11551  35.514  20.987  13.953
39127W        W11552  34.581   5.847   2.266
39128W        W11553  38.343   4.695  13.482
39129W        W11554  23.277  34.254  12.559
39130W        W11555   0.606  38.297  12.605
39131W        W11556  30.869   9.186  13.437
39132W        W11557  14.600   7.455  13.497
39133W        W11558  14.040  42.307   2.508
39134W        W11559  27.135  43.154  12.503
39135W        W11560  43.778  10.789   1.421
39136W        W11561  33.631  22.916   2.327
39137W        W11562  38.110  12.827   3.684
39138W        W11563  10.537  13.418   2.880
39139W        W11564  19.090  36.517  14.838
39140W        W11565  32.782   6.373  14.705
39141W        W11566  14.328  25.650  11.118
39142W        W11567  32.094  41.009  14.757
39143W        W11568   0.801   1.099  11.959
39144W        W11569  20.655  35.885  13.392
39145W        W11570  32.457  10.552   4.668
39146W        W11571  28.704   1.340   2.025
39147W        W11572  20.866  15.815  11.618
39148W        W11573  43.453  44.386   4.790
39149W        W11574   8.660  18.248  13.294
39150W        W11575  23.419   8.942   0.328
39151W        W11576   5.264  40.383   4.783
39152W        W11577  26.393  18.519   4.095
39153W        W11578  12.900  11.744   0.064
39154W        W11579   5.486  33.164  10.730
39155W        W11580  14.069  35.338  13.856
39156W        W11581   5.002  22.940   1.322
39157W        W11582  26.147  10.813   5.199
39158W        W11583  23.340   5.201  13.094
39159W        W11584  42.220  39.264  14.812
39160W        W11585   7.172   8.672  14.454
39161W        W11586  43.851  38.595   2.253
39162W        W11587  23.950   7.806  10.842
39163W        W11588   4.860  19.095   1.416
39164W        W11589  12.589  26.449   0.363
39165W        W11590  30.166  29.440   3.885
39166W        W11591  39.308   4.851  10.636
39167W        W11592  26.195  24.533   0.963
39168W        W11593  43.320   5.412   2.969
39169W        W11594  40.900  16.930  12.508
39170W        W11595  32.222  28.426  13.996
39171W        W11596  44.242  22.125   0.244
39172W        W11597  11.929  19.627  11.144
39173W        W11598  31.796  27.123  13.724
39174W        W11599  17.172  26.551  14.845
39175W        W11600  36.228   0.375   2.746
39176W        W11601  33.203  14.023   3.597
39177W        W11602   4.004   5.125   0.905
39178W        W11603  25.940  42.429   1.177
39179W        W11604  40.861   1.922  13.345
39180W        W11605  36.760   8.350  13.055
39181W        W11606  14.101   1.111   2.225
39182W        W11607  24.584  30.685   0.470
39183W        W11608  40.421  36.566   1.068
39184W        W11609   2.349  26.819  13.723
39185W        W11610  15.501  37.772  11.123
39186W        W11611  20.922  42.849   4.092
39187W        W11612  33.780  26.497   3.457
39188W        W11613  13.544  38.304   3.567
39189W        W11614  20.134  42.493   1.235
39190W        W11615  24.718  10.771  11.119
39191W        W11616  13.049  11.910  10.247
39192W        W11617  25.090   3.291  14.560
39193W        W11618  22.399  13.161  11.527
39194W        W11619   3.809   6.681  12.447
39195W        W11620  21.272  15.645   2.838
39196W        W11621   9.698  26.657   4.044
39197W        W11622  12.853   2.852   2.624
39198W        W11623  22.942  18.862  13.039
39199W        W11624  20.712   6.600  11.918
39200W        W11625  35.696   6.190   0.888
39201W        W11626  42.868  34.781  10.848
39202W        W11627  30.586  26.675   4.956
39203W        W11628  17.712  26.690   1.494
39204W        W11629  11.431  29.706  11.546
39205W        W11630  19.807   0.815  10.556
39206W        W11631  34.463  22.972   2.646
39207W        W11632   8.371  37.751  14.923
39208W        W11633  26.779  18.926   3.330
39209W        W11634   0.148  17.221   1.245
39210W        W11635  43.725   5.853  10.964
39211W        W11636  37.882  33.010   1.787
39212W        W11637  32.118  35.039   2.608
39213W        W11638   0.678  29.923   0.329
39214W        W11639  42.878  30.367  14.880
39215W        W11640  40.047  11.209  10.653
39216W        W11641  38.439   1.432  13.799
39217W        W11642  40.765  16.874   2.769
39218W        W11643  11.403   4.351  12.781
39219W        W11644   9.406  32.101  14.447
39220W        W11645   6.452  30.425  11.658
39221W        W11646  33.456   2.785  10.577
39222W        W11647  27.628   3.466   1.796
39223W        W11648  31.097  23.164   2.860
39224W        W11649  26.327   9.630  12.962
39225W        W11650  31.971  10.110  10.849
39226W        W11651  12.584  22.495  14.390
39227W        W11652  24.871  21.758  14.896
39228W        W11653  39.042  31.774   3.311
39229W        W11654  22.289  39.912   0.446
39230W        W11655  35.551   1.178   4.614
39231W        W11656  31.192  31.949   4.176
39232W        W11657  35.781   6.660  13.989
39233W        W11658  43.081   7.254   0.648
39234W        W11659   0.281  28.230   0.687
39235W        W11660  27.769  32.115   2.811
39236W        W11661  27.008  35.207  12.521
39237W        W11662  17.124  14.692   2.373
39238W        W11663  11.132   8.234   4.118
39239W        W11664  16.570  22.690  14.366
39240W        W11665   9.278  24.872   4.466
39241W        W11666  41.412  33.089  14.372
39242W        W11667  22.996   6.491   4.270
39243W        W11668   6.350  16.584   2.023
39244W        W11669   9.862  24.954   4.209
39245W        W11670   5.887  26.598  11.095
39246W        W11671  40.262  40.436   5.120
39247W        W11672   6.847  40.819  10.598
39248W        W11673  16.107  38.285  11.591
39249W        W11674  38.856   1.752  10.680
39250W        W11675  19.686  41.144   0.401
39251W        W11676  30.433  35.838  12.045
39252W        W11677   8.116  23.146  14.476
39253W        W11678  37.868  12.691  10.756
39254W        W11679  26.155   1.409  12.444
39255W        W11680  19.802  18.098  11.063
39256W        W11681  19.103  16.116  11.981
39257W        W11682  20.135  36.402   4.346
39258W        W11683  28.240  26.232   2.774
39259W        W11684  43.364   8.349  10.874
39260W        W11685  31.506  13.690   3.282
39261W        W11686  39.582  22.218  12.051
39262W        W11687  16.297  36.913   2.884
39263W        W11688  30.232  28.061   2.299
39264W        W11689  26.867  29.980  11.422
39265W        W11690  39.879  24.539   0.193
39266W        W11691  12.770  35.835  12.399
39267W        W11692  29.318  26.626  13.113
39268W        W11693  31.554  27.863  13.009
39269W        W11694  21.656   5.285  11.052
39270W        W11695  30.558  43.731  11.587
39271W        W11696  39.943  37.337  13.587
39272W        W11697   3.198  20.265   0.404
39273W        W11698  28.708  35.601   0.028
39274W        W11699  31.847  36.474   3.616
39275W        W11700  15.117  29.368  11.680
39276W        W11701  28.217  16.470  14.756
39277W        W11702  12.634  41.016  11.522
39278W        W11703  44.054  17.778  12.446
39279W        W11704   7.977  24.648   5.015
39280W        W11705  40.054  19.036   0.915
39281W        W11706  26.531  43.219   2.375
39282W        W11707  21.548  29.448   0.424
39283W        W11708  34.184  42.908   3.726
39284W        W11709  40.544  39.942   4.285
39285W        W11710  23.783  18.552  13.984
39286W        W11711   0.327  30.417  12.560
39287W        W11712  18.299  27.054  11.001
39288W        W11713  23.598  29.571   4.714
39289W        W11714   6.565   7.760   0.431
39290W        W11715   3.441  18.859   1.045
39291W        W11716  13.981  11.185   2.868
39292W        W11717  14.271  21.680  10.881
39293W        W11718  14.845  21.790   2.701
39294W        W11719  40.589   5.296   1.514
39295W        W11720  19.618  25.036  10.896
39296W        W11721  15.128   6.757   1.426
39297W        W11722  10.715   6.926   0.758
39298W        W11723  39.458  20.957  10.817
39299W        W11724  16.657  25.492  12.992
39300W        W11725  39.373  34.698   0.585
39301W        W11726  33.057  41.594   4.872
39302W        W11727   0.276   7.798  12.884
39303W        W11728  15.087  15.212   0.876
39304W        W11729  18.261   5.229   2.504
39305W        W11730  25.678  36.426   4.124
39306W        W11731   8.402  20.649   2.449
39307W        W11732  27.311  17.668  14.759
39308W        W11733   3.585   4.110  10.907
39309W        W11734   0.909  40.928  12.484
39310W        W11735  19.901   3.249   1.390
39311W        W11736  25.652  31.039  14.322
39312W        W11737  25.261  23.362   0.742
39313W        W11738  22.353   4.578   4.134
39314W        W11739  12.969  21.270  10.966
39315W        W11740  44.626  24.246   3.749
39316W        W11741  37.804  34.757  12.806
39317W        W11742  33.663  21.590   0.508
39318W        W11743   4.236  37.458  14.248
39319W        W11744  41.243  31.951   3.399
39320W        W11745  12.275   0.440   4.473
39321W        W11746   2.421  43.333  12.202
39322W        W11747  33.482  44.579   3.816
39323W        W11748  34.179  25.440   2.933
39324W        W11749  22.589  43.460   3.872
39325W        W11750  19.251  41.814   0.012
39326W        W11751   5.116  27.070  11.557
39327W        W11752  43.239  28.016   1.400
39328W        W11753  43.969  10.366  13.869
39329W        W11754   3.998  29.980  12.417
39330W        W11755  37.661  21.762   2.774
39331W        W11756  44.956  37.562  11.639
39332W        W11757  22.978  19.057  11.519
39333W        W11758  30.874  37.928   2.856
39334W        W11759  17.411  44.889  13.415
39335W        W11760  31.312  20.789   2.270
39336W        W11761  38.476  25.061   4.340
39337W        W11762  21.790  26.183   0.330
39338W        W11763  32.557  40.885   4.374
39339W        W11764   4.824  34.586   2.813
39340W        W11765   9.738  24.072   4.111
39341W        W11766  43.207  43.929  10.723
39342W        W11767  42.071  39.882   2.677
39343W        W11768  25.017  23.085   4.126
39344W        W11769   7.780  30.405   0.427
39345W        W11770  19.649  21.136   1.298
39346W        W11771  27.923  10.274   2.345
39347W        W11772  42.964  25.540  11.051
39348W        W11773  18.043  18.069   1.912
39349W        W11774  30.469  18.704   1.270
39350W        W11775   5.839  41.521  14.710
39351W        W11776  28.280  17.128  12.668
39352W        W11777  43.896  36.287   0.914
39353W        W11778   6.184  29.985  10.363
39354W        W11779  28.682  10.771   2.221
39355W        W11780  32.483   6.001   4.142
39356W        W11781  29.904   4.170   1.720
39357W        W11782  14.968   0.345   4.157
39358W        W11783   2.630  44.668   5.035
39359W        W11784  37.112   5.237   2.767
39360W        W11785   8.382  21.788   3.281
39361W        W11786   4.712  11.828  13.856
39362W        W11787  33.538  26.920  12.546
39363W        W11788  27.182  42.744  14.315
39364W        W11789   2.834  27.080  11.618
39365W        W11790  15.868  36.071   3.160
39366W        W11791   2.786  34.866   3.376
39367W        W11792   9.610  23.029   2.751
39368W        W11793  18.305  42.340   1.309
39369W        W11794  31.564   2.444   1.010
39370W        W11795  25.921   5.387   4.315
39371W        W11796   9.016  34.208   4.292
39372W        W11797  27.989   5.418   4.928
39373W        W11798  22.809  15.628  12.809
39374W        W11799  15.592  40.107   2.444
39375W        W11800  20.958   1.988   4.025
39376W        W11801  30.666  13.766  11.929
39377W        W11802  43.168  17.580   4.831
39378W        W11803   7.404  41.890   3.905
39379W        W11804   3.873   7.328  13.908
39380W        W11805  37.906  27.525  10.794
39381W        W11806  34.348  15.601   1.863
39382W        W11807  37.476  17.565   1.240
39383W        W11808   1.248  24.540  11.568
39384W        W11809  21.565  27.868  13.857
39385W        W11810  28.605   0.281  10.408
39386W        W11811  29.062   1.562   4.620
39387W        W11812  22.031  33.788   0.901
39388W        W11813  16.709  30.430  14.814
39389W        W11814  33.585  33.887  11.979
39390W        W11815  17.818  37.341   4.365
39391W        W11816   5.772  10.552   4.395
39392W        W11817  39.153  37.514  11.477
39393W        W11818  39.763  30.173   1.988
39394W        W11819   7.168  13.238   3.743
39395W        W11820   8.080  10.596  13.405
39396W        W11821  11.603  28.881  13.440
39397W        W11822  27.854  29.074  13.864
39398W        W11823  26.707  32.424   1.745
39399W        W11824  32.425  12.211  11.152
39400W        W11825  23.460  10.718   2.343
39401W        W11826  32.888  36.629   4.156
39402W        W11827  17.218  21.599   0.066
39403W        W11828  22.007  28.014  12.036
39404W        W11829  26.022  35.467   4.132
39405W        W11830  39.602  41.353  12.926
39406W        W11831  31.068  19.567   0.514
39407W        W11832  15.191  22.033   2.324
39408W        W11833  19.134  39.470  11.577
39409W        W11834  15.455  11.951  11.192
39410W        W11835  14.197  28.679   1.436
39411W        W11836  32.016  17.812  13.955
39412W        W11837  24.472  21.421  14.939
39413W        W11838   1.966   7.146  12.850
39414W        W11839  31.882  39.047   3.688
39415W        W11840   9.706  23.578  13.379
39416W        W11841  36.596  29.162  14.710
39417W        W11842   3.323  18.239  12.048
39418W        W11843   9.953   3.990  12.070
39419W        W11844  43.272   2.162  13.140
39420W        W11845  29.661   7.783   1.721
39421W        W11846  26.128  37.883  13.043
39422W        W11847   9.792  23.789   1.300
39423W        W11848  29.015  13.053   0.750
39424W        W11849  35.647   1.601  11.225
39425W        W11850   1.224  22.037   4.567
39426W        W11851  42.047   3.927   2.413
39427W        W11852  23.365  11.859  13.453
39428W        W11853  37.858  37.154  11.028
39429W        W11854  31.480  20.671  10.571
39430W        W11855   4.929  36.321  13.860
39431W        W11856  25.048  21.141   3.575
39432W        W11857  16.192  11.901  10.336
39433W        W11858  22.692  28.222  10.828
39434W        W11859  25.459  37.584   1.842
39435W        W11860  43.906  22.443  10.410
39436W        W11861   9.636  28.592  11.536
39437W        W11862  12.836  34.789  10.805
39438W        W11863   4.956  17.840   1.379
39439W        W11864  12.156  15.621   2.923
39440W        W11865  10.770  28.413  12.005
39441W        W11866  29.115  21.959  14.012
39442W        W11867  15.690  44.851   0.939
39443W        W11868  18.404  42.930  13.863
39444W        W11869  42.355  12.625   4.354
39445W        W11870   7.376  18.235  11.165
39446W        W11871  33.849  35.506   4.545
39447W        W11872  13.573   1.082   2.221
39448W        W11873  39.288   1.681   2.296
39449W        W11874   6.482  17.197   3.720
39450W        W11875  14.252  18.466   4.987
39451W        W11876  29.451   7.759  13.191
39452W        W11877   7.963  10.340  13.876
39453W        W11878  19.043  21.840   4.506
39454W        W11879   0.115  43.938   4.149
39455W        W11880  42.825   0.392   0.893
39456W        W11881   6.837  31.336   0.663
39457W        W11882  30.046   3.572  10.884
39458W        W11883  26.564  10.456   1.006
39459W        W11884  14.653  18.281  14.437
39460W        W11885  12.879   8.300  13.560
39461W        W11886   6.980  27.624  12.538
39462W        W11887  11.147   2.016  13.978
39463W        W11888  24.730  14.378  14.870
39464W        W11889  26.172  12.869   2.024
39465W        W11890  41.256  32.544  12.378
39466W        W11891   8.196  36.494  11.029
39467W        W11892  23.616  37.386   0.366
39468W        W11893  33.617   3.893  10.932
39469W        W11894  34.881  24.659  14.061
39470W        W11895  44.213  26.737  13.598
39471W        W11896  34.785  23.536   2.877
39472W        W11897  43.303  23.697   2.288
39473W        W11898  10.335  37.018   1.963
39474W        W11899   7.383   7.649   2.644
39475W        W11900  13.423  15.314   2.241
39476W        W11901   1.351  12.191  10.787
39477W        W11902  15.544  24.649  11.580
39478W        W11903   7.795   7.315   4.238
39479W        W11904  17.771  24.427  10.765
39480W        W11905  43.544  11.368  13.282
39481W        W11906  35.080  40.321  10.521
39482W        W11907  30.677   0.492   2.647
39483W        W11908  37.426  39.122   4.103
39484W        W11909   0.616  13.611   1.212
39485W        W11910  33.362  41.663  10.555
39486W        W11911  44.598  16.598  14.281
39487W        W11912  39.082  20.205  10.067
39488W        W11913  35.841  16.199   4.018
39489W        W11914  40.895  28.532   2.583
39490W        W11915   5.788  30.021  14.867
39491W        W11916  40.640  40.716  13.516
39492W        W11917  36.788  23.687   1.623
39493W        W11918  37.091  17.255   0.398
39494W        W11919  17.092  22.612   0.930
39495W        W11920  21.509  22.066   2.971
39496W        W11921   0.690   3.310   4.031
39497W        W11922  31.894  32.853  12.965
39498W        W11923   1.948  36.785  11.954
39499W        W11924  17.136  28.449  13.792
39500W        W11925  10.599  21.991   4.091
39501W        W11926  23.508  28.150   1.912
39502W        W11927  16.503  12.605   2.765
39503W        W11928  31.983  14.771   1.804
39504W        W11929   1.765  14.096   0.265
39505W        W11930   8.176  18.079   0.275
39506W        W11931  10.530  36.933   2.434
39507W        W11932   8.666  41.831  14.854
39508W        W11933  26.166  41.947   1.365
39509W        W11934   2.285  21.607   1.013
39510W        W11935   4.424  18.390  12.134
39511W        W11936  23.990  32.342   2.462
39512W        W11937  21.107  27.708   3.372
39513W        W11938  44.624  44.428   3.781
39514W        W11939  21.790  13.050  10.087
39515W        W11940  30.423  30.914   4.580
39516W        W11941  23.564  29.743  13.808
39517W        W11942  27.128   3.492   0.663
39518W        W11943  35.590  17.675   2.091
39519W        W11944   7.720   8.684   5.206
39520W        W11945  40.603  40.996   1.546
39521W        W11946   8.227  26.225   5.081
39522W        W11947  38.972  32.631  13.430
39523W        W11948   9.848  11.617   0.332
39524W        W11949  17.792  32.477  11.078
39525W        W11950   6.780   4.720   2.597
39526W        W11951  28.706  30.013  11.941
39527W        W11952  20.143   9.898   3.316
39528W        W11953  41.864  40.380  14.525
39529W        W11954  41.761  34.282   5.114
39530W        W11955  12.035   6.683  14.461
39531W        W11956   3.783  18.458   1.145
39532W        W11957  22.488  42.611  12.049
39533W        W11958   5.411   1.367   4.460
39534W        W11959  33.944  22.294   3.694
39535W        W11960  40.977  27.001   3.377
39536W        W11961   2.195  35.977  14.376
39537W        W11962  14.808  42.804   4.526
39538W        W11963  20.658   0.003  14.361
39539W        W11964  27.719  24.942  10.730
39540W        W11965  16.965  43.224   3.234
39541W        W11966   7.785   2.792  14.380
39542W        W11967   9.194  22.167  12.469
39543W        W11968  17.976  31.457  11.968
39544W        W11969   5.278  29.574  13.036
39545W        W11970  41.668  15.361  13.296
39546W        W11971   9.391  15.112  12.829
39547W        W11972  14.735  35.833   4.539
39548W        W11973  36.873  35.872   2.807
39549W        W11974  27.465  26.631   1.702
39550W        W11975  16.923  44.756  13.342
39551W        W11976  25.281   5.730  10.695
39552W        W11977  39.508  32.158  12.864
39553W        W11978  19.066  17.624   0.068
39554W        W11979  28.807   6.631  12.929
39555W        W11980  14.318   5.022  13.992
39556W        W11981  30.261  33.149   0.366
39557W        W11982  28.596   3.340   5.165
39558W        W11983  28.488  28.389   3.284
39559W        W11984   3.756  42.356  13.007
39560W        W11985  34.002  42.349  10.771
39561W        W11986  39.213  28.593  14.027
39562W        W11987  24.961  13.188   4.126
39563W        W11988   1.711   4.204   1.441
39564W        W11989   8.695  39.744   4.239
39565W        W11990  27.635  38.206   0.247
39566W        W11991  18.566  26.729   2.122
39567W        W11992  34.876  36.623  11.586
39568W        W11993  24.022  28.876  12.062
39569W        W11994  26.023  12.770  11.182
39570W        W11995  43.321  25.073   0.872
39571W        W11996  19.962  35.272  11.889
39572W        W11997   2.982  27.660  10.764
39573W        W11998  32.029   0.796   2.519
39574W        W11999  14.173   5.747  13.249
39575W        W12000  22.064  24.130  10.672
39576W        W12001  17.506  39.800   2.211
39577W        W12002  38.100   9.677   2.322
39578W        W12003   4.716  14.560  11.136
39579W        W12004   6.011  15.179  13.959
39580W        W12005  37.631  12.792   2.725
39581W        W12006  15.837   9.314  12.431
39582W        W12007   5.511   4.899   1.947
39583W        W12008   0.897   1.815   1.981
39584W        W12009  24.531  44.549  12.105
39585W        W12010  19.503  16.099  14.098
39586W        W12011   9.867  24.179   3.075
39587W        W12012  41.883  39.392  10.436
39588W        W12013  31.044  23.237  13.920
39589W        W12014  42.006  31.436   4.682
39590W        W12015  37.633  43.373   2.758
39591W        W12016  38.988  28.392  11.591
39592W        W12017  19.639   8.295  12.509
39593W        W12018  33.981  14.827  11.668
39594W        W12019  17.163  35.802  13.549
39595W        W12020  15.353  43.849   2.396
39596W        W12021   0.917  20.266  12.468
39597W        W12022  39.360  29.014  11.974
39598W        W12023  26.955  40.874  14.154
39599W        W12024  14.665   6.835   0.709
39600W        W12025  11.790  44.165  14.841
39601W        W12026  25.697   5.813   0.310
39602W        W12027  13.790  30.845  13.078
39603W        W12028  16.246  27.603   0.018
39604W        W12029  44.109  18.654  11.104
39605W        W12030  12.442  22.496   5.064
39606W        W12031  26.643  23.176  14.546
39607W        W12032  28.051   6.120  13.063
39608W        W12033  20.045   7.836  12.046
39609W        W12034  18.235  10.543   4.676
39610W        W12035  19.838   0.964  11.959
39611W        W12036  38.402  15.753   1.449
39612W        W12037  25.149   0.791  13.964
39613W        W12038  31.028  22.413   4.074
39614W        W12039  42.207   3.742  12.103
39615W        W12040  17.670  36.661   3.768
39616W        W12041   2.957  28.116  13.170
39617W        W12042  11.751  10.235  13.146
39618W        W12043  20.210  32.722   4.122
39619W        W12044  18.096   1.663  10.663
39620W        W12045  22.472   8.854   2.417
39621W        W12046  29.420  24.921   0.807
39622W        W12047  34.988  16.710  14.774
39623W        W12048  38.585  22.124  12.804
39624W        W12049   0.868  41.616   1.893
39625W        W12050  40.861  19.287   2.688
39626W        W12051  14.839  20.294  13.002
39627W        W12052  32.815  31.744  14.798
39628W        W12053   8.641  15.666  12.448
39629W        W12054   0.363  12.790   3.964
39630W        W12055  44.894  41.706   4.679
39631W        W12056  34.797  14.078   0.767
39632W        W12057  17.811  15.328   2.272
39633W        W12058  18.380  33.675   4.580
39634W        W12059  17.693  34.931   4.770
39635W        W12060   3.728   5.771  12.416
39636W        W12061  15.170  35.053  14.414
39637W        W12062   4.874  33.248  13.377
39638W        W12063  33.968  22.681  14.483
39639W        W12064  10.675  16.792   4.862
39640W        W12065  20.233  35.119  10.628
39641W        W12066   8.700   0.980  12.517
39642W        W12067  29.482   1.548  11.204
39643W        W12068  17.078  41.545   0.368
39644W        W12069  34.857   3.321   2.188
39645W        W12070  37.770  24.775  12.086
39646W        W12071  36.447  19.397   0.096
39647W        W12072  22.309  43.557  12.440
39648W        W12073  44.364  36.095  12.573
39649W        W12074  23.193  40.420  13.007
39650W        W12075   1.536  16.576   2.891
39651W        W12076  35.153  44.648   4.567
39652W        W12077  40.903  26.477  11.218
39653W        W12078  20.943  16.318   3.877
39654W        W12079   6.723  28.095  10.872
39655W        W12080  44.410  33.000  13.899
39656W        W12081  24.809  40.098   3.197
39657W        W12082  26.242  19.019   3.299
39658W        W12083  23.069  26.076  10.327
39659W        W12084  10.805   7.358  11.426
39660W        W12085  25.999  10.435   2.702
39661W        W12086   2.236  26.737  12.317
39662W        W12087  28.202  25.621   0.404
39663W        W12088   9.709  34.339   1.439
39664W        W12089   0.697  37.467  10.947
39665W        W12090  40.701   3.250   4.030
39666W        W12091  13.627  44.015  13.295
39667W        W12092  16.727  42.565   3.716
39668W        W12093  13.847  27.925   4.612
39669W        W12094   1.739  15.401  12.907
39670W        W12095  29.017   1.646   3.691
39671W        W12096  14.356  31.902   3.796
39672W        W12097  32.092   5.224  14.544
39673W        W12098  12.558  28.962   4.062
39674W        W12099  29.241  20.879   4.250
39675W        W12100  37.486  13.342  11.108
39676W        W12101  26.109  19.625  14.840
39677W        W12102   1.878  13.048  13.612
39678W        W12103   5.698  17.873   2.956
39679W        W12104   3.187  20.665   0.766
39680W        W12105   2.808   4.315   4.692
39681W        W12106  20.633   4.383  12.904
39682W        W12107  34.554  23.735   3.748
39683W        W12108  28.613   1.651   0.373
39684W        W12109  12.153   4.853   4.699
39685W        W12110  33.102  20.083  12.438
39686W        W12111  40.912   0.918  10.568
39687W        W12112   0.462  24.694   2.772
39688W        W12113  26.427  14.882   4.235
39689W        W12114  31.596   3.964  12.877
39690W        W12115  19.869  32.661  11.994
39691W        W12116  20.046  41.215  12.166
39692W        W12117  34.387  20.155  13.458
39693W        W12118  35.541  23.652   1.312
39694W        W12119  13.286   4.901  13.189
39695W        W12120  20.756  31.456   0.845
39696W        W12121  27.332   3.891   2.736
39697W        W12122  23.731  16.104   3.186
39698W        W12123   9.706  43.715   1.433
39699W        W12124   1.384  27.878   2.776
39700W        W12125  23.096  18.687   1.770
39701W        W12126  10.225  41.366   0.463
39702W        W12127   4.427  21.162   3.220
39703W        W12128  30.892  22.372  11.232
39704W        W12129   4.838  23.521   1.742
39705W        W12130  23.256  13.714   0.289
39706W        W12131   2.985  19.048  11.615
39707W        W12132   0.876  18.192  14.889
39708W        W12133  24.000  26.826   3.753
39709W        W12134  37.276   7.080  13.852
39710W        W12135   2.698  27.560   0.707
39711W        W12136  42.698  15.718   0.406
39712W        W12137  15.278   0.451   4.566
39713W        W12138  44.272  24.070   2.163
39714W        W12139   2.305   3.676  12.487
39715W        W12140  22.751  25.149  12.044
39716W        W12141  31.577  44.737  10.608
39717W        W12142  26.997   9.678   3.630
39718W        W12143   9.078   4.385   0.061
39719W        W12144   1.924  37.005  14.809
39720W        W12145  19.740  29.436   0.767
39721W        W12146  29.948  31.962  14.099
39722W        W12147  20.676  39.581   2.719
39723W        W12148  37.266  39.811   4.829
39724W        W12149  15.820   4.439   3.809
39725W        W12150  21.887  17.704   3.718
39726W        W12151  22.772  18.139  14.466
39727W        W12152  26.515  19.293  13.704
39728W        W12153  10.513  33.363  10.733
39729W        W12154   8.943  28.608   4.665
39730W        W12155  24.503   8.356  11.540
39731W        W12156   9.441  13.364   4.099
39732W        W12157  18.982  30.510  13.503
39733W        W12158  34.283  16.382   4.131
39734W        W12159   5.717  39.929   1.482
39735W        W12160  30.839  25.506   2.724
39736W        W12161  11.231   9.784  10.723
39737W        W12162   0.780   7.717   1.225
39738W        W12163  35.726  22.492   3.492
39739W        W12164  23.027  26.346  12.934
39740W        W12165  40.406  33.556  14.553
39741W        W12166  32.639  18.156  14.793
39742W        W12167  33.012  36.476  13.111
39743W        W12168   8.621   4.198   4.542
39744W        W12169  28.152  18.708   1.671
39745W        W12170  11.641  18.577  13.440
39746W        W12171  16.661  23.218   0.936
39747W        W12172  40.407  21.787   2.785
39748W        W12173  42.077  38.734  14.738
39749W        W12174  29.178  40.324   3.872
39750W        W12175  13.064  32.458   2.852
39751W        W12176  11.849   3.328   3.349
39752W        W12177  27.180  44.767  13.533
39753W        W12178   0.578  32.061  13.821
39754W        W12179  29.289  35.290   0.740
39755W        W12180  10.599  16.096   3.342
39756W        W12181  40.232  29.963  12.487
39757W        W12182  16.631  13.650  13.746
39758W        W12183   6.415  19.250   3.980
39759W        W12184  15.802  34.168  12.068
39760W        W12185  38.469  16.013  11.683
39761W        W12186   9.899  27.740  14.016
39762W        W12187   8.783   7.680   4.464
39763W        W12188  36.906  24.168   4.280
39764W        W12189   0.428  41.222   1.274
39765W        W12190  14.956  27.130   3.223
39766W        W12191  42.724   2.918   2.477
39767W        W12192   9.746  24.299   1.127
39768W        W12193  20.242  26.660   4.745
39769W        W12194  16.124  36.514   3.168
39770W        W12195  12.839  18.090  13.422
39771W        W12196  21.556  44.839  11.557
39772W        W12197  10.681  25.992  12.159
39773W        W12198   8.571  39.152  13.865
39774W        W12199  13.346  19.294   4.673
39775W        W12200   0.365  42.251  14.881
39776W        W12201   4.938  27.128   5.050
39777W        W12202  30.564  10.648  10.793
39778W        W12203  38.952  39.243   4.768
39779W        W12204  23.457  31.990   4.106
39780W        W12205  24.470  30.577   2.703
39781W        W12206  11.193  15.304  12.471
39782W        W12207  21.273  44.323   2.686
39783W        W12208   3.851  22.785   2.203
39784W        W12209  44.746  31.644  14.520
39785W        W12210  13.313  39.621   4.913
39786W        W12211  25.556  34.835  11.199
39787W        W12212  21.558  12.273   9.838
39788W        W12213  18.164  23.248  10.916
39789W        W12214   2.994  34.589  11.042
39790W        W12215  25.662   5.280  12.392
39791W        W12216   6.350  24.684   2.449
39792W        W12217  43.998   3.979  12.724
39793W        W12218  26.043  33.912   1.814
39794W        W12219   8.681   3.199   0.262
39795W        W12220  16.550  29.604  11.711
39796W        W12221  16.273   3.840  14.426
39797W        W12222  39.250  20.603  14.465
39798W        W12223  35.830  38.611  11.412
39799W        W12224   3.933  34.062   2.621
39800W        W12225   5.094  27.653   4.562
39801W        W12226  38.815   2.759  10.398
39802W        W12227  38.960  15.227   2.928
39803W        W12228  22.230  24.187   2.799
39804W        W12229  10.779  14.041   0.637
39805W        W12230  28.574   3.846   1.415
39806W        W12231  29.513  32.657  13.777
39807W        W12232   0.521  24.130   4.675
39808W        W12233  20.560   4.438  14.535
39809W        W12234  39.917  25.060   1.251
39810W        W12235   7.613   2.817   2.694
39811W        W12236  11.218   1.899   4.999
39812W        W12237  25.529  13.737   1.314
39813W        W12238  29.799  11.849  12.082
39814W        W12239  43.233  18.596  10.798
39815W        W12240  11.166   9.173   2.787
39816W        W12241  17.558  12.915   0.890
39817W        W12242   4.350  29.324  14.973
39818W        W12243  39.966  20.020   5.264
39819W        W12244   2.899  33.691  10.534
39820W        W12245  15.296  39.970  11.980
39821W        W12246   3.154  34.568   2.425
39822W        W12247   8.649  33.600  12.367
39823W        W12248  27.101  11.706  10.224
39824W        W12249  16.657  39.939   0.238
39825W        W12250  21.163  26.846  13.542
39826W        W12251   7.894  17.672   3.673
39827W        W12252  35.558  44.291  11.990
39828W        W12253  40.322  33.968  10.450
39829W        W12254   9.832  10.203  12.144
39830W        W12255   3.284   9.631   2.032
39831W        W12256   3.466  30.080  10.886
39832W        W12257  31.052   7.397  12.626
39833W        W12258  35.627  13.020   0.137
39834W        W12259  24.571  31.535   4.064
39835W        W12260  40.034  28.949  12.433
39836W        W12261  12.748  23.419  11.964
39837W        W12262   8.595  44.218   0.161
39838W        W12263  27.504  12.585   0.648
39839W        W12264  23.054  36.336  11.610
39840W        W12265  27.557  37.180   0.403
39841W        W12266  26.442  21.038  11.026
39842W        W12267  32.122  44.910  14.906
39843W        W12268  34.651  42.708   1.749
39844W        W12269  11.218  40.931  12.337
39845W        W12270   0.762  19.539  11.538
39846W        W12271   8.857   7.185  12.502
39847W        W12272  26.183   5.886   0.383
39848W        W12273  44.277  42.081  11.399
39849W        W12274  32.503  18.148  13.208
39850W        W12275  26.807  44.945  14.846
39851W        W12276  24.120  42.979   2.917
39852W        W12277  34.415  19.290  13.553
39853W        W12278  21.700  21.044  14.132
39854W        W12279   4.717   7.373   0.330
39855W        W12280  19.827  39.865  13.008
39856W        W12281  29.565  26.436  14.544
39857W        W12282   6.300  20.231   0.974
39858W        W12283   1.009  30.268   4.945
39859W        W12284  20.118  11.402   0.046
39860W        W12285   0.899   5.667   4.134
39861W        W12286  38.252   6.514   2.738
39862W        W12287   1.245   6.694   1.996
39863W        W12288  23.947  41.955   0.889
39864W        W12289  41.415   8.729  13.145
39865W        W12290   9.628  39.905   0.403
39866W        W12291  38.906  38.334  14.036
39867W        W12292  27.260  37.429  13.014
39868W        W12293  39.881   8.763  13.445
39869W        W12294  27.710  42.374   0.886
39870W        W12295   2.136  34.523  13.672
39871W        W12296  42.541  19.889  13.902
39872W        W12297  42.034  25.946  12.128
39873W        W12298  23.160  17.816   2.933
39874W        W12299  23.419  22.298   4.426
39875W        W12300  15.069  41.945  12.139
39876W        W12301   5.830  28.092   4.254
39877W        W12302  23.191  26.905  14.803
39878W        W12303   7.295  43.308  13.480
39879W        W12304  30.480  42.256  11.340
39880W        W12305  11.001  19.760   4.578
39881W        W12306  22.217  20.244   1.260
39882W        W12307  33.192   8.697   4.708
39883W        W12308  20.018  32.104   0.823
39884W        W12309  29.102  28.168  13.797
39885W        W12310  28.377  43.058   2.747
39886W        W12311  21.729  21.183   5.108
39887W        W12312  14.070  21.817   3.641
39888W        W12313  29.282  31.888  14.840
39889W        W12314  17.658  29.149  10.460
39890W        W12315   5.638  25.942   3.645
39891W        W12316  19.653  28.572  13.522
39892W        W12317  36.934  38.505   0.162
39893W        W12318  20.806  43.239  12.485
39894W        W12319  18.124   4.659  12.495
39895W        W12320   1.235  16.261   4.894
39896W        W12321  36.216  17.594   4.092
39897W        W12322  35.228  43.515   3.369
39898W        W12323  21.634   6.386  11.782
39899W        W12324  14.710  26.168   1.297
39900W        W12325   8.175   0.742   4.380
39901W        W12326  41.060  42.483   3.657
39902W        W12327  41.544  14.105  14.547
39903W        W12328  32.404  16.368   2.314
39904W        W12329  21.296   2.109  11.554
39905W        W12330   8.823  11.840   1.894
39906W        W12331  41.368   0.505   4.665
39907W        W12332   2.279  15.834  14.733
39908W        W12333  43.942   6.697   0.490
39909W        W12334   7.601  25.244  14.398
39910W        W12335  23.110   0.946  13.049
39911W        W12336  22.472  26.117  13.553
39912W        W12337  10.125  13.658   1.982
39913W        W12338  19.768  14.520   3.826
39914W        W12339  33.256  20.031  12.937
39915W        W12340  42.009  35.299   3.805
39916W        W12341  42.449  40.716   1.258
39917W        W12342  30.368  40.009   2.536
39918W        W12343  16.577  15.233   1.805
39919W        W12344  31.336   9.732   1.213
39920W        W12345   9.002   9.412   2.675
39921W        W12346  23.664  12.761  13.216
39922W        W12347  43.411  22.538   3.662
39923W        W12348  15.791  37.000   3.156
39924W        W12349  27.557  30.135   3.534
39925W        W12350  10.580  24.510   9.787
39926W        W12351  13.351  16.287   0.593
39927W        W12352  44.905  26.231  14.407
39928W        W12353  32.056  28.988  13.308
39929W        W12354  16.683   7.794  11.145
39930W        W12355  18.516  41.497   2.145
39931W        W12356  28.413   0.368   4.264
39932W        W12357  39.448   0.213   0.155
39933W        W12358  21.592   0.673  13.081
39934W        W12359  42.697   8.300  12.476
39935W        W12360   9.410  41.972   4.732
39936W        W12361  39.283  26.672  11.733
39937W        W12362  32.513   8.383  10.997
39938W        W12363  12.360  26.914  12.519
39939W        W12364  35.455  32.052  11.169
39940W        W12365  39.978  10.475  14.356
39941W        W12366   5.182  24.080   0.267
39942W        W12367   9.828  41.567   1.402
39943W        W12368   2.293   5.625  13.886
39944W        W12369  41.991  25.195   3.316
39945W        W12370   7.018  30.918   0.386
39946W        W12371  39.996  43.403  13.896
39947W        W12372  13.023  38.921  13.979
39948W        W12373  27.099  32.123  12.534
39949W        W12374  18.848  33.398  12.405
39950W        W12375  44.994  44.073   3.668
39951W        W12376  31.558   9.666  11.537
39952W        W12377   4.758  16.750  14.478
39953W        W12378   8.923  15.545   1.308
39954W        W12379  43.009  44.351  10.467
39955W        W12380   0.327  37.429   0.785
39956W        W12381  41.806  18.301   2.299
39957W        W12382  10.149  13.808   0.381
39958W        W12383  37.773  22.525   3.740
39959W        W12384  16.050  14.650   3.222
39960W        W12385  32.117   8.439  13.237
39961W        W12386  11.461  40.169   5.231
39962W        W12387  23.944  15.791  10.185
39963W        W12388  39.414  44.301  12.175
39964W        W12389  13.062  30.072  10.890
39965W        W12390  33.437   1.181  10.647
39966W        W12391  19.282   4.360   2.120
39967W        W12392   8.208  11.815  14.046
39968W        W12393   6.471   8.991  11.581
39969W        W12394  16.115  39.829   3.053
39970W        W12395  13.470  23.565  14.431
39971W        W12396  15.752  11.701   4.600
39972W        W12397  17.899  26.487   5.028
39973W        W12398   6.993   2.825  12.103
39974W        W12399  31.701   7.829  11.190
39975W        W12400   2.086  13.641   0.248
39976W        W12401  19.371  22.347  14.001
39977W        W12402  21.943  22.528   3.257
39978W        W12403  13.305   9.082   0.842
39979W        W12404  13.101   2.795   4.206
39980W        W12405  42.485  44.961   3.393
39981W        W12406  34.883  32.490  13.584
39982W        W12407  32.181   7.542  13.678
39983W        W12408   3.255  41.027   1.859
39984W        W12409  22.778  18.203  11.001
39985W        W12410  36.061  14.516  14.206
39986W        W12411  16.568   3.277   1.209
39987W        W12412  26.139  34.823  14.449
39988W        W12413  37.408  28.578  13.988
39989W        W12414  12.589  17.147   2.134
39990W        W12415  37.741   4.865  10.830
39991W        W12416  44.458  32.986   0.396
39992W        W12417  23.678   5.397   1.752
39993W        W12418  19.576   8.243  14.755
39994W        W12419   1.684  14.099   3.316
39995W        W12420  37.971  29.884   0.391
39996W        W12421  24.899  37.472  12.428
39997W        W12422  31.185  14.810   4.518
39998W        W12423  36.447   3.265  11.161
39999W        W12424  17.086  12.315   1.755
40000W        W12425  34.706  30.958   4.575
40001W        W12426  15.638  40.536   3.743
40002W        W12427  30.644  16.918  14.377
40003W        W12428  30.027  13.101  12.779
40004W        W12429  21.561   6.936  13.019
40005W        W12430   6.937  29.433   0.923
40006W        W12431   4.468  40.774   2.833
40007W        W12432   1.155   0.016   4.918
40008W        W12433  24.131  20.680  13.968
40009W        W12434  12.887  29.461  12.658
40010W        W12435  44.898   7.822   0.972
40011W        W12436  15.426  26.005   2.808
40012W        W12437   2.663  31.950   0.356
40013W        W12438  30.488  10.430  13.352
40014W        W12439   3.496  21.665  12.043
40015W        W12440  29.194  10.302  10.640
40016W        W12441  40.339  11.775  12.141
40017W        W12442  28.198  25.516  12.942
40018W        W12443  29.613  43.711   2.702
40019W        W12444  31.935   4.949   2.303
40020W        W12445  14.781  23.012   3.686
40021W        W12446  24.116   8.361   2.657
40022W        W12447  14.315  20.886   2.412
40023W        W12448   5.745   8.894   1.506
40024W        W12449  35.795  33.704   4.155
40025W        W12450   9.600  29.988  11.951
40026W        W12451  13.877   3.374  13.756
40027W        W12452  24.463  14.316   4.751
40028W        W12453  21.717  37.919  11.169
40029W        W12454  18.278  27.940   0.697
40030W        W12455   2.825  40.768   0.393
40031W        W12456   6.123  30.996   1.205
40032W        W12457  32.124  41.193   5.039
40033W        W12458  40.764  44.183  13.058
40034W        W12459  18.579   4.917   2.838
40035W        W12460   0.141   9.939  12.990
40036W        W12461   7.884   8.165  12.656
40037W        W12462  42.881  18.350   4.275
40038W        W12463  39.774   1.521  13.069
40039W        W12464  34.826   3.332   1.279
40040W        W12465  26.669  15.555   2.026
40041W        W12466  30.440   3.815   3.375
40042W        W12467  25.561  13.492  14.922
40043W        W12468  23.493  28.562   3.587
40044W        W12469   7.597  12.328  11.972
40045W        W12470  15.071  30.620  13.885
40046W        W12471  34.357  35.265   3.239
40047W        W12472  35.535  31.636   1.297
40048W        W12473  19.098  28.656  14.927
40049W        W12474   0.350   8.812   4.344
40050W        W12475  21.027  15.064  10.778
40051W        W12476  38.785  35.866   0.905
40052W        W12477  28.203  31.547  12.874
40053W        W12478   9.836  40.881   4.246
40054W        W12479  33.398  38.409   2.442
40055W        W12480  41.308   5.710   2.360
40056W        W12481  13.187  41.241   0.306
40057W        W12482   1.068   1.235  14.707
40058W        W12483  14.270  29.422   2.424
40059W        W12484  19.195   3.212   2.223
40060W        W12485  34.437  14.209  11.145
40061W        W12486  24.433  21.192   4.057
40062W        W12487  37.481  18.241  10.824
40063W        W12488  41.932  37.869   4.608
40064W        W12489   1.047  22.705  12.460
40065W        W12490  30.523  13.800  14.462
40066W        W12491  10.153   0.153   4.127
40067W        W12492  36.511  18.602  11.211
40068W        W12493   4.813  33.500   5.014
40069W        W12494  21.940  34.499  14.218
40070W        W12495   3.435  16.627   3.088
40071W        W12496   2.703  21.147  13.405
40072W        W12497  14.564  17.592  11.731
40073W        W12498  28.423   9.665   1.663
40074W        W12499   1.876  26.232   0.413
40075W        W12500  23.747  10.721   4.293
40076W        W12501  35.620   3.685   0.650
40077W        W12502  13.232  16.710  14.937
40078W        W12503  29.110   6.399   3.136
40079W        W12504  42.858  14.367   3.812
40080W        W12505  26.763  42.880  13.633
40081W        W12506  29.684  42.816  13.500
40082W        W12507  14.163  37.597  14.482
40083W        W12508  36.909  36.644   1.335
40084W        W12509   1.831  27.809   3.598
40085W        W12510  25.627  39.647  12.042
40086W        W12511   1.473  34.155   3.259
40087W        W12512   2.860  36.304   1.690
40088W        W12513  36.627  43.339  10.712
40089W        W12514   1.907   0.092  11.671
40090W        W12515  35.387  16.562  11.230
40091W        W12516  26.804   9.163   1.651
40092W        W12517  13.146  15.994   0.964
40093W        W12518   1.353  28.691   4.691
40094W        W12519  20.587  11.669  13.402
40095W        W12520  35.051  33.309   4.562
40096W        W12521  19.642  19.586   2.712
40097W        W12522   7.713  12.780  11.741
40098W        W12523  32.460  20.516  11.920
40099W        W12524  24.177  44.325  14.920
40100W        W12525  33.321  37.455  13.437
40101W        W12526  25.385  38.017  10.748
40102W        W12527   4.220  18.479  11.269
40103W        W12528  10.498  35.709   1.895
40104W        W12529  16.068  26.655   1.881
40105W        W12530  37.721  38.532   2.829
40106W        W12531  11.435  42.653  12.506
40107W        W12532  29.981  41.904  13.538
40108W        W12533  23.792   7.450  12.229
40109W        W12534  44.599  35.937  11.602
40110W        W12535  28.556  40.044   1.660
40111W        W12536   5.716  11.587   0.021
40112W        W12537  35.484  27.728  10.503
40113W        W12538  43.313  27.732  11.660
40114W        W12539  37.085  18.743   3.408
40115W        W12540  32.859   6.277  12.413
40116W        W12541  35.661  27.376   2.752
40117W        W12542   6.646  33.651  11.227
40118W        W12543  39.407  14.354  11.598
40119W        W12544  41.587   0.327  13.789
40120W        W12545  13.593  18.609   3.253
40121W        W12546  17.579  11.129   0.037
40122W        W12547  38.617  14.536   3.863
40123W        W12548  38.464  23.044  10.602
40124W        W12549  32.881  34.240   0.706
40125W        W12550  42.900  31.661   4.431
40126W        W12551   6.357   2.747  10.786
40127W        W12552  32.707  18.997  13.945
40128W        W12553  28.936   3.018   4.953
40129W        W12554  30.455  18.515  10.961
40130W        W12555  20.139  33.936  11.650
40131W        W12556  38.398  28.646   4.617
40132W        W12557  25.238  36.398  13.988
40133W        W12558   0.725  26.518   0.850
40134W        W12559  17.786  14.253  14.291
40135W        W12560  37.415  17.029  14.841
40136W        W12561  13.815  32.955  12.892
40137W        W12562  26.112  16.607   3.695
40138W        W12563   1.279  13.589  11.690
40139W        W12564  18.618  41.966  13.358
40140W        W12565  41.363  35.983   3.874
40141W        W12566  34.166  28.900  14.792
40142W        W12567   7.258  39.672  13.702
40143W        W12568  23.972  43.890   3.159
40144W        W12569  35.581   7.197   1.899
40145W        W12570  17.296  31.050   4.772
40146W        W12571  13.830  10.816  11.974
40147W        W12572  31.903  39.770   2.948
40148W        W12573  10.523  29.629   2.844
40149W        W12574  14.086  40.481   1.505
40150W        W12575  21.148  44.762  14.453
40151W        W12576  40.538  20.946  11.656
40152W        W12577  22.663   4.748   4.583
40153W        W12578  10.615  38.906   0.630
40154W        W12579   2.387   4.543  11.191
40155W        W12580  35.837  17.772  12.020
40156W        W12581  19.215  35.372  12.578
40157W        W12582  10.907  23.971  12.985
40158W        W12583  13.635  27.126  13.457
40159W        W12584  30.187  18.571  12.376
40160W        W12585  22.810   8.309  12.862
40161W        W12586  32.222  23.525   1.321
40162W        W12587  38.431  19.601   1.919
40163W        W12588  39.273  13.726  10.836
40164W        W12589  43.324  43.955   3.716
40165W        W12590  16.616  34.416   0.778
40166W        W12591  23.024   1.901  11.017
40167W        W12592  25.755  39.992  12.381
40168W        W12593  29.740  29.927   2.190
40169W        W12594  23.166  34.995  14.330
40170W        W12595  12.111   7.182   2.274
40171W        W12596  38.973  10.283  10.603
40172W        W12597  35.215  21.730  11.010
40173W        W12598  26.579  35.983  12.831
40174W        W12599  24.770   8.732  13.923
40175W        W12600   7.667   3.970   2.470
40176W        W12601  21.372  31.543   4.059
40177W        W12602  21.236  10.014   5.063
40178W        W12603  25.007  33.988  13.876
40179W        W12604   7.824  18.794   0.474
40180W        W12605  15.357  27.518   2.857
40181W        W12606  26.613  34.064  10.293
40182W        W12607  37.355  13.590   1.327
40183W        W12608  35.932   2.268  13.469
40184W        W12609  44.758  23.814   4.941
40185W        W12610  18.742  25.208   4.480
40186W        W12611  19.919  17.970   1.642
40187W        W12612  26.979   8.397  13.059
40188W        W12613  36.723  18.932   5.132
40189W        W12614  44.285  36.475   2.670
40190W        W12615  17.854   6.281   2.327
40191W        W12616  27.055  33.483  12.800
40192W        W12617  42.362  12.831   0.958
40193W        W12618  16.572  41.694  12.870
40194W        W12619  19.783  23.493  11.499
40195W        W12620  26.484  10.077  11.673
40196W        W12621  37.021  12.206  12.315
40197W        W12622  42.429  22.113  12.016
40198W        W12623  27.721  28.491   2.056
40199W        W12624  31.190  28.669  12.583
40200W        W12625  32.162  41.595  12.851
40201W        W12626  29.937  42.478  13.812
40202W        W12627   2.253  34.476   2.901
40203W        W12628  23.599  22.456   1.870
40204W        W12629  39.057  37.497  14.312
40205W        W12630  32.035  16.573   3.192
40206W        W12631   1.681  21.221  13.568
40207W        W12632  10.854   6.345  11.594
40208W        W12633  20.932   8.741   3.391
40209W        W12634  35.796  31.015   2.765
40210W        W12635  14.713  36.470  10.692
40211W        W12636  15.262  13.220   2.565
40212W        W12637   7.464  18.274   3.221
40213W        W12638  21.771  26.043   4.193
40214W        W12639  14.771  18.261   1.503
40215W        W12640  13.828  13.871   0.374
40216W        W12641  31.090  30.331   1.019
40217W        W12642  34.403   6.872   2.854
40218W        W12643  11.537  21.098   0.365
40219W        W12644   1.831  22.077  13.751
40220W        W12645  29.210  22.346  10.610
40221W        W12646  22.029  13.579  12.433
40222W        W12647  26.886   1.963  13.623
40223W        W12648  39.387  22.462   3.756
40224W        W12649  34.093   5.515  11.532
40225W        W12650   5.368  37.855   1.948
40226W        W12651  16.604  23.671   0.607
40227W        W12652  19.014  32.523   0.289
40228W        W12653   5.722  24.749   0.306
40229W        W12654  28.159  44.477   4.377
40230W        W12655  44.034   2.330  11.153
40231W        W12656  22.766  42.065   3.698
40232W        W12657  36.888   0.995   0.870
40233W        W12658  22.699  20.204   0.955
40234W        W12659  15.203  41.961   2.380
40235W        W12660   9.958   7.842   3.724
40236W        W12661  29.392   0.894   3.749
40237W        W12662  37.549  22.753   1.861
40238W        W12663  13.652   3.812  13.972
40239W        W12664   3.701  10.449  14.524
40240W        W12665  28.994  36.648   0.825
40241W        W12666  37.680  26.970   0.800
40242W        W12667  44.392  20.619   4.718
40243W        W12668  36.088   5.433   4.645
40244W        W12669   1.913   5.587   3.261
40245W        W12670  14.641  15.710   4.590
40246W        W12671  25.699  38.400   2.642
40247W        W12672  28.614  33.953  14.090
40248W        W12673  41.606   6.655   2.780
40249W        W12674  17.588  39.800  12.478
40250W        W12675  37.486  13.773  10.499
40251W        W12676  43.268  32.678  13.361
40252W        W12677  11.149   5.970   2.156
40253W        W12678  28.597  33.392   1.345
40254W        W12679   4.012  30.120  11.530
40255W        W12680  22.032  44.198  14.301
40256W        W12681  41.499  18.620   4.226
40257W        W12682  34.274  18.090   3.702
40258W        W12683  43.415   0.019   1.355
40259W        W12684   5.740  20.318  13.031
40260W        W12685   0.751   5.882  11.554
40261W        W12686  14.758  11.445   2.079
40262W        W12687   7.968  34.848   0.401
40263W        W12688   7.106   2.929   1.838
40264W        W12689  42.379  21.984  11.503
40265W        W12690  33.173  18.804   1.715
40266W        W12691  22.812  21.102   4.137
40267W        W12692  27.583   2.886   4.096
40268W        W12693  24.648   5.634   3.273
40269W        W12694  44.795  19.791   3.411
40270W        W12695  17.502  28.580  12.397
40271W        W12696  40.004  32.559  11.559
40272W        W12697  25.576   6.163  10.721
40273W        W12698  10.082  20.725  12.899
40274W        W12699  33.624   4.924  10.347
40275W        W12700  21.288  41.747   0.838
40276W        W12701   9.180   0.731  11.848
40277W        W12702  13.476   3.488  11.703
40278W        W12703   5.848  20.063   4.144
40279W        W12704  28.066  13.012   2.726
40280W        W12705  40.701  23.024  11.165
40281W        W12706  26.747  22.059  13.985
40282W        W12707  25.468  12.802  13.437
40283W        W12708   9.920   6.813   4.756
40284W        W12709  17.212  10.942  14.401
40285W        W12710  29.455  37.410   3.317
40286W        W12711   6.349  38.356   2.528
40287W        W12712  29.897   2.073   0.645
40288W        W12713  15.352  33.479   1.064
40289W        W12714  27.579  15.042  12.790
40290W        W12715  30.531   1.920  12.922
40291W        W12716  34.031  38.096  10.649
40292W        W12717  37.273   5.798  10.293
40293W        W12718  40.079  29.645   3.863
40294W        W12719  19.403  38.987  13.373
40295W        W12720   6.600  12.105  14.434
40296W        W12721  30.545   8.844  12.631
40297W        W12722  24.351   7.164  13.047
40298W        W12723  13.021  17.802  11.173
40299W        W12724  30.040  13.598   4.294
40300W        W12725  42.304  33.070  13.315
40301W        W12726  43.455  11.213   2.085
40302W        W12727  25.651  18.479   4.588
40303W        W12728  42.366  29.004  13.821
40304W        W12729   2.321  32.300   3.622
40305W        W12730  14.268  33.113  13.007
40306W        W12731  36.605  17.045  12.881
40307W        W12732  18.232  17.680  11.577
40308W        W12733  19.988  25.890   3.179
40309W        W12734  18.235  36.817  12.010
40310W        W12735  39.487  31.886   0.702
40311W        W12736   3.423   5.026  13.858
40312W        W12737  32.370   0.746  10.115
40313W        W12738   9.975  20.323   2.467
40314W        W12739  44.827  27.426  13.876
40315W        W12740  32.213  31.156   3.735
40316W        W12741  35.867  27.708   4.461
40317W        W12742   1.416  40.437   1.379
40318W        W12743  21.259  41.450  12.536
40319W        W12744  27.971  41.111  12.558
40320W        W12745  35.394  28.961  12.496
40321W        W12746  33.615  28.881  11.205
40322W        W12747   2.839  30.902   0.668
40323W        W12748  33.958  12.629   4.277
40324W        W12749   9.420  24.436   4.707
40325W        W12750   1.861  34.588   2.570
40326W        W12751   2.145   4.461  14.600
40327W        W12752  15.821  16.667  14.920
40328W        W12753  42.505  21.296  10.197
40329W        W12754  18.939  21.073   3.575
40330W        W12755  40.924  32.105   0.289
40331W        W12756  35.814  44.421   1.254
40332W        W12757   4.369  39.410  14.064
40333W        W12758  42.223   1.910  13.862
40334W        W12759   4.779  26.713  10.179
40335W        W12760  38.865   8.738  12.071
40336W        W12761  15.852  22.008   1.391
40337W        W12762  14.677  19.708   3.676
40338W        W12763  34.561   9.681  11.628
40339W        W12764  10.182  22.316  11.934
40340W        W12765  35.100  10.378   4.110
40341W        W12766  29.889  42.844   2.308
40342W        W12767   7.158  20.129  11.682
40343W        W12768  10.412   4.731  13.506
40344W        W12769  18.118  33.730   5.049
40345W        W12770  13.187  34.841  11.199
40346W        W12771  21.074  13.283  13.820
40347W        W12772  30.525   9.768   4.754
40348W        W12773   9.287  21.811  12.897
40349W        W12774   1.144   2.700   3.842
40350W        W12775  39.520   6.385  10.669
40351W        W12776  28.081  12.826  13.056
40352W        W12777   5.724  35.867  13.798
40353W        W12778   8.070  22.735  12.543
40354W        W12779  37.329  36.448   0.313
40355W        W12780  44.492   1.566  12.681
40356W        W12781  33.452  20.421  12.653
40357W        W12782  31.771  32.129   5.038
40358W        W12783  30.592  16.982  13.494
40359W        W12784  27.150  24.569  13.730
40360W        W12785  23.313  41.477   4.367
40361W        W12786  21.045   0.299   1.903
40362W        W12787  44.352  27.701  11.059
40363W        W12788  43.052   9.703  11.149
40364W        W12789  15.540  14.617   2.416
40365W        W12790  13.572  29.423  11.173
40366W        W12791  18.827  21.632  14.437
40367W        W12792   6.349  25.695   1.161
40368W        W12793  43.142  41.889  14.865
40369W        W12794   6.921   3.411   1.836
40370W        W12795  27.931  30.655  13.457
40371W        W12796  36.699  15.290  11.815
40372W        W12797   7.964  14.080  11.688
40373W        W12798   9.171  16.212   3.874
40374W        W12799   4.911  15.206   0.345
40375W        W12800  25.620  24.940  12.941
40376W        W12801   9.184  17.392   0.740
40377W        W12802   6.647  42.717  11.192
40378W        W12803  29.142  23.206  13.572
40379W        W12804  42.189  44.766   0.520
40380W        W12805  13.033   5.694  12.035
40381W        W12806  22.575   8.872   2.917
40382W        W12807  17.285  33.039   9.932
40383W        W12808   5.090  12.276   4.877
40384W        W12809  34.060  18.059  14.471
40385W        W12810  43.471  24.225   1.450
40386W        W12811  21.292  29.480  12.991
40387W        W12812  29.568  41.882   3.646
40388W        W12813  18.174  15.299   1.917
40389W        W12814  16.675   3.159  14.763
40390W        W12815  10.361   3.791   0.372
40391W        W12816   0.702  15.441  12.851
40392W        W12817  12.712   3.398   4.818
40393W        W12818   5.954  15.022  12.235
40394W        W12819  35.465  19.337   2.441
40395W        W12820  41.758  22.592   9.713
40396W        W12821  31.704  41.821   1.864
40397W        W12822  44.286  13.055  13.508
40398W        W12823   3.370  14.034   3.110
40399W        W12824  35.925  30.839  12.430
40400W        W12825  30.045  20.304   2.699
40401W        W12826   4.050   2.291   3.664
40402W        W12827  21.153  25.890  14.566
40403W        W12828  35.425  28.522   1.840
40404W        W12829  25.540  30.583  10.124
40405W        W12830   0.984  12.178   0.086
40406W        W12831  14.500  32.092   0.040
40407W        W12832  20.569  35.921   1.980
40408W        W12833  40.166  28.872  10.306
40409W        W12834  11.241   8.172  10.652
40410W        W12835  44.284   9.852   4.007
40411W        W12836  17.646   8.939   4.478
40412W        W12837  31.938   3.000  10.604
40413W        W12838   5.834  44.274   2.409
40414W        W12839  40.525  42.866   0.463
40415W        W12840  36.243  14.571   1.492
40416W        W12841   4.009  38.440  14.017
40417W        W12842  44.017  32.982  11.902
40418W        W12843  41.026   2.274   1.138
40419W        W12844   3.696  10.332  10.367
40420W        W12845  16.123   8.168  14.000
40421W        W12846  32.937  16.181  13.858
40422W        W12847  28.931  15.662   1.220
40423W        W12848  41.025  23.905  11.080
40424W        W12849  34.638  40.328  10.776
40425W        W12850   1.221  14.310  14.369
40426W        W12851  39.238  18.651  12.367
40427W        W12852   6.333  12.554   4.030
40428W        W12853   9.105   1.919  10.707
40429W        W12854  27.191  21.486   4.527
40430W        W12855  39.072  29.650  13.157
40431W        W12856  22.674  37.833   2.936
40432W        W12857   5.880   1.373   3.783
40433W        W12858  20.079   7.382   4.488
40434W        W12859   6.205  26.686   1.082
40435W        W12860  27.676   7.849  11.567
40436W        W12861  29.590  20.046  12.462
40437W        W12862  24.778  29.963  14.835
40438W        W12863  33.574  29.707   1.824
40439W        W12864  19.118  34.027   2.702
40440W        W12865   1.855   2.557  11.665
40441W        W12866   5.483  25.965  14.736
40442W        W12867   5.455  26.592   3.666
40443W        W12868  40.571  19.132   2.232
40444W        W12869   3.465  36.330  14.616
40445W        W12870   0.259  42.176   2.903
40446W        W12871   1.546  32.483   4.531
40447W        W12872   2.839  17.865  12.890
40448W        W12873   2.297   9.130  13.553
40449W        W12874   6.366  24.102  14.267
40450W        W12875  12.615  13.278  13.100
40451W        W12876  13.148   6.412  12.472
40452W        W12877  31.326  11.280   1.245
40453W        W12878  36.478  38.462   0.883
40454W        W12879  23.746  29.997   4.112
40455W        W12880  12.264  44.719  14.274
40456W        W12881  14.757  32.580  14.355
40457W        W12882  38.978  23.125   1.352
40458W        W12883  15.397   7.395   3.335
40459W        W12884   2.827  19.696   0.823
40460W        W12885   1.834  27.625   1.872
40461W        W12886  39.558  14.067  13.592
40462W        W12887  43.746   7.800   3.405
40463W        W12888  26.559  29.768   0.357
40464W        W12889  44.158  13.272  14.402
40465W        W12890  24.884  24.143  11.155
40466W        W12891  16.331  27.523  14.511
40467W        W12892  11.052  30.447  12.871
40468W        W12893  21.120   9.540   2.838
40469W        W12894   5.874   8.370  10.749
40470W        W12895   6.189   8.592   3.766
40471W        W12896  29.154   5.175   2.756
40472W        W12897  40.536  13.178  14.250
40473W        W12898  37.537  37.516   4.541
40474W        W12899   9.166  18.063   3.837
40475W        W12900  28.823  24.696   0.873
40476W        W12901  34.427  24.117   0.048
40477W        W12902  31.430  31.454   3.605
40478W        W12903  34.114   6.300  14.651
40479W        W12904  40.681  39.309  11.118
40480W        W12905  25.547  15.069   4.103
40481W        W12906   6.966  44.308   0.335
40482W        W12907  34.440  18.051  11.067
40483W        W12908  30.080  30.340   5.002
40484W        W12909  38.778  11.408   4.222
40485W        W12910  34.605  36.082   3.841
40486W        W12911  27.232   5.396  11.169
40487W        W12912  34.191  40.509   2.558
40488W        W12913  25.400  29.107  14.757
40489W        W12914  26.689  39.150  12.561
40490W        W12915  36.300  28.394  12.383
40491W        W12916  30.490  33.450   3.621
40492W        W12917  27.461  32.032   3.359
40493W        W12918  34.037   2.989  14.343
40494W        W12919  10.672  23.012   3.670
40495W        W12920   4.874  24.536  11.704
40496W        W12921   6.465  21.678  11.997
40497W        W12922  11.407  33.421  12.085
40498W        W12923  19.738  11.380   5.232
40499W        W12924  43.084   5.145   0.355
40500W        W12925  28.576   8.938  14.789
40501W        W12926  18.507   7.463  11.231
40502W        W12927  22.375  13.253  10.184
40503W        W12928  40.590  35.967   3.576
40504W        W12929  21.589  32.872   1.929
40505W        W12930  33.537  43.728   3.242
40506W        W12931  33.826  33.935   0.436
40507W        W12932  35.696  38.752   1.897
40508W        W12933  13.650   2.334   0.288
40509W        W12934   7.554   3.916   0.214
40510W        W12935   1.704  21.643   4.200
40511W        W12936  16.813   0.461   0.368
40512W        W12937  13.245  16.101  10.432
40513W        W12938   2.239   1.518   1.760
40514W        W12939   9.170  26.252   1.778
40515W        W12940   0.397   6.065  14.911
40516W        W12941  34.577  21.699  12.600
40517W        W12942  31.578  37.705  12.902
40518W        W12943  44.050  31.123  13.051
40519W        W12944  25.124  32.110  13.491
40520W        W12945  16.726  44.860   0.909
40521W        W12946  39.110  16.953  14.519
40522W        W12947  43.479   4.220   0.106
40523W        W12948  20.149  40.333   4.605
40524W        W12949   6.378  38.360   3.788
40525W        W12950  37.366   6.995  12.551
40526W        W12951  42.364  25.717  12.646
40527W        W12952  31.227  17.042  12.829
40528W        W12953  42.350  18.007   4.724
40529W        W12954  37.214  30.877  13.401
40530W        W12955  19.070  15.870  11.506
40531W        W12956  25.043   8.262  14.252
40532W        W12957  20.097  16.310   4.094
40533W        W12958   4.416  35.440   4.867
40534W        W12959  33.972  13.464  12.139
40535W        W12960  41.510  23.586   4.560
40536W        W12961  35.078   2.300  11.320
40537W        W12962  12.576  35.617   1.340
40538W        W12963  10.320  24.643  12.489
40539W        W12964  19.360  32.692  14.322
40540W        W12965   5.416  31.032  12.730
40541W        W12966   9.400   0.768  10.382
40542W        W12967  28.118  15.639   0.085
40543W        W12968  18.039   8.143   3.217
40544W        W12969  40.691   8.297  13.036
40545W        W12970  28.054   0.325  14.870
40546W        W12971  33.498  21.646  11.568
40547W        W12972  42.461  29.502  13.784
40548W        W12973  17.646  16.862   1.905
40549W        W12974  13.799  30.372  14.315
40550W        W12975  22.086  41.268  11.051
40551W        W12976  38.120   9.376   0.880
40552W        W12977   6.367  38.839   1.716
40553W        W12978  21.191  16.224   1.487
40554W        W12979   3.265  36.860  14.491
40555W        W12980  44.161  42.766   3.350
40556W        W12981  34.886  29.432  13.141
40557W        W12982  13.149  11.891  13.833
40558W        W12983  24.730  21.986   3.750
40559W        W12984  25.446  34.304  13.128
40560W        W12985   4.641  20.185  12.013
40561W        W12986  39.510  36.658  10.705
40562W        W12987   5.194   6.426  12.051
40563W        W12988  36.232   4.759  13.410
40564W        W12989  19.662  43.525   0.411
40565W        W12990  23.094  37.379   0.579
40566W        W12991  16.238  20.521   3.111
40567W        W12992   5.989  16.028  11.922
40568W        W12993  13.265  18.313  13.155
40569W        W12994   7.886  23.640  11.463
40570W        W12995  26.928  20.142  11.030
40571W        W12996   8.892  42.846  11.491
40572W        W12997  41.104  32.881  11.047
40573W        W12998  24.116   1.212   1.736
40574W        W12999  32.663  43.877  11.154
40575W        W13000  24.715   1.492  10.627
40576W        W13001  40.838   2.028   3.213
40577W        W13002   8.710  35.053   3.801
40578W        W13003   8.014   9.689   2.333
40579W        W13004  38.919  44.971  11.608
40580W        W13005  32.498   5.842  14.046
40581W        W13006  17.613  20.696  14.354
40582W        W13007  23.059   6.883   0.363
40583W        W13008  23.351   0.370   2.279
40584W        W13009   6.562   1.771  12.113
40585W        W13010  35.052  36.610   0.865
40586W        W13011  39.069  11.901  13.345
40587W        W13012  11.530  23.800   5.115
40588W        W13013  41.295  18.757  11.573
40589W        W13014  15.815   4.063  11.914
40590W        W13015  35.968  30.443   4.696
40591W        W13016  29.024   6.389  11.506
40592W        W13017   6.832   6.439  13.722
40593W        W13018  30.643   3.449  11.121
40594W        W13019   0.337  20.288  13.093
40595W        W13020  23.600  33.373   0.202
40596W        W13021  14.680  44.482  14.333
40597W        W13022  30.958  42.259   2.471
40598W        W13023  28.951  37.485   1.900
40599W        W13024  34.580  43.822  13.820
40600W        W13025  26.422  11.119  13.581
40601W        W13026  37.189  30.180  13.891
40602W        W13027  43.287   7.459  12.475
40603W        W13028  44.545   2.822  13.473
40604W        W13029  34.026  18.543   3.657
40605W        W13030   4.265  10.785   2.291
40606W        W13031  34.527   9.298  13.617
40607W        W13032  22.945  28.392   1.361
40608W        W13033   3.209   8.630  11.055
40609W        W13034   5.472  27.110   3.687
40610W        W13035  15.324   2.431  11.177
40611W        W13036  44.463  30.007   2.636
40612W        W13037  12.565  41.846  14.704
40613W        W13038  29.867   7.634   4.804
40614W        W13039  16.596  28.005   2.177
40615W        W13040  25.874  42.560   2.269
40616W        W13041  15.278  18.696  11.867
40617W        W13042  31.130  19.384  12.414
40618W        W13043  24.562  17.739   4.541
40619W        W13044   8.245  40.819  14.973
40620W        W13045  43.913  44.580  14.778
40621W        W13046   2.639  26.081   3.703
40622W        W13047  19.706   6.448  13.065
40623W        W13048  40.520  32.238  10.704
40624W        W13049  41.742  23.843  11.554
40625W        W13050  25.190   7.082  12.546
40626W        W13051  41.264  32.574  12.900
40627W        W13052  23.167  43.391  12.226
40628W        W13053   7.924  29.618   5.185
40629W        W13054   3.432  25.984  13.571
40630W        W13055  37.697   0.444  14.762
40631W        W13056  16.261  14.053   2.613
40632W        W13057  38.329  32.169   4.382
40633W        W13058  39.874  15.272   3.420
40634W        W13059  16.939  38.536   1.022
40635W        W13060  32.582  30.957   4.675
40636W        W13061  42.752  16.597   1.800
40637W        W13062  26.680   2.992   0.300
40638W        W13063  20.560  30.084  11.003
40639W        W13064  34.426   3.043  10.716
40640W        W13065   8.854  42.106   2.260
40641W        W13066  15.684  24.265   2.260
40642W        W13067  11.916   0.896   0.072
40643W        W13068  41.039   3.119   0.562
40644W        W13069  24.058  37.850   3.029
40645W        W13070  21.497  40.456  13.428
40646W        W13071  28.400   3.834   2.433
40647W        W13072   7.807  32.582   4.571
40648W        W13073   2.255  33.056  11.519
40649W        W13074  31.915  32.380   2.237
40650W        W13075  13.348  13.744   1.705
40651W        W13076  12.220  11.671  11.623
40652W        W13077  44.162  28.799   4.123
40653W        W13078   4.947  33.410  11.174
40654W        W13079   1.174  44.957  11.187
40655W        W13080  30.197  34.810   4.055
40656W        W13081  44.315   9.747  12.176
40657W        W13082  33.430  33.586  11.114
40658W        W13083  30.502  21.601   0.948
40659W        W13084  41.947  41.231  12.514
40660W        W13085  30.407  30.375   2.927
40661W        W13086  39.885  21.214  12.256
40662W        W13087   0.867   8.489  10.875
40663W        W13088  13.055  19.490   2.163
40664W        W13089  43.424   5.292  14.962
40665W        W13090  33.915   7.839  12.923
40666W        W13091  10.397  23.799  12.610
40667W        W13092  29.391  29.071   4.026
40668W        W13093  26.283  28.026  13.809
40669W        W13094  43.520  12.359  14.022
40670W        W13095  23.781   1.350  12.586
40671W        W13096   0.100  35.948  11.339
40672W        W13097  40.463   4.812   0.214
40673W        W13098   9.319  20.580   2.397
40674W        W13099  23.363  38.378   0.095
40675W        W13100  29.326  10.137   2.249
40676W        W13101  42.428  42.333   3.786
40677W        W13102  19.464  15.972   3.601
40678W        W13103  17.192  43.716   1.715
40679W        W13104  43.764  17.789   3.443
40680W        W13105  14.171  26.795   0.911
40681W        W13106  28.470  40.010   4.162
40682W        W13107  42.860  43.908  13.462
40683W        W13108  37.979  17.564  11.132
40684W        W13109  44.933  22.754   0.822
40685W        W13110  10.813  34.858   0.547
40686W        W13111  16.364  16.854  11.913
40687W        W13112  26.984  30.720  10.730
40688W        W13113  15.364   7.428   2.387
40689W        W13114   1.080   5.751   2.207
40690W        W13115  34.083  28.138  12.468
40691W        W13116  23.012  34.945   4.129
40692W        W13117   8.784  44.247   1.515
40693W        W13118   1.928  10.886   3.409
40694W        W13119  30.029  43.474   3.330
40695W        W13120  12.829  12.801  13.066
40696W        W13121  32.580   2.174  11.994
40697W        W13122  16.634  13.561   1.298
40698W        W13123  17.727  43.457  11.065
40699W        W13124  42.964  22.607   1.709
40700W        W13125  24.486  40.935   4.633
40701W        W13126  19.080  31.537  10.802
40702W        W13127  40.564  27.922   2.275
40703W        W13128  28.467   6.153  13.632
40704W        W13129  12.233   9.771   3.173
40705W        W13130   9.814  35.065  13.553
40706W        W13131  43.746  26.958   2.290
40707W        W13132  34.129   9.937   1.800
40708W        W13133  44.930  42.474   2.447
40709W        W13134  14.415   9.486  11.755
40710W        W13135  28.395  35.439   0.421
40711W        W13136  37.155   0.216   3.687
40712W        W13137  14.870   9.615  12.134
40713W        W13138   0.569  42.653   4.125
40714W        W13139   7.385   6.435   2.173
40715W        W13140  17.217  44.556  11.678
40716W        W13141  42.096  11.386   0.969
40717W        W13142   1.237  14.245  13.050
40718W        W13143   7.446  33.464   1.657
40719W        W13144  15.866  18.626  14.120
40720W        W13145  33.735   1.274   1.260
40721W        W13146   1.368   4.017   2.257
40722W        W13147  16.164  20.337  14.294
40723W        W13148  23.110  40.739  12.476
40724W        W13149  17.051   5.884   3.747
40725W        W13150   7.208  15.866  12.544
40726W        W13151  32.908  40.975  13.885
40727W        W13152  14.091  38.430   3.079
40728W        W13153  38.295  39.977   2.795
40729W        W13154  43.573  26.172   1.437
40730W        W13155  31.236  26.113  14.804
40731W        W13156  12.172   6.272  10.453
40732W        W13157  28.531   2.093  14.573
40733W        W13158  15.172  25.081   2.666
40734W        W13159  16.329  21.724  12.115
40735W        W13160  41.349  30.070   3.830
40736W        W13161  25.257  24.160  13.026
40737W        W13162  31.148  32.714  11.581
40738W        W13163  38.513   4.254   2.244
40739W        W13164  41.241   4.484   3.253
40740W        W13165   3.374  17.308   0.709
40741W        W13166  15.205  36.009  13.486
40742W        W13167  37.080  12.810  12.085
40743W        W13168  31.963  33.680   3.888
40744W        W13169   1.887   2.076   4.150
40745W        W13170  44.156  16.818  14.163
40746W        W13171  29.001  35.574   3.745
40747W        W13172  23.479  30.424   5.017
40748W        W13173  37.680   7.281  14.107
40749W        W13174  38.320  11.228  13.026
40750W        W13175  12.075   8.278  12.381
40751W        W13176  13.336  33.944  11.646
40752W        W13177  32.120   7.233   3.579
40753W        W13178  25.448  17.076   4.052
40754W        W13179  42.856  20.700   5.085
40755W        W13180   8.810  29.840  12.870
40756W        W13181  21.995  28.523   0.363
40757W        W13182  23.539   4.956   0.340
40758W        W13183   3.841  27.742  10.373
40759W        W13184  18.697  37.257  11.185
40760W        W13185   7.650  30.867  13.036
40761W        W13186   8.012  37.197  11.564
40762W        W13187   0.265  12.939  13.939
40763W        W13188  40.426  43.052  13.140
40764W        W13189  27.965  25.088   0.563
40765W        W13190  12.411  36.453   0.955
40766W        W13191  41.478  40.938  14.222
40767W        W13192  26.610   8.726   1.483
40768W        W13193   1.878  23.995  11.138
40769W        W13194  35.268   0.156   4.539
40770W        W13195  38.351   5.854   1.686
40771W        W13196   0.509  18.264   0.246
40772W        W13197  44.723   1.243   0.345
40773W        W13198  12.856  34.527   2.185
40774W        W13199  16.728   7.147   1.808
40775W        W13200   7.267  36.647   1.930
40776W        W13201  40.103   9.685  11.161
40777W        W13202   2.647  31.896   3.747
40778W        W13203  36.909  31.498   4.575
40779W        W13204  29.443  22.996   3.976
40780W        W13205   6.644  37.620  10.580
40781W        W13206  28.412  33.424   0.857
40782W        W13207   2.310   0.572   3.701
40783W        W13208  20.809  20.321  12.653
40784W        W13209  38.165  15.635  10.818
40785W        W13210  15.865  13.605   1.675
40786W        W13211  40.963  20.705  11.531
40787W        W13212  15.528  26.550   5.056
40788W        W13213  16.643  33.512   2.623
40789W        W13214  43.574  29.754  10.393
40790W        W13215   7.011  12.673   1.332
40791W        W13216  32.502  37.196  14.865
40792W        W13217  14.621   5.667  12.975
40793W        W13218  35.943  34.593  14.725
40794W        W13219  19.685  33.667  13.457
40795W        W13220  43.792  10.120  13.439
40796W        W13221   8.053  43.964   2.225
40797W        W13222  26.829  35.749   3.580
40798W        W13223  27.993  37.626   3.589
40799W        W13224  41.269  30.856  13.448
40800W        W13225   7.866   4.443  11.432
40801W        W13226  39.601  33.878  14.431
40802W        W13227   9.093   3.355  14.931
40803W        W13228   1.891  10.334   2.261
40804W        W13229   8.443   9.294  13.389
40805W        W13230  26.672  18.641   1.651
40806W        W13231  26.606   3.470   1.399
40807W        W13232  28.551  30.022   3.399
40808W        W13233  18.530  44.343   4.156
40809W        W13234  43.481  33.045   3.778
40810W        W13235  13.962   0.539   4.030
40811W        W13236  27.699  11.285   0.336
40812W        W13237  10.985   2.329  11.456
40813W        W13238  22.128  35.923  14.361
40814W        W13239  38.299  43.062  12.063
40815W        W13240  44.331  18.290   9.999
40816W        W13241  29.594  36.210   0.505
40817W        W13242  24.500  34.637  13.481
40818W        W13243  43.033   1.959  11.924
40819W        W13244   0.783  44.524  14.029
40820W        W13245  15.580  38.040   3.238
40821W        W13246  15.374   4.494  12.707
40822W        W13247   0.810   6.536   1.695
40823W        W13248  17.950  15.251  12.578
40824W        W13249  35.912  30.446   3.602
40825W        W13250  39.548  22.475  10.697
40826W        W13251   8.305  43.848  11.158
40827W        W13252  40.500  40.259  14.950
40828W        W13253  30.716  12.146   2.718
40829W        W13254  39.839   2.615  14.236
40830W        W13255  38.538  22.532  10.624
40831W        W13256  11.930  26.141  13.522
40832W        W13257  13.863  15.852  10.981
40833W        W13258  35.907  20.312   3.401
40834W        W13259  28.656  20.082   0.362
40835W        W13260   1.205  30.587   4.585
40836W        W13261  21.303  13.608  14.429
40837W        W13262   6.140  34.402   2.130
40838W        W13263  37.984  27.395   1.491
40839W        W13264  18.495  23.777  11.475
40840W        W13265   2.395  33.847  14.564
40841W        W13266  31.902   9.835   2.650
40842W        W13267  31.917  27.889  10.645
40843W        W13268  19.005   6.674   1.666
40844W        W13269  22.169  37.528  13.999
40845W        W13270  20.273  13.037   3.568
40846W        W13271  37.738   0.271  12.058
40847W        W13272   1.442   0.691  14.610
40848W        W13273  25.708  21.633   1.427
40849W        W13274   0.706  17.780   2.685
40850W        W13275  19.141   3.563   4.027
40851W        W13276  33.888   0.933  11.538
40852W        W13277   8.835  36.960   0.671
40853W        W13278   1.867  28.363   3.602
40854W        W13279  22.667  10.642  14.210
40855W        W13280  27.147   3.973   4.702
40856W        W13281  15.010   6.889   1.909
40857W        W13282  32.850  43.992  10.671
40858W        W13283   7.295  15.791   3.964
40859W        W13284   4.999  12.651  13.851
40860W        W13285  27.553   9.984   4.209
40861W        W13286  29.752  21.604  12.906
40862W        W13287  30.717   9.700   0.401
40863W        W13288  26.448  43.740   0.159
40864W        W13289  32.540   3.899  10.553
40865W        W13290  33.195  19.090  14.087
40866W        W13291  17.182  24.802   1.715
40867W        W13292  15.500   8.256   1.296
40868W        W13293  11.774  26.117  14.029
40869W        W13294  14.725  17.902   2.896
40870W        W13295   6.914  28.392   3.128
40871W        W13296   5.408  43.069  11.633
40872W        W13297   5.399  26.992  14.392
40873W        W13298  27.122   8.832   1.344
40874W        W13299   9.671  39.652   2.293
40875W        W13300  24.706  36.824  13.194
40876W        W13301  42.576  10.102  11.155
40877W        W13302  18.191  31.126  11.015
40878W        W13303  30.788   5.894  12.465
40879W        W13304   1.535  41.457   4.593
40880W        W13305  25.523  44.775   3.399
40881W        W13306  17.069  23.566   4.613
40882W        W13307  16.246  33.879   2.835
40883W        W13308   1.710  24.772  12.883
40884W        W13309  32.862   2.470  11.648
40885W        W13310  19.511  37.504   2.572
40886W        W13311  31.757   6.721   1.463
40887W        W13312  41.570  33.613  10.411
40888W        W13313  33.418  32.852  12.093
40889W        W13314  28.685   2.441   1.235
40890W        W13315  28.382   7.409  13.134
40891W        W13316  11.154  11.495   1.177
40892W        W13317   4.396  19.523   3.343
40893W        W13318  15.688  35.883   0.206
40894W        W13319   9.817  27.064  10.908
40895W        W13320  17.831  22.488  11.349
40896W        W13321   8.523  12.218  10.475
40897W        W13322  30.752  31.550  12.593
40898W        W13323  29.191  15.561  13.416
40899W        W13324  22.725   0.198   3.416
40900W        W13325  16.065  36.537  14.765
40901W        W13326  40.697  11.306   3.329
40902W        W13327  28.058  11.295  12.065
40903W        W13328  43.039  32.773  11.981
40904W        W13329  21.134  30.623  12.578
40905W        W13330  24.624  39.618   3.234
40906W        W13331   1.538  12.569   2.279
40907W        W13332  14.700   2.213  11.454
40908W        W13333  13.787   2.986   1.790
40909W        W13334  20.777  31.012  13.445
40910W        W13335   3.311  43.760  11.839
40911W        W13336  37.799   4.310   3.881
40912W        W13337  43.319  10.177  14.488
40913W        W13338  35.021  17.121   3.233
40914W        W13339  15.875   3.167   3.353
40915W        W13340  28.069  38.427   1.012
40916W        W13341  12.343   0.014  13.375
40917W        W13342   4.119   8.709  13.476
40918W        W13343   4.335  36.954  10.621
40919W        W13344  20.223  14.575   3.615
40920W        W13345  34.674  44.609  13.504
40921W        W13346  21.995  33.637  12.622
40922W        W13347   4.211  36.607   2.299
40923W        W13348  44.533  24.986   1.177
40924W        W13349  15.619  37.761   1.472
40925W        W13350  23.707  42.861   4.998
40926W        W13351   1.000  23.213   0.198
40927W        W13352  40.230  37.834  11.513
40928W        W13353  32.465  13.435   2.889
40929W        W13354   3.986   9.506   2.428
40930W        W13355   9.737  44.807   4.129
40931W        W13356  30.814  13.721  12.424
40932W        W13357  15.757  10.871   0.280
40933W        W13358  37.795  16.851   1.930
40934W        W13359  32.461  24.000   1.479
40935W        W13360   1.528  31.968  14.505
40936W        W13361   9.768  15.520   1.926
40937W        W13362  32.182  37.001  11.480
40938W        W13363  10.134  41.983   1.374
40939W        W13364   7.874  28.960  13.780
40940W        W13365   1.389  37.879  11.898
40941W        W13366  32.160  41.020   1.884
40942W        W13367  12.883  40.811   2.422
40943W        W13368  40.138  15.619  11.272
40944W        W13369  15.849  10.695  11.053
40945W        W13370  14.696   1.894  12.991
40946W        W13371  33.310  33.034   1.472
40947W        W13372  13.111   6.328   0.240
40948W        W13373  43.806  25.908  14.042
40949W        W13374   2.199   8.244  13.104
40950W        W13375  18.238  32.486  12.033
40951W        W13376  31.424  23.525   3.376
40952W        W13377  36.212   1.627   2.975
40953W        W13378  22.300  13.803  11.128
40954W        W13379  15.335  25.121  14.364
40955W        W13380  11.794   7.010  12.185
40956W        W13381  17.729  27.558   2.702
40957W        W13382   7.115   9.339  13.050
40958W        W13383   7.476  31.591  13.795
40959W        W13384   9.759   7.895   4.711
40960W        W13385   4.555  17.674   3.180
40961W        W13386  35.587  43.395   0.764
40962W        W13387  44.997  43.822  11.862
40963W        W13388  18.081  35.642  14.469
40964W        W13389   5.290  14.137   0.873
40965W        W13390  22.919  24.721   1.586
40966W        W13391   5.362  30.335  10.673
40967W        W13392   0.567  32.891   0.378
40968W        W13393   6.679  33.963  10.618
40969W        W13394  27.655  35.823   4.719
40970W        W13395  26.202  22.745  12.265
40971W        W13396   7.705  20.078  14.379
40972W        W13397  44.540   6.387  14.374
40973W        W13398  29.900  38.933  13.454
40974W        W13399   6.174  25.560   4.306
40975W        W13400  25.721  22.635   1.958
40976W        W13401  10.689  26.106  14.926
40977W        W13402  30.596  29.657  10.968
40978W        W13403  20.620  24.437   0.053
40979W        W13404   3.971   1.367   1.355
40980W        W13405  24.953  35.922  12.456
40981W        W13406  44.018   9.545   2.989
40982W        W13407  27.423   7.082  11.988
40983W        W13408  40.748  28.620  13.393
40984W        W13409  21.022   0.909   4.711
40985W        W13410  43.387   2.091   1.449
40986W        W13411  30.568  28.995  10.697
40987W        W13412   5.954  44.056   4.518
40988W        W13413   0.992  24.684   1.840
40989W        W13414   2.461  28.165  12.158
40990W        W13415  28.050  36.584   4.403
40991W        W13416  27.609  31.573   0.823
40992W        W13417  38.299  37.480   1.374
40993W        W13418  10.348   8.388   3.164
40994W        W13419  24.186  19.724  13.643
40995W        W13420   0.457  17.754   0.439
40996W        W13421  35.462  23.545   4.872
40997W        W13422   3.391  34.891  11.057
40998W        W13423  28.727  37.808   0.899
40999W        W13424  21.212  20.287  14.419
41000W        W13425  43.325  26.968  12.054
41001W        W13426   0.012  24.987   3.413
41002W        W13427  22.833   7.371   0.401
41003W        W13428   7.693  31.550   2.808
41004W        W13429  29.361  31.636  11.117
41005W        W13430  14.080  10.608  13.336
41006W        W13431  15.176  44.995   1.806
41007W        W13432  31.123   9.048  11.202
41008W        W13433  21.229  41.811  11.112
41009W        W13434  29.699   7.403  12.577
41010W        W13435  27.020  42.397  12.051
41011W        W13436   9.524  30.997   0.465
41012W        W13437  35.043  32.492  14.601
41013W        W13438   0.312  42.662   2.763
41014W        W13439  27.283  25.988   3.959
41015W        W13440   0.661  39.311  14.413
41016W        W13441  14.660  41.302   3.104
41017W        W13442  42.255   3.452   4.157
41018W        W13443   3.756   4.744   2.219
41019W        W13444  44.198  21.611  14.487
41020W        W13445  23.158  10.023   2.263
41021W        W13446  26.581  40.760  13.813
41022W        W13447  10.757   4.598   0.329
41023W        W13448  23.695  12.071  13.089
41024W        W13449  42.435   6.444  14.491
41025W        W13450  31.737  24.399   3.160
41026W        W13451  29.126  22.014  14.866
41027W        W13452   0.701  21.259  10.121
41028W        W13453  30.030  15.065  14.983
41029W        W13454  16.313  25.760  11.230
41030W        W13455  19.476  34.521  13.030
41031W        W13456  38.968  31.907   1.956
41032W        W13457  40.314   0.985   1.433
41033W        W13458  30.912   0.233   3.830
41034W        W13459   4.690  18.072   0.100
41035W        W13460  23.981  31.953  12.003
41036W        W13461  26.935  44.756  13.971
41037W        W13462  40.001  28.685   3.127
41038W        W13463  44.191  37.826   3.391
41039W        W13464  31.813  24.893  12.541
41040W        W13465  24.164  15.216   0.790
41041W        W13466  41.053  11.762   4.217
41042W        W13467   0.403  26.612  11.665
41043W        W13468  23.914  20.697  14.824
41044W        W13469  14.540  44.098  10.467
41045W        W13470  42.020   5.949  13.841
41046W        W13471   6.284  25.662  13.345
41047W        W13472  20.824   8.465  12.094
41048W        W13473   0.785  17.903   3.675
41049W        W13474   5.813   0.265   3.063
41050W        W13475  33.545  15.843  11.968
41051W        W13476  18.056  19.810   2.446
41052W        W13477  42.808  18.020   0.823
41053W        W13478  28.606  23.356  11.033
41054W        W13479  41.486  10.716   2.742
41055W        W13480  12.405  19.185   0.950
41056W        W13481   7.264  11.830  14.377
41057W        W13482  27.094  42.821   1.831
41058W        W13483  21.978  44.860   0.676
41059W        W13484  12.047  12.135   2.114
41060W        W13485  32.991   3.242  13.554
41061W        W13486  31.489  32.212   1.447
41062W        W13487  37.926   8.922  10.208
41063W        W13488  13.592   5.885  11.618
41064W        W13489  44.392   3.922   3.141
41065W        W13490  43.390  40.972  12.488
41066W        W13491  31.396   9.862   2.593
41067W        W13492  12.290  37.357   0.690
41068W        W13493   9.638  37.167   0.037
41069W        W13494  16.584   6.253  11.649
41070W        W13495  43.186  14.804   3.786
41071W        W13496  36.988  14.672  12.437
41072W        W13497  15.119  30.095  10.574
41073W        W13498  14.346   6.106  12.074
41074W        W13499  24.654  29.563   0.264
41075W        W13500  44.423  15.762  10.095
41076W        W13501  16.626  42.923  11.557
41077W        W13502  23.074  34.409   2.865
41078W        W13503   4.572   1.427  13.777
41079W        W13504  16.524  39.404   0.901
41080W        W13505  28.450  39.516   1.796
41081W        W13506   8.104  13.081   3.852
41082W        W13507  14.629  30.113  14.751
41083W        W13508  22.447  26.611  12.895
41084W        W13509  32.795   8.193   0.859
41085W        W13510  17.357  30.534   2.683
41086W        W13511  17.104  34.873  13.530
41087W        W13512  12.604  26.513   4.872
41088W        W13513  20.227  11.340   1.971
41089W        W13514  40.329   6.720  11.685
41090W        W13515  25.771  32.717   9.652
41091W        W13516  25.256  31.714  12.370
41092W        W13517   7.526  22.064   0.978
41093W        W13518  27.085  16.723   2.246
41094W        W13519  30.617  35.792   2.116
41095W        W13520  38.535   0.378  11.653
41096W        W13521  31.484  44.794   0.413
41097W        W13522  15.648  28.147   4.836
41098W        W13523  43.386   2.335   2.342
41099W        W13524  21.803  27.130   2.259
41100W        W13525  44.564  28.936  14.325
41101W        W13526  23.691  21.541   0.393
41102W        W13527  17.427  25.189   4.478
41103W        W13528   1.248  23.629  13.828
41104W        W13529  37.061  30.605  10.571
41105W        W13530  37.911  32.438  14.994
41106W        W13531   4.307  22.510   2.162
41107W        W13532  26.559  33.636  12.337
41108W        W13533  40.358   5.448   3.039
41109W        W13534  22.801  38.437  12.901
41110W        W13535  27.397   0.258   1.257
41111W        W13536  17.449  10.593   3.594
41112W        W13537  12.264  41.276  13.442
41113W        W13538  19.100  27.955   2.694
41114W        W13539   4.917   9.106   3.724
41115W        W13540  16.871  21.059   4.534
41116W        W13541  38.339  41.262   1.293
41117W        W13542   9.251  33.301  11.087
41118W        W13543   7.496  10.179  11.174
41119W        W13544   0.659  21.699   4.268
41120W        W13545  14.752   1.913  12.069
41121W        W13546  17.657  35.653   2.507
41122W        W13547   2.774  18.597   0.757
41123W        W13548  21.661  14.476  13.259
41124W        W13549  26.706  27.929  11.524
41125W        W13550   8.066  20.921  13.887
41126W        W13551  22.348   4.444  10.533
41127W        W13552  33.006  15.639  13.790
41128W        W13553  34.380   1.326   2.902
41129W        W13554  17.037  32.832   2.364
41130W        W13555  38.482  25.654  10.768
41131W        W13556  16.126  32.430  11.909
41132W        W13557  39.608  40.855  13.439
41133W        W13558  40.291   2.746   2.413
41134W        W13559  34.343  35.579   4.668
41135W        W13560  39.444   0.642   4.052
41136W        W13561  32.252  32.514   2.686
41137W        W13562  40.244   7.369  10.831
41138W        W13563  19.281   0.701   2.432
41139W        W13564  18.721  42.089   4.122
41140W        W13565  21.169  11.467  10.809
41141W        W13566  13.221  14.010   4.590
41142W        W13567  20.239   1.435  14.782
41143W        W13568  28.896  10.813  12.226
41144W        W13569  14.825  34.642  13.931
41145W        W13570  14.807  31.521   2.655
41146W        W13571  17.149  14.302  14.041
41147W        W13572  12.672  32.349   0.245
41148W        W13573  13.249   6.267  14.699
41149W        W13574   9.918  25.727   2.741
41150W        W13575  20.873  17.241  13.053
41151W        W13576  34.204  33.166   2.403
41152W        W13577  11.781  24.162  12.418
41153W        W13578  30.902  31.667   0.948
41154W        W13579   4.177   6.216  11.866
41155W        W13580  26.200   1.323   1.676
41156W        W13581  31.652   4.777  11.163
41157W        W13582  42.310  23.153  10.133
41158W        W13583  37.367   5.682   2.837
41159W        W13584  29.181  42.402  12.570
41160W        W13585  13.462  23.536  11.662
41161W        W13586   9.138  11.721  13.967
41162W        W13587  29.496  42.811  11.702
41163W        W13588  19.005  17.662   1.292
41164W        W13589   0.998  24.331   4.631
41165W        W13590   3.972  42.338  13.480
41166W        W13591  43.814  39.842   4.638
41167W        W13592  43.108   3.577  14.478
41168W        W13593  37.973   0.749  12.041
41169W        W13594   2.671  23.448   4.058
41170W        W13595  23.578   4.479  12.629
41171W        W13596   5.396  30.863   3.205
41172W        W13597  18.990  23.678   1.364
41173W        W13598  37.023  22.684  13.843
41174W        W13599  39.360  20.734   0.369
41175W        W13600  20.211   2.435   1.294
41176W        W13601   4.967  18.081   4.428
41177W        W13602  13.723  20.634  11.957
41178W        W13603  23.236   1.909   0.309
41179W        W13604  12.626  25.001  14.267
41180W        W13605  30.958  37.336  10.753
41181W        W13606  22.188  21.673  14.308
41182W        W13607  44.552  27.199  12.582
41183W        W13608   6.785  17.190  12.389
41184W        W13609   1.244  24.382   1.491
41185W        W13610  35.583  27.179  11.603
41186W        W13611  17.617  31.698  10.697
41187W        W13612  39.806  34.543   0.363
41188W        W13613  32.991   2.951   0.962
41189W        W13614  10.174  41.908  14.555
41190W        W13615  12.663  21.933   9.520
41191W        W13616  17.083  24.995  11.033
41192W        W13617  15.787  15.583  11.915
41193W        W13618  30.889  37.584   3.238
41194W        W13619  34.760  19.641   2.915
41195W        W13620   1.755  30.343   1.391
41196W        W13621  19.288  22.408   2.281
41197W        W13622  24.959  42.052  11.146
41198W        W13623  33.721  18.207   1.458
41199W        W13624   8.640  42.210   1.162
41200W        W13625  22.023  20.747  14.755
41201W        W13626  13.679  40.169   4.129
41202W        W13627  43.922  21.581   2.849
41203W        W13628   8.646  14.135  10.841
41204W        W13629  12.020  31.115  13.358
41205W        W13630   1.514   1.155  14.452
41206W        W13631  31.030  40.393   9.866
41207W        W13632  36.031  36.502  13.766
41208W        W13633  28.091  16.126  10.588
41209W        W13634  38.110  17.123  14.310
41210W        W13635  28.952  21.709  13.577
41211W        W13636  42.784  22.709   5.068
41212W        W13637   8.156   1.715   2.417
41213W        W13638  39.080  22.210  10.775
41214W        W13639   4.019  13.633   1.851
41215W        W13640  41.272   4.898   0.555
41216W        W13641  38.861   4.689  10.269
41217W        W13642   7.823  37.902   4.355
41218W        W13643  38.973  22.384  14.893
41219W        W13644  17.734  41.125   3.603
41220W        W13645   1.925  17.588   4.662
41221W        W13646  40.037  31.384  13.017
41222W        W13647  41.323   5.875  13.114
41223W        W13648  25.467  10.170  14.905
41224W        W13649   6.763   2.214   0.425
41225W        W13650  23.632  40.835   1.707
41226W        W13651  31.220  39.042  13.833
41227W        W13652  43.603  20.213   2.172
41228W        W13653  20.734  29.108   3.185
41229W        W13654  35.501   3.179   0.744
41230W        W13655   8.536  41.772   1.396
41231W        W13656   9.095  20.184   2.686
41232W        W13657  29.371  34.957  11.333
41233W        W13658  29.019   5.240   2.257
41234W        W13659   8.124   3.208   3.711
41235W        W13660  34.934  15.653   1.776
41236W        W13661  19.835  43.505   4.179
41237W        W13662  11.308  22.531  11.395
41238W        W13663  18.668  39.995  11.237
41239W        W13664  38.007   4.456   3.417
41240W        W13665   4.302  25.550  13.468
41241W        W13666   9.260   3.779  14.379
41242W        W13667   6.753  43.415   4.581
41243W        W13668  43.848  23.452  11.943
41244W        W13669  24.608  33.370   4.730
41245W        W13670  12.188  24.450  13.780
41246W        W13671  21.252  32.857   1.348
41247W        W13672  13.075  20.702   0.397
41248W        W13673  35.179   3.694   1.406
41249W        W13674  30.531  10.008   1.642
41250W        W13675  31.940  19.560  14.498
41251W        W13676  29.726  14.222  10.375
41252W        W13677  44.301  35.969   3.386
41253W        W13678  26.064  34.897  12.376
41254W        W13679  33.097  42.173   3.669
41255W        W13680  22.547  43.039   0.376
41256W        W13681  11.039  21.841  13.159
41257W        W13682  31.476  32.369   4.277
41258W        W13683   4.534   6.247   2.723
41259W        W13684  26.736  16.761  14.793
41260W        W13685   4.004  26.389  14.923
41261W        W13686  13.301  15.456  11.008
41262W        W13687  41.489  33.993   0.761
41263W        W13688   6.337  36.610   1.643
41264W        W13689  29.183  37.553   0.977
41265W        W13690  20.145  24.095   1.129
41266W        W13691  10.936  14.280  10.764
41267W        W13692  32.125   1.238  13.877
41268W        W13693  41.228  42.842  14.558
41269W        W13694  33.483  17.645  11.544
41270W        W13695   7.764  38.671  12.535
41271W        W13696  34.263  39.830   0.545
41272W        W13697   7.753   3.408   0.277
41273W        W13698  39.335  23.174   3.177
41274W        W13699  39.632  34.533  12.819
41275W        W13700  25.492   7.819  14.869
41276W        W13701  43.003  10.945  13.526
41277W        W13702  44.495  18.987   3.228
41278W        W13703  15.148  10.757   3.563
41279W        W13704   5.699  39.370  10.709
41280W        W13705  22.789   9.484   4.656
41281W        W13706   6.479   1.777   0.542
41282W        W13707  30.753  44.115  14.557
41283W        W13708   7.325  16.959  13.962
41284W        W13709  35.883   5.884  13.007
41285W        W13710   2.433  44.019   3.626
41286W        W13711   9.647  37.583   0.351
41287W        W13712  33.503  12.542  10.751
41288W        W13713  26.481  42.437  13.759
41289W        W13714  28.124  27.764  11.557
41290W        W13715  31.640  40.056   0.331
41291W        W13716  24.758   2.332  13.995
41292W        W13717  33.852  43.020  10.674
41293W        W13718  24.311   3.543  12.096
41294W        W13719   0.293  16.757  10.660
41295W        W13720  16.157  25.188   4.187
41296W        W13721  23.249  11.193   2.251
41297W        W13722  36.845  22.021  11.653
41298W        W13723   5.791  21.784   0.499
41299W        W13724  39.806  24.744   4.045
41300W        W13725  22.879  29.396  12.827
41301W        W13726   4.348  25.623   4.295
41302W        W13727  29.607  44.284   4.670
41303W        W13728  12.659  39.379  13.952
41304W        W13729  34.178  42.997  12.476
41305W        W13730  10.856  18.577   4.569
41306W        W13731  35.816  34.101   1.327
41307W        W13732  25.125  19.506   4.237
41308W        W13733   3.399  20.902   5.087
41309W        W13734  15.333  28.545  14.691
41310W        W13735  29.896  42.503   1.037
41311W        W13736  41.072   6.376   4.195
41312W        W13737  26.640   7.380   4.283
41313W        W13738  34.390  30.486   0.706
41314W        W13739  35.318   2.304   3.724
41315W        W13740   0.862  11.875  11.580
41316W        W13741  25.740   1.909   0.374
41317W        W13742  37.290   0.434  14.457
41318W        W13743  12.361  32.679  12.401
41319W        W13744   5.982  40.938   2.658
41320W        W13745  35.063  39.959  14.370
41321W        W13746  35.367  34.910  11.739
41322W        W13747  11.421  24.662  13.442
41323W        W13748  32.749   3.733  11.983
41324W        W13749   2.852   1.477   1.577
41325W        W13750  12.307   1.741   4.996
41326W        W13751  15.596  20.544  12.157
41327W        W13752  35.383  11.735   4.113
41328W        W13753   1.922  42.966   4.849
41329W        W13754  19.316  33.853   4.323
41330W        W13755  35.826  20.828   4.203
41331W        W13756  40.152  30.899   2.264
41332W        W13757  18.813  39.004   4.575
41333W        W13758  25.188  12.339   4.191
41334W        W13759  17.992  25.201  12.844
41335W        W13760   9.121  11.326  12.909
41336W        W13761  44.718  28.072  11.162
41337W        W13762  27.417  33.858   0.360
41338W        W13763  27.205  33.548  10.428
41339W        W13764  14.615  23.958   3.499
41340W        W13765  24.152  40.748   1.781
41341W        W13766  15.699  14.094   1.798
41342W        W13767  23.930  16.754   2.386
41343W        W13768  11.773  11.653   2.157
41344W        W13769  16.713  11.786  10.847
41345W        W13770   6.395  15.221  13.558
41346W        W13771  34.050  13.368  13.032
41347W        W13772  43.908   6.281   3.809
41348W        W13773  32.173   4.578  13.572
41349W        W13774   7.862  40.818  11.820
41350W        W13775  32.684  14.612  11.507
41351W        W13776  40.244  16.204   4.101
41352W        W13777  41.584  22.139  10.001
41353W        W13778  44.790  40.026  12.343
41354W        W13779  18.113  41.484   3.704
41355W        W13780   0.754  39.810  10.638
41356W        W13781  35.477  11.174   0.270
41357W        W13782  18.705  34.885   3.330
41358W        W13783  44.217  35.010  10.406
41359W        W13784  37.788  40.857  13.752
41360W        W13785  10.747  13.384  13.982
41361W        W13786  10.231  25.702  13.938
41362W        W13787  27.692  32.469   1.943
41363W        W13788  36.356  33.437   2.447
41364W        W13789  17.993  30.110   4.434
41365W        W13790  21.562  35.092   3.173
41366W        W13791  24.516  43.716  11.195
41367W        W13792  38.978  32.045   3.731
41368W        W13793  38.120   6.930  12.400
41369W        W13794  31.341  41.112  10.238
41370W        W13795   3.243  33.188   3.870
41371W        W13796  34.997  22.286  12.121
41372W        W13797   9.533  13.087   1.881
41373W        W13798  29.220  18.198  13.830
41374W        W13799   1.866   7.879  14.282
41375W        W13800   2.858  41.582   4.793
41376W        W13801  10.480   1.023   1.481
41377W        W13802  24.370   7.127   4.168
41378W        W13803  12.385  14.922   0.107
41379W        W13804   9.188  16.641   4.597
41380W        W13805  43.257  13.775  14.590
41381W        W13806  19.698  39.087  12.559
41382W        W13807  14.722   2.329   3.674
41383W        W13808   7.944  34.948   2.807
41384W        W13809   7.800  26.479  12.468
41385W        W13810  12.328  34.046   1.928
41386W        W13811  18.175   7.688   2.958
41387W        W13812  23.536  39.572  13.045
41388W        W13813  39.053  18.107   3.361
41389W        W13814   2.290  31.664  12.106
41390W        W13815   1.858  18.662  14.235
41391W        W13816  44.446  18.554  11.497
41392W        W13817  43.548   6.950  10.763
41393W        W13818  38.959  44.347  10.925
41394W        W13819  15.105  21.588   0.414
41395W        W13820   8.090  16.904  12.018
41396W        W13821  39.023  12.148  13.820
41397W        W13822  32.853  20.243   2.499
41398W        W13823  17.354  22.333   1.275
41399W        W13824  31.232  14.879   1.195
41400W        W13825  11.553   8.378   2.726
41401W        W13826  18.173  21.992   4.066
41402W        W13827  22.807   0.706   3.729
41403W        W13828  20.533  14.630   0.849
41404W        W13829  30.101  32.107   1.291
41405W        W13830  42.549  17.873   1.787
41406W        W13831  14.717  38.621   0.591
41407W        W13832  34.618  30.624  13.857
41408W        W13833  33.668  27.387   1.415
41409W        W13834  36.666   3.168  13.985
41410W        W13835  13.318  38.838   3.277
41411W        W13836  41.469  18.538  13.955
41412W        W13837   2.329  36.686  11.608
41413W        W13838   3.835   6.693  11.043
41414W        W13839  28.491   9.993  13.314
41415W        W13840  13.261  44.832   0.325
41416W        W13841  15.291  37.493   2.768
41417W        W13842  15.706  43.059  14.301
41418W        W13843  17.607   9.856  13.493
41419W        W13844   0.507  35.881   2.851
41420W        W13845  43.997  23.984  13.351
41421W        W13846  36.008  25.874  14.514
41422W        W13847   1.769  39.309  14.447
41423W        W13848  21.182  28.043   0.430
41424W        W13849   2.760  31.859   3.239
41425W        W13850  25.777  22.100   4.376
41426W        W13851  21.714  12.172  13.328
41427W        W13852  35.184  30.337   9.813
41428W        W13853  12.728  13.242   1.298
41429W        W13854  42.041  11.248   0.460
41430W        W13855  43.798  29.591   3.725
41431W        W13856   5.153  26.608  14.113
41432W        W13857  43.793  29.927  11.015
41433W        W13858  32.015  27.584   1.896
41434W        W13859  27.743  20.988  13.325
41435W        W13860   4.228   9.251   0.911
41436W        W13861   3.377  28.427  13.060
41437W        W13862  17.996   0.870   1.810
41438W        W13863  14.078  19.079  14.802
41439W        W13864   3.783  18.914  14.027
41440W        W13865  28.156  22.497   1.128
41441W        W13866  40.051   1.948   3.650
41442W        W13867  19.156   4.021   3.638
41443W        W13868   9.157  39.796   3.952
41444W        W13869  13.095  24.518  14.299
41445W        W13870  21.106  40.777  12.076
41446W        W13871  20.188  18.414  12.467
41447W        W13872  44.779  44.278  14.504
41448W        W13873  21.298  12.180   1.792
41449W        W13874  26.581  17.644  12.954
41450W        W13875  35.796  39.374   2.903
41451W        W13876  30.888   6.697   2.258
41452W        W13877  25.186   0.289   4.110
41453W        W13878  26.968  32.375  14.801
41454W        W13879   7.339   8.308  12.501
41455W        W13880   8.559  37.143   4.029
41456W        W13881  16.185  21.894   0.730
41457W        W13882  31.454  12.776   4.512
41458W        W13883   1.356  20.808   3.703
41459W        W13884  16.865  40.810  12.737
41460W        W13885  14.625  37.752  13.306
41461W        W13886  24.524   1.358   2.013
41462W        W13887  19.888  11.165   1.561
41463W        W13888   2.998  34.501  14.954
41464W        W13889  14.669   1.339  12.449
41465W        W13890  43.292  18.025   4.625
41466W        W13891  14.331  18.648  10.700
41467W        W13892  41.958   8.370  14.386
41468W        W13893  12.800  33.209   2.010
41469W        W13894  34.988  39.355   2.798
41470W        W13895   8.423  13.172  12.397
41471W        W13896  10.367  21.705   0.820
41472W        W13897  43.992  39.319  14.501
41473W        W13898  10.950  31.571  10.602
41474W        W13899   6.974   9.461  11.149
41475W        W13900  40.351  20.041   0.396
41476W        W13901  14.939  29.736   0.032
41477W        W13902  26.924   7.418   1.330
41478W        W13903   4.031  19.496  13.948
41479W        W13904  31.554  21.404  13.393
41480W        W13905  31.486  22.715   0.118
41481W        W13906  28.037  23.625   2.512
41482W        W13907  44.365   9.399  13.410
41483W        W13908  18.839  40.743   1.943
41484W        W13909  23.463  31.136   4.587
41485W        W13910  23.603  44.266   3.189
41486W        W13911  12.902  17.058   1.719
41487W        W13912  42.836  36.297  12.182
41488W        W13913  23.945  20.392   3.728
41489W        W13914  22.740   2.576  13.565
41490W        W13915   0.408  17.788   2.233
41491W        W13916  37.867  18.774   3.322
41492W        W13917  42.872  25.835   1.732
41493W        W13918  29.497   5.034   2.395
41494W        W13919   3.176  28.439   4.690
41495W        W13920  35.432  17.831  14.422
41496W        W13921  28.084  43.510   4.673
41497W        W13922  20.253  25.249  12.864
41498W        W13923  23.909  32.939  12.253
41499W        W13924   0.885  27.658   1.780
41500W        W13925  18.854  38.764  12.053
41501W        W13926   0.115  33.326   3.091
41502W        W13927  18.292  39.338  14.134
41503W        W13928  33.614  12.391   1.412
41504W        W13929   1.194  33.620   9.820
41505W        W13930   5.138  12.030   0.215
41506W        W13931  43.836   5.855   4.106
41507W        W13932  44.968   3.775   4.399
41508W        W13933  31.601  39.017  12.857
41509W        W13934  36.927  19.325   1.127
41510W        W13935  32.001  30.829  14.260
41511W        W13936  38.749   3.746  14.291
41512W        W13937  24.018  13.134   2.751
41513W        W13938  26.291   2.553  13.978
41514W        W13939  12.297  12.838   3.291
41515W        W13940  24.158  17.053   0.384
41516W        W13941   1.806  25.134   2.658
41517W        W13942  40.332  43.729   2.747
41518W        W13943   3.414   6.179   0.745
41519W        W13944  21.713  23.194  13.563
41520W        W13945  35.993  39.305  11.984
41521W        W13946  21.691   8.280   3.702
41522W        W13947  10.838  11.424   4.518
41523W        W13948  12.140  33.655   3.253
41524W        W13949  28.934  12.739   3.606
41525W        W13950  11.422  44.911   0.186
41526W        W13951   8.573  37.105  11.705
41527W        W13952  33.137  35.409   3.458
41528W        W13953   3.774  21.758  13.944
41529W        W13954  32.544   8.618  10.533
41530W        W13955  31.396   5.411   2.278
41531W        W13956  39.299  30.404   3.720
41532W        W13957  20.273  13.921  13.470
41533W        W13958   8.714  15.532   0.778
41534W        W13959  32.658   6.766  13.596
41535W        W13960  14.517  28.159  10.299
41536W        W13961  38.863  21.204   1.278
41537W        W13962  24.469   2.682   2.741
41538W        W13963   6.296  30.056  11.325
41539W        W13964   4.940  12.662   4.195
41540W        W13965  42.557  18.688   3.329
41541W        W13966  40.935  41.762  12.900
41542W        W13967  34.602   9.818   1.012
41543W        W13968  44.743   2.733   4.558
41544W        W13969  32.571  38.630  13.447
41545W        W13970  43.451  40.011   0.823
41546W        W13971   2.017  24.238   0.821
41547W        W13972  36.277  10.636   3.759
41548W        W13973  18.212  29.846  12.701
41549W        W13974  37.502  27.727  10.550
41550W        W13975   7.654  40.284   4.646
41551W        W13976  20.981  17.447  14.563
41552W        W13977  11.535   1.965   4.576
41553W        W13978  12.182  11.667   2.841
41554W        W13979  31.982  41.606   0.610
41555W        W13980  24.149  13.753   0.258
41556W        W13981  29.541  35.065  10.554
41557W        W13982  29.412  29.484  14.380
41558W        W13983  14.409  26.117   2.791
41559W        W13984  30.388   2.461   3.453
41560W        W13985  28.168   4.877  13.493
41561W        W13986  38.846  43.036   1.303
41562W        W13987  39.059  26.910   2.667
41563W        W13988   0.427   2.164   3.353
41564W        W13989  37.589  34.998  14.343
41565W        W13990  35.884  19.681  10.965
41566W        W13991  10.527  24.291   5.246
41567W        W13992  12.922   4.233   3.728
41568W        W13993   1.515  37.074   4.803
41569W        W13994  40.900  10.350  10.620
41570W        W13995  14.409  11.609   1.713
41571W        W13996  25.713   9.363  13.611
41572W        W13997  28.146  24.729   0.225
41573W        W13998  24.110  36.320  10.694
41574W        W13999  12.829  19.298   1.718
41575W        W14000   1.671   1.468   2.914
41576W        W14001  37.108  36.114  13.999
41577W        W14002  19.227  34.950  13.780
41578W        W14003   5.182  29.122  13.320
41579W        W14004  10.823   8.888   2.390
41580W        W14005  18.822   3.429  13.958
41581W        W14006  40.075   5.860  13.950
41582W        W14007  42.440   3.042   3.207
41583W        W14008  35.284  40.523  11.506
41584W        W14009  23.538  26.204   5.143
41585W        W14010  30.666  25.096   4.834
41586W        W14011  36.865   4.772  10.663
41587W        W14012  43.466  44.314  14.720
41588W        W14013   8.413  36.983   2.155
41589W        W14014   5.953  10.958  14.417
41590W        W14015  16.625  38.840  14.799
41591W        W14016  41.080  16.723  13.307
41592W        W14017  15.246  13.084  14.469
41593W        W14018  15.210  30.385   4.154
41594W        W14019  39.070  43.781   4.203
41595W        W14020  44.415  19.318  12.543
41596W        W14021  39.435  39.052   2.590
41597W        W14022   8.923   7.378  10.784
41598W        W14023  42.106  44.480  14.806
41599W        W14024  25.647  25.967  12.339
41600W        W14025  29.971  20.603  11.617
41601W        W14026   4.837  43.530  12.156
41602W        W14027  33.544  20.658  14.960
41603W        W14028  12.354  41.412   3.266
41604W        W14029  33.794  16.759  14.166
41605W        W14030  25.985   6.281  13.071
41606W        W14031  25.284  28.568   2.912
41607W        W14032  17.118   1.797   5.127
41608W        W14033   2.987  15.835  12.383
41609W        W14034  18.751  44.449   0.411
41610W        W14035  20.687  22.155   0.894
41611W        W14036  13.579  10.667  13.470
41612W        W14037   5.066  18.571   1.290
41613W        W14038  14.877   7.702   0.175
41614W        W14039  41.623  36.132   3.449
41615W        W14040  28.522  33.513  12.516
41616W        W14041  34.566   5.205  10.452
41617W        W14042   4.493  34.742   2.090
41618W        W14043  38.219  21.163  10.082
41619W        W14044  32.861  13.663   0.391
41620W        W14045  30.099  17.599   4.271
41621W        W14046  16.599   0.902   2.757
41622W        W14047   9.345  30.986   0.969
41623W        W14048  23.446  41.926   4.199
41624W        W14049   7.939  24.017   3.209
41625W        W14050  32.634  19.020   1.759
41626W        W14051  28.202   0.300   3.716
41627W        W14052  10.698  25.641   0.185
41628W        W14053  30.486  38.595   0.214
41629W        W14054  29.078  11.777   1.273
41630W        W14055  41.858  28.160   1.884
41631W        W14056  27.542  35.923   4.205
41632W        W14057   4.423  19.865   1.037
41633W        W14058   5.121  23.787   0.994
41634W        W14059  20.539  43.861   0.830
41635W        W14060  19.536  34.908   0.833
41636W        W14061  10.202  42.606  12.077
41637W        W14062  27.545  37.282  12.133
41638W        W14063   6.447  31.415   0.309
41639W        W14064  43.221   0.801   0.039
41640W        W14065   1.020   3.873  13.066
41641W        W14066   6.428  20.849   3.446
41642W        W14067  14.858  24.549  10.662
41643W        W14068  17.091  37.831   0.296
41644W        W14069  20.970  41.277  12.132
41645W        W14070  42.378  21.229  14.594
41646W        W14071  16.315  32.550   1.927
41647W        W14072   0.368  29.943   2.605
41648W        W14073   5.308   9.151  14.568
41649W        W14074  44.836  15.200   3.469
41650W        W14075   1.878  16.101   2.832
41651W        W14076  24.975  13.747  13.897
41652W        W14077  15.002   8.929   2.946
41653W        W14078  36.487   7.358   2.267
41654W        W14079  21.605  38.390  11.006
41655W        W14080   7.266   1.280   4.144
41656W        W14081  38.470  21.035   0.560
41657W        W14082  26.104  18.780  14.429
41658W        W14083   9.108  35.307  11.170
41659W        W14084  20.637  10.398  13.098
41660W        W14085  20.487  31.428   4.323
41661W        W14086   2.056  18.943  12.480
41662W        W14087   5.648  10.257  14.980
41663W        W14088  19.187  31.114   3.964
41664W        W14089   5.288  34.678  10.589
41665W        W14090  10.164  43.012  14.316
41666W        W14091   5.904  10.447  14.321
41667W        W14092  37.468  37.086  12.632
41668W        W14093  11.852  28.657  14.549
41669W        W14094  39.872  36.655  13.753
41670W        W14095   0.235  39.353   3.319
41671W        W14096  20.954  36.321  10.722
41672W        W14097  25.731   8.942  13.328
41673W        W14098  38.114   2.320  14.797
41674W        W14099   2.234   6.885  13.268
41675W        W14100   3.071  36.454  13.436
41676W        W14101  20.405  32.894   0.181
41677W        W14102   8.425  22.496   0.218
41678W        W14103  36.053   8.833  11.499
41679W        W14104  30.092  36.797   3.849
41680W        W14105  27.237   6.279  12.092
41681W        W14106  24.160   7.964  12.998
41682W        W14107  18.586  18.627  14.740
41683W        W14108  13.792  39.946   0.252
41684W        W14109  41.339  16.546   0.852
41685W        W14110   6.439  21.939  11.055
41686W        W14111   4.233  41.123   0.426
41687W        W14112  28.655  29.513  11.638
41688W        W14113  26.352   2.333  12.654
41689W        W14114  43.559  21.052   4.324
41690W        W14115  20.189  43.893  13.936
41691W        W14116  11.234  28.752  11.917
41692W        W14117  26.142  21.529   0.518
41693W        W14118  42.337   6.262  13.545
41694W        W14119  16.363  21.267  11.805
41695W        W14120  11.247  40.000   0.141
41696W        W14121  24.871  12.316  11.632
41697W        W14122  26.298   0.264   3.624
41698W        W14123  35.381  17.665  10.703
41699W        W14124  15.303  10.241   3.691
41700W        W14125  21.126  45.000   2.348
41701W        W14126  41.993  30.389   2.663
41702W        W14127   5.694   3.206   0.822
41703W        W14128  25.096  18.493  12.504
41704W        W14129  35.834  12.074  11.993
41705W        W14130  32.911  34.815  14.918
41706W        W14131   2.011  16.368  13.032
41707W        W14132  24.563  44.235  11.140
41708W        W14133  12.706  13.611   3.075
41709W        W14134   9.054  12.171   3.703
41710W        W14135  28.358   1.770  14.952
41711W        W14136   2.997   7.385   2.301
41712W        W14137  23.536  32.861   3.777
41713W        W14138  24.650  24.639   3.460
41714W        W14139  34.087  39.133   0.242
41715W        W14140  39.911   9.328   1.864
41716W        W14141   1.027  33.886  14.909
41717W        W14142  34.497  40.607   2.963
41718W        W14143  19.802  29.543  12.073
41719W        W14144  17.569  16.061   3.612
41720W        W14145  24.267  16.655  13.779
41721W        W14146  30.683  33.347  14.495
41722W        W14147  23.726  33.533  10.621
41723W        W14148   9.713   8.683  14.218
41724W        W14149  37.139   2.000   4.300
41725W        W14150  24.312   1.421   0.714
41726W        W14151  16.304  15.327  11.952
41727W        W14152  29.789  22.614  13.775
41728W        W14153  31.584  40.727   5.529
41729W        W14154   1.311  41.310  12.467
41730W        W14155  14.287  13.134   4.981
41731W        W14156  38.370  32.402  14.305
41732W        W14157  27.734  33.285   1.925
41733W        W14158  37.853  37.052   4.627
41734W        W14159  29.458  39.838   4.095
41735W        W14160  15.650  14.380   0.795
41736W        W14161  44.700   1.829  14.851
41737W        W14162  21.949  41.439  11.531
41738W        W14163  29.708  20.022   0.419
41739W        W14164  30.902   1.837  11.567
41740W        W14165  18.578  21.639   1.328
41741W        W14166  37.444  43.008  10.443
41742W        W14167  11.718  25.197   4.938
41743W        W14168  13.863  19.366   4.673
41744W        W14169  37.545   6.780  13.533
41745W        W14170   5.323   7.299   3.741
41746W        W14171   1.416   5.775   4.791
41747W        W14172  12.511  36.012  13.389
41748W        W14173  40.070  43.364  12.186
41749W        W14174  40.908  31.144   4.137
41750W        W14175   9.638  25.602   1.337
41751W        W14176  37.852  20.105  12.508
41752W        W14177  38.568  15.619  10.513
41753W        W14178  19.512  18.899  14.543
41754W        W14179   1.649  18.063  14.517
41755W        W14180  28.147   6.887  14.049
41756W        W14181  32.365  22.172  12.096
41757W        W14182   8.691  24.356  14.890
41758W        W14183   1.454  43.048  13.390
41759W        W14184  15.234  34.499  12.016
41760W        W14185  23.020  28.372   0.439
41761W        W14186  23.477  32.361  12.804
41762W        W14187   1.405  44.103  11.703
41763W        W14188  41.931   2.196   1.698
41764W        W14189  28.520  35.164  13.661
41765W        W14190  22.730  23.607   2.273
41766W        W14191  31.197  25.215   4.098
41767W        W14192   8.493  36.274  11.425
41768W        W14193  44.733  36.277  13.117
41769W        W14194   3.800   2.604   3.993
41770W        W14195  19.667   6.299  10.802
41771W        W14196  16.202  33.621  14.921
41772W        W14197  23.256  18.312  14.563
41773W        W14198  16.823   6.485  13.633
41774W        W14199  13.211  22.418   2.655
41775W        W14200  44.264  42.520  11.883
41776W        W14201  31.011   3.010  11.685
41777W        W14202  36.211   0.529   0.787
41778W        W14203  43.955   4.770  14.439
41779W        W14204  34.698  27.101  14.520
41780W        W14205  36.091  23.181   4.065
41781W        W14206  12.845  28.107  13.395
41782W        W14207  36.104  41.973   0.381
41783W        W14208   0.485  43.129   1.314
41784W        W14209  11.866  39.777   0.355
41785W        W14210  34.898   4.162  11.025
41786W        W14211  19.234  21.048  13.020
41787W        W14212  32.424  30.555   5.086
41788W        W14213  39.279  13.364  12.388
41789W        W14214  39.718  37.750  11.663
41790W        W14215  10.213  43.023   0.406
41791W        W14216  18.165  35.518   1.697
41792W        W14217  22.344  35.517   3.742
41793W        W14218  20.597   0.517  13.477
41794W        W14219   5.538  33.427   2.185
41795W        W14220  14.201  24.776   1.456
41796W        W14221  30.944  42.437   3.400
41797W        W14222  18.978   4.694   0.770
41798W        W14223  41.906  36.634  12.422
41799W        W14224  40.785  22.069   5.046
41800W        W14225  34.166  41.590   1.139
41801W        W14226  39.802   4.396   0.581
41802W        W14227  22.947  33.054  12.037
41803W        W14228  31.417   7.488  14.984
41804W        W14229  41.320   5.317   0.243
41805W        W14230  12.652  15.169  14.709
41806W        W14231  38.199  16.532  10.929
41807W        W14232  33.904  35.955  13.524
41808W        W14233  17.301  40.573  12.693
41809W        W14234  22.739  15.151   4.141
41810W        W14235   7.777  40.349  11.547
41811W        W14236  28.100   3.331  14.838
41812W        W14237  36.619  38.673  11.552
41813W        W14238   6.736  17.739   0.680
41814W        W14239  32.163   7.923   4.218
41815W        W14240  39.719  37.223  10.667
41816W        W14241   0.818  18.187  10.718
41817W        W14242  39.414  24.971  14.395
41818W        W14243  31.725  38.994  13.755
41819W        W14244   7.626  10.263  12.911
41820W        W14245  21.411  36.903  14.030
41821W        W14246   5.713  12.430   2.459
41822W        W14247  30.095  16.583   4.090
41823W        W14248  20.065  33.023   0.986
41824W        W14249  32.813  17.190   1.547
41825W        W14250   9.172  37.817  14.344
41826W        W14251  19.743  36.171  14.540
41827W        W14252  34.938  11.624   0.902
41828W        W14253  32.560  36.536   0.774
41829W        W14254  38.849  30.384  12.908
41830W        W14255  28.193  20.539   3.670
41831W        W14256   5.546   8.324  12.994
41832W        W14257  15.560  36.599  14.829
41833W        W14258  34.117  26.777  13.012
41834W        W14259  35.403  34.035   2.452
41835W        W14260   9.120  13.844   1.963
41836W        W14261   3.098  26.438   5.053
41837W        W14262  44.777  40.770  11.023
41838W        W14263  22.274   3.805   4.506
41839W        W14264   5.179  26.571  10.599
41840W        W14265  40.098  19.088   3.176
41841W        W14266   0.425  32.886   3.846
41842W        W14267  20.691  26.141  12.889
41843W        W14268  40.801  28.041  14.299
41844W        W14269  18.201  33.186   4.634
41845W        W14270  32.168  16.990  12.883
41846W        W14271  18.408  44.475  14.022
41847W        W14272  16.990  29.997   4.576
41848W        W14273   2.314  14.729  12.964
41849W        W14274  18.303   3.268  12.122
41850W        W14275  27.426  35.071   1.711
41851W        W14276  41.758  26.032  10.854
41852W        W14277  14.869  39.068  12.797
41853W        W14278  20.273   3.760  10.696
41854W        W14279   5.411   8.648  10.640
41855W        W14280  39.561  42.758  12.845
41856W        W14281  24.682  21.466   0.977
41857W        W14282   0.415  20.058   0.702
41858W        W14283  41.781  40.345   2.656
41859W        W14284  40.324  13.796  14.909
41860W        W14285  14.485  43.744   3.472
41861W        W14286  20.383   5.477  12.539
41862W        W14287   7.418  38.989   2.649
41863W        W14288   4.120  19.071   3.273
41864W        W14289  10.803  31.198  11.484
41865W        W14290  25.594  35.123   4.047
41866W        W14291  30.918  21.357  11.004
41867W        W14292  44.755  11.623   2.418
41868W        W14293  31.410  13.199   0.998
41869W        W14294  27.223  22.218  11.229
41870W        W14295  26.026  39.398   2.200
41871W        W14296  44.947  21.703  12.439
41872W        W14297  18.874   7.276  13.991
41873W        W14298   3.963  18.954   1.179
41874W        W14299  29.942  34.724   0.553
41875W        W14300  15.016  19.434   4.373
41876W        W14301   2.302   2.426  14.776
41877W        W14302   0.993  42.878   4.306
41878W        W14303  13.532  35.901   4.601
41879W        W14304  27.604  27.094   1.473
41880W        W14305  44.041  11.849   4.767
41881W        W14306  41.558  39.612  11.184
41882W        W14307  27.920  30.963   1.885
41883W        W14308  29.434  40.820   2.584
41884W        W14309  28.548  19.085  14.425
41885W        W14310  32.933   0.568  11.689
41886W        W14311  25.207  17.521   4.148
41887W        W14312  29.459  14.237   0.020
41888W        W14313  22.244  10.299  11.481
41889W        W14314  13.318  22.256  14.234
41890W        W14315   6.408  39.018  11.526
41891W        W14316   9.886  13.996   4.663
41892W        W14317  26.380  32.170   5.458
41893W        W14318  22.163  21.280   1.492
41894W        W14319   8.829  37.513  14.932
41895W        W14320   4.376  39.255   3.655
41896W        W14321   7.239  37.754   3.220
41897W        W14322  24.018  13.353   0.542
41898W        W14323  25.849  20.548   4.292
41899W        W14324  23.020   3.201   1.495
41900W        W14325  44.151  23.409  14.912
41901W        W14326  10.780  12.908  13.779
41902W        W14327  22.940  24.220  13.760
41903W        W14328  32.190  39.991  13.445
41904W        W14329  18.336  11.197   3.654
41905W        W14330  37.132  32.801  14.481
41906W        W14331  31.097  15.877  13.582
41907W        W14332   8.235   1.501   3.266
41908W        W14333   7.827  22.689   2.559
41909W        W14334  30.365  39.830   1.514
41910W        W14335   7.385  38.835   1.669
41911W        W14336  15.360  10.839  12.577
41912W        W14337   2.498  12.898  13.339
41913W        W14338  40.916  18.594  13.361
41914W        W14339  31.141  10.307  14.480
41915W        W14340   3.020  32.198  14.224
41916W        W14341  26.038  40.892   4.023
41917W        W14342  34.881  32.022   1.213
41918W        W14343  16.233  32.888   3.760
41919W        W14344   3.446  24.693   2.265
41920W        W14345  14.054  10.407  14.317
41921W        W14346  41.926  13.883  12.991
41922W        W14347   7.430  13.187  11.552
41923W        W14348  21.809   4.300  10.521
41924W        W14349  15.387   5.283  12.282
41925W        W14350  43.546  11.650   4.767
41926W        W14351   0.927  28.620  14.723
41927W        W14352  34.872  20.375   2.160
41928W        W14353  10.418  41.019  13.467
41929W        W14354   6.449   5.453  14.738
41930W        W14355  21.164   4.924  14.311
41931W        W14356  24.138  14.235  11.546
41932W        W14357  20.567   3.406  10.951
41933W        W14358  38.129  14.058  12.875
41934W        W14359   3.572  18.467   2.872
41935W        W14360  13.717   8.646  11.203
41936W        W14361  10.866  16.331   0.236
41937W        W14362  20.579  30.196  12.978
41938W        W14363  32.582  40.019  11.185
41939W        W14364  40.837  35.916   4.546
41940W        W14365  35.882   6.847   0.994
41941W        W14366  20.621  14.897   3.746
41942W        W14367  14.253  26.623   5.199
41943W        W14368   3.890  20.532  11.450
41944W        W14369  32.971  40.243  14.272
41945W        W14370   1.241  40.567   4.929
41946W        W14371  11.101   9.884  12.256
41947W        W14372  22.554   3.402  12.004
41948W        W14373  35.483  30.177  10.705
41949W        W14374  34.714   3.239  14.899
41950W        W14375   1.941  33.047  12.974
41951W        W14376  29.358   2.057  14.892
41952W        W14377  21.567  39.657  10.728
41953W        W14378   1.283   7.630   0.495
41954W        W14379  41.339  14.766   1.268
41955W        W14380  39.799   8.368   1.961
41956W        W14381  24.157  33.008   3.111
41957W        W14382  25.578  33.337  12.352
41958W        W14383  29.122  20.727   2.888
41959W        W14384  19.818  23.562   2.634
41960W        W14385   0.247  11.064   4.214
41961W        W14386  13.576   0.268  10.694
41962W        W14387  40.564   5.316  10.759
41963W        W14388  31.464  28.585   1.914
41964W        W14389  37.431   1.901  14.069
41965W        W14390  15.588   2.716   3.162
41966W        W14391  14.611   2.973   3.327
41967W        W14392   5.103  42.531   4.697
41968W        W14393  40.558  22.031  11.439
41969W        W14394  40.316  19.508   5.084
41970W        W14395   4.734  44.043   3.250
41971W        W14396   1.339  11.871   1.760
41972W        W14397   8.405  19.252  11.922
41973W        W14398   7.529  31.015   1.707
41974W        W14399  31.433  28.650   4.417
41975W        W14400  35.961  26.224  14.063
41976W        W14401   5.036  20.000   2.538
41977W        W14402   3.675   7.577   0.400
41978W        W14403  42.340   6.887  11.348
41979W        W14404  16.268   8.698   2.384
41980W        W14405  37.676  20.020  11.009
41981W        W14406  23.080  25.151  12.482
41982W        W14407  34.528   6.195  11.481
41983W        W14408   0.750  14.092  14.367
41984W        W14409   2.290  28.649  12.593
41985W        W14410  20.703  25.959  10.689
41986W        W14411  12.256  28.436   4.160
41987W        W14412  30.303  19.611  14.298
41988W        W14413   0.147  15.548   2.711
41989W        W14414  25.535   2.189  11.080
41990W        W14415  34.611   9.811  10.616
41991W        W14416  15.666  34.998   4.383
41992W        W14417  41.071  39.461   1.049
41993W        W14418   9.262  13.431   0.432
41994W        W14419   7.773  36.453   1.239
41995W        W14420   5.912  38.965  12.492
41996W        W14421  42.843  42.486   9.945
41997W        W14422   4.817   9.025  12.906
41998W        W14423  40.028  36.466   0.750
41999W        W14424  15.125  40.840   1.844
42000W        W14425  11.574  10.216   4.139
42001W        W14426  35.051  22.779  13.087
42002W        W14427  35.854  17.489   1.321
42003W        W14428   9.747  25.985  14.424
42004W        W14429  41.216  25.657  13.268
42005W        W14430   3.521   5.427   2.500
42006W        W14431  10.171  18.630  10.693
42007W        W14432  12.211  26.714   3.990
42008W        W14433  26.699  35.670  12.402
42009W        W14434  21.855  11.110  10.233
42010W        W14435  38.966  40.981  14.609
42011W        W14436  13.666  39.414  13.568
42012W        W14437  11.983  35.409  12.565
42013W        W14438  31.979  39.631   4.775
42014W        W14439  41.887  30.262   9.858
42015W        W14440  29.219   1.309   1.936
42016W        W14441  30.483  27.431   0.882
42017W        W14442  37.522   0.290   4.664
42018W        W14443  34.225   8.245  10.332
42019W        W14444   5.389   7.624   4.319
42020W        W14445  39.576  42.935   2.591
42021W        W14446   4.263  40.298   0.963
42022W        W14447  22.593  30.972   0.197
42023W        W14448  30.201  15.235  12.942
42024W        W14449  18.702  25.333  14.960
42025W        W14450   6.366  41.775   0.709
42026W        W14451  24.149  22.906   1.339
42027W        W14452  29.599   5.289  12.774
42028W        W14453  13.704  22.024   4.275
42029W        W14454  33.128  39.866  12.484
42030W        W14455  27.902  27.000   1.907
42031W        W14456  10.767  36.998  13.880
42032W        W14457  32.111  41.980  14.522
42033W        W14458  39.029  27.025  12.649
42034W        W14459  14.853  36.376  13.520
42035W        W14460  36.786  22.492  10.942
42036W        W14461  35.401  41.905   1.914
42037W        W14462  15.850  14.312   2.836
42038W        W14463  25.487  14.048   3.166
42039W        W14464  41.839  17.828   0.914
42040W        W14465  19.726  31.131   4.672
42041W        W14466  34.060  35.442  10.778
42042W        W14467  20.712  27.031  10.791
42043W        W14468   3.781  15.731  12.094
42044W        W14469   1.614  24.700  11.990
42045W        W14470  37.337  43.960   2.874
42046W        W14471  28.045  22.414   4.263
42047W        W14472   4.317  10.856   4.092
42048W        W14473  19.298  37.943  13.272
42049W        W14474  44.252  30.663  14.944
42050W        W14475  20.225  29.361   3.678
42051W        W14476   1.334  20.316   1.973
42052W        W14477  44.311  32.924   4.560
42053W        W14478  27.657   8.863  10.487
42054W        W14479   2.887  21.920   2.577
42055W        W14480  38.449  25.515   4.609
42056W        W14481  22.783  43.048  12.122
42057W        W14482   0.836  40.994   3.816
42058W        W14483  18.691  37.775  12.006
42059W        W14484  11.865  16.703  14.520
42060W        W14485  40.610  33.596  10.790
42061W        W14486   0.865  37.304  12.615
42062W        W14487  15.120  36.955   1.953
42063W        W14488  41.322  38.185   0.796
42064W        W14489  10.773  34.648  10.971
42065W        W14490  24.662   9.655  11.974
42066W        W14491  27.061  25.164  11.502
42067W        W14492  22.602   0.377  11.665
42068W        W14493   4.487  19.305  14.996
42069W        W14494  26.799  17.113  12.554
42070W        W14495  44.562  13.721  11.479
42071W        W14496  34.052  32.467  14.316
42072W        W14497  40.786   7.295   0.285
42073W        W14498  13.735   3.850   5.467
42074W        W14499  34.853  33.001  14.816
42075W        W14500  19.263   8.708   1.538
42076W        W14501  30.369  11.751  11.421
42077W        W14502  40.843   3.675   4.290
42078W        W14503  10.606  33.401   1.752
42079W        W14504  17.759  22.210   3.804
42080W        W14505  17.143  15.276   2.678
42081W        W14506  33.449  27.022  14.876
42082W        W14507  37.885  17.204   1.537
42083W        W14508  31.492  40.063   1.509
42084W        W14509  28.215  40.523   2.391
42085W        W14510   4.234  28.554   3.227
42086W        W14511   2.492  20.449  13.871
42087W        W14512  31.415  30.971   4.228
42088W        W14513  15.584  28.423   3.676
42089W        W14514   3.405  25.690   2.868
42090W        W14515  22.504  39.473   0.733
42091W        W14516  12.105  30.414   3.266
42092W        W14517  32.138  22.062   3.459
42093W        W14518  25.235  29.277   3.397
42094W        W14519  39.786  23.539  11.731
42095W        W14520  44.416  38.059  14.226
42096W        W14521   4.696  27.709  10.603
42097W        W14522  16.160  15.492   0.392
42098W        W14523  36.100   8.854  14.238
42099W        W14524  21.935  12.355   5.556
42100W        W14525  24.711  11.892  11.389
42101W        W14526  10.723  29.922  12.061
42102W        W14527  17.113  20.732  14.506
42103W        W14528  10.617  29.186   3.260
42104W        W14529  22.861   4.476   4.199
42105W        W14530  23.268  34.164   4.498
42106W        W14531   8.221  39.055  12.024
42107W        W14532  29.649   1.866  13.335
42108W        W14533  11.657  20.145   2.371
42109W        W14534  20.657  20.712  10.888
42110W        W14535  10.825  22.761   2.379
42111W        W14536  26.020  21.535   2.285
42112W        W14537  31.114  40.123  12.131
42113W        W14538  20.610  13.679   3.359
42114W        W14539  19.015  40.893   0.404
42115W        W14540   2.551  12.413  13.094
42116W        W14541   9.864  40.604   0.923
42117W        W14542  26.765  20.971  12.616
42118W        W14543  34.390  22.972   4.488
42119W        W14544  22.172  37.640   5.049
42120W        W14545  15.816  13.712   0.255
42121W        W14546  22.294  14.695   3.272
42122W        W14547   9.824  11.895   4.057
42123W        W14548   0.823   2.271   4.187
42124W        W14549  35.192  23.331   1.544
42125W        W14550  26.850  41.355   2.274
42126W        W14551   5.383  12.042   2.322
42127W        W14552  13.575  23.146   3.137
42128W        W14553  28.144  44.649   3.317
42129W        W14554   2.108  34.736  14.152
42130W        W14555   4.311   3.231   4.095
42131W        W14556   1.847   8.184  12.021
42132W        W14557  31.627  38.955   3.256
42133W        W14558  11.094  13.323   1.851
42134W        W14559  34.695  38.984   2.224
42135W        W14560  13.187  14.382  13.195
42136W        W14561   2.869   5.706  11.199
42137W        W14562  38.885  18.813  11.108
42138W        W14563  15.970  20.675   1.691
42139W        W14564  40.583   7.448  12.895
42140W        W14565   9.193  28.321  11.484
42141W        W14566  29.888   8.924   2.817
42142W        W14567  11.592  34.354  12.060
42143W        W14568   7.960  29.123   1.476
42144W        W14569   2.199   7.707  11.546
42145W        W14570   3.010  33.993   3.984
42146W        W14571  17.164   1.797   4.160
42147W        W14572  35.896  37.980  10.678
42148W        W14573  12.076   3.700   4.647
42149W        W14574   3.253  33.004  11.540
42150W        W14575  27.205  24.567  11.868
42151W        W14576   1.129   0.511   5.101
42152W        W14577  27.748  11.396   2.910
42153W        W14578  16.175  18.713  13.426
42154W        W14579  33.092  27.141   3.284
42155W        W14580  33.332  11.717   0.907
42156W        W14581  18.336  19.356   2.416
42157W        W14582  37.411  29.153   3.619
42158W        W14583  35.094   2.862   2.182
42159W        W14584  14.608  10.167  14.821
42160W        W14585  40.372  31.037  14.800
42161W        W14586  36.332  30.116   3.664
42162W        W14587  38.884  10.280  12.848
42163W        W14588  18.798  42.785   5.079
42164W        W14589   6.261  37.540   1.898
42165W        W14590  42.956   0.242  10.699
42166W        W14591  15.661  42.686  12.154
42167W        W14592   7.231  10.846  10.737
42168W        W14593   4.144  16.885  13.013
42169W        W14594   5.289  24.023   4.673
42170W        W14595  26.668   0.415  14.126
42171W        W14596  11.747   7.990   0.769
42172W        W14597  15.976   4.179   4.243
42173W        W14598   7.331  24.572  13.510
42174W        W14599  34.815  44.571   2.310
42175W        W14600   2.906  25.156   0.841
42176W        W14601   3.412  24.676  14.813
42177W        W14602  20.227  36.114  10.665
42178W        W14603  26.463  21.908  14.780
42179W        W14604  24.141  41.420  11.901
42180W        W14605  35.938  35.641  14.807
42181W        W14606   7.371  11.631   4.565
42182W        W14607  24.224  11.743  11.341
42183W        W14608   3.513   6.848  13.162
42184W        W14609  36.561  24.917  14.904
42185W        W14610  16.222  40.835   0.947
42186W        W14611  15.278  35.084  10.228
42187W        W14612  25.034   8.886  12.081
42188W        W14613  19.083  34.258   4.608
42189W        W14614  14.623  25.001  10.675
42190W        W14615  41.363  27.085  13.412
42191W        W14616   8.370  20.828   1.033
42192W        W14617   0.897  37.067  13.069
42193W        W14618   8.429   9.200   1.207
42194W        W14619  42.706   3.799  14.753
42195W        W14620   2.910  17.425  14.234
42196W        W14621  24.564  14.419  11.279
42197W        W14622  10.377  43.745   4.051
42198W        W14623  26.948  40.003   0.225
42199W        W14624  43.954   0.567  12.417
42200W        W14625   7.844  21.748  12.145
42201W        W14626  10.064  26.140   4.630
42202W        W14627  38.133  42.450  12.076
42203W        W14628  17.947  18.678  11.259
42204W        W14629  37.877  13.582  10.824
42205W        W14630  21.345  14.803   2.575
42206W        W14631  19.728   4.636   5.141
42207W        W14632  15.775  43.043  12.541
42208W        W14633  42.216  22.578  14.799
42209W        W14634  38.972  26.424  10.445
42210W        W14635   1.352  34.316  14.788
42211W        W14636  35.945  19.193  13.104
42212W        W14637  39.898   7.281   0.170
42213W        W14638  18.269  30.801   2.796
42214W        W14639  11.116  43.521   2.284
42215W        W14640  16.218  13.426  13.529
42216W        W14641  29.845  12.644   2.369
42217W        W14642  38.801  35.309  12.059
42218W        W14643  13.813  18.818  13.603
42219W        W14644  31.413  39.571   1.657
42220W        W14645  19.761  18.325  14.374
42221W        W14646  18.241  36.291  12.022
42222W        W14647  44.400  29.353  10.546
42223W        W14648  13.797  38.427   2.576
42224W        W14649  29.334  26.912  12.678
42225W        W14650  40.362  11.827   2.304
42226W        W14651  35.819  22.722  14.091
42227W        W14652  21.590  12.284  13.833
42228W        W14653  38.774  10.615  13.862
42229W        W14654  34.827   6.232  10.306
42230W        W14655  11.820   5.956  13.984
42231W        W14656  40.509   0.513   1.356
42232W        W14657  17.292  38.984  13.297
42233W        W14658  39.584  44.465   1.409
42234W        W14659  32.774  36.371  11.121
42235W        W14660   1.309   2.373   4.263
42236W        W14661   0.071  10.637   0.763
42237W        W14662  11.173  23.639  13.496
42238W        W14663  24.294  32.915  14.675
42239W        W14664  28.946  12.263   1.468
42240W        W14665  20.998  25.159  10.854
42241W        W14666   9.804   5.912   1.429
42242W        W14667  44.416  13.780   4.145
42243W        W14668  25.534  28.682   1.246
42244W        W14669   5.425  14.691  11.954
42245W        W14670   0.885  35.301   2.149
42246W        W14671  33.378   4.921   4.707
42247W        W14672  13.390  41.818  13.436
42248W        W14673  37.032  29.883   0.943
42249W        W14674  12.704  23.884   1.442
42250W        W14675  28.966  33.068   4.149
42251W        W14676   7.719  15.514   4.620
42252W        W14677  36.391   7.848  12.326
42253W        W14678  22.172  40.842   0.958
42254W        W14679  44.945   5.910  14.028
42255W        W14680  22.023  35.453  14.132
42256W        W14681  32.475  11.162  12.440
42257W        W14682  35.833  10.200  11.194
42258W        W14683  24.508  13.551   0.564
42259W        W14684  24.058  22.997  14.448
42260W        W14685  10.230  29.083   0.557
42261W        W14686   2.394  10.627   0.492
42262W        W14687  42.296  37.936   2.416
42263W        W14688   3.331   3.206   2.630
42264W        W14689  26.619  39.120   0.496
42265W        W14690   8.656  38.014   4.966
42266W        W14691  37.403  37.507   2.475
42267W        W14692  36.800   7.595  12.534
42268W        W14693   8.817  44.085   1.009
42269W        W14694  13.546   4.297   5.258
42270W        W14695  11.423  32.181  11.410
42271W        W14696   5.373  15.091  11.623
42272W        W14697  16.904   6.945   0.898
42273W        W14698  19.201  19.370   2.499
42274W        W14699  37.389  20.244   0.213
42275W        W14700  27.576  43.022   1.874
42276W        W14701  11.227  19.713   0.829
42277W        W14702  15.315   5.606   3.645
42278W        W14703  17.165  31.088  11.706
42279W        W14704  20.458  23.153  12.174
42280W        W14705  26.874  33.225  12.346
42281W        W14706  24.991  26.366   4.594
42282W        W14707  37.057   8.281  12.060
42283W        W14708  24.129  16.824  12.105
42284W        W14709  35.958  21.030   3.587
42285W        W14710   4.671  29.443  11.851
42286W        W14711  22.996  30.889   4.563
42287W        W14712  32.198  33.629  12.496
42288W        W14713   8.328   1.449   0.369
42289W        W14714  31.204  23.610   1.390
42290W        W14715   5.574   7.892   2.686
42291W        W14716  42.885  14.707  13.035
42292W        W14717  31.950  39.400   0.801
42293W        W14718  10.220  37.683  10.466
42294W        W14719  25.828  13.329   2.429
42295W        W14720  16.583  34.162  12.502
42296W        W14721  13.642   0.528  12.535
42297W        W14722   4.909  22.199   3.785
42298W        W14723  18.562  17.896  12.953
42299W        W14724  37.421   8.193  13.905
42300W        W14725  31.186  30.004   4.860
42301W        W14726  28.163  44.424   3.834
42302W        W14727  25.077  20.017   2.315
42303W        W14728  21.177  37.785  14.895
42304W        W14729  21.724  28.049  14.711
42305W        W14730  42.646  41.513   2.789
42306W        W14731  38.022   3.264   3.354
42307W        W14732   6.697   8.658   3.717
42308W        W14733  24.586  30.891  12.412
42309W        W14734  12.697  41.808   3.312
42310W        W14735  19.699  39.839   0.794
42311W        W14736   8.727  26.042   3.876
42312W        W14737   7.664  20.725   2.677
42313W        W14738  22.002   9.661   3.267
42314W        W14739   6.476   6.951  13.099
42315W        W14740  42.077  25.137   2.818
42316W        W14741  33.317   5.974   4.257
42317W        W14742   1.515  13.170   3.203
42318W        W14743  24.229  32.603  12.486
42319W        W14744  15.387   3.549  12.579
42320W        W14745  23.141  30.725  14.087
42321W        W14746  16.061   6.599  10.864
42322W        W14747  18.081  29.547  14.667
42323W        W14748  38.141  27.148  13.060
42324W        W14749  32.568  25.649  11.827
42325W        W14750  29.174  24.314   4.370
42326W        W14751   6.487   9.242  11.123
42327W        W14752  10.092  15.927   0.154
42328W        W14753  35.500   6.251   0.411
42329W        W14754  37.305  34.562   3.355
42330W        W14755  20.723  33.966   3.817
42331W        W14756  38.099  29.313   3.754
42332W        W14757  35.865   3.251   2.467
42333W        W14758  12.326  43.359  12.947
42334W        W14759  11.064  14.076  11.360
42335W        W14760  41.559  29.671  10.715
42336W        W14761  24.504   3.914  12.406
42337W        W14762   3.411  30.565  10.741
42338W        W14763  41.202  12.264  14.106
42339W        W14764  31.338  34.987  11.578
42340W        W14765   7.712  25.450   3.734
42341W        W14766  37.455  42.898   2.662
42342W        W14767  13.570  18.801  11.721
42343W        W14768   2.233  29.460   2.918
42344W        W14769  20.039  14.279   4.296
42345W        W14770  23.359  10.689  10.996
42346W        W14771  17.766  37.839  10.678
42347W        W14772  33.558  33.497   1.312
42348W        W14773  15.065  24.976   0.650
42349W        W14774  22.977   0.378  10.871
42350W        W14775  40.347  21.300   0.933
42351W        W14776  42.933  24.227  12.788
42352W        W14777  36.418  26.854   3.138
42353W        W14778  36.387  39.288   0.169
42354W        W14779  25.461  14.224   4.423
42355W        W14780   3.781   4.608   3.099
42356W        W14781   6.886  23.169   3.377
42357W        W14782  37.521  16.521   4.024
42358W        W14783  19.601   9.646  14.970
42359W        W14784  12.811  25.476  14.412
42360W        W14785  33.962   9.877   2.925
42361W        W14786   9.655  23.456  13.886
42362W        W14787  36.087  15.276   3.085
42363W        W14788  16.697  13.708  10.866
42364W        W14789   6.535  36.593  11.431
42365W        W14790  37.036  42.085  14.013
42366W        W14791  12.902   2.967  11.136
42367W        W14792  13.121  27.190  13.483
42368W        W14793  20.048  17.940   4.547
42369W        W14794   1.294  31.373   2.815
42370W        W14795  10.131  17.616  12.922
42371W        W14796  17.095   5.515  11.170
42372W        W14797   5.123  44.422  12.515
42373W        W14798  28.618  25.230   3.923
42374W        W14799   0.223  14.788  12.772
42375W        W14800  17.225  19.455  10.285
42376W        W14801  26.238  17.086  13.553
42377W        W14802  44.675  19.098  12.932
42378W        W14803   8.615   9.677   0.988
42379W        W14804   5.439  19.562   1.484
42380W        W14805  43.599   4.977   2.923
42381W        W14806  11.685   2.735   2.333
42382W        W14807   2.491   2.043  13.515
42383W        W14808  14.256  35.188   1.834
42384W        W14809  38.759  18.316  10.730
42385W        W14810  29.342  29.076  11.204
42386W        W14811   8.207  14.853   1.246
42387W        W14812  17.285  38.954   0.949
42388W        W14813   5.900  35.385  13.132
42389W        W14814  34.021  41.066  12.058
42390W        W14815  36.583  38.984   2.717
42391W        W14816  44.606   4.910   2.500
42392W        W14817  34.903  40.451  14.539
42393W        W14818  16.704  26.998  10.433
42394W        W14819  36.026  27.628  13.259
42395W        W14820  13.664   2.440   0.811
42396W        W14821   4.782  36.061   0.325
42397W        W14822  37.038  27.489  11.677
42398W        W14823  21.820  24.668  10.729
42399W        W14824  13.268  22.084   3.051
42400W        W14825  40.863  10.792  11.559
42401W        W14826  20.695  17.213  14.953
42402W        W14827  24.457  38.962   1.229
42403W        W14828  35.892   3.389  12.953
42404W        W14829  25.396  21.548  14.973
42405W        W14830  14.991   4.759  11.954
42406W        W14831   5.614  29.626   4.290
42407W        W14832   3.236  11.682  14.084
42408W        W14833  38.046  36.407  10.478
42409W        W14834  14.124  35.970  12.993
42410W        W14835  38.542  19.089  14.365
42411W        W14836   3.380  16.578   3.579
42412W        W14837  37.831  37.973   4.562
42413W        W14838  19.281  11.493   4.883
42414W        W14839  44.803   7.835  13.844
42415W        W14840  11.182  26.094  12.104
42416W        W14841  16.598   8.818  13.104
42417W        W14842  16.074  13.648  13.985
42418W        W14843   1.590  25.949  12.001
42419W        W14844   9.660   0.247   3.870
42420W        W14845   1.970  43.782  13.416
42421W        W14846  41.654   0.297  14.891
42422W        W14847  40.025  42.552  13.462
42423W        W14848  12.973  21.933   2.638
42424W        W14849  18.750  44.856   3.296
42425W        W14850  16.286  23.807  10.547
42426W        W14851   2.361   5.894   3.167
42427W        W14852  12.278  35.916  13.942
42428W        W14853  36.053  32.672  11.222
42429W        W14854   2.499   8.726  11.834
42430W        W14855  26.045   1.884  14.895
42431W        W14856  28.366  35.861   2.198
42432W        W14857  36.924   9.760   1.297
42433W        W14858  10.570   6.692  11.266
42434W        W14859   0.779  34.972   4.126
42435W        W14860   8.307  27.621  10.949
42436W        W14861  40.600   1.488  14.258
42437W        W14862  29.985  21.934  13.421
42438W        W14863  13.177  12.360  14.024
42439W        W14864  23.426  40.897   4.705
42440W        W14865  14.359  10.010  10.092
42441W        W14866  28.226  19.604  10.237
42442W        W14867  34.434   2.195   2.699
42443W        W14868  20.276   2.661   3.785
42444W        W14869   0.717  40.007  12.235
42445W        W14870   9.796  26.031   0.817
42446W        W14871  39.986  16.195  12.844
42447W        W14872  28.019   0.528  14.400
42448W        W14873   6.960  31.158   1.189
42449W        W14874  43.183  12.730  11.464
42450W        W14875  21.932  19.586   3.411
42451W        W14876  36.207  14.276  11.169
42452W        W14877   5.962   0.926   5.128
42453W        W14878   8.233  14.604   3.277
42454W        W14879  24.710  20.513   0.194
42455W        W14880  24.112   6.311  14.860
42456W        W14881  23.583  43.511   1.277
42457W        W14882   4.303  40.863  12.537
42458W        W14883  31.918  18.758   4.142
42459W        W14884  11.334  40.283  13.008
42460W        W14885   0.193  38.605   2.346
42461W        W14886  37.914   3.490   4.623
42462W        W14887  34.478  19.853  14.412
42463W        W14888   8.646  37.477   2.046
42464W        W14889  44.026  28.418  14.923
42465W        W14890  28.883   9.514  13.805
42466W        W14891   2.538  12.665  11.026
42467W        W14892   1.516   6.754   3.199
42468W        W14893   8.862   2.749   0.479
42469W        W14894   9.587  25.976   3.279
42470W        W14895  30.121  11.611   2.238
42471W        W14896   2.962  40.330  10.693
42472W        W14897  11.113  41.453  11.151
42473W        W14898  17.961   3.648  12.684
42474W        W14899  22.874  29.492   4.202
42475W        W14900  27.683   6.896  13.276
42476W        W14901  15.651  11.087  10.277
42477W        W14902  32.039  42.478  10.482
42478W        W14903  13.581  35.431   2.899
42479W        W14904  14.298  26.807  14.882
42480W        W14905  26.615  23.173  11.436
42481W        W14906  38.905  14.476  11.068
42482W        W14907  18.844  27.197   0.120
42483W        W14908  39.044  11.166   4.603
42484W        W14909  29.926  38.996   1.137
42485W        W14910  29.139  40.184   4.369
42486W        W14911   3.583  25.678   2.367
42487W        W14912  25.990  32.392   2.351
42488W        W14913  28.915  28.056  11.647
42489W        W14914  43.478  32.513  14.048
42490W        W14915  11.070  30.458   1.418
42491W        W14916   2.758  26.563   1.657
42492W        W14917  16.818  31.131   2.764
42493W        W14918  24.846  27.542   2.773
42494W        W14919  10.428  14.163  10.613
42495W        W14920  22.540  17.229   4.015
42496W        W14921  23.359  12.893  12.492
42497W        W14922  26.160  40.534  14.389
42498W        W14923  17.322  31.316   2.903
42499W        W14924  31.318   0.889   1.310
42500W        W14925  40.231  10.108   3.640
42501W        W14926   2.748  30.435   2.668
42502W        W14927   9.763  22.278   0.985
42503W        W14928   5.768  44.403  14.861
42504W        W14929  16.979  23.304   0.307
42505W        W14930   0.818  17.757  13.599
42506W        W14931   5.198   8.691  14.783
42507W        W14932  18.327  33.343  12.304
42508W        W14933  12.837  39.146  11.741
42509W        W14934   2.018  32.958   0.422
42510W        W14935  15.596   5.419   2.665
42511W        W14936  30.033  44.844   3.600
42512W        W14937  17.965   9.061  14.705
42513W        W14938  32.204  37.514   0.862
42514W        W14939   6.335  26.620   4.762
42515W        W14940  33.875  18.624  12.572
42516W        W14941  29.440  12.704   0.851
42517W        W14942   5.092  20.868  12.422
42518W        W14943   5.417  32.123   1.937
42519W        W14944  40.756   8.478   1.223
42520W        W14945  44.258  16.739  11.544
42521W        W14946  11.624  12.377  11.559
42522W        W14947  34.558   7.897   3.291
42523W        W14948  33.518  41.917  14.331
42524W        W14949  15.898   4.704   1.601
42525W        W14950   0.250  33.514  10.835
42526W        W14951  43.535  25.974  12.090
42527W        W14952  16.111   0.898  13.387
42528W        W14953  30.817  32.154  13.907
42529W        W14954  26.705   1.426   0.260
42530W        W14955  13.803   7.879  14.106
42531W        W14956  43.890  31.396  10.184
42532W        W14957  41.751   9.796   2.629
42533W        W14958   7.732   7.906  14.834
42534W        W14959  34.614  35.083   1.211
42535W        W14960  25.416  28.078  11.883
42536W        W14961  33.919   0.931  10.637
42537W        W14962  35.774   9.231   5.482
42538W        W14963  14.246  17.859   2.102
42539W        W14964  36.945   8.207  10.187
42540W        W14965  29.940  35.410  13.897
42541W        W14966   7.762  35.993   2.616
42542W        W14967  14.833  31.312   4.204
42543W        W14968  32.946  35.893  11.111
42544W        W14969  37.583  10.661   3.966
42545W        W14970   7.903   0.745   9.759
42546W        W14971   0.821  44.766  13.391
42547W        W14972   6.361  16.655  13.728
42548W        W14973  43.428  35.083  13.764
42549W        W14974  23.821   4.432   2.193
42550W        W14975   8.304   5.256  11.675
42551W        W14976  34.891  25.158  14.349
42552W        W14977  23.314  35.087   0.415
42553W        W14978   4.689  27.460  13.894
42554W        W14979  40.109  27.426   3.698
42555W        W14980  11.637  36.346   4.951
42556W        W14981  23.961  27.642   1.771
42557W        W14982  15.682  11.333   0.079
42558W        W14983  43.708   7.358  11.025
42559W        W14984   7.849   4.767  13.063
42560W        W14985  39.925   3.829  11.645
42561W        W14986   9.287  10.709  13.997
42562W        W14987  21.191  31.717   4.855
42563W        W14988   6.431   8.756   3.278
42564W        W14989   7.763  39.316  11.473
42565W        W14990  34.742  35.397  12.832
42566W        W14991  37.787  34.871   5.124
42567W        W14992  18.523   3.569  14.803
42568W        W14993  23.508  38.125   1.465
42569W        W14994  16.488  31.567  13.417
42570W        W14995  39.314   9.333   3.599
42571W        W14996  32.375  32.165   3.445
42572W        W14997  41.894   4.884  12.519
42573W        W14998   4.521   3.066  10.595
42574W        W14999  33.997   0.811   4.251
42575W        W15000   5.999  19.386  10.200
42576W        W15001  29.340   0.057  13.734
42577W        W15002  44.317  38.646  10.190
42578W        W15003  22.806   9.494  14.965
42579W        W15004   8.473  11.151   2.404
42580W        W15005  37.268  17.971   0.976
42581W        W15006  41.925  23.002  11.032
42582W        W15007   0.889  20.654  11.138
42583W        W15008  16.698  12.499   4.678
42584W        W15009  15.329  34.791  13.982
42585W        W15010  35.015  22.466  11.650
42586W        W15011  25.452   2.762  12.054
42587W        W15012   3.683   7.189  12.439
42588W        W15013  24.117  29.563   4.652
42589W        W15014   4.941   3.172  13.434
42590W        W15015  21.771  29.613   4.178
42591W        W15016  29.093  34.497  12.002
42592W        W15017  39.174  33.939  13.291
42593W        W15018  39.554  13.413  11.959
42594W        W15019  37.481  17.333   1.857
42595W        W15020   9.135  25.944   2.994
42596W        W15021  17.438  14.626  13.321
42597W        W15022  38.386  34.480   2.276
42598W        W15023  29.540  30.900  11.570
42599W        W15024  13.703  40.815  14.938
42600W        W15025  12.074   5.266   1.910
42601W        W15026  22.030  24.449  14.341
42602W        W15027   1.543  30.145  13.864
42603W        W15028  34.958  25.916   1.219
42604W        W15029  40.084  39.873  10.708
42605W        W15030  22.218  43.019   0.833
42606W        W15031  26.076  29.665   2.828
42607W        W15032  26.773  14.360  13.939
42608W        W15033   4.482  17.583  12.588
42609W        W15034   1.709  33.502   1.727
42610W        W15035   1.775  10.016   3.228
42611W        W15036  31.304  16.542   0.071
42612W        W15037  15.100  42.104   3.217
42613W        W15038  10.360  12.808   0.210
42614W        W15039  25.013  26.097  12.128
42615W        W15040  42.549  30.543   1.445
42616W        W15041   0.789   2.043  14.181
42617W        W15042  42.714  14.177  10.444
42618W        W15043  34.290  26.098   1.703
42619W        W15044  31.882  24.713   3.584
42620W        W15045   8.691  32.787  11.324
42621W        W15046  32.956  23.012   1.590
42622W        W15047  23.912  17.130   3.219
42623W        W15048  14.313  41.966  12.319
42624W        W15049  33.095  19.440  11.467
42625W        W15050   8.161  22.722  12.041
42626W        W15051   0.028  32.951  11.960
42627W        W15052  10.290  41.043  10.855
42628W        W15053   2.198  30.626   1.300
42629W        W15054  17.643  32.209   2.166
42630W        W15055  18.520  16.633  13.979
42631W        W15056  44.203  30.368   4.699
42632W        W15057  19.004   0.312  14.016
42633W        W15058  25.078  30.393  14.645
42634W        W15059   4.337  20.284   1.336
42635W        W15060  40.754  32.602  12.245
42636W        W15061  40.991  40.751  13.095
42637W        W15062  20.428   8.748   4.873
42638W        W15063  10.432  13.620  11.103
42639W        W15064  31.897  19.792  12.632
42640W        W15065  14.136  27.144  11.967
42641W        W15066  23.583  23.685  10.701
42642W        W15067   1.437   2.544  13.516
42643W        W15068   4.495  20.904   0.307
42644W        W15069  26.961  24.563   4.236
42645W        W15070   0.422  35.304   0.329
42646W        W15071  23.069  37.799   2.281
42647W        W15072  10.666  22.048   4.989
42648W        W15073   0.834  23.648   2.645
42649W        W15074  35.307  23.760  13.583
42650W        W15075  15.605  14.638  11.482
42651W        W15076  22.695  18.636   0.865
42652W        W15077  11.100  29.021   3.327
42653W        W15078  13.835   3.922  11.686
42654W        W15079   0.766  31.298  13.379
42655W        W15080  36.525  38.722   5.081
42656W        W15081  35.873  25.690  14.987
42657W        W15082  27.350   6.896   4.833
42658W        W15083   2.964  13.016  11.127
42659W        W15084   1.013   4.410   1.770
42660W        W15085  28.262  36.140  13.351
42661W        W15086  43.032  37.994   0.201
42662W        W15087  38.932   2.893   0.719
42663W        W15088  16.321  26.104   2.258
42664W        W15089  20.810   5.813   1.920
42665W        W15090  25.145  30.729   4.079
42666W        W15091  32.656  15.608  10.567
42667W        W15092   2.425  27.234   2.373
42668W        W15093  28.048  15.253  10.925
42669W        W15094  40.493  17.276  11.551
42670W        W15095  44.043  41.177   4.910
42671W        W15096  25.294  29.669  14.313
42672W        W15097   6.488  44.417  14.403
42673W        W15098  25.534  38.937   3.454
42674W        W15099  24.946  43.759   3.595
42675W        W15100   2.266  21.623  10.756
42676W        W15101   2.357  20.635  12.445
42677W        W15102  14.150  16.356  10.632
42678W        W15103  25.202  35.421   2.287
42679W        W15104  24.615  23.826   2.807
42680W        W15105  20.972  30.105   3.306
42681W        W15106   4.108  43.080  12.087
42682W        W15107  42.756  12.332   4.563
42683W        W15108  43.202  24.498  14.069
42684W        W15109  22.707  13.661   3.601
42685W        W15110  25.485  42.451  14.696
42686W        W15111  24.519  37.589   2.371
42687W        W15112  39.469  20.195   3.695
42688W        W15113  11.731  22.281  14.896
42689W        W15114  11.592  14.674  12.580
42690W        W15115   8.406  25.320  13.815
42691W        W15116  20.143  21.969  14.358
42692W        W15117  18.563  41.963  10.824
42693W        W15118  13.239  27.164   4.688
42694W        W15119   8.630  29.983   2.151
42695W        W15120  26.069  20.163   2.159
42696W        W15121   9.346  25.038   0.941
42697W        W15122  15.513  37.623   9.848
42698W        W15123  33.765  43.180   9.874
42699W        W15124  39.851   2.377   4.574
42700W        W15125  28.937  12.872  11.920
42701W        W15126  12.705  31.214  13.866
42702W        W15127   3.083   4.819   5.345
42703W        W15128   2.414  44.756   4.099
42704W        W15129  32.869  27.954  10.528
42705W        W15130  12.168  30.666  14.792
42706W        W15131   4.923  18.777  11.545
42707W        W15132   5.168  12.243  12.802
42708W        W15133   4.263  35.206   1.231
42709W        W15134  14.637  20.192  11.230
42710W        W15135  37.859  18.799   1.786
42711W        W15136  15.751   9.612   4.650
42712W        W15137  43.409  32.056  10.656
42713W        W15138  27.607   1.161  12.117
42714W        W15139   0.787  41.565  11.752
42715W        W15140  22.775  24.748  10.823
42716W        W15141  27.873   6.445  13.417
42717W        W15142   6.167  35.555   0.002
42718W        W15143  42.952  44.336  14.945
42719W        W15144  42.887  34.945  12.448
42720W        W15145  13.395  19.877   2.156
42721W        W15146  44.819  37.778  14.342
42722W        W15147  10.753  31.983   4.538
42723W        W15148  37.770  18.565   3.781
42724W        W15149  31.675  18.666   2.719
42725W        W15150  19.001  36.943   3.898
42726W        W15151  44.125  16.619   3.989
42727W        W15152  12.679  22.171  10.483
42728W        W15153   9.811  35.386  10.674
42729W        W15154  16.921  33.037  11.961
42730W        W15155   0.379  13.715   2.932
42731W        W15156   4.204  26.775   0.689
42732W        W15157   5.632  20.519   0.885
42733W        W15158  21.825  36.061   0.520
42734W        W15159  12.594  29.615   0.897
42735W        W15160  24.747  24.223  12.902
42736W        W15161  29.240  37.089   3.689
42737W        W15162  39.208  21.007   5.018
42738W        W15163   0.071   9.110  13.041
42739W        W15164  24.235  25.562  13.528
42740W        W15165  23.456   5.650  14.889
42741W        W15166  12.655  20.470  14.233
42742W        W15167  13.821   4.228   0.454
42743W        W15168   5.237   5.798  13.340
42744W        W15169  10.680  39.299   2.257
42745W        W15170  42.134  43.809   1.695
42746W        W15171   3.336  20.183  10.417
42747W        W15172  39.733   9.720  13.911
42748W        W15173  39.555  36.344   0.023
42749W        W15174   2.518  22.598  10.702
42750W        W15175  31.109  30.532  10.579
42751W        W15176  14.795   0.790   3.876
42752W        W15177  34.267  40.278  11.649
42753W        W15178  29.446  12.404  13.886
42754W        W15179  17.601  33.771   5.018
42755W        W15180   9.277  18.114   3.304
42756W        W15181  24.191   4.382   0.240
42757W        W15182  21.901   9.480  13.648
42758W        W15183  20.535  11.120   4.560
42759W        W15184  35.472   4.619   3.776
42760W        W15185  24.689  17.288   2.010
42761W        W15186  30.119  28.957  14.437
42762W        W15187  42.473  29.631   0.803
42763W        W15188  26.072  33.567  13.513
42764W        W15189  34.343   8.391  13.134
42765W        W15190  38.482  14.352   1.001
42766W        W15191  24.584  24.638   0.039
42767W        W15192  15.457   3.656   4.195
42768W        W15193  25.468   9.055  10.450
42769W        W15194   5.472  22.302  11.325
42770W        W15195  15.748  29.873  11.565
42771W        W15196  30.460  38.998   3.441
42772W        W15197  31.827  20.195   4.063
42773W        W15198  34.565  10.275   1.918
42774W        W15199  24.898  43.013   3.113
42775W        W15200  29.979  31.778   4.878
42776W        W15201   5.322  18.483   4.103
42777W        W15202   6.219  35.862   0.439
42778W        W15203  37.084  19.409  10.488
42779W        W15204  28.537   8.254   4.538
42780W        W15205  32.615  33.215  13.375
42781W        W15206  16.076  13.738  14.507
42782W        W15207  25.249   4.794  11.482
42783W        W15208  44.898  36.941  10.432
42784W        W15209  43.868  42.248  14.547
42785W        W15210  27.388  11.207  13.905
42786W        W15211  16.262   9.348   4.358
42787W        W15212  13.676  44.536   1.374
42788W        W15213  42.255   0.715  13.492
42789W        W15214  20.142  22.225  12.957
42790W        W15215  42.268  25.380   4.212
42791W        W15216   8.181   0.940  12.598
42792W        W15217  19.420  34.110   0.803
42793W        W15218  11.290  42.776   3.695
42794W        W15219   6.201   4.725  10.615
42795W        W15220  20.750  27.960   3.728
42796W        W15221  20.643  18.326   4.948
42797W        W15222  28.297   8.247  12.096
42798W        W15223  38.596  33.380  11.900
42799W        W15224   6.878  14.243  14.377
42800W        W15225  38.658  43.337   3.589
42801W        W15226  12.651   3.327   2.723
42802W        W15227  14.647   5.112  14.424
42803W        W15228  10.637  29.056  13.042
42804W        W15229  24.266  10.420   1.703
42805W        W15230   2.689  11.153  14.798
42806W        W15231  40.833  20.659   1.729
42807W        W15232  16.781  27.093  13.428
42808W        W15233  42.945  40.716   1.098
42809W        W15234  41.572  35.389   0.643
42810W        W15235   7.076  27.568   3.112
42811W        W15236  42.452  28.116  13.792
42812W        W15237  31.377  22.584  11.307
42813W        W15238  35.447  37.148  12.241
42814W        W15239   4.307   5.031  10.631
42815W        W15240   3.920  11.216  11.145
42816W        W15241   9.748  43.498  12.602
42817W        W15242  37.058  37.460  13.706
42818W        W15243   5.740  28.856  11.604
42819W        W15244  44.918  12.429   1.373
42820W        W15245  21.965   0.452   2.299
42821W        W15246  31.536   9.612   3.025
42822W        W15247  28.600  40.424  12.523
42823W        W15248  22.497  19.965   4.982
42824W        W15249  21.201  27.428  14.327
42825W        W15250  40.727   8.214  13.943
42826W        W15251  14.400   0.088  14.782
42827W        W15252  21.503  21.533   2.192
42828W        W15253  15.065  14.327  14.964
42829W        W15254  27.172   2.214   1.339
42830W        W15255   0.735   9.824  14.339
42831W        W15256   5.267   1.284   0.214
42832W        W15257  22.112  15.672  11.669
42833W        W15258  14.545  17.257  12.344
42834W        W15259   9.670   6.238  12.508
42835W        W15260  39.073  36.134   3.081
42836W        W15261  41.872  44.364  14.342
42837W        W15262   8.466  42.983  12.434
42838W        W15263  42.779  16.119  14.402
42839W        W15264   8.506  35.545   2.678
42840W        W15265  19.431  13.709   4.589
42841W        W15266  26.689   1.436  14.334
42842W        W15267  40.724  15.869   3.668
42843W        W15268  43.550  18.596   3.490
42844W        W15269  44.725  26.322  13.062
42845W        W15270  31.072  14.728  13.843
42846W        W15271  39.317  21.742  12.941
42847W        W15272   6.192  29.154  12.507
42848W        W15273  26.002  43.823  11.923
42849W        W15274  29.726  33.975  13.875
42850W        W15275  30.075   8.773  14.591
42851W        W15276  17.109  16.091  10.441
42852W        W15277  23.270  24.048   2.867
42853W        W15278  38.342  31.378   1.696
42854W        W15279  15.799  42.000  12.482
42855W        W15280  31.382  16.087  13.979
42856W        W15281  21.447   1.407   1.969
42857W        W15282   7.603  43.196  13.895
42858W        W15283  29.994  19.854  13.232
42859W        W15284   6.244  18.550  13.516
42860W        W15285  22.507   5.341  10.538
42861W        W15286  39.770  27.267   4.114
42862W        W15287   4.676  27.211  10.361
42863W        W15288   0.523  44.922  14.297
42864W        W15289   3.222  29.384   3.702
42865W        W15290  22.311  14.930  10.766
42866W        W15291   9.056  28.570  13.227
42867W        W15292  10.156  16.863   4.187
42868W        W15293  15.664  25.455  13.460
42869W        W15294  42.886  34.989  14.418
42870W        W15295  10.034  18.758   1.712
42871W        W15296  33.333  42.406  13.939
42872W        W15297  37.940  25.945  14.998
42873W        W15298   9.095  12.306   0.797
42874W        W15299   3.343  38.463  11.988
42875W        W15300  40.439  43.217   2.781
42876W        W15301  44.064   1.251   4.679
42877W        W15302  35.518   9.580   5.191
42878W        W15303  42.231  27.423  11.279
42879W        W15304  22.602  36.003  11.142
42880W        W15305  44.464   3.330  14.759
42881W        W15306  30.839  37.056  11.174
42882W        W15307  37.925  31.600   0.492
42883W        W15308  13.266  32.974  13.578
42884W        W15309  37.881  41.915   0.920
42885W        W15310  18.209  35.554   3.847
42886W        W15311   1.848  13.605   4.364
42887W        W15312  20.183  10.210  12.950
42888W        W15313  16.522  21.292   0.442
42889W        W15314  43.808  24.539   0.749
42890W        W15315   6.148   5.244  10.610
42891W        W15316  24.196  10.165   0.449
42892W        W15317  32.183  39.869   0.948
42893W        W15318  38.972  25.601  10.627
42894W        W15319  37.891   4.346  14.442
42895W        W15320  27.913  14.682  12.611
42896W        W15321  23.002  27.266   1.748
42897W        W15322   5.764   1.504  10.712
42898W        W15323  40.975  41.191   2.302
42899W        W15324  42.000   0.496   2.590
42900W        W15325  27.246  42.638   1.019
42901W        W15326  38.941  35.230   4.740
42902W        W15327   2.443  17.165  10.700
42903W        W15328   8.419   5.716   2.748
42904W        W15329  11.600  22.607  12.383
42905W        W15330  15.604  42.053  14.232
42906W        W15331  28.483  31.682  14.416
42907W        W15332   8.724   5.211   4.641
42908W        W15333  14.725  16.828  13.046
42909W        W15334  27.941   9.407  13.970
42910W        W15335  28.487  14.098   2.133
42911W        W15336  19.433  14.420   4.186
42912W        W15337  40.409  16.233  14.861
42913W        W15338  12.250  41.108  12.940
42914W        W15339  22.996  42.808  13.277
42915W        W15340  33.679  33.943   4.010
42916W        W15341  41.932  32.552   4.748
42917W        W15342  30.933  20.710  10.607
42918W        W15343  43.615   3.782   0.963
42919W        W15344  22.565  20.879  12.816
42920W        W15345  16.252  31.756  14.781
42921W        W15346  34.897  41.857   4.780
42922W        W15347  13.341  37.592  14.915
42923W        W15348  21.558  41.371  11.191
42924W        W15349  33.865  39.393  13.980
42925W        W15350  31.127   9.832  14.220
42926W        W15351   7.917   3.046  13.925
42927W        W15352  30.484  36.675   0.390
42928W        W15353  30.736  27.944   2.261
42929W        W15354  10.823  44.274  13.101
42930W        W15355  15.146   6.888   0.927
42931W        W15356  36.167  10.155  11.957
42932W        W15357  15.550   8.225   1.844
42933W        W15358   1.656  27.525  13.915
42934W        W15359  39.279  36.566  12.914
42935W        W15360  12.173   5.749   3.641
42936W        W15361   8.326  16.342   4.793
42937W        W15362  11.632  33.621   1.657
42938W        W15363  22.583  40.555  13.510
42939W        W15364  43.436  40.264   3.800
42940W        W15365   3.742  18.053  12.954
42941W        W15366  29.511   2.394   0.861
42942W        W15367  16.667  13.083  13.539
42943W        W15368  15.834  36.584  12.064
42944W        W15369  20.125   0.746   1.616
42945W        W15370  36.926  12.167   3.246
42946W        W15371  34.513   2.186  12.946
42947W        W15372   7.344  26.044  14.853
42948W        W15373  20.721  26.106  14.357
42949W        W15374   2.966  26.518  11.974
42950W        W15375  40.538  10.142   2.817
42951W        W15376  38.322  22.281  12.408
42952W        W15377  31.374  36.370  12.127
42953W        W15378  29.064   7.117  13.617
42954W        W15379   6.567  11.601  11.620
42955W        W15380   8.992  34.734   4.136
42956W        W15381  14.344  11.699   2.234
42957W        W15382  29.623  31.361   4.469
42958W        W15383   5.256  43.757   3.212
42959W        W15384  19.646  40.104  12.507
42960W        W15385  33.714   7.397  11.899
42961W        W15386  43.570  16.648  11.140
42962W        W15387  40.395  26.474   1.280
42963W        W15388  24.072  22.775  10.664
42964W        W15389  12.772  30.061   3.072
42965W        W15390  22.636  20.621   4.169
42966W        W15391  22.326   7.512   3.700
42967W        W15392  44.415  33.782   2.284
42968W        W15393  21.779  16.090   2.277
42969W        W15394  37.824  42.851  12.045
42970W        W15395  10.189  23.491  13.975
42971W        W15396  33.476  17.218  10.510
42972W        W15397  38.241  38.116   2.275
42973W        W15398  30.650   5.354   0.959
42974W        W15399  28.133  17.458   1.671
42975W        W15400   9.957  10.337  12.612
42976W        W15401  11.298   8.136  14.073
42977W        W15402  38.845  19.947   3.207
42978W        W15403   9.352  10.892   2.850
42979W        W15404  39.497  37.343   1.420
42980W        W15405   8.467   5.345  12.631
42981W        W15406  24.593  14.877  14.861
42982W        W15407  37.322  36.326  11.501
42983W        W15408  38.111  35.704   3.323
42984W        W15409   0.878  42.319   1.227
42985W        W15410  12.090  28.167  14.477
42986W        W15411  27.602  25.756  13.898
42987W        W15412  43.464  31.602   0.046
42988W        W15413  43.551  33.735   2.277
42989W        W15414   9.230   8.757  10.373
42990W        W15415  19.875   4.221  10.526
42991W        W15416  21.774  30.483  11.634
42992W        W15417   2.767   7.781  12.138
42993W        W15418  10.074  13.088  12.919
42994W        W15419  26.417  16.853   2.014
42995W        W15420   6.393   9.194  13.285
42996W        W15421   1.797  28.577   3.127
42997W        W15422   2.982  12.579  14.051
42998W        W15423  41.416  21.656  11.906
42999W        W15424  10.127   4.843  10.535
43000W        W15425  20.969  12.195   4.727
43001W        W15426  24.578  17.580  12.063
43002W        W15427  29.723  30.695   5.074
43003W        W15428  18.142  33.454   4.174
43004W        W15429  39.829  12.653  11.513
43005W        W15430  19.065  38.554  10.747
43006W        W15431   8.250  20.130   0.695
43007W        W15432  22.009  16.151   4.587
43008W        W15433  10.697   4.590   1.954
43009W        W15434  15.601  39.236   3.727
43010W        W15435   2.527  27.054  10.979
43011W        W15436  40.047  35.116  12.609
43012W        W15437   0.511  36.912  11.132
43013W        W15438  24.726  30.934   1.497
43014W        W15439  17.187  44.930  11.009
43015W        W15440  36.160  23.640  11.048
43016W        W15441  19.854  44.816   4.178
43017W        W15442  21.063  26.754   3.104
43018W        W15443  31.940  10.013  11.353
43019W        W15444  32.486  16.041   3.552
43020W        W15445  15.292  12.560   1.783
43021W        W15446  34.093  23.025  10.677
43022W        W15447   7.554  13.639   2.755
43023W        W15448  20.148  21.063  12.942
43024W        W15449  13.628   7.963   0.005
43025W        W15450  17.555  19.972   3.239
43026W        W15451   5.463  18.330  14.849
43027W        W15452   2.727  34.920  12.147
43028W        W15453  37.900  26.967  11.656
43029W        W15454  37.131  25.736  11.330
43030W        W15455  28.184  11.168   0.483
43031W        W15456  30.906  35.288  10.759
43032W        W15457  24.709  23.327   2.859
43033W        W15458  25.801  26.126  14.662
43034W        W15459  10.321  44.561  11.881
43035W        W15460  29.205  25.636   3.409
43036W        W15461  12.218  38.917   4.851
43037W        W15462  18.410  17.310   0.430
43038W        W15463  41.163   8.737  11.046
43039W        W15464  35.090  24.870  11.472
43040W        W15465   9.812  14.517   4.579
43041W        W15466  37.504  34.556  14.610
43042W        W15467   9.626  29.114  11.511
43043W        W15468  23.979  14.651  11.261
43044W        W15469  19.265  18.190   4.195
43045W        W15470  35.895  30.563   1.694
43046W        W15471   6.339  36.673   0.785
43047W        W15472  35.860  25.640   2.124
43048W        W15473   0.429  23.023   0.661
43049W        W15474  34.648  39.082  12.884
43050W        W15475   0.844   3.610   2.808
43051W        W15476  22.537  20.419   3.719
43052W        W15477  10.864  34.179   4.035
43053W        W15478  34.303  14.161   0.702
43054W        W15479  15.634  12.831  13.512
43055W        W15480  18.745   8.136   3.888
43056W        W15481  37.467  20.010  14.252
43057W        W15482  16.045  36.512   4.137
43058W        W15483  35.914  18.214   3.376
43059W        W15484   4.951   5.206  14.357
43060W        W15485   7.094   2.905   2.697
43061W        W15486  26.080  15.263   4.337
43062W        W15487  44.811  25.994  12.261
43063W        W15488  37.267  15.701   3.134
43064W        W15489   5.761  34.394  13.502
43065W        W15490   3.740  13.610   2.320
43066W        W15491  21.781  14.854  13.595
43067W        W15492  13.052  21.337   2.465
43068W        W15493   1.247  33.962   2.330
43069W        W15494  34.363   4.012  12.977
43070W        W15495   9.379  16.675   3.660
43071W        W15496  16.646   7.455   2.786
43072W        W15497  21.634   5.970  12.087
43073W        W15498  39.887  15.985  13.327
43074W        W15499   8.294  11.614  11.576
43075W        W15500  43.800  36.223   1.825
43076W        W15501  19.111  31.523  12.527
43077W        W15502  34.077  13.357   2.215
43078W        W15503   1.846  17.389   0.526
43079W        W15504  33.021  40.610  12.038
43080W        W15505  24.821  24.421  12.398
43081W        W15506  42.392  31.383  14.509
43082W        W15507  25.852  16.563  13.997
43083W        W15508  31.512   5.785   4.551
43084W        W15509  42.381   0.821   3.388
43085W        W15510  16.255  27.350   1.457
43086W        W15511  37.907  37.375  12.762
43087W        W15512  14.371   3.804   0.898
43088W        W15513  14.587  38.922  14.239
43089W        W15514  12.273  34.678  14.519
43090W        W15515  31.410  30.144   1.539
43091W        W15516  37.374   1.872  11.512
43092W        W15517  29.573  20.752  14.430
43093W        W15518   8.926  21.208  12.589
43094W        W15519  38.384  10.338  13.600
43095W        W15520  12.655  14.942   3.884
43096W        W15521  36.454  19.560   1.239
43097W        W15522  41.416  24.484   0.266
43098W        W15523  34.859   4.647   1.307
43099W        W15524  42.541  24.645  10.502
43100W        W15525  37.523  14.989  13.517
43101W        W15526  38.599  42.080   0.391
43102W        W15527  10.857  12.558   0.276
43103W        W15528  28.022  28.136  14.555
43104W        W15529   4.494  22.191  11.462
43105W        W15530  39.737   5.427   3.773
43106W        W15531  21.090  18.172   4.725
43107W        W15532  19.258   2.975   2.694
43108W        W15533   7.904   8.917  12.955
43109W        W15534   7.674  24.725   2.901
43110W        W15535  15.199  22.488   0.957
43111W        W15536  13.628  14.210   0.794
43112W        W15537  32.872   9.820   1.345
43113W        W15538   4.216   3.178  12.797
43114W        W15539  41.400  14.084   3.714
43115W        W15540  28.043  24.468  11.943
43116W        W15541  15.720  35.950  13.668
43117W        W15542   9.584  19.646  13.730
43118W        W15543  39.091  16.138  13.827
43119W        W15544  39.807  26.214   2.279
43120W        W15545  28.460   3.930  12.022
43121W        W15546   1.489  20.117   1.503
43122W        W15547  23.461  35.040  12.457
43123W        W15548  11.545  27.644   1.555
43124W        W15549  11.141  43.992  11.929
43125W        W15550  23.794  14.591   2.217
43126W        W15551  27.897  41.173   4.516
43127W        W15552  20.211  35.958  14.451
43128W        W15553  37.242  26.610   4.623
43129W        W15554  23.661  35.363   3.694
43130W        W15555   9.697  14.257  11.115
43131W        W15556  40.568  18.795   1.801
43132W        W15557  22.130  20.066  13.540
43133W        W15558  29.024  19.899   3.328
43134W        W15559  16.255  12.315   2.352
43135W        W15560   0.654  36.874  14.280
43136W        W15561   5.366  17.099  12.506
43137W        W15562  32.291   9.823   5.084
43138W        W15563  39.095   0.837   2.698
43139W        W15564  44.056  21.696   1.336
43140W        W15565  23.534   5.508  14.392
43141W        W15566  11.313  44.928  10.999
43142W        W15567   2.823  17.916  14.326
43143W        W15568  23.408  17.243  14.828
43144W        W15569  35.050  23.567   0.513
43145W        W15570  23.765  18.246   0.412
43146W        W15571  40.562  22.126  10.934
43147W        W15572  41.452  22.964  13.868
43148W        W15573   5.827  34.615  11.334
43149W        W15574  13.059  23.862  11.479
43150W        W15575   0.444  37.931   3.132
43151W        W15576  26.623  28.209  14.483
43152W        W15577  30.942  18.460   4.002
43153W        W15578  29.027  40.890  10.538
43154W        W15579  23.949  37.798   0.703
43155W        W15580  23.067   2.311  14.371
43156W        W15581   6.182  36.938  11.568
43157W        W15582   2.473  37.314   0.286
43158W        W15583  16.740  43.411  12.570
43159W        W15584  18.817   5.786  10.523
43160W        W15585  14.680  17.035   2.382
43161W        W15586  28.551  42.759   4.718
43162W        W15587   0.853  25.262  13.171
43163W        W15588  44.366  27.847  11.542
43164W        W15589  26.012  27.050   3.601
43165W        W15590  10.434  43.524   0.496
43166W        W15591  17.058  38.069  14.407
43167W        W15592   7.346  15.375   0.277
43168W        W15593  17.816  36.993  14.879
43169W        W15594  27.570  35.880  12.996
43170W        W15595  12.783  13.847  12.001
43171W        W15596  43.865  11.683  11.011
43172W        W15597  27.622  13.393   3.396
43173W        W15598  22.309  21.341   0.424
43174W        W15599  31.543  38.444  13.613
43175W        W15600  26.930  16.860  14.146
43176W        W15601   5.807  27.216  12.621
43177W        W15602  24.092  39.361  14.692
43178W        W15603   1.007   0.645  10.138
43179W        W15604  41.784  20.974   2.169
43180W        W15605  28.259   3.736   0.991
43181W        W15606  24.925  14.902  11.627
43182W        W15607   1.744  16.400  12.584
43183W        W15608  10.000  19.147  11.067
43184W        W15609  22.065  25.144  11.489
43185W        W15610  19.696  17.126  12.378
43186W        W15611  26.123  42.954  11.077
43187W        W15612  29.392   7.130  11.933
43188W        W15613  14.856  19.251   3.488
43189W        W15614   0.756  36.327  14.744
43190W        W15615  34.668  33.026   4.945
43191W        W15616  41.788  27.248   0.292
43192W        W15617  21.595  39.395   1.748
43193W        W15618   5.257  29.182   1.281
43194W        W15619  35.874  33.078  13.674
43195W        W15620  39.239  34.107  11.096
43196W        W15621  36.598  19.673   4.172
43197W        W15622   8.817  28.132   2.603
43198W        W15623  25.733   2.191   4.309
43199W        W15624  16.104   3.283   0.999
43200W        W15625  33.516  20.710   0.891
43201W        W15626   9.397  35.924   4.483
43202W        W15627  26.059  21.619  13.086
43203W        W15628  33.183  31.943   4.162
43204W        W15629   5.432  30.381  11.578
43205W        W15630  15.558  23.899  12.232
43206W        W15631  34.741  32.956   0.620
43207W        W15632  26.250   1.748  14.359
43208W        W15633  11.641  43.389  11.468
43209W        W15634  19.100  43.800  12.282
43210W        W15635  14.360  40.693   2.318
43211W        W15636  13.846  11.610   2.335
43212W        W15637   9.721  42.487  11.947
43213W        W15638  38.398  26.968   2.013
43214W        W15639  12.605   3.254   0.526
43215W        W15640  37.325  24.223  12.805
43216W        W15641   7.727   1.981  14.826
43217W        W15642  15.901   5.981  13.889
43218W        W15643  40.600  30.580   2.312
43219W        W15644  25.653  33.189   0.856
43220W        W15645   2.998  41.567  11.279
43221W        W15646  36.323  31.601   2.921
43222W        W15647  19.663  30.740  10.494
43223W        W15648  10.801  14.991   4.053
43224W        W15649   7.651  23.555   2.210
43225W        W15650   8.239  38.300   3.433
43226W        W15651  33.518   7.955   2.659
43227W        W15652  18.670  44.956  12.856
43228W        W15653  39.915   5.500  11.526
43229W        W15654   0.293  28.959  11.406
43230W        W15655  27.074  33.155   4.935
43231W        W15656  22.585  24.935  12.567
43232W        W15657   7.189   6.107   2.804
43233W        W15658   8.981  17.213  11.120
43234W        W15659  34.399   8.404   4.586
43235W        W15660  21.981   5.803   1.791
43236W        W15661   6.745  32.171   4.031
43237W        W15662  11.420   6.884   0.288
43238W        W15663  42.519  22.128  13.515
43239W        W15664  36.097  38.446   1.234
43240W        W15665  20.774  17.099  13.859
43241W        W15666  31.699   1.234  13.069
43242W        W15667  31.197   4.272  10.742
43243W        W15668  21.317   3.610  11.618
43244W        W15669  25.057  37.629   4.433
43245W        W15670  22.074  41.250  13.429
43246W        W15671  15.550  36.638   4.172
43247W        W15672  34.141   4.600   0.850
43248W        W15673   9.967  39.485   4.103
43249W        W15674  27.148  26.532  12.169
43250W        W15675   6.427   0.923   0.999
43251W        W15676  39.568  19.478  11.335
43252W        W15677  23.259   0.572   0.839
43253W        W15678  39.961  10.913  13.560
43254W        W15679  13.694  18.563   2.354
43255W        W15680  28.546  21.482  10.784
43256W        W15681  34.536   9.660  14.998
43257W        W15682  18.237   5.861  13.129
43258W        W15683  34.593  26.525  14.478
43259W        W15684  34.193  17.870   2.256
43260W        W15685  13.773  44.239   3.318
43261W        W15686  18.698  14.704   0.476
43262W        W15687  34.830  27.546   3.620
43263W        W15688  19.635  42.219  13.578
43264W        W15689  29.908   2.946   2.400
43265W        W15690  42.430  43.772   2.642
43266W        W15691   2.899  18.654   3.388
43267W        W15692  28.636  36.457   1.176
43268W        W15693   1.983  25.492   1.312
43269W        W15694   8.484  34.887  10.775
43270W        W15695  36.126  44.043   1.400
43271W        W15696  27.250  13.249   3.716
43272W        W15697  40.059  28.718   3.619
43273W        W15698  39.097  27.329   0.925
43274W        W15699  34.071  15.572  12.645
43275W        W15700  24.608  11.106  10.709
43276W        W15701  40.783  32.505  12.738
43277W        W15702   1.834  36.639  11.455
43278W        W15703  30.119  34.351   1.927
43279W        W15704  19.317  21.802   3.164
43280W        W15705  11.994  11.317  13.208
43281W        W15706  23.712   1.489   4.016
43282W        W15707  28.393   9.191   1.881
43283W        W15708  24.466  37.210   2.001
43284W        W15709  40.574   2.400  12.439
43285W        W15710   7.478   4.782  12.719
43286W        W15711   1.975  10.404   4.098
43287W        W15712   1.962  23.602   0.345
43288W        W15713   9.361  22.469   1.262
43289W        W15714  27.011   6.642   4.509
43290W        W15715  23.917  32.920  14.304
43291W        W15716  19.603  35.624   2.192
43292W        W15717  40.420   0.722  14.512
43293W        W15718   2.649  25.646   4.225
43294W        W15719  34.577  13.073   4.777
43295W        W15720  11.679  11.701  12.972
43296W        W15721  41.383  41.559  12.734
43297W        W15722  43.530  21.996   2.277
43298W        W15723   1.780  43.811  11.966
43299W        W15724  20.033  34.926  12.925
43300W        W15725  19.578  43.087   4.023
43301W        W15726  27.804  14.707   2.399
43302W        W15727  14.325  24.552   1.911
43303W        W15728  22.010  15.081   1.163
43304W        W15729  14.740  13.663  13.910
43305W        W15730   6.710  12.101   0.370
43306W        W15731  29.716  21.102  10.406
43307W        W15732   9.850   0.786   2.778
43308W        W15733   5.740  42.922  10.528
43309W        W15734   5.923  18.643  11.929
43310W        W15735  24.355  32.270   5.186
43311W        W15736  10.323  40.174  14.183
43312W        W15737  37.066   9.946   0.828
43313W        W15738   8.730  39.991  10.891
43314W        W15739  16.685  15.786  13.062
43315W        W15740  32.745  19.294  12.589
43316W        W15741   4.219  12.168  10.635
43317W        W15742  43.398  17.215  10.028
43318W        W15743  11.941  27.101   4.199
43319W        W15744  40.106  25.611   3.817
43320W        W15745  10.843  43.043  10.940
43321W        W15746  12.729  40.602  10.744
43322W        W15747   3.902  29.635   2.464
43323W        W15748  22.259  22.788   3.683
43324W        W15749   0.966  18.710   2.825
43325W        W15750  32.497  40.396  10.858
43326W        W15751  29.204  19.226   4.988
43327W        W15752  29.016  30.560   1.304
43328W        W15753   5.807  16.902  12.847
43329W        W15754  35.010  42.451  13.403
43330W        W15755  38.312   7.386   5.446
43331W        W15756  43.898  15.284   3.434
43332W        W15757  17.234  21.935  14.142
43333W        W15758   6.666  26.656  14.819
43334W        W15759   5.457  42.428   4.348
43335W        W15760   5.442  28.992   1.728
43336W        W15761  21.947  40.950  12.981
43337W        W15762  41.513  16.594   4.055
43338W        W15763  38.221  18.549   0.308
43339W        W15764  13.560  17.522   1.744
43340W        W15765  31.424  23.190   2.267
43341W        W15766   2.667  23.576  13.855
43342W        W15767  29.266   8.129   2.985
43343W        W15768  39.416  20.204  11.970
43344W        W15769  44.893  11.110  13.876
43345W        W15770  39.336  29.971  10.776
43346W        W15771  28.910  40.458  10.949
43347W        W15772   4.247  17.147  10.297
43348W        W15773  18.775  12.388  12.557
43349W        W15774   0.226   8.650  12.475
43350W        W15775  40.088  25.524  11.106
43351W        W15776  40.001   3.195   1.760
43352W        W15777   6.542  24.471   3.715
43353W        W15778  40.651  10.441   1.197
43354W        W15779   9.925  38.125   3.759
43355W        W15780   5.864  24.436   1.708
43356W        W15781  33.489  16.318  14.884
43357W        W15782  13.310  24.759   0.295
43358W        W15783  10.609   1.420  13.477
43359W        W15784  22.660  41.462   1.960
43360W        W15785  13.537  31.587  13.976
43361W        W15786  39.693  24.610   1.452
43362W        W15787  43.956  35.661   3.856
43363W        W15788  22.946  40.833  13.262
43364W        W15789   0.499   6.957  13.834
43365W        W15790  29.252  19.249  11.957
43366W        W15791  27.728   3.884  10.588
43367W        W15792  38.555  34.992  14.972
43368W        W15793   4.383  25.368   3.354
43369W        W15794  26.425  41.927   2.606
43370W        W15795  24.965  23.255  11.116
43371W        W15796  43.465  41.700   3.790
43372W        W15797  34.894  44.822   0.563
43373W        W15798  16.587   7.400  12.194
43374W        W15799   9.483  24.280  11.166
43375W        W15800  24.950   1.617   3.952
43376W        W15801  13.950   3.877   9.928
43377W        W15802  20.106  19.541   3.625
43378W        W15803  21.483   9.974  11.166
43379W        W15804   2.749   2.406  14.473
43380W        W15805  18.261   7.889  12.882
43381W        W15806  23.243  34.071   1.657
43382W        W15807  33.970  13.064  14.477
43383W        W15808  19.948  12.773   0.185
43384W        W15809  23.993  10.357   2.124
43385W        W15810   4.585  14.171  10.039
43386W        W15811  10.572  34.417   0.730
43387W        W15812  23.178  11.685  14.162
43388W        W15813  18.741  23.556  12.318
43389W        W15814  41.499  38.131   1.276
43390W        W15815  11.415  23.217  12.633
43391W        W15816   3.963   8.382   1.486
43392W        W15817  21.601  21.590  11.466
43393W        W15818  27.255  11.199   2.781
43394W        W15819  13.037  17.680  11.905
43395W        W15820  25.536   5.947  12.049
43396W        W15821  44.833  43.512   0.015
43397W        W15822  40.649  18.187   3.228
43398W        W15823  31.414  41.422   3.106
43399W        W15824   1.192  25.987   1.390
43400W        W15825  10.086  14.714  14.513
43401W        W15826   2.502  41.693  11.189
43402W        W15827  24.120  23.971   3.183
43403W        W15828  35.551  16.032  14.963
43404W        W15829  43.355  14.750  14.352
43405W        W15830  43.350   6.211  13.030
43406W        W15831   3.368  18.840   2.586
43407W        W15832  27.086  41.356   0.957
43408W        W15833  14.320  44.535  11.186
43409W        W15834  11.784   6.899  12.734
43410W        W15835  42.490   2.951   1.713
43411W        W15836  25.521  27.023  12.033
43412W        W15837  43.073   5.737  14.851
43413W        W15838   6.270  14.449   4.963
43414W        W15839  38.306  19.100   3.396
43415W        W15840  18.038  33.928   2.384
43416W        W15841   4.278  41.421   4.479
43417W        W15842  37.626   3.535   4.196
43418W        W15843  43.446   5.607   4.353
43419W        W15844  19.458  11.877  13.277
43420W        W15845  42.920   8.186   0.939
43421W        W15846  18.168  12.236   2.391
43422W        W15847  11.828  10.700   4.219
43423W        W15848  20.722  16.696  12.540
43424W        W15849   1.119  16.596  14.534
43425W        W15850  15.515  28.920  10.839
43426W        W15851   0.325  33.370   0.432
43427W        W15852  19.549   5.698  14.014
43428W        W15853  24.157  23.830  12.513
43429W        W15854  38.301   6.673   0.229
43430W        W15855  22.186  13.317   2.321
43431W        W15856  22.388  31.451  11.090
43432W        W15857  25.912   1.961   1.304
43433W        W15858  32.673  22.081   4.836
43434W        W15859  38.413   7.451  13.505
43435W        W15860  36.146   1.279   1.343
43436W        W15861  13.455  12.145  14.392
43437W        W15862  29.919  43.703  13.287
43438W        W15863   9.123  14.917  11.047
43439W        W15864  30.616   0.995   0.329
43440W        W15865  24.315   4.025  11.929
43441W        W15866  42.364  22.018  12.652
43442W        W15867   3.672  44.378  13.124
43443W        W15868  10.357   4.723  12.558
43444W        W15869  37.516  17.751  12.465
43445W        W15870   1.868  10.834   0.245
43446W        W15871   9.189  22.042   0.164
43447W        W15872  11.201  38.278  12.938
43448W        W15873  42.899   5.825  12.415
43449W        W15874  19.752  28.215  10.916
43450W        W15875  28.488  24.687   2.672
43451W        W15876  39.202  26.811   0.834
43452W        W15877  12.524  17.682   1.804
43453W        W15878  15.649  10.221  10.260
43454W        W15879  20.196  39.512  10.838
43455W        W15880  13.535  19.127  14.652
43456W        W15881  12.561   9.920   3.557
43457W        W15882  14.664   5.151  11.689
43458W        W15883   6.602  28.667   4.014
43459W        W15884  42.285   2.415   0.815
43460W        W15885  22.341  27.407  11.087
43461W        W15886   8.609  43.299   0.128
43462W        W15887  16.630   8.180  13.305
43463W        W15888  19.022   4.936   4.377
43464W        W15889  31.463   3.682  14.783
43465W        W15890  43.556  18.624   0.745
43466W        W15891  10.291   9.544  12.496
43467W        W15892   9.674   2.870   4.573
43468W        W15893  19.315   9.371  11.133
43469W        W15894   0.672   9.912  13.079
43470W        W15895   2.800  35.645   1.280
43471W        W15896  15.235  19.965   2.036
43472W        W15897   0.819  11.368   4.591
43473W        W15898  11.905  15.124  11.900
43474W        W15899  43.942  43.821  11.716
43475W        W15900  25.294  17.990  11.189
43476W        W15901  39.326  41.765  13.065
43477W        W15902  14.268  26.598  11.112
43478W        W15903  41.225  29.182   1.228
43479W        W15904   5.477  24.105  12.905
43480W        W15905  13.326  22.257   3.526
43481W        W15906  43.018   6.485   0.753
43482W        W15907  30.158   9.438  11.185
43483W        W15908  17.029  34.087   4.592
43484W        W15909  40.366  20.635   1.945
43485W        W15910  41.433   1.841   3.646
43486W        W15911  27.089  21.698  11.085
43487W        W15912   0.564  20.258  10.480
43488W        W15913   6.954  18.783  11.772
43489W        W15914  15.250  33.933   2.557
43490W        W15915  36.620  11.907   2.909
43491W        W15916  33.414  28.580  13.509
43492W        W15917  29.833  36.130  11.084
43493W        W15918   0.526  38.681  13.450
43494W        W15919   1.685  16.197  12.123
43495W        W15920   1.702  13.382  11.874
43496W        W15921  38.471  23.816  10.525
43497W        W15922  32.036  44.765  11.200
43498W        W15923  10.575  15.202   2.250
43499W        W15924  14.661  34.326   1.943
43500W        W15925  42.872  36.375  14.097
43501W        W15926   6.893   7.852   1.995
43502W        W15927  23.142  32.572  11.149
43503W        W15928  27.417   0.452   4.140
43504W        W15929  14.711  40.968   3.574
43505W        W15930  34.956  41.886  10.728
43506W        W15931  21.706  38.864  10.799
43507W        W15932  18.340  13.250  11.193
43508W        W15933  34.236   1.490   1.109
43509W        W15934   4.284  42.874   1.726
43510W        W15935  41.513   6.493  14.515
43511W        W15936  23.015  23.044   1.086
43512W        W15937   3.803  34.594   0.406
43513W        W15938  31.062  30.210  14.785
43514W        W15939  23.609  44.255  11.439
43515W        W15940  29.936  27.204   2.364
43516W        W15941  13.276  32.943   2.735
43517W        W15942  40.994  34.989  13.750
43518W        W15943   9.286  40.679   1.439
43519W        W15944  42.926  39.610  13.300
43520W        W15945  16.118  30.463   4.263
43521W        W15946  18.804  37.408   1.139
43522W        W15947  11.842  10.366  10.026
43523W        W15948  27.412  10.327  11.650
43524W        W15949   8.089  37.378   2.085
43525W        W15950  30.598  42.706   3.122
43526W        W15951  22.505  44.441  14.143
43527W        W15952   1.949  29.140   2.605
43528W        W15953  19.962   2.909   0.073
43529W        W15954  39.960  32.846  13.339
43530W        W15955  40.474  40.920   5.095
43531W        W15956  35.111   7.443  12.568
43532W        W15957  30.041  39.147   3.184
43533W        W15958  42.856  30.698   1.846
43534W        W15959  36.365  37.133  10.748
43535W        W15960   7.430  15.818  14.367
43536W        W15961  39.195  42.126   2.047
43537W        W15962  25.716   0.745  14.882
43538W        W15963  27.758  13.553   0.914
43539W        W15964  32.037  16.561  12.616
43540W        W15965  44.798  10.118   2.277
43541W        W15966  22.090  17.115   0.474
43542W        W15967  42.768   8.084  13.003
43543W        W15968  23.591  20.142   4.401
43544W        W15969  32.529  23.769  14.720
43545W        W15970  11.330  28.454  12.676
43546W        W15971  33.405  18.520  11.560
43547W        W15972  27.724  14.007  13.871
43548W        W15973  33.164  25.728   2.114
43549W        W15974  37.071  19.046  12.382
43550W        W15975  33.006  41.264   0.579
43551W        W15976  33.894  35.063  13.014
43552W        W15977  26.017  16.047   1.331
43553W        W15978  24.330   1.642  13.338
43554W        W15979  31.066   7.002  12.053
43555W        W15980  14.049   2.215  14.336
43556W        W15981  39.509  23.763  11.016
43557W        W15982  32.169  34.563   0.568
43558W        W15983  40.966  43.717  13.038
43559W        W15984  11.385  25.606   1.518
43560W        W15985  25.168   7.311  14.670
43561W        W15986  24.413  17.210  14.931
43562W        W15987   5.572  28.639   2.834
43563W        W15988  19.035   6.466  12.618
43564W        W15989  23.603  44.024   1.208
43565W        W15990  20.025  25.425  14.452
43566W        W15991  43.939  34.149  10.638
43567W        W15992  30.642   8.694   4.484
43568W        W15993  31.673  37.009  11.582
43569W        W15994  33.548  13.260  14.274
43570W        W15995  12.431  16.507   2.673
43571W        W15996   5.747   5.883  11.175
43572W        W15997  43.970  28.646   2.354
43573W        W15998  35.984  20.349   4.298
43574W        W15999  34.821   7.166   1.324
43575W        W16000  13.747  11.076  12.568
43576W        W16001  23.628  33.162   3.294
43577W        W16002  31.204   1.342   4.156
43578W        W16003  24.689  43.006   1.415
43579W        W16004  32.779  25.136  12.589
43580W        W16005  10.371   2.896   0.535
43581W        W16006  17.746  37.072  12.033
43582W        W16007  30.936  25.988   3.638
43583W        W16008  35.091   1.449   2.370
43584W        W16009  33.024   4.314  12.424
43585W        W16010   5.376  36.274  11.507
43586W        W16011  32.022  42.080  12.941
43587W        W16012  10.799  39.944  14.085
43588W        W16013  11.468  21.644  11.085
43589W        W16014   3.083  27.864   0.448
43590W        W16015  40.768   7.900  12.441
43591W        W16016  15.116  40.247   0.952
43592W        W16017  40.360   2.260   4.512
43593W        W16018   7.619   1.444   1.872
43594W        W16019  16.724  27.609   0.908
43595W        W16020  20.660  23.289   3.029
43596W        W16021  31.994   7.820   1.824
43597W        W16022  15.048  28.039  14.506
43598W        W16023   3.112  38.898  12.126
43599W        W16024  37.391   6.460   3.029
43600W        W16025  43.919   4.870  11.203
43601W        W16026  28.409  37.579   4.341
43602W        W16027  14.960  32.996  11.206
43603W        W16028  26.632   1.371   4.640
43604W        W16029  37.390   6.602   4.124
43605W        W16030   1.622  22.561   0.110
43606W        W16031   0.910   0.355   2.654
43607W        W16032   7.010  43.343   0.912
43608W        W16033  18.745  37.489   4.738
43609W        W16034  14.866   9.347   4.819
43610W        W16035  27.037  43.379   2.430
43611W        W16036  25.205  28.147  13.423
43612W        W16037  20.600  34.613  14.100
43613W        W16038  39.029  35.454  13.086
43614W        W16039  38.991  39.770  11.217
43615W        W16040  41.983   6.384   1.847
43616W        W16041  41.465   4.894  13.556
43617W        W16042  38.610  27.153   2.524
43618W        W16043  18.515  26.872  14.001
43619W        W16044  17.524  21.202  14.302
43620W        W16045  31.143  29.536   2.205
43621W        W16046   8.634  16.563   0.847
43622W        W16047  16.113  32.418   9.816
43623W        W16048  21.787   3.954  11.626
43624W        W16049  24.145  33.492  11.111
43625W        W16050  17.187  24.786   2.251
43626W        W16051   8.634  26.606   5.219
43627W        W16052  15.819  20.827   3.163
43628W        W16053  43.272  30.725  13.878
43629W        W16054  32.059  34.940  10.562
43630W        W16055  35.538  15.522   3.695
43631W        W16056  26.701  26.575   3.584
43632W        W16057  14.726   6.465   2.840
43633W        W16058  43.280   6.191   2.648
43634W        W16059   6.320  23.258   2.287
43635W        W16060  37.901  24.568  12.559
43636W        W16061   9.806  33.528   2.856
43637W        W16062  28.606  34.991   2.560
43638W        W16063  43.767  31.396   4.254
43639W        W16064   0.879  36.789  13.493
43640W        W16065   4.955  15.204  13.204
43641W        W16066  11.111  25.703   3.329
43642W        W16067  33.657  39.957   3.248
43643W        W16068   8.159  24.676   1.697
43644W        W16069  12.885  34.205   3.556
43645W        W16070  21.753  42.899   3.844
43646W        W16071   5.669  13.279   4.938
43647W        W16072  12.231   8.427  13.298
43648W        W16073   3.692  12.134  11.552
43649W        W16074  40.039  30.875  13.473
43650W        W16075  20.602  40.865  13.524
43651W        W16076  42.527   4.610  11.072
43652W        W16077   1.400  27.212  12.114
43653W        W16078  37.041  24.179  13.932
43654W        W16079  11.548  35.894   1.575
43655W        W16080  44.840  41.955  13.112
43656W        W16081  29.140   6.421   4.563
43657W        W16082  23.078   3.701   3.652
43658W        W16083  18.665  37.554   2.114
43659W        W16084  33.809   9.759   4.296
43660W        W16085  40.067   7.809  11.047
43661W        W16086  12.537   2.380  14.062
43662W        W16087  30.620   1.825   2.241
43663W        W16088  37.925  44.726  14.535
43664W        W16089  44.972   6.837  11.162
43665W        W16090  13.619  19.256   4.229
43666W        W16091  37.470  11.297  10.364
43667W        W16092  19.253  42.555  13.570
43668W        W16093   7.282  10.767   2.810
43669W        W16094  37.523   7.455   2.268
43670W        W16095  27.423  14.234  11.663
43671W        W16096  44.878  33.471   4.614
43672W        W16097  10.380  31.516   4.240
43673W        W16098  20.611  37.979  11.321
43674W        W16099   0.858   6.165  13.320
43675W        W16100  26.993  24.458  13.238
43676W        W16101  34.573  34.586  14.463
43677W        W16102  31.656  35.553  13.555
43678W        W16103  42.895  16.999   2.114
43679W        W16104   5.145   2.404  11.956
43680W        W16105  40.862   4.242  11.603
43681W        W16106   9.317  13.087  12.412
43682W        W16107  43.029   4.335  12.123
43683W        W16108  44.492  16.882  13.245
43684W        W16109  20.121  13.780   4.043
43685W        W16110  11.707  43.668  14.707
43686W        W16111  15.293   9.904  14.893
43687W        W16112   2.518   0.383   4.525
43688W        W16113  40.585  14.775   4.184
43689W        W16114  38.537  15.772  12.133
43690W        W16115  33.021  43.184  11.693
43691W        W16116  42.267   3.725  11.179
43692W        W16117   8.317  10.426   4.340
43693W        W16118  11.262   1.403   3.539
43694W        W16119  23.430  10.886   1.373
43695W        W16120  30.162  15.925   4.948
43696W        W16121  32.686  10.196   1.734
43697W        W16122  32.401  39.593  11.545
43698W        W16123  27.752  19.750  12.986
43699W        W16124  35.573   5.169   3.673
43700W        W16125  21.979  25.237   2.742
43701W        W16126  18.333  39.379   1.325
43702W        W16127  28.641  31.568   2.222
43703W        W16128   9.859   8.518  10.959
43704W        W16129  16.158  11.247   2.548
43705W        W16130  24.882  38.431  13.340
43706W        W16131  23.115   2.391  11.865
43707W        W16132  32.239  19.417  12.509
43708W        W16133  38.604  40.475  14.279
43709W        W16134  11.207   5.208   0.976
43710W        W16135  26.472  25.036  14.338
43711W        W16136  31.452  32.659  12.004
43712W        W16137  23.471  24.112  11.003
43713W        W16138   2.389  42.002   2.968
43714W        W16139   9.284  26.796  13.467
43715W        W16140   0.850  21.281   1.925
43716W        W16141  36.936   3.206  14.437
43717W        W16142  12.391   5.381   0.449
43718W        W16143   0.759   1.936   2.487
43719W        W16144  23.473   0.981  14.313
43720W        W16145  28.138  40.020   2.631
43721W        W16146   0.278  26.191   4.552
43722W        W16147   8.926   9.786  12.680
43723W        W16148  16.605  25.771   1.792
43724W        W16149  44.322  39.764   3.387
43725W        W16150  10.288   9.076  14.749
43726W        W16151  41.109   5.769   0.415
43727W        W16152   9.611  18.539   4.913
43728W        W16153   0.489  13.110   1.131
43729W        W16154  18.521  23.432  11.853
43730W        W16155  38.547  14.913   3.506
43731W        W16156   7.297  36.050   4.928
43732W        W16157  36.841  33.193  10.882
43733W        W16158   0.681  32.229   0.551
43734W        W16159  11.550  28.277   3.533
43735W        W16160  25.579  31.055  11.407
43736W        W16161  39.790  34.923   3.181
43737W        W16162   0.645  40.014  12.984
43738W        W16163  11.559  44.407   4.982
43739W        W16164  15.840   0.705   2.381
43740W        W16165  26.906  11.013  13.380
43741W        W16166   4.368  16.539  12.161
43742W        W16167  34.920   0.333  11.958
43743W        W16168   3.408  38.413   2.632
43744W        W16169   0.297  44.253   1.339
43745W        W16170   8.614  15.053   3.733
43746W        W16171  41.549  15.751   1.382
43747W        W16172  44.224  10.013  12.617
43748W        W16173  14.477  23.527  14.841
43749W        W16174  41.316   0.861   0.017
43750W        W16175  13.716   8.826  12.207
43751W        W16176  18.345  34.053   3.351
43752W        W16177  13.162   7.143  13.991
43753W        W16178  31.120   6.826  13.483
43754W        W16179   8.116  13.418  13.837
43755W        W16180  24.141  43.377  13.378
43756W        W16181  27.236  31.609   3.728
43757W        W16182   7.446  27.372   1.394
43758W        W16183  18.804  36.940   0.003
43759W        W16184   4.996  35.105  10.568
43760W        W16185  10.624  39.994  11.575
43761W        W16186  27.588  19.060  11.671
43762W        W16187   2.881  13.297  10.687
43763W        W16188   0.300  33.147  14.000
43764W        W16189   3.704  16.623  14.444
43765W        W16190  19.847  19.030  14.991
43766W        W16191  14.623  28.974  14.454
43767W        W16192  37.908  12.607   0.425
43768W        W16193  10.070   8.749  13.802
43769W        W16194  13.165  17.360  10.975
43770W        W16195  34.027  22.578   2.411
43771W        W16196  18.615  13.334   4.513
43772W        W16197  30.935  31.632  13.119
43773W        W16198  30.419   4.901  10.628
43774W        W16199  35.808  31.421  13.313
43775W        W16200  30.079  43.908   2.767
43776W        W16201  34.604  20.562   2.744
43777W        W16202  33.453  10.339   3.658
43778W        W16203  29.692  34.552  14.051
43779W        W16204  34.342  22.803   0.328
43780W        W16205  11.718  27.650   2.058
43781W        W16206  44.427  33.484   9.797
43782W        W16207  42.893   2.895   4.730
43783W        W16208  43.785  14.734  12.862
43784W        W16209   8.284  25.762  14.064
43785W        W16210   6.515  36.873  14.402
43786W        W16211  24.655  38.513  11.048
43787W        W16212  41.227  29.602  11.666
43788W        W16213   4.659  44.779  13.546
43789W        W16214   0.303  11.850   1.743
43790W        W16215  39.629  40.995  11.145
43791W        W16216  41.897  37.937  12.045
43792W        W16217  24.966  10.277  10.576
43793W        W16218  32.755  29.943   2.850
43794W        W16219  19.805  29.479  14.778
43795W        W16220  32.146   3.026  11.967
43796W        W16221   2.210   2.668  10.960
43797W        W16222  40.537  16.008   2.707
43798W        W16223  28.100  21.550   1.914
43799W        W16224  37.314  37.982   4.629
43800W        W16225  37.936  41.343  13.849
43801W        W16226   7.986  30.462  14.594
43802W        W16227   7.127  33.380  14.677
43803W        W16228  20.467  12.134  10.651
43804W        W16229  24.004  20.699  11.521
43805W        W16230  23.435  24.775   1.570
43806W        W16231  40.329  36.403   3.730
43807W        W16232  10.873  40.368   0.171
43808W        W16233  28.837  37.776   4.560
43809W        W16234  33.596  31.621   2.725
43810W        W16235   4.082  34.666   4.518
43811W        W16236  44.293  13.656   2.769
43812W        W16237   5.981  24.057  12.955
43813W        W16238   3.649  11.669  11.157
43814W        W16239  39.825  10.633   0.074
43815W        W16240  39.491  15.188   0.036
43816W        W16241  19.806  43.443   2.743
43817W        W16242  15.776  39.782   0.000
43818W        W16243  21.071  17.587   3.006
43819W        W16244   8.317  35.293  11.142
43820W        W16245   0.421   2.738   2.757
43821W        W16246  42.100  33.442   3.256
43822W        W16247  16.733  22.843   1.291
43823W        W16248   0.007  20.986  14.998
43824W        W16249  40.401  37.389   2.692
43825W        W16250   9.952  19.558  13.387
43826W        W16251   5.149  37.292   9.972
43827W        W16252  13.015   2.334   2.481
43828W        W16253  30.408  30.495   2.428
43829W        W16254  12.646  28.510  14.136
43830W        W16255  32.799  17.948   4.025
43831W        W16256  23.156  26.441   3.984
43832W        W16257  22.029   6.583   2.205
43833W        W16258  29.782  40.045   1.840
43834W        W16259  41.348  42.588   0.002
43835W        W16260  26.091   6.749   4.193
43836W        W16261   4.389  11.585   3.268
43837W        W16262   1.764   9.454  11.169
43838W        W16263  19.503  17.800   1.303
43839W        W16264   8.818  23.510  12.399
43840W        W16265   0.294  10.817   2.778
43841W        W16266  11.669  33.434  10.388
43842W        W16267   1.617  34.922  14.205
43843W        W16268  36.172  20.372  14.744
43844W        W16269  26.667  43.005  10.472
43845W        W16270   4.268  18.175  14.350
43846W        W16271  15.082  15.338  11.222
43847W        W16272  18.608  37.666  13.558
43848W        W16273  31.484   9.392  12.005
43849W        W16274   6.939  32.899  14.846
43850W        W16275   6.378  13.109  11.603
43851W        W16276  24.070   4.064  13.243
43852W        W16277  37.813   2.737   2.679
43853W        W16278  35.294   3.164  10.453
43854W        W16279  38.499   8.952   0.319
43855W        W16280  44.950   7.984  11.141
43856W        W16281  39.903   0.086   0.396
43857W        W16282   7.266  25.697   3.725
43858W        W16283   3.257  28.191  12.462
43859W        W16284  33.927  31.472   1.460
43860W        W16285  28.050  41.404  13.910
43861W        W16286  16.354  24.333   2.128
43862W        W16287   5.356  16.567   0.302
43863W        W16288  36.761   6.194  12.099
43864W        W16289  27.531   8.625   1.761
43865W        W16290   0.481  34.154  12.986
43866W        W16291  34.656   0.106  12.338
43867W        W16292  43.772  25.538   4.444
43868W        W16293  14.730  44.710   4.618
43869W        W16294  11.226  34.442   2.178
43870W        W16295  34.559   9.270  10.300
43871W        W16296  32.141   5.919   1.476
43872W        W16297  37.033  35.517  11.052
43873W        W16298  21.885  24.180  11.712
43874W        W16299  23.017  27.533  10.607
43875W        W16300  12.735  32.179  11.337
43876W        W16301  40.372  12.098   3.626
43877W        W16302  18.645  38.296  12.016
43878W        W16303  32.579  37.989  11.636
43879W        W16304  44.721  28.114  14.529
43880W        W16305  24.277  34.430   0.777
43881W        W16306  25.572  15.698   3.298
43882W        W16307  29.013  30.928   3.733
43883W        W16308  21.663  41.907   1.178
43884W        W16309  14.752  27.855   5.282
43885W        W16310  21.970  39.438   2.116
43886W        W16311  42.507  25.688   2.241
43887W        W16312   3.039  39.505  12.456
43888W        W16313  24.182  33.208  10.239
43889W        W16314   4.188   4.912   2.940
43890W        W16315  44.988  14.881   1.166
43891W        W16316  26.462  38.574  11.153
43892W        W16317  14.343  13.120   4.070
43893W        W16318   6.897  21.065  10.750
43894W        W16319   1.753  38.242  11.115
43895W        W16320  39.796  13.886   3.725
43896W        W16321   1.679  16.443   2.409
43897W        W16322  14.174  16.091   3.355
43898W        W16323   7.818  28.335  13.289
43899W        W16324  17.144   2.307  10.601
43900W        W16325  34.930  43.017   3.369
43901W        W16326  26.462   8.245   3.256
43902W        W16327   7.210  12.765  11.726
43903W        W16328  43.988   0.951   2.912
43904W        W16329  18.828  34.467   2.744
43905W        W16330  27.229  17.166  10.896
43906W        W16331  10.255  16.552   4.631
43907W        W16332  25.601  24.614   4.551
43908W        W16333  22.680   7.420  12.728
43909W        W16334  42.852   7.731   4.599
43910W        W16335  13.721  35.410   4.567
43911W        W16336  14.266   7.733   2.876
43912W        W16337  13.094   8.191   2.742
43913W        W16338   9.860  38.656   4.667
43914W        W16339   3.194  12.843   4.593
43915W        W16340  21.661  35.593   1.361
43916W        W16341  28.694  17.961   2.127
43917W        W16342  24.866  16.137  12.028
43918W        W16343  11.712  43.538   2.996
43919W        W16344   0.944   0.027  13.844
43920W        W16345  14.359  11.828   3.743
43921W        W16346   1.861  17.876   0.327
43922W        W16347   7.766  26.419  10.967
43923W        W16348   7.932  26.450  13.420
43924W        W16349   5.065  40.250  14.189
43925W        W16350  11.355   7.900   1.731
43926W        W16351   7.338  20.436   0.432
43927W        W16352  31.079  23.403   3.747
43928W        W16353  35.032  10.211   2.210
43929W        W16354  21.762  41.731  10.850
43930W        W16355  18.638  23.729  14.830
43931W        W16356  29.718  11.675   5.117
43932W        W16357  37.880  16.182  14.320
43933W        W16358  42.555  38.312  13.468
43934W        W16359  17.286  26.174   2.878
43935W        W16360  25.197   6.669   0.292
43936W        W16361  36.920  25.724  12.967
43937W        W16362  17.008   5.317   0.375
43938W        W16363   6.324  12.999  12.836
43939W        W16364   1.717  24.756  11.486
43940W        W16365  12.675  39.849  14.861
43941W        W16366  35.517  10.117   3.907
43942W        W16367  38.955   2.257  11.124
43943W        W16368  37.592  27.819   2.703
43944W        W16369  14.344  13.206   0.970
43945W        W16370  23.198  29.169   0.889
43946W        W16371  33.475   4.419   4.582
43947W        W16372  31.136  14.290  10.724
43948W        W16373   9.065  42.050  11.399
43949W        W16374   0.863  24.701   1.253
43950W        W16375  29.654  35.592  13.390
43951W        W16376   6.242  28.758   2.378
43952W        W16377  33.733  13.911  12.178
43953W        W16378  13.092   5.915  11.573
43954W        W16379  24.262   7.209  12.181
43955W        W16380  31.074  28.134  13.592
43956W        W16381  28.743  35.815   3.341
43957W        W16382  44.203   1.786   4.782
43958W        W16383  19.319  13.634  13.805
43959W        W16384  20.272  39.338   4.988
43960W        W16385   2.350  12.205   3.756
43961W        W16386   6.393   6.341  12.452
43962W        W16387  25.975  26.526   4.686
43963W        W16388  30.108  10.921   3.956
43964W        W16389  16.744  15.181  12.224
43965W        W16390  17.235   9.273  11.908
43966W        W16391  43.823  24.062  13.832
43967W        W16392   5.633  21.659   3.878
43968W        W16393   2.205  17.037  11.132
43969W        W16394  39.083  18.763   4.191
43970W        W16395  15.699  27.644  13.002
43971W        W16396   7.338  21.053  13.266
43972W        W16397   0.358  41.252   3.746
43973W        W16398  17.031  38.103   3.192
43974W        W16399  27.493  19.485   1.367
43975W        W16400  18.817  23.103   4.303
43976W        W16401  17.214   9.206   2.345
43977W        W16402  40.345  40.292  13.608
43978W        W16403  11.229  26.629   0.060
43979W        W16404  11.307  28.218  13.593
43980W        W16405  12.339   8.849  13.626
43981W        W16406  39.331   8.942   2.801
43982W        W16407   5.794  31.834  12.402
43983W        W16408  26.342  13.746   1.828
43984W        W16409  44.000  21.218   1.185
43985W        W16410  40.548   8.024  11.447
43986W        W16411  12.322   1.688   1.369
43987W        W16412  37.339  16.519  12.065
43988W        W16413  39.849  44.475  11.596
43989W        W16414   0.645  19.730  11.995
43990W        W16415  12.419  20.084  13.969
43991W        W16416  35.957  10.728  10.710
43992W        W16417   0.193   0.339  13.546
43993W        W16418  11.726  21.555  13.848
43994W        W16419  43.944  42.498   3.773
43995W        W16420  26.021  41.095   4.916
43996W        W16421  32.938   7.616  10.906
43997W        W16422  19.090  24.560  13.343
43998W        W16423  16.695   6.916  14.339
43999W        W16424  42.266  22.636  11.945
44000W        W16425  19.774   7.228  11.548
44001W        W16426  40.919  11.790  12.358
44002W        W16427  19.267  40.476  14.778
44003W        W16428  28.773  21.530  14.049
44004W        W16429  36.100  36.417   1.183
44005W        W16430  38.103  20.696  14.801
44006W        W16431  11.153  30.949   3.078
44007W        W16432  43.433  29.947  14.220
44008W        W16433  20.742  39.112  12.744
44009W        W16434   7.356  12.294   1.429
44010W        W16435  25.204  29.079  10.660
44011W        W16436  37.673  12.594   3.769
44012W        W16437  18.626  44.938  14.186
44013W        W16438   3.825  29.181  12.105
44014W        W16439  37.549  38.998   3.151
44015W        W16440  30.088  32.058   4.415
44016W        W16441   8.503  17.086  12.491
44017W        W16442  40.612  23.456  11.968
44018W        W16443  38.888  40.922   4.482
44019W        W16444  26.563   6.770   4.958
44020W        W16445   8.149   4.007   3.282
44021W        W16446  44.862  28.504   4.594
44022W        W16447  31.680  21.736   1.779
44023W        W16448  16.252  21.648  12.623
44024W        W16449  17.273  42.252  13.471
44025W        W16450  24.632  31.916  13.482
44026W        W16451  10.934  25.885   2.863
44027W        W16452  16.552   3.857   0.371
44028W        W16453  23.017  38.553  13.404
44029W        W16454  25.043  21.534   0.350
44030W        W16455  22.219  15.100   4.175
44031W        W16456  13.935  20.028   3.993
44032W        W16457  26.937  34.319  14.755
44033W        W16458  32.462  32.335  12.901
44034W        W16459  35.232   3.833  14.423
44035W        W16460   0.861  36.528   1.513
44036W        W16461  37.525  41.556   0.065
44037W        W16462   7.673  40.498  13.468
44038W        W16463  25.160  20.012  13.979
44039W        W16464  22.853  27.888   1.149
44040W        W16465  25.995   2.761   1.871
44041W        W16466  13.337  35.835   0.394
44042W        W16467   9.709  10.798   0.942
44043W        W16468  42.956  34.934  13.915
44044W        W16469  41.395  23.741   3.635
44045W        W16470  36.620   3.969   0.754
44046W        W16471  36.837  24.148  12.980
44047W        W16472  27.631  35.315  13.833
44048W        W16473  12.191  41.872   2.389
44049W        W16474  18.482  43.991   0.780
44050W        W16475   5.206  27.158   0.272
44051W        W16476   1.773  41.405  13.547
44052W        W16477   5.664  44.386  12.575
44053W        W16478  14.112  21.233  14.596
44054W        W16479  43.579  20.269   0.913
44055W        W16480  40.292  30.142   2.861
44056W        W16481  44.906  25.047  13.810
44057W        W16482  35.559  17.200   5.087
44058W        W16483  24.814  37.446   2.795
44059W        W16484  27.657  40.874  10.727
44060W        W16485  26.696   7.272   0.875
44061W        W16486  39.030  16.272   0.851
44062W        W16487  13.431  15.628  13.753
44063W        W16488  29.883  13.731  10.618
44064W        W16489  18.704  33.019  14.040
44065W        W16490  31.410   6.735  11.666
44066W        W16491  33.619  31.092  11.045
44067W        W16492  39.369   8.433   2.875
44068W        W16493  18.319  43.229  13.402
44069W        W16494  41.874  15.875  14.246
44070W        W16495  17.758  34.380  14.770
44071W        W16496  29.722   7.840   1.219
44072W        W16497  42.030  21.778  12.986
44073W        W16498  39.525   7.255  12.102
44074W        W16499   8.266  36.194   4.398
44075W        W16500  25.757  34.563   1.317
44076W        W16501  33.411  25.136  13.024
44077W        W16502   5.399  13.691  14.491
44078W        W16503  17.835  10.784  10.811
44079W        W16504   5.908   7.925  13.009
44080W        W16505   2.304  27.947  11.268
44081W        W16506  42.856  17.495   0.910
44082W        W16507  13.160  34.921  13.598
44083W        W16508  37.023  11.755  10.525
44084W        W16509  32.646  26.738  11.113
44085W        W16510  21.454  33.337  13.472
44086W        W16511  30.195   2.333   4.501
44087W        W16512  10.389  33.386  13.718
44088W        W16513  16.349  23.940  14.361
44089W        W16514  12.115  13.060   2.651
44090W        W16515  15.657  32.485   1.322
44091W        W16516  44.288  19.180  10.648
44092W        W16517  14.113  41.596  11.999
44093W        W16518   4.404  20.751   1.159
44094W        W16519  35.291  35.405   3.205
44095W        W16520  44.083  17.366   0.400
44096W        W16521  17.615  18.844   3.919
44097W        W16522  31.870  10.911   4.153
44098W        W16523  38.016  44.366   0.477
44099W        W16524  24.524  28.690   1.119
44100W        W16525  37.491  39.013   2.637
44101W        W16526  25.483   4.856  12.634
44102W        W16527  36.685  26.648  14.582
44103W        W16528  15.944  16.705   4.693
44104W        W16529  41.408   9.883  13.436
44105W        W16530   5.989   0.019  12.969
44106W        W16531  20.770  44.286   3.879
44107W        W16532  21.626   2.412   1.251
44108W        W16533   1.889  32.672   0.888
44109W        W16534  12.932  41.979   2.789
44110W        W16535  19.638  19.631  12.946
44111W        W16536  16.770  12.087  13.978
44112W        W16537  14.952   5.467  12.601
44113W        W16538   3.997  29.667  11.984
44114W        W16539  16.702   2.488  10.847
44115W        W16540  27.774  36.723   2.621
44116W        W16541  17.748  32.143   2.731
44117W        W16542   6.354  16.569  14.250
44118W        W16543   9.250   9.090   2.319
44119W        W16544  26.026  10.226  10.472
44120W        W16545  32.879  17.970   0.215
44121W        W16546  31.537  32.997  13.298
44122W        W16547  17.116  24.940   4.102
44123W        W16548  39.229  26.407   2.671
44124W        W16549  12.420   7.868  13.872
44125W        W16550   1.364  14.792   3.882
44126W        W16551  33.383   9.775   1.279
44127W        W16552   8.069  19.074  14.306
44128W        W16553   1.169  24.394  12.050
44129W        W16554  31.523  43.028   2.423
44130W        W16555   0.882  43.011  14.038
44131W        W16556   8.445   9.739   0.472
44132W        W16557  40.892  11.867   2.365
44133W        W16558  18.800  12.030   0.305
44134W        W16559  37.787  30.628   2.541
44135W        W16560  12.290  12.691   1.871
44136W        W16561   7.194   2.928   3.621
44137W        W16562   2.319  34.038  11.531
44138W        W16563  39.314  18.032   1.482
44139W        W16564  15.041  14.670   2.383
44140W        W16565  34.522  36.469   2.346
44141W        W16566  20.534  40.218  13.587
44142W        W16567   2.154  14.710   1.336
44143W        W16568  32.859  21.595  14.499
44144W        W16569  25.195   0.787   5.028
44145W        W16570  30.854   2.215  11.926
44146W        W16571   3.507  27.732  11.675
44147W        W16572  35.391   8.925   3.230
44148W        W16573  38.717   5.214   3.681
44149W        W16574  31.793  18.598   3.605
44150W        W16575  44.993   4.852   0.903
44151W        W16576  42.484  17.840  12.622
44152W        W16577   9.346  19.812  11.641
44153W        W16578  22.951  25.885  14.879
44154W        W16579  12.114  36.588  10.999
44155W        W16580  21.557  18.532   3.161
44156W        W16581   5.765  26.000  11.919
44157W        W16582  13.355  11.306  13.376
44158W        W16583  13.396  22.367   5.429
44159W        W16584   9.607  44.164   0.478
44160W        W16585  10.891  38.882  14.334
44161W        W16586  12.359  33.441   3.699
44162W        W16587   4.420  16.530   3.766
44163W        W16588  22.695  39.595   4.868
44164W        W16589   1.401  37.875   2.188
44165W        W16590  23.154   0.196   1.817
44166W        W16591   6.137  31.447  12.293
44167W        W16592  39.549  28.921  11.130
44168W        W16593   1.478   6.255   3.802
44169W        W16594  10.366   2.903   3.515
44170W        W16595  28.939  19.598  12.642
44171W        W16596  42.746  30.107   3.269
44172W        W16597  29.866  24.580  10.429
44173W        W16598  13.063  20.927   1.212
44174W        W16599  15.996  11.329   1.540
44175W        W16600   7.348  42.885   3.801
44176W        W16601  26.944  21.133   3.096
44177W        W16602   4.953  11.085   3.570
44178W        W16603  17.054   3.394   4.629
44179W        W16604  18.779  35.754  13.316
44180W        W16605  16.171  28.958   4.158
44181W        W16606   6.743  35.140  11.094
44182W        W16607   7.979   5.027  14.510
44183W        W16608  40.789  15.567   4.526
44184W        W16609  35.966  21.374   0.046
44185W        W16610   2.707   2.852  11.059
44186W        W16611  23.098  15.698  14.286
44187W        W16612  25.213  35.825  14.928
44188W        W16613   6.825  12.858  13.064
44189W        W16614  29.026  14.273  13.801
44190W        W16615  12.345  28.524  10.766
44191W        W16616  16.798  39.049   1.864
44192W        W16617  27.243   5.132  14.414
44193W        W16618   2.264  14.797   3.166
44194W        W16619  28.339  12.765   3.107
44195W        W16620  34.319  19.231   2.246
44196W        W16621  22.072  12.651  12.407
44197W        W16622   8.809  42.367  10.845
44198W        W16623  29.590  29.614   4.575
44199W        W16624  11.274  11.996  14.964
44200W        W16625  41.253  40.282   2.685
44201W        W16626  39.861   1.986   0.768
44202W        W16627  40.858  20.361   1.275
44203W        W16628  35.494  11.294  13.717
44204W        W16629   2.435  21.854   3.697
44205W        W16630  24.027   9.611  14.530
44206W        W16631  28.629  39.099   3.311
44207W        W16632  37.421  26.244   1.421
44208W        W16633  44.774  13.843   2.813
44209W        W16634  21.483  24.275   4.170
44210W        W16635  35.104  24.155  10.244
44211W        W16636  31.936  12.048  13.058
44212W        W16637  28.349  34.431   3.591
44213W        W16638  43.114   3.919   0.877
44214W        W16639  43.908   6.822  13.089
44215W        W16640  33.802   9.176  14.923
44216W        W16641  37.633  26.922   4.814
44217W        W16642   1.883   7.157  13.858
44218W        W16643  31.481  33.161  12.808
44219W        W16644  30.520  29.530   4.678
44220W        W16645  43.327  44.836  12.351
44221W        W16646  41.423   2.981   0.914
44222W        W16647  35.798  38.463   2.736
44223W        W16648  42.814  41.427  12.999
44224W        W16649  11.184  18.362  10.893
44225W        W16650  16.724  35.609  11.878
44226W        W16651  25.211   2.212  10.649
44227W        W16652  31.656  26.978   2.500
44228W        W16653  33.662  23.405   2.114
44229W        W16654  38.823  34.275  13.421
44230W        W16655  15.543  44.563  12.424
44231W        W16656   4.390  20.860  13.894
44232W        W16657   2.668  16.144   2.222
44233W        W16658  19.135  33.376  11.195
44234W        W16659  23.527  21.701  11.366
44235W        W16660   5.589   8.189  13.928
44236W        W16661   9.118  20.794  14.413
44237W        W16662  13.731  29.555  11.643
44238W        W16663  22.073  34.238   1.764
44239W        W16664   9.403  33.388   2.528
44240W        W16665   9.329  24.012   1.286
44241W        W16666  36.299  26.635  14.185
44242W        W16667  43.166  41.930  12.567
44243W        W16668  10.215  24.294   2.705
44244W        W16669  41.368  15.551   4.429
44245W        W16670  26.959  26.665   5.021
44246W        W16671  11.903  36.998  12.059
44247W        W16672  12.124  37.050   4.259
44248W        W16673  29.150  34.931  10.873
44249W        W16674  14.523  15.795  10.496
44250W        W16675  12.264  43.571   3.280
44251W        W16676  30.512  44.437  13.377
44252W        W16677   0.421   2.334   2.420
44253W        W16678  18.666  24.534  13.047
44254W        W16679  27.693  25.555   4.084
44255W        W16680  24.013  16.534   1.286
44256W        W16681  10.018   6.725  14.996
44257W        W16682   0.387  23.457   2.447
44258W        W16683  11.193   3.257  11.612
44259W        W16684  39.228  22.354  14.367
44260W        W16685  18.889  38.978  13.540
44261W        W16686  18.140  22.954   0.780
44262W        W16687  29.271  26.473  14.968
44263W        W16688  18.045  23.727  11.150
44264W        W16689  17.796  19.202  11.111
44265W        W16690  22.091  24.757  12.860
44266W        W16691  11.801  44.535  14.490
44267W        W16692  28.223  42.852   5.092
44268W        W16693  24.515  30.043   1.923
44269W        W16694  31.171  34.499  11.470
44270W        W16695  11.161  30.439  11.011
44271W        W16696  36.625  43.912  13.874
44272W        W16697  37.877   2.462   0.228
44273W        W16698  22.104  14.623   4.051
44274W        W16699   9.749  24.054   4.647
44275W        W16700  36.914   8.066   4.303
44276W        W16701  38.432   3.438   4.497
44277W        W16702   5.372   2.269  13.320
44278W        W16703  40.059   5.202  13.322
44279W        W16704  19.569  39.940   3.580
44280W        W16705  36.110   4.964   1.653
44281W        W16706   6.392   0.832  11.535
44282W        W16707   0.564  25.291  14.910
44283W        W16708   4.232  25.100   3.776
44284W        W16709  21.037   8.162  14.843
44285W        W16710   0.415  33.412  12.119
44286W        W16711   8.607  23.528  13.829
44287W        W16712  20.212  13.297   3.125
44288W        W16713   9.680  18.901  11.410
44289W        W16714  10.835  10.286  12.558
44290W        W16715  21.181   3.354   1.237
44291W        W16716  35.459  35.051   3.563
44292W        W16717  18.202  40.980   3.720
44293W        W16718  10.597   2.204   1.063
44294W        W16719   0.233  26.720   3.767
44295W        W16720  44.005  10.621  13.414
44296W        W16721  16.572  24.884  11.031
44297W        W16722  14.542  12.099   2.541
44298W        W16723  25.048  19.582   2.062
44299W        W16724  23.434  43.499  11.546
44300W        W16725   9.827  44.482   1.823
44301W        W16726  37.105  10.638  11.400
44302W        W16727   3.778  10.340  11.381
44303W        W16728   7.376  38.032   1.215
44304W        W16729  19.581  41.799   1.366
44305W        W16730   9.351  10.127   3.644
44306W        W16731  41.756  25.694  13.990
44307W        W16732  38.837  11.752   1.268
44308W        W16733  32.559   7.672  13.247
44309W        W16734  20.522  41.390   3.709
44310W        W16735  44.842  10.271  11.546
44311W        W16736  43.293  39.153   1.977
44312W        W16737  37.115   7.322  12.879
44313W        W16738  29.679   1.565   2.072
44314W        W16739  33.377  39.173  14.785
44315W        W16740  17.458  19.596  11.274
44316W        W16741  28.139  41.185  10.707
44317W        W16742  19.576  22.679   0.750
44318W        W16743  23.147  20.313   0.382
44319W        W16744   5.497   2.389  13.827
44320W        W16745  28.914  24.148  11.646
44321W        W16746  37.757  15.013  12.914
44322W        W16747  10.157  37.909   1.557
44323W        W16748  36.489  17.800   2.358
44324W        W16749  34.035   8.668  10.632
44325W        W16750   7.124  10.341  11.498
44326W        W16751  34.007  13.347  14.036
44327W        W16752  41.089   6.225  13.891
44328W        W16753  21.833  38.440   2.756
44329W        W16754  19.133  30.540   0.705
44330W        W16755   2.755  44.814  13.085
44331W        W16756  37.986   1.776  13.381
44332W        W16757  43.893   7.779  14.583
44333W        W16758   9.391  24.302  14.253
44334W        W16759   1.900   7.039   4.657
44335W        W16760  27.377  44.356   1.048
44336W        W16761  27.257  42.349   4.813
44337W        W16762  26.051  22.033  13.436
44338W        W16763  16.638  25.092   4.135
44339W        W16764  42.301  20.081  12.065
44340W        W16765  41.423  34.979   0.946
44341W        W16766   0.310  26.705   1.169
44342W        W16767  12.243   4.690  14.431
44343W        W16768  27.045  10.004  13.468
44344W        W16769  20.351  43.376  13.378
44345W        W16770  16.891  40.088   4.258
44346W        W16771  20.063  22.164   4.168
44347W        W16772   7.742   8.884   1.319
44348W        W16773  29.195   4.625   3.158
44349W        W16774  21.584  21.098  12.094
44350W        W16775  17.099  44.452   3.711
44351W        W16776   6.333   8.672  10.581
44352W        W16777  38.820  35.337   0.297
44353W        W16778   9.846  14.064   2.127
44354W        W16779  25.962  22.088   1.396
44355W        W16780  33.476  44.316   1.458
44356W        W16781  12.673  36.938  10.865
44357W        W16782   6.649   1.240   1.753
44358W        W16783  27.528  43.186  12.169
44359W        W16784   6.300   4.713  14.560
44360W        W16785  14.814  43.701   4.594
44361W        W16786  20.408  25.547   3.211
44362W        W16787  15.101   3.907   3.253
44363W        W16788  18.089  32.976   2.929
44364W        W16789   7.487  35.540  13.794
44365W        W16790   7.829  31.021  10.473
44366W        W16791  37.899  42.885  14.537
44367W        W16792  43.668  28.933   4.204
44368W        W16793   1.336  44.794  14.981
44369W        W16794  14.583   5.200   5.043
44370W        W16795   7.643   5.280   0.299
44371W        W16796   4.722  39.875  10.095
44372W        W16797   9.732  42.420   4.090
44373W        W16798  31.103  44.290   2.193
44374W        W16799  38.326  24.515  13.569
44375W        W16800  14.611  26.096  14.251
44376W        W16801  42.979  35.877  12.454
44377W        W16802  11.387  14.128   4.173
44378W        W16803  42.526  22.088   1.046
44379W        W16804   5.988   6.162  14.778
44380W        W16805  41.300   2.207  10.688
44381W        W16806   2.845  18.016   3.514
44382W        W16807  11.870  15.668  13.923
44383W        W16808  27.030   5.166  12.594
44384W        W16809   5.316  11.274   1.365
44385W        W16810  32.960   3.841  12.644
44386W        W16811  13.268  18.648   9.987
44387W        W16812  42.593  30.644  11.171
44388W        W16813  12.350   2.307   3.194
44389W        W16814   5.466  44.809   0.841
44390W        W16815  14.910  16.032   4.190
44391W        W16816   5.714  17.785   4.092
44392W        W16817  15.942   1.288  13.714
44393W        W16818  12.258  35.751  11.306
44394W        W16819  31.663  26.394   3.937
44395W        W16820   5.395  42.048  11.535
44396W        W16821   7.563  28.062   3.673
44397W        W16822  35.045  19.120   2.148
44398W        W16823  31.063  10.685   0.409
44399W        W16824   6.908   0.721   0.307
44400W        W16825  32.585  19.854   2.280
44401W        W16826  19.336  27.591   4.775
44402W        W16827  35.656  20.501   1.821
44403W        W16828  12.156   5.795  14.379
44404W        W16829  31.995  22.002   0.001
44405W        W16830   7.653  32.730   2.184
44406W        W16831  42.184  24.950   3.924
44407W        W16832  14.859  29.488   4.117
44408W        W16833  40.276  10.407  14.781
44409W        W16834  18.792  43.701  14.069
44410W        W16835  27.624  26.215  12.232
44411W        W16836   9.318  14.261   3.531
44412W        W16837  39.843  40.491   4.537
44413W        W16838  43.970  29.001   0.085
44414W        W16839  13.046  14.941  12.498
44415W        W16840  41.595  17.885   2.798
44416W        W16841   0.537  34.281   4.635
44417W        W16842  23.259  14.598  14.307
44418W        W16843  43.234  40.487   4.652
44419W        W16844   3.177  29.267   2.047
44420W        W16845   0.861   4.040   0.387
44421W        W16846  12.808  31.222  12.959
44422W        W16847  43.578  19.967  14.165
44423W        W16848  27.103   5.922  13.083
44424W        W16849  39.414   3.307   1.922
44425W        W16850  36.877   2.322   1.707
44426W        W16851   2.638  15.954   1.187
44427W        W16852  35.202  10.283  14.066
44428W        W16853  13.897  19.715  13.466
44429W        W16854  18.933  23.599  11.261
44430W        W16855  17.038   2.788  13.874
44431W        W16856  40.830  44.855   3.272
44432W        W16857  29.842  10.242   2.246
44433W        W16858  30.007   6.375  13.905
44434W        W16859  27.553  12.248  14.125
44435W        W16860  41.569  32.305   4.456
44436W        W16861   8.374  42.580  13.200
44437W        W16862  38.439  18.545  10.392
44438W        W16863   1.776   4.687  13.015
44439W        W16864   0.498  37.299   1.826
44440W        W16865   7.246  30.453   0.232
44441W        W16866  23.685  26.233   4.647
44442W        W16867  40.110  15.664  14.368
44443W        W16868  18.276  28.485   0.144
44444W        W16869   2.350  14.804  14.976
44445W        W16870  44.488  42.585   2.223
44446W        W16871   1.451   7.167  14.600
44447W        W16872  36.005  12.359   1.361
44448W        W16873   7.189  23.052   4.284
44449W        W16874   8.404  41.876   1.885
44450W        W16875  21.989  34.726   1.643
44451W        W16876  19.509  11.028  12.973
44452W        W16877  19.706  40.462   3.348
44453W        W16878  37.408  32.386  11.059
44454W        W16879   1.072  41.760  13.303
44455W        W16880  44.733  32.541   0.477
44456W        W16881  26.233  37.962  11.160
44457W        W16882   9.683  11.082  14.690
44458W        W16883  17.165  29.286   2.921
44459W        W16884  10.843  40.874   3.827
44460W        W16885  28.666  27.021   2.778
44461W        W16886  40.035  17.556   4.068
44462W        W16887  19.658  28.596   3.717
44463W        W16888   1.985  22.258  12.784
44464W        W16889  22.597  29.344   1.842
44465W        W16890  35.813  44.793   3.383
44466W        W16891  14.600   3.283   2.862
44467W        W16892  30.620  29.118  10.181
44468W        W16893  29.921  43.846   0.294
44469W        W16894  12.803   9.252   4.215
44470W        W16895  11.711  10.258  11.589
44471W        W16896  24.512  18.209  12.916
44472W        W16897  35.092  41.595   1.591
44473W        W16898   5.236   7.829   3.079
44474W        W16899   2.734  30.007   1.287
44475W        W16900  35.230   0.886  12.861
44476W        W16901  21.831  17.543   3.195
44477W        W16902  22.021  34.477   0.249
44478W        W16903  42.447  30.039   0.097
44479W        W16904  22.581   1.407  14.630
44480W        W16905   8.908   3.978  14.044
44481W        W16906   7.180  24.969  14.490
44482W        W16907  21.188  35.368   1.279
44483W        W16908  34.028  36.935   4.592
44484W        W16909  29.957   7.400   0.559
44485W        W16910  30.760  37.020   1.338
44486W        W16911   3.946  43.828   3.578
44487W        W16912  18.791  12.856  13.384
44488W        W16913  13.633  15.644   4.402
44489W        W16914  43.910   4.844   1.337
44490W        W16915  27.677  31.389   3.968
44491W        W16916  13.891  26.710   2.822
44492W        W16917   3.597  30.611   2.291
44493W        W16918  24.500  42.484   1.868
44494W        W16919  13.793  42.794  12.955
44495W        W16920  27.632  22.465  14.904
44496W        W16921   6.206  40.422  10.096
44497W        W16922  16.236   3.271   1.998
44498W        W16923   3.222  28.613  12.168
44499W        W16924  38.899  22.442  11.578
44500W        W16925  42.819   7.349  10.906
44501W        W16926  27.788  22.196  10.055
44502W        W16927  29.637  33.933   0.775
44503W        W16928  34.058  18.265  11.810
44504W        W16929  20.056  21.044   1.862
44505W        W16930  25.240  42.592   3.076
44506W        W16931  19.727  24.494   4.268
44507W        W16932   6.311  10.618  14.607
44508W        W16933   9.077  16.292   0.797
44509W        W16934  13.882  27.147  11.519
44510W        W16935  30.624   5.889   1.226
44511W        W16936  18.019  37.883   0.530
44512W        W16937   7.897  41.293  12.998
44513W        W16938  11.105  27.468   1.341
44514W        W16939   5.337  17.394  14.858
44515W        W16940  24.763  14.642   0.326
44516W        W16941  23.352   2.016  13.510
44517W        W16942  16.162  33.055  14.071
44518W        W16943  15.407   3.306   9.675
44519W        W16944  22.555  33.297  14.306
44520W        W16945  32.531  11.714  11.207
44521W        W16946  22.728  40.264  13.909
44522W        W16947  39.209  30.455  12.541
44523W        W16948   4.053   7.882   3.841
44524W        W16949  41.893   5.439   1.424
44525W        W16950  26.681  25.490   3.232
44526W        W16951   5.893  24.195  11.632
44527W        W16952   9.899   5.687   2.772
44528W        W16953  17.132  33.421  11.678
44529W        W16954  20.096   5.632   0.399
44530W        W16955   2.763  33.521   0.263
44531W        W16956  33.075  34.448  11.188
44532W        W16957   0.499  34.905  11.890
44533W        W16958  14.782  28.196  14.091
44534W        W16959  42.267  28.651   4.570
44535W        W16960  13.745  23.766  13.106
44536W        W16961  13.097  26.383   1.715
44537W        W16962  19.845  28.224   2.268
44538W        W16963  41.595  19.673   1.843
44539W        W16964  36.015  11.346  11.744
44540W        W16965   8.750  38.609  14.897
44541W        W16966   4.800  36.541  14.353
44542W        W16967  42.875  16.261   3.885
44543W        W16968  35.893  13.153   1.963
44544W        W16969   0.016  32.712  10.736
44545W        W16970  44.961  20.296   2.124
44546W        W16971  23.947  39.655  11.888
44547W        W16972  39.869  38.595  11.941
44548W        W16973  10.740   8.754  14.472
44549W        W16974  17.646   2.340   0.957
44550W        W16975  31.005  37.456   4.173
44551W        W16976  16.054  21.599   4.495
44552W        W16977   7.246  43.784   2.238
44553W        W16978  11.626  14.807   4.703
44554W        W16979   6.112  35.616  13.539
44555W        W16980  29.709  15.622  13.437
44556W        W16981  15.205   4.911  11.469
44557W        W16982   3.590  42.529   1.212
44558W        W16983  33.967  35.991   2.451
44559W        W16984  37.129  42.736   4.232
44560W        W16985  13.604  36.557   3.266
44561W        W16986  22.567  25.195  13.640
44562W        W16987  22.305  10.805  12.350
44563W        W16988  31.430  44.250  10.685
44564W        W16989  16.124  15.536  11.503
44565W        W16990  30.959  18.276  14.424
44566W        W16991  12.613  20.460   4.158
44567W        W16992  39.975  10.111   3.178
44568W        W16993  43.883   3.841  13.842
44569W        W16994  10.680  11.062  10.507
44570W        W16995  15.696  13.163   1.435
44571W        W16996  11.007   4.820  11.087
44572W        W16997   7.261   9.461   4.560
44573W        W16998  29.643  17.890  10.829
44574W        W16999   6.638  31.538   1.276
44575W        W17000  43.811  13.463   2.658
44576W        W17001  15.871   5.187   1.405
44577W        W17002   7.620  15.532  12.430
44578W        W17003  43.346  39.573  10.971
44579W        W17004  24.971  28.378  11.833
44580W        W17005  25.577  25.076   0.963
44581W        W17006  21.096  16.679   5.159
44582W        W17007  39.831   9.540  12.373
44583W        W17008  24.663   5.751   3.786
44584W        W17009  28.583  41.534  14.426
44585W        W17010  30.498  18.223   3.229
44586W        W17011  34.365  17.549   4.286
44587W        W17012  44.353   5.499  10.767
44588W        W17013  27.732  30.922  10.808
44589W        W17014  44.943   3.203  14.913
44590W        W17015  39.539  13.642  13.268
44591W        W17016  22.215   5.746  10.709
44592W        W17017  28.614  15.750   2.107
44593W        W17018  23.630  12.259   3.271
44594W        W17019  20.797  32.028   3.812
44595W        W17020  13.509   3.238  10.345
44596W        W17021  11.108  32.182   4.868
44597W        W17022   3.561  22.568   1.805
44598W        W17023  24.030  20.238   0.496
44599W        W17024  12.721  44.638  11.551
44600W        W17025  24.170  41.782   1.332
44601W        W17026  19.701  24.933   3.188
44602W        W17027  34.247  28.328  13.986
44603W        W17028  43.163   7.167   2.324
44604W        W17029   3.937  39.043  12.897
44605W        W17030  13.472   9.765  13.574
44606W        W17031   2.132  26.361   3.825
44607W        W17032  40.727  12.180  14.322
44608W        W17033  23.512  24.063   2.390
44609W        W17034   4.480  31.676   1.149
44610W        W17035  37.615  15.347   3.277
44611W        W17036  11.740  22.003   4.781
44612W        W17037  40.823  40.603   3.915
44613W        W17038  30.748  42.549  11.025
44614W        W17039  36.540  44.315  14.346
44615W        W17040  15.853  44.533  11.512
44616W        W17041  23.942  39.437  12.737
44617W        W17042  43.774  33.069   4.607
44618W        W17043  16.587  13.071   1.469
44619W        W17044  43.251   5.509  12.587
44620W        W17045  14.233  25.802   5.018
44621W        W17046   8.912  20.747  14.896
44622W        W17047  20.170   3.271  14.715
44623W        W17048  11.883   1.777  12.179
44624W        W17049  29.948  12.629  14.000
44625W        W17050   6.296  42.017  13.472
44626W        W17051  29.519  15.609   2.864
44627W        W17052  38.835  13.663   1.607
44628W        W17053  39.124  14.874   2.176
44629W        W17054  33.569   6.403   1.415
44630W        W17055  43.954  40.250   1.255
44631W        W17056  37.823  17.846  10.729
44632W        W17057  20.042   2.542   2.813
44633W        W17058  43.045  40.872   3.779
44634W        W17059  41.776  36.237   1.224
44635W        W17060  24.316  20.014   3.729
44636W        W17061  29.313   6.746  12.964
44637W        W17062  40.419  27.716  14.858
44638W        W17063   2.716  34.924  11.622
44639W        W17064  40.921  36.475   4.607
44640W        W17065   8.449  28.118   3.310
44641W        W17066  43.791   4.329  14.638
44642W        W17067  24.987  13.851  12.514
44643W        W17068  37.407  16.053   2.293
44644W        W17069  15.103   9.094   0.326
44645W        W17070  43.787  12.967   2.790
44646W        W17071   3.068  43.845  11.385
44647W        W17072  11.630  28.078   1.227
44648W        W17073   1.834   1.883   0.968
44649W        W17074  26.894  15.267   3.693
44650W        W17075  34.920  12.835  13.710
44651W        W17076  39.785  33.867   1.391
44652W        W17077  42.120   0.300   1.705
44653W        W17078  41.884  39.628   0.834
44654W        W17079   4.492  15.154   2.521
44655W        W17080  16.107  14.075  12.604
44656W        W17081  17.827  41.466  11.703
44657W        W17082  18.332   8.637   3.903
44658W        W17083  24.665   6.904   2.644
44659W        W17084   3.213  25.642   1.992
44660W        W17085  13.837  28.234  13.245
44661W        W17086  42.351  30.845   4.550
44662W        W17087  16.652  15.680   3.098
44663W        W17088  42.274   0.256   4.707
44664W        W17089  20.074   3.266   2.242
44665W        W17090  20.005  10.285  10.601
44666W        W17091  32.427  41.894   2.277
44667W        W17092  11.171  41.406   3.426
44668W        W17093  40.349   1.880  13.442
44669W        W17094   3.500  31.586  13.550
44670W        W17095  26.419   2.997   1.670
44671W        W17096   8.436   2.259   4.609
44672W        W17097  30.723  38.507  14.267
44673W        W17098  25.597  37.495   0.286
44674W        W17099  39.075  21.766  13.418
44675W        W17100  39.539  15.356  12.513
44676W        W17101  24.202  20.224  10.654
44677W        W17102  20.571  35.409  14.727
44678W        W17103   1.032   4.449   4.614
44679W        W17104   6.696  12.700   2.211
44680W        W17105  21.022  37.052   0.057
44681W        W17106  36.658  15.733   4.105
44682W        W17107  22.227  19.959   3.171
44683W        W17108  27.723  35.689  12.533
44684W        W17109  17.327  37.524   4.273
44685W        W17110  30.603  40.911   5.640
44686W        W17111  12.135  33.002   4.524
44687W        W17112   0.964  39.837   1.802
44688W        W17113  16.254  35.097  13.895
44689W        W17114  19.539  13.143  13.984
44690W        W17115  18.715  17.754   2.653
44691W        W17116  36.178  38.920  11.689
44692W        W17117   0.700  22.213   3.631
44693W        W17118   7.690  40.269   1.920
44694W        W17119  36.624  31.894  14.369
44695W        W17120  21.272   4.874   4.937
44696W        W17121  13.252   5.371   2.827
44697W        W17122   4.866   4.758   3.590
44698W        W17123  41.500  23.177  10.744
44699W        W17124   0.664  38.907   4.002
44700W        W17125   4.829  12.061   1.386
44701W        W17126   5.628  37.237  12.679
44702W        W17127  20.660  31.413  14.389
44703W        W17128  11.714  10.870  10.930
44704W        W17129  39.349  14.791   1.295
44705W        W17130  44.291  17.100   3.796
44706W        W17131   8.172  29.229   1.008
44707W        W17132  29.193  36.505   0.373
44708W        W17133  22.999  11.352   2.703
44709W        W17134  42.603   4.752   3.676
44710W        W17135   8.110  12.952   1.682
44711W        W17136  13.148  10.725   3.130
44712W        W17137  42.276  24.629  14.342
44713W        W17138  36.122  31.754   4.264
44714W        W17139   6.535  33.514   1.755
44715W        W17140  12.652  12.422  11.431
44716W        W17141  16.781  19.128  14.405
44717W        W17142  44.927   6.930  12.916
44718W        W17143  43.269  36.403   2.746
44719W        W17144  19.869   5.000  11.124
44720W        W17145   8.999   8.150   3.727
44721W        W17146  27.315  11.352  13.397
44722W        W17147  10.693   5.735  13.878
44723W        W17148  38.540  18.712  13.030
44724W        W17149  23.994  22.978  13.925
44725W        W17150  15.535  38.498   1.042
44726W        W17151  40.628  30.812  10.682
44727W        W17152  29.535  25.319  11.082
44728W        W17153  19.345  18.056   3.094
44729W        W17154  17.376  32.139  11.623
44730W        W17155  23.578  42.424  10.620
44731W        W17156   2.695   4.473  12.346
44732W        W17157  20.414  29.941  14.576
44733W        W17158  21.961  17.540  14.272
44734W        W17159  25.765  37.462   1.085
44735W        W17160  25.375   7.132   1.279
44736W        W17161  17.643  35.808   1.139
44737W        W17162  13.673  12.361  13.895
44738W        W17163  39.399  21.781   2.364
44739W        W17164  18.370  20.249   3.746
44740W        W17165   4.309   9.688  10.610
44741W        W17166  42.549  30.558   0.889
44742W        W17167  39.448  31.541  13.503
44743W        W17168  36.099  36.943   2.015
44744W        W17169   8.960  20.086   4.517
44745W        W17170  15.152  26.608   1.887
44746W        W17171  38.065  44.495   4.566
44747W        W17172   1.924  39.442   1.746
44748W        W17173  28.257   4.500   2.230
44749W        W17174  10.317  14.055   2.918
44750W        W17175  23.204   5.021   0.906
44751W        W17176  26.930  30.314   3.837
44752W        W17177  11.004  14.847   0.343
44753W        W17178  43.522  22.504   4.578
44754W        W17179   8.671  35.450  11.492
44755W        W17180  13.199  36.311  11.485
44756W        W17181  18.642   4.764  10.634
44757W        W17182  41.489  18.466   3.403
44758W        W17183   5.460  11.819   9.906
44759W        W17184   2.239   0.272   3.299
44760W        W17185  26.895  20.128   2.834
44761W        W17186  15.022  12.149  11.470
44762W        W17187   7.774  21.101  14.302
44763W        W17188  25.764   0.806   9.920
44764W        W17189   3.710  20.800  13.507
44765W        W17190  29.899  18.026   2.895
44766W        W17191  40.624  14.780  11.064
44767W        W17192   6.134   6.486   0.944
44768W        W17193   1.792  29.840  11.108
44769W        W17194  40.380  25.293   0.879
44770W        W17195  31.005  26.954   0.915
44771W        W17196  15.533  36.423  13.799
44772W        W17197  43.090  41.681   0.792
44773W        W17198  25.963  15.170   3.360
44774W        W17199  44.834  11.478   3.399
44775W        W17200  28.562  19.261  13.435
44776W        W17201  25.650  42.365   1.853
44777W        W17202  13.328  43.916   4.077
44778W        W17203   2.388   0.829  14.783
44779W        W17204  21.835  14.801  10.548
44780W        W17205  40.338   7.024  13.087
44781W        W17206   7.374  40.726   1.833
44782W        W17207   7.242  12.612   0.849
44783W        W17208  26.410  39.026   3.822
44784W        W17209  16.717   9.287   1.193
44785W        W17210  39.404  27.618   4.282
44786W        W17211  15.147   3.301  10.961
44787W        W17212   0.021  24.235   4.529
44788W        W17213  16.331  34.170   3.257
44789W        W17214   7.709  31.497  10.721
44790W        W17215  37.569  23.764   3.269
44791W        W17216  12.623  30.504   0.468
44792W        W17217  29.648   8.238  13.033
44793W        W17218  28.749  11.911   4.176
44794W        W17219  12.094  39.370  11.293
44795W        W17220  33.904  41.323   3.111
44796W        W17221   3.155   4.955   3.359
44797W        W17222  34.038   6.451  14.145
44798W        W17223  27.658  29.470  14.865
44799W        W17224  26.140  36.948  11.204
44800W        W17225   0.245   1.757  13.086
44801W        W17226  11.176  16.094   2.227
44802W        W17227  13.949   0.905   1.758
44803W        W17228   7.836  11.988   1.873
44804W        W17229  43.728  23.556  11.079
44805W        W17230   1.433  13.815   3.650
44806W        W17231  12.150  28.240   2.266
44807W        W17232  21.981  10.098  11.066
44808W        W17233  22.708   0.254   3.942
44809W        W17234  24.972   5.751  14.232
44810W        W17235   3.510  20.265  14.027
44811W        W17236   0.798   2.745   0.943
44812W        W17237  42.240  24.116  14.486
44813W        W17238  16.554  10.063  14.269
44814W        W17239  22.526  28.445  11.267
44815W        W17240   4.798  18.671   0.782
44816W        W17241  40.986  13.667   4.369
44817W        W17242   8.123   5.291   0.498
44818W        W17243  38.905  19.777  10.828
44819W        W17244  23.836   7.392   0.232
44820W        W17245  27.419  29.534   2.821
44821W        W17246   9.233   3.068   0.348
44822W        W17247   6.478  10.634   1.309
44823W        W17248   3.703  27.955  12.112
44824W        W17249  10.901  35.929  11.939
44825W        W17250  41.043   1.714   4.884
44826W        W17251  32.316  37.781  12.097
44827W        W17252   3.862  13.246   0.413
44828W        W17253  27.647  28.118  13.236
44829W        W17254  15.292  24.466   4.095
44830W        W17255   0.718  26.143   0.024
44831W        W17256  26.574  42.114   3.577
44832W        W17257  26.023  30.209  11.724
44833W        W17258   7.855  28.174   2.190
44834W        W17259   3.118   7.752   1.452
44835W        W17260  42.520  13.852   2.959
44836W        W17261  29.278  14.655  13.533
44837W        W17262  27.526  16.144   3.322
44838W        W17263  29.057  40.046   0.869
44839W        W17264  17.485  11.319   2.334
44840W        W17265  11.298  41.526  12.460
44841W        W17266  12.969  30.942  10.612
44842W        W17267  42.859  31.254  11.168
44843W        W17268  11.451  36.357   3.763
44844W        W17269  29.676  18.579   0.739
44845W        W17270  32.647  42.811   1.762
44846W        W17271  18.982  42.069  12.908
44847W        W17272  38.773   7.153  12.492
44848W        W17273   9.477  37.991  12.505
44849W        W17274  11.818  16.235   4.807
44850W        W17275   8.305  24.524   4.575
44851W        W17276  15.795  25.228   2.356
44852W        W17277   3.410  31.524  14.464
44853W        W17278  28.049   6.084   1.349
44854W        W17279  32.587   8.216  11.488
44855W        W17280  27.071  18.253  14.024
44856W        W17281  35.387   7.672   3.728
44857W        W17282   5.822  17.988  13.412
44858W        W17283  36.616  30.215   5.040
44859W        W17284  36.432  20.482  12.922
44860W        W17285  13.136  34.967   3.233
44861W        W17286  18.818  18.147  13.350
44862W        W17287  43.512  26.045  14.539
44863W        W17288  29.154  29.510  13.033
44864W        W17289  33.394  43.563  11.817
44865W        W17290  24.982  26.179   3.537
44866W        W17291  44.828  22.319   1.716
44867W        W17292  21.240   9.211  12.940
44868W        W17293  27.003  26.485  14.410
44869W        W17294  34.606  35.547   2.853
44870W        W17295  18.709  39.498   0.963
44871W        W17296  44.429   9.848  11.136
44872W        W17297   7.380  16.358   0.376
44873W        W17298  31.091  19.092   0.253
44874W        W17299  23.677  19.054   0.005
44875W        W17300   5.077  40.802  11.962
44876W        W17301  28.076  21.914   4.393
44877W        W17302   9.007  20.029  11.067
44878W        W17303  29.879  42.803   0.444
44879W        W17304  24.898   2.883   1.658
44880W        W17305  31.784  42.194   3.742
44881W        W17306  36.742  27.945   0.783
44882W        W17307  28.496   6.778  11.897
44883W        W17308   0.389   1.733  12.530
44884W        W17309   4.462  34.177   2.679
44885W        W17310   9.789   4.767  12.766
44886W        W17311  19.600  28.519  14.838
44887W        W17312   9.265  15.642   2.044
44888W        W17313  42.958  44.456   4.626
44889W        W17314  37.476   5.605   4.187
44890W        W17315  25.546  43.964   0.068
44891W        W17316  30.079  17.954   3.405
44892W        W17317  38.803  20.326  14.525
44893W        W17318  42.003  19.295   0.757
44894W        W17319  13.860  41.290  10.615
44895W        W17320   4.214  27.617   2.737
44896W        W17321   4.434   9.290   4.454
44897W        W17322   7.719  16.606   0.672
44898W        W17323  12.861  43.541  10.562
44899W        W17324  12.152   2.938  11.954
44900W        W17325  14.340  24.560  10.718
44901W        W17326  34.180  24.926  12.009
44902W        W17327  24.448  34.478   1.634
44903W        W17328  37.315  44.513  12.473
44904W        W17329   0.986  34.054  12.891
44905W        W17330   5.061  15.582   0.830
44906W        W17331  18.925  38.481  11.623
44907W        W17332  25.499  13.097  12.664
44908W        W17333  24.413   7.185  14.034
44909W        W17334  14.074   2.593  12.147
44910W        W17335  28.596  22.048   2.328
44911W        W17336  11.263  29.081   2.833
44912W        W17337  10.921  42.801  12.466
44913W        W17338  19.787  44.872  11.036
44914W        W17339   8.883  33.160  12.245
44915W        W17340   2.744  25.026   3.695
44916W        W17341  19.551  33.977  12.642
44917W        W17342  28.428  18.255   2.477
44918W        W17343  14.861   3.923  13.145
44919W        W17344  44.159  28.031  12.986
44920W        W17345  29.439   5.888   4.198
44921W        W17346  15.676  43.891   4.699
44922W        W17347  20.926  18.132   1.827
44923W        W17348  20.752  13.304   1.220
44924W        W17349  18.759   1.671  14.510
44925W        W17350   4.691  21.144  11.952
44926W        W17351  18.231  15.734  14.904
44927W        W17352  28.583  17.376  11.843
44928W        W17353  35.538  27.125  10.700
44929W        W17354  29.517  34.654   2.873
44930W        W17355  40.786   1.613   1.918
44931W        W17356  38.434  10.100  10.511
44932W        W17357  15.269  32.646  14.476
44933W        W17358  44.023  12.388   4.243
44934W        W17359  25.162  39.660   0.360
44935W        W17360  13.800  23.573   0.724
44936W        W17361  12.520  31.132  13.406
44937W        W17362  32.400   1.276   1.784
44938W        W17363  24.201   5.119   2.803
44939W        W17364  15.341  35.622  13.192
44940W        W17365  14.998   9.870   4.202
44941W        W17366  12.705  27.250   2.854
44942W        W17367   9.821  12.122   3.116
44943W        W17368  26.053  28.307   3.163
44944W        W17369  42.474  10.703   3.373
44945W        W17370  21.327  42.156   3.786
44946W        W17371  15.733  21.215  11.189
44947W        W17372  33.392  31.382   1.392
44948W        W17373  33.610  33.123   3.584
44949W        W17374  44.266  21.946  11.512
44950W        W17375  22.355  24.062   4.140
44951W        W17376  35.590  23.114   4.124
44952W        W17377  26.152  39.523   0.495
44953W        W17378  30.052  18.367  11.243
44954W        W17379  26.839  31.649  12.582
44955W        W17380  20.141  43.772   0.477
44956W        W17381  38.547  12.304  10.680
44957W        W17382  27.660  40.538   5.087
44958W        W17383  35.443  39.369   0.585
44959W        W17384  34.665  41.495   1.235
44960W        W17385   2.567  22.311   2.411
44961W        W17386  43.128  29.533   4.690
44962W        W17387  22.965  11.656  12.183
44963W        W17388  31.775  27.950  14.811
44964W        W17389  12.839  29.087  14.822
44965W        W17390  21.075  39.476  10.731
44966W        W17391  16.235  43.282  12.622
44967W        W17392  10.899  29.503  10.169
44968W        W17393  40.837  12.292   4.783
44969W        W17394  30.192  39.328   1.422
44970W        W17395  34.261  36.086  12.006
44971W        W17396   1.669  30.487   1.889
44972W        W17397  40.334   5.258   3.884
44973W        W17398  34.462  42.029   1.256
44974W        W17399  16.972  18.226  10.350
44975W        W17400  31.030  18.194   0.774
44976W        W17401  41.771  22.583   2.319
44977W        W17402   0.795  43.544  12.875
44978W        W17403  19.073  15.179   2.840
44979W        W17404  38.006  42.748  12.508
44980W        W17405  10.151  13.197  11.207
44981W        W17406  38.531  14.160   4.621
44982W        W17407  36.290  35.475   3.239
44983W        W17408  44.399  20.775  13.826
44984W        W17409  14.159  42.075  11.003
44985W        W17410  28.016  18.565   2.682
44986W        W17411   1.813  30.608   0.939
44987W        W17412  25.674  38.049  13.477
44988W        W17413  18.232  24.212  13.523
44989W        W17414  41.280   0.323  12.825
44990W        W17415  13.139  44.267  14.440
44991W        W17416  14.037   9.738  12.428
44992W        W17417   2.015  30.678   0.422
44993W        W17418  29.691   2.101   1.921
44994W        W17419  37.200   3.324  14.885
44995W        W17420  20.616  28.908  11.036
44996W        W17421  33.361   9.928   4.504
44997W        W17422  24.759  41.383  14.771
44998W        W17423   9.744  19.177  14.878
44999W        W17424  14.933  15.216   4.592
45000W        W17425  32.445  44.851  12.164
45001W        W17426   4.506  19.976   2.372
45002W        W17427  14.848  16.313   0.308
45003W        W17428  11.361  19.743  12.702
45004W        W17429  20.341  32.640   3.201
45005W        W17430  41.855  32.087   0.050
45006W        W17431  27.081  39.385  12.338
45007W        W17432  19.360   4.162  14.818
45008W        W17433  10.676  24.255   4.740
45009W        W17434  33.402  35.818   3.214
45010W        W17435   8.129  12.150   4.708
45011W        W17436  19.048  21.849   1.431
45012W        W17437   0.415  27.866  11.572
45013W        W17438  35.980   5.207  13.408
45014W        W17439  27.785  43.780  10.612
45015W        W17440  39.050  32.709   4.535
45016W        W17441  29.046   8.259  13.811
45017W        W17442   1.714  10.828   2.390
45018W        W17443  38.568  11.301  11.129
45019W        W17444  43.174  44.732  14.556
45020W        W17445   3.272   1.193   1.595
45021W        W17446  32.292   6.230   3.718
45022W        W17447   2.233  40.170  14.541
45023W        W17448  19.355  25.731  13.065
45024W        W17449  23.070  43.026  10.907
45025W        W17450  20.584  40.619   4.569
45026W        W17451  39.490  24.016  13.276
45027W        W17452   3.674  21.023   3.738
45028W        W17453  25.403  33.449   3.712
45029W        W17454  14.748  13.844  13.410
45030W        W17455  22.103  30.076   1.150
45031W        W17456   9.845  28.609   4.413
45032W        W17457  35.867   6.135  12.172
45033W        W17458  43.816   9.903  12.325
45034W        W17459   9.354   1.775  12.075
45035W        W17460   4.208  25.026   0.749
45036W        W17461  15.783   5.434  10.937
45037W        W17462  20.759   9.866   2.718
45038W        W17463  44.973   5.379   0.734
45039W        W17464  26.758   6.399  12.582
45040W        W17465  38.989   6.434  11.957
45041W        W17466  41.945  34.251  12.465
45042W        W17467  25.203  22.585  12.445
45043W        W17468  31.922  31.541   3.443
45044W        W17469  38.495  40.076   3.275
45045W        W17470  15.177  12.190  14.989
45046W        W17471   1.379  35.413  12.051
45047W        W17472  36.910  14.680   2.539
45048W        W17473   0.992  21.052  10.752
45049W        W17474   4.581  23.603  13.805
45050W        W17475  43.493  33.879  14.823
45051W        W17476   0.798   2.618  14.958
45052W        W17477  37.061  42.522  14.327
45053W        W17478  19.044   6.378  11.266
45054W        W17479   7.131  23.781   3.407
45055W        W17480  19.193  18.722  12.871
45056W        W17481  13.874  44.425  11.420
45057W        W17482  42.093  30.790  11.140
45058W        W17483  20.142   8.192  13.876
45059W        W17484  21.588  28.677  13.323
45060W        W17485  43.630  17.705  13.587
45061W        W17486  32.140  34.187   1.891
45062W        W17487   5.569  34.354   3.274
45063W        W17488  14.742  26.131   2.333
45064W        W17489  35.570   4.653  14.024
45065W        W17490  29.173  20.361   4.297
45066W        W17491   2.987  36.964  11.073
45067W        W17492  38.559  22.385   0.886
45068W        W17493  14.661  17.106  11.540
45069W        W17494  13.990   2.738   4.101
45070W        W17495   0.456   9.227   4.038
45071W        W17496  21.199  24.921   3.086
45072W        W17497  11.892   1.341   0.357
45073W        W17498  23.506   9.825  11.427
45074W        W17499   8.244  10.228  14.734
45075W        W17500  18.584  32.176   2.748
45076W        W17501   6.676  10.809   0.858
45077W        W17502  30.909   4.789   2.415
45078W        W17503  29.604  40.520   3.654
45079W        W17504  27.217  13.159   4.542
45080W        W17505  29.119  12.376   3.217
45081W        W17506  24.651  36.728  14.848
45082W        W17507  39.393  30.659  11.195
45083W        W17508  14.666   7.180   0.276
45084W        W17509  21.492  12.760   1.320
45085W        W17510   7.300   7.149   4.157
45086W        W17511  16.535  23.085  10.915
45087W        W17512  34.451   5.707   3.817
45088W        W17513  38.730   1.318  10.415
45089W        W17514   9.464   2.859  13.947
45090W        W17515  12.915  44.721   3.697
45091W        W17516  41.746  44.408   3.212
45092W        W17517   6.767  20.739  12.040
45093W        W17518  39.991  14.047   3.236
45094W        W17519  21.144  34.151   1.850
45095W        W17520  12.815  44.323  12.972
45096W        W17521   5.211  15.333  14.923
45097W        W17522  24.304  17.501   2.336
45098W        W17523  32.718  38.301  10.712
45099W        W17524  31.402   2.272  13.000
45100W        W17525  22.776  28.343   0.882
45101W        W17526  40.444  36.274   0.428
45102W        W17527  43.432  41.996  12.133
45103W        W17528  17.361  26.530   3.334
45104W        W17529  30.863  10.432  11.584
45105W        W17530   8.754  29.148   4.509
45106W        W17531  18.168  22.828  12.985
45107W        W17532  38.774  44.690   0.005
45108W        W17533  25.953  36.882  13.908
45109W        W17534  34.005  41.538   1.691
45110W        W17535  18.269   1.695   0.317
45111W        W17536  36.393  12.693   1.442
45112W        W17537   7.679   9.280  13.873
45113W        W17538  32.601  14.503  12.834
45114W        W17539   0.027   3.432   1.836
45115W        W17540  36.260  13.887   4.133
45116W        W17541  30.971  28.788   2.102
45117W        W17542  42.818  36.935  13.884
45118W        W17543  13.881  43.363   0.029
45119W        W17544   3.450   3.707   4.562
45120W        W17545  36.759  39.539   0.459
45121W        W17546  23.220  11.668   4.139
45122W        W17547  38.303  27.401  11.096
45123W        W17548  14.491   2.535   2.420
45124W        W17549  15.372  26.218  10.507
45125W        W17550  33.627  12.519  13.782
45126W        W17551  24.584  11.974   5.376
45127W        W17552  18.960  25.573  12.507
45128W        W17553  21.128   2.476  14.717
45129W        W17554   1.202  42.721  11.256
45130W        W17555   4.225  44.428  12.809
45131W        W17556   8.133   6.226  12.141
45132W        W17557  34.381  44.774  14.315
45133W        W17558  23.282  23.414   1.309
45134W        W17559  28.552  29.180  10.951
45135W        W17560   5.793  16.878  11.847
45136W        W17561  10.291  14.169   1.854
45137W        W17562   3.482  15.205   3.439
45138W        W17563  22.042  24.141   1.815
45139W        W17564   0.324  32.384   3.743
45140W        W17565  31.696  12.398  10.676
45141W        W17566  13.474  14.638  11.043
45142W        W17567  44.762  33.073   4.975
45143W        W17568  35.178  44.731  14.443
45144W        W17569  19.977   3.924   4.285
45145W        W17570  38.511   3.790   0.372
45146W        W17571   8.886  10.213  10.002
45147W        W17572  16.149  44.738  11.113
45148W        W17573  11.399  42.366  14.275
45149W        W17574  21.095  42.828  14.454
45150W        W17575  40.129  17.166   2.276
45151W        W17576  31.152  37.980   0.156
45152W        W17577   4.422   2.662   1.263
45153W        W17578  24.517  44.714   4.875
45154W        W17579  20.746  42.834  11.502
45155W        W17580   6.431  18.707   0.945
45156W        W17581   1.738  24.450   4.224
45157W        W17582  16.550  27.996   1.245
45158W        W17583   0.919  31.231   3.883
45159W        W17584  10.692  15.151   1.737
45160W        W17585  34.378   2.788   1.814
45161W        W17586   0.687  40.839  12.025
45162W        W17587  21.847  20.777   0.863
45163W        W17588  27.440  15.031  11.812
45164W        W17589  20.810   4.207  11.403
45165W        W17590   3.912  28.236   1.847
45166W        W17591  40.131   6.187   2.673
45167W        W17592  42.922   2.849   0.511
45168W        W17593  18.041  24.512   1.516
45169W        W17594  17.435  15.361   1.195
45170W        W17595  17.280  16.104   4.093
45171W        W17596  41.837  25.719   4.129
45172W        W17597  40.324  25.585  12.848
45173W        W17598  20.127  20.813   4.134
45174W        W17599  29.700  38.454  13.548
45175W        W17600  18.780  17.347   3.329
45176W        W17601  34.185  44.514  13.433
45177W        W17602  34.096  14.612   1.005
45178W        W17603   2.298  42.819  12.007
45179W        W17604  28.973  11.827   1.799
45180W        W17605  15.152   7.421  10.974
45181W        W17606  13.894  38.996  12.477
45182W        W17607  14.884  10.705  12.089
45183W        W17608  16.257  37.865   3.775
45184W        W17609  43.248   7.767  12.983
45185W        W17610  36.658  26.296   4.908
45186W        W17611  25.118  11.082  11.123
45187W        W17612  15.684  19.735  13.838
45188W        W17613   4.295  40.334  14.960
45189W        W17614  13.032  10.373  11.911
45190W        W17615  26.212  38.083  13.514
45191W        W17616  20.136  39.566  13.333
45192W        W17617  32.813   7.779   0.097
45193W        W17618  16.839  31.864  13.102
45194W        W17619  25.219   1.873   3.168
45195W        W17620  18.836  11.007  14.099
45196W        W17621  30.683  18.942  11.144
45197W        W17622  43.591  34.418   1.398
45198W        W17623   7.252  24.133  14.332
45199W        W17624  39.045  24.075   1.214
45200W        W17625   5.104  40.832  14.819
45201W        W17626  39.476  27.279  12.486
45202W        W17627  35.865  41.828   2.696
45203W        W17628  32.883   7.514   1.386
45204W        W17629  30.047   5.118  11.495
45205W        W17630  44.133  19.730  12.060
45206W        W17631  12.616  16.727   4.630
45207W        W17632  29.092  25.145  10.856
45208W        W17633  21.109   0.360  11.253
45209W        W17634  42.403  14.793   1.316
45210W        W17635   3.926  20.692   2.928
45211W        W17636   0.301  41.063   3.237
45212W        W17637  38.003   6.941  13.735
45213W        W17638   8.737  33.464  13.240
45214W        W17639  24.515  43.475  12.168
45215W        W17640  43.489  30.696  11.575
45216W        W17641  15.711  37.511   5.078
45217W        W17642  22.307   7.756   0.822
45218W        W17643  33.318  19.681   5.017
45219W        W17644  13.806   7.487   2.841
45220W        W17645  20.667  18.078  14.141
45221W        W17646  28.339  26.496  13.284
45222W        W17647  32.489   4.441   3.939
45223W        W17648   7.488  15.077  12.699
45224W        W17649  13.211  20.535   3.107
45225W        W17650  32.948  41.924  10.232
45226W        W17651  16.996  29.522  10.761
45227W        W17652  29.618  36.309  12.138
45228W        W17653  44.424  39.965   2.463
45229W        W17654  18.500   1.072   3.060
45230W        W17655  38.187  13.035   5.154
45231W        W17656   6.885  22.549   2.134
45232W        W17657  14.363  19.299  12.780
45233W        W17658  30.837  11.686  11.197
45234W        W17659  17.741  39.425   0.456
45235W        W17660  23.077  37.302  11.474
45236W        W17661  13.238  31.675  10.909
45237W        W17662  18.098  16.429   3.787
45238W        W17663  20.755   7.122  12.122
45239W        W17664  15.600  15.757  13.063
45240W        W17665  35.126  23.854   1.546
45241W        W17666  12.194  17.852   2.791
45242W        W17667  41.236   9.454   4.044
45243W        W17668  42.540   1.222   4.944
45244W        W17669  41.798  38.284  10.629
45245W        W17670  28.418  21.416   9.818
45246W        W17671  21.353  11.369   3.389
45247W        W17672   6.351  30.967  12.356
45248W        W17673  42.516  39.131   3.264
45249W        W17674  32.452  37.715  14.840
45250W        W17675  30.145  41.345   2.352
45251W        W17676  43.519  44.308   2.230
45252W        W17677  20.017  22.413  14.784
45253W        W17678  22.974   4.987  12.186
45254W        W17679  44.726  22.767  11.523
45255W        W17680  33.140   2.399  10.758
45256W        W17681  11.298  41.024   2.627
45257W        W17682  31.651  24.150   2.605
45258W        W17683  42.906  33.050  11.555
45259W        W17684  32.973  41.497   2.947
45260W        W17685  19.580  37.944  13.746
45261W        W17686  30.289   2.919  10.497
45262W        W17687  43.212  33.126   4.654
45263W        W17688  26.590  27.152  13.165
45264W        W17689  24.108   6.358  13.461
45265W        W17690  35.247  43.571   2.220
45266W        W17691   4.168  34.983  13.046
45267W        W17692  34.661  17.597  11.148
45268W        W17693  19.652   1.871  10.746
45269W        W17694   8.118  27.924  13.937
45270W        W17695   0.553   9.769  11.765
45271W        W17696   4.686   8.524  13.969
45272W        W17697  23.123  23.553  11.493
45273W        W17698  44.949  25.599   3.736
45274W        W17699   0.249  23.842  11.127
45275W        W17700  18.055  10.162   2.179
45276W        W17701  28.476   2.763  14.057
45277W        W17702   5.198  38.806  11.136
45278W        W17703  23.703   9.116  13.376
45279W        W17704  35.344  11.626  14.507
45280W        W17705  33.039  33.475   1.381
45281W        W17706   3.210   5.250  13.444
45282W        W17707  24.446  34.018  10.627
45283W        W17708  15.301   3.531   0.536
45284W        W17709  43.634  14.676  13.879
45285W        W17710  15.796  26.119   2.415
45286W        W17711  32.926  19.446  14.708
45287W        W17712  40.814   6.008   2.748
45288W        W17713  18.171  26.126  11.714
45289W        W17714  39.970  41.265   3.140
45290W        W17715   3.225  20.937   3.507
45291W        W17716   3.076  29.538  14.502
45292W        W17717  29.844  44.968  13.959
45293W        W17718   5.760  39.252   3.720
45294W        W17719   0.542  17.541   1.340
45295W        W17720  16.581   3.478   1.673
45296W        W17721  40.104  40.479   0.926
45297W        W17722  44.478   2.648   0.477
45298W        W17723  33.372   6.764   1.079
45299W        W17724  19.282   2.933  11.052
45300W        W17725  39.371   4.747   3.147
45301W        W17726  13.279   2.853   1.668
45302W        W17727   5.177  27.709  13.889
45303W        W17728  41.947  41.500   2.337
45304W        W17729   7.814  18.176   3.624
45305W        W17730  32.586  28.939   0.375
45306W        W17731  33.158  44.855  14.867
45307W        W17732  30.189  33.326  13.019
45308W        W17733  25.653  41.358   0.235
45309W        W17734  29.168  29.928   2.751
45310W        W17735  36.882  41.810  11.811
45311W        W17736  10.933  23.191   0.314
45312W        W17737  37.636  18.851  13.365
45313W        W17738  28.230  44.009  13.233
45314W        W17739  30.647  14.688   2.369
45315W        W17740  32.560  15.187   3.007
45316W        W17741   6.236   1.137  14.375
45317W        W17742  44.209   4.949  11.622
45318W        W17743  20.749  42.548   4.567
45319W        W17744  20.591  30.123  10.505
45320W        W17745   2.282  29.581  14.833
45321W        W17746  11.855  41.895   0.501
45322W        W17747  24.435  26.145  12.167
45323W        W17748   3.540  40.246   3.566
45324W        W17749  33.916  42.960  11.774
45325W        W17750  42.827  39.858   4.587
45326W        W17751   9.721  15.812   0.495
45327W        W17752  20.072   1.901  13.987
45328W        W17753  26.924  16.320  12.102
45329W        W17754  14.497   8.945   2.881
45330W        W17755  38.158  19.693   3.254
45331W        W17756  26.022  23.358   3.357
45332W        W17757  25.521  30.487  11.025
45333W        W17758  38.577  31.178  12.475
45334W        W17759  27.272  39.039   2.269
45335W        W17760  22.159  44.774  11.581
45336W        W17761  14.927  14.437  12.027
45337W        W17762  32.300  12.185  13.425
45338W        W17763  43.604  28.708  14.874
45339W        W17764  15.302  23.523   0.864
45340W        W17765  14.372  20.966   5.040
45341W        W17766  41.049  32.440   4.568
45342W        W17767  19.649  30.114   3.737
45343W        W17768  16.285  37.805  11.505
45344W        W17769  29.289  18.708   3.893
45345W        W17770  31.982  35.410  12.662
45346W        W17771  43.407  38.352   3.801
45347W        W17772  42.268  42.101   3.352
45348W        W17773  38.960   3.317   1.011
45349W        W17774  18.127  35.894   1.284
45350W        W17775  24.886  24.867  11.211
45351W        W17776  12.759  13.860  14.388
45352W        W17777  38.099   1.282  13.338
45353W        W17778   0.064   8.380  12.067
45354W        W17779  17.504  37.139   3.675
45355W        W17780  19.699  44.022   0.276
45356W        W17781  19.155  31.317  11.253
45357W        W17782  44.836   2.092  11.527
45358W        W17783  12.849  42.286  12.299
45359W        W17784  21.444  41.338  10.688
45360W        W17785  18.297   8.152   2.770
45361W        W17786  27.447  40.223  14.773
45362W        W17787   9.364  34.867   0.317
45363W        W17788  10.864  31.989   2.765
45364W        W17789  40.389  43.580  11.369
45365W        W17790  32.887   8.508  13.029
45366W        W17791  29.509  24.481   9.655
45367W        W17792   5.184  15.636  12.991
45368W        W17793  20.534  32.410  13.492
45369W        W17794  42.314   4.445  11.530
45370W        W17795  31.545  37.079   2.901
45371W        W17796  33.966  33.116   4.201
45372W        W17797   1.268  10.443   0.891
45373W        W17798  19.548  20.968   1.821
45374W        W17799  31.090  28.453  11.135
45375W        W17800  15.276  19.138   0.278
45376W        W17801   7.729  16.663   4.575
45377W        W17802  26.542  35.628   1.870
45378W        W17803  11.851  13.877   5.084
45379W        W17804   3.912   5.294   4.509
45380W        W17805  37.382   5.138  12.652
45381W        W17806   3.423  40.427  14.308
45382W        W17807  28.251  33.955   3.807
45383W        W17808  28.086   8.819   4.734
45384W        W17809  21.534  14.676   0.652
45385W        W17810  24.933  11.108   1.436
45386W        W17811  18.843  41.099   3.267
45387W        W17812  35.170   7.136  10.257
45388W        W17813  24.595  23.533  11.861
45389W        W17814  24.646   1.051  13.079
45390W        W17815  35.370  36.597   2.239
45391W        W17816  40.077   6.178  12.070
45392W        W17817  29.169  21.013  14.264
45393W        W17818  17.604   2.434   4.675
45394W        W17819  10.462   7.623   3.485
45395W        W17820  33.995  35.869   4.950
45396W        W17821  40.081  29.684  11.166
45397W        W17822  43.519   7.188  12.003
45398W        W17823  41.973  17.190  13.980
45399W        W17824  11.472  15.833  10.700
45400W        W17825  37.084   6.508  11.502
45401W        W17826  28.191  32.371  13.916
45402W        W17827  21.516  14.074   3.275
45403W        W17828   8.683  29.676  10.698
45404W        W17829  34.593  12.264   0.353
45405W        W17830   0.500   7.699   0.774
45406W        W17831  25.543  10.497   2.430
45407W        W17832  14.758   6.898  12.529
45408W        W17833  24.298  14.678   2.116
45409W        W17834  12.120   9.877   4.552
45410W        W17835  41.086  15.901  12.409
45411W        W17836   8.628  40.557   3.605
45412W        W17837   7.339  32.997   3.862
45413W        W17838  33.525  18.246  13.765
45414W        W17839   0.842  16.508  14.006
45415W        W17840  12.521  34.037  12.161
45416W        W17841  41.326   1.015  13.481
45417W        W17842   1.638  26.836   1.482
45418W        W17843  43.775  15.544  11.484
45419W        W17844   1.057  40.010  13.295
45420W        W17845   0.883  27.548  11.189
45421W        W17846  30.183  44.222   0.026
45422W        W17847  38.073  35.073  12.504
45423W        W17848  10.901  18.345  13.960
45424W        W17849  37.899   1.949   0.190
45425W        W17850  30.883  36.082  12.091
45426W        W17851  43.371  20.824   1.694
45427W        W17852   5.401  15.154  10.612
45428W        W17853  15.737  23.058  13.293
45429W        W17854  24.131  20.155  13.981
45430W        W17855  25.554  27.328   0.205
45431W        W17856  40.620  31.688   0.314
45432W        W17857   6.912  37.216  14.344
45433W        W17858   5.731   2.213   2.788
45434W        W17859  43.194   9.822  14.834
45435W        W17860  38.752  10.723   3.316
45436W        W17861  29.715  15.156   1.663
45437W        W17862  31.867  25.951   3.152
45438W        W17863   1.123  11.805  12.030
45439W        W17864  44.533  23.155   3.866
45440W        W17865  23.672  38.832   0.772
45441W        W17866  34.089  15.083   1.231
45442W        W17867  35.078  36.149  11.510
45443W        W17868  43.341  29.658  12.401
45444W        W17869  10.567  33.025  11.720
45445W        W17870  20.209  42.164  11.968
45446W        W17871  19.553   8.231  14.247
45447W        W17872   7.116  26.896  13.689
45448W        W17873   2.671  22.107  12.053
45449W        W17874   5.293  32.085   0.805
45450W        W17875  10.448  38.520  10.369
45451W        W17876  22.080  12.768   4.651
45452W        W17877  32.421  19.217   1.354
45453W        W17878  34.029  29.027  11.474
45454W        W17879  37.752  16.763  12.253
45455W        W17880  25.163   1.428   0.253
45456W        W17881  29.362   6.294   2.681
45457W        W17882  12.782  22.869   0.351
45458W        W17883  37.095  37.272   3.630
45459W        W17884   5.824  39.020  11.104
45460W        W17885  13.527  22.599  11.396
45461W        W17886  16.795  42.341  13.034
45462W        W17887  37.942  40.893  14.259
45463W        W17888  23.668  15.814  11.859
45464W        W17889  33.066  32.494  10.991
45465W        W17890   2.660  43.841  12.301
45466W        W17891  22.013  42.961   4.354
45467W        W17892  40.059  20.055   0.827
45468W        W17893   0.489  39.374  11.567
45469W        W17894  32.140  25.698   2.301
45470W        W17895   1.830  44.799   1.248
45471W        W17896  37.844  11.658  11.627
45472W        W17897  31.479  20.321   2.164
45473W        W17898  21.286  34.314   0.963
45474W        W17899  30.530  30.017  14.717
45475W        W17900  22.990  22.004   1.504
45476W        W17901   6.675  31.316   4.575
45477W        W17902  11.395  29.068  13.882
45478W        W17903  14.295   4.228   3.056
45479W        W17904  43.063  44.144  12.458
45480W        W17905  19.976  10.077   4.162
45481W        W17906  16.023  38.612   2.677
45482W        W17907   7.141   9.368  14.712
45483W        W17908   9.145  13.916   0.546
45484W        W17909  37.415  19.689   1.838
45485W        W17910  26.653   3.969   4.915
45486W        W17911  17.295  22.870   4.165
45487W        W17912   6.220  37.892  12.982
45488W        W17913   2.393  43.283   3.302
45489W        W17914  25.048  21.444  12.546
45490W        W17915  16.341  30.330   2.938
45491W        W17916  11.673  36.447  13.647
45492W        W17917  13.203   6.651   1.712
45493W        W17918  29.444  11.260   0.414
45494W        W17919  19.535   4.830   1.298
45495W        W17920   5.785  28.518   2.355
45496W        W17921  34.915  42.849  12.150
45497W        W17922  16.368  31.264   9.432
45498W        W17923  29.077  20.030  12.355
45499W        W17924  41.477   8.394   4.178
45500W        W17925  36.851  20.688   1.306
45501W        W17926  22.474  43.938  14.259
45502W        W17927  19.082   1.920   3.685
45503W        W17928  31.258   8.776  14.322
45504W        W17929  18.204  15.079   4.154
45505W        W17930  23.091  40.058   2.913
45506W        W17931  42.810  36.893  14.797
45507W        W17932  21.038  14.171  11.968
45508W        W17933  11.301   4.194   4.608
45509W        W17934  40.069  30.355  13.418
45510W        W17935  40.810   6.778   0.401
45511W        W17936  17.443  15.232  10.889
45512W        W17937  33.264  31.539   1.944
45513W        W17938  34.849  33.911  11.290
45514W        W17939  23.087  18.200  10.587
45515W        W17940  36.380  12.622  10.738
45516W        W17941  42.350  23.248  11.231
45517W        W17942   0.888  10.122  12.657
45518W        W17943  18.775   9.846  11.119
45519W        W17944  38.858   6.470   4.105
45520W        W17945   3.727  13.102   1.221
45521W        W17946   8.406  23.925   1.305
45522W        W17947   4.894   6.025   1.230
45523W        W17948   8.719  43.212   1.354
45524W        W17949  26.157  20.338  10.717
45525W        W17950  41.485  11.696  13.753
45526W        W17951  20.486  31.446   3.374
45527W        W17952  28.220  37.801  12.818
45528W        W17953  20.172  29.771   1.898
45529W        W17954  36.772  31.639  12.865
45530W        W17955  26.632  18.772   5.000
45531W        W17956  26.500  12.773   4.153
45532W        W17957  28.395  11.223   4.041
45533W        W17958  33.005  13.243   2.221
45534W        W17959  19.595  18.556  12.059
45535W        W17960   1.357  43.558   1.808
45536W        W17961  44.780  19.808  11.584
45537W        W17962  23.461  12.540   4.004
45538W        W17963  24.931   0.804   2.883
45539W        W17964  11.345   2.778  14.412
45540W        W17965  12.532  12.755  12.164
45541W        W17966  17.238  38.992   2.680
45542W        W17967  17.033  43.705   0.763
45543W        W17968  12.200  23.973  11.498
45544W        W17969   7.444  23.828   0.425
45545W        W17970  40.225   8.706  13.821
45546W        W17971  26.448  22.784   0.786
45547W        W17972  36.360  25.712  11.661
45548W        W17973   3.967  26.375  12.505
45549W        W17974  28.058   1.292   4.222
45550W        W17975  26.127  32.255  11.687
45551W        W17976  25.921  34.528   0.008
45552W        W17977  19.166  32.879  11.084
45553W        W17978   2.790  14.790   3.954
45554W        W17979  38.485  26.426  11.137
45555W        W17980  32.447  21.241   2.159
45556W        W17981  44.243  18.756   1.858
45557W        W17982  18.071  41.752   1.240
45558W        W17983  25.395  36.849   3.194
45559W        W17984  36.510  29.635  13.075
45560W        W17985  40.279  29.886   0.784
45561W        W17986   3.729  11.683  13.919
45562W        W17987  32.092  13.795   0.189
45563W        W17988  22.676   5.780   3.730
45564W        W17989  21.210  25.526   4.812
45565W        W17990  37.951  24.967   3.618
45566W        W17991   9.683   8.692  11.923
45567W        W17992   3.273  38.603   2.153
45568W        W17993  42.036  26.569  10.701
45569W        W17994  43.279  12.102   4.632
45570W        W17995  19.779  31.178  10.765
45571W        W17996  19.369  39.558   2.625
45572W        W17997  15.782   4.966   3.848
45573W        W17998   6.119  37.944  13.503
45574W        W17999  37.713   9.527  10.098
45575W        W18000  16.658   4.480   0.771
45576W        W18001  29.461  11.456  12.157
45577W        W18002   8.753  43.716   1.428
45578W        W18003  39.352  22.603   0.275
45579W        W18004  29.387  13.768  10.773
45580W        W18005  18.116  28.667  13.638
45581W        W18006   6.643  37.929   3.864
45582W        W18007   0.276  34.143  10.187
45583W        W18008  27.226  25.177   2.606
45584W        W18009  12.531   3.555   9.699
45585W        W18010  19.739  17.820  10.628
45586W        W18011  29.936   8.647  13.321
45587W        W18012  38.451  38.927  10.683
45588W        W18013  24.155  26.517   2.371
45589W        W18014  19.271  26.456   1.846
45590W        W18015  19.620  20.145  10.532
45591W        W18016  19.553  42.078  11.978
45592W        W18017  43.278  26.998  13.012
45593W        W18018   5.787  14.810  10.552
45594W        W18019  41.438  34.353  14.872
45595W        W18020   8.523  12.066  10.986
45596W        W18021  14.230  36.384   0.542
45597W        W18022  35.910   0.195  14.525
45598W        W18023   1.986  10.463   3.127
45599W        W18024  14.124  19.219   1.835
45600W        W18025  23.699  23.152   1.442
45601W        W18026   6.411  37.060  11.149
45602W        W18027  22.909   4.868  11.083
45603W        W18028  31.160  27.334   1.217
45604W        W18029  11.588   2.881  11.957
45605W        W18030   2.937   4.843  13.303
45606W        W18031  24.115  36.837  10.726
45607W        W18032  33.929  23.653  12.330
45608W        W18033  43.898  33.095  14.680
45609W        W18034  36.658   7.511   2.752
45610W        W18035  14.319   4.427   0.642
45611W        W18036  35.133  26.573   2.606
45612W        W18037  40.872  27.614  13.539
45613W        W18038  20.815  12.672   3.052
45614W        W18039  23.057  25.120  13.445
45615W        W18040   9.285  16.607   1.624
45616W        W18041  37.453  19.885  14.760
45617W        W18042  22.476  13.346  11.028
45618W        W18043  28.030   6.563   9.828
45619W        W18044  41.862  17.032   4.050
45620W        W18045   5.341  13.788  11.985
45621W        W18046   5.663  40.390   1.238
45622W        W18047  15.036  25.550   2.881
45623W        W18048  27.532  15.736   1.266
45624W        W18049   5.837  23.661  11.630
45625W        W18050  36.283  27.889  12.160
45626W        W18051  44.815  26.535   0.514
45627W        W18052  29.193  39.565   3.581
45628W        W18053  36.520   8.787   1.169
45629W        W18054  19.289  21.156   0.921
45630W        W18055   1.441  40.086   4.737
45631W        W18056  16.314  42.145  13.454
45632W        W18057  24.512   9.329   0.334
45633W        W18058  44.762   3.605  14.440
45634W        W18059  30.813  23.779   5.257
45635W        W18060   7.724  10.664  12.087
45636W        W18061   9.613  37.152  11.700
45637W        W18062  38.373  29.731   1.339
45638W        W18063  42.836  34.771  10.326
45639W        W18064  20.702   3.308  10.467
45640W        W18065  12.877  18.534   4.347
45641W        W18066  14.804  39.867  11.836
45642W        W18067  21.516   5.451  11.997
45643W        W18068  29.418   1.593   5.012
45644W        W18069  24.927  43.968   0.560
45645W        W18070   8.583  12.139  12.883
45646W        W18071  33.058  15.478   0.755
45647W        W18072  41.403  28.201   1.341
45648W        W18073  21.480  16.092   4.619
45649W        W18074   5.467  15.655   3.797
45650W        W18075  15.817  44.149  13.717
45651W        W18076  42.042  33.838   4.487
45652W        W18077  41.746  16.687  10.220
45653W        W18078   8.819  16.339   1.741
45654W        W18079  24.094  27.747  14.476
45655W        W18080  24.010  43.194   1.229
45656W        W18081  43.513   0.812  13.165
45657W        W18082  26.024  23.840   4.518
45658W        W18083  21.668  33.087  14.423
45659W        W18084   9.408  34.063   1.754
45660W        W18085  39.972  14.270  13.896
45661W        W18086   2.740  38.094  13.738
45662W        W18087   4.852  10.344   0.627
45663W        W18088  13.925  15.376  12.577
45664W        W18089   0.162  31.042  11.634
45665W        W18090  21.487   9.334  10.530
45666W        W18091   5.947  27.682  12.475
45667W        W18092  43.707  38.360   4.225
45668W        W18093  29.208  32.187   4.656
45669W        W18094  16.826  35.757  12.368
45670W        W18095  29.002  26.966  13.614
45671W        W18096  24.738  40.467   4.407
45672W        W18097  38.849  22.720   2.401
45673W        W18098  25.525  27.757  13.292
45674W        W18099  37.879  16.242  10.603
45675W        W18100  18.958  40.085  14.922
45676W        W18101   3.601  29.384  10.260
45677W        W18102  16.083   4.806  12.493
45678W        W18103  39.821  40.962   1.758
45679W        W18104  17.679  36.781  14.427
45680W        W18105  33.575  13.629  11.359
45681W        W18106   6.128  41.543  10.722
45682W        W18107  14.794  34.863  12.416
45683W        W18108  31.028  10.651  12.115
45684W        W18109  38.464  37.991   1.350
45685W        W18110   8.510  40.410  12.257
45686W        W18111  39.589  35.010  11.180
45687W        W18112  27.582  17.635  12.955
45688W        W18113  26.590  35.017   4.613
45689W        W18114  22.332  25.613   2.701
45690W        W18115  31.613  10.097  14.551
45691W        W18116  30.914  40.912  10.035
45692W        W18117  19.402  41.907   4.714
45693W        W18118  39.899  14.298  11.792
45694W        W18119  38.809   4.802  10.787
45695W        W18120  43.935   9.950   9.997
45696W        W18121   5.697  15.354   3.434
45697W        W18122  37.421  40.935   2.981
45698W        W18123  25.618  42.535   4.714
45699W        W18124  31.985   0.943  11.874
45700W        W18125  12.359  18.752  12.930
45701W        W18126  30.564  41.305   3.189
45702W        W18127  44.005  38.981  14.926
45703W        W18128  22.009   5.538  12.538
45704W        W18129   7.892  13.701   0.183
45705W        W18130  22.657  39.598   4.297
45706W        W18131  31.484  23.170   4.169
45707W        W18132  18.879   2.840  12.458
45708W        W18133  23.779  29.048   2.061
45709W        W18134  42.846  36.595   3.578
45710W        W18135  13.589   0.398   2.659
45711W        W18136  10.373   0.677   2.697
45712W        W18137  20.181  42.971  13.125
45713W        W18138  11.634   7.607   3.190
45714W        W18139   1.077  10.395   0.014
45715W        W18140  38.049   4.713  11.216
45716W        W18141  43.436   9.964   2.837
45717W        W18142  25.142  32.022   1.825
45718W        W18143  32.337  15.753  11.930
45719W        W18144  11.270  39.919   3.169
45720W        W18145  21.941  17.038   3.269
45721W        W18146  24.403  31.004   1.911
45722W        W18147   0.357  33.369   3.685
45723W        W18148  24.177  30.512   3.135
45724W        W18149  37.952  28.360   2.720
45725W        W18150   8.648  16.791   9.941
45726W        W18151   9.614  25.067  11.157
45727W        W18152  19.732   0.999  11.044
45728W        W18153  19.236   9.828  10.892
45729W        W18154  18.300  43.419  12.486
45730W        W18155   5.776   4.469   0.366
45731W        W18156   4.840  16.081   2.105
45732W        W18157  36.445   8.226   1.203
45733W        W18158  10.044  14.889   1.395
45734W        W18159   8.997  18.716  11.617
45735W        W18160   3.318  19.802  14.179
45736W        W18161  38.727   0.343  13.850
45737W        W18162  23.105   2.062   3.053
45738W        W18163   6.099  26.731  10.634
45739W        W18164  17.487  10.242  10.105
45740W        W18165  44.500   9.639   0.261
45741W        W18166  14.691  31.001  11.111
45742W        W18167  21.246  40.960   0.495
45743W        W18168  20.649  39.750  10.698
45744W        W18169  27.215  24.991  10.579
45745W        W18170  25.060  24.473   3.168
45746W        W18171  10.596  29.081  10.261
45747W        W18172  42.504  37.953   1.352
45748W        W18173  22.759  33.701  14.992
45749W        W18174   0.678  38.650   1.284
45750W        W18175  17.458  22.802   1.872
45751W        W18176  17.678  32.284   5.464
45752W        W18177  38.953  42.826  12.565
45753W        W18178  23.118  24.780  12.101
45754W        W18179   0.723  39.562   3.292
45755W        W18180  42.689  39.660  11.567
45756W        W18181  30.994   0.197   2.920
45757W        W18182  15.615   4.367   1.934
45758W        W18183  30.494  30.160   0.663
45759W        W18184   0.343   4.702  11.940
45760W        W18185  22.212   1.739  11.241
45761W        W18186  21.644  24.418  13.044
45762W        W18187  40.940  23.145  11.632
45763W        W18188   5.205   7.800  11.091
45764W        W18189  10.687  21.886   3.106
45765W        W18190  21.210  42.294  14.495
45766W        W18191  25.592   9.683   1.696
45767W        W18192  40.339  17.990   4.598
45768W        W18193  27.647  19.269   4.101
45769W        W18194  30.944   8.365  14.376
45770W        W18195  37.451  43.812   0.790
45771W        W18196  30.634   8.196  13.965
45772W        W18197  10.230  22.829  12.000
45773W        W18198   4.326  42.811  13.871
45774W        W18199  34.371  31.446   0.709
45775W        W18200  14.631  35.202  13.578
45776W        W18201  28.892  22.133   3.729
45777W        W18202  41.453  35.904   1.470
45778W        W18203  38.517   4.654  11.597
45779W        W18204  31.095   5.369  12.125
45780W        W18205  44.775  39.334  14.483
45781W        W18206  32.569  10.150   2.750
45782W        W18207  35.354  27.488   3.665
45783W        W18208  31.942  27.951  11.588
45784W        W18209  29.116  27.287   4.032
45785W        W18210  32.715  29.999  14.287
45786W        W18211  37.154  13.078   4.708
45787W        W18212  24.184  36.535   3.839
45788W        W18213  36.601  27.599  14.974
45789W        W18214  31.561   8.616  12.972
45790W        W18215  24.449   5.416   0.017
45791W        W18216  11.052  17.735  13.369
45792W        W18217  32.664  23.068   3.491
45793W        W18218  14.529  36.469   4.285
45794W        W18219   3.225  16.260  14.944
45795W        W18220   6.365  17.667   1.654
45796W        W18221  43.745  23.431   2.392
45797W        W18222   4.475   1.862   0.252
45798W        W18223  18.309   0.222   1.463
45799W        W18224  37.595   1.377   3.654
45800W        W18225  20.569  39.286  12.060
45801W        W18226  41.559  34.818  11.105
45802W        W18227  33.139  24.867  10.390
45803W        W18228  39.401   8.003  13.400
45804W        W18229  24.492   4.044  10.770
45805W        W18230  18.889  31.943   3.523
45806W        W18231  39.242   1.639  12.922
45807W        W18232  21.504  39.306  13.001
45808W        W18233   3.246   4.384  10.644
45809W        W18234  43.188  39.561  14.745
45810W        W18235   5.031  17.888   2.321
45811W        W18236  31.136  29.041   2.963
45812W        W18237  43.568  25.808   3.531
45813W        W18238   5.777  12.849   1.646
45814W        W18239  32.617  31.861  11.471
45815W        W18240  44.005  20.135  12.355
45816W        W18241  12.326   4.948  10.649
45817W        W18242  15.284  22.109  10.617
45818W        W18243  34.499   2.690  13.016
45819W        W18244   2.875  39.417   4.610
45820W        W18245  44.033  16.271  11.233
45821W        W18246  28.974  12.055  12.494
45822W        W18247   8.809   9.612   4.481
45823W        W18248   1.316   6.587  12.493
45824W        W18249   7.248   8.146   1.205
45825W        W18250   8.853   9.447  10.682
45826W        W18251  25.107   7.181   0.183
45827W        W18252  19.367  15.373   4.158
45828W        W18253  32.519  22.616   3.711
45829W        W18254  26.064   7.636  12.101
45830W        W18255  43.348  22.424  11.469
45831W        W18256  19.959  31.021   0.457
45832W        W18257  22.215  11.241   0.739
45833W        W18258  19.698  21.068   2.302
45834W        W18259  32.682  40.989  11.133
45835W        W18260  32.180   9.733  10.554
45836W        W18261  11.753  14.267   1.216
45837W        W18262  11.399   9.767  11.542
45838W        W18263   3.268   1.906  10.638
45839W        W18264  11.894   5.268   4.553
45840W        W18265   4.640  24.523   0.345
45841W        W18266  16.700  12.888   2.379
45842W        W18267   5.605  16.357  12.052
45843W        W18268  10.353  19.213   3.374
45844W        W18269  11.854  12.124  13.425
45845W        W18270  21.008   9.761  11.259
45846W        W18271  43.105  15.807   0.110
45847W        W18272  42.916   1.204   1.131
45848W        W18273  13.185  34.929   4.572
45849W        W18274  34.317  28.012  13.455
45850W        W18275  16.079  21.589   3.641
45851W        W18276  40.809  16.094  11.130
45852W        W18277  30.039  29.570   4.888
45853W        W18278  37.998  41.774  10.635
45854W        W18279   8.749  20.813  12.095
45855W        W18280  30.408  20.756  13.013
45856W        W18281   3.439  18.062  11.210
45857W        W18282  31.070   3.799  11.011
45858W        W18283  37.946  11.569   0.027
45859W        W18284  29.851  11.795  11.564
45860W        W18285  44.476   7.355  11.522
45861W        W18286  22.710  19.047  12.562
45862W        W18287  43.779  22.457   1.924
45863W        W18288  11.455  42.904   0.936
45864W        W18289  25.990  36.001   4.926
45865W        W18290  29.249  16.780   2.801
45866W        W18291   9.419  38.076   3.660
45867W        W18292   8.332  20.586  11.879
45868W        W18293  10.438  39.543  12.500
45869W        W18294   3.328  22.817   2.224
45870W        W18295   9.423  39.823   1.400
45871W        W18296  31.080  43.962  12.462
45872W        W18297  27.414   8.854   2.211
45873W        W18298  37.855  37.303   2.184
45874W        W18299  25.156  14.118   2.215
45875W        W18300  38.854  32.959   0.247
45876W        W18301   9.568  38.844  12.024
45877W        W18302  28.914  44.252  11.877
45878W        W18303   1.002   7.869   5.075
45879W        W18304   0.003  21.426  11.967
45880W        W18305  35.534   5.130  11.583
45881W        W18306   6.786  10.593  14.360
45882W        W18307  13.134  10.278   4.407
45883W        W18308  16.756  29.995  11.464
45884W        W18309  21.701  22.861   4.267
45885W        W18310  43.547  14.744  11.839
45886W        W18311  34.411   5.699  14.032
45887W        W18312  22.516  31.968  14.918
45888W        W18313  29.620   8.196  12.017
45889W        W18314  41.900  25.053  12.941
45890W        W18315  28.650  38.342  11.419
45891W        W18316   8.229   0.317   4.060
45892W        W18317  13.310  34.422   4.709
45893W        W18318  11.458  18.106  13.310
45894W        W18319  40.012  24.258   3.958
45895W        W18320   7.273  19.294  13.036
45896W        W18321   4.866   1.342   2.302
45897W        W18322  16.808  36.847   2.751
45898W        W18323   2.845  19.822  13.278
45899W        W18324  31.525  23.098   3.667
45900W        W18325  39.053  21.794  10.444
45901W        W18326   0.202   7.307  12.658
45902W        W18327  10.537  39.015  10.563
45903W        W18328  25.397   1.138   2.029
45904W        W18329   3.666  36.068  13.969
45905W        W18330  34.724  33.205  14.351
45906W        W18331  38.588  31.887  13.939
45907W        W18332   5.357  42.720  12.013
45908W        W18333  42.576  37.307   5.051
45909W        W18334  27.265  28.168   2.207
45910W        W18335   9.302  38.398  13.085
45911W        W18336  36.638  33.874   3.733
45912W        W18337  20.196  38.104  13.548
45913W        W18338  35.821   7.304  14.811
45914W        W18339   1.117  40.956   9.818
45915W        W18340   3.465  15.739   2.145
45916W        W18341   6.929  18.264   1.499
45917W        W18342  25.866  29.194   0.895
45918W        W18343  33.749  14.596   4.216
45919W        W18344  34.070   1.477   4.596
45920W        W18345  31.617   8.286  13.461
45921W        W18346   1.472  34.271  12.960
45922W        W18347  37.864   0.697   1.052
45923W        W18348   9.303   3.712   4.244
45924W        W18349   3.439  14.865   0.762
45925W        W18350  29.440  33.438   0.934
45926W        W18351   5.867  18.609  10.925
45927W        W18352   4.664  23.575   0.738
45928W        W18353  12.590   6.165   0.240
45929W        W18354  41.842   6.973   3.107
45930W        W18355  34.194  15.098  13.533
45931W        W18356  44.711   8.253   2.805
45932W        W18357  36.950  33.448   3.604
45933W        W18358  38.386  11.734  10.895
45934W        W18359  42.487   8.223  13.461
45935W        W18360  27.946  25.281  11.569
45936W        W18361  37.159  27.117   4.646
45937W        W18362   9.148   8.938  12.578
45938W        W18363  36.128  20.714   2.720
45939W        W18364  22.535   8.196  14.254
45940W        W18365  34.898   8.874  10.247
45941W        W18366  12.721  23.824   3.384
45942W        W18367   4.997  32.107   3.224
45943W        W18368  26.101   7.750  14.126
45944W        W18369  39.052  12.599  11.978
45945W        W18370  29.132   4.199   2.349
45946W        W18371  19.174  16.584  12.905
45947W        W18372  32.963   0.357  10.790
45948W        W18373  19.735   2.630   0.444
45949W        W18374  27.256  20.756   3.325
45950W        W18375  31.682   8.701  14.661
45951W        W18376   9.231  18.734  11.142
45952W        W18377   7.231  23.999  11.661
45953W        W18378  27.449   1.318   2.687
45954W        W18379   5.815   6.873   4.812
45955W        W18380  21.692  27.423  11.663
45956W        W18381  25.043   0.983   4.579
45957W        W18382  36.475  41.924  10.665
45958W        W18383   9.885   4.416   3.204
45959W        W18384   2.455  18.469   3.509
45960W        W18385  18.659  20.204  11.514
45961W        W18386  28.376  39.797  11.537
45962W        W18387  34.901  14.202  10.349
45963W        W18388  13.104  19.181   2.694
45964W        W18389  17.698  25.064   1.387
45965W        W18390  40.008  33.364   3.289
45966W        W18391  37.087  39.866   3.079
45967W        W18392  19.672   8.340   0.240
45968W        W18393  39.539  44.272   2.276
45969W        W18394  40.840  39.483  13.529
45970W        W18395  36.286  34.984  12.085
45971W        W18396   9.369  31.484   3.569
45972W        W18397   3.731  19.449  11.002
45973W        W18398  19.951  22.106   4.669
45974W        W18399  19.638  25.487   0.312
45975W        W18400  43.602   1.488   4.663
45976W        W18401  24.067  15.089  14.877
45977W        W18402  38.404  32.629  12.303
45978W        W18403  12.266  23.434   0.594
45979W        W18404  25.337   1.981  14.530
45980W        W18405   3.938  17.216  13.342
45981W        W18406   0.246   2.259   1.478
45982W        W18407  13.402   7.838  12.557
45983W        W18408  41.873  37.437  13.458
45984W        W18409  24.597  13.379  13.758
45985W        W18410  43.898  37.555  13.671
45986W        W18411  28.994  14.722   4.762
45987W        W18412  22.744  11.320   2.254
45988W        W18413   9.370   7.199  11.135
45989W        W18414  20.401  36.321  13.360
45990W        W18415  22.306  36.058  11.565
45991W        W18416  25.968  44.455   1.182
45992W        W18417  25.864  29.074  14.980
45993W        W18418  41.051  38.470   2.589
45994W        W18419  39.086  31.125  14.383
45995W        W18420  25.762   8.815   4.536
45996W        W18421  13.449  25.260   0.431
45997W        W18422  24.024   5.792  12.039
45998W        W18423   6.862  26.669  12.695
45999W        W18424  26.063  15.636   3.156
46000W        W18425  35.302  37.083  13.826
46001W        W18426  43.044  44.252  14.422
46002W        W18427  21.403  40.283   4.080
46003W        W18428  15.536  32.034   0.979
46004W        W18429  27.944  43.030  11.154
46005W        W18430   2.773  19.527   2.858
46006W        W18431  28.612   6.809  14.290
46007W        W18432  39.029  25.673   0.883
46008W        W18433  26.477  40.607   3.751
46009W        W18434  37.206  15.637  12.424
46010W        W18435  42.009  20.176  11.054
46011W        W18436  25.036  19.995   3.208
46012W        W18437   7.230  17.772  11.367
46013W        W18438  35.998  32.459   0.025
46014W        W18439  44.539  40.018   4.278
46015W        W18440  28.594   2.381  13.547
46016W        W18441  41.513  42.655   1.846
46017W        W18442   0.737  28.053  11.202
46018W        W18443  30.458  22.671   0.265
46019W        W18444  21.158  30.993   2.372
46020W        W18445  35.931   9.670  10.011
46021W        W18446  10.325  40.783   2.808
46022W        W18447  17.662  19.507   2.268
46023W        W18448   4.331  44.226   1.742
46024W        W18449  22.095   3.921  11.211
46025W        W18450   3.330  18.829   3.163
46026W        W18451  37.344  24.725  12.994
46027W        W18452  15.304   4.399   4.983
46028W        W18453  35.983  37.011   1.005
46029W        W18454  13.296  27.706  11.347
46030W        W18455  17.164  43.575  11.207
46031W        W18456   0.298  13.330   2.134
46032W        W18457  35.977  16.356  11.951
46033W        W18458  17.593  37.604  13.411
46034W        W18459   6.818   2.047  11.710
46035W        W18460  31.592   8.468  11.988
46036W        W18461   8.898  28.718  14.550
46037W        W18462  20.987  11.780   0.920
46038W        W18463  30.650  41.316  12.911
46039W        W18464  19.853  14.302  14.386
46040W        W18465  20.842  13.733  12.132
46041W        W18466   5.687  36.802  13.982
46042W        W18467  18.038  29.059   1.905
46043W        W18468  38.301  23.644   1.312
46044W        W18469  12.035  21.274   5.405
46045W        W18470  11.658   9.834   1.869
46046W        W18471  10.383  20.778  14.307
46047W        W18472  21.259  13.183  14.739
46048W        W18473  35.567   0.616  13.321
46049W        W18474  36.372   5.957   0.988
46050W        W18475  20.776  11.316   4.167
46051W        W18476  30.657  15.239  11.465
46052W        W18477   8.535  21.040   4.450
46053W        W18478  20.304  44.312   4.646
46054W        W18479  12.636   2.397   1.768
46055W        W18480  33.876  15.810   3.704
46056W        W18481   3.512  13.689   1.869
46057W        W18482  40.908   7.210  11.953
46058W        W18483   1.210  11.416   4.238
46059W        W18484  22.795   3.822  13.961
46060W        W18485   3.726  16.693  13.301
46061W        W18486  19.979  43.424  12.992
46062W        W18487  21.171  11.258  14.335
46063W        W18488  15.217  42.590  13.890
46064W        W18489  35.906  33.589   1.377
46065W        W18490   1.012  42.791  13.556
46066W        W18491  32.318  37.721   3.762
46067W        W18492  22.476  39.977   4.594
46068W        W18493   5.334  22.199  13.597
46069W        W18494   0.102   0.259  11.727
46070W        W18495  13.709   4.846  12.840
46071W        W18496  43.550  13.323  12.368
46072W        W18497  32.141  26.533   5.121
46073W        W18498  19.320  16.069  10.646
46074W        W18499  39.242  10.227   3.629
46075W        W18500  30.793  22.468  13.804
46076W        W18501  12.287   1.277   3.175
46077W        W18502   1.267   8.253   4.659
46078W        W18503  14.626   9.722   1.890
46079W        W18504  20.344   8.682  12.024
46080W        W18505   4.029   9.309  13.884
46081W        W18506   0.261  39.748  10.803
46082W        W18507  33.670  41.430  13.936
46083W        W18508   3.356  37.372  11.590
46084W        W18509   4.955  21.428   4.045
46085W        W18510  26.508  42.669  12.771
46086W        W18511  38.480  19.763   2.791
46087W        W18512   8.465  41.388   2.650
46088W        W18513  36.491  20.617   0.367
46089W        W18514  39.017  38.006  12.210
46090W        W18515  11.268  17.241   0.947
46091W        W18516  18.056  38.493   3.672
46092W        W18517  11.704  25.961   1.967
46093W        W18518  24.958  17.820   3.697
46094W        W18519  10.692   8.247   2.792
46095W        W18520  21.784  36.515   4.192
46096W        W18521   1.708   3.483   0.311
46097W        W18522  23.068  35.604   4.855
46098W        W18523  41.472  27.668  11.970
46099W        W18524  31.002  35.677   5.059
46100W        W18525   4.434  29.690  12.248
46101W        W18526  17.963  33.964  11.104
46102W        W18527  26.735   8.775  10.528
46103W        W18528  19.901  41.996   0.720
46104W        W18529   4.665  32.208  14.926
46105W        W18530  32.607   9.398   1.221
46106W        W18531  13.144  38.061  14.866
46107W        W18532  40.536  27.088  13.977
46108W        W18533  11.301   2.291   3.222
46109W        W18534   8.442   8.302  11.394
46110W        W18535  19.620  16.538  13.166
46111W        W18536  13.065  18.890  10.507
46112W        W18537  13.069  12.696  10.747
46113W        W18538   8.190  11.847  12.818
46114W        W18539  43.434   8.271  13.330
46115W        W18540  22.721   3.226  10.752
46116W        W18541  38.991  26.117   4.252
46117W        W18542   9.711  28.124  12.518
46118W        W18543   6.705  25.097  13.912
46119W        W18544  15.680  30.705   1.440
46120W        W18545   7.311  25.544   0.635
46121W        W18546  40.073  22.115   3.672
46122W        W18547  36.015  18.004   2.212
46123W        W18548   5.894  42.822   5.277
46124W        W18549  24.570  37.909   3.733
46125W        W18550  22.268  28.974   1.981
46126W        W18551   4.117  36.684  11.932
46127W        W18552  43.248  15.153  14.958
46128W        W18553  40.295  20.765  12.085
46129W        W18554  40.283  28.713   0.485
46130W        W18555  36.198  22.143   0.428
46131W        W18556  33.255  39.899   0.918
46132W        W18557  38.042  35.514  12.759
46133W        W18558  44.754  25.415   0.982
46134W        W18559  37.017  32.188   3.867
46135W        W18560   2.153   3.355  13.299
46136W        W18561  15.517   9.907   4.257
46137W        W18562  22.266   5.721   1.366
46138W        W18563  36.509  20.416   4.985
46139W        W18564  22.541  15.575   2.674
46140W        W18565   4.816  39.268  14.306
46141W        W18566   5.942  30.705   1.641
46142W        W18567  39.293   8.300   0.446
46143W        W18568  21.014  25.639  14.986
46144W        W18569  42.797   6.310  12.320
46145W        W18570  13.068  26.318   5.036
46146W        W18571  33.822  31.059   3.356
46147W        W18572   9.973   0.900  10.783
46148W        W18573  33.925  34.047   4.506
46149W        W18574  20.606  19.827  10.443
46150W        W18575  13.405  17.030   1.794
46151W        W18576  31.830  33.053   4.674
46152W        W18577  44.684  42.315   1.809
46153W        W18578   8.278  27.900   1.270
46154W        W18579  10.672  30.727   3.198
46155W        W18580  36.882  17.517   2.500
46156W        W18581  44.051  37.477  13.091
46157W        W18582  26.803  18.344  10.265
46158W        W18583  15.304  27.392   0.192
46159W        W18584  31.300  24.474  10.995
46160W        W18585  10.147  39.620  13.440
46161W        W18586   6.461  13.162   3.301
46162W        W18587  28.635  29.533  12.140
46163W        W18588  37.557   3.704  10.705
46164W        W18589  36.368  44.334   4.139
46165W        W18590  38.207  37.340  12.336
46166W        W18591  40.789  20.931   0.211
46167W        W18592  28.238  11.975   1.071
46168W        W18593  37.318  25.659   4.581
46169W        W18594  19.970  31.648   1.058
46170W        W18595  25.764   1.244  13.364
46171W        W18596  20.726   6.490   4.728
46172W        W18597   4.049   4.274  11.063
46173W        W18598  38.945  38.912   1.405
46174W        W18599   2.313  29.661   1.950
46175W        W18600  33.775  32.524  10.436
46176W        W18601  13.048  35.975   3.921
46177W        W18602  44.080  20.350   1.091
46178W        W18603   2.206  10.857   0.915
46179W        W18604  11.498  42.872  12.995
46180W        W18605  13.707   1.938   0.644
46181W        W18606  19.644   6.254  14.858
46182W        W18607  35.812  24.592   0.798
46183W        W18608  40.917  35.231  12.380
46184W        W18609  10.775  24.482  14.489
46185W        W18610   8.984  35.033   2.019
46186W        W18611  30.684   7.093   1.981
46187W        W18612  42.055  44.330  13.427
46188W        W18613  27.468  44.731   3.256
46189W        W18614  12.629  33.615   0.756
46190W        W18615   6.366   2.955  14.818
46191W        W18616  40.618  15.120  11.456
46192W        W18617  30.391  13.190   0.763
46193W        W18618  10.295  11.282   0.305
46194W        W18619   8.656  39.407  11.701
46195W        W18620  12.098  19.133   0.112
46196W        W18621  24.511  17.677   0.976
46197W        W18622   6.773  28.713  11.513
46198W        W18623  43.375  16.286  13.918
46199W        W18624  30.087  26.516  12.851
46200W        W18625  25.431  24.165   3.377
46201W        W18626  17.772  34.646  11.443
46202W        W18627  28.496   6.310   1.530
46203W        W18628  28.923  25.002   1.736
46204W        W18629   9.786   0.178  11.124
46205W        W18630  23.527  17.676  14.085
46206W        W18631   7.644  20.207  11.918
46207W        W18632  34.349  35.036   2.295
46208W        W18633  25.206   6.852   2.807
46209W        W18634   7.441   2.230   4.323
46210W        W18635  18.006  20.606  14.863
46211W        W18636  31.175  22.141   3.196
46212W        W18637   5.434   1.265   2.901
46213W        W18638  39.883  35.574  13.697
46214W        W18639   0.350   9.376   1.722
46215W        W18640  20.207  19.793   3.179
46216W        W18641  28.398  38.642   1.966
46217W        W18642  22.111  14.064   1.736
46218W        W18643  14.490   4.836   0.332
46219W        W18644  31.623  19.751  10.779
46220W        W18645   9.820  27.906   3.730
46221W        W18646   7.192  38.940   4.690
46222W        W18647  34.187   9.544   0.889
46223W        W18648  13.256   0.760   4.587
46224W        W18649  28.982   1.269  14.346
46225W        W18650  20.625  30.562  12.552
46226W        W18651  22.066  16.534   2.236
46227W        W18652  44.073  23.331   3.724
46228W        W18653  16.696  14.688  13.938
46229W        W18654  14.600   8.921  12.504
46230W        W18655   7.611  43.336  14.975
46231W        W18656  26.118  17.694  11.146
46232W        W18657  43.080  37.004  12.858
46233W        W18658  21.747   8.545   3.234
46234W        W18659  24.859  34.837  11.211
46235W        W18660   7.926  14.208   4.274
46236W        W18661  41.329  19.043  14.035
46237W        W18662  19.364  15.692   5.077
46238W        W18663  30.914  16.772   3.611
46239W        W18664   3.351  43.482  12.321
46240W        W18665  25.939   8.226   3.695
46241W        W18666   6.270  17.249   9.993
46242W        W18667  22.072  23.027   3.253
46243W        W18668  21.503  35.465  14.297
46244W        W18669  38.659  37.144  12.229
46245W        W18670  19.528  10.642   0.505
46246W        W18671   0.173  28.694   4.235
46247W        W18672  27.120   2.044   4.315
46248W        W18673  24.213  30.927   5.088
46249W        W18674  30.993   5.267  14.586
46250W        W18675  26.392  28.994  14.921
46251W        W18676  23.572   9.132   0.769
46252W        W18677  17.714  28.368  14.405
46253W        W18678  16.475   1.598  11.071
46254W        W18679   4.695   8.541  13.046
46255W        W18680  42.475   9.388   3.839
46256W        W18681  44.081  10.747   4.711
46257W        W18682  37.791  12.302   2.801
46258W        W18683  15.253  12.333   4.213
46259W        W18684  24.720  27.542  12.007
46260W        W18685   0.345  16.849  13.449
46261W        W18686   4.828   4.911   2.745
46262W        W18687  26.685  21.808   3.641
46263W        W18688   2.378  33.483   4.133
46264W        W18689   6.154  10.305   3.393
46265W        W18690  42.779  18.571  14.516
46266W        W18691  19.440  34.899  14.797
46267W        W18692  15.321  18.591   0.336
46268W        W18693   7.780  44.966  11.489
46269W        W18694  22.803  41.526   0.281
46270W        W18695  35.156   6.632  10.255
46271W        W18696   4.257  42.206  13.024
46272W        W18697  33.368  17.265  11.024
46273W        W18698   5.299   4.064  14.861
46274W        W18699  18.249  35.638   0.821
46275W        W18700  26.677  19.669  12.942
46276W        W18701  22.750   3.739   2.638
46277W        W18702   7.583  20.298  13.010
46278W        W18703  30.197   9.561   0.321
46279W        W18704  42.579  18.670   0.857
46280W        W18705   5.581  28.863  13.555
46281W        W18706   7.263  25.066   0.354
46282W        W18707  31.069   9.149  11.690
46283W        W18708  15.615   4.453   2.971
46284W        W18709   5.683   8.649   3.761
46285W        W18710  16.186  20.601  12.942
46286W        W18711  34.337  10.256  12.833
46287W        W18712  29.636  42.292  13.453
46288W        W18713  28.704  18.717   3.713
46289W        W18714   5.015  24.001   2.725
46290W        W18715  16.582  42.461   1.754
46291W        W18716   2.820  18.135  10.721
46292W        W18717   9.780  35.154   0.467
46293W        W18718  16.956  26.086   1.085
46294W        W18719  41.524  19.816   0.884
46295W        W18720  35.558  44.789   0.755
46296W        W18721  15.069  20.219  13.441
46297W        W18722  13.793   1.789  14.209
46298W        W18723  41.403  42.090  14.902
46299W        W18724   9.306  30.102   4.839
46300W        W18725  26.326  32.807   5.524
46301W        W18726  21.952  43.916  14.871
46302W        W18727  10.836  13.827  14.742
46303W        W18728  37.003   4.441   0.287
46304W        W18729  37.208  43.454  13.476
46305W        W18730  15.444  34.384   4.985
46306W        W18731  30.271  40.628   2.913
46307W        W18732  37.486  19.017   2.226
46308W        W18733  16.713  24.408  14.589
46309W        W18734  38.152   8.860  10.663
46310W        W18735  29.677  10.410  10.771
46311W        W18736  44.722  30.603   0.786
46312W        W18737  43.253  15.271   2.703
46313W        W18738   4.825  26.219  11.923
46314W        W18739   5.436  20.599  12.068
46315W        W18740  20.886  10.238   1.221
46316W        W18741  43.813   7.918  11.707
46317W        W18742   1.893  13.378  14.851
46318W        W18743  44.306   0.023  14.346
46319W        W18744  39.718  12.307   1.946
46320W        W18745   0.490  15.475  13.822
46321W        W18746  43.980  32.459  11.931
46322W        W18747  39.409  19.057  11.079
46323W        W18748  20.507  35.471  10.351
46324W        W18749  37.515   9.913   2.793
46325W        W18750  16.411  26.973  11.401
46326W        W18751  43.946  38.876   1.341
46327W        W18752   8.655  14.082   2.853
46328W        W18753  24.563  25.435  11.645
46329W        W18754  25.226  13.429  14.440
46330W        W18755   6.572   4.525  10.927
46331W        W18756  44.136  31.127  14.306
46332W        W18757  16.641   6.459  14.619
46333W        W18758  38.858  41.272   1.327
46334W        W18759   9.753  31.569  11.223
46335W        W18760  34.904  39.477   2.275
46336W        W18761  21.690   7.435  10.706
46337W        W18762  10.236  21.824   4.828
46338W        W18763   3.780  19.452  13.153
46339W        W18764  44.318  25.949  13.830
46340W        W18765  28.157  36.029  11.968
46341W        W18766  18.745   9.851   0.552
46342W        W18767  25.695  36.441   2.251
46343W        W18768  36.270   5.817  11.461
46344W        W18769  25.062  15.546   3.216
46345W        W18770   2.659  11.245  14.287
46346W        W18771  36.564  11.571  10.708
46347W        W18772  14.019  14.062  12.877
46348W        W18773  44.929  14.350   2.919
46349W        W18774  44.712   3.399   4.141
46350W        W18775   8.893  19.841  10.607
46351W        W18776   5.812  36.621   0.735
46352W        W18777   1.750  13.167   1.755
46353W        W18778   4.687  23.960  13.319
46354W        W18779  16.668  43.594  10.964
46355W        W18780  40.244  36.443   2.842
46356W        W18781   1.245   7.881  14.993
46357W        W18782  17.629  23.470   2.233
46358W        W18783  29.841  25.112  13.489
46359W        W18784  22.527  43.950   0.745
46360W        W18785   2.962  10.727   1.773
46361W        W18786  41.483  44.144   0.956
46362W        W18787   6.740  24.935   0.843
46363W        W18788  33.420   7.373   1.316
46364W        W18789  16.113  17.659   3.552
46365W        W18790  22.480   3.831  13.548
46366W        W18791  34.847   4.284   1.698
46367W        W18792  14.040  38.434  10.612
46368W        W18793   3.032   4.317   3.700
46369W        W18794  42.490  23.230  13.122
46370W        W18795  27.617  22.756  12.029
46371W        W18796  34.976  21.116   3.568
46372W        W18797  42.871  17.185   4.039
46373W        W18798  11.603  30.496   0.216
46374W        W18799   0.011  27.966  10.746
46375W        W18800   2.665  35.919   4.605
46376W        W18801  33.399  44.425   0.094
46377W        W18802   2.255  19.147   0.374
46378W        W18803   9.687  39.480  13.235
46379W        W18804  13.224   0.021   4.826
46380W        W18805  27.325  43.526  10.352
46381W        W18806  23.003  22.710   0.172
46382W        W18807  39.423  25.556  14.957
46383W        W18808  36.516  40.374  12.279
46384W        W18809   6.241  28.221   2.474
46385W        W18810  34.493  16.638   0.500
46386W        W18811  44.272  23.923  14.030
46387W        W18812  27.550  16.319   1.896
46388W        W18813  42.988  11.611   2.677
46389W        W18814  23.547  38.017   2.452
46390W        W18815  14.672  10.785  11.592
46391W        W18816  12.249  42.979  10.762
46392W        W18817  16.630  20.592   4.281
46393W        W18818  39.509  29.548   0.881
46394W        W18819  44.943  14.074  13.720
46395W        W18820  30.195  28.692  13.929
46396W        W18821  44.396   4.699  11.096
46397W        W18822  39.129  27.873   0.215
46398W        W18823  13.053  10.672  11.485
46399W        W18824  38.818  12.786  11.570
46400W        W18825  14.699  22.772  10.062
46401W        W18826  23.204   9.359   2.845
46402W        W18827  33.251  23.020  12.574
46403W        W18828  30.046  37.366  12.984
46404W        W18829   9.814   6.247  13.887
46405W        W18830  29.171   5.828  13.317
46406W        W18831  19.709   5.882  12.044
46407W        W18832  18.042  10.911  11.895
46408W        W18833  26.168  13.784  14.994
46409W        W18834   0.717  41.889   4.499
46410W        W18835  15.135  41.527  13.023
46411W        W18836  18.967   5.961  12.467
46412W        W18837  34.804  37.530   0.367
46413W        W18838  20.677  39.405   2.225
46414W        W18839  16.893   7.897   2.192
46415W        W18840  27.478  10.083  10.930
46416W        W18841   3.422  13.808  14.776
46417W        W18842  42.041   1.338   4.827
46418W        W18843  43.293  15.743   0.931
46419W        W18844  29.532  16.042   3.138
46420W        W18845  14.160  15.287  11.513
46421W        W18846  15.617  20.071   4.978
46422W        W18847  19.549  16.596   1.920
46423W        W18848  32.745  15.530  14.831
46424W        W18849  27.240  26.535   3.602
46425W        W18850  27.721   9.999  11.926
46426W        W18851  36.910  19.772   2.039
46427W        W18852  21.574   3.320   2.725
46428W        W18853  41.421  37.107   0.297
46429W        W18854   4.340   6.118   0.445
46430W        W18855   0.754  29.977  12.931
46431W        W18856  23.064   3.304   0.460
46432W        W18857  18.747  16.123   0.356
46433W        W18858  13.634  29.343   3.232
46434W        W18859   6.951  36.399  14.997
46435W        W18860   3.215  35.475   2.874
46436W        W18861   4.967  19.169   0.892
46437W        W18862  19.627   9.455   3.712
46438W        W18863  19.212  44.553   1.718
46439W        W18864  43.289  32.731   2.342
46440W        W18865  12.767  24.153  10.110
46441W        W18866  30.702   1.450  12.999
46442W        W18867  19.683  38.153   3.227
46443W        W18868   9.622   6.478  12.020
46444W        W18869  11.829  24.297  11.447
46445W        W18870   2.328   9.315   0.495
46446W        W18871   1.002   6.909   4.659
46447W        W18872   3.734  31.711  12.876
46448W        W18873   4.293  23.767   3.069
46449W        W18874  41.979  10.938   9.873
46450W        W18875  34.733  18.300  10.733
46451W        W18876  19.999   3.830   4.807
46452W        W18877  37.625  11.627  14.488
46453W        W18878  44.924  40.364   0.030
46454W        W18879   2.999  28.006  14.952
46455W        W18880  16.656   5.572  13.009
46456W        W18881  18.820  44.953   0.174
46457W        W18882  30.498  24.014   5.586
46458W        W18883  29.242   1.406   4.140
46459W        W18884  38.052  22.713  10.676
46460W        W18885  26.496   0.012  13.873
46461W        W18886  43.583  31.825   3.310
46462W        W18887  13.517  24.109  11.457
46463W        W18888  17.570  11.060  10.435
46464W        W18889  28.884  19.717   1.409
46465W        W18890  27.313  22.922  12.450
46466W        W18891  32.102   2.369  11.151
46467W        W18892  20.101  34.341   2.341
46468W        W18893  14.467  21.631  12.437
46469W        W18894  32.910  27.726   2.371
46470W        W18895  22.176   5.626   2.267
46471W        W18896  34.152  30.666   3.297
46472W        W18897  20.823  13.060   4.380
46473W        W18898  23.802  31.403   5.291
46474W        W18899  38.901   2.028   1.562
46475W        W18900  15.154   8.865  14.874
46476W        W18901   5.112  29.678  14.499
46477W        W18902  25.467  42.653  13.385
46478W        W18903  24.509  43.986  12.039
46479W        W18904  18.203   2.155  13.682
46480W        W18905  28.203   3.689  10.754
46481W        W18906  17.209  19.745   2.231
46482W        W18907  24.644   9.770   3.208
46483W        W18908  44.877   0.166  12.167
46484W        W18909  24.065  43.708  10.358
46485W        W18910  29.967   3.062  12.479
46486W        W18911   8.168  16.342   2.290
46487W        W18912  12.189  12.105  12.539
46488W        W18913  39.369  34.488   0.077
46489W        W18914   7.170  26.088   2.361
46490W        W18915  16.560  11.198   4.157
46491W        W18916  13.116  21.045  14.756
46492W        W18917  29.801  18.808   3.784
46493W        W18918  17.314  31.945   4.630
46494W        W18919  14.761  17.594   3.296
46495W        W18920   1.482  11.975   4.330
46496W        W18921  42.820  18.650   0.418
46497W        W18922  39.583  11.746  13.017
46498W        W18923  35.011  24.230   4.372
46499W        W18924  44.292   0.856   3.311
46500W        W18925  32.228  34.614   3.621
46501W        W18926  20.967  10.409  14.938
46502W        W18927   6.303  28.081  13.357
46503W        W18928  30.458  10.124  11.679
46504W        W18929  15.287   8.928   3.381
46505W        W18930  33.364   7.191  13.319
46506W        W18931   0.739  37.485   0.461
46507W        W18932  18.147  31.389   1.900
46508W        W18933  14.604   5.629   3.325
46509W        W18934  44.784  42.444  12.898
46510W        W18935  32.936  15.730   0.301
46511W        W18936  39.113  25.065  11.984
46512W        W18937  14.925   9.334  12.580
46513W        W18938  28.108  15.343   0.510
46514W        W18939  26.638  33.736  14.015
46515W        W18940  29.598  17.314   1.921
46516W        W18941  13.391  11.199   3.126
46517W        W18942   4.619   9.588   0.846
46518W        W18943  12.081  12.679  14.409
46519W        W18944  28.612  36.779  11.496
46520W        W18945   5.085   6.619  10.641
46521W        W18946  36.845  24.757   0.928
46522W        W18947  27.850   9.165   0.929
46523W        W18948  25.069  36.470   1.328
46524W        W18949  18.615  42.892  10.026
46525W        W18950  21.767   4.213  13.382
46526W        W18951  19.838  38.986   4.534
46527W        W18952  13.961  18.051  12.116
46528W        W18953  18.596  43.748  11.117
46529W        W18954  40.963  44.866  11.950
46530W        W18955  24.967   5.381   0.045
46531W        W18956  38.385  38.546  12.007
46532W        W18957  24.052  18.980   1.369
46533W        W18958  29.456  22.645   1.825
46534W        W18959  29.456   7.675   4.494
46535W        W18960   2.722  31.490   4.100
46536W        W18961  34.056  23.808   0.273
46537W        W18962  17.307   1.518  12.783
46538W        W18963  28.670  38.176  13.494
46539W        W18964  23.015  35.481   0.537
46540W        W18965   2.891  39.980   4.592
46541W        W18966  38.310  34.396  14.315
46542W        W18967   8.784  12.661   2.899
46543W        W18968  15.469  39.368   0.740
46544W        W18969  39.925  30.123   3.774
46545W        W18970   9.544   0.219  14.077
46546W        W18971  27.519   0.834   2.815
46547W        W18972  21.152  37.995   0.901
46548W        W18973   9.011  29.015  11.986
46549W        W18974  12.105  23.477  11.622
46550W        W18975  14.337   5.819   2.358
46551W        W18976  26.904  23.495   4.235
46552W        W18977  15.913  33.635  10.117
46553W        W18978  41.512  10.282  13.807
46554W        W18979   9.493  15.508   3.299
46555W        W18980   5.387  38.222  11.108
46556W        W18981  35.314  27.708  13.449
46557W        W18982  16.407  17.960  13.923
46558W        W18983   7.247  19.174  11.608
46559W        W18984  26.953  37.375  14.337
46560W        W18985  13.389  11.747   4.121
46561W        W18986  26.223  13.534   2.785
46562W        W18987  23.654  14.377  12.443
46563W        W18988  22.611   5.021   4.163
46564W        W18989  37.996   7.956  13.551
46565W        W18990  20.307  31.983   2.234
46566W        W18991  39.514  21.475  14.212
46567W        W18992   5.148  16.729  13.174
46568W        W18993  37.565  10.897   1.810
46569W        W18994   1.387  37.921  11.389
46570W        W18995  10.351  23.854  14.310
46571W        W18996   2.162  17.172   3.143
46572W        W18997  10.924  12.776   1.748
46573W        W18998  25.482  31.355  10.804
46574W        W18999  39.139   3.446   1.477
46575W        W19000  25.296   1.431   1.207
46576W        W19001  22.537  26.899  14.094
46577W        W19002   3.006  26.369  11.060
46578W        W19003   2.547  20.507   1.999
46579W        W19004  35.103  16.529  11.667
46580W        W19005  32.978  32.501   2.276
46581W        W19006  26.720  38.023  11.953
46582W        W19007  15.649  29.469  13.368
46583W        W19008  33.988   4.364   4.379
46584W        W19009  19.581  43.417  12.035
46585W        W19010   8.732  29.688  11.475
46586W        W19011  42.676  17.514   4.975
46587W        W19012  34.857  12.638   4.048
46588W        W19013  32.089  29.382  14.035
46589W        W19014   7.845   6.010   1.255
46590W        W19015  40.266  20.332  10.567
46591W        W19016  23.568  38.015   2.948
46592W        W19017  26.051  25.482  13.655
46593W        W19018   3.671  16.231  12.020
46594W        W19019   4.476   7.179   4.051
46595W        W19020   8.003  28.474   0.413
46596W        W19021  31.995   9.229  13.326
46597W        W19022  15.832  44.261   2.145
46598W        W19023  39.413  22.729  12.115
46599W        W19024   6.475  41.724  12.103
46600W        W19025  29.300  16.962  13.346
46601W        W19026   9.437   8.730  12.974
46602W        W19027  13.237   7.177   5.024
46603W        W19028  22.625  12.987  11.974
46604W        W19029   5.725  31.488   0.424
46605W        W19030   2.133  10.219  14.560
46606W        W19031  32.274  42.049   2.748
46607W        W19032  10.605  44.832   2.246
46608W        W19033  10.901   3.844  11.132
46609W        W19034   8.763  28.600  14.076
46610W        W19035  37.238   4.481   2.329
46611W        W19036  21.860  30.592   4.126
46612W        W19037   5.197   0.715  12.566
46613W        W19038  31.976  11.237  12.197
46614W        W19039  42.947  35.450   0.524
46615W        W19040  16.562  31.864   1.897
46616W        W19041  36.000  42.930   1.251
46617W        W19042  25.855  43.216   4.212
46618W        W19043  17.850   7.408   4.291
46619W        W19044  39.980  43.401   3.062
46620W        W19045   8.994  27.453   4.766
46621W        W19046  17.755  15.779   1.250
46622W        W19047  23.301   9.856   1.764
46623W        W19048  21.830  14.831  14.530
46624W        W19049  42.947  12.248   0.401
46625W        W19050  32.589  26.498   4.363
46626W        W19051  10.414  33.417  12.062
46627W        W19052  42.387  34.889  10.582
46628W        W19053   7.834  36.331   0.753
46629W        W19054   9.295   4.808  12.932
46630W        W19055  15.210  23.483   1.924
46631W        W19056  36.413  25.815  14.863
46632W        W19057   0.496   4.374   1.846
46633W        W19058  15.258  12.556   0.416
46634W        W19059   6.683  33.355  14.943
46635W        W19060  12.669  24.534  14.574
46636W        W19061   9.339  15.356  10.235
46637W        W19062  25.471  32.871   2.832
46638W        W19063   3.741  21.751   4.143
46639W        W19064  24.230  28.057  13.539
46640W        W19065  33.171   8.279   3.080
46641W        W19066   0.462  21.183  14.814
46642W        W19067   5.361  25.687  12.003
46643W        W19068  40.036  31.384   4.250
46644W        W19069  15.167   5.003   2.109
46645W        W19070  31.666  27.886   5.015
46646W        W19071  22.142   0.910   1.632
46647W        W19072  15.257  32.431   5.035
46648W        W19073  20.181   9.592  11.199
46649W        W19074  38.532  11.728  12.380
46650W        W19075  39.289  16.597  12.910
46651W        W19076  34.073   3.180   0.696
46652W        W19077   2.149   2.234  12.410
46653W        W19078  37.486   3.283  10.383
46654W        W19079  13.610  13.207   1.692
46655W        W19080  21.944  40.777  11.824
46656W        W19081  17.851  12.733  13.827
46657W        W19082  19.374   0.470  11.662
46658W        W19083  24.921  44.940  13.757
46659W        W19084  31.619  41.539  14.307
46660W        W19085  34.473  16.954   0.925
46661W        W19086  40.535  11.654   1.852
46662W        W19087   6.147  17.776   3.203
46663W        W19088  17.510  24.793   2.680
46664W        W19089  43.867   8.738  10.647
46665W        W19090  38.750  17.681   0.808
46666W        W19091  30.449  41.881  10.113
46667W        W19092  15.717  39.230  12.962
46668W        W19093  13.355  34.417   0.287
46669W        W19094  12.299  26.134   0.792
46670W        W19095  36.599   5.310   0.437
46671W        W19096  21.087  25.610   0.509
46672W        W19097  16.570  15.794   1.154
46673W        W19098  34.453  20.253   1.247
46674W        W19099  26.766   9.658  10.758
46675W        W19100   1.424  32.581  13.811
46676W        W19101   2.020  16.221  11.259
46677W        W19102   5.826  19.277  13.873
46678W        W19103  33.663  22.794  12.775
46679W        W19104  25.950  11.110  12.961
46680W        W19105  26.544  33.315  12.730
46681W        W19106  17.139  21.887  12.751
46682W        W19107  38.587  21.637   1.426
46683W        W19108  12.855  26.958   0.373
46684W        W19109  15.761  22.679   4.582
46685W        W19110  15.637   3.829  10.457
46686W        W19111  30.088   4.971   0.234
46687W        W19112  27.240  21.232   4.076
46688W        W19113  10.564   2.944  12.105
46689W        W19114   8.403  13.167  11.849
46690W        W19115   9.982  32.363  11.642
46691W        W19116  19.526  44.466   3.244
46692W        W19117  35.016   5.214   4.086
46693W        W19118  10.273  39.920  10.736
46694W        W19119  35.761  43.929  12.843
46695W        W19120  27.386  28.508  13.440
46696W        W19121  16.157  37.804  13.498
46697W        W19122  10.896  27.023   1.492
46698W        W19123   2.249  34.348  14.477
46699W        W19124   1.488  33.618  11.455
46700W        W19125  16.969  31.954   1.595
46701W        W19126   5.761   0.895  13.393
46702W        W19127   9.784  32.668   0.681
46703W        W19128  28.981  14.786   1.221
46704W        W19129  16.757  14.059   1.347
46705W        W19130  39.779  23.103  12.125
46706W        W19131  37.591  25.043  14.810
46707W        W19132   5.775  17.235   2.324
46708W        W19133   4.402  35.046  12.584
46709W        W19134  36.601  24.685   3.504
46710W        W19135  37.433  11.380   0.925
46711W        W19136  35.984  26.564   3.033
46712W        W19137   3.813  20.773   1.933
46713W        W19138  16.131  21.052   2.789
46714W        W19139  41.942   1.902   3.577
46715W        W19140  36.920  42.772   4.949
46716W        W19141  24.953  33.106  10.043
46717W        W19142  24.045   3.520  13.423
46718W        W19143   8.607  23.943  12.661
46719W        W19144  30.421  44.465  14.317
46720W        W19145  24.481  28.236  13.965
46721W        W19146  25.628  14.001  14.979
46722W        W19147   3.844  44.417  11.800
46723W        W19148   6.464  33.102   2.865
46724W        W19149  16.033  35.447   2.241
46725W        W19150  30.700  23.735   3.593
46726W        W19151  10.321  33.821   0.199
46727W        W19152  28.450  20.595   4.331
46728W        W19153  41.425  20.045   2.735
46729W        W19154   9.233  17.089   1.831
46730W        W19155  15.020  13.886   4.916
46731W        W19156  30.392  24.514  10.536
46732W        W19157  42.527   3.217   4.876
46733W        W19158  27.865  26.903   3.799
46734W        W19159  12.757  37.497  14.428
46735W        W19160  36.580  31.205   2.178
46736W        W19161  42.966  43.750   0.844
46737W        W19162  18.706  30.047   0.454
46738W        W19163  28.974   3.442   0.370
46739W        W19164  29.380  20.417   2.167
46740W        W19165  19.977   8.342   3.273
46741W        W19166  42.954  38.454   2.421
46742W        W19167   0.494  24.775   0.492
46743W        W19168   3.339  39.722   4.554
46744W        W19169  22.755  27.976   3.406
46745W        W19170   2.262  15.515  13.667
46746W        W19171  40.301  35.855   2.652
46747W        W19172  10.610  42.286  12.105
46748W        W19173  39.877  21.102  14.810
46749W        W19174  19.314  27.715   1.840
46750W        W19175   2.492  29.026   4.100
46751W        W19176  18.237  16.946   2.672
46752W        W19177   7.261  25.711   2.835
46753W        W19178  40.839   1.302   3.687
46754W        W19179   1.222  29.411   2.826
46755W        W19180  32.609  43.888   4.660
46756W        W19181  31.430   6.190  14.466
46757W        W19182  23.951  29.821  11.535
46758W        W19183  24.505   0.508   1.314
46759W        W19184  21.003   2.514   1.911
46760W        W19185  10.156  41.307   4.346
46761W        W19186  13.747  20.822   4.089
46762W        W19187  22.734  43.896   3.599
46763W        W19188  33.719   3.231   5.134
46764W        W19189  36.069  13.876   0.361
46765W        W19190  37.939  15.485  12.986
46766W        W19191  37.080   2.562   2.428
46767W        W19192  44.361  34.839   3.222
46768W        W19193  10.329  43.617  12.015
46769W        W19194   6.305   2.502   0.525
46770W        W19195  30.835   0.230  12.036
46771W        W19196  12.202  37.851  12.922
46772W        W19197  13.822  30.656  12.466
46773W        W19198   1.208  16.611  10.983
46774W        W19199  33.576  13.759  10.353
46775W        W19200  26.950  44.031   4.560
46776W        W19201  22.592  10.915   3.894
46777W        W19202  39.798  22.314   4.051
46778W        W19203   2.760  23.498  13.337
46779W        W19204  14.175   5.947   3.326
46780W        W19205  16.233  12.718   4.916
46781W        W19206  30.449  40.314   0.733
46782W        W19207  42.547  17.366  11.710
46783W        W19208   5.191   5.420   3.270
46784W        W19209  25.768  33.861  11.505
46785W        W19210  19.570  32.189  14.983
46786W        W19211   8.721  39.611  12.179
46787W        W19212  29.598  14.078   3.734
46788W        W19213  42.137  37.310   3.664
46789W        W19214  12.201  10.177   1.391
46790W        W19215  30.274  35.075  12.391
46791W        W19216  10.592   1.313   1.053
46792W        W19217  11.076   6.690  11.144
46793W        W19218  36.907  39.485   4.329
46794W        W19219   1.795  28.860   3.601
46795W        W19220  10.134   3.398   2.795
46796W        W19221  28.272  44.490  12.445
46797W        W19222  12.257  25.252   2.258
46798W        W19223  23.533   4.271   2.611
46799W        W19224   9.108  26.174   0.114
46800W        W19225  43.233  32.523   0.560
46801W        W19226  12.235  22.163  10.234
46802W        W19227   3.321   5.793   2.932
46803W        W19228  33.108  33.965   3.224
46804W        W19229   9.138  11.757  12.635
46805W        W19230   5.354  40.222   3.746
46806W        W19231  33.573  44.454  14.063
46807W        W19232  11.640  13.346   1.762
46808W        W19233  16.115   6.872   1.244
46809W        W19234  20.616   6.294   0.275
46810W        W19235   7.350  20.867  14.495
46811W        W19236  40.888   9.291   1.743
46812W        W19237   3.001  10.758   3.188
46813W        W19238  21.430  40.714  12.986
46814W        W19239  32.423  29.893   1.667
46815W        W19240  10.595  25.085  11.558
46816W        W19241  26.711  43.050   3.183
46817W        W19242  44.460  28.485  12.102
46818W        W19243  24.149  42.291  11.601
46819W        W19244  31.003  29.132   2.473
46820W        W19245  39.799  39.371   1.379
46821W        W19246  42.286  34.784  14.499
46822W        W19247  26.484  24.535   3.348
46823W        W19248  28.000  42.125   4.063
46824W        W19249  39.085  38.405   1.259
46825W        W19250  14.516  44.837   0.614
46826W        W19251  38.230  43.053   0.828
46827W        W19252  40.373  31.836   0.816
46828W        W19253  36.091  31.369  14.251
46829W        W19254  39.098  36.893   4.155
46830W        W19255  42.445   7.378  13.941
46831W        W19256  31.186  16.342   3.730
46832W        W19257  31.139  30.864  13.600
46833W        W19258  40.371  24.943   2.304
46834W        W19259   7.832  20.018   3.754
46835W        W19260  41.552   7.295   4.687
46836W        W19261  12.303  43.322   4.626
46837W        W19262  40.809  23.668   1.516
46838W        W19263  43.954   6.898  13.602
46839W        W19264  42.944  10.775   2.077
46840W        W19265  25.695  31.626   2.194
46841W        W19266   5.155  36.496   2.687
46842W        W19267  41.880  20.301  14.981
46843W        W19268  23.439  16.626   3.243
46844W        W19269  33.534  34.459  12.840
46845W        W19270   1.505  38.433  13.511
46846W        W19271   9.451  34.520  10.551
46847W        W19272  29.453  14.203   0.539
46848W        W19273  41.934   8.011   3.029
46849W        W19274  23.116   0.294  11.797
46850W        W19275  26.035  41.386  13.471
46851W        W19276  18.017   9.409   1.744
46852W        W19277   6.130  23.555   4.577
46853W        W19278  26.659  12.103   1.865
46854W        W19279  37.278  37.480  11.086
46855W        W19280  31.381  38.121  11.114
46856W        W19281   7.979  25.191   5.032
46857W        W19282  17.199  36.477   2.660
46858W        W19283  23.719  24.538   1.952
46859W        W19284  22.438  20.802   4.608
46860W        W19285  38.553  29.080   4.395
46861W        W19286   1.686  27.306   3.695
46862W        W19287   5.207   7.260  14.294
46863W        W19288  44.033  26.482  12.719
46864W        W19289  32.462  22.435   0.823
46865W        W19290  34.594  36.056  10.698
46866W        W19291  15.263   0.219   1.336
46867W        W19292  33.484  26.350   5.125
46868W        W19293  28.424  12.365   1.382
46869W        W19294  22.062  41.875   4.700
46870W        W19295  42.807  27.632  10.518
46871W        W19296  35.356  31.568   3.853
46872W        W19297  39.319  27.539   1.396
46873W        W19298  19.142  20.257  13.319
46874W        W19299   1.410  17.616   4.544
46875W        W19300   3.760   1.806  10.730
46876W        W19301  29.791  44.320   3.771
46877W        W19302  29.589  14.200  13.485
46878W        W19303   9.773  16.748  11.403
46879W        W19304   9.160  36.005   2.831
46880W        W19305   8.988  14.637   0.724
46881W        W19306   0.450  41.298  11.475
46882W        W19307  27.903  42.487   1.357
46883W        W19308  26.593   9.277  14.705
46884W        W19309  34.997   2.490   4.943
46885W        W19310  35.330  37.759   3.694
46886W        W19311  19.139  37.279   4.498
46887W        W19312  26.120  35.859   0.945
46888W        W19313  21.804  39.839   2.364
46889W        W19314  15.080  29.376  12.793
46890W        W19315  10.147  35.510   0.376
46891W        W19316  16.852  25.040  11.487
46892W        W19317  23.195   5.744  13.858
46893W        W19318  22.541  41.588   4.135
46894W        W19319   6.219  44.807  13.584
46895W        W19320   0.691  43.057   0.030
46896W        W19321  34.968   9.860   0.250
46897W        W19322   5.139  35.958   0.737
46898W        W19323   4.456   3.840  11.065
46899W        W19324  39.426  13.962   4.239
46900W        W19325  42.864  11.350  11.755
46901W        W19326  16.178  11.983  13.341
46902W        W19327  33.077  21.786  13.515
46903W        W19328  26.512   8.647   0.918
46904W        W19329  37.850  27.122  11.153
46905W        W19330   5.436  41.237  14.858
46906W        W19331  13.384  10.677   1.631
46907W        W19332  26.277   3.823   1.975
46908W        W19333  44.575  10.564   4.538
46909W        W19334   4.455  11.693  14.536
46910W        W19335  10.851  23.795   4.047
46911W        W19336  33.162  39.060  13.960
46912W        W19337  35.250  13.244   2.854
46913W        W19338  26.760   3.714  11.653
46914W        W19339  28.533   6.052  10.657
46915W        W19340  11.376  16.230   3.206
46916W        W19341  40.586  41.934  14.747
46917W        W19342  18.344   5.711  14.426
46918W        W19343  30.410   6.911  11.583
46919W        W19344  37.547   7.761  13.342
46920W        W19345  26.561   5.037   3.141
46921W        W19346   5.243  14.815   4.119
46922W        W19347  23.678  26.211   1.403
46923W        W19348  32.943   8.496   2.111
46924W        W19349  21.701  27.187  13.025
46925W        W19350  41.201  28.271  11.089
46926W        W19351   5.067  18.238   3.577
46927W        W19352  40.766   5.684  14.512
46928W        W19353  41.556  39.452   1.192
46929W        W19354  21.776  16.697  14.588
46930W        W19355  43.948  43.567  12.574
46931W        W19356  22.105  39.041  11.438
46932W        W19357  36.868   9.717  10.453
46933W        W19358   4.306   1.329  12.409
46934W        W19359  18.789   5.915  11.973
46935W        W19360  10.892   6.143   3.217
46936W        W19361  10.785  29.229  10.776
46937W        W19362  19.508   5.981   1.903
46938W        W19363  28.568  26.101   4.006
46939W        W19364   5.235  23.291   0.952
46940W        W19365  26.943   3.253  13.855
46941W        W19366  14.773  10.898   1.378
46942W        W19367  44.738  31.766   3.847
46943W        W19368  23.756  44.973   2.788
46944W        W19369   3.207  41.801   2.730
46945W        W19370  36.849  43.914   4.416
46946W        W19371  15.071   7.429   1.947
46947W        W19372   0.336  17.848  10.727
46948W        W19373  20.247   2.323   3.232
46949W        W19374   7.101  19.506   0.366
46950W        W19375  35.401   4.144  10.786
46951W        W19376   5.004  16.695  10.987
46952W        W19377  41.229  19.666  10.840
46953W        W19378  41.523  39.307   3.683
46954W        W19379   7.697  36.607   2.244
46955W        W19380  19.532  10.236   1.896
46956W        W19381   3.747  42.197   0.836
46957W        W19382  44.955  34.316  11.890
46958W        W19383   9.909  42.936   1.899
46959W        W19384  41.833  40.052  11.106
46960W        W19385  12.207  22.048  11.621
46961W        W19386  35.382  33.645  12.157
46962W        W19387  38.776  31.546  10.698
46963W        W19388  44.095  30.701   1.557
46964W        W19389  19.177  22.835   4.800
46965W        W19390  13.309  39.320   2.859
46966W        W19391   8.297  15.167  10.769
46967W        W19392  13.621   8.132  11.103
46968W        W19393  24.645  16.781  14.728
46969W        W19394  35.419  27.721  14.349
46970W        W19395  22.646  15.272  13.584
46971W        W19396  26.551  44.817   2.741
46972W        W19397  27.269   2.854  14.047
46973W        W19398  32.925   3.465  14.541
46974W        W19399   0.035  32.446  12.052
46975W        W19400  11.563  17.083   4.591
46976W        W19401  24.635   8.585   3.667
46977W        W19402  12.887  16.805   4.201
46978W        W19403  32.436  13.865   3.836
46979W        W19404  30.917  29.416   0.778
46980W        W19405  17.984  26.171   0.799
46981W        W19406  10.776   2.857   2.752
46982W        W19407  11.194   3.342  13.524
46983W        W19408  44.265   7.772  12.902
46984W        W19409  35.927  31.080   0.443
46985W        W19410  39.602  37.617  13.834
46986W        W19411   0.247  28.894  12.412
46987W        W19412   0.890  16.975  14.239
46988W        W19413   7.312  29.869  13.826
46989W        W19414  12.345   3.424   0.938
46990W        W19415  16.071  38.545  12.091
46991W        W19416   3.836  42.073   1.349
46992W        W19417  15.291   0.743   0.345
46993W        W19418   0.732  44.016   1.163
46994W        W19419  16.546  29.170  13.497
46995W        W19420   9.360  10.750   4.872
46996W        W19421   9.505   8.622  11.336
46997W        W19422   3.203  26.026   3.677
46998W        W19423   7.228   6.147  12.479
46999W        W19424  14.582  22.415  12.455
47000W        W19425  19.795   7.668   0.962
47001W        W19426  22.973   2.802   1.160
47002W        W19427   5.740  33.969  10.525
47003W        W19428  18.204  42.456  11.195
47004W        W19429  42.711  18.267  14.918
47005W        W19430  42.415  10.432   0.871
47006W        W19431   4.617  44.819  12.046
47007W        W19432   2.801  17.804  13.797
47008W        W19433  26.478  33.379  13.239
47009W        W19434  28.007  16.170  12.048
47010W        W19435  28.118  23.681   0.450
47011W        W19436  31.863  10.693  13.389
47012W        W19437   9.754   7.868   0.777
47013W        W19438  13.553   1.905  11.358
47014W        W19439  23.708  20.390  10.671
47015W        W19440  24.009  37.074  11.174
47016W        W19441  38.603   3.365   1.406
47017W        W19442  40.434  44.049  11.142
47018W        W19443  29.266  34.966  12.193
47019W        W19444   6.229  29.092  14.416
47020W        W19445   3.171  41.109   0.147
47021W        W19446  37.513   3.284  13.473
47022W        W19447   2.767   3.974  12.428
47023W        W19448  30.896   4.042   0.949
47024W        W19449   8.507  37.430   2.908
47025W        W19450  12.184   7.687   0.774
47026W        W19451  11.932  23.167   0.181
47027W        W19452   9.790   5.349  14.583
47028W        W19453   4.374  28.104   2.987
47029W        W19454  43.765  14.556   2.090
47030W        W19455  36.429  35.890   1.505
47031W        W19456  21.655  23.612   1.278
47032W        W19457  14.699   9.831   4.679
47033W        W19458  28.616  10.642   1.718
47034W        W19459  20.179  25.592   4.690
47035W        W19460  10.248  15.601   2.155
47036W        W19461  27.983  39.423  14.849
47037W        W19462  16.783   1.172  11.005
47038W        W19463  37.331   6.283  11.060
47039W        W19464  27.914  18.982   2.057
47040W        W19465  41.569  37.430  13.025
47041W        W19466   2.397  43.551  12.652
47042W        W19467  37.412  14.118  11.460
47043W        W19468  36.320  32.501   3.375
47044W        W19469  21.564  38.427  13.444
47045W        W19470   2.562  41.020   3.449
47046W        W19471  24.642   9.768  13.336
47047W        W19472  32.608  30.679   2.387
47048W        W19473   2.493  22.607   1.676
47049W        W19474  42.783  15.764  11.438
47050W        W19475  43.993   4.146   0.063
47051W        W19476  29.090  38.810   2.254
47052W        W19477  41.263  14.309   2.170
47053W        W19478  25.746  41.528   1.315
47054W        W19479  41.914  17.259  12.926
47055W        W19480  39.717  23.483  12.559
47056W        W19481  14.157  41.532   4.780
47057W        W19482  22.746  43.618  13.598
47058W        W19483  24.109  17.008  10.598
47059W        W19484   7.169  43.995   4.709
47060W        W19485  35.050  23.290   2.503
47061W        W19486  15.216  43.550  13.304
47062W        W19487  43.782   6.374  12.787
47063W        W19488  11.841   8.003   2.469
47064W        W19489  43.829  33.481  11.995
47065W        W19490  40.558  35.440   3.345
47066W        W19491  38.475  35.947   4.523
47067W        W19492  19.422   8.612   2.429
47068W        W19493   1.886  42.502  12.906
47069W        W19494  16.419  21.925  13.444
47070W        W19495  12.568   2.428   0.995
47071W        W19496  29.032  29.015   3.586
47072W        W19497  39.384  21.563   3.759
47073W        W19498  17.635  31.304   2.306
47074W        W19499  44.676   4.671  14.995
47075W        W19500  33.656   7.925  12.047
47076W        W19501   3.162  16.112   1.951
47077W        W19502   2.792  17.814  12.017
47078W        W19503  26.209  13.856   0.879
47079W        W19504  12.139  26.564   3.515
47080W        W19505  40.286  25.314  12.402
47081W        W19506  32.645  22.481  13.574
47082W        W19507  44.002  38.146   2.050
47083W        W19508   6.200  42.050   0.299
47084W        W19509   6.242   1.892   3.877
47085W        W19510   6.692  28.024   4.793
47086W        W19511  30.981  14.358   5.193
47087W        W19512  36.781  26.143  12.454
47088W        W19513   4.496   9.051   4.968
47089W        W19514   7.754  30.105  11.444
47090W        W19515  22.559  14.348  12.058
47091W        W19516   0.296   3.128   4.854
47092W        W19517  28.980  38.043  11.165
47093W        W19518   3.833  26.294   3.299
47094W        W19519   8.901  41.825   1.751
47095W        W19520  18.737   1.816   1.477
47096W        W19521   9.531  42.757  12.364
47097W        W19522  24.965  37.452  11.551
47098W        W19523  30.724  41.803  13.041
47099W        W19524  41.222  44.508  11.684
47100W        W19525  19.514  19.800   1.265
47101W        W19526   9.540  18.847   1.803
47102W        W19527  23.014  27.889   4.218
47103W        W19528  15.642  39.934   1.469
47104W        W19529  18.080  43.859  11.144
47105W        W19530  12.292   0.252  13.821
47106W        W19531  11.701  17.743   0.000
47107W        W19532   4.954   9.879   3.260
47108W        W19533  26.604   0.712  12.049
47109W        W19534  12.877  29.565  14.491
47110W        W19535   8.261  35.983   3.913
47111W        W19536  15.628  39.345  13.778
47112W        W19537  32.103  34.693   1.732
47113W        W19538  35.973  37.422   2.201
47114W        W19539  36.698   9.874  13.456
47115W        W19540  32.291  27.985  14.853
47116W        W19541  13.073  23.789  12.452
47117W        W19542  20.103  38.546   1.680
47118W        W19543  15.030  37.584  12.973
47119W        W19544  42.491  24.555  11.452
47120W        W19545  25.269  33.948  11.594
47121W        W19546  30.325  39.507  12.895
47122W        W19547  23.666  40.508   1.306
47123W        W19548   1.470  44.825   3.956
47124W        W19549  13.333  30.158  14.395
47125W        W19550   7.427  27.009  14.745
47126W        W19551   4.816  39.225   2.922
47127W        W19552  27.011   8.349   2.210
47128W        W19553  31.824  27.171  13.161
47129W        W19554  30.135  20.234   1.795
47130W        W19555  29.491  31.902  10.681
47131W        W19556  35.236  30.482  11.052
47132W        W19557  40.029  27.761   0.482
47133W        W19558  39.338  17.813  13.344
47134W        W19559  17.495  25.415  12.444
47135W        W19560  33.845  16.337   3.224
47136W        W19561  43.698  35.089   2.204
47137W        W19562  21.156   1.545   0.095
47138W        W19563   2.551   9.475   2.389
47139W        W19564  42.135  14.179   0.130
47140W        W19565  15.174  39.857   1.896
47141W        W19566  37.374  11.435  12.850
47142W        W19567  38.941  44.364  11.933
47143W        W19568  38.760  39.737   1.847
47144W        W19569  13.257  27.881   1.833
47145W        W19570   3.906  34.123  11.981
47146W        W19571  10.684   7.804   1.203
47147W        W19572  16.813   6.897   4.800
47148W        W19573  25.511   2.932   1.731
47149W        W19574   8.797  29.082  10.675
47150W        W19575  10.108   1.133   4.155
47151W        W19576  34.032  27.607  12.561
47152W        W19577  23.915  33.854  14.250
47153W        W19578  13.752  14.333  12.398
47154W        W19579   7.608   6.205   0.812
47155W        W19580  17.203   5.533  12.630
47156W        W19581  15.196   2.158   4.264
47157W        W19582  17.306  22.368  11.492
47158W        W19583   4.478  21.243  11.284
47159W        W19584  10.363   7.450   1.704
47160W        W19585   7.336  39.047   0.237
47161W        W19586  11.204  34.268  11.648
47162W        W19587  40.373  32.067   2.584
47163W        W19588  40.467   6.660   0.776
47164W        W19589  16.257  19.046  14.831
47165W        W19590  12.858  23.159  14.833
47166W        W19591   0.351  42.210  12.694
47167W        W19592  33.928  18.460  10.821
47168W        W19593   5.616   2.832   1.740
47169W        W19594   4.740   4.158  10.730
47170W        W19595  38.023  19.070  14.407
47171W        W19596  13.623  31.022  13.527
47172W        W19597  40.261  44.828   0.091
47173W        W19598  17.698  20.226  13.546
47174W        W19599  44.664  10.042   4.501
47175W        W19600   0.322   9.357  14.298
47176W        W19601   9.366  10.380  11.611
47177W        W19602   6.814  14.297   0.904
47178W        W19603  12.840  38.526  13.457
47179W        W19604   1.381  15.226   2.491
47180W        W19605  14.107  41.850   3.420
47181W        W19606   1.351  24.526   0.035
47182W        W19607  24.700  28.390   0.720
47183W        W19608  20.876   0.763  14.737
47184W        W19609  12.383   2.793  14.362
47185W        W19610   8.193   7.713  14.408
47186W        W19611  10.759  24.708   4.458
47187W        W19612  23.767  36.061   0.323
47188W        W19613   7.597  43.234   2.733
47189W        W19614  34.114   2.548   1.453
47190W        W19615  26.454  44.413   2.361
47191W        W19616  11.682  18.294  14.747
47192W        W19617   6.513  26.061  13.098
47193W        W19618  35.808  11.877  14.480
47194W        W19619  20.157   0.877   3.638
47195W        W19620  21.851   5.511   2.661
47196W        W19621   3.454  43.767   0.290
47197W        W19622   9.298  24.448  10.719
47198W        W19623  11.678  36.518   2.720
47199W        W19624  37.592   4.460  11.121
47200W        W19625  37.550   4.896   4.741
47201W        W19626  34.980  12.834   0.423
47202W        W19627  11.267  20.264  12.514
47203W        W19628  11.850  13.800   1.993
47204W        W19629   9.767   8.399  13.230
47205W        W19630  43.057  44.162   2.019
47206W        W19631  10.330  27.658   1.783
47207W        W19632  11.748   9.094  13.087
47208W        W19633  38.539  10.711  14.321
47209W        W19634  34.476   0.537  12.516
47210W        W19635  20.146  34.330  14.897
47211W        W19636   1.903  37.475   0.750
47212W        W19637  35.405   9.232   4.315
47213W        W19638  16.915  17.232   0.312
47214W        W19639  28.069  17.511  11.562
47215W        W19640   4.722   4.585  13.805
47216W        W19641  15.620   6.434  11.615
47217W        W19642   8.886  39.322  14.337
47218W        W19643   3.744  18.027   2.690
47219W        W19644  31.342  10.667  13.313
47220W        W19645  44.865  29.370  13.047
47221W        W19646   3.391  11.906  10.432
47222W        W19647   5.003   6.233  12.498
47223W        W19648   2.984  42.827   3.627
47224W        W19649   1.905  20.393  12.609
47225W        W19650  32.468  17.809   3.656
47226W        W19651  24.544  44.476  10.129
47227W        W19652  23.642   1.875  12.458
47228W        W19653  25.001   8.856  10.260
47229W        W19654  20.422  15.189   0.364
47230W        W19655   2.821  36.838   2.829
47231W        W19656   0.942  21.761   0.828
47232W        W19657  24.065  32.487  14.902
47233W        W19658  20.960   5.880   4.247
47234W        W19659  37.578  31.515   0.911
47235W        W19660  21.471  37.329   2.214
47236W        W19661  38.426  42.218   1.288
47237W        W19662   9.826   7.803  10.703
47238W        W19663  34.857  15.369   0.259
47239W        W19664  35.439  21.316  12.607
47240W        W19665   5.423  30.906  10.697
47241W        W19666  27.667  21.513  12.585
47242W        W19667  11.411  21.741  14.948
47243W        W19668  22.242  25.262  12.821
47244W        W19669   7.242  16.823  11.006
47245W        W19670   2.904   0.024  11.494
47246W        W19671  33.889  23.528   4.521
47247W        W19672  35.288   3.098   1.261
47248W        W19673  32.402  10.507   3.302
47249W        W19674   6.027  31.873   2.901
47250W        W19675  36.435   9.340   9.433
47251W        W19676  32.051  20.530   4.373
47252W        W19677  40.421  37.540  14.355
47253W        W19678  36.796  21.096  12.515
47254W        W19679   0.807  33.112  13.345
47255W        W19680  27.991  25.516   2.800
47256W        W19681  38.905  11.408   2.092
47257W        W19682  26.573  23.029  12.493
47258W        W19683  15.489   0.199   3.320
47259W        W19684  24.705  33.535   0.785
47260W        W19685  16.078  19.091   0.355
47261W        W19686  28.973  11.817   4.844
47262W        W19687   4.970   5.065  13.843
47263W        W19688   9.241  23.557   0.242
47264W        W19689  29.092  43.753   3.174
47265W        W19690  26.053  40.807   2.083
47266W        W19691  12.032  33.112  11.553
47267W        W19692  17.043  43.344  12.153
47268W        W19693  16.812   2.431   3.826
47269W        W19694   9.053  30.113   1.864
47270W        W19695  38.954   4.703   2.618
47271W        W19696  35.840  19.531   4.670
47272W        W19697   3.879  41.847  13.737
47273W        W19698  15.713  30.659  12.026
47274W        W19699  22.056  15.748  10.226
47275W        W19700  11.134  20.998   1.194
47276W        W19701  29.598  32.933   4.539
47277W        W19702  20.863  20.250  11.269
47278W        W19703  23.530   1.697  14.902
47279W        W19704  33.088  25.207  14.771
47280W        W19705  35.601  14.475  14.822
47281W        W19706  36.196  16.853  12.557
47282W        W19707  30.131   2.815  12.926
47283W        W19708   4.908  14.471  13.927
47284W        W19709  30.955  20.975  13.845
47285W        W19710  35.885  32.061   2.194
47286W        W19711   6.339  41.434   3.747
47287W        W19712  15.605   0.484   2.788
47288W        W19713  42.016   7.696  11.170
47289W        W19714  25.774  14.266   4.829
47290W        W19715  11.735  42.352   0.265
47291W        W19716  22.984  20.495  13.544
47292W        W19717  20.776  28.691  14.358
47293W        W19718  40.425   9.139   1.900
47294W        W19719  25.543   8.372   0.771
47295W        W19720  17.515   2.854  12.017
47296W        W19721  25.199   3.456   2.860
47297W        W19722  29.838  17.352   4.645
47298W        W19723  38.006   0.545   4.724
47299W        W19724  17.628  25.233  11.984
47300W        W19725  30.728  42.983  14.949
47301W        W19726  15.032  30.010  12.007
47302W        W19727  17.005  18.544  12.717
47303W        W19728  16.626  33.500  12.022
47304W        W19729   9.729  42.165  14.339
47305W        W19730   5.956   7.231  11.598
47306W        W19731  29.953  41.372  11.424
47307W        W19732  37.293  34.943   1.860
47308W        W19733  13.898  26.956  10.575
47309W        W19734  12.209  31.868   1.217
47310W        W19735  37.123   7.422  10.627
47311W        W19736  42.290  21.751   3.078
47312W        W19737   4.042  37.686   3.300
47313W        W19738  23.582  14.182  14.294
47314W        W19739   2.182  35.496  10.650
47315W        W19740  24.847  43.393  13.976
47316W        W19741  32.956  30.913   3.676
47317W        W19742  14.792  16.868   0.868
47318W        W19743  23.326  21.551   0.773
47319W        W19744  42.430  11.926  13.363
47320W        W19745   9.693   9.842   2.479
47321W        W19746  41.097  39.820  12.720
47322W        W19747  20.114  37.156  13.392
47323W        W19748  25.953   0.523   4.550
47324W        W19749  36.159   5.269   0.994
47325W        W19750  26.872   6.267   3.665
47326W        W19751  28.823  32.601  11.134
47327W        W19752  24.590  32.897  11.034
47328W        W19753  14.377  22.532  13.119
47329W        W19754  24.138  37.327   0.521
47330W        W19755  13.664   4.219  14.959
47331W        W19756  18.308  26.221   2.040
47332W        W19757   2.253  30.413   2.753
47333W        W19758  38.842  19.043   4.602
47334W        W19759  33.511  12.606   2.727
47335W        W19760   2.484  11.957   1.529
47336W        W19761  10.149   9.461   2.597
47337W        W19762  35.904  42.062   0.863
47338W        W19763  21.223  35.654   5.300
47339W        W19764   9.669  33.278  11.759
47340W        W19765  24.975  14.704  11.157
47341W        W19766  44.917  19.429  11.251
47342W        W19767  43.512  42.630   5.074
47343W        W19768  32.427  44.988   3.334
47344W        W19769   2.244  27.615  10.483
47345W        W19770  33.618  42.217  12.457
47346W        W19771  10.561  26.019   4.710
47347W        W19772   2.014  15.202   2.926
47348W        W19773  18.091   7.220  11.629
47349W        W19774  15.869  38.944  10.716
47350W        W19775  15.209  36.641  12.801
47351W        W19776  38.514  29.557  11.952
47352W        W19777   2.318  29.512   3.868
47353W        W19778   7.684   7.688  11.948
47354W        W19779  42.161   7.351   0.419
47355W        W19780  42.206  18.229  14.969
47356W        W19781   3.107  23.452   0.169
47357W        W19782   8.420  17.342   2.148
47358W        W19783  27.673  22.057   5.042
47359W        W19784  28.421  13.398  12.635
47360W        W19785  11.365   0.308   2.729
47361W        W19786   2.959  41.831   1.759
47362W        W19787   6.141  21.588   3.888
47363W        W19788   9.083  21.041  13.959
47364W        W19789  21.751  13.976  13.354
47365W        W19790  19.102  29.525   1.926
47366W        W19791  42.997  42.209   0.704
47367W        W19792  41.274  33.449  14.724
47368W        W19793  12.044  42.458  10.728
47369W        W19794  28.958  22.319   4.207
47370W        W19795  42.705   0.731   1.254
47371W        W19796  34.399  24.263  12.927
47372W        W19797  20.071  26.777  13.019
47373W        W19798   2.921  27.411  12.432
47374W        W19799  17.787  30.896   1.027
47375W        W19800  38.153  11.647  13.312
47376W        W19801  32.217  24.900  13.322
47377W        W19802  26.451   3.568   2.407
47378W        W19803  31.550  44.070  12.675
47379W        W19804  33.523  32.170   0.259
47380W        W19805  40.281  25.452  10.601
47381W        W19806  25.131  16.798   1.154
47382W        W19807  40.506   2.405   3.057
47383W        W19808  30.359   6.886  13.081
47384W        W19809  32.048   6.256  10.614
47385W        W19810  44.291  36.478  10.978
47386W        W19811  19.583  18.154  12.890
47387W        W19812  15.719  34.699  10.778
47388W        W19813  33.692  17.046   9.908
47389W        W19814   5.955  44.441   3.942
47390W        W19815  17.741  29.172  12.975
47391W        W19816  27.188  31.148  13.448
47392W        W19817   7.873   1.940   1.454
47393W        W19818   0.864  31.168   0.565
47394W        W19819  31.920  13.653   4.681
47395W        W19820  28.678  41.870   4.581
47396W        W19821  40.186  22.693   1.862
47397W        W19822  28.564  34.575  11.990
47398W        W19823  32.821  16.338   1.411
47399W        W19824  12.626  32.709  11.970
47400W        W19825  36.118   3.938   2.281
47401W        W19826  43.829   6.427  14.187
47402W        W19827  15.767  14.825   1.042
47403W        W19828  37.433  40.287  14.646
47404W        W19829  44.868   7.173   4.318
47405W        W19830  24.119  40.253   0.006
47406W        W19831  23.430   3.650   0.912
47407W        W19832   9.381  44.052  13.363
47408W        W19833  27.013  12.656   1.382
47409W        W19834  26.201   8.692   3.588
47410W        W19835  14.378  11.830  10.782
47411W        W19836  29.977  31.178  10.476
47412W        W19837  44.997   1.411   0.737
47413W        W19838  19.440   1.086  11.625
47414W        W19839  22.185  11.480   3.130
47415W        W19840  33.971  13.101   4.059
47416W        W19841  24.169  39.769   0.523
47417W        W19842  18.089  23.703  14.878
47418W        W19843  21.028  27.168  12.249
47419W        W19844   1.346  40.517  10.749
47420W        W19845  28.085   3.517  13.986
47421W        W19846  33.711  29.218   1.858
47422W        W19847   2.218  14.128  14.213
47423W        W19848  31.162   3.460  12.564
47424W        W19849  25.545   3.281   4.167
47425W        W19850  15.257  34.772   5.279
47426W        W19851  39.650  25.229  13.988
47427W        W19852  16.557  25.029  13.231
47428W        W19853   9.719  20.837   3.201
47429W        W19854  42.752  16.182  11.148
47430W        W19855  32.133  32.917  10.310
47431W        W19856  41.061  27.956   0.342
47432W        W19857  40.294   6.200   1.056
47433W        W19858  18.671   3.849   0.703
47434W        W19859  35.041   6.960  12.425
47435W        W19860  11.675  22.471  14.401
47436W        W19861  38.858  24.922  12.423
47437W        W19862  38.707   1.036  12.487
47438W        W19863  16.873  15.562  14.319
47439W        W19864  21.624  21.631  10.422
47440W        W19865  16.839  17.707   0.619
47441W        W19866  32.809  11.543   1.822
47442W        W19867   0.217  16.640  12.980
47443W        W19868  18.514   8.476  13.371
47444W        W19869   5.896  25.990   0.895
47445W        W19870  12.855  34.004  10.705
47446W        W19871  18.844  27.919   3.568
47447W        W19872  41.810  23.602   0.320
47448W        W19873  24.444   2.835  12.089
47449W        W19874   1.767   0.384  10.846
47450W        W19875  41.313   3.941  13.539
47451W        W19876  23.691  23.193  12.484
47452W        W19877  12.213  37.918   3.797
47453W        W19878   8.214  19.804   1.227
47454W        W19879  36.549  34.896  11.630
47455W        W19880  24.099  24.243   1.736
47456W        W19881  27.068  30.613   0.329
47457W        W19882  14.628  34.382   4.645
47458W        W19883   4.194  44.997   2.291
47459W        W19884  30.669  28.234  11.476
47460W        W19885  37.191  42.451   4.650
47461W        W19886  39.869   4.662  12.076
47462W        W19887   4.778  16.013   0.757
47463W        W19888  44.317   4.810   0.361
47464W        W19889  33.056  28.501  13.091
47465W        W19890   9.133   7.197  12.964
47466W        W19891  37.796  28.995  12.673
47467W        W19892  33.023  35.605  14.828
47468W        W19893  33.055  42.880  13.998
47469W        W19894  15.859  32.593  13.317
47470W        W19895   2.651  44.375   1.311
47471W        W19896  36.895  29.779  11.079
47472W        W19897  29.596  40.943  12.587
47473W        W19898  41.958  22.883   3.542
47474W        W19899  33.153  22.649  14.728
47475W        W19900  24.730  35.717   2.254
47476W        W19901   2.207  17.125  10.228
47477W        W19902  22.927  24.645   0.725
47478W        W19903  19.560  32.177  13.523
47479W        W19904  20.451  35.859   1.482
47480W        W19905  23.063  31.029  11.429
47481W        W19906  43.878  25.927   2.378
47482W        W19907  23.038  42.793   0.318
47483W        W19908  26.155  29.058   1.299
47484W        W19909  29.532  12.787  10.686
47485W        W19910  24.174   5.645   4.543
47486W        W19911   8.406   8.368   0.280
47487W        W19912  32.483  19.963  13.370
47488W        W19913  23.470  20.232   3.570
47489W        W19914  10.820   7.222   3.325
47490W        W19915  31.923  16.735  10.360
47491W        W19916  44.373  39.597  14.313
47492W        W19917  32.148  24.154   2.730
47493W        W19918  18.012  17.747   1.507
47494W        W19919  28.082  19.276  13.688
47495W        W19920  23.311  39.855   2.460
47496W        W19921   4.811   8.581   2.847
47497W        W19922   8.885  29.137   4.005
47498W        W19923  20.554  42.683  13.379
47499W        W19924  36.503  41.811  14.999
47500W        W19925  43.254  34.470   2.780
47501W        W19926   0.507  36.948  12.749
47502W        W19927  34.979  10.229   1.187
47503W        W19928  44.995   9.757  14.271
47504W        W19929   9.741   8.627   1.638
47505W        W19930  12.585  34.924   4.044
47506W        W19931  14.357   0.004  10.965
47507W        W19932  16.148   7.662   4.613
47508W        W19933  11.204  24.178   0.343
47509W        W19934   7.228   4.455   0.808
47510W        W19935  27.020  18.729   0.327
47511W        W19936  33.568  34.991   1.632
47512W        W19937   5.029   6.717   1.742
47513W        W19938  41.845  35.352  12.926
47514W        W19939  40.314  20.497  12.520
47515W        W19940  31.202   9.898   2.100
47516W        W19941  34.878  26.412  14.005
47517W        W19942   7.878   8.185   3.317
47518W        W19943  43.185  33.416   5.113
47519W        W19944  10.310   6.402   1.768
47520W        W19945  27.677   4.847  13.202
47521W        W19946  17.191  16.849  14.042
47522W        W19947  17.106  17.280  11.773
47523W        W19948  40.303  20.101  11.143
47524W        W19949   8.489  33.479   3.050
47525W        W19950  33.732  22.817  10.977
47526W        W19951  28.761  12.226  11.712
47527W        W19952  29.722  33.371  10.391
47528W        W19953   6.321  43.905  14.589
47529W        W19954  21.070  14.610  11.067
47530W        W19955  39.484  33.908   2.823
47531W        W19956  38.903   0.983  11.637
47532W        W19957  16.593  42.737  13.773
47533W        W19958  15.003  18.510  13.760
47534W        W19959  24.253  39.083  13.428
47535W        W19960  18.665   0.871   3.934
47536W        W19961   3.169  11.329   1.924
47537W        W19962   9.589   7.665  11.142
47538W        W19963  41.364   7.643  13.080
47539W        W19964  39.395  11.924  14.800
47540W        W19965  15.832  42.006  13.385
47541W        W19966  18.052  23.118   0.261
47542W        W19967  17.252   7.253   0.459
47543W        W19968  23.102  42.495   0.728
47544W        W19969  11.329  14.830  11.246
47545W        W19970  24.605  32.534   5.557
47546W        W19971  21.686  31.934   4.210
47547W        W19972   6.850  32.833   4.670
47548W        W19973   9.964  14.093  14.918
47549W        W19974  34.078  43.487  14.502
47550W        W19975  21.293  40.744   0.955
47551W        W19976  42.010  30.378  12.456
47552W        W19977  33.006  27.913   2.846
47553W        W19978  13.808  28.605   2.009
47554W        W19979  43.630  39.214  12.159
47555W        W19980  36.864  30.099   3.668
47556W        W19981  41.302   2.994  14.051
47557W        W19982   3.680  19.653   5.092
47558W        W19983  29.981  32.050   3.897
47559W        W19984  27.510  16.340   2.790
47560W        W19985  41.069  41.471  13.861
47561W        W19986  29.341  44.938  13.229
47562W        W19987   4.722  25.001  12.663
47563W        W19988  43.536  35.404   1.234
47564W        W19989  28.935  42.375   1.111
47565W        W19990   1.798  17.038   2.795
47566W        W19991  42.486  39.925  13.278
47567W        W19992  24.705  31.102   2.777
47568W        W19993   0.227  15.137  12.040
47569W        W19994  11.182   8.786   1.704
47570W        W19995  18.497  34.155  14.962
47571W        W19996   4.861  13.779  12.868
47572W        W19997  18.143   4.923   3.100
47573W        W19998  41.023   0.365  13.812
47574W        W19999  27.468  23.746  14.234
47575W        W20000  27.549  20.429   2.377
47576W        W20001   5.418  24.577   1.997
47577W        W20002  41.398  30.745  14.886
47578W        W20003   9.343  43.356   0.858
47579W        W20004  13.223  13.084   1.359
47580W        W20005  41.371  14.861   2.439
47581W        W20006  19.242  42.254   2.916
47582W        W20007   8.592  36.160  10.926
47583W        W20008  37.494  40.640  11.140
47584W        W20009  43.349  21.147  10.685
47585W        W20010   9.362   2.806   0.794
47586W        W20011  30.177  30.075  12.515
47587W        W20012  36.947  18.696  11.995
47588W        W20013   0.814  35.426  14.327
47589W        W20014   3.673  24.649  13.010
47590W        W20015   3.179  39.437  12.960
47591W        W20016  20.770  26.882  12.604
47592W        W20017  38.723   5.537  13.089
47593W        W20018  15.169  15.778  11.457
47594W        W20019  41.748   9.706   0.751
47595W        W20020  42.747  25.700   3.266
47596W        W20021  17.683  11.438   3.186
47597W        W20022  42.938  15.150  14.544
47598W        W20023  24.288  32.075  12.532
47599W        W20024   9.366  11.111   2.191
47600W        W20025  36.633  24.293   0.874
47601W        W20026   2.550   8.867   0.384
47602W        W20027   6.410   2.142  14.333
47603W        W20028  16.069   8.759  14.552
47604W        W20029   7.687   4.309   0.543
47605W        W20030   9.306  12.144   1.472
47606W        W20031  25.345   0.262   0.831
47607W        W20032  20.537  11.167  14.804
47608W        W20033  42.134  41.603  14.822
47609W        W20034  11.564  20.275  13.545
47610W        W20035  42.090   2.968  10.761
47611W        W20036   5.951  19.113   4.161
47612W        W20037   8.399   7.867   0.430
47613W        W20038  26.975  36.595  13.356
47614W        W20039   0.968  39.674  11.906
47615W        W20040   2.506  22.088  10.755
47616W        W20041  17.220  37.544   2.886
47617W        W20042  27.455   0.070  14.578
47618W        W20043   9.130  38.877  10.357
47619W        W20044  37.846   8.968   1.019
47620W        W20045  35.331  27.076  11.163
47621W        W20046  10.377  25.252  13.016
47622W        W20047  42.909  42.417  11.486
47623W        W20048  37.146  29.497   0.226
47624W        W20049  38.028  35.548   3.844
47625W        W20050   6.952  31.784   4.671
47626W        W20051  12.924  42.515   4.739
47627W        W20052  28.091  23.118  10.420
47628W        W20053  19.210  11.364   0.826
47629W        W20054  42.804  40.224  14.257
47630W        W20055  15.663   8.335  13.077
47631W        W20056   3.831  18.160   0.681
47632W        W20057  25.423  13.477   3.675
47633W        W20058  12.023  32.829  12.001
47634W        W20059  25.387  25.014  11.227
47635W        W20060  31.239  30.051   2.842
47636W        W20061  14.309  31.568   3.376
47637W        W20062  39.495  29.282  14.062
47638W        W20063   1.280   0.458  12.305
47639W        W20064   9.090  25.191  11.716
47640W        W20065   7.161  30.667  14.063
47641W        W20066  12.483  26.164  11.756
47642W        W20067  26.986  31.544  14.314
47643W        W20068   2.492  31.536  13.290
47644W        W20069  10.904  17.597  12.675
47645W        W20070  44.716  34.276   0.830
47646W        W20071  10.357  42.676   1.816
47647W        W20072  38.029  41.273  10.512
47648W        W20073   3.341  33.271  13.929
47649W        W20074  32.431  26.616   0.141
47650W        W20075  17.861   1.432  14.402
47651W        W20076  35.530  18.320  14.573
47652W        W20077  35.057  32.873   3.151
47653W        W20078  12.940   9.682  13.481
47654W        W20079  25.772  20.294   4.795
47655W        W20080  23.079  24.003   0.869
47656W        W20081   9.932  39.833   2.742
47657W        W20082  22.030  28.697   1.219
47658W        W20083  39.260   3.807  14.310
47659W        W20084  41.856  19.607  11.560
47660W        W20085  11.840   3.276   4.770
47661W        W20086   9.708  29.723   3.216
47662W        W20087  40.504  29.675  13.920
47663W        W20088  34.869  31.502   4.765
47664W        W20089  23.035  40.859   3.229
47665W        W20090  32.008  25.078  10.945
47666W        W20091  34.923  29.434   0.230
47667W        W20092   3.367  10.045   3.632
47668W        W20093  29.257  31.180  14.451
47669W        W20094  11.659  18.988  13.759
47670W        W20095   3.378  27.680  12.438
47671W        W20096  36.675  32.146  13.903
47672W        W20097   4.152  42.777   3.406
47673W        W20098  41.503   4.759   3.720
47674W        W20099  44.613  11.750   5.147
47675W        W20100   4.894  11.801  11.104
47676W        W20101  44.519   0.034   1.806
47677W        W20102  22.929   1.555  13.627
47678W        W20103  21.506   1.385   4.148
47679W        W20104   3.498   8.454  10.677
47680W        W20105  39.923  17.630  14.718
47681W        W20106  29.675   7.305   1.905
47682W        W20107  20.086  14.768   2.344
47683W        W20108   4.594  25.152  13.231
47684W        W20109  17.267  36.251  10.697
47685W        W20110  13.735  12.676  11.806
47686W        W20111   4.408  24.826   3.374
47687W        W20112   5.352  40.575  12.552
47688W        W20113   3.607  16.926  13.999
47689W        W20114  19.241  39.097  11.944
47690W        W20115  34.691  26.912   1.412
47691W        W20116   4.961  38.449  13.752
47692W        W20117  32.095  41.105   0.669
47693W        W20118  34.993  31.052   0.775
47694W        W20119  39.479   6.885   3.522
47695W        W20120  20.294  24.571   1.829
47696W        W20121   3.698  38.585  12.926
47697W        W20122  28.042  33.452   1.228
47698W        W20123   9.236  30.585  12.764
47699W        W20124  12.285  23.924  13.064
47700W        W20125  38.055  34.903   0.157
47701W        W20126  30.236  37.997   4.174
47702W        W20127  38.426  35.020  10.820
47703W        W20128  11.446  20.833   4.025
47704W        W20129  44.978   0.284   1.798
47705W        W20130  17.620  19.774   1.341
47706W        W20131   7.945  42.754  14.023
47707W        W20132  32.035  36.483   0.800
47708W        W20133  39.305  20.689  13.720
47709W        W20134   0.755  31.651   1.406
47710W        W20135  42.795  29.886  10.989
47711W        W20136  26.949  32.211   0.688
47712W        W20137   7.190  30.131  14.265
47713W        W20138   5.645   1.010  11.947
47714W        W20139  30.464   9.612  11.565
47715W        W20140  36.649  21.342  13.342
47716W        W20141   2.707  35.870  12.531
47717W        W20142   9.828  30.710  10.699
47718W        W20143  26.634  34.752  13.862
47719W        W20144  14.611   1.760  13.850
47720W        W20145  40.067  42.452  14.360
47721W        W20146  39.431  21.828  13.821
47722W        W20147  29.392   9.842  11.569
47723W        W20148   0.849   0.489  10.632
47724W        W20149   3.351  25.248   1.126
47725W        W20150  25.596  21.052  10.136
47726W        W20151  27.100  30.888   1.390
47727W        W20152  18.723  14.186  13.353
47728W        W20153  15.312   3.028  13.388
47729W        W20154  21.124  23.025  14.926
47730W        W20155  32.118   5.315   2.743
47731W        W20156  28.990  44.458  14.431
47732W        W20157  30.362  17.740  11.118
47733W        W20158  10.619  37.426   3.624
47734W        W20159  35.418  10.296  12.356
47735W        W20160   5.239  18.569   4.597
47736W        W20161  24.255  41.901  10.682
47737W        W20162  27.996  37.527  10.650
47738W        W20163  10.288  18.332  11.972
47739W        W20164  38.879  33.581   3.580
47740W        W20165  40.514  44.518   2.102
47741W        W20166  37.290  29.033   0.436
47742W        W20167  11.592   8.865   2.873
47743W        W20168   7.055  41.117   1.982
47744W        W20169  36.001  31.514   1.064
47745W        W20170   4.896  12.470  10.432
47746W        W20171   9.203   8.736  14.372
47747W        W20172   8.272  25.970   4.100
47748W        W20173   0.728  15.229  14.224
47749W        W20174  24.047  15.541  10.661
47750W        W20175  34.603   8.786   3.846
47751W        W20176  36.899  36.160  11.131
47752W        W20177  11.287  44.282   1.895
47753W        W20178  32.125  11.595   4.697
47754W        W20179  40.382  19.092   3.611
47755W        W20180   7.053   1.778   2.302
47756W        W20181  25.475  14.454  11.112
47757W        W20182   4.372   2.493   2.212
47758W        W20183  12.997  27.723  12.886
47759W        W20184  12.141   4.411   0.300
47760W        W20185  35.709   0.650   3.780
47761W        W20186   0.686  17.870  11.117
47762W        W20187  18.176  40.476  12.453
47763W        W20188  21.720  17.577  11.146
47764W        W20189  22.226  33.657  13.114
47765W        W20190  42.476   0.531   4.314
47766W        W20191   0.810  13.950  12.955
47767W        W20192  35.800  27.501   0.849
47768W        W20193   2.559  11.708  10.304
47769W        W20194  33.044   3.561   1.795
47770W        W20195   6.977  27.904  14.467
47771W        W20196   9.658  43.441   2.759
47772W        W20197  38.585   3.028   4.197
47773W        W20198   5.804  39.957   3.408
47774W        W20199  12.800  32.372   2.330
47775W        W20200  23.684  24.159  10.527
47776W        W20201   0.780  38.465  12.096
47777W        W20202  12.359  14.531  11.225
47778W        W20203   8.750  15.275  13.073
47779W        W20204  35.290   7.176   1.038
47780W        W20205   4.706  39.056  11.130
47781W        W20206   6.557  30.462   2.645
47782W        W20207  21.645   8.148  13.739
47783W        W20208  21.223  27.490  11.886
47784W        W20209  13.115   8.445   4.512
47785W        W20210   3.637   7.181  11.034
47786W        W20211   5.728  24.778  12.533
47787W        W20212  11.717  12.804  14.766
47788W        W20213   1.762   6.855  12.475
47789W        W20214   0.210   6.919  13.399
47790W        W20215  30.409  36.858  14.755
47791W        W20216   0.773  42.051  11.889
47792W        W20217  37.657  39.712  13.901
47793W        W20218  37.405  38.417   0.373
47794W        W20219   7.175  23.741  12.607
47795W        W20220   8.429  17.858  11.977
47796W        W20221  41.349  19.719  12.290
47797W        W20222  10.750   3.627  13.524
47798W        W20223   7.300  34.851   3.059
47799W        W20224  36.166   0.838  11.529
47800W        W20225  41.530   8.472   0.789
47801W        W20226   0.374  38.361   2.770
47802W        W20227  38.881  17.118  13.281
47803W        W20228  19.878  15.335   4.035
47804W        W20229  40.121  23.091   4.878
47805W        W20230  25.619  15.271   4.570
47806W        W20231   3.668  34.133   1.168
47807W        W20232   1.369   9.390   2.034
47808W        W20233   1.376  31.995  10.654
47809W        W20234  16.791  16.396   4.033
47810W        W20235   1.913  42.206  14.752
47811W        W20236  42.554  38.477   3.108
47812W        W20237  28.212  41.529  10.270
47813W        W20238  43.737  32.038   0.782
47814W        W20239  36.926  41.500  13.401
47815W        W20240  15.360  36.591  11.271
47816W        W20241  19.695   4.899  13.633
47817W        W20242  23.706  29.197   0.735
47818W        W20243  10.899  30.151  14.377
47819W        W20244   9.564  17.048   0.855
47820W        W20245   8.207   4.951   1.812
47821W        W20246   4.400  39.979  10.701
47822W        W20247  39.840  20.543  12.024
47823W        W20248  17.093   6.448   0.883
47824W        W20249  25.019  14.641   1.289
47825W        W20250   1.497  12.717   0.994
47826W        W20251   6.190   6.855   3.369
47827W        W20252  37.037  36.374   0.848
47828W        W20253  24.210   7.507   1.067
47829W        W20254  28.853  22.613   4.739
47830W        W20255  22.153   1.993  10.319
47831W        W20256   2.317  23.958   0.476
47832W        W20257  39.308  32.577   4.114
47833W        W20258   1.141   1.819  13.048
47834W        W20259  12.594  23.628  13.732
47835W        W20260  27.438  38.495  14.868
47836W        W20261  41.359  41.276   4.485
47837W        W20262   4.956  33.523   4.116
47838W        W20263  34.706   1.751   2.807
47839W        W20264  39.370  15.354  12.997
47840W        W20265  25.408  24.170  12.060
47841W        W20266  44.244   9.205  12.126
47842W        W20267  33.487  18.924  11.893
47843W        W20268   0.311  35.945  14.525
47844W        W20269  23.547  15.770  10.500
47845W        W20270  25.203  39.237  13.489
47846W        W20271  32.699  11.260  11.035
47847W        W20272  32.160  39.006   3.233
47848W        W20273  24.200  17.797  12.935
47849W        W20274   8.175  25.179  10.449
47850W        W20275  44.046  27.012  12.593
47851W        W20276  21.709   0.410   1.263
47852W        W20277  27.576  16.218   3.832
47853W        W20278  13.832   2.963  10.654
47854W        W20279   2.967  14.827  12.707
47855W        W20280   9.800  15.043   4.559
47856W        W20281  27.952  41.264   1.698
47857W        W20282  13.680  19.517   3.786
47858W        W20283  12.073  28.057   0.497
47859W        W20284   3.649  24.425   4.075
47860W        W20285   8.364   1.448   1.324
47861W        W20286  36.762   3.613  13.102
47862W        W20287  13.912  24.604  12.354
47863W        W20288   7.174   2.663   4.478
47864W        W20289   0.333  29.651  14.077
47865W        W20290   4.974  19.012   4.644
47866W        W20291   0.290  12.230  10.676
47867W        W20292  31.024   8.334   0.235
47868W        W20293  20.133  12.585   2.340
47869W        W20294  29.986  21.973   3.712
47870W        W20295   4.901  28.080   2.276
47871W        W20296   5.341  35.329   0.504
47872W        W20297  16.681  26.030  13.979
47873W        W20298  23.624   3.859   1.352
47874W        W20299  20.024  21.925  10.928
47875W        W20300  36.121  26.473   3.876
47876W        W20301  12.333   6.161   4.356
47877W        W20302  10.207  31.148  13.070
47878W        W20303  17.871  21.177   4.485
47879W        W20304  37.154  39.186   0.421
47880W        W20305  41.800  30.540  10.543
47881W        W20306  11.098  13.813  11.829
47882W        W20307  32.943   7.458   2.355
47883W        W20308  37.926   8.821  14.310
47884W        W20309  24.362  32.075   2.776
47885W        W20310  35.721  29.402  10.703
47886W        W20311  16.688  36.412  10.629
47887W        W20312  19.849  17.090   1.909
47888W        W20313  33.012  38.338  11.397
47889W        W20314   4.534  25.999   4.621
47890W        W20315  35.633  14.222   0.279
47891W        W20316   5.018   4.532   1.127
47892W        W20317  19.356  34.761   5.126
47893W        W20318  32.882  36.148   2.333
47894W        W20319   3.077   7.226   3.238
47895W        W20320  18.605  34.361  14.475
47896W        W20321  30.688  28.427   0.857
47897W        W20322  26.717   2.345   5.138
47898W        W20323  22.260  34.971  10.715
47899W        W20324  29.303  14.759  14.624
47900W        W20325  25.009   1.037   1.396
47901W        W20326  26.664  44.421   4.339
47902W        W20327  30.631  27.518  14.374
47903W        W20328  17.926   0.674  11.620
47904W        W20329  11.259  35.357  13.035
47905W        W20330   0.759  20.469   4.316
47906W        W20331  20.962  14.100  11.174
47907W        W20332  31.094  44.994  10.576
47908W        W20333  38.359  27.682  11.542
47909W        W20334   1.152  16.578   2.489
47910W        W20335  38.948  36.397   0.769
47911W        W20336  41.825  18.655  12.542
47912W        W20337  32.818  12.071   2.711
47913W        W20338   8.412   4.449   3.338
47914W        W20339  31.598  22.602   3.882
47915W        W20340  23.928  31.636  13.193
47916W        W20341   6.680  38.941   0.330
47917W        W20342   5.525  39.992   0.917
47918W        W20343  14.419  33.808   5.646
47919W        W20344  43.689  14.780   3.663
47920W        W20345  43.541  22.282  10.083
47921W        W20346   0.297  19.558   1.478
47922W        W20347   9.748  43.335  11.544
47923W        W20348   8.343  18.592  14.474
47924W        W20349  35.347  22.456  13.943
47925W        W20350  32.623   9.740  14.867
47926W        W20351  22.190  36.851   3.319
47927W        W20352  21.303  34.878   1.384
47928W        W20353  12.065  41.543   3.715
47929W        W20354  20.081  43.777  12.441
47930W        W20355  38.773   5.387  12.587
47931W        W20356  39.939  32.385  13.030
47932W        W20357  16.097  13.347  13.015
47933W        W20358  42.436  41.717  11.784
47934W        W20359  25.265  34.325   0.779
47935W        W20360  33.878  29.836  13.922
47936W        W20361   3.365  19.342  12.840
47937W        W20362  17.219  38.537  11.121
47938W        W20363  17.214   7.891   3.845
47939W        W20364  25.042  19.683   1.266
47940W        W20365  44.535   7.072   5.057
47941W        W20366   4.178  13.876   1.319
47942W        W20367  20.328  30.681   2.036
47943W        W20368  34.053  30.470  11.714
47944W        W20369  43.286  15.762  11.511
47945W        W20370  37.468   1.028  11.331
47946W        W20371  39.886   0.436   2.392
47947W        W20372  23.823  35.616  11.170
47948W        W20373  33.110  22.242   0.705
47949W        W20374  37.362   1.549   1.771
47950W        W20375  24.637  15.542  12.028
47951W        W20376  21.348  25.918   2.104
47952W        W20377   0.682  25.460   2.421
47953W        W20378  44.097  13.663  14.904
47954W        W20379  42.828  26.358   4.624
47955W        W20380  36.292  37.855   2.344
47956W        W20381   9.660  21.068  12.035
47957W        W20382  19.732   0.586   2.672
47958W        W20383  24.748  11.201   5.118
47959W        W20384   0.338  30.232   4.169
47960W        W20385  28.669  23.082  14.373
47961W        W20386  42.882  42.911  11.614
47962W        W20387  41.970  36.568   4.782
47963W        W20388  42.495  38.897   3.767
47964W        W20389  22.591  36.821  13.552
47965W        W20390  29.227   2.795   2.999
47966W        W20391   5.870  29.987  12.899
47967W        W20392  44.163   3.717   1.801
47968W        W20393  43.361   2.776   4.557
47969W        W20394  35.854   0.728   2.792
47970W        W20395  26.684  29.997  10.784
47971W        W20396  22.062   4.393  10.971
47972W        W20397   5.707  24.210   0.310
47973W        W20398   7.199  29.755   3.109
47974W        W20399  30.035   7.705  10.843
47975W        W20400   8.703   0.497   0.741
47976W        W20401   7.515  32.595   0.892
47977W        W20402  15.882  37.259  13.310
47978W        W20403  42.336  17.314  14.842
47979W        W20404  30.028  24.921   1.515
47980W        W20405  35.439  40.336  13.403
47981W        W20406  20.594   7.566  11.217
47982W        W20407  18.672   4.510  11.102
47983W        W20408  11.803   3.317  14.102
47984W        W20409  28.881  43.783   4.100
47985W        W20410   5.757  36.081   1.226
47986W        W20411  24.106  23.657   4.505
47987W        W20412  19.753  27.276   3.018
47988W        W20413  41.889   3.075   4.129
47989W        W20414   5.409   2.196  12.789
47990W        W20415  16.612  21.537   0.874
47991W        W20416  19.146  36.423  10.701
47992W        W20417  24.285  39.021  12.391
47993W        W20418  19.134  17.807   0.550
47994W        W20419  17.250  21.367  12.575
47995W        W20420  13.636  31.971   1.284
47996W        W20421  42.074  14.686  13.878
47997W        W20422   9.479  27.134   2.041
47998W        W20423   1.418  29.899  11.885
47999W        W20424  29.558  15.670  14.962
48000W        W20425  17.003   4.119   4.120
48001W        W20426  33.106  14.489   0.964
48002W        W20427  15.614  31.977   1.976
48003W        W20428  40.008  20.191  11.651
48004W        W20429  25.065  23.935   3.074
48005W        W20430  38.005  12.189  13.855
48006W        W20431  20.024  25.474   4.198
48007W        W20432   3.280  31.601   0.885
48008W        W20433   9.175   9.673   0.912
48009W        W20434  30.244  29.238   1.898
48010W        W20435   1.905   8.222   0.768
48011W        W20436   4.364  13.575  11.007
48012W        W20437  19.306  14.159   0.919
48013W        W20438  20.140  30.930  10.445
48014W        W20439  30.096  34.764   5.266
48015W        W20440  25.168   8.809  10.785
48016W        W20441   1.892  25.703   0.394
48017W        W20442  16.845  26.095   2.113
48018W        W20443  20.179  14.271   2.188
48019W        W20444  37.860   0.903   9.929
48020W        W20445  20.284  37.607  13.550
48021W        W20446  18.898  13.341  13.285
48022W        W20447  34.293  43.682   1.809
48023W        W20448  26.603  11.020   3.382
48024W        W20449  11.402  26.701   2.951
48025W        W20450  38.104   9.924   1.873
48026W        W20451  36.069  23.360  12.392
48027W        W20452  22.572  37.430  11.629
48028W        W20453  15.266  17.243  10.667
48029W        W20454  35.684  37.551  11.966
48030W        W20455  13.605  30.463  12.007
48031W        W20456  43.760  24.721   4.112
48032W        W20457   4.302  30.179  11.111
48033W        W20458  37.407  16.080   4.302
48034W        W20459  10.384  39.074   3.751
48035W        W20460  32.172  14.671  11.604
48036W        W20461  26.804   6.780  10.709
48037W        W20462  21.639  35.558   0.410
48038W        W20463  33.064  12.952  12.543
48039W        W20464  28.646   1.572  14.589
48040W        W20465  39.816  26.725   2.393
48041W        W20466  19.460  35.394  13.229
48042W        W20467  24.950  37.844  13.518
48043W        W20468  26.370   9.637   4.621
48044W        W20469  39.362  10.157   0.809
48045W        W20470   6.152  42.930   1.874
48046W        W20471  18.633   9.142   4.803
48047W        W20472  16.419  39.963   4.053
48048W        W20473  19.142   4.102   0.812
48049W        W20474  18.254  14.180   2.409
48050W        W20475  31.662  14.188  13.917
48051W        W20476  39.517  23.146  14.858
48052W        W20477   1.566  44.826   2.940
48053W        W20478  18.284   6.410  14.903
48054W        W20479  42.287  22.219   4.162
48055W        W20480   9.272  16.757  13.071
48056W        W20481  26.002  12.277   2.197
48057W        W20482  42.408  38.234  14.212
48058W        W20483  29.378  25.298  13.529
48059W        W20484  14.100  31.969  14.731
48060W        W20485  14.295   1.471   3.298
48061W        W20486  38.169  16.768  11.387
48062W        W20487  39.070  23.941   0.504
48063W        W20488   6.814  35.114   0.352
48064W        W20489  32.627  13.900  14.133
48065W        W20490   1.570  38.584   2.950
48066W        W20491  24.894   7.324   1.327
48067W        W20492  19.166  26.987   3.596
48068W        W20493  15.774  37.847  11.589
48069W        W20494  39.877  20.651  10.724
48070W        W20495   4.240  26.951   4.781
48071W        W20496  15.486  29.875   3.567
48072W        W20497   0.578  32.528   3.289
48073W        W20498  44.449   0.467  14.070
48074W        W20499  25.456  11.910   4.910
48075W        W20500  22.460  36.799   4.181
48076W        W20501  39.706  11.771  11.662
48077W        W20502   0.026  28.942   3.179
48078W        W20503  32.322  13.601   3.405
48079W        W20504  39.829  30.445  10.754
48080W        W20505   7.868  32.979  10.774
48081W        W20506  44.329  41.767   0.828
48082W        W20507  30.162   5.614   1.857
48083W        W20508  28.998  17.069  11.900
48084W        W20509  34.421  34.633   1.427
48085W        W20510  20.925  34.444   3.649
48086W        W20511   7.459  35.683   2.884
48087W        W20512  14.316  26.886  11.545
48088W        W20513  26.702  33.111   0.041
48089W        W20514  34.036  33.369   3.745
48090W        W20515  13.785  23.138   1.824
48091W        W20516  16.191  20.585   1.217
48092W        W20517  43.759  34.258  12.517
48093W        W20518  29.171  12.394   1.917
48094W        W20519   7.163  25.818  13.865
48095W        W20520   7.240  22.190  12.518
48096W        W20521  28.138  18.038   0.787
48097W        W20522  13.313  21.959  13.499
48098W        W20523  37.160  24.507  11.199
48099W        W20524   1.559  34.817   2.131
48100W        W20525   5.271  22.439   4.045
48101W        W20526  14.788  39.396  14.450
48102W        W20527  39.081  33.412   0.525
48103W        W20528   9.673  12.579  10.844
48104W        W20529  39.347  31.075   4.597
48105W        W20530   2.316  23.718  11.122
48106W        W20531  29.490  44.371  14.502
48107W        W20532   2.323  14.617  14.031
48108W        W20533  36.095  33.854  13.623
48109W        W20534  40.989  28.441  12.963
48110W        W20535  16.256  21.817   4.081
48111W        W20536  31.950  28.577   2.072
48112W        W20537  28.584  31.490  14.888
48113W        W20538   8.455  15.120   4.198
48114W        W20539  13.817  12.178  11.957
48115W        W20540  21.008  15.756  14.278
48116W        W20541  44.581  26.279   1.379
48117W        W20542   0.928  32.257   0.064
48118W        W20543  40.088  42.016   4.781
48119W        W20544   0.875   6.871   0.755
48120W        W20545  30.990  22.791  14.212
48121W        W20546   3.933  24.169  13.017
48122W        W20547  16.141  40.977   4.918
48123W        W20548   6.947  21.644   4.370
48124W        W20549  32.514  19.739  14.873
48125W        W20550  17.169  22.579  13.011
48126W        W20551  33.260  18.217  10.528
48127W        W20552  24.463  13.200  14.745
48128W        W20553  22.306   2.096  11.981
48129W        W20554  35.901   9.383  14.880
48130W        W20555  28.669  32.815   2.819
48131W        W20556  17.391  15.028   0.797
48132W        W20557  24.641  28.911   4.224
48133W        W20558  25.571  39.949  14.001
48134W        W20559  31.862  24.168   4.771
48135W        W20560  15.531  44.037  14.569
48136W        W20561   3.663   0.467  12.441
48137W        W20562   1.444  13.863   4.568
48138W        W20563  44.225   1.913   3.079
48139W        W20564  28.151   6.225  14.457
48140W        W20565  36.312  36.488   2.205
48141W        W20566  35.101  30.877  14.633
48142W        W20567  24.035   4.060  13.776
48143W        W20568  44.934  40.354   1.380
48144W        W20569  31.018  44.209   3.667
48145W        W20570   7.375  28.222  14.436
48146W        W20571  31.074  40.793   5.458
48147W        W20572  14.387   7.975  12.830
48148W        W20573  29.129  25.987   1.694
48149W        W20574  24.960  24.396   0.798
48150W        W20575  29.651   2.447  14.017
48151W        W20576  24.135  10.382  12.069
48152W        W20577   5.124  31.109  11.538
48153W        W20578  37.813  25.077  14.346
48154W        W20579  30.061  30.438  11.004
48155W        W20580  17.587  23.548   4.552
48156W        W20581  44.727  19.548   3.852
48157W        W20582  43.997  34.209   1.702
48158W        W20583  33.483  11.171   2.478
48159W        W20584  23.193  16.384  10.986
48160W        W20585   4.494   9.765  11.097
48161W        W20586   8.300  10.988   0.941
48162W        W20587  42.562  20.191  11.632
48163W        W20588  36.490  20.275  12.461
48164W        W20589   0.934  13.445  12.699
48165W        W20590   5.967  20.657  12.322
48166W        W20591  33.624   3.473   4.251
48167W        W20592  12.857  17.666   4.255
48168W        W20593   9.796  25.290   0.216
48169W        W20594  19.771   5.942  14.431
48170W        W20595  36.128  13.149  11.177
48171W        W20596   0.879  22.753   0.693
48172W        W20597  27.686  18.320   0.807
48173W        W20598  10.681  40.428   2.737
48174W        W20599  15.541   7.167  13.770
48175W        W20600  37.141  25.050   3.196
48176W        W20601  18.153  24.461   0.519
48177W        W20602   6.237  22.016   0.260
48178W        W20603  38.680   3.723   0.876
48179W        W20604   9.686   3.653  12.380
48180W        W20605  14.032  22.527  11.317
48181W        W20606   8.858  13.184  12.081
48182W        W20607  39.547   1.420  13.543
48183W        W20608  29.653  14.727   0.006
48184W        W20609  22.936  40.266   2.434
48185W        W20610  18.703  42.917   1.340
48186W        W20611   6.194  34.270  10.586
48187W        W20612  13.310   6.276   2.904
48188W        W20613   7.323  22.270   2.652
48189W        W20614  14.165  13.641  10.698
48190W        W20615  32.921  10.051  13.038
48191W        W20616   1.185  38.439   1.366
48192W        W20617   2.461  23.406  14.335
48193W        W20618  13.819   1.244  12.847
48194W        W20619   0.446   5.269   1.949
48195W        W20620  10.820  33.077  13.630
48196W        W20621  17.139  24.530  14.299
48197W        W20622  12.892  11.407  13.123
48198W        W20623  22.197   5.738  13.439
48199W        W20624  16.042   9.355  13.930
48200W        W20625  19.634  32.669  10.943
48201W        W20626  11.851  30.024   1.330
48202W        W20627  37.117   2.026  11.092
48203W        W20628  27.029  24.011  14.386
48204W        W20629   8.321  33.394  11.994
48205W        W20630   8.825  23.755   0.534
48206W        W20631  12.889   6.775   0.366
48207W        W20632   2.553  15.281  10.556
48208W        W20633  24.218  21.848   2.362
48209W        W20634  34.693  15.624  13.419
48210W        W20635   0.487   7.715   4.977
48211W        W20636  11.637  43.716  11.899
48212W        W20637  35.459   2.991  10.975
48213W        W20638  21.995  10.842  11.513
48214W        W20639   5.492  43.807   4.507
48215W        W20640   2.571  11.158   3.203
48216W        W20641   6.771  40.894  13.600
48217W        W20642  22.047  35.828   3.463
48218W        W20643  11.167  32.903  12.076
48219W        W20644  27.514  24.141  14.593
48220W        W20645   0.033  21.195  12.461
48221W        W20646  39.357  25.345   4.140
48222W        W20647   3.242   4.262   0.400
48223W        W20648  20.160  21.308   2.328
48224W        W20649  13.162  39.508  13.813
48225W        W20650  27.530  43.502  12.615
48226W        W20651   5.469   7.703  12.423
48227W        W20652  26.016  24.795  14.350
48228W        W20653   6.320  32.857   0.353
48229W        W20654  19.531  25.622   4.216
48230W        W20655  12.613  28.001   2.195
48231W        W20656  23.673  26.788   2.339
48232W        W20657   0.251   5.806  10.648
48233W        W20658  30.515  10.119   2.608
48234W        W20659  28.019  19.306  10.857
48235W        W20660   8.848  38.775  14.366
48236W        W20661   8.723  14.682   4.141
48237W        W20662   6.045  23.952  13.776
48238W        W20663   6.285  19.674   4.968
48239W        W20664  21.720  42.002   0.682
48240W        W20665  43.804  17.834   1.279
48241W        W20666  30.426   7.897  13.537
48242W        W20667   9.632  24.641   0.770
48243W        W20668  20.032  24.999   0.705
48244W        W20669  23.230  24.495   2.178
48245W        W20670  40.415  29.318  10.455
48246W        W20671  40.567  27.946  13.818
48247W        W20672  34.159  26.632  10.729
48248W        W20673   2.104  39.826   4.205
48249W        W20674   6.951   2.929  10.764
48250W        W20675  24.205  39.728  10.669
48251W        W20676  17.676  39.888   3.165
48252W        W20677   3.854   1.649   2.179
48253W        W20678  23.071   6.472  14.395
48254W        W20679  22.769  40.863   3.677
48255W        W20680  23.057  43.284   1.228
48256W        W20681   2.968  28.403  11.154
48257W        W20682  25.178   7.393   3.045
48258W        W20683  24.559  41.474  11.500
48259W        W20684   3.813  30.720   3.722
48260W        W20685   6.087  25.590   9.845
48261W        W20686  22.273   3.881  14.022
48262W        W20687  17.160  44.212   0.721
48263W        W20688  40.680  25.707   2.555
48264W        W20689   8.573  17.429  11.662
48265W        W20690  43.483  11.373   2.617
48266W        W20691   9.856  16.064   4.144
48267W        W20692  13.344  41.389  12.414
48268W        W20693   9.684  29.661  10.748
48269W        W20694   3.337  37.025  13.943
48270W        W20695  10.010  30.427  13.477
48271W        W20696   7.656  34.676  12.007
48272W        W20697  26.243  16.597   2.829
48273W        W20698  17.817   1.357  11.152
48274W        W20699  14.648  25.202  12.017
48275W        W20700  19.298  13.112   1.244
48276W        W20701  26.233  38.591  14.384
48277W        W20702  25.667  10.606   1.898
48278W        W20703  20.865  11.247   3.299
48279W        W20704  36.748   4.865  13.358
48280W        W20705  17.850  42.419  14.342
48281W        W20706  24.173  11.930   1.810
48282W        W20707   2.327  17.720  12.758
48283W        W20708   5.825  24.656   1.228
48284W        W20709  40.486  16.292   0.716
48285W        W20710  37.427  18.684  12.296
48286W        W20711   2.016  33.874  12.322
48287W        W20712  22.428   5.503   4.137
48288W        W20713   2.411  34.012   0.554
48289W        W20714  32.743   2.470   2.410
48290W        W20715   7.292  31.450  11.615
48291W        W20716  37.677  19.682   2.372
48292W        W20717  22.698  11.713   4.049
48293W        W20718  25.217  12.425   1.840
48294W        W20719  33.001  27.068   0.151
48295W        W20720  17.011  36.391  14.891
48296W        W20721  35.412  30.628   1.422
48297W        W20722   1.131   7.573  11.116
48298W        W20723   9.147   2.451  14.079
48299W        W20724  12.217  14.265  12.828
48300W        W20725   8.001  24.020   3.710
48301W        W20726  29.721   0.932  14.798
48302W        W20727  35.964  28.457  12.789
48303W        W20728   1.867  37.962  10.687
48304W        W20729  34.371   3.437  14.516
48305W        W20730  16.490   9.743   1.527
48306W        W20731  23.548  34.219   2.893
48307W        W20732  19.060  12.037  12.878
48308W        W20733  33.202  24.725  12.024
48309W        W20734  29.400  25.058   0.021
48310W        W20735  39.122  12.183   1.463
48311W        W20736   6.839  30.043   2.886
48312W        W20737  43.879  29.570  13.865
48313W        W20738   9.127  30.502   4.556
48314W        W20739   7.994   5.643   0.130
48315W        W20740   7.901  25.757   4.982
48316W        W20741   4.664  35.095  13.029
48317W        W20742  17.249  12.117  13.221
48318W        W20743   4.457  44.067   1.242
48319W        W20744  28.925  37.489   0.530
48320W        W20745  24.677  44.984   2.297
48321W        W20746  10.216  29.606  12.973
48322W        W20747  26.930  18.173  12.462
48323W        W20748  12.162  19.207  11.361
48324W        W20749  42.890  31.087  11.645
48325W        W20750  22.229   3.657  11.645
48326W        W20751  28.128   3.249   1.777
48327W        W20752   7.402  15.795  11.192
48328W        W20753   2.297  15.289  11.439
48329W        W20754   0.903  11.329   2.515
48330W        W20755   9.779  35.455   0.003
48331W        W20756  41.436  18.106   4.984
48332W        W20757  19.273  11.424   4.374
48333W        W20758  43.992   8.518   4.016
48334W        W20759  42.381  24.627   0.240
48335W        W20760  44.813  18.229   1.527
48336W        W20761  11.633  25.882  11.964
48337W        W20762  38.841   5.546   1.709
48338W        W20763  20.935  25.752  12.426
48339W        W20764  40.850  25.119  14.437
48340W        W20765  13.255  25.137  12.043
48341W        W20766  44.292  33.445  10.726
48342W        W20767  29.749  29.414   1.982
48343W        W20768  28.319   6.405   1.023
48344W        W20769   5.690   7.420  12.942
48345W        W20770  43.183  14.193  14.287
48346W        W20771  28.446  12.648   3.811
48347W        W20772  29.867  16.846   1.294
48348W        W20773  40.085  19.543   0.907
48349W        W20774   9.637  19.560   3.733
48350W        W20775  42.793  20.613   3.626
48351W        W20776  42.425  21.476   4.583
48352W        W20777  30.453  40.517   4.676
48353W        W20778  17.038  31.120   1.323
48354W        W20779  34.521   3.440  12.576
48355W        W20780  16.282   3.906   4.647
48356W        W20781  17.824  14.586  14.694
48357W        W20782  29.526  31.648   0.761
48358W        W20783  17.295  40.139  11.457
48359W        W20784  36.076  32.636   0.510
48360W        W20785   2.723  20.273  12.576
48361W        W20786   6.705  42.500   2.202
48362W        W20787   0.316  33.995   2.297
48363W        W20788  44.791  24.668   4.719
48364W        W20789  27.915  40.665  11.108
48365W        W20790  13.836  42.979   2.177
48366W        W20791  21.646  35.937   2.706
48367W        W20792   4.273  14.543  14.274
48368W        W20793  29.115  12.534  11.500
48369W        W20794   0.336  42.870  10.936
48370W        W20795  43.463  38.592   1.916
48371W        W20796  26.718  14.572  11.960
48372W        W20797  26.506  10.699  13.310
48373W        W20798  24.612  31.512  10.954
48374W        W20799   8.857  25.107   3.742
48375W        W20800  40.636   8.851  11.917
48376W        W20801   3.340  19.526  14.697
48377W        W20802  15.592  25.064  14.820
48378W        W20803  28.704  37.706  13.144
48379W        W20804  44.430   2.784  14.524
48380W        W20805  22.116  32.329  13.341
48381W        W20806  40.442  42.478   3.302
48382W        W20807  20.729   9.760  12.297
48383W        W20808  19.271  17.518   3.158
48384W        W20809  10.278   2.718   4.528
48385W        W20810  40.535   2.567  14.814
48386W        W20811  43.300  27.577   0.516
48387W        W20812  18.656  29.882   2.214
48388W        W20813  18.329  26.554  12.454
48389W        W20814  22.578  41.713   0.730
48390W        W20815  41.647  42.495  12.281
48391W        W20816   2.753  12.489  13.571
48392W        W20817   6.834   4.219   2.873
48393W        W20818  40.993  42.233  11.452
48394W        W20819  20.445  44.684  12.354
48395W        W20820  20.634  31.535   3.858
48396W        W20821  30.485  11.769   1.058
48397W        W20822  15.849   6.306   2.364
48398W        W20823  27.231  24.567   3.788
48399W        W20824   0.964   6.995  12.938
48400W        W20825   3.167  11.381   4.079
48401W        W20826  17.050  16.146   3.652
48402W        W20827  35.273  31.154  10.626
48403W        W20828   7.244  29.449   3.820
48404W        W20829   0.779   0.292  11.123
48405W        W20830  13.632   3.771  12.147
48406W        W20831  23.664  43.969  13.402
48407W        W20832  33.442  41.759  12.841
48408W        W20833  25.439  11.359  12.206
48409W        W20834  18.639  42.149  11.315
48410W        W20835  13.793   4.272   3.288
48411W        W20836  34.538  21.230  14.595
48412W        W20837  14.875   8.731   2.114
48413W        W20838   6.218  42.960  12.067
48414W        W20839  22.846  17.899  10.093
48415W        W20840  30.564  44.998   2.721
48416W        W20841  31.135  19.149  11.612
48417W        W20842  28.588  39.074  12.052
48418W        W20843  18.217  35.015   0.949
48419W        W20844  32.912  28.678   3.266
48420W        W20845  22.306  13.442  14.388
48421W        W20846  16.008  35.801  12.880
48422W        W20847  23.190   4.157  12.411
48423W        W20848  15.565   0.368   0.925
48424W        W20849   9.635  29.914  14.636
48425W        W20850  12.811   1.931   5.052
48426W        W20851  34.022  27.999   1.861
48427W        W20852   9.091  16.677   4.089
48428W        W20853  44.749  35.378  12.601
48429W        W20854  36.279  18.321   2.538
48430W        W20855  28.534  32.487  10.680
48431W        W20856   7.507  13.618  14.837
48432W        W20857  24.115  23.736  14.941
48433W        W20858  29.390  41.964   5.029
48434W        W20859  36.042   4.836   0.750
48435W        W20860  16.502  17.801  10.714
48436W        W20861  29.657  12.901  10.164
48437W        W20862  25.456  35.515   4.842
48438W        W20863  35.813   1.395   0.954
48439W        W20864   0.887  18.537   1.311
48440W        W20865  15.848  20.337   0.849
48441W        W20866  34.652  19.720  10.357
48442W        W20867  32.481  25.486   0.887
48443W        W20868  16.507  16.259  13.066
48444W        W20869  41.031  35.576   2.245
48445W        W20870  27.202  36.037  13.477
48446W        W20871  32.424  27.530   0.723
48447W        W20872  13.405  38.359   4.231
48448W        W20873  25.045  23.551  12.511
48449W        W20874   0.791   1.286   3.036
48450W        W20875  35.245  32.965   0.827
48451W        W20876  10.699  32.225  13.613
48452W        W20877  31.060  18.585   4.475
48453W        W20878  25.730   6.858   2.740
48454W        W20879   1.900  36.169   4.144
48455W        W20880  44.654  33.499  11.463
48456W        W20881  15.641  36.061  13.152
48457W        W20882  40.126  41.932  14.482
48458W        W20883   0.205  18.158   0.648
48459W        W20884  37.296   3.290  10.869
48460W        W20885  40.545  13.741  11.635
48461W        W20886  40.023   7.807  14.451
48462W        W20887  31.664  42.297  12.306
48463W        W20888  27.413   2.672   3.235
48464W        W20889  13.395  21.221   1.480
48465W        W20890  26.718  40.220   5.042
48466W        W20891  37.393   6.009  12.884
48467W        W20892  30.457   9.790  14.042
48468W        W20893  40.775  14.301   4.431
48469W        W20894  28.154  39.370  10.618
48470W        W20895  25.858  15.804   1.785
48471W        W20896  40.294  38.886   0.951
48472W        W20897  38.887  44.878  14.006
48473W        W20898  34.012  37.149  10.805
48474W        W20899  30.915  11.384   0.829
48475W        W20900  28.532  24.726  11.208
48476W        W20901  40.509   2.402   1.218
48477W        W20902  25.210  18.124  14.321
48478W        W20903  43.551  13.608  13.570
48479W        W20904  14.691  22.907  12.352
48480W        W20905  20.563  26.245  13.379
48481W        W20906  26.896  28.510  13.286
48482W        W20907  36.975  43.128   4.559
48483W        W20908  35.363  39.510   0.104
48484W        W20909  15.154  32.452  12.958
48485W        W20910  13.187  35.500  13.741
48486W        W20911  15.021  14.873  14.006
48487W        W20912   7.158   0.157  14.882
48488W        W20913   3.669  11.407   1.828
48489W        W20914  43.990  11.891  12.547
48490W        W20915  29.184  34.187  12.546
48491W        W20916   5.198  31.620  11.437
48492W        W20917  37.519  26.694  13.376
48493W        W20918  33.350  40.051   2.828
48494W        W20919  13.688  13.381   2.170
48495W        W20920  14.575   1.911   0.481
48496W        W20921  32.863  27.022  10.736
48497W        W20922  23.660  10.643  14.944
48498W        W20923   2.498  36.860  13.923
48499W        W20924  23.207  27.424  14.918
48500W        W20925   0.574  11.349  13.983
48501W        W20926  37.365   2.386   1.490
48502W        W20927  30.839  42.087  12.604
48503W        W20928   8.807  35.732  11.096
48504W        W20929  40.042   8.811   1.914
48505W        W20930  40.922  28.964   1.619
48506W        W20931  23.772   7.335   0.844
48507W        W20932  10.881  18.495   3.372
48508W        W20933  20.411   2.742  13.345
48509W        W20934   7.968   2.309   4.310
48510W        W20935  23.319  31.340   5.582
48511W        W20936  19.549   4.561   1.731
48512W        W20937  33.927  11.788  14.880
48513W        W20938  36.016  33.748   3.155
48514W        W20939  23.994  41.285  11.435
48515W        W20940  24.944  34.416   4.100
48516W        W20941   3.118  40.887  11.206
48517W        W20942  28.231  39.740   5.377
48518W        W20943   1.491   2.323   0.249
48519W        W20944  10.744  44.463  12.550
48520W        W20945  33.931   6.004   1.258
48521W        W20946  28.868  17.844   3.624
48522W        W20947  34.546  23.789  13.083
48523W        W20948   7.744  38.860  11.990
48524W        W20949  41.267  22.277   5.106
48525W        W20950  19.107  34.874   3.708
48526W        W20951   0.882  34.889  10.309
48527W        W20952  10.599  38.310  13.570
48528W        W20953  20.755  32.873  14.210
48529W        W20954   8.839  16.238   4.546
48530W        W20955  17.367   7.602  13.929
48531W        W20956  31.629   7.021  14.870
48532W        W20957  28.239  32.476   2.789
48533W        W20958  40.531  13.335  14.775
48534W        W20959  39.233  21.234  12.858
48535W        W20960  41.351   6.962  14.399
48536W        W20961  14.464  37.916  12.839
48537W        W20962  40.425  28.049  12.480
48538W        W20963  22.178  28.897  11.180
48539W        W20964   8.991  42.033   5.059
48540W        W20965  35.167  13.910   4.500
48541W        W20966  14.753  17.337  10.722
48542W        W20967  25.231  15.812  13.173
48543W        W20968  21.752   4.964  12.017
48544W        W20969   1.831  29.614   1.681
48545W        W20970   0.461  41.988  14.398
48546W        W20971  25.238  24.611  13.928
48547W        W20972  31.661   5.379  12.413
48548W        W20973   4.947  23.707  12.056
48549W        W20974  44.462  31.661  14.973
48550W        W20975  35.376  29.135  10.993
48551W        W20976  16.603  40.975   2.800
48552W        W20977  27.194   8.726  14.118
48553W        W20978  35.437   1.001   4.088
48554W        W20979  16.440  22.956   1.703
48555W        W20980   6.428   7.938  13.093
48556W        W20981  13.346  44.327   4.582
48557W        W20982   6.164  20.555   1.885
48558W        W20983  14.634  10.636  10.722
48559W        W20984  34.364  43.753   3.840
48560W        W20985  34.980  35.361  14.421
48561W        W20986  30.115  12.140   1.081
48562W        W20987   0.421  28.606  12.963
48563W        W20988  27.661  34.132  13.400
48564W        W20989  35.880  20.978  11.358
48565W        W20990   3.337  44.741   0.414
48566W        W20991  24.733  25.718   4.258
48567W        W20992  29.926  39.775   3.734
48568W        W20993  15.662  20.869   2.646
48569W        W20994  29.034   1.118  13.581
48570W        W20995   3.382   2.327  14.774
48571W        W20996  23.074  12.222   0.394
48572W        W20997  13.176  43.566  14.898
48573W        W20998  19.922  15.825   0.759
48574W        W20999  28.709   9.949   3.477
48575W        W21000  25.851  23.969   3.611
48576W        W21001  30.669  39.565   2.622
48577W        W21002  37.113  32.400   1.721
48578W        W21003  41.378  20.133  11.953
48579W        W21004   5.816  35.365  14.498
48580W        W21005  31.377  40.030  10.074
48581W        W21006  32.213   8.930   2.697
48582W        W21007  24.207  24.613  13.976
48583W        W21008  40.058   3.588  11.181
48584W        W21009  21.725   8.565   5.030
48585W        W21010  26.682  31.406   0.008
48586W        W21011  22.733   9.218   5.487
48587W        W21012  33.197   6.655  14.306
48588W        W21013   7.866  14.844   1.655
48589W        W21014  19.305  18.114  11.238
48590W        W21015  10.564  17.646  10.551
48591W        W21016  26.226  21.560   1.373
48592W        W21017   1.898  30.489  14.936
48593W        W21018  31.108  26.721  10.298
48594W        W21019   4.581   3.449  14.862
48595W        W21020  12.392  13.547  12.169
48596W        W21021  25.189  36.147  12.883
48597W        W21022   0.238  35.229   5.032
48598W        W21023   3.864  40.453   4.383
48599W        W21024  24.984  11.002  11.977
48600W        W21025  19.190  33.780   3.823
48601W        W21026  14.773  34.543   9.669
48602W        W21027  29.391  36.500   4.322
48603W        W21028  27.936  40.166   5.320
48604W        W21029  11.349  13.780   1.802
48605W        W21030  14.159  35.416   0.830
48606W        W21031  44.485  44.858   0.357
48607W        W21032   6.821   2.664   1.438
48608W        W21033  26.179  43.704   4.159
48609W        W21034  26.464  16.068  14.628
48610W        W21035  18.540  37.879   1.333
48611W        W21036  14.266  34.856   0.362
48612W        W21037   0.573  24.950  11.133
48613W        W21038   7.623  17.687  12.407
48614W        W21039  28.157  12.951  10.862
48615W        W21040  20.904  35.393  11.072
48616W        W21041  25.825   9.785  12.795
48617W        W21042   7.269  32.664  14.049
48618W        W21043   7.819  42.682   4.568
48619W        W21044   9.683  13.791   4.217
48620W        W21045  33.002  42.972   5.005
48621W        W21046  33.515  14.652  13.391
48622W        W21047  12.586   0.888   0.904
48623W        W21048  17.253  31.559   1.476
48624W        W21049  14.795  21.986  10.743
48625W        W21050  25.503  41.266   3.245
48626W        W21051  38.962  18.281   1.763
48627W        W21052   8.635  22.872  10.669
48628W        W21053  20.137  13.602   3.550
48629W        W21054   7.305  14.668   3.180
48630W        W21055  33.547  37.482   4.101
48631W        W21056  13.552  21.127   0.987
48632W        W21057  34.390  35.787   3.284
48633W        W21058  25.996  44.858  10.400
48634W        W21059   4.368   7.759   2.845
48635W        W21060  44.309  28.585   1.834
48636W        W21061  43.307  33.368  11.656
48637W        W21062  13.221  19.196   3.203
48638W        W21063   2.028  28.948  12.277
48639W        W21064  11.558  16.614   4.357
48640W        W21065   1.289  35.354   0.264
48641W        W21066  13.879   4.525   0.906
48642W        W21067  23.781  34.176   3.389
48643W        W21068  35.928  16.773   3.842
48644W        W21069  28.485  25.270  12.098
48645W        W21070   8.658  34.105  12.462
48646W        W21071  33.110  24.692  14.987
48647W        W21072   2.857   9.316   0.308
48648W        W21073  14.692  44.443   0.230
48649W        W21074  40.859  33.117  10.621
48650W        W21075  17.830  25.232  14.499
48651W        W21076  21.572  26.149  14.467
48652W        W21077  44.806  35.792  14.465
48653W        W21078  32.676  15.282  12.696
48654W        W21079  36.249  15.112   4.002
48655W        W21080  41.035  36.008  10.732
48656W        W21081   6.764   5.882   1.843
48657W        W21082   0.215  32.454  12.536
48658W        W21083  32.012  15.818   1.022
48659W        W21084  16.844  31.036  12.105
48660W        W21085   5.878  32.126  11.955
48661W        W21086  29.116   4.238   0.830
48662W        W21087  28.895  44.372  11.020
48663W        W21088  23.979  17.377  11.269
48664W        W21089   7.817  11.593  12.577
48665W        W21090   5.844  13.392   0.934
48666W        W21091  20.693   0.513  10.464
48667W        W21092  12.160  32.916  11.097
48668W        W21093  39.630  35.529  11.115
48669W        W21094  11.557  31.540   0.794
48670W        W21095  44.059  44.799   0.716
48671W        W21096  39.336  10.402   1.289
48672W        W21097  20.550  14.533  13.868
48673W        W21098   5.477  13.296   2.205
48674W        W21099   1.170  10.300   1.761
48675W        W21100   3.814   9.190   2.825
48676W        W21101  12.278  12.589   2.387
48677W        W21102  31.274   2.204   3.679
48678W        W21103   9.363  31.072  12.220
48679W        W21104  37.380  26.222  13.540
48680W        W21105  39.474  22.991  10.483
48681W        W21106   6.869  42.260  11.161
48682W        W21107   4.888  40.256   3.081
48683W        W21108  13.263  36.622   1.807
48684W        W21109  20.060  26.437  11.171
48685W        W21110  43.035  24.236  13.303
48686W        W21111  32.069  18.712  12.912
48687W        W21112  43.364   6.885   1.903
48688W        W21113  23.418  22.584  10.411
48689W        W21114  38.489  17.063  11.666
48690W        W21115  37.968  23.469   0.201
48691W        W21116  20.615   9.570  12.792
48692W        W21117   8.208  29.188   4.589
48693W        W21118  21.987  14.869  13.100
48694W        W21119  18.118  35.490  11.415
48695W        W21120  38.107  27.341   2.854
48696W        W21121  40.538  33.880   1.768
48697W        W21122   4.735  38.737   2.760
48698W        W21123  32.383  19.785  14.365
48699W        W21124   1.960   4.503   2.887
48700W        W21125  22.444  40.647   3.282
48701W        W21126  40.084  38.406   1.356
48702W        W21127  21.661  41.784   5.003
48703W        W21128  37.253  20.398  11.805
48704W        W21129  10.868  32.483   4.490
48705W        W21130  25.059  41.927   0.926
48706W        W21131  26.559  33.887  11.592
48707W        W21132  24.628   6.375   2.737
48708W        W21133  31.873   2.833   3.780
48709W        W21134  40.499   8.826   3.181
48710W        W21135   7.834  42.784   3.556
48711W        W21136  19.378  14.752   2.798
48712W        W21137  18.352  19.084   1.883
48713W        W21138   1.953  25.411  14.921
48714W        W21139  40.369  27.522  11.006
48715W        W21140   2.914   3.505  12.586
48716W        W21141  38.996  24.945   2.683
48717W        W21142   4.295  44.913   3.452
48718W        W21143  41.080  13.258  13.366
48719W        W21144  16.795  30.711   0.234
48720W        W21145   5.088  24.402  11.235
48721W        W21146  31.631  29.161  14.526
48722W        W21147  29.014  17.749  14.031
48723W        W21148   2.918   5.189  11.392
48724W        W21149  36.103   3.912   4.535
48725W        W21150   6.828  36.460   1.738
48726W        W21151  32.064   1.041   0.753
48727W        W21152  15.617   1.816   3.037
48728W        W21153  32.840   4.220   3.243
48729W        W21154  44.333  38.987   2.150
48730W        W21155  30.725  14.807  13.474
48731W        W21156   8.713  39.803   3.683
48732W        W21157  18.643  37.014   0.839
48733W        W21158   6.318   6.127  10.266
48734W        W21159  43.040  21.075   2.005
48735W        W21160  23.178  43.509  10.745
48736W        W21161  10.505   2.407   3.697
48737W        W21162  38.455  26.290  12.529
48738W        W21163   5.452  18.517  12.090
48739W        W21164  44.191   5.767   2.779
48740W        W21165  39.364  32.953   2.019
48741W        W21166  29.052  40.806   5.423
48742W        W21167   7.789   6.991  13.597
48743W        W21168   0.262   0.359  14.456
48744W        W21169  15.310  20.015   2.558
48745W        W21170  25.611  23.530   5.217
48746W        W21171   6.932  15.190  13.398
48747W        W21172  18.884  18.633   1.163
48748W        W21173   0.463  39.065  11.996
48749W        W21174  35.992  33.824   0.924
48750W        W21175  26.519  27.635   3.808
48751W        W21176  38.016  40.388   2.610
48752W        W21177  36.660  36.022  12.008
48753W        W21178  34.153  31.111   1.907
48754W        W21179  36.110  16.963   2.156
48755W        W21180  27.501  35.898  14.378
48756W        W21181   6.377  28.891   1.877
48757W        W21182  22.666  43.402  10.855
48758W        W21183  13.181  31.162   4.691
48759W        W21184  12.570  16.561   0.559
48760W        W21185   1.997   3.983   2.875
48761W        W21186  36.475  10.476   5.193
48762W        W21187  32.382  28.486   1.740
48763W        W21188  24.952  15.333   1.905
48764W        W21189  11.407   4.989   3.244
48765W        W21190  20.304  29.495  13.880
48766W        W21191  32.319  16.281  13.947
48767W        W21192  11.947  44.908   3.785
48768W        W21193  16.006  26.474   4.555
48769W        W21194  20.982   8.269   4.220
48770W        W21195  31.942  31.844  12.633
48771W        W21196  16.861  26.300   5.077
48772W        W21197  16.153  26.303  12.049
48773W        W21198  22.044   8.526  13.517
48774W        W21199  22.599   8.432  11.280
48775W        W21200  12.943  31.595   2.739
48776W        W21201  15.103  29.037  11.195
48777W        W21202  10.247   4.844   1.944
48778W        W21203  26.195  29.925   3.695
48779W        W21204   2.009  24.635   2.670
48780W        W21205  13.494  36.017  13.602
48781W        W21206  12.310  38.688   2.089
48782W        W21207  20.423  22.423  14.422
48783W        W21208  18.648  29.074  14.404
48784W        W21209   6.151  43.043  10.822
48785W        W21210  24.462  29.684  10.671
48786W        W21211  13.185   5.198   1.915
48787W        W21212  23.423  19.583  11.204
48788W        W21213   1.653   4.907  11.361
48789W        W21214   9.108  32.797   3.663
48790W        W21215  30.666   7.177  12.335
48791W        W21216  19.162  15.669  14.450
48792W        W21217  17.603  36.648   0.288
48793W        W21218  38.232  15.576  14.499
48794W        W21219   7.735   0.683  14.406
48795W        W21220  14.704   4.235   3.414
48796W        W21221  42.250   9.698   2.598
48797W        W21222   1.523   7.021   2.300
48798W        W21223  39.203  18.050  10.789
48799W        W21224  26.132  35.992  13.095
48800W        W21225  12.893   2.753  14.312
48801W        W21226   2.640  10.503   0.935
48802W        W21227   8.545  13.636   2.633
48803W        W21228   6.389  39.618  13.534
48804W        W21229  39.591   7.925   2.793
48805W        W21230   4.772  24.047   4.584
48806W        W21231  28.964  24.645  10.951
48807W        W21232   9.696  34.767  12.729
48808W        W21233  20.280  36.035   0.906
48809W        W21234  41.688   0.604   0.312
48810W        W21235   3.212  34.580   3.435
48811W        W21236  41.060  36.659   4.142
48812W        W21237  15.602   8.897   0.360
48813W        W21238   2.432  34.916   1.694
48814W        W21239  36.138   9.391  13.016
48815W        W21240  41.091  42.063   4.601
48816W        W21241   0.337  34.940  11.381
48817W        W21242  40.276  15.464   1.892
48818W        W21243  16.167  19.581   0.558
48819W        W21244  36.629  13.893  12.084
48820W        W21245   7.193  11.148  13.075
48821W        W21246  22.583  19.942   1.419
48822W        W21247  21.277  43.463   4.441
48823W        W21248  26.975  44.359  10.211
48824W        W21249  23.090  14.126  14.519
48825W        W21250  43.885   9.866   2.601
48826W        W21251  34.107  29.393   2.687
48827W        W21252  15.369  43.867   3.909
48828W        W21253  26.883   1.866  13.128
48829W        W21254  25.464  26.590   4.613
48830W        W21255  22.132  34.383   3.057
48831W        W21256  20.216  12.831  10.349
48832W        W21257  44.772  41.512  12.496
48833W        W21258  31.583  18.679  12.678
48834W        W21259   2.238  30.192  11.063
48835W        W21260  29.164  40.498   2.176
48836W        W21261   0.789   9.378   1.376
48837W        W21262  44.569  37.504   3.280
48838W        W21263  28.929  12.727   4.511
48839W        W21264   6.700  11.254  11.204
48840W        W21265  18.592  27.725  14.830
48841W        W21266  34.366  38.358  13.471
48842W        W21267   8.920   1.975  13.993
48843W        W21268   5.287  36.632  10.685
48844W        W21269  36.754  11.951  12.992
48845W        W21270  34.287  37.425  12.437
48846W        W21271  22.412  25.900   4.158
48847W        W21272  32.672  41.119   2.782
48848W        W21273  22.449  39.947   0.945
48849W        W21274  43.537   3.365  13.786
48850W        W21275  23.637   1.417   2.851
48851W        W21276   4.531  30.917  11.539
48852W        W21277  16.553  32.215  14.422
48853W        W21278  17.212  43.236   1.238
48854W        W21279  15.197   2.267   2.293
48855W        W21280  29.118  17.850   1.859
48856W        W21281   4.946  10.520  10.663
48857W        W21282   4.114  37.462   2.696
48858W        W21283  44.793  30.853   4.613
48859W        W21284  41.644  36.753   1.097
48860W        W21285  35.968  23.233   0.235
48861W        W21286  24.311   8.759   1.791
48862W        W21287  41.210  11.348  14.401
48863W        W21288  36.765  31.040  13.572
48864W        W21289  21.850  15.622  10.721
48865W        W21290  26.778  31.814   3.639
48866W        W21291   7.135  31.334  13.488
48867W        W21292  30.924  16.261   4.233
48868W        W21293  44.006  35.559  13.192
48869W        W21294  26.550  40.863   4.211
48870W        W21295  40.960  16.229   1.900
48871W        W21296  28.409  34.869   3.264
48872W        W21297  38.579   7.724  12.042
48873W        W21298   0.257  37.929  12.582
48874W        W21299  28.427  27.107   1.957
48875W        W21300   4.949  35.452   0.818
48876W        W21301  24.315  36.102   2.142
48877W        W21302  12.611  44.021  12.166
48878W        W21303   6.812   7.759  14.986
48879W        W21304  24.437  20.500   3.609
48880W        W21305  20.161  36.335  11.127
48881W        W21306   5.889  17.130  14.909
48882W        W21307  11.821  15.851   3.856
48883W        W21308  42.026  36.820  13.155
48884W        W21309   0.789  17.031  14.822
48885W        W21310  43.830  32.095  13.464
48886W        W21311  17.330  24.915   0.232
48887W        W21312  31.797  22.115   0.521
48888W        W21313  19.910  39.045   1.596
48889W        W21314  39.828  21.763  12.935
48890W        W21315  38.035  21.912   0.341
48891W        W21316  41.025  37.165   4.214
48892W        W21317  35.053   0.046  11.562
48893W        W21318  43.931  38.890   2.853
48894W        W21319  22.301  12.879   3.145
48895W        W21320  28.588  17.262   4.253
48896W        W21321   5.980  38.833  10.644
48897W        W21322  40.621  30.788  12.378
48898W        W21323   1.179   7.012   4.173
48899W        W21324  35.170  17.678   2.451
48900W        W21325  30.555  27.391  14.912
48901W        W21326   1.036  42.272  13.427
48902W        W21327  34.593  26.522   1.727
48903W        W21328  43.007  38.006   3.811
48904W        W21329  28.058  41.155  11.268
48905W        W21330  17.864  39.080  11.146
48906W        W21331  44.204  31.382  12.447
48907W        W21332  11.881   5.553  12.616
48908W        W21333  13.139  31.973  12.633
48909W        W21334  22.645  39.089   1.493
48910W        W21335  38.412  29.117   0.030
48911W        W21336  22.223   6.208  10.969
48912W        W21337   7.182  23.828   3.997
48913W        W21338  35.894  19.632  11.988
48914W        W21339  24.998  35.527   1.822
48915W        W21340  27.585  25.786  11.986
48916W        W21341   9.365   3.254   4.040
48917W        W21342  11.946  18.104  14.332
48918W        W21343  10.133   7.912   3.211
48919W        W21344  15.816  40.489  11.290
48920W        W21345  36.116  39.540  14.266
48921W        W21346  20.615  26.436   2.799
48922W        W21347  27.655  43.838  11.178
48923W        W21348  19.269   2.298   0.940
48924W        W21349  23.220  33.099  11.141
48925W        W21350  13.234   9.675   4.209
48926W        W21351  24.668  41.334   4.914
48927W        W21352  29.621  10.343   2.762
48928W        W21353  21.013  28.699   0.528
48929W        W21354  21.029  31.329   0.410
48930W        W21355  16.377   2.528  11.257
48931W        W21356  23.580  34.717  14.513
48932W        W21357  19.775   4.021  12.974
48933W        W21358   7.839  25.949  13.308
48934W        W21359  18.066  14.980  11.604
48935W        W21360  22.690   4.158  14.343
48936W        W21361  10.123  16.676  13.969
48937W        W21362   6.609  39.005   4.667
48938W        W21363  16.634  31.060  13.393
48939W        W21364  20.956  34.550  10.628
48940W        W21365  33.410   7.374   4.321
48941W        W21366   7.290  33.364  12.877
48942W        W21367  21.317  30.115  13.411
48943W        W21368   8.246  42.949   3.866
48944W        W21369  40.689  26.552   0.350
48945W        W21370  20.014  28.686   4.705
48946W        W21371  25.752  28.993   1.590
48947W        W21372   7.918  30.979  13.809
48948W        W21373  41.004  43.658  14.470
48949W        W21374  42.502  31.012  10.413
48950W        W21375  17.661  40.926  13.480
48951W        W21376  19.724  27.380   1.701
48952W        W21377  18.883   0.756  14.267
48953W        W21378   4.420  25.151   0.263
48954W        W21379  42.951  14.154   0.672
48955W        W21380   6.256  13.658   1.166
48956W        W21381  42.463  19.225  10.444
48957W        W21382  26.065   5.878  14.818
48958W        W21383  43.640   3.284   0.277
48959W        W21384   8.803  19.463  12.869
48960W        W21385  34.523  11.321   0.816
48961W        W21386   8.860  13.160   0.637
48962W        W21387  23.262  41.897  13.855
48963W        W21388  15.596   5.945   4.118
48964W        W21389  42.064  23.006   9.660
48965W        W21390  26.180  25.692  11.225
48966W        W21391  31.425  13.308  12.059
48967W        W21392  12.740   6.380   1.623
48968W        W21393  15.551  34.659   2.148
48969W        W21394  42.738   4.786   2.761
48970W        W21395  29.013  34.367   2.751
48971W        W21396   4.131  39.000   1.362
48972W        W21397  28.480  38.141  10.982
48973W        W21398  24.138   2.544   2.333
48974W        W21399  41.916  12.314   2.469
48975W        W21400   7.798  36.197   4.679
48976W        W21401  27.676  21.879   9.657
48977W        W21402  44.660  31.589   4.980
48978W        W21403  38.105   0.847   2.556
48979W        W21404  33.937  27.049  11.818
48980W        W21405  43.730   2.395  13.291
48981W        W21406  23.197  17.115   3.693
48982W        W21407  35.033  23.984   2.732
48983W        W21408  13.253  15.733  14.237
48984W        W21409   8.206  34.797   3.789
48985W        W21410  41.475  22.766  11.062
48986W        W21411  18.113  15.741   4.743
48987W        W21412  25.653  18.576   1.002
48988W        W21413  11.618   6.463  11.976
48989W        W21414   6.303  19.953  11.209
48990W        W21415   4.020   6.849  13.347
48991W        W21416  11.743  22.213   2.163
48992W        W21417  39.740  38.967  14.709
48993W        W21418  15.927  37.975   4.940
48994W        W21419  44.242  15.828   2.625
48995W        W21420  17.814  16.139   4.199
48996W        W21421  34.549  16.521  10.698
48997W        W21422  22.975  42.856   3.150
48998W        W21423  29.214  33.557  12.043
48999W        W21424  19.656  14.524  13.120
49000W        W21425   1.198  20.041   3.369
49001W        W21426   9.200  10.366  12.828
49002W        W21427   6.755  39.501   3.560
49003W        W21428  42.483  14.826   3.015
49004W        W21429  11.706  16.096   2.160
49005W        W21430  15.469  17.233  11.128
49006W        W21431  16.291  23.960   0.921
49007W        W21432  43.892  29.108  11.668
49008W        W21433  19.545  43.891   2.747
49009W        W21434  28.481  43.216   0.945
49010W        W21435   0.503  20.624   1.471
49011W        W21436  29.894  35.361   2.788
49012W        W21437  27.949   2.745  14.200
49013W        W21438  22.471  26.475  14.374
49014W        W21439  28.047  25.684  13.441
49015W        W21440  33.286  42.786  14.458
49016W        W21441  35.469   8.322   5.130
49017W        W21442  23.843  44.358   3.656
49018W        W21443  19.190  36.086  11.096
49019W        W21444  41.246  16.524  14.423
49020W        W21445  22.471   9.729   2.924
49021W        W21446  30.979  19.101   4.547
49022W        W21447   6.188  10.170  10.910
49023W        W21448  44.864  22.217  14.431
49024W        W21449  42.829  40.262   2.185
49025W        W21450  25.165  33.102  14.977
49026W        W21451  44.747  10.307   1.794
49027W        W21452  20.173  22.561   4.566
49028W        W21453  19.544  15.368   1.290
49029W        W21454  15.828  23.196   2.925
49030W        W21455  24.765  21.263  12.937
49031W        W21456  30.506  11.673  12.800
49032W        W21457  25.211  27.301   1.360
49033W        W21458   4.673   5.493  12.994
49034W        W21459  37.605  15.684  12.061
49035W        W21460  32.255  24.419   5.017
49036W        W21461   4.359  26.734   2.838
49037W        W21462  14.972  26.404  14.454
49038W        W21463  40.153  21.222  11.832
49039W        W21464  37.060   0.720   1.301
49040W        W21465  43.283  13.275  14.858
49041W        W21466   7.684  23.733   2.727
49042W        W21467  23.740   8.014  11.335
49043W        W21468   8.734  32.880  14.800
49044W        W21469  40.759  20.129   2.301
49045W        W21470  21.963  26.679   3.661
49046W        W21471   9.347  41.533   2.779
49047W        W21472  40.019   4.111  11.215
49048W        W21473  38.457  41.541  10.681
49049W        W21474  36.017  26.218   2.629
49050W        W21475  11.706  20.443   0.794
49051W        W21476  37.676  38.304  11.500
49052W        W21477  38.152  42.891  14.993
49053W        W21478  44.348  19.011   4.576
49054W        W21479   1.232  16.066   0.746
49055W        W21480  34.466   0.674   0.840
49056W        W21481  38.316  31.151   4.704
49057W        W21482  20.038  12.636   1.407
49058W        W21483  35.337  13.226   0.520
49059W        W21484  12.972  22.464   5.119
49060W        W21485  42.400  11.571  12.000
49061W        W21486  29.980   2.288  13.429
49062W        W21487  11.848  14.763  13.827
49063W        W21488  10.750  21.094  13.804
49064W        W21489  25.513  38.973  10.714
49065W        W21490  24.221   2.692  12.526
49066W        W21491  34.514  39.157   3.622
49067W        W21492  24.628  14.051  11.640
49068W        W21493  34.967   8.882   0.724
49069W        W21494  37.243  14.863  10.663
49070W        W21495   8.845   6.272  10.765
49071W        W21496  22.930  13.158   0.940
49072W        W21497  21.943  24.369  14.835
49073W        W21498   4.953  41.851  14.501
49074W        W21499   9.639  11.856  12.622
49075W        W21500  10.295  25.937   0.848
49076W        W21501  40.503  16.142  12.974
49077W        W21502  28.390  16.826   4.494
49078W        W21503  21.605   1.064   2.846
49079W        W21504   5.965  25.229   1.360
49080W        W21505   6.433   4.832  12.843
49081W        W21506   6.153  44.658   4.651
49082W        W21507  22.167  26.366   5.014
49083W        W21508   9.031  19.752   1.901
49084W        W21509  38.491   2.718  11.778
49085W        W21510   1.752  14.289  12.132
49086W        W21511  31.167  12.951   1.810
49087W        W21512  16.304  23.094  14.986
49088W        W21513   0.852  40.575   4.152
49089W        W21514  35.836  24.171   0.301
49090W        W21515  40.378  19.485  12.591
49091W        W21516  12.696  18.582  12.120
49092W        W21517  27.960  30.012  14.041
49093W        W21518  37.280  11.266  14.328
49094W        W21519  26.571  37.524   2.400
49095W        W21520  22.345  23.023  13.521
49096W        W21521  19.592  34.051  11.652
49097W        W21522  41.465  31.786  10.368
49098W        W21523  13.102  26.880  14.860
49099W        W21524   1.822  18.365  10.721
49100W        W21525  10.370  16.201   2.835
49101W        W21526  27.759  28.183  14.111
49102W        W21527  19.541  21.994  12.158
49103W        W21528  25.071  43.404   2.807
49104W        W21529  14.683  20.473  10.808
49105W        W21530  13.370  26.461   0.851
49106W        W21531  41.477  24.676  13.455
49107W        W21532  42.379  26.560  14.240
49108W        W21533   9.236  23.634   2.192
49109W        W21534  26.347  18.196   1.678
49110W        W21535   6.451   7.481   0.864
49111W        W21536  32.842  23.124   1.093
49112W        W21537  34.146  22.178  14.441
49113W        W21538  22.934  16.319  12.371
49114W        W21539   3.438   9.182  12.653
49115W        W21540  11.631  44.411  13.474
49116W        W21541   1.553  21.623  13.861
49117W        W21542   9.742  15.605  14.937
49118W        W21543  16.566  38.931  11.446
49119W        W21544  37.115  27.787  11.265
49120W        W21545  30.367  38.799   1.403
49121W        W21546  30.348  31.667   4.204
49122W        W21547   7.981  27.622  14.972
49123W        W21548  30.725  25.991  13.423
49124W        W21549  44.770   0.766   4.211
49125W        W21550   9.992  15.105   4.084
49126W        W21551  39.359  21.009   2.590
49127W        W21552  23.027  11.140   4.668
49128W        W21553  30.410  23.963   2.348
49129W        W21554  38.602  31.435  14.179
49130W        W21555  36.838  40.727   2.100
49131W        W21556   8.828  26.450  10.364
49132W        W21557  40.486   6.361   1.905
49133W        W21558  33.133   6.446  13.825
49134W        W21559  31.469  21.726   3.109
49135W        W21560  19.307  40.344   4.281
49136W        W21561   9.833  20.160   1.992
49137W        W21562  23.673  18.015   2.839
49138W        W21563   0.523  39.905   3.900
49139W        W21564  33.347  16.326   1.400
49140W        W21565   1.526  44.982  12.124
49141W        W21566  26.013  42.384  10.438
49142W        W21567  40.079  11.805   0.865
49143W        W21568  18.474  37.514  10.331
49144W        W21569   9.124  11.285  14.901
49145W        W21570  20.037  21.159   0.339
49146W        W21571  11.891  27.799  14.153
49147W        W21572  34.646  31.587  13.945
49148W        W21573  30.559  41.072  14.084
49149W        W21574  23.029  28.885   4.284
49150W        W21575  44.785  32.107   0.744
49151W        W21576  42.415  41.785  12.990
49152W        W21577   2.735   8.147  14.888
49153W        W21578  42.007  40.539  11.112
49154W        W21579   5.487  36.810  12.301
49155W        W21580  26.442   3.103  13.963
49156W        W21581  12.629  37.098   4.513
49157W        W21582  44.444   2.933   4.150
49158W        W21583   6.379  16.488  10.678
49159W        W21584   3.225  15.737   2.833
49160W        W21585  20.516  15.921  14.344
49161W        W21586   8.035  12.765   3.424
49162W        W21587  36.140  35.418  10.787
49163W        W21588  30.331   9.133   2.616
49164W        W21589  40.961  34.710  12.272
49165W        W21590   8.862   2.807   3.900
49166W        W21591  39.506  17.332   2.893
49167W        W21592   6.734  30.917  13.307
49168W        W21593  20.666  10.835   9.589
49169W        W21594  34.896  19.726  11.644
49170W        W21595   5.511  23.144   3.397
49171W        W21596  22.769  34.155   3.697
49172W        W21597  41.507   9.459  10.679
49173W        W21598  38.932  15.789   2.321
49174W        W21599  42.398   2.403  14.929
49175W        W21600  22.960   6.229  11.498
49176W        W21601   1.883  11.194   1.177
49177W        W21602  22.500   2.731   0.733
49178W        W21603   5.935  16.324  14.574
49179W        W21604   8.352  15.065   1.731
49180W        W21605   8.000  17.452  14.217
49181W        W21606  12.699   4.615  12.286
49182W        W21607  16.371  21.082   1.809
49183W        W21608  37.742  34.611   2.650
49184W        W21609  19.460  13.660  11.661
49185W        W21610  37.565  34.636   2.168
49186W        W21611  35.009  25.676   4.678
49187W        W21612  44.822   1.062   1.403
49188W        W21613  28.004  14.935  14.487
49189W        W21614  39.436   8.320  10.774
49190W        W21615  22.129  11.159   1.849
49191W        W21616   7.738  22.178  13.355
49192W        W21617  16.220   9.649  12.997
49193W        W21618   4.014  24.258  11.190
49194W        W21619   4.665  44.536   3.373
49195W        W21620  33.399   7.431   2.623
49196W        W21621  44.456  44.114  12.479
49197W        W21622  41.982  12.556  14.305
49198W        W21623  34.043  34.068  12.897
49199W        W21624  13.962  38.920  12.989
49200W        W21625  31.997  18.872   1.342
49201W        W21626  23.210   1.611   0.782
49202W        W21627  40.616  37.015  14.867
49203W        W21628  28.034  11.593   0.753
49204W        W21629  37.263   3.709  13.034
49205W        W21630  19.666  28.284  14.393
49206W        W21631  27.262   7.924  11.284
49207W        W21632  20.143  11.161   2.859
49208W        W21633   5.875  19.676  11.958
49209W        W21634  18.344  38.701   0.504
49210W        W21635  43.266  30.594  12.932
49211W        W21636  10.646  20.797  11.065
49212W        W21637  27.866   3.985   2.523
49213W        W21638  26.641   7.858   1.299
49214W        W21639   0.048  24.982   0.774
49215W        W21640  40.730   7.211  10.702
49216W        W21641  39.358  14.941   4.635
49217W        W21642   2.317   5.817   3.662
49218W        W21643  37.938   5.112   1.281
49219W        W21644  27.171  27.676  13.857
49220W        W21645  34.429  37.002   2.377
49221W        W21646  40.985  43.376   1.770
49222W        W21647  33.856  25.176  11.568
49223W        W21648   6.256  16.382   0.192
49224W        W21649  28.663  33.678   2.323
49225W        W21650  41.333  22.580   5.533
49226W        W21651  31.962  43.412  14.119
49227W        W21652  18.026  16.038  11.657
49228W        W21653  34.653  21.543  11.134
49229W        W21654  33.833  26.998   1.892
49230W        W21655  43.292   6.865   0.949
49231W        W21656  23.107   5.962  13.358
49232W        W21657  15.009  19.617  12.581
49233W        W21658  16.076  11.333  12.941
49234W        W21659  12.200  27.110   3.656
49235W        W21660  38.688  38.527  11.528
49236W        W21661   6.750  37.215   1.166
49237W        W21662  24.136  14.983  13.424
49238W        W21663  18.105   4.875   2.164
49239W        W21664   8.302  25.393   3.339
49240W        W21665  37.396   2.974  14.490
49241W        W21666  37.037   0.067  11.071
49242W        W21667  35.888  33.143  11.100
49243W        W21668  22.692  43.319   0.815
49244W        W21669  26.414   9.232  11.950
49245W        W21670  33.442  20.010   3.563
49246W        W21671  10.855  20.034  10.523
49247W        W21672  11.708  41.032  10.848
49248W        W21673  15.275  12.798   4.458
49249W        W21674  18.248  39.248  11.651
49250W        W21675  40.722  26.659   2.499
49251W        W21676  35.657  24.373  12.155
49252W        W21677  41.837  21.488  10.709
49253W        W21678  34.943  15.049  14.279
49254W        W21679  29.585  16.149   0.766
49255W        W21680  35.076  39.426  12.924
49256W        W21681   2.703   4.792   3.128
49257W        W21682   8.730   1.423   3.081
49258W        W21683  25.715  38.554  13.637
49259W        W21684  14.605  13.838   1.251
49260W        W21685  30.733  13.484   0.423
49261W        W21686   3.331   9.668  12.815
49262W        W21687  14.661  41.930  14.562
49263W        W21688  17.476  31.799   2.454
49264W        W21689   4.897  15.350   2.791
49265W        W21690  12.823  26.252   0.786
49266W        W21691  13.817   5.895   4.244
49267W        W21692  10.799   4.728   4.226
49268W        W21693  28.958  33.404  14.759
49269W        W21694  44.160  20.180  10.562
49270W        W21695  24.661  36.460   0.301
49271W        W21696  30.899  42.935   5.156
49272W        W21697  13.387  13.149   4.089
49273W        W21698  13.816  28.622  14.123
49274W        W21699   7.396  11.675  12.940
49275W        W21700  44.291  39.797   3.895
49276W        W21701  24.037  33.400   0.467
49277W        W21702  21.511  32.527   2.331
49278W        W21703  19.619  19.601   0.802
49279W        W21704  39.967  43.600  14.389
49280W        W21705  43.082  37.680  11.996
49281W        W21706  11.624   7.331   0.503
49282W        W21707  25.517  21.655   2.409
49283W        W21708   9.787  34.432   4.658
49284W        W21709  39.964  14.226   0.306
49285W        W21710  28.029   0.986   5.307
49286W        W21711  42.745  37.427  14.024
49287W        W21712  23.692  12.991  13.701
49288W        W21713  29.360  17.189   4.511
49289W        W21714  15.681  41.934  14.733
49290W        W21715   2.735  36.427  11.774
49291W        W21716  44.663  38.503   4.684
49292W        W21717  19.957  24.954   3.638
49293W        W21718  28.691  21.021  11.484
49294W        W21719  32.104   6.438   3.252
49295W        W21720  10.168  39.733  11.641
49296W        W21721  40.963   3.558   0.284
49297W        W21722   7.281  11.122   3.517
49298W        W21723  44.288   9.695  13.013
49299W        W21724  26.166  31.189  13.465
49300W        W21725  17.443   8.220   4.855
49301W        W21726  17.056  33.051  13.078
49302W        W21727  16.524  43.941  11.319
49303W        W21728  21.987  34.338  14.721
49304W        W21729  13.530  26.577  11.822
49305W        W21730   4.729  12.041  10.665
49306W        W21731  40.990  38.854   1.709
49307W        W21732   3.697  38.128  11.204
49308W        W21733  33.991  25.300  14.939
49309W        W21734  26.006  17.103  13.063
49310W        W21735  33.907  16.056   4.140
49311W        W21736  10.158  28.831   4.029
49312W        W21737  10.095  42.122   3.148
49313W        W21738  41.327   2.194  12.161
49314W        W21739   0.493  21.615   1.544
49315W        W21740   9.958  17.410  14.493
49316W        W21741  19.763  40.319  14.815
49317W        W21742  18.739  28.487  11.145
49318W        W21743  29.097  30.588  10.300
49319W        W21744  37.845   1.940  12.492
49320W        W21745  35.427  26.825   0.241
49321W        W21746  17.296  42.479  13.019
49322W        W21747  30.933  23.711  11.365
49323W        W21748  19.129  37.648   0.797
49324W        W21749  42.518  29.487  14.324
49325W        W21750  19.553  16.510  11.177
49326W        W21751  12.298  33.564  12.276
49327W        W21752  34.888  23.022   1.875
49328W        W21753  38.704   6.795   2.857
49329W        W21754  23.348  40.547  14.549
49330W        W21755  33.406  42.816  10.011
49331W        W21756  39.948  26.000   3.190
49332W        W21757  37.088   1.242   1.418
49333W        W21758   1.745  43.955  13.977
49334W        W21759  40.924   9.367   3.604
49335W        W21760   8.705   7.806  14.499
49336W        W21761  39.654  42.144  14.515
49337W        W21762  20.476  20.107  13.006
49338W        W21763  22.028  23.620   1.702
49339W        W21764  23.548  28.664  12.042
49340W        W21765  25.769  38.461   4.163
49341W        W21766  28.077  36.446   2.934
49342W        W21767  25.106   5.180  12.501
49343W        W21768  16.252  36.797  14.331
49344W        W21769   0.782  17.268  13.337
49345W        W21770  11.734  11.412  13.955
49346W        W21771  33.480  39.369   2.045
49347W        W21772   2.885  41.775  13.757
49348W        W21773   7.147  39.884   2.733
49349W        W21774  10.635  21.783   0.368
49350W        W21775   6.689   3.909  13.423
49351W        W21776  26.994  25.708  11.641
49352W        W21777   3.442  15.273   2.933
49353W        W21778   2.131   1.781   4.541
49354W        W21779  29.607  32.366   2.583
49355W        W21780  39.959  37.782   3.253
49356W        W21781   6.373   9.607   0.448
49357W        W21782  19.773  16.201  10.833
49358W        W21783  34.463  20.160   1.777
49359W        W21784  36.140  27.443  11.541
49360W        W21785  24.583  22.678   4.223
49361W        W21786  30.398  20.130  10.541
49362W        W21787  19.579  19.144  12.722
49363W        W21788  44.214  38.939  13.780
49364W        W21789  28.744  27.522   1.922
49365W        W21790   0.798  34.725   4.584
49366W        W21791  28.072  20.717  12.619
49367W        W21792   2.926  39.474  11.566
49368W        W21793  41.744  13.707   4.989
49369W        W21794  31.230   8.301   3.393
49370W        W21795  35.012  21.279   0.374
49371W        W21796  22.746  27.658   4.636
49372W        W21797  35.103  40.124   1.695
49373W        W21798  18.879  38.816  10.323
49374W        W21799   8.710  20.487   0.835
49375W        W21800   2.871  10.556  10.985
49376W        W21801  20.321  20.093  14.726
49377W        W21802  24.547  26.663  14.676
49378W        W21803   2.824  13.873   4.032
49379W        W21804  24.552  17.334  13.513
49380W        W21805  37.260   8.555  13.115
49381W        W21806  10.633  41.061  14.466
49382W        W21807  39.955   2.440   3.204
49383W        W21808  21.992  32.905   2.765
49384W        W21809   7.431   1.519  11.999
49385W        W21810   5.871  24.426   0.760
49386W        W21811  38.449  13.622   3.368
49387W        W21812  26.932   3.891  14.904
49388W        W21813  26.235  34.600   4.603
49389W        W21814  19.164  33.535  14.155
49390W        W21815   4.117  31.196  13.935
49391W        W21816  24.594   0.326  11.036
49392W        W21817  26.846  29.989  14.977
49393W        W21818   6.425  39.713   2.096
49394W        W21819  36.917  20.139   4.809
49395W        W21820   0.250  32.941   3.393
49396W        W21821   6.685  17.340  12.873
49397W        W21822  10.907  39.320  11.108
49398W        W21823  28.675  34.470  13.337
49399W        W21824  19.680   7.957  12.929
49400W        W21825  42.976  23.801  13.551
49401W        W21826   8.610  21.017   3.699
49402W        W21827  42.832  12.268  13.191
49403W        W21828  32.244  26.322   3.431
49404W        W21829  33.604  36.341   2.319
49405W        W21830   4.521  34.957   1.618
49406W        W21831   9.949   4.286  13.353
49407W        W21832  19.231  20.272   4.118
49408W        W21833  42.565  16.728   3.997
49409W        W21834  34.854   7.783  13.183
49410W        W21835  44.438  11.149  13.234
49411W        W21836  40.639  20.706   4.444
49412W        W21837   9.803  35.847   1.349
49413W        W21838  14.591  25.163  12.811
49414W        W21839  24.495  26.651  12.966
49415W        W21840   7.615  23.560   4.754
49416W        W21841  15.308  33.513   4.598
49417W        W21842  25.672  27.859   4.317
49418W        W21843  17.367   8.203  14.558
49419W        W21844   2.827  36.707   3.684
49420W        W21845  11.617  33.486  11.597
49421W        W21846  14.750  23.768   2.102
49422W        W21847  17.110  19.026   4.579
49423W        W21848   2.729   8.599  10.097
49424W        W21849  25.429   4.986  14.374
49425W        W21850  25.039   8.212   0.736
49426W        W21851   7.441  44.331   3.948
49427W        W21852  12.451   1.673   2.240
49428W        W21853  23.324  28.349   2.621
49429W        W21854   9.462   4.413   2.336
49430W        W21855   1.023  39.165   3.714
49431W        W21856  22.067  36.653  13.443
49432W        W21857  32.016  37.857   2.577
49433W        W21858  29.135   1.737   3.174
49434W        W21859  29.598  17.340   3.615
49435W        W21860  35.967   4.890  10.741
49436W        W21861  37.893  14.799   4.307
49437W        W21862  43.499  19.605   0.018
49438W        W21863  37.954  12.455   4.713
49439W        W21864  21.698  24.682   3.899
49440W        W21865  11.596   8.147  12.838
49441W        W21866  36.414   9.736  10.242
49442W        W21867  14.766   0.008  14.356
49443W        W21868   4.236  34.918  13.970
49444W        W21869  23.773  10.206   3.822
49445W        W21870   6.727   4.662  14.283
49446W        W21871   9.146   7.270   1.732
49447W        W21872   9.486   1.703  14.712
49448W        W21873  24.080  11.186   0.406
49449W        W21874  40.104   1.725  11.203
49450W        W21875   9.350  11.521   3.169
49451W        W21876  29.526  32.347  14.784
49452W        W21877  29.395   0.322   4.590
49453W        W21878  34.182  41.369  13.916
49454W        W21879  39.866  27.601  14.480
49455W        W21880   2.481  25.978  12.586
49456W        W21881  18.667  32.458   1.380
49457W        W21882  21.663  19.471   0.400
49458W        W21883  38.294  25.053  11.592
49459W        W21884  17.346  39.484  14.199
49460W        W21885  10.772  40.602   0.614
49461W        W21886  15.361  14.605   1.921
49462W        W21887   3.729  16.365  14.915
49463W        W21888  13.859   9.867   2.869
49464W        W21889  42.484  29.899   2.054
49465W        W21890   7.248  44.751  13.530
49466W        W21891   2.164  23.202   3.202
49467W        W21892  32.431  24.109   2.001
49468W        W21893   0.855   1.376   1.668
49469W        W21894   4.979  40.013  13.116
49470W        W21895  30.458  31.370  10.704
49471W        W21896  42.050  14.691  11.919
49472W        W21897  18.175  23.174  10.399
49473W        W21898   4.545  38.274   2.620
49474W        W21899  10.719  44.497  13.558
49475W        W21900  24.538  33.401  13.035
49476W        W21901  34.549  13.811   1.626
49477W        W21902  34.340  43.912  14.770
49478W        W21903  26.122  41.260   4.407
49479W        W21904  44.706  23.466   4.234
49480W        W21905  20.129  28.580  11.128
49481W        W21906   1.916   7.468  14.886
49482W        W21907  44.793  42.262  11.081
49483W        W21908  27.005  38.554   1.945
49484W        W21909   8.677  36.400   1.376
49485W        W21910  22.506  36.490  12.488
49486W        W21911  29.695   5.701  12.469
49487W        W21912  16.623  20.582  14.368
49488W        W21913  22.203   5.935   4.378
49489W        W21914  29.282  23.708   5.158
49490W        W21915  32.716   7.047   1.357
49491W        W21916  26.913  43.907  10.477
49492W        W21917  26.648  31.665   0.461
49493W        W21918  33.459  33.432  12.960
49494W        W21919  31.451  39.514  12.900
49495W        W21920   8.235  28.908  11.538
49496W        W21921  25.947  20.666   3.786
49497W        W21922  26.333  12.552  10.234
49498W        W21923  44.360   9.262   4.092
49499W        W21924  32.127   7.505  12.070
49500W        W21925  22.615  25.138  13.141
49501W        W21926   7.478  34.931   0.603
49502W        W21927  25.777  43.340   1.678
49503W        W21928  20.978   4.794   2.308
49504W        W21929  24.500  31.506   1.767
49505W        W21930  18.327  22.441  11.510
49506W        W21931  30.020  27.132  14.598
49507W        W21932   4.415  18.588   2.367
49508W        W21933  44.249  11.460  12.340
49509W        W21934   3.026  20.185   0.875
49510W        W21935  21.266  27.934   4.602
49511W        W21936   0.848  35.106   1.240
49512W        W21937   4.535  10.526  13.298
49513W        W21938  21.815  36.852   3.758
49514W        W21939  15.187  16.044  12.907
49515W        W21940  42.842  19.123   0.208
49516W        W21941   8.681  41.371  13.412
49517W        W21942  31.925  26.887  12.261
49518W        W21943  30.690   5.685  12.003
49519W        W21944   2.712  14.899  14.262
49520W        W21945  39.649   3.794   1.935
49521W        W21946   8.073  25.007  14.432
49522W        W21947  41.718   3.836  11.924
49523W        W21948  19.563  28.382   3.189
49524W        W21949  36.320  35.588   4.661
49525W        W21950  40.559  27.938   3.198
49526W        W21951  42.671  12.280  13.672
49527W        W21952  35.583  24.755  13.495
49528W        W21953  41.912  37.832  12.987
49529W        W21954  36.853  25.120   2.206
49530W        W21955  44.230  13.992  11.206
49531W        W21956  26.771  10.695   3.768
49532W        W21957  19.159  15.334  11.034
49533W        W21958  15.159  24.967   4.088
49534W        W21959   3.802  17.161   2.244
49535W        W21960   7.977  20.087   3.267
49536W        W21961  16.208   4.639   4.096
49537W        W21962  29.913  23.098  12.854
49538W        W21963  20.632  41.416   0.746
49539W        W21964  27.144  17.911   1.458
49540W        W21965  11.233  37.363   1.486
49541W        W21966  43.769   6.379  10.996
49542W        W21967   8.944   2.943  14.014
49543W        W21968  23.157   2.352   4.378
49544W        W21969  30.598  27.171  11.444
49545W        W21970  10.608  12.810  10.402
49546W        W21971  28.943  41.387  11.235
49547W        W21972  22.620  43.130  13.509
49548W        W21973  39.819   2.542   2.445
49549W        W21974  26.534  26.702  12.320
49550W        W21975   6.326  38.547  14.425
49551W        W21976   8.698   7.284   2.183
49552W        W21977  29.078  39.081  10.935
49553W        W21978  33.868  33.516   2.211
49554W        W21979  39.412  14.593  13.544
49555W        W21980  22.116  11.561  10.257
49556W        W21981   9.062   4.593  13.812
49557W        W21982  33.180   1.322   1.361
49558W        W21983  17.093  25.752  12.465
49559W        W21984  21.580  39.252  12.119
49560W        W21985   1.885   1.763  12.376
49561W        W21986   9.284  29.022   2.915
49562W        W21987  22.692  26.161   3.279
49563W        W21988  40.836  26.674  13.864
49564W        W21989  23.783  22.776   3.603
49565W        W21990  42.488  43.952   0.823
49566W        W21991  22.002   0.666   4.343
49567W        W21992  11.136  40.391   1.732
49568W        W21993  19.544  40.423  11.547
49569W        W21994  26.694  40.539   1.354
49570W        W21995  26.718  35.593   1.369
49571W        W21996  15.754  30.016   2.100
49572W        W21997  13.193   7.337  13.411
49573W        W21998   8.612  24.110   2.376
49574W        W21999   3.212   2.883  12.320
49575W        W22000   2.969   6.138   0.984
49576W        W22001  34.505   6.635  14.963
49577W        W22002  31.848   1.375  12.606
49578W        W22003  27.502  37.866   3.145
49579W        W22004   1.228  36.167   4.592
49580W        W22005  19.683  12.694   2.617
49581W        W22006  42.758  21.171   0.996
49582W        W22007  24.673  39.478   0.444
49583W        W22008  22.965   6.974   2.282
49584W        W22009  30.692  12.611  14.413
49585W        W22010  28.407  23.213   3.780
49586W        W22011   0.594  25.634  12.923
49587W        W22012  40.374  17.720  13.399
49588W        W22013  15.415  34.347  13.027
49589W        W22014  25.597  26.966  11.063
49590W        W22015  39.487  29.899   3.654
49591W        W22016  19.190  24.033   3.075
49592W        W22017  38.327  29.770   2.624
49593W        W22018  34.698  34.002  10.800
49594W        W22019  41.379   2.468   0.779
49595W        W22020  35.140  22.039   3.205
49596W        W22021  28.628  39.427   2.312
49597W        W22022   1.380  11.839   0.862
49598W        W22023  43.449  32.152   2.931
49599W        W22024  23.628   7.831  13.178
49600W        W22025   8.163  25.944   2.128
49601W        W22026  42.543  41.921   4.650
49602W        W22027   7.944  34.220  10.283
49603W        W22028   9.087  32.554  11.642
49604W        W22029  40.930  14.718   2.133
49605W        W22030  33.583  25.003   2.383
49606W        W22031  30.946   5.391  14.082
49607W        W22032  34.093  41.410  12.427
49608W        W22033  42.242   1.850   0.834
49609W        W22034  19.290  39.289   2.183
49610W        W22035  30.132  12.601  13.104
49611W        W22036   9.424  21.249   3.357
49612W        W22037   8.956  40.066  13.082
49613W        W22038  37.946  21.169  14.895
49614W        W22039  30.445  36.107  12.504
49615W        W22040  10.837  44.528   0.787
49616W        W22041  22.154  34.880  12.080
49617W        W22042   3.554   8.556  11.487
49618W        W22043  15.209  38.889   0.874
49619W        W22044  44.102   1.601  10.493
49620W        W22045   3.937   3.879  14.257
49621W        W22046  24.866  43.443   0.636
49622W        W22047  41.289  11.921   3.281
49623W        W22048   2.292  37.817   4.272
49624W        W22049  39.993  11.348   3.655
49625W        W22050   3.689  32.883  12.403
49626W        W22051  30.685  23.916   4.076
49627W        W22052  13.627   3.171  14.813
49628W        W22053  42.517  22.527   0.791
49629W        W22054  19.689  31.050  14.462
49630W        W22055  41.228  42.818  12.132
49631W        W22056  30.656   5.294   0.032
49632W        W22057  16.050  25.099  11.885
49633W        W22058  38.064  24.447   0.490
49634W        W22059   0.383  41.297   0.766
49635W        W22060   2.255  11.603  13.513
49636W        W22061  12.582   1.919  13.787
49637W        W22062  22.432  37.906   1.962
49638W        W22063  28.904  32.916  14.940
49639W        W22064  43.104  18.610  12.003
49640W        W22065  20.932  39.800   1.723
49641W        W22066  42.877  28.961   1.248
49642W        W22067  32.211  14.604   4.619
49643W        W22068  32.168  36.087  14.049
49644W        W22069  37.473  39.044  14.624
49645W        W22070  25.726  15.608   2.287
49646W        W22071  26.979  21.551  14.259
49647W        W22072  39.867  26.409  12.510
49648W        W22073  33.369  11.869   2.257
49649W        W22074  20.745  33.588  12.918
49650W        W22075  16.790   4.538  14.297
49651W        W22076  40.379  17.634  10.993
49652W        W22077   3.536  19.222   3.875
49653W        W22078  27.490   1.036  14.264
49654W        W22079  40.056  23.057  12.565
49655W        W22080   9.187  33.813   4.596
49656W        W22081  38.014   6.926  10.574
49657W        W22082   8.465  26.145  11.664
49658W        W22083   0.429   3.239   0.514
49659W        W22084  28.120  44.059   1.193
49660W        W22085   7.436  24.066   3.060
49661W        W22086  44.989  20.079  11.952
49662W        W22087   7.615   0.952  14.818
49663W        W22088   5.915  41.502   3.457
49664W        W22089  34.127  35.115   4.264
49665W        W22090  32.667   6.781  11.003
49666W        W22091   3.225  29.075  13.842
49667W        W22092  25.669  36.672  12.061
49668W        W22093  29.738   5.228   4.646
49669W        W22094   5.862  37.904  14.837
49670W        W22095  11.697  19.658   2.664
49671W        W22096  22.551  10.242   1.491
49672W        W22097  43.014   9.402  11.621
49673W        W22098  27.955  42.504   0.128
49674W        W22099  25.488  20.118   3.460
49675W        W22100  24.939  29.024   0.246
49676W        W22101  40.257  37.824   0.458
49677W        W22102  30.993  31.837  10.666
49678W        W22103  36.678  19.056  14.792
49679W        W22104  13.897   0.245  14.836
49680W        W22105  24.475  19.308   3.754
49681W        W22106  41.298  12.170   1.288
49682W        W22107  43.682  15.655  13.736
49683W        W22108   1.198   9.631  14.479
49684W        W22109  44.301  24.623   4.468
49685W        W22110  35.643  34.797   2.687
49686W        W22111  27.932  26.779  13.370
49687W        W22112  29.918  41.106   5.129
49688W        W22113  14.341  23.227   1.875
49689W        W22114  36.718   1.117  12.452
49690W        W22115  25.616  35.111   4.559
49691W        W22116  14.081  40.384   3.218
49692W        W22117  18.907  42.616   1.816
49693W        W22118   4.522  38.435  14.042
49694W        W22119  30.615  28.472   2.332
49695W        W22120  43.981   5.810   3.608
49696W        W22121  31.519  42.169   0.210
49697W        W22122  41.564  22.604   1.847
49698W        W22123  15.871   6.382   0.442
49699W        W22124  17.824  38.901  11.950
49700W        W22125  26.854  40.492   1.865
49701W        W22126  33.165   8.877   0.482
49702W        W22127  42.905   8.694   0.720
49703W        W22128   6.712  18.818   4.120
49704W        W22129  35.269  27.620   4.571
49705W        W22130  31.429  38.378  11.986
49706W        W22131  42.880  10.250   2.939
49707W        W22132  33.627  23.471   0.333
49708W        W22133   6.045  40.187   3.828
49709W        W22134   2.737  35.898   0.783
49710W        W22135  41.435   9.300   2.425
49711W        W22136  24.500  19.991   3.245
49712W        W22137  12.696  39.905  13.946
49713W        W22138   9.912  19.702   5.133
49714W        W22139  16.648  25.046  12.706
49715W        W22140  14.376  24.135  12.400
49716W        W22141  13.520  39.893  13.354
49717W        W22142  13.577  11.441   3.719
49718W        W22143  26.222  41.514   2.825
49719W        W22144  12.269  15.022  12.241
49720W        W22145  37.749  20.721   2.416
49721W        W22146   3.067   0.409  11.131
49722W        W22147  33.022  16.579   4.208
49723W        W22148   1.450  14.139  12.581
49724W        W22149  23.728  44.890  11.572
49725W        W22150  25.074  39.995   2.767
49726W        W22151   2.932  23.221  14.118
49727W        W22152  16.631   8.255   0.863
49728W        W22153  16.194  32.944  13.528
49729W        W22154  26.007   7.553  11.183
49730W        W22155  38.901  35.341   4.228
49731W        W22156  43.736  13.713   0.922
49732W        W22157   2.776  42.213  13.202
49733W        W22158   2.577  35.455  11.486
49734W        W22159   4.314  15.608   1.355
49735W        W22160  13.121  38.970   0.677
49736W        W22161  31.784   7.853  12.029
49737W        W22162  25.522   9.839   3.574
49738W        W22163  37.503   0.335   3.305
49739W        W22164  18.114  28.695  11.661
49740W        W22165  26.479  40.450   2.255
49741W        W22166  42.769  10.660   0.233
49742W        W22167   4.305   0.670  11.336
49743W        W22168  40.538  32.365   4.421
49744W        W22169  37.477   3.771   4.714
49745W        W22170  14.149  13.183   0.478
49746W        W22171  32.986   0.703   0.939
49747W        W22172  11.930  25.741   2.359
49748W        W22173  18.047  11.068  14.854
49749W        W22174   3.284   2.825   0.523
49750W        W22175  18.519  23.558   4.070
49751W        W22176   3.423  43.713  14.297
49752W        W22177  39.829  25.675   2.304
49753W        W22178  38.559  27.573   2.832
49754W        W22179  38.290  26.641  13.809
49755W        W22180   7.657  26.925   1.228
49756W        W22181  19.566   5.810   3.953
49757W        W22182   0.199   3.967   1.742
49758W        W22183  25.156   3.293  13.555
49759W        W22184   8.192  19.195  10.583
49760W        W22185  22.254  31.901   1.319
49761W        W22186   9.493  39.759  11.981
49762W        W22187   9.221   7.523  14.783
49763W        W22188  36.943  44.290  11.571
49764W        W22189  12.448  44.920   1.947
49765W        W22190  40.402   1.793   2.279
49766W        W22191  26.196  33.879  11.220
49767W        W22192  39.763  14.886  12.448
49768W        W22193  38.522  24.659   1.889
49769W        W22194  10.235  26.552   3.189
49770W        W22195   1.117  43.212   5.129
49771W        W22196  30.545  31.045  12.076
49772W        W22197  17.796  42.003   2.073
49773W        W22198  31.328  29.574  14.428
49774W        W22199  19.198   0.536   1.958
49775W        W22200  31.439  31.868  12.425
49776W        W22201  37.803  34.490   4.045
49777W        W22202  12.410   9.902   2.712
49778W        W22203  15.094  11.813  14.605
49779W        W22204  38.998  34.827   2.766
49780W        W22205  29.076   7.766   0.584
49781W        W22206  10.308  39.480   2.603
49782W        W22207   2.854   0.351   0.224
49783W        W22208  44.417  18.823  12.327
49784W        W22209   6.161  17.067  11.440
49785W        W22210  12.253  10.238   0.352
49786W        W22211  14.196   5.374  13.595
49787W        W22212  23.007  25.992  13.966
49788W        W22213  14.341  30.004   3.058
49789W        W22214  40.481  33.820  14.119
49790W        W22215   6.702  38.496   0.632
49791W        W22216  26.716  33.338  14.317
49792W        W22217  21.410  12.492  13.042
49793W        W22218   2.774  17.575  12.479
49794W        W22219  29.524  27.418   3.293
49795W        W22220  34.624   7.908  10.716
49796W        W22221  42.711  14.752   2.062
49797W        W22222  26.598  40.056   1.088
49798W        W22223  40.546  22.547   3.127
49799W        W22224  13.368  28.089  13.417
49800W        W22225  21.786   2.146  11.774
49801W        W22226  29.279  21.538  14.946
49802W        W22227   9.688  15.992   3.258
49803W        W22228   5.696  21.158   1.896
49804W        W22229   5.242  16.271   0.731
49805W        W22230  18.081  12.145  10.431
49806W        W22231   3.902  15.823  11.044
49807W        W22232   0.190  38.443   0.875
49808W        W22233  14.822  18.682   1.847
49809W        W22234  30.424  16.172   4.142
49810W        W22235  34.976  15.877   0.402
49811W        W22236  17.867   3.172  13.797
49812W        W22237  18.463  34.029  11.127
49813W        W22238  26.978  10.452  12.512
49814W        W22239  18.579  20.719  11.408
49815W        W22240  13.175  41.018   0.785
49816W        W22241  41.691  19.953  12.884
49817W        W22242   5.894  19.082   3.098
49818W        W22243  37.208  17.318  11.560
49819W        W22244  42.246  33.210   2.223
49820W        W22245   6.223   1.313   0.423
49821W        W22246   0.966  36.471  14.298
49822W        W22247  39.355  33.563  12.972
49823W        W22248  34.503   4.958  10.960
49824W        W22249  41.157  39.885   3.127
49825W        W22250  10.277  27.020  10.638
49826W        W22251  29.483  36.116   1.872
49827W        W22252  30.058  19.745   4.439
49828W        W22253  34.832  16.169  12.475
49829W        W22254  31.121  15.406   3.764
49830W        W22255  13.197  26.665   1.298
49831W        W22256   1.327  36.841   4.048
49832W        W22257  21.062   3.702  12.812
49833W        W22258   2.077  31.520   3.210
49834W        W22259  10.021   8.457   0.451
49835W        W22260  18.035  36.064  12.643
49836W        W22261  24.537   0.456  12.992
49837W        W22262  12.367  17.370  13.301
49838W        W22263   6.294  31.833  11.193
49839W        W22264  43.107  10.551  14.827
49840W        W22265   0.538  32.371  12.050
49841W        W22266  12.689  29.902   1.680
49842W        W22267   1.306  37.907   2.878
49843W        W22268  16.585   4.224   1.229
49844W        W22269  30.639  33.765  14.166
49845W        W22270  31.713  43.426  11.974
49846W        W22271  43.619   1.421  11.549
49847W        W22272   2.990  40.283   2.855
49848W        W22273   0.058  11.184  11.575
49849W        W22274  23.286  12.665   3.215
49850W        W22275  42.306  21.206  10.662
49851W        W22276  31.615  29.857  11.206
49852W        W22277  39.444  23.296   2.657
49853W        W22278   6.412   3.319   3.284
49854W        W22279  22.125  44.453  13.814
49855W        W22280  13.708  29.943   4.679
49856W        W22281  12.159  19.254  12.895
49857W        W22282  26.567  11.658   1.568
49858W        W22283   4.805  13.440   3.226
49859W        W22284  36.117  44.750  13.434
49860W        W22285   3.488  10.309  12.131
49861W        W22286  22.610  27.165   4.527
49862W        W22287  17.167  24.362   3.154
49863W        W22288  31.450  20.032  11.634
49864W        W22289   7.717   4.095   4.420
49865W        W22290  28.965  20.194  10.972
49866W        W22291  40.315  28.849   1.856
49867W        W22292  28.474  37.541   3.357
49868W        W22293   0.028  37.089  12.914
49869W        W22294  35.672  42.001   3.242
49870W        W22295  18.132  17.598   4.623
49871W        W22296  23.834  16.245  12.090
49872W        W22297  13.721   4.988   4.687
49873W        W22298   8.894  43.033   0.885
49874W        W22299  23.501   3.359   1.383
49875W        W22300  38.433  16.749  13.935
49876W        W22301   1.885  16.681  11.955
49877W        W22302  18.700  37.959   2.962
49878W        W22303  23.566  23.510  12.082
49879W        W22304   2.205  25.980   1.355
49880W        W22305   2.267  14.651  13.500
49881W        W22306   8.249   7.746   4.472
49882W        W22307  32.481   6.265  10.885
49883W        W22308   2.011   5.299   2.305
49884W        W22309  11.339  37.410   2.889
49885W        W22310  15.159  44.121   1.112
49886W        W22311  12.756   3.222   0.037
49887W        W22312  24.522  13.788   3.145
49888W        W22313   2.766  28.187  12.676
49889W        W22314   6.756   6.851  14.536
49890W        W22315  26.754  28.596   3.903
49891W        W22316  33.875   7.860  14.504
49892W        W22317   2.866  34.045   0.270
49893W        W22318  32.432  11.470  10.627
49894W        W22319  22.139  38.480  11.808
49895W        W22320   9.928  22.376   1.496
49896W        W22321   3.347   2.735   3.750
49897W        W22322   4.608  29.490  14.486
49898W        W22323   2.520  32.002   1.730
49899W        W22324  23.040   3.899  11.442
49900W        W22325  23.408  13.701   4.724
49901W        W22326  24.674  29.481  12.134
49902W        W22327   2.804  39.794   3.667
49903W        W22328  27.228   4.678   2.303
49904W        W22329  19.677  23.168   1.443
49905W        W22330  36.331  42.930  11.879
49906W        W22331   0.807  35.351  14.864
49907W        W22332  31.623   3.675  12.446
49908W        W22333  36.764  27.762  12.130
49909W        W22334  12.596  23.556  14.238
49910W        W22335  40.284  26.816   1.676
49911W        W22336  18.057   0.739  12.110
49912W        W22337  14.712   3.015  10.886
49913W        W22338  33.477   3.320   3.201
49914W        W22339  43.263   6.442  12.509
49915W        W22340  25.190  44.600   3.766
49916W        W22341  18.615  32.544   1.906
49917W        W22342  41.567  13.856  13.352
49918W        W22343  34.071   3.995   3.560
49919W        W22344  37.503  25.929  11.022
49920W        W22345  18.496  36.708   0.424
49921W        W22346  43.976  37.408   2.669
49922W        W22347   1.975  38.234   2.813
49923W        W22348  12.881  30.515  13.466
49924W        W22349  17.716  22.342  14.862
49925W        W22350  41.930  17.711  14.073
49926W        W22351  42.545  18.282   2.562
49927W        W22352  10.504  15.773   0.435
49928W        W22353  22.266  26.350  12.307
49929W        W22354  39.479   5.607  14.996
49930W        W22355  23.204   8.604  13.781
49931W        W22356  14.144  26.560  13.067
49932W        W22357   9.406   4.488   4.146
49933W        W22358  32.385  19.141  12.946
49934W        W22359  29.735  14.147  10.880
49935W        W22360   9.412  14.072  13.464
49936W        W22361  21.208  12.343  13.494
49937W        W22362   2.187  38.760   3.322
49938W        W22363  39.649  43.287   0.536
49939W        W22364  16.794  16.629  14.289
49940W        W22365  44.383  18.088   1.263
49941W        W22366   0.825  32.621   2.683
49942W        W22367  38.479   6.227   5.111
49943W        W22368  13.233  37.267  14.490
49944W        W22369  33.768   8.957  13.196
49945W        W22370   3.177  35.536  10.617
49946W        W22371   8.921  13.410  12.538
49947W        W22372   8.366  38.864   2.744
49948W        W22373  29.565   6.160   3.201
49949W        W22374   0.908  32.633  13.100
49950W        W22375   6.169  19.687  14.398
49951W        W22376   5.930  22.383   2.273
49952W        W22377  44.430   6.241  12.512
49953W        W22378   7.461  10.901  13.503
49954W        W22379   6.074  22.878  10.934
49955W        W22380  28.234  20.431  10.656
49956W        W22381  34.017  18.418   0.146
49957W        W22382  14.309  26.674   4.127
49958W        W22383   9.829  35.536  13.305
49959W        W22384  18.108   8.857   2.650
49960W        W22385  16.981  37.532   9.844
49961W        W22386   9.897  20.338  12.615
49962W        W22387  39.413  15.753   0.186
49963W        W22388  39.992  26.567  12.004
49964W        W22389  33.344   7.704  14.416
49965W        W22390  20.235  13.827  11.262
49966W        W22391  40.487  30.856   0.689
49967W        W22392   9.208  10.430   2.633
49968W        W22393  25.041   3.832  11.537
49969W        W22394   9.382  27.696  13.977
49970W        W22395  32.536  42.048  12.566
49971W        W22396  13.610   8.609   1.444
49972W        W22397  22.164  38.519  14.294
49973W        W22398  35.657  36.440   1.464
49974W        W22399  18.229  44.835  11.676
49975W        W22400  44.358   5.765  12.672
49976W        W22401  21.529  35.730   2.257
49977W        W22402   7.314  38.377  12.464
49978W        W22403  39.399  28.927  10.340
49979W        W22404  10.066  12.532  12.027
49980W        W22405  31.187  43.358  11.096
49981W        W22406  24.881  39.045   1.868
49982W        W22407  41.057  25.620   0.496
49983W        W22408  13.976   0.442   5.397
49984W        W22409   4.230  37.525  13.296
49985W        W22410  23.529   8.663   2.247
49986W        W22411  31.247  42.547  11.241
49987W        W22412  43.053  25.925  11.951
49988W        W22413  39.011  30.143  11.963
49989W        W22414  15.805  38.582  13.671
49990W        W22415  41.588   2.764  13.026
49991W        W22416  14.385  20.713  10.437
49992W        W22417  41.122   2.403  11.632
49993W        W22418  20.590   4.795   0.451
49994W        W22419  37.974  21.895  12.458
49995W        W22420   2.977  21.654  11.956
49996W        W22421  16.272   0.019   2.230
49997W        W22422  16.713  26.542  10.690
49998W        W22423  41.091  44.009  11.632
49999W        W22424  29.895   2.029  14.886
50000W        W22425  41.655  31.645  10.875
50001W        W22426  27.318   5.419   4.009
50002W        W22427  14.165   9.932   4.629
50003W        W22428  18.684  19.640  13.722
50004W        W22429  37.290  12.386   2.883
50005W        W22430  43.914   5.040   0.126
50006W        W22431   8.966  43.348   1.809
50007W        W22432   2.463  35.457  13.473
50008W        W22433   9.797   3.550   4.224
50009W        W22434  13.628   0.698  14.901
50010W        W22435  11.761  15.409  13.462
50011W        W22436  22.023  12.417  10.636
50012W        W22437  35.404  32.460  13.773
50013W        W22438  21.979  21.461   4.244
50014W        W22439  28.570  24.467  14.422
50015W        W22440  36.621  36.207  10.683
50016W        W22441  29.053  31.808  13.103
50017W        W22442  22.033  40.647  13.404
50018W        W22443   9.259  22.556   0.395
50019W        W22444  26.604  32.304   3.695
50020W        W22445  37.345   7.214  11.053
50021W        W22446  18.805  25.124  14.514
50022W        W22447  24.627  11.765   3.875
50023W        W22448   9.764   9.699  12.375
50024W        W22449  25.854  23.967  11.937
50025W        W22450  16.641   5.308   3.829
50026W        W22451  12.668  13.035  14.774
50027W        W22452  23.596  25.939   3.736
50028W        W22453  11.401  16.952  12.174
50029W        W22454  43.209  37.960  13.232
50030W        W22455   9.715  14.708  12.758
50031W        W22456   5.395  41.020  12.328
50032W        W22457  15.546  33.773  12.929
50033W        W22458  36.386  33.384   1.382
50034W        W22459  30.994  10.284  13.416
50035W        W22460  20.442  43.981  13.462
50036W        W22461  20.890  36.777   4.967
50037W        W22462  43.290  35.840  12.038
50038W        W22463   4.145  14.761   2.658
50039W        W22464   4.847  33.661  10.727
50040W        W22465   5.805  36.520  13.230
50041W        W22466   8.778  36.835   3.134
50042W        W22467  17.303   1.349  14.300
50043W        W22468  34.033  32.697   2.476
50044W        W22469   3.522  35.884  14.890
50045W        W22470  24.587  24.071   2.354
50046W        W22471  36.091  29.626   2.300
50047W        W22472   1.491   6.063  13.212
50048W        W22473  19.763  30.063  13.380
50049W        W22474  16.115  30.086   1.194
50050W        W22475  31.381  27.158  13.407
50051W        W22476  31.068  39.606  11.935
50052W        W22477  42.739  33.514   3.587
50053W        W22478  19.149  13.339  14.266
50054W        W22479  31.116   3.399  14.072
50055W        W22480  29.906  42.943   4.571
50056W        W22481   6.168  20.097  13.243
50057W        W22482  23.945  33.884   1.462
50058W        W22483  36.544  25.689   2.151
50059W        W22484   2.777  27.541  13.298
50060W        W22485  16.042  41.481   3.159
50061W        W22486  29.363  17.102   1.465
50062W        W22487  30.826   7.300  14.345
50063W        W22488  22.634  10.086  12.375
50064W        W22489  22.354   0.936   3.700
50065W        W22490  24.225  37.489  12.061
50066W        W22491   4.995   1.369   1.434
50067W        W22492  31.998   5.963   2.454
50068W        W22493  27.698   3.160  14.023
50069W        W22494  35.937  25.268  12.975
50070W        W22495  17.184  42.569   0.490
50071W        W22496  34.503  13.076   0.748
50072W        W22497  13.887  21.143   2.222
50073W        W22498  27.937  12.833   0.754
50074W        W22499  37.578  36.818  11.654
50075W        W22500  17.588   4.948  13.401
50076W        W22501   3.700  33.888  13.309
50077W        W22502   7.832  30.137   0.888
50078W        W22503  32.223  44.713  13.969
50079W        W22504  27.737   0.872   4.100
50080W        W22505  21.164   7.833   4.626
50081W        W22506   5.161   4.735  11.644
50082W        W22507  38.334  21.924   1.816
50083W        W22508  11.964  33.925   0.618
50084W        W22509   7.700   1.753   3.619
50085W        W22510   4.286  41.946   4.558
50086W        W22511  30.607  41.195  10.663
50087W        W22512   1.920  36.510  14.515
50088W        W22513  36.450  10.542   1.882
50089W        W22514   5.767  15.660  13.198
50090W        W22515   1.095  10.778  10.598
50091W        W22516  37.387  14.649   2.893
50092W        W22517  10.888   7.344  10.464
50093W        W22518  40.131  24.233  13.844
50094W        W22519  24.523  44.238   4.665
50095W        W22520  29.019   1.631   0.987
50096W        W22521  13.343   8.428   2.334
50097W        W22522  15.218  32.860  14.962
50098W        W22523  11.802  24.132   9.992
50099W        W22524  30.642  40.052  11.154
50100W        W22525  43.994  34.663   2.234
50101W        W22526  12.879  28.606   0.894
50102W        W22527   4.941  42.460   4.220
50103W        W22528  18.666  27.368  13.938
50104W        W22529  22.616   2.298   3.090
50105W        W22530  43.867   3.040   3.799
50106W        W22531  44.036  35.034  14.419
50107W        W22532  19.061  35.876  13.845
50108W        W22533   2.201  17.059   4.953
50109W        W22534  36.350  21.026   2.378
50110W        W22535  21.488  33.815   0.967
50111W        W22536   2.421  42.420  12.862
50112W        W22537  11.075  32.343   3.061
50113W        W22538  22.669  27.060  13.088
50114W        W22539  25.071  37.269   2.383
50115W        W22540  21.497  11.799  14.587
50116W        W22541  40.531  32.081  13.802
50117W        W22542  33.412  33.721  14.632
50118W        W22543  28.356  41.882   5.007
50119W        W22544   2.862   3.889   0.303
50120W        W22545  38.478   8.124  10.628
50121W        W22546  26.983  10.507  13.450
50122W        W22547  18.696  30.685  10.239
50123W        W22548  25.997  11.192  10.864
50124W        W22549  12.829  43.037  13.942
50125W        W22550  36.566  20.460   2.803
50126W        W22551   4.920  22.217   4.347
50127W        W22552  22.275  38.851   3.830
50128W        W22553   1.663   9.463  14.305
50129W        W22554  38.450  23.727  11.854
50130W        W22555  43.978  14.155  14.761
50131W        W22556  15.085  11.656  12.935
50132W        W22557   7.416  35.105   1.083
50133W        W22558  27.961   8.458  14.305
50134W        W22559  33.579   5.104  12.649
50135W        W22560   2.820  43.007  11.111
50136W        W22561  20.928   3.629   4.461
50137W        W22562  16.391  30.152  13.500
50138W        W22563  18.017  27.361  13.452
50139W        W22564   3.761  19.039   2.251
50140W        W22565  41.840  11.616   4.669
50141W        W22566  43.483  31.625   0.977
50142W        W22567  43.617  22.277  13.590
50143W        W22568  43.807   5.838   1.218
50144W        W22569  34.442  14.222  12.202
50145W        W22570  43.777   4.248   3.206
50146W        W22571  12.868  31.695  12.002
50147W        W22572  35.587  16.811   3.405
50148W        W22573  21.714   6.627  13.432
50149W        W22574  42.190   1.273  10.934
50150W        W22575  21.691  16.779   3.832
50151W        W22576  44.505  14.598  12.100
50152W        W22577  18.211  27.490   2.496
50153W        W22578   9.838  13.230  14.062
50154W        W22579  42.870  25.998   1.226
50155W        W22580   9.875  31.724  10.743
50156W        W22581   1.878  11.627  11.489
50157W        W22582  21.124  28.650  13.633
50158W        W22583  34.195  38.961  13.117
50159W        W22584  43.007  35.378   4.770
50160W        W22585  17.330  39.373  12.572
50161W        W22586   2.993   7.195   1.764
50162W        W22587   8.884  13.886  13.436
50163W        W22588  29.865   0.665   1.622
50164W        W22589  29.427  18.705  10.751
50165W        W22590   2.325  43.443   2.798
50166W        W22591  21.679  35.466  14.800
50167W        W22592   7.710  44.388  14.876
50168W        W22593  40.130  35.549   0.718
50169W        W22594  14.165   3.525   5.348
50170W        W22595  39.946  17.513  11.604
50171W        W22596  34.646  18.347   4.597
50172W        W22597  16.722  30.175  10.451
50173W        W22598   0.966  27.967   3.119
50174W        W22599  19.780  27.584   3.765
50175W        W22600  16.192  15.541  14.295
50176W        W22601  17.592  15.215   0.341
50177W        W22602  30.479  28.766   1.917
50178W        W22603  23.605  22.192  13.884
50179W        W22604  19.516  23.758  13.827
50180W        W22605  33.612   6.269  13.915
50181W        W22606   2.103  38.754   1.308
50182W        W22607  38.016  34.380  11.912
50183W        W22608  39.465  30.010   0.449
50184W        W22609  14.676  24.150   4.442
50185W        W22610  36.210  41.314  14.920
50186W        W22611  43.594  18.778   4.009
50187W        W22612  15.236   7.645   0.548
50188W        W22613   4.521  28.774  13.903
50189W        W22614  11.219  20.512   2.598
50190W        W22615  25.033  44.664  12.365
50191W        W22616  44.867   2.265   3.270
50192W        W22617  38.544  27.828  14.325
50193W        W22618  14.362  36.564   2.922
50194W        W22619   5.865  16.425  11.606
50195W        W22620  35.521   6.340   3.058
50196W        W22621  28.491   7.341   1.200
50197W        W22622  22.157  15.208  14.939
50198W        W22623  25.155  41.373   3.729
50199W        W22624  26.521  40.959   1.034
50200W        W22625   4.779  17.758  11.604
50201W        W22626   1.278  15.276   4.006
50202W        W22627  23.963   8.928   2.368
50203W        W22628   2.994  36.889   0.384
50204W        W22629  35.631  38.526  14.804
50205W        W22630  10.124   0.576  13.391
50206W        W22631  42.799  44.486  13.207
50207W        W22632  19.277  18.890  12.395
50208W        W22633  43.358  42.360  11.186
50209W        W22634  24.574  38.824  12.016
50210W        W22635  37.917  30.060  14.912
50211W        W22636  16.099  29.168   2.287
50212W        W22637  23.014  20.464  11.376
50213W        W22638  31.428  33.128   0.439
50214W        W22639  28.955   7.617   2.882
50215W        W22640  24.188  28.093  10.449
50216W        W22641  26.026   7.955   3.210
50217W        W22642  12.838  34.511  14.723
50218W        W22643  21.594   6.130  13.427
50219W        W22644   9.475   7.249  10.027
50220W        W22645  21.571  24.199  14.445
50221W        W22646  13.291  11.461   0.273
50222W        W22647  10.470   9.854   0.305
50223W        W22648  41.371   8.948  10.618
50224W        W22649  27.681  39.314  14.417
50225W        W22650  41.808  23.564   1.255
50226W        W22651   1.430   8.644  14.223
50227W        W22652   0.773   0.429   3.703
50228W        W22653  44.948  43.001   2.880
50229W        W22654   5.834  28.026  13.534
50230W        W22655  17.777  12.919   4.899
50231W        W22656  39.403  15.054   3.199
50232W        W22657  19.110  22.430  14.852
50233W        W22658  36.199  33.482  11.841
50234W        W22659   4.329  40.845   3.657
50235W        W22660  19.365  20.966  11.216
50236W        W22661  25.896  33.563   0.011
50237W        W22662  12.721  25.703   2.697
50238W        W22663   9.216  19.793  12.129
50239W        W22664  24.739  25.932   4.749
50240W        W22665   2.770  14.667   2.447
50241W        W22666  30.697  15.609  13.784
50242W        W22667  17.380  29.381  11.932
50243W        W22668   5.372  29.945  11.843
50244W        W22669  13.478  27.163   3.380
50245W        W22670  32.585  39.550   4.145
50246W        W22671  19.219  24.029  14.576
50247W        W22672  43.465   8.863   4.602
50248W        W22673  31.925  20.596   4.959
50249W        W22674   0.494  42.898   4.557
50250W        W22675  42.018  15.456   2.432
50251W        W22676  26.873  10.443  11.671
50252W        W22677  21.304  26.945   2.234
50253W        W22678  39.530   4.235  14.461
50254W        W22679  29.372  37.265   2.442
50255W        W22680  32.914  40.066  10.726
50256W        W22681   8.413  19.567   0.786
50257W        W22682   5.184  15.277   3.606
50258W        W22683  12.886  29.157   2.752
50259W        W22684   0.276  29.064   3.592
50260W        W22685  28.270  37.092  10.659
50261W        W22686  16.970  24.144   1.863
50262W        W22687  25.868  27.024   2.608
50263W        W22688  21.631   0.773  11.783
50264W        W22689   9.176  21.492   2.955
50265W        W22690   0.837  12.423  10.972
50266W        W22691  30.728  40.951  11.622
50267W        W22692  40.836  25.622  14.566
50268W        W22693  29.639  41.399   9.524
50269W        W22694  28.579  14.601  11.318
50270W        W22695  29.018  13.185  12.788
50271W        W22696  40.551   7.413   4.490
50272W        W22697  24.111  43.523   0.805
50273W        W22698  22.896  23.269   0.214
50274W        W22699  36.599   1.202   0.443
50275W        W22700  30.643  41.922   1.740
50276W        W22701  10.796  42.957   1.825
50277W        W22702   6.012   6.984  12.869
50278W        W22703  18.646  10.150  10.653
50279W        W22704  18.384  41.593  11.680
50280W        W22705  41.128  12.292  12.379
50281W        W22706  12.788  36.478   4.467
50282W        W22707  37.293  37.957  11.546
50283W        W22708  20.460  30.219   3.340
50284W        W22709  21.139  25.649   1.417
50285W        W22710  38.306  19.627   0.312
50286W        W22711  16.225  38.987   2.971
50287W        W22712  14.732  12.407  12.121
50288W        W22713   4.779  23.380   1.210
50289W        W22714  16.642  28.466   1.447
50290W        W22715  26.602   2.901  11.638
50291W        W22716  19.154  34.647   3.220
50292W        W22717  24.991  13.177   3.614
50293W        W22718  42.390   9.662   0.361
50294W        W22719  41.814  37.900   2.197
50295W        W22720  33.163  36.619   2.399
50296W        W22721  19.652  37.005  13.577
50297W        W22722  10.321  19.244  12.037
50298W        W22723  12.691  25.758   0.766
50299W        W22724  36.766   8.726   3.288
50300W        W22725  41.003   0.777  12.002
50301W        W22726  41.013  27.152  10.655
50302W        W22727  35.976  25.271   1.367
50303W        W22728  24.001  13.775   2.259
50304W        W22729  22.205   3.425  14.298
50305W        W22730  44.977  28.544  14.370
50306W        W22731   0.230  14.304   0.185
50307W        W22732  35.376  38.350  14.358
50308W        W22733   4.701  19.082   0.433
50309W        W22734   4.413   7.167   1.816
50310W        W22735   8.848  14.575   4.638
50311W        W22736  16.421  44.741   2.679
50312W        W22737  25.954  41.760   4.137
50313W        W22738  38.400  10.629   1.410
50314W        W22739  40.787  24.287   3.235
50315W        W22740   4.135  34.485   3.020
50316W        W22741  43.038  18.922   2.257
50317W        W22742  33.707  27.435   0.078
50318W        W22743   3.332  25.829  14.586
50319W        W22744   3.766  43.439  11.033
50320W        W22745  34.297  26.769   5.134
50321W        W22746  33.400   3.347  14.357
50322W        W22747   4.883  18.405  14.751
50323W        W22748  29.343  28.538  14.530
50324W        W22749   2.902  38.044  13.255
50325W        W22750  16.530  39.313  11.102
50326W        W22751   4.370   2.212   4.093
50327W        W22752  21.382  28.678   2.880
50328W        W22753   6.321  15.707   1.718
50329W        W22754   3.715  24.280  14.507
50330W        W22755   3.166   4.416  14.428
50331W        W22756  13.608  30.115  13.359
50332W        W22757  20.017  24.951  10.541
50333W        W22758  40.074  28.052   2.333
50334W        W22759  15.279   3.936  13.555
50335W        W22760   8.878  23.678   4.255
50336W        W22761  37.793  11.237  14.197
50337W        W22762  25.160  15.755  14.996
50338W        W22763  15.184  36.114   4.454
50339W        W22764   1.257  20.733  12.971
50340W        W22765  11.215  30.621   4.511
50341W        W22766  41.834  16.780  11.573
50342W        W22767  35.664  33.071   3.940
50343W        W22768  28.011  38.423  12.128
50344W        W22769  14.847  33.248   3.575
50345W        W22770  39.657  20.255   0.533
50346W        W22771  21.970  33.353  13.490
50347W        W22772   4.304   4.799  12.381
50348W        W22773  41.493  11.053  10.620
50349W        W22774   2.185  39.762   1.395
50350W        W22775  34.507  28.943  11.087
50351W        W22776   0.580   1.384  10.775
50352W        W22777  26.669  42.595   3.401
50353W        W22778  40.365  25.454  13.384
50354W        W22779   6.632  39.304  14.315
50355W        W22780  11.767   3.707   4.111
50356W        W22781  20.651  38.291  13.397
50357W        W22782  20.145  25.198   2.215
50358W        W22783  24.307  25.002   3.261
50359W        W22784   6.135   3.356   1.045
50360W        W22785  31.119  33.067  13.626
50361W        W22786  30.161  19.452   0.628
50362W        W22787  30.753  20.601  14.833
50363W        W22788  25.230  20.657   0.502
50364W        W22789  17.649   6.635   1.838
50365W        W22790  18.874  44.388  12.234
50366W        W22791   0.841   1.917   5.396
50367W        W22792  40.359  22.175   0.526
50368W        W22793   7.962  33.359  14.294
50369W        W22794  26.752  40.752  12.498
50370W        W22795  27.919  20.052   2.795
50371W        W22796   9.694  36.408  12.017
50372W        W22797   5.919  24.561  12.012
50373W        W22798  35.504  14.209  11.140
50374W        W22799  43.046  16.746  12.244
50375W        W22800  11.363   3.541  13.985
50376W        W22801  35.394  22.963  13.952
50377W        W22802  27.155  28.969  14.420
50378W        W22803  30.019  11.396   1.730
50379W        W22804   6.472  27.110   4.710
50380W        W22805  42.516  35.148  10.994
50381W        W22806  24.328  15.730   4.511
50382W        W22807   6.716  24.823   4.618
50383W        W22808  35.875   5.865   2.753
50384W        W22809  11.203  14.715   3.868
50385W        W22810   0.468  10.678  14.438
50386W        W22811  14.030   4.712  14.318
50387W        W22812  19.719  15.124  11.609
50388W        W22813  41.806  44.355   2.244
50389W        W22814  11.745  24.041  14.516
50390W        W22815  30.839  40.209   4.583
50391W        W22816  20.462  27.142   0.919
50392W        W22817  15.580  33.042  13.332
50393W        W22818  27.160  32.428  12.999
50394W        W22819  22.404  26.670   3.922
50395W        W22820   8.912  22.653   3.392
50396W        W22821  36.778   3.470   3.641
50397W        W22822  22.717  25.180   2.331
50398W        W22823  12.575  19.543  12.789
50399W        W22824  24.610  24.200  14.303
50400W        W22825  21.292   2.970   1.913
50401W        W22826  33.349  23.194   1.211
50402W        W22827   2.270  22.908  14.355
50403W        W22828   7.197  24.276  12.505
50404W        W22829  26.383  41.827   0.875
50405W        W22830  31.512  40.556   4.119
50406W        W22831  33.862  10.677   4.366
50407W        W22832  20.098  43.214   5.027
50408W        W22833  28.147  21.237   4.972
50409W        W22834  41.529  32.671   4.093
50410W        W22835  37.576  32.430   1.240
50411W        W22836  26.948  26.587  12.636
50412W        W22837  28.437   7.208   1.978
50413W        W22838  39.415  22.638  14.750
50414W        W22839  40.269  20.121   2.088
50415W        W22840  19.421  33.039  10.650
50416W        W22841   9.906  37.238   3.204
50417W        W22842  14.739  22.280   2.359
50418W        W22843  17.726   4.682   1.893
50419W        W22844  34.963  28.843  11.653
50420W        W22845  36.617  23.743  11.266
50421W        W22846  17.086   8.598   4.993
50422W        W22847  17.628  25.922  14.337
50423W        W22848  22.526  17.132  13.319
50424W        W22849  28.201  29.574   3.059
50425W        W22850  14.653  16.786  12.530
50426W        W22851  29.314  36.422   2.988
50427W        W22852  16.428   1.858  12.908
50428W        W22853  18.600   5.681  12.813
50429W        W22854  44.408  33.127  14.411
50430W        W22855  22.096  23.068  13.970
50431W        W22856  44.387   0.280  11.941
50432W        W22857  29.539  27.423   1.854
50433W        W22858  41.394  22.413  12.310
50434W        W22859  16.838  38.890  14.344
50435W        W22860  32.291  21.224  10.699
50436W        W22861   1.897  13.552  13.510
50437W        W22862  28.361  13.052  13.444
50438W        W22863   5.427  12.814   0.470
50439W        W22864  34.971  30.219   2.850
50440W        W22865  39.419   4.239   0.992
50441W        W22866  14.474  17.987   5.116
50442W        W22867   7.196  27.095   2.324
50443W        W22868  26.559  10.828  12.799
50444W        W22869  12.696  32.668  14.330
50445W        W22870  16.732  12.518   0.558
50446W        W22871  23.848  18.670   2.274
50447W        W22872  33.401   5.004  12.173
50448W        W22873  19.657  36.769   0.945
50449W        W22874  34.165  40.045   1.053
50450W        W22875  15.591  14.929  14.973
50451W        W22876  30.426   6.966  14.417
50452W        W22877  27.722  16.550  11.491
50453W        W22878   3.219  42.968   4.302
50454W        W22879   8.849  13.763   1.355
50455W        W22880  16.682  38.542   4.160
50456W        W22881  19.442  36.228  12.945
50457W        W22882  29.578  11.385   4.521
50458W        W22883   0.780  22.040   1.399
50459W        W22884   7.540  43.482   0.956
50460W        W22885   4.740  17.193   3.863
50461W        W22886  11.404  34.670  12.428
50462W        W22887  25.604  19.825  12.078
50463W        W22888  21.253  31.475  14.935
50464W        W22889   0.252   7.654  11.415
50465W        W22890  13.435  27.437  10.934
50466W        W22891  36.041   8.382  14.461
50467W        W22892  20.765  29.503  13.015
50468W        W22893  16.994  24.301  12.374
50469W        W22894  30.721  20.042  14.837
50470W        W22895  34.802  23.857  13.578
50471W        W22896   2.897  22.879  11.195
50472W        W22897  44.286   4.875  12.541
50473W        W22898  12.193   4.830  11.598
50474W        W22899   5.412   2.207  11.560
50475W        W22900  21.543  21.543   1.251
50476W        W22901  17.805   6.204  14.922
50477W        W22902   5.932   5.569   1.344
50478W        W22903  12.316  31.542  10.713
50479W        W22904  11.536   1.718   2.618
50480W        W22905  30.390  20.566  12.006
50481W        W22906  36.211   7.914  14.314
50482W        W22907  34.891  38.050   0.931
50483W        W22908  17.578   6.886   2.285
50484W        W22909  27.323  29.872  14.864
50485W        W22910   2.677  25.003   4.636
50486W        W22911  14.437  38.419  12.870
50487W        W22912  36.243  16.444   2.686
50488W        W22913  41.512  17.960   3.450
50489W        W22914  12.356  15.379   4.686
50490W        W22915   7.630  14.181   4.702
50491W        W22916   6.197  25.230   2.737
50492W        W22917   7.908   1.282   2.286
50493W        W22918  24.061  19.709   1.834
50494W        W22919  15.209  35.136  12.639
50495W        W22920  39.943   4.475   2.328
50496W        W22921  21.480  13.888   2.423
50497W        W22922   2.247  43.002   1.422
50498W        W22923  16.588   5.749   3.550
50499W        W22924  32.821  21.061  10.634
50500W        W22925  15.782  38.741   3.783
50501W        W22926  37.628  24.031  11.073
50502W        W22927  26.853  33.557   3.755
50503W        W22928  43.676  26.528  14.355
50504W        W22929   0.112   1.824   3.119
50505W        W22930   0.257  17.318  12.453
50506W        W22931  10.691  16.299  13.833
50507W        W22932  10.696   5.439  14.818
50508W        W22933  16.820  44.919   2.943
50509W        W22934  21.636  36.995  13.561
50510W        W22935  28.371  19.172   1.678
50511W        W22936   2.506   9.392   3.334
50512W        W22937  44.371   7.885  14.222
50513W        W22938   4.745  26.417   1.923
50514W        W22939  37.982  12.635   1.999
50515W        W22940   9.890  29.029   4.731
50516W        W22941  23.215  24.994  10.627
50517W        W22942  42.534   5.323   2.256
50518W        W22943  13.649  10.283   4.624
50519W        W22944   8.329   1.316   2.752
50520W        W22945  15.560  10.346  14.917
50521W        W22946  36.495  21.080  12.052
50522W        W22947   2.876  17.526   4.263
50523W        W22948  23.619  37.119   3.432
50524W        W22949  31.111  21.501   0.286
50525W        W22950  34.567   0.807  14.407
50526W        W22951   7.264  25.763  12.453
50527W        W22952  33.160  13.488   1.404
50528W        W22953  38.451  10.213  14.380
50529W        W22954  24.195  20.258   0.984
50530W        W22955  41.851  29.503  11.104
50531W        W22956  32.012  21.161   3.748
50532W        W22957  14.848  21.742  11.187
50533W        W22958   9.127  33.904   2.638
50534W        W22959  33.717  17.799   3.144
50535W        W22960  26.679  34.366  13.397
50536W        W22961  38.834  28.142  10.029
50537W        W22962   8.273  25.950   3.057
50538W        W22963   8.900  41.089  11.134
50539W        W22964  12.846  32.427  14.750
50540W        W22965  14.485   4.672   9.898
50541W        W22966  36.939  18.635   4.761
50542W        W22967  17.222  25.293   4.981
50543W        W22968  19.019   9.592   4.179
50544W        W22969  10.685  43.843  11.648
50545W        W22970  17.709  26.192   0.358
50546W        W22971  44.794  20.448  11.099
50547W        W22972  38.627   3.882   4.317
50548W        W22973   9.910  41.588  14.233
50549W        W22974  29.973   3.778   3.616
50550W        W22975  12.864  30.451  11.809
50551W        W22976  16.193   4.935   5.002
50552W        W22977   0.431   9.492  12.915
50553W        W22978  26.128  17.056   0.369
50554W        W22979  22.230  19.994   4.091
50555W        W22980  10.899  32.607  14.990
50556W        W22981  10.523   4.215  14.460
50557W        W22982  44.172  36.004   1.542
50558W        W22983  33.063  41.464   1.526
50559W        W22984  19.185  33.867  11.380
50560W        W22985  21.061  24.454  11.497
50561W        W22986  25.250  30.724   3.154
50562W        W22987   1.404  33.674  10.616
50563W        W22988  32.604   1.400  13.788
50564W        W22989   5.460  20.048   2.210
50565W        W22990  30.022  17.756   1.269
50566W        W22991  30.302  36.458   4.665
50567W        W22992  22.750   2.251   4.036
50568W        W22993  24.687  15.901   1.034
50569W        W22994  39.313  24.390  12.964
50570W        W22995   2.499  25.566   1.229
50571W        W22996   9.227  24.130  12.869
50572W        W22997  15.038   0.020  11.490
50573W        W22998   2.044  31.934  14.491
50574W        W22999  33.864   2.808  11.330
50575W        W23000  44.437  24.241  13.432
50576W        W23001  17.790   1.148   2.254
50577W        W23002  38.837  43.021  11.549
50578W        W23003  24.055  12.888  10.602
50579W        W23004  27.433  35.242   0.247
50580W        W23005  33.593   9.380   0.376
50581W        W23006  30.585  11.105   2.852
50582W        W23007  20.296  44.014   3.242
50583W        W23008  18.175  10.052   4.888
50584W        W23009   7.276   0.858   2.769
50585W        W23010   7.867   4.355   2.808
50586W        W23011  36.227  28.116   4.755
50587W        W23012  36.333  25.515   3.031
50588W        W23013   8.207  16.080   3.174
50589W        W23014   5.627   1.469   3.329
50590W        W23015  31.875  41.920   4.215
50591W        W23016  13.578  42.030  11.692
50592W        W23017  26.540   8.880  13.766
50593W        W23018  41.059  44.093  13.471
50594W        W23019  16.196  39.520  14.618
50595W        W23020  31.020  40.002   0.551
50596W        W23021  25.222  42.840  10.533
50597W        W23022  35.608  41.785   3.702
50598W        W23023  32.640   3.447  12.501
50599W        W23024  38.854  16.196   3.871
50600W        W23025  41.887   8.202  13.007
50601W        W23026   4.125   9.739   0.751
50602W        W23027  14.136   0.714   4.504
50603W        W23028  19.008  16.701  12.042
50604W        W23029   3.272   7.707  14.396
50605W        W23030   1.754  32.071   2.300
50606W        W23031   1.838  28.176   2.703
50607W        W23032   1.801  25.480   3.675
50608W        W23033  29.168   3.633   0.813
50609W        W23034  33.099   0.347   4.343
50610W        W23035  36.687  20.314  14.710
50611W        W23036  24.609  37.334   1.528
50612W        W23037  20.763  34.968  14.462
50613W        W23038   2.221  30.118   1.288
50614W        W23039  24.762  19.238  13.847
50615W        W23040  19.560  30.889   1.285
50616W        W23041  36.658  30.153   0.771
50617W        W23042  11.151  29.661   4.002
50618W        W23043  26.033  24.026   1.264
50619W        W23044   0.328  37.759  14.437
50620W        W23045  18.582  15.639   0.267
50621W        W23046  22.656  37.639   0.632
50622W        W23047  40.047  31.460  11.655
50623W        W23048  42.378  40.822  14.720
50624W        W23049  34.003  15.575  10.549
50625W        W23050  26.610   2.824   4.985
50626W        W23051  39.056  36.529  13.961
50627W        W23052  34.864   3.481  11.818
50628W        W23053  15.959  35.899   4.753
50629W        W23054   2.525   3.980  12.885
50630W        W23055  28.397  32.004  11.437
50631W        W23056  11.711  21.676   2.171
50632W        W23057  19.643  11.479   3.650
50633W        W23058  37.951   8.919   1.837
50634W        W23059  42.905  34.356  12.118
50635W        W23060   1.291  10.916  13.904
50636W        W23061  25.753  19.202   3.305
50637W        W23062  15.802   7.660  10.842
50638W        W23063  36.315  34.404   0.092
50639W        W23064  20.681   6.073  11.735
50640W        W23065  26.253   6.324  12.638
50641W        W23066   1.058  44.714   3.060
50642W        W23067  14.989  37.264   3.138
50643W        W23068  33.400   2.353   1.814
50644W        W23069  25.078  29.462  14.966
50645W        W23070  32.446   7.622  14.765
50646W        W23071  30.097   7.302   3.315
50647W        W23072  17.147  34.385   2.252
50648W        W23073  14.804  42.308  14.880
50649W        W23074  28.159  15.642  13.335
50650W        W23075  43.962  11.684   2.788
50651W        W23076  41.953  32.987   3.939
50652W        W23077   7.346  19.219   4.600
50653W        W23078  29.886  30.637   1.248
50654W        W23079  37.186   9.711  12.559
50655W        W23080  37.286  33.440   0.461
50656W        W23081  41.067  17.323   0.333
50657W        W23082  42.427  17.433  13.934
50658W        W23083  21.258  37.733   4.417
50659W        W23084   9.118   1.015   3.204
50660W        W23085  13.382  34.125  13.940
50661W        W23086   9.302   9.172  10.710
50662W        W23087  39.259  23.972   3.687
50663W        W23088  24.493   0.724   0.241
50664W        W23089  16.837  42.293  14.494
50665W        W23090  17.991   8.902   1.739
50666W        W23091  31.500   4.727   1.732
50667W        W23092   6.910  32.313  13.382
50668W        W23093  41.491  34.886   2.017
50669W        W23094   8.423  22.025   1.930
50670W        W23095  30.466   2.777   4.634
50671W        W23096   7.892  36.074  11.076
50672W        W23097  29.151  15.173  12.083
50673W        W23098  44.942  44.881   4.382
50674W        W23099   2.269  16.170   0.418
50675W        W23100  40.880   9.763   0.615
50676W        W23101  38.420   1.379   0.033
50677W        W23102  43.982  37.872   2.926
50678W        W23103  20.830  29.400  12.137
50679W        W23104  44.362  41.432  12.066
50680W        W23105  35.412   8.466  11.126
50681W        W23106  38.966  29.935   0.342
50682W        W23107  25.631   6.670  11.277
50683W        W23108  17.331   3.728   1.339
50684W        W23109   2.499   7.566   2.263
50685W        W23110  42.060  44.602   1.363
50686W        W23111  41.855  41.941   0.102
50687W        W23112  37.885  32.920   0.918
50688W        W23113  16.089  19.080  11.392
50689W        W23114  15.174  26.909  10.207
50690W        W23115  37.956  42.887   2.463
50691W        W23116  38.472  23.169   1.312
50692W        W23117  26.472  17.618   3.577
50693W        W23118  12.243  38.919  11.009
50694W        W23119  13.476  33.412  14.487
50695W        W23120  34.801  18.482  13.402
50696W        W23121  16.373   7.784  13.791
50697W        W23122   1.476  42.530  13.461
50698W        W23123  40.557  41.238  13.528
50699W        W23124  13.151  25.389  13.986
50700W        W23125  25.490  23.447  14.925
50701W        W23126  40.224  36.815   3.397
50702W        W23127  22.281  28.968   3.756
50703W        W23128   4.279  44.482   3.725
50704W        W23129   2.846  37.500  10.709
50705W        W23130  44.397  43.840   0.936
50706W        W23131  25.170  21.969   2.160
50707W        W23132  24.394  39.456  14.265
50708W        W23133  17.964  17.222  11.492
50709W        W23134  35.301  44.485   2.129
50710W        W23135  28.976  21.165   2.652
50711W        W23136  12.246   3.711  13.621
50712W        W23137  17.235  10.515  12.655
50713W        W23138  24.022  24.609  14.917
50714W        W23139  15.799  15.049   3.411
50715W        W23140  38.317   3.346   1.896
50716W        W23141   3.437  19.625  10.199
50717W        W23142  15.353  21.549  14.044
50718W        W23143  24.833  20.944   3.151
50719W        W23144   0.684  18.837   1.683
50720W        W23145  37.057   0.856  11.669
50721W        W23146  26.446  44.702  12.957
50722W        W23147  17.577  32.044  13.622
50723W        W23148  41.445  12.766   2.227
50724W        W23149  26.696  37.357  13.885
50725W        W23150  14.028  35.053  14.943
50726W        W23151  38.018   9.547  12.859
50727W        W23152  32.026  19.693  13.964
50728W        W23153  15.725  41.028   3.590
50729W        W23154  27.401  40.871  11.881
50730W        W23155   8.254   8.877   2.846
50731W        W23156  29.847   2.240  11.908
50732W        W23157  21.604  35.827   0.904
50733W        W23158  34.706  21.002   0.035
50734W        W23159  30.908  33.218   0.469
50735W        W23160   2.734  15.728   4.963
50736W        W23161  38.366  36.561  11.678
50737W        W23162  44.344  36.734  14.877
50738W        W23163  29.951  41.659  14.535
50739W        W23164  14.212  34.639   2.668
50740W        W23165  31.430  33.458  13.472
50741W        W23166   9.293   6.685  12.759
50742W        W23167  18.489  10.093   1.847
50743W        W23168  23.075  26.884  11.949
50744W        W23169  27.113  25.077   3.824
50745W        W23170   7.220  41.032   0.892
50746W        W23171  22.475   8.260   0.874
50747W        W23172   8.274   7.827  11.119
50748W        W23173  10.287  32.932  13.487
50749W        W23174  36.711  14.137   4.176
50750W        W23175   0.483  38.842  10.869
50751W        W23176  38.247  16.830   2.207
50752W        W23177  39.605  29.605   4.971
50753W        W23178  24.598  44.316   1.830
50754W        W23179  26.041  22.767   1.202
50755W        W23180   1.235  26.714  13.607
50756W        W23181  39.472   0.885   4.562
50757W        W23182   0.813  11.755  12.477
50758W        W23183   7.701  16.148   4.435
50759W        W23184   8.647   8.899  12.523
50760W        W23185  35.522   1.287  14.085
50761W        W23186  18.126   0.885  13.048
50762W        W23187  29.172  40.704   4.200
50763W        W23188  44.798   0.048  14.966
50764W        W23189  20.230  39.706   2.938
50765W        W23190  42.499  33.110   2.674
50766W        W23191  29.389  22.044   4.321
50767W        W23192   2.790  27.185   4.655
50768W        W23193  19.756  32.527   4.149
50769W        W23194   2.727  25.294  13.483
50770W        W23195  43.359  38.380   0.368
50771W        W23196  24.752   8.640   0.884
50772W        W23197  14.823   8.091   3.376
50773W        W23198   1.650  25.469   4.165
50774W        W23199  35.287  19.009  13.936
50775W        W23200  24.031  30.989  10.622
50776W        W23201  26.225   9.137   0.862
50777W        W23202   4.818   1.198   0.964
50778W        W23203   2.170  32.042  10.188
50779W        W23204  41.264  16.719  12.816
50780W        W23205  39.822  31.203   1.858
50781W        W23206  41.998  15.579  13.837
50782W        W23207  20.740   7.734  12.627
50783W        W23208   8.315  33.413  12.930
50784W        W23209  25.684   7.153   4.319
50785W        W23210  24.745  38.557  10.524
50786W        W23211  28.622  27.427   4.255
50787W        W23212  11.290   9.790   4.166
50788W        W23213  31.394   4.894   2.226
50789W        W23214   7.380   7.366  13.553
50790W        W23215  25.945   5.854   1.788
50791W        W23216   1.199   7.951   2.136
50792W        W23217   4.061  43.840  11.194
50793W        W23218  33.547  29.445  13.960
50794W        W23219  34.483  39.454   0.160
50795W        W23220  17.722  22.298  11.806
50796W        W23221  21.156   8.793   1.435
50797W        W23222   7.326  12.859  13.177
50798W        W23223  12.691  11.407  13.865
50799W        W23224  38.120  33.412   1.974
50800W        W23225  34.050   9.723  11.540
50801W        W23226  37.820  20.537  11.252
50802W        W23227  30.971  25.587   0.257
50803W        W23228  17.322   7.228  13.371
50804W        W23229   6.766  36.342  13.471
50805W        W23230   2.995   9.317   3.153
50806W        W23231  14.386  21.164  11.552
50807W        W23232  43.522  25.457  12.070
50808W        W23233  41.307  31.642  14.051
50809W        W23234  41.267  37.997   1.975
50810W        W23235   0.398  32.008   1.705
50811W        W23236  18.834  31.701  12.951
50812W        W23237  38.072   3.593  14.962
50813W        W23238   6.250   2.674   3.466
50814W        W23239  36.062  43.295   4.579
50815W        W23240  14.844  20.423   3.128
50816W        W23241  41.828   0.316   0.708
50817W        W23242  43.693  27.949  11.960
50818W        W23243  39.105   6.861   3.169
50819W        W23244  11.546  12.529  14.347
50820W        W23245  25.092  27.747  14.630
50821W        W23246  24.947  11.656  14.756
50822W        W23247  27.682  32.268  13.807
50823W        W23248  23.509  40.996   1.219
50824W        W23249  12.558  42.443   3.797
50825W        W23250  17.346  25.790   1.284
50826W        W23251   9.849  39.059  13.491
50827W        W23252   1.180  22.519   2.243
50828W        W23253  10.787  26.895   4.561
50829W        W23254  18.802  14.272  14.530
50830W        W23255  40.243  32.421  14.052
50831W        W23256  26.938  23.216  11.002
50832W        W23257  40.923  41.591  13.386
50833W        W23258  25.228  33.785  10.674
50834W        W23259  15.813  32.157   3.615
50835W        W23260  30.060  21.273   2.720
50836W        W23261  44.524  28.969   3.192
50837W        W23262  25.686  35.127  12.122
50838W        W23263   3.746  33.609   2.825
50839W        W23264  21.137  18.810   2.372
50840W        W23265  12.407   8.731  14.155
50841W        W23266   7.650   9.947  11.592
50842W        W23267  23.173  26.414   4.519
50843W        W23268  18.904  26.130   3.868
50844W        W23269  22.603  32.361   3.654
50845W        W23270  24.221  41.051  13.491
50846W        W23271   5.825  27.464  12.003
50847W        W23272  12.594  35.897   4.214
50848W        W23273  21.231  36.430  11.128
50849W        W23274  17.169  16.848   0.065
50850W        W23275  43.972  25.715  12.005
50851W        W23276  27.067  37.866   0.221
50852W        W23277  37.036  15.295   3.363
50853W        W23278   3.190  32.938   1.166
50854W        W23279  21.543   0.764   2.384
50855W        W23280  17.205  23.138  14.827
50856W        W23281  14.358   0.846   2.555
50857W        W23282  28.918   9.517   4.598
50858W        W23283  33.915  37.366  14.962
50859W        W23284  33.351  31.111   4.129
50860W        W23285  11.435  30.116   2.954
50861W        W23286  11.805  39.773   0.894
50862W        W23287  10.894  19.699   0.429
50863W        W23288  20.966  36.495  11.557
50864W        W23289  31.890  15.354  12.023
50865W        W23290  10.270  34.328   2.039
50866W        W23291  18.606   7.354   1.708
50867W        W23292  19.096  26.076   1.515
50868W        W23293  21.076  29.218   0.565
50869W        W23294   3.875  36.694  13.254
50870W        W23295  12.628   7.448   3.089
50871W        W23296  31.855  19.097  10.732
50872W        W23297  20.084  17.762  12.037
50873W        W23298  41.440   7.768  14.901
50874W        W23299  43.816  42.526  12.145
50875W        W23300  12.049  25.008   2.750
50876W        W23301  10.561   6.177  10.046
50877W        W23302  12.248  39.403  10.802
50878W        W23303  21.664  28.749   2.251
50879W        W23304  40.352  32.151  10.219
50880W        W23305   1.375  28.697   3.812
50881W        W23306  30.756  22.103   1.873
50882W        W23307  42.690  44.523  14.103
50883W        W23308  14.279  18.637  13.777
50884W        W23309  35.126  11.339   4.333
50885W        W23310  27.074  44.842   1.500
50886W        W23311  19.217  20.875  10.313
50887W        W23312  33.033  43.538   3.212
50888W        W23313  13.327   6.153   1.708
50889W        W23314  30.080   7.876  13.900
50890W        W23315  42.775  19.006   3.739
50891W        W23316  20.365   0.233   0.765
50892W        W23317  16.833  20.487  11.666
50893W        W23318  34.485  20.964   3.300
50894W        W23319  31.105  14.021   3.366
50895W        W23320  28.347  23.318  12.599
50896W        W23321  41.985  30.644  12.024
50897W        W23322  28.012  26.282  14.287
50898W        W23323  24.045  37.143  12.419
50899W        W23324   0.985  28.522  12.148
50900W        W23325  42.011   4.213  12.833
50901W        W23326  23.501   6.884   1.312
50902W        W23327   3.819  14.975   4.259
50903W        W23328  17.962  43.198   0.338
50904W        W23329   4.691   6.361   5.097
50905W        W23330  22.509  39.343   3.854
50906W        W23331  32.449   4.919  10.289
50907W        W23332   6.148  20.334  11.548
50908W        W23333  43.277  11.693   4.311
50909W        W23334  37.181  16.933  12.336
50910W        W23335  34.290   7.631  14.782
50911W        W23336  33.394  22.733   4.581
50912W        W23337  20.820  43.444   0.930
50913W        W23338  19.437  21.172   3.618
50914W        W23339  38.816  18.531   4.599
50915W        W23340  17.745   9.916   4.493
50916W        W23341  17.164   2.070   0.435
50917W        W23342  28.454  30.076  10.616
50918W        W23343  13.285  41.051   3.134
50919W        W23344  20.960  32.166  14.958
50920W        W23345   1.732   7.778   0.274
50921W        W23346  44.797  22.098   2.598
50922W        W23347  15.242  27.589  10.639
50923W        W23348  31.433  23.122  14.244
50924W        W23349  26.441  33.558  10.922
50925W        W23350  44.309  30.387   3.844
50926W        W23351  15.630  21.548   4.805
50927W        W23352   0.394  31.885  10.635
50928W        W23353  39.991  39.572   1.920
50929W        W23354  12.706  11.913   1.835
50930W        W23355  32.714  29.248  11.573
50931W        W23356  28.377  10.953  12.300
50932W        W23357   2.747  32.211  13.443
50933W        W23358  38.513  21.548  12.529
50934W        W23359  27.437  33.112   2.636
50935W        W23360  21.550  20.839  11.109
50936W        W23361   7.843  24.231   2.755
50937W        W23362  14.346  23.208   2.668
50938W        W23363  11.790   7.277   3.605
50939W        W23364  33.118  12.076   3.846
50940W        W23365  11.171   7.261  14.533
50941W        W23366  23.389  13.204  11.501
50942W        W23367  41.569  13.331  13.454
50943W        W23368  31.130  38.384   2.929
50944W        W23369  23.137  24.981  14.865
50945W        W23370  32.427   9.835  12.936
50946W        W23371  11.709  41.065  13.580
50947W        W23372  30.705   1.504   4.194
50948W        W23373  33.537  18.045   1.951
50949W        W23374   5.894  28.162   1.770
50950W        W23375  23.839   1.834  13.397
50951W        W23376  31.082   0.770  12.554
50952W        W23377  12.287   6.857   1.904
50953W        W23378  16.470   4.110   4.185
50954W        W23379   1.234  36.579   1.889
50955W        W23380  25.018  33.822  12.029
50956W        W23381  31.942  13.344   3.161
50957W        W23382  23.579  44.498   2.692
50958W        W23383   3.823  18.178   1.612
50959W        W23384  26.004  14.652   3.666
50960W        W23385   2.358  39.594  11.950
50961W        W23386   2.220  25.881  11.692
50962W        W23387  35.933   6.782   2.683
50963W        W23388  35.847  44.878  13.017
50964W        W23389   7.405  18.664  13.772
50965W        W23390  22.033  26.793  12.471
50966W        W23391  17.195   9.284   1.399
50967W        W23392  31.550  21.775  11.871
50968W        W23393  22.924  40.789   2.369
50969W        W23394   4.929  40.444  12.831
50970W        W23395  29.001   7.014   3.701
50971W        W23396  41.775  38.405   4.700
50972W        W23397  24.538  39.913   2.767
50973W        W23398  38.333  26.676  11.576
50974W        W23399  34.260  33.002   0.914
50975W        W23400   3.904   8.998   0.593
50976W        W23401  21.219  32.591   4.563
50977W        W23402   9.347   1.476  13.912
50978W        W23403  24.241  30.035   4.804
50979W        W23404  16.588  34.565   0.239
50980W        W23405   8.995   8.688  11.223
50981W        W23406   0.818   1.435   3.527
50982W        W23407  13.667  26.496   1.694
50983W        W23408  36.028  26.177  14.951
50984W        W23409  19.132  28.611  13.473
50985W        W23410  36.297  16.219  14.536
50986W        W23411  35.069  34.558  10.328
50987W        W23412  41.798  30.946   4.684
50988W        W23413  42.711  25.501  13.726
50989W        W23414   0.735  13.590  14.308
50990W        W23415   2.530  41.340  12.853
50991W        W23416  29.459  30.581  13.526
50992W        W23417  22.789  38.879   2.973
50993W        W23418  42.486  15.971   4.612
50994W        W23419  40.461  42.280  13.384
50995W        W23420   3.770  34.363  12.469
50996W        W23421  38.828   4.690   0.289
50997W        W23422  17.712   9.731   2.108
50998W        W23423   5.195  31.519  14.550
50999W        W23424  32.599  35.872   0.336
51000W        W23425  17.744  30.951  10.766
51001W        W23426  13.100  36.855  13.172
51002W        W23427  33.079  23.070  11.531
51003W        W23428   4.754  17.143   4.366
51004W        W23429  20.742  23.661   2.079
51005W        W23430  43.987  16.513   0.734
51006W        W23431  27.230  37.049  13.385
51007W        W23432  35.758  39.241  12.428
51008W        W23433  41.911  28.711  11.597
51009W        W23434  25.122   7.750   1.540
51010W        W23435  43.330  20.575  11.298
51011W        W23436  31.149   5.965  12.064
51012W        W23437  30.063  30.663   3.317
51013W        W23438  13.297  37.591   0.882
51014W        W23439  20.851  15.585   3.157
51015W        W23440  23.089  12.872   3.813
51016W        W23441  28.278   2.241   4.148
51017W        W23442  18.165   5.688  13.594
51018W        W23443  34.603  18.010   4.130
51019W        W23444  38.768  25.441   2.695
51020W        W23445   6.261   6.014  11.160
51021W        W23446  24.119  10.849  12.752
51022W        W23447  31.123   9.389   0.181
51023W        W23448  27.564  35.300   4.676
51024W        W23449  37.696  18.634   0.399
51025W        W23450  16.648  12.137   1.001
51026W        W23451  42.535   0.025   4.232
51027W        W23452   3.043  44.963   3.258
51028W        W23453   6.771  12.740   4.255
51029W        W23454  34.140   7.667   4.549
51030W        W23455  39.406  34.178   0.507
51031W        W23456  16.771  42.011  11.717
51032W        W23457  44.373  10.517  10.747
51033W        W23458   3.762   3.137  13.864
51034W        W23459  30.876  15.626  10.576
51035W        W23460  32.960   8.915   2.417
51036W        W23461  16.287   1.919   1.966
51037W        W23462  38.811   1.970  11.551
51038W        W23463  16.538  29.496  13.050
51039W        W23464  33.010  33.899  11.212
51040W        W23465  43.806  16.882   4.291
51041W        W23466  25.216  25.631  12.793
51042W        W23467  27.089  24.523  10.379
51043W        W23468  11.232  37.360   2.034
51044W        W23469  29.722  29.985   4.896
51045W        W23470  16.994  42.265   0.890
51046W        W23471  11.822  29.475   0.303
51047W        W23472   8.835  12.563   4.384
51048W        W23473  19.484  33.874  13.899
51049W        W23474  28.468   9.954  12.427
51050W        W23475   3.249  15.343   2.444
51051W        W23476   6.342  20.473  12.003
51052W        W23477  11.291  29.188   3.821
51053W        W23478  20.013   5.735   3.690
51054W        W23479  22.800  16.084   3.480
51055W        W23480  31.423  39.348   0.800
51056W        W23481   9.177  13.314   4.560
51057W        W23482  37.528   2.744   3.707
51058W        W23483  28.833   5.140   1.786
51059W        W23484   9.425  35.687   0.980
51060W        W23485  21.747  37.788  14.228
51061W        W23486  33.200  15.769  14.848
51062W        W23487  19.108  35.322  10.606
51063W        W23488  19.888   6.896  13.406
51064W        W23489   7.259  29.699   1.287
51065W        W23490  12.240  13.124  11.934
51066W        W23491  38.922  22.574  13.967
51067W        W23492  17.680   5.185   4.531
51068W        W23493   5.898  22.026  13.066
51069W        W23494   6.386  15.255  10.928
51070W        W23495  10.996  25.734  10.431
51071W        W23496  37.977  13.124  11.045
51072W        W23497  28.492  22.465  13.395
51073W        W23498   1.303  20.542  12.014
51074W        W23499  29.909  25.190  14.862
51075W        W23500  25.690  26.622   3.316
51076W        W23501  32.070   3.893  12.575
51077W        W23502  17.113   7.427  14.823
51078W        W23503  31.892   5.888   4.896
51079W        W23504  11.722   3.218   5.260
51080W        W23505  27.225  12.094  14.922
51081W        W23506  18.141  37.902  11.518
51082W        W23507  19.524  30.015   1.962
51083W        W23508   2.776  38.508   0.885
51084W        W23509  39.266  44.762   4.160
51085W        W23510  33.787   3.254  14.726
51086W        W23511  12.750   7.163  13.625
51087W        W23512  14.751  23.489   1.668
51088W        W23513  28.000  19.767  11.572
51089W        W23514  15.375  41.245   0.874
51090W        W23515  26.642  41.123   1.530
51091W        W23516  17.985  21.041  13.502
51092W        W23517  25.596  15.654  13.553
51093W        W23518  42.403   9.222  14.084
51094W        W23519  29.907  12.944   0.799
51095W        W23520   5.571  28.905   3.698
51096W        W23521  37.107   1.774  11.943
51097W        W23522   6.373  30.898   4.835
51098W        W23523   9.379  30.065  13.985
51099W        W23524  43.926  32.577  14.947
51100W        W23525  32.654  36.499  14.436
51101W        W23526  22.639  23.759  13.089
51102W        W23527   1.005  37.524   1.930
51103W        W23528  27.568  30.991  10.325
51104W        W23529  16.092  25.119  14.701
51105W        W23530  27.938  31.986  12.820
51106W        W23531  23.017   5.452  13.396
51107W        W23532   2.255  35.785   1.298
51108W        W23533   8.524  26.200  14.963
51109W        W23534   4.143  21.191   2.782
51110W        W23535  22.700  18.096   1.293
51111W        W23536  42.509  39.347  14.012
51112W        W23537  13.201  28.449  13.851
51113W        W23538  37.634  41.529  12.721
51114W        W23539  40.509  38.040  14.468
51115W        W23540  41.532  26.609  13.182
51116W        W23541  29.229  23.664   2.658
51117W        W23542   5.875  39.073   2.347
51118W        W23543  15.307  19.623   4.973
51119W        W23544  15.234   9.755   4.680
51120W        W23545  21.072  12.168   3.341
51121W        W23546  24.255  42.782   3.794
51122W        W23547  19.131  33.696   2.278
51123W        W23548  11.347  40.241  10.687
51124W        W23549  15.131  28.497   3.470
51125W        W23550  33.335  29.659   3.559
51126W        W23551  22.835  41.027  12.798
51127W        W23552  26.249   6.316  13.537
51128W        W23553  36.054  41.328  12.145
51129W        W23554  25.974   2.478  11.189
51130W        W23555  33.168   9.067   4.341
51131W        W23556  32.653  36.087   1.860
51132W        W23557   2.546  12.369   2.518
51133W        W23558  22.607  11.468  10.080
51134W        W23559   6.309  38.864   0.695
51135W        W23560  38.425  10.331  13.086
51136W        W23561   8.331   9.894   3.302
51137W        W23562  39.928  35.070  14.983
51138W        W23563  43.758  41.572   0.434
51139W        W23564  19.753  26.122   3.597
51140W        W23565  44.976  19.477  13.092
51141W        W23566  29.095  14.086   3.882
51142W        W23567  29.451  36.027   0.974
51143W        W23568   8.813  35.778  13.938
51144W        W23569  37.590  39.748   2.104
51145W        W23570  26.209  33.916  12.550
51146W        W23571  16.300   6.753  12.814
51147W        W23572  27.092  37.025   3.260
51148W        W23573  10.695   2.034  12.315
51149W        W23574  34.057  30.410  13.119
51150W        W23575  19.950  22.680   3.663
51151W        W23576  19.610  17.065   1.027
51152W        W23577  25.203  26.558  13.308
51153W        W23578  11.702  30.934   2.914
51154W        W23579  23.248  32.951  13.377
51155W        W23580   9.165  21.036   2.695
51156W        W23581  30.477   8.843   2.208
51157W        W23582  31.558  19.751  14.223
51158W        W23583  30.127  42.967   0.870
51159W        W23584  13.697   2.008  10.397
51160W        W23585  11.303  34.025   1.682
51161W        W23586  23.636  11.082  12.255
51162W        W23587  25.539  42.339  12.074
51163W        W23588   9.384   0.582   4.174
51164W        W23589  12.675   6.092   2.759
51165W        W23590  28.896  26.174   3.594
51166W        W23591  38.792  15.336   4.450
51167W        W23592  43.762  16.660  11.647
51168W        W23593  18.798   9.674   1.973
51169W        W23594  34.500   0.281   4.428
51170W        W23595   2.202  11.198  11.459
51171W        W23596  14.644  23.644   5.477
51172W        W23597  14.496  32.513  13.894
51173W        W23598  33.986  27.959   2.766
51174W        W23599  36.705  32.525   1.336
51175W        W23600  23.135  24.505   2.683
51176W        W23601  29.347  19.900   1.295
51177W        W23602  33.619  34.941   0.357
51178W        W23603  14.069   3.428  14.952
51179W        W23604   6.854  28.676   4.601
51180W        W23605  27.416  38.801  13.516
51181W        W23606  37.618   1.648   0.521
51182W        W23607  35.762  37.061  13.062
51183W        W23608  12.667  11.340  12.200
51184W        W23609  20.550  44.703  11.533
51185W        W23610  27.491  35.661  10.873
51186W        W23611  26.580  14.627  11.463
51187W        W23612  36.113  30.342   3.140
51188W        W23613   9.367  35.306  13.451
51189W        W23614   8.909  35.650  12.459
51190W        W23615  25.466   5.812  14.282
51191W        W23616  30.390  24.999  14.767
51192W        W23617  30.108   1.417  13.820
51193W        W23618  30.650  24.521  13.897
51194W        W23619   4.309  41.732   4.067
51195W        W23620  34.560   8.276   1.354
51196W        W23621  25.462  11.485   2.217
51197W        W23622   9.685   7.263   4.539
51198W        W23623  33.505  30.189  14.920
51199W        W23624  32.164  26.391   4.637
51200W        W23625  25.033   2.991  12.895
51201W        W23626  16.619  30.371  13.915
51202W        W23627  16.095  38.804  11.625
51203W        W23628  13.775  37.957   4.519
51204W        W23629  42.740  27.104  12.005
51205W        W23630  22.393   4.960  10.863
51206W        W23631  39.561   5.405   4.520
51207W        W23632   3.378  35.420  11.064
51208W        W23633   3.325  44.989  12.520
51209W        W23634  36.952  40.071  13.744
51210W        W23635  11.620  19.274   3.010
51211W        W23636   9.562  27.967   1.735
51212W        W23637   4.979  35.801  10.976
51213W        W23638  10.062  18.787   4.990
51214W        W23639  38.831  32.537  14.477
51215W        W23640  23.677   6.714   3.661
51216W        W23641  38.752  41.793  14.391
51217W        W23642  31.549  42.363  13.110
51218W        W23643  41.892  31.048   3.147
51219W        W23644  17.678   8.663  14.516
51220W        W23645  18.519  16.038   3.660
51221W        W23646  35.901  26.434  14.529
51222W        W23647  12.703   6.688  12.433
51223W        W23648  23.788  11.158   9.619
51224W        W23649  44.462  17.308   2.869
51225W        W23650  24.549  43.418  14.962
51226W        W23651   3.185   6.024   9.831
51227W        W23652  26.547  28.516   3.253
51228W        W23653  18.103  16.720  10.724
51229W        W23654  30.040  42.293  12.823
51230W        W23655  27.931  37.543   4.110
51231W        W23656  22.329   2.217  14.407
51232W        W23657  21.598  23.963  10.856
51233W        W23658  33.282  25.352  14.285
51234W        W23659  23.138  23.525  12.410
51235W        W23660  33.093   7.954   0.475
51236W        W23661  32.291  36.299  14.889
51237W        W23662  22.306   7.785  13.924
51238W        W23663  25.072  23.030   3.055
51239W        W23664  17.730  26.449  10.597
51240W        W23665  10.630  40.536   1.109
51241W        W23666  30.118   7.333  11.626
51242W        W23667  16.796  41.439   2.656
51243W        W23668  38.446  25.483   4.070
51244W        W23669  13.249  32.003   2.639
51245W        W23670   1.334  40.137  11.097
51246W        W23671   6.813  16.417   1.895
51247W        W23672   9.205   1.848  13.434
51248W        W23673   2.013  10.253   3.592
51249W        W23674   1.804  28.897   2.157
51250W        W23675  15.503  29.460   9.778
51251W        W23676  38.521  10.761  11.110
51252W        W23677  42.871  11.353  12.763
51253W        W23678   0.296  29.567   4.071
51254W        W23679  33.815  13.251   1.786
51255W        W23680  20.610  34.851   3.766
51256W        W23681   2.935  11.705  14.876
51257W        W23682  10.694  28.213   3.297
51258W        W23683  12.313  23.727   2.762
51259W        W23684   2.518  13.740   3.625
51260W        W23685  10.580   4.796   4.691
51261W        W23686  25.327  18.382   2.897
51262W        W23687  19.522  20.469   1.797
51263W        W23688  23.525  43.367   3.559
51264W        W23689  33.369  43.282   1.923
51265W        W23690  40.850  27.526   2.903
51266W        W23691   2.513  31.129  11.198
51267W        W23692  25.485  12.000   2.258
51268W        W23693   6.326  10.229  10.424
51269W        W23694  23.931  27.481   0.815
51270W        W23695  39.935  23.818  13.070
51271W        W23696   6.244  21.738   1.165
51272W        W23697  28.988  20.092   4.854
51273W        W23698  15.690  17.885   2.687
51274W        W23699  31.114  32.732   0.688
51275W        W23700  37.020  21.964  14.927
51276W        W23701   1.369   5.391  10.538
51277W        W23702   7.861   0.900   1.140
51278W        W23703  38.342  13.201   0.230
51279W        W23704  28.436  32.060   4.485
51280W        W23705  43.096  16.218   1.734
51281W        W23706  15.733  33.123   3.766
51282W        W23707   4.195  37.071   4.066
51283W        W23708  41.523  16.089  13.527
51284W        W23709  15.188  41.479  13.878
51285W        W23710  36.549   4.978   0.822
51286W        W23711  17.133   0.903   0.494
51287W        W23712   7.755  12.091  12.640
51288W        W23713  18.013  35.846  12.175
51289W        W23714  24.489  23.275  13.825
51290W        W23715   8.523  23.506   1.674
51291W        W23716  39.463   7.243   3.139
51292W        W23717   1.816   4.694   1.618
51293W        W23718  38.720   3.185  12.072
51294W        W23719  34.715   1.653   0.223
51295W        W23720  21.503  32.996  14.952
51296W        W23721  39.068  25.980   3.532
51297W        W23722  10.637  38.761   4.890
51298W        W23723   5.254  39.243   3.865
51299W        W23724  13.693  18.769  12.624
51300W        W23725  16.361  13.566   1.745
51301W        W23726  36.957  43.371   3.246
51302W        W23727  11.756  39.385   0.019
51303W        W23728   6.942  27.724  11.193
51304W        W23729   3.529  29.048   0.873
51305W        W23730  20.341  31.638  11.544
51306W        W23731  21.500  10.140   4.152
51307W        W23732  25.509  26.512  12.872
51308W        W23733  33.420  10.839  13.964
51309W        W23734  44.404  43.026   1.953
51310W        W23735  23.501  26.484  14.367
51311W        W23736  27.654  10.853   4.113
51312W        W23737  19.961  25.503  11.604
51313W        W23738  41.482   6.813   4.844
51314W        W23739  17.124  13.822  11.128
51315W        W23740  27.095  41.932  11.859
51316W        W23741  38.156  29.376   0.411
51317W        W23742   0.981   8.750  12.071
51318W        W23743  38.155  14.931   1.875
51319W        W23744  22.102   7.279   4.887
51320W        W23745   1.763  21.129  11.797
51321W        W23746  26.736  43.519   3.396
51322W        W23747  44.989  18.837   4.988
51323W        W23748  17.641  21.696   0.946
51324W        W23749  13.150  41.961   4.130
51325W        W23750  13.315  44.713  12.083
51326W        W23751  36.005  24.922  11.627
51327W        W23752  23.330  16.097  12.136
51328W        W23753   2.796  31.464   0.741
51329W        W23754  21.171   8.011   1.338
51330W        W23755   8.601   4.014   1.773
51331W        W23756  23.651  33.384   4.707
51332W        W23757   4.644  23.783  14.835
51333W        W23758  22.554   9.739   1.329
51334W        W23759  10.434  34.969  11.163
51335W        W23760  28.423  34.824  11.555
51336W        W23761  43.685   0.597   2.171
51337W        W23762  12.815   1.327   2.392
51338W        W23763  31.978  29.344  10.910
51339W        W23764  17.055   5.050   9.908
51340W        W23765  29.418  20.558  11.581
51341W        W23766  22.736  27.166   0.004
51342W        W23767  18.863  31.055  12.049
51343W        W23768  14.986  16.256  11.516
51344W        W23769  37.630  20.781  11.725
51345W        W23770  35.868  15.542  14.248
51346W        W23771  42.118  22.887   0.710
51347W        W23772   7.741  25.242  11.638
51348W        W23773  39.521  33.092  13.116
51349W        W23774   0.829   4.540   0.557
51350W        W23775  43.411  27.249  14.492
51351W        W23776  33.883  33.902   1.340
51352W        W23777  37.460  34.033   3.132
51353W        W23778  15.823  27.112   3.650
51354W        W23779  32.448  38.806  14.408
51355W        W23780  14.144  22.074  11.700
51356W        W23781  25.023  38.479  12.821
51357W        W23782  23.342  26.049  14.576
51358W        W23783   6.775  24.097   0.560
51359W        W23784  26.505  10.477   4.584
51360W        W23785   5.202   1.721  11.625
51361W        W23786  33.105  40.557   5.007
51362W        W23787  26.275  28.863  11.178
51363W        W23788  11.625  44.432  12.565
51364W        W23789  32.004  13.591  14.322
51365W        W23790   1.138  43.845  13.091
51366W        W23791  17.985  20.000   2.929
51367W        W23792  12.449  13.697   0.681
51368W        W23793  12.251   6.278   1.856
51369W        W23794  36.631  26.428  12.015
51370W        W23795  44.036  15.210   1.459
51371W        W23796  21.721  16.734  11.623
51372W        W23797   2.185  11.146   1.610
51373W        W23798  15.651  42.728  14.694
51374W        W23799   4.208   2.992   2.208
51375W        W23800   8.836  23.454   4.789
51376W        W23801  39.784  24.299  11.579
51377W        W23802  44.350   2.830   1.758
51378W        W23803   4.806  22.113  13.545
51379W        W23804  44.966  15.571  12.161
51380W        W23805  28.937  14.750  11.668
51381W        W23806  12.587  10.668  13.530
51382W        W23807  11.175  37.799  10.649
51383W        W23808   5.001  39.990   2.634
51384W        W23809   9.387  17.036   4.318
51385W        W23810  32.305  18.627   1.896
51386W        W23811  41.545   3.195   4.491
51387W        W23812  37.793  10.139   1.432
51388W        W23813  17.861  33.288   5.062
51389W        W23814  29.155  41.750   3.387
51390W        W23815  11.343  34.405   3.952
51391W        W23816   6.706   7.958  10.863
51392W        W23817   1.738   8.813  12.669
51393W        W23818   6.981  18.588  13.462
51394W        W23819   1.633  34.962   1.011
51395W        W23820  41.409   4.735  12.615
51396W        W23821  29.541  12.066   3.283
51397W        W23822  12.835  10.884  12.004
51398W        W23823  33.051  33.355  14.475
51399W        W23824  34.123  22.129  11.179
51400W        W23825  27.621  22.734   4.113
51401W        W23826  25.483  35.137   1.155
51402W        W23827  29.604  11.790   4.175
51403W        W23828  27.593  39.509   2.323
51404W        W23829  37.033  16.550  13.037
51405W        W23830  42.874  30.126   2.751
51406W        W23831   4.709   7.479   1.233
51407W        W23832  17.048  36.870   0.325
51408W        W23833  25.707   6.148  12.622
51409W        W23834  15.498  17.363  14.372
51410W        W23835  37.490   7.768   0.250
51411W        W23836  34.325  23.105  12.574
51412W        W23837  18.290  15.954  12.085
51413W        W23838  21.538  35.591  11.742
51414W        W23839  42.398  20.264   3.762
51415W        W23840  33.362  31.249   0.484
51416W        W23841  10.218   5.103  14.275
51417W        W23842   2.279  10.427  10.653
51418W        W23843  21.483  24.181  12.632
51419W        W23844   6.110   7.473  11.162
51420W        W23845  37.485  25.728   4.110
51421W        W23846   7.385   3.782   4.168
51422W        W23847   1.460   3.363  13.926
51423W        W23848  28.278  23.950  10.632
51424W        W23849  12.759   6.474   4.038
51425W        W23850  43.365  27.830   3.596
51426W        W23851   0.902  21.580   3.823
51427W        W23852  37.835   5.368  12.501
51428W        W23853  32.374  33.904  11.563
51429W        W23854  38.578   3.756   2.876
51430W        W23855  44.376  27.699   2.218
51431W        W23856   8.223  21.129  11.118
51432W        W23857  20.582   8.852  13.458
51433W        W23858  37.477  43.732  12.090
51434W        W23859   1.315  28.111  12.847
51435W        W23860  33.589   5.757  11.521
51436W        W23861  27.457   5.826   4.366
51437W        W23862  42.027   7.678   2.636
51438W        W23863   7.897  14.730  12.865
51439W        W23864  21.921  13.836  13.834
51440W        W23865  24.060  31.474   3.468
51441W        W23866  21.497  23.184   4.635
51442W        W23867  21.752  18.481   2.215
51443W        W23868  18.657  33.369   0.277
51444W        W23869  21.150  42.458   3.334
51445W        W23870  36.097  10.882   0.326
51446W        W23871  12.736   0.820  14.026
51447W        W23872  31.026  24.031  10.284
51448W        W23873   4.494  32.367  14.256
51449W        W23874  33.840  44.824  12.126
51450W        W23875  26.204   4.478  13.024
51451W        W23876  11.870  17.833   4.104
51452W        W23877  19.836  31.896  12.546
51453W        W23878  42.006  34.747   2.163
51454W        W23879  36.172  38.897   4.613
51455W        W23880   2.852  42.625  14.580
51456W        W23881   1.264   8.190   3.702
51457W        W23882  34.578  29.890  13.383
51458W        W23883  27.104  15.454  11.993
51459W        W23884   0.816  12.544  10.457
51460W        W23885  24.365  15.868  14.794
51461W        W23886   4.477  43.989  14.113
51462W        W23887  44.409  30.981   0.318
51463W        W23888  34.549  19.135  11.145
51464W        W23889  30.752  22.927  12.504
51465W        W23890  26.580   5.242  14.918
51466W        W23891  40.481  30.020  12.030
51467W        W23892  21.431  25.528   0.940
51468W        W23893  12.601  10.694   2.235
51469W        W23894  34.482   4.200   4.331
51470W        W23895  24.299  26.619  13.438
51471W        W23896  42.969   8.841  10.753
51472W        W23897  13.608   2.630  14.860
51473W        W23898  36.903  37.410   1.766
51474W        W23899  33.723  36.075  12.205
51475W        W23900  29.515   2.409   3.828
51476W        W23901  32.142  32.467  11.561
51477W        W23902  11.374  40.934  11.825
51478W        W23903  39.939  17.135   3.133
51479W        W23904  43.160   8.978  12.978
51480W        W23905  11.438  39.824   2.620
51481W        W23906   2.931   6.271   2.156
51482W        W23907  21.876  24.564   3.417
51483W        W23908  24.977  40.161   4.967
51484W        W23909  32.576  37.337  10.317
51485W        W23910  36.500   3.667   4.806
51486W        W23911  12.042  40.405   2.701
51487W        W23912  23.971  21.925  10.966
51488W        W23913  27.117  13.748   3.722
51489W        W23914   7.879   0.177  11.042
51490W        W23915  33.405  44.077   3.694
51491W        W23916  36.555  41.827  13.994
51492W        W23917  30.889   3.858  13.921
51493W        W23918   3.252  37.561  14.005
51494W        W23919  36.223  31.709   3.407
51495W        W23920   4.883  44.321   2.432
51496W        W23921  21.074  43.922  12.760
51497W        W23922   8.815   1.944  12.058
51498W        W23923  17.665   6.279  10.759
51499W        W23924  22.462  28.174   1.307
51500W        W23925  35.038  10.486  11.098
51501W        W23926   8.744  31.367  14.807
51502W        W23927  32.853  35.548  12.636
51503W        W23928  25.402  32.103  14.840
51504W        W23929  40.879  24.535  12.050
51505W        W23930  10.741  40.130   4.829
51506W        W23931  43.707  12.177  13.524
51507W        W23932  39.921   9.192  14.662
51508W        W23933  12.222  31.324   4.844
51509W        W23934  30.284  41.202   3.597
51510W        W23935   4.749   5.142   3.222
51511W        W23936  35.364  17.261   1.413
51512W        W23937   6.192   7.670  14.370
51513W        W23938  21.293  42.452  12.910
51514W        W23939  16.297  15.688   4.274
51515W        W23940  32.355  13.762  13.712
51516W        W23941  41.855  27.039  13.273
51517W        W23942  16.047  35.802  14.416
51518W        W23943  27.243  25.209  13.043
51519W        W23944   9.640  18.372   1.416
51520W        W23945  37.825   8.474   5.433
51521W        W23946  40.787   5.086   0.523
51522W        W23947   3.945  32.663  13.980
51523W        W23948  36.274  37.664  10.859
51524W        W23949  16.083  23.573   2.712
51525W        W23950  26.653  11.365  14.811
51526W        W23951   6.471  28.082   1.102
51527W        W23952  29.528  16.298  13.854
51528W        W23953  21.248  13.818   0.264
51529W        W23954   9.578   8.268  12.239
51530W        W23955  38.188  11.189   3.067
51531W        W23956   1.224   3.193   4.668
51532W        W23957  29.728  38.884  11.544
51533W        W23958  17.663  24.280   3.284
51534W        W23959   7.240  28.965   0.266
51535W        W23960  13.878  31.044  10.721
51536W        W23961  34.533  36.042   2.057
51537W        W23962   5.957   0.651   2.719
51538W        W23963  37.752  28.702  14.422
51539W        W23964  17.673  17.564  13.956
51540W        W23965  36.045  17.555   3.125
51541W        W23966  11.787  10.379  11.092
51542W        W23967  13.255   2.730   0.761
51543W        W23968  14.382  32.397  12.481
51544W        W23969  21.471  10.981   5.133
51545W        W23970  16.539   6.705  10.979
51546W        W23971  10.361  24.743  13.048
51547W        W23972  21.227  15.403  11.582
51548W        W23973  30.849  19.683   2.750
51549W        W23974  16.196   6.691   0.192
51550W        W23975  11.201  19.583   4.146
51551W        W23976   8.593  43.626   3.897
51552W        W23977  37.222  14.155   2.865
51553W        W23978  30.115  44.926   3.083
51554W        W23979   8.408   9.598  12.540
51555W        W23980   9.839  32.618  11.018
51556W        W23981  36.912   4.042  12.852
51557W        W23982  15.871  23.704  14.479
51558W        W23983  38.414   3.231  13.007
51559W        W23984  13.214  38.068   2.746
51560W        W23985  21.265  42.867  11.341
51561W        W23986   1.250  24.953  13.075
51562W        W23987  34.551  10.755   2.451
51563W        W23988  41.580   9.725   3.776
51564W        W23989  24.259  29.998  14.912
51565W        W23990  28.464  17.606  12.815
51566W        W23991   8.709  28.041   4.908
51567W        W23992  31.656  39.491   3.851
51568W        W23993  23.165   2.653  12.428
51569W        W23994  21.121  41.266   0.904
51570W        W23995   8.335  38.814  13.495
51571W        W23996  22.635  12.219   9.864
51572W        W23997  33.585  22.829  12.233
51573W        W23998  31.650  24.617   2.338
51574W        W23999  37.612  28.176  14.259
51575W        W24000   7.768  32.252   0.469
51576W        W24001  42.037  16.749   2.214
51577W        W24002  10.308   9.682   3.744
51578W        W24003  32.030   1.199   2.860
51579W        W24004  32.039  36.924   4.387
51580W        W24005  17.652  35.118   3.756
51581W        W24006  42.582  41.808  10.794
51582W        W24007  37.906  24.716   0.948
51583W        W24008  38.547  18.107   3.159
51584W        W24009  16.176   0.325   4.170
51585W        W24010  35.485  40.048   2.323
51586W        W24011  31.470  28.987  14.052
51587W        W24012  14.809  37.078   3.624
51588W        W24013  25.125  39.723   3.847
51589W        W24014   3.693  28.469  13.482
51590W        W24015   6.202  28.644   3.700
51591W        W24016  16.553  22.193  11.933
51592W        W24017  27.150  42.728   3.204
51593W        W24018   6.741  44.367  14.869
51594W        W24019  26.077  38.976   1.827
51595W        W24020   7.313   0.079  12.193
51596W        W24021  43.451   4.688   0.952
51597W        W24022  39.357  37.935  14.835
51598W        W24023   5.201   5.950   3.314
51599W        W24024  43.181   6.310   4.910
51600W        W24025  33.296  19.125  12.599
51601W        W24026  15.745  28.165   4.330
51602W        W24027  31.572  30.044  13.830
51603W        W24028  17.136  36.468  13.976
51604W        W24029  44.842  32.588   2.296
51605W        W24030  19.212   8.671   2.898
51606W        W24031  42.834  22.235  12.543
51607W        W24032  44.486  37.790   3.809
51608W        W24033  21.536  29.921  13.825
51609W        W24034   7.190  32.195  13.815
51610W        W24035  44.417  36.939  11.660
51611W        W24036  15.315  14.963   2.728
51612W        W24037  15.761  29.632  11.097
51613W        W24038   6.428   0.861   0.482
51614W        W24039  13.124  29.119  14.366
51615W        W24040   3.422   9.411   4.678
51616W        W24041   0.339  28.921   2.772
51617W        W24042   6.435  19.043   2.387
51618W        W24043   4.876  22.632  11.974
51619W        W24044  41.955  13.268   1.869
51620W        W24045  32.101   2.517  11.991
51621W        W24046  20.319  37.760   2.784
51622W        W24047  13.916  41.819  13.471
51623W        W24048   1.235  44.570  11.962
51624W        W24049  28.112  34.490   0.180
51625W        W24050   2.392  26.259  14.978
51626W        W24051  21.277   4.200   0.507
51627W        W24052  22.417  18.760   4.880
51628W        W24053  20.499  26.713  11.160
51629W        W24054  15.779  17.151  14.014
51630W        W24055   2.388  27.085  13.277
51631W        W24056  19.061  26.731   0.371
51632W        W24057  27.929  25.844  11.630
51633W        W24058  28.643  20.205   2.608
51634W        W24059  27.202  13.211   1.268
51635W        W24060   7.092  30.666   3.316
51636W        W24061  22.657  44.835   0.965
51637W        W24062  27.049  43.811  13.516
51638W        W24063  18.721  16.778   3.288
51639W        W24064   5.659  43.334  14.400
51640W        W24065  16.065  32.580  12.828
51641W        W24066  25.567   5.208  13.028
51642W        W24067   3.805  33.384  13.325
51643W        W24068  32.628  40.880  13.458
51644W        W24069  42.061   0.219   4.218
51645W        W24070  13.773  43.584  13.011
51646W        W24071  29.637  20.521   4.142
51647W        W24072  44.037  21.206  14.754
51648W        W24073   1.001  43.767  11.560
51649W        W24074  34.556  21.980  12.081
51650W        W24075   6.806   6.273  11.071
51651W        W24076   7.928  10.800  14.863
51652W        W24077  10.780   6.313   1.386
51653W        W24078  13.802  15.354  10.908
51654W        W24079  39.326  19.598  14.310
51655W        W24080  41.793  37.614   4.132
51656W        W24081  42.326  37.609   3.273
51657W        W24082  43.916  26.033  13.494
51658W        W24083  27.445  29.340  13.015
51659W        W24084   6.848  23.197  12.110
51660W        W24085  22.136  43.220  12.824
51661W        W24086  11.594   0.264  12.971
51662W        W24087  11.695   8.452  10.648
51663W        W24088  40.224  39.140   2.281
51664W        W24089  43.767   6.186  10.514
51665W        W24090   2.967  17.692   2.484
51666W        W24091  35.977  44.749  14.805
51667W        W24092  32.941  33.388  13.907
51668W        W24093  18.105   9.350  13.465
51669W        W24094  42.407  34.604  11.031
51670W        W24095  41.136  13.797   2.249
51671W        W24096  22.357   1.284  11.478
51672W        W24097  29.213  44.212  12.801
51673W        W24098  14.121  25.056   4.204
51674W        W24099  32.114  20.565  14.447
51675W        W24100   6.704  19.975  14.205
51676W        W24101  44.834  25.321  10.660
51677W        W24102  27.507  38.508  12.056
51678W        W24103  44.820  31.656   0.492
51679W        W24104  10.481  37.804  13.493
51680W        W24105  42.106  16.809  14.808
51681W        W24106  42.449  37.714  12.792
51682W        W24107  35.539  33.553  10.646
51683W        W24108   8.266   2.915   2.631
51684W        W24109  16.560  32.094   5.134
51685W        W24110  35.304  31.155   2.613
51686W        W24111  30.558  35.695   4.321
51687W        W24112  37.930  41.414  11.013
51688W        W24113  39.451  12.296   2.885
51689W        W24114  22.489  35.029   3.261
51690W        W24115  22.239  28.470  11.954
51691W        W24116  40.050  11.631  12.586
51692W        W24117   5.371  36.224   3.606
51693W        W24118  36.173  35.849  11.970
51694W        W24119   6.829  17.559  13.309
51695W        W24120  11.215   8.287  13.158
51696W        W24121  32.899  15.173   2.163
51697W        W24122  15.232  12.912  12.378
51698W        W24123  17.796   9.413   4.318
51699W        W24124  37.926  25.157   0.289
51700W        W24125  41.105   6.851   1.793
51701W        W24126  20.443  21.749  14.755
51702W        W24127  20.309  22.757  11.897
51703W        W24128  44.415  33.839  13.483
51704W        W24129   4.242  18.097  12.998
51705W        W24130  30.985  44.693   2.856
51706W        W24131  33.546   8.690   3.185
51707W        W24132  16.792   5.344  12.102
51708W        W24133  29.473  31.232   1.904
51709W        W24134  25.788  44.979  11.635
51710W        W24135   1.884  42.597  11.154
51711W        W24136  41.026  10.009  14.449
51712W        W24137  18.820  14.752   3.638
51713W        W24138  14.655   4.260   3.943
51714W        W24139   9.718  10.788  10.871
51715W        W24140   7.149  18.208  11.642
51716W        W24141   7.382  42.238  11.180
51717W        W24142   6.683  16.365   2.399
51718W        W24143  21.640  28.818   0.851
51719W        W24144  44.592  36.954   0.309
51720W        W24145  20.212  15.369  13.763
51721W        W24146  32.486  27.536   0.203
51722W        W24147  29.123  24.460  12.946
51723W        W24148   4.287  30.254   5.029
51724W        W24149  13.662   3.784   3.142
51725W        W24150  27.642  28.012   3.196
51726W        W24151   1.320  36.461  10.788
51727W        W24152  13.128  36.463   4.089
51728W        W24153   1.019  30.171   3.822
51729W        W24154  39.997  35.225   3.562
51730W        W24155  34.941  24.398  11.612
51731W        W24156  41.737  10.354   2.445
51732W        W24157   7.899   8.499   2.891
51733W        W24158  37.359   3.439   2.170
51734W        W24159  43.864   3.796  10.892
51735W        W24160  39.127  13.239   4.249
51736W        W24161  43.408  35.915  13.500
51737W        W24162  34.587  25.475   0.493
51738W        W24163   0.429  13.094  11.695
51739W        W24164  43.916  44.193  14.444
51740W        W24165  40.210  28.470  14.498
51741W        W24166  25.766   4.838  11.680
51742W        W24167  36.084  35.128  11.640
51743W        W24168   2.308  32.953   1.467
51744W        W24169  29.399  39.063  12.518
51745W        W24170  16.126  25.914  11.686
51746W        W24171  41.743   0.200  11.204
51747W        W24172  31.903   6.436  14.439
51748W        W24173   1.167  16.116  13.923
51749W        W24174  36.854  12.233   2.199
51750W        W24175  34.600  26.004  14.289
51751W        W24176  13.355   8.363  14.695
51752W        W24177  40.380  25.455   4.723
51753W        W24178  43.927  26.701   0.299
51754W        W24179   8.121  35.489   1.337
51755W        W24180  39.877  21.903   2.697
51756W        W24181  14.802  31.190  14.410
51757W        W24182  35.864  42.343   2.712
51758W        W24183  42.003  32.537   4.217
51759W        W24184  26.757  31.269  11.120
51760W        W24185  40.399  28.434   3.348
51761W        W24186  43.263  31.329   4.272
51762W        W24187  25.402  15.743   4.546
51763W        W24188  35.435  34.271  14.824
51764W        W24189  20.537  24.036   4.950
51765W        W24190  36.993  18.241   4.286
51766W        W24191  13.299  37.278  11.645
51767W        W24192  16.408  21.018   3.222
51768W        W24193  17.511  27.377  10.397
51769W        W24194  23.465   3.768  12.187
51770W        W24195  28.944   8.377   3.342
51771W        W24196  38.463  30.477   1.837
51772W        W24197  43.410  13.695  12.685
51773W        W24198  36.476  19.993   4.581
51774W        W24199  31.713  41.676  11.034
51775W        W24200  37.059   7.946  10.637
51776W        W24201  29.911  12.416   0.692
51777W        W24202  42.919  44.841   2.670
51778W        W24203  32.416  33.065   0.383
51779W        W24204  34.561  33.423  12.638
51780W        W24205  38.317  43.785   2.819
51781W        W24206   0.925   1.299   4.567
51782W        W24207  29.967  23.545  11.036
51783W        W24208  31.324  26.939  13.881
51784W        W24209  43.257  32.191  13.192
51785W        W24210  40.715  34.343   0.446
51786W        W24211   5.827  11.502  13.702
51787W        W24212  20.708  38.538  11.503
51788W        W24213  33.684  10.817   4.837
51789W        W24214  24.875  39.042  11.653
51790W        W24215  36.346  30.695  13.453
51791W        W24216  13.833  31.931   4.641
51792W        W24217  24.063  40.110  12.076
51793W        W24218  12.720  43.127   1.712
51794W        W24219  31.880  23.061  12.608
51795W        W24220  24.449  39.773  12.001
51796W        W24221  28.011  22.696  13.471
51797W        W24222  16.586  20.024  10.629
51798W        W24223  20.697   6.477   3.660
51799W        W24224  16.334  35.257   0.324
51800W        W24225  25.531  14.905   3.607
51801W        W24226  27.498  37.307   4.283
51802W        W24227  31.372  19.006   2.472
51803W        W24228  37.978  14.338  11.462
51804W        W24229  32.686  20.789  12.825
51805W        W24230  22.736  27.932  12.549
51806W        W24231  17.686  16.227   1.823
51807W        W24232  24.794  44.463  13.051
51808W        W24233  25.166  25.375   4.211
51809W        W24234  14.134  42.562   3.761
51810W        W24235  44.957  38.483   0.386
51811W        W24236  20.742  34.646  12.639
51812W        W24237  38.468  25.991  14.869
51813W        W24238  40.930  38.860  13.335
51814W        W24239   4.558  13.800  11.456
51815W        W24240  39.364  38.821  14.337
51816W        W24241   3.543  16.644  12.308
51817W        W24242  15.522  22.110  11.955
51818W        W24243  44.756  11.606  14.057
51819W        W24244  13.799  38.020   1.334
51820W        W24245  10.400   0.866   3.791
51821W        W24246  40.400  15.499   0.384
51822W        W24247  22.180  28.908   0.696
51823W        W24248  34.402  38.615   3.695
51824W        W24249  43.017   2.278   1.119
51825W        W24250  11.867  21.649   4.152
51826W        W24251  16.540  26.565  11.159
51827W        W24252  27.253  21.755   2.464
51828W        W24253  33.487  17.133  11.899
51829W        W24254  18.991   7.901  11.610
51830W        W24255   0.742  36.382   1.989
51831W        W24256  21.199  24.767   4.008
51832W        W24257  36.924  37.590   2.258
51833W        W24258  28.284  26.227  14.729
51834W        W24259  36.500  42.939   2.893
51835W        W24260  24.913   9.253   5.332
51836W        W24261  15.361  31.223  11.590
51837W        W24262  30.801  31.129   3.441
51838W        W24263  12.775  14.998  13.831
51839W        W24264  21.307  22.134   3.887
51840W        W24265  37.039  17.155   3.152
51841W        W24266  13.870  10.546   3.669
51842W        W24267  38.568  18.690   4.163
51843W        W24268  15.345  38.974  10.680
51844W        W24269  10.039   3.625  14.903
51845W        W24270  22.252  41.045  11.512
51846W        W24271   2.900  33.572   1.874
51847W        W24272  44.179  40.604   1.753
51848W        W24273  37.547  30.987   1.155
51849W        W24274  15.902  24.409   1.807
51850W        W24275  36.958   7.772  12.074
51851W        W24276   8.802  42.461  14.240
51852W        W24277  32.572  24.938  14.039
51853W        W24278  40.775  42.656  14.453
51854W        W24279  34.664  19.147   3.159
51855W        W24280  31.936  27.065  10.757
51856W        W24281  16.114  42.295  12.966
51857W        W24282  31.448  28.601  13.529
51858W        W24283  36.036  13.767   4.582
51859W        W24284  28.358  30.844   3.786
51860W        W24285  12.694  31.404  14.518
51861W        W24286  13.851  30.687  11.539
51862W        W24287  20.777  33.209   0.438
51863W        W24288  19.210  31.597   4.607
51864W        W24289  36.973  21.560  11.410
51865W        W24290  43.424  25.708   2.269
51866W        W24291  34.327  32.741  12.126
51867W        W24292   3.918  35.433   0.783
51868W        W24293   0.153  39.131   4.008
51869W        W24294  24.582  44.257   0.244
51870W        W24295  33.981  31.410   0.277
51871W        W24296   5.337  42.994   2.156
51872W        W24297  30.699  10.608   2.702
51873W        W24298  15.331  19.097   4.616
51874W        W24299  17.457   7.081  13.860
51875W        W24300   0.975   6.284   2.339
51876W        W24301  12.842  37.946   3.191
51877W        W24302  41.031  22.290   4.642
51878W        W24303  31.628  28.643   1.116
51879W        W24304   7.294  29.495   2.660
51880W        W24305   4.787  25.155   3.566
51881W        W24306  24.696  37.926   4.691
51882W        W24307  32.566  44.210   0.325
51883W        W24308   8.408   1.822  14.004
51884W        W24309  28.949   6.281  10.435
51885W        W24310  30.356  42.925  11.200
51886W        W24311  23.621  37.950  14.884
51887W        W24312   1.589   3.045   2.260
51888W        W24313  24.674  22.580   1.704
51889W        W24314  43.004   4.903  11.947
51890W        W24315  29.998   1.225   3.748
51891W        W24316  34.542  23.438  13.460
51892W        W24317  25.616  32.486   4.138
51893W        W24318  20.329  33.416   0.053
51894W        W24319  30.025  30.622  10.490
51895W        W24320   6.614  23.206  12.577
51896W        W24321  15.642   1.432   3.972
51897W        W24322  36.374  32.096  11.687
51898W        W24323  25.502  12.716   4.671
51899W        W24324  34.327  14.424  14.301
51900W        W24325   8.147  32.553   2.246
51901W        W24326  35.352  13.847  13.410
51902W        W24327  29.917  39.382  12.611
51903W        W24328  24.551  25.098   0.898
51904W        W24329  39.158  43.512   0.527
51905W        W24330   5.633  27.579   0.097
51906W        W24331  31.881  12.161  12.008
51907W        W24332   2.064  29.542  13.011
51908W        W24333  25.590  14.391   3.537
51909W        W24334  13.062   1.422  14.598
51910W        W24335  13.120   9.846   2.169
51911W        W24336  23.946  26.076  11.182
51912W        W24337  17.535  11.629  11.240
51913W        W24338  23.008  15.606   4.161
51914W        W24339  24.224  29.550  12.728
51915W        W24340  36.623   1.149  11.525
51916W        W24341   6.055  22.335  11.559
51917W        W24342  43.680   3.395   4.156
51918W        W24343   0.524   6.347  11.442
51919W        W24344  29.680  43.337   2.350
51920W        W24345  38.317   7.408  11.362
51921W        W24346  37.950  18.030  12.562
51922W        W24347   5.522   1.946  14.507
51923W        W24348   2.443  25.369  11.808
51924W        W24349  34.392   2.317   3.649
51925W        W24350  44.938  12.427  14.375
51926W        W24351  37.180  36.630  14.019
51927W        W24352   5.583   0.481   0.584
51928W        W24353   5.593  27.036  13.049
51929W        W24354  31.296   6.796   3.264
51930W        W24355  23.033  36.431  12.502
51931W        W24356  30.907   4.827  14.881
51932W        W24357  35.264  25.480  13.949
51933W        W24358  12.650  10.253  14.493
51934W        W24359   4.976   3.886   0.648
51935W        W24360  14.789   3.790   3.670
51936W        W24361   6.766  19.494   1.502
51937W        W24362  20.208  32.447   3.666
51938W        W24363  13.380  37.838   4.204
51939W        W24364   4.320  26.930  14.291
51940W        W24365   2.368  16.695   1.897
51941W        W24366  22.564  24.169   4.788
51942W        W24367   2.555  34.751  14.884
51943W        W24368  34.062  15.818   4.566
51944W        W24369  14.041   1.932  11.182
51945W        W24370  24.253   5.346  12.003
51946W        W24371  16.332   1.548   0.361
51947W        W24372   7.202   3.131   4.703
51948W        W24373  15.354  32.629  13.533
51949W        W24374  39.764  20.107   1.952
51950W        W24375  18.339   6.348   2.589
51951W        W24376  37.495  36.317  14.279
51952W        W24377  26.769  25.542   0.842
51953W        W24378  40.788  19.248   1.756
51954W        W24379  43.088   8.498   1.761
51955W        W24380  37.876  30.908   3.191
51956W        W24381  31.548  15.795  12.826
51957W        W24382  35.640  44.270   0.784
51958W        W24383  11.187  36.611  13.637
51959W        W24384  35.534   8.767  12.954
51960W        W24385   4.207   2.729   1.750
51961W        W24386  37.126  32.069  10.654
51962W        W24387  28.776  15.206   4.724
51963W        W24388  38.340  16.621  14.432
51964W        W24389   3.753   7.454  12.896
51965W        W24390   8.640  18.329   0.194
51966W        W24391  20.016  27.755  10.998
51967W        W24392  35.933  39.683   4.192
51968W        W24393  37.592  44.524  11.656
51969W        W24394  15.322  11.274   4.477
51970W        W24395  28.765  14.301   1.741
51971W        W24396  14.307  44.557  11.697
51972W        W24397  40.829  22.771  14.323
51973W        W24398   8.246   5.193   1.355
51974W        W24399   5.196  40.983   3.371
51975W        W24400   2.633  44.346  13.876
51976W        W24401  31.682  10.616   0.862
51977W        W24402  18.959  28.935   1.708
51978W        W24403   4.407  27.809   0.192
51979W        W24404  30.539  37.643  11.525
51980W        W24405  36.998  27.011   2.273
51981W        W24406  38.244  28.585  11.222
51982W        W24407  23.575  23.537  11.189
51983W        W24408  33.030   1.227   3.837
51984W        W24409  13.113  40.855   4.122
51985W        W24410  31.013  42.393  14.598
51986W        W24411  17.326  18.349   5.001
51987W        W24412  31.149  23.308   0.077
51988W        W24413  16.999  34.354  13.414
51989W        W24414   1.927  11.716  14.551
51990W        W24415  39.279  42.855   2.184
51991W        W24416  11.360  30.691   1.808
51992W        W24417   5.285  11.375   4.728
51993W        W24418  27.054  25.733  10.717
51994W        W24419  19.517  36.909   0.487
51995W        W24420  40.118  12.998  14.504
51996W        W24421  25.568   9.671  11.927
51997W        W24422  44.943   0.782  14.495
51998W        W24423  13.044   6.620   0.834
51999W        W24424  30.624  28.611   1.419
52000W        W24425  10.398  33.609  12.859
52001W        W24426  34.770  10.360   4.557
52002W        W24427  36.988  36.160   1.492
52003W        W24428   0.677  11.217   3.343
52004W        W24429  40.915  18.724  14.031
52005W        W24430  32.974  17.768   2.383
52006W        W24431  14.163  37.377  14.010
52007W        W24432  35.980  35.365   0.874
52008W        W24433  34.962   6.188   2.283
52009W        W24434  43.305  42.956   1.144
52010W        W24435   4.216  10.664  14.734
52011W        W24436  30.413  12.255   3.776
52012W        W24437  29.451   1.740  10.725
52013W        W24438  18.477  19.247  13.975
52014W        W24439  25.693  44.040  12.413
52015W        W24440  42.811  26.386  11.925
52016W        W24441   9.331  26.751   0.497
52017W        W24442  37.509   8.099   1.722
52018W        W24443  29.184  28.527   3.633
52019W        W24444  10.211  34.853   3.753
52020W        W24445  25.053   0.062   3.621
52021W        W24446  28.812  41.350   3.666
52022W        W24447  29.675  15.206   3.124
52023W        W24448  13.232   6.408   4.880
52024W        W24449  11.154  20.747  14.823
52025W        W24450   2.288  39.977   3.725
52026W        W24451   3.416   5.340  14.838
52027W        W24452  43.080  16.636  11.292
52028W        W24453   3.072  13.950   3.574
52029W        W24454   2.199  21.203  13.426
52030W        W24455  20.026  25.998  10.931
52031W        W24456   9.432   5.881   2.821
52032W        W24457   2.067   2.291   4.589
52033W        W24458  31.243  40.825   3.735
52034W        W24459  41.250  38.672  11.184
52035W        W24460  27.553  15.056   1.152
52036W        W24461   6.919  24.888  13.431
52037W        W24462  38.937  32.691  10.166
52038W        W24463  32.151  17.249  14.231
52039W        W24464   8.690  26.722   0.679
52040W        W24465  10.651  32.554   2.685
52041W        W24466  39.987  29.598  14.066
52042W        W24467  31.976   1.777   2.393
52043W        W24468  19.315  12.802  13.452
52044W        W24469  18.576  18.804   0.216
52045W        W24470  25.125  23.900   0.802
52046W        W24471   2.405  26.092   4.179
52047W        W24472  10.894  25.209  14.019
52048W        W24473   9.444  31.497   1.276
52049W        W24474  16.802  21.788  14.456
52050W        W24475  20.363  37.171   0.265
52051W        W24476  31.106  12.549   3.555
52052W        W24477  19.955  21.765   1.403
52053W        W24478  38.555  30.155  13.904
52054W        W24479  42.828  31.758   1.345
52055W        W24480  19.296  23.145  11.062
52056W        W24481  38.604  10.990  11.566
52057W        W24482  34.831  30.418  14.992
52058W        W24483  19.528   9.285   0.320
52059W        W24484  26.980  14.734   3.754
52060W        W24485  33.103  25.649   0.152
52061W        W24486  24.243  13.373  10.638
52062W        W24487  16.089   5.846  11.007
52063W        W24488   6.528   5.135  14.250
52064W        W24489   9.040  21.494   1.502
52065W        W24490  25.463  37.118   2.754
52066W        W24491   9.274  44.733  14.014
52067W        W24492  43.328   8.747  14.330
52068W        W24493  25.610  12.647   0.793
52069W        W24494  38.479  30.074  11.985
52070W        W24495   3.928  38.157   2.884
52071W        W24496  32.271  18.206   1.133
52072W        W24497   4.874  35.412  12.350
52073W        W24498   9.658  40.721  13.146
52074W        W24499   3.694  34.581   1.840
52075W        W24500  13.110  12.812  14.967
52076W        W24501   7.134  16.779  11.517
52077W        W24502   8.315   3.084  10.605
52078W        W24503  17.075   8.367   2.007
52079W        W24504  30.390  42.923   0.363
52080W        W24505  13.800  24.582  10.526
52081W        W24506   4.396  20.077  14.261
52082W        W24507  10.072   6.368   0.431
52083W        W24508  12.812   9.479   3.333
52084W        W24509   2.430  24.448   1.893
52085W        W24510  33.391  25.521   2.527
52086W        W24511  44.497  28.009  10.686
52087W        W24512  42.464  21.235   3.365
52088W        W24513  19.980  27.484   2.209
52089W        W24514  38.482  35.815   2.587
52090W        W24515  30.593  14.972   1.347
52091W        W24516  23.673  13.300  12.320
52092W        W24517  35.569  35.841   2.767
52093W        W24518  43.270  13.393   3.666
52094W        W24519  27.751   0.688   1.229
52095W        W24520   4.375  17.909   3.890
52096W        W24521  28.244  25.809  14.389
52097W        W24522  35.015   9.830  10.942
52098W        W24523  30.406  12.190  12.910
52099W        W24524  34.537  22.545   1.182
52100W        W24525  42.021   0.370  11.611
52101W        W24526  17.765   3.957  13.452
52102W        W24527  36.407   2.298  10.682
52103W        W24528  10.383  10.089  13.809
52104W        W24529   5.182  18.056  12.845
52105W        W24530   8.427  29.039  11.079
52106W        W24531   4.356  29.769  12.751
52107W        W24532  35.669  42.905  13.129
52108W        W24533  27.474  44.188  12.059
52109W        W24534  25.250  21.645  12.100
52110W        W24535   7.625  23.769  11.885
52111W        W24536  11.267  12.154  14.022
52112W        W24537  10.299  12.310  12.498
52113W        W24538   7.216  31.169   3.209
52114W        W24539  35.451  43.050   3.512
52115W        W24540  14.243   2.935   2.658
52116W        W24541  12.672  28.572  12.116
52117W        W24542  24.735  34.341  11.189
52118W        W24543   8.242   8.726   1.402
52119W        W24544  38.794   7.144   3.778
52120W        W24545  30.670  43.026  10.808
52121W        W24546  42.008   8.423  10.757
52122W        W24547   4.545  32.127  11.090
52123W        W24548  39.789  32.671   3.865
52124W        W24549  35.856  26.674  12.298
52125W        W24550  29.458  16.068  13.401
52126W        W24551  25.701  37.702  11.963
52127W        W24552  22.485  23.238  13.076
52128W        W24553  26.999  36.245   2.235
52129W        W24554  33.541  13.744  10.868
52130W        W24555   7.727  14.190  13.957
52131W        W24556  13.094  33.926  13.577
52132W        W24557  17.511   1.516   4.525
52133W        W24558  20.574  30.145   1.279
52134W        W24559  24.513  15.326   4.775
52135W        W24560  28.446  16.203   2.327
52136W        W24561  25.500  16.177  13.457
52137W        W24562  19.122   6.864  10.957
52138W        W24563  28.584   6.699  13.759
52139W        W24564  27.562   3.216  11.107
52140W        W24565  43.894  42.392   0.045
52141W        W24566   7.126  34.018  13.624
52142W        W24567  42.261   5.094  14.128
52143W        W24568  15.427  15.086  12.687
52144W        W24569   6.431  42.017  10.777
52145W        W24570  10.665  22.479  11.985
52146W        W24571  17.064  21.022   2.790
52147W        W24572  39.832  42.843   2.139
52148W        W24573   9.904  16.788   2.376
52149W        W24574  30.630  24.811  13.441
52150W        W24575  10.434  34.461  12.430
52151W        W24576  11.233   9.269  14.418
52152W        W24577  34.576   2.286  11.146
52153W        W24578   0.430  19.548   0.830
52154W        W24579  26.067   4.498  14.831
52155W        W24580  20.602   8.839   2.439
52156W        W24581  23.814  34.422  11.545
52157W        W24582  21.702  36.065  12.538
52158W        W24583   0.229  35.985   2.412
52159W        W24584  32.941   3.361   3.947
52160W        W24585  21.880  42.115  10.491
52161W        W24586  20.273  35.549   1.025
52162W        W24587  32.500  42.229  13.482
52163W        W24588  40.818   4.821  14.305
52164W        W24589  13.845  29.596   5.346
52165W        W24590   9.246  17.183  13.891
52166W        W24591  17.522  29.906   1.872
52167W        W24592  20.945  13.996   1.104
52168W        W24593   5.153   0.273   4.129
52169W        W24594  20.098   9.713   2.836
52170W        W24595  37.340  36.368  13.231
52171W        W24596  36.388  21.259  14.732
52172W        W24597  30.411   5.299   0.491
52173W        W24598  28.946   7.866   3.309
52174W        W24599  30.355  19.775   4.927
52175W        W24600  39.600  16.036   1.830
52176W        W24601  22.687  43.360  14.909
52177W        W24602  38.973   7.330   3.331
52178W        W24603   3.423  13.652  13.838
52179W        W24604  43.816  32.634   3.736
52180W        W24605  34.328  15.121   1.697
52181W        W24606  29.278  14.255  10.655
52182W        W24607  31.068  10.611   4.567
52183W        W24608  11.095  26.515   2.026
52184W        W24609   8.946  16.359   2.715
52185W        W24610  11.098  42.846   3.211
52186W        W24611  36.453  33.464   3.447
52187W        W24612  22.744  44.549  12.059
52188W        W24613  22.275  28.521  14.918
52189W        W24614  25.278  25.573   1.832
52190W        W24615   6.918  10.377   3.741
52191W        W24616  37.012   5.317   1.772
52192W        W24617  10.612  39.264   3.190
52193W        W24618  21.615  31.026  14.444
52194W        W24619  13.610  29.916  12.025
52195W        W24620   5.642  10.232  13.894
52196W        W24621  42.356  36.851   1.312
52197W        W24622   6.781  41.131   3.719
52198W        W24623  25.683  30.051  10.777
52199W        W24624  16.321  39.784   0.628
52200W        W24625  25.276  43.728  12.510
52201W        W24626   9.859   6.767   0.664
52202W        W24627  40.541   8.135   4.202
52203W        W24628  29.501  22.964  14.858
52204W        W24629  20.144  26.883  12.070
52205W        W24630   1.471  31.939  11.645
52206W        W24631   0.760   5.604  12.980
52207W        W24632  27.949   5.477  11.239
52208W        W24633  40.339  21.737   4.202
52209W        W24634   8.074  39.223  13.994
52210W        W24635  29.696  10.797  11.639
52211W        W24636   2.962  18.638   2.852
52212W        W24637  34.163  27.491   2.743
52213W        W24638  18.325  27.496  12.060
52214W        W24639  10.268  22.782  13.576
52215W        W24640   0.490  36.033   3.720
52216W        W24641   0.426  41.541   4.768
52217W        W24642  40.338   6.248  13.366
52218W        W24643  21.234  31.100  11.205
52219W        W24644  21.565   1.655  11.582
52220W        W24645  30.511  13.200  10.652
52221W        W24646  20.186  44.746   2.173
52222W        W24647  32.885  35.129   2.170
52223W        W24648   1.957  33.434   2.215
52224W        W24649  29.076  14.729   1.757
52225W        W24650  27.912   8.749   4.208
52226W        W24651   0.505  10.340   3.660
52227W        W24652  27.525  33.844  12.548
52228W        W24653  43.363  17.049   0.260
52229W        W24654  38.527  31.090   2.453
52230W        W24655  36.938  34.621   0.021
52231W        W24656  37.584  35.885  13.972
52232W        W24657  24.174  12.209  13.866
52233W        W24658  25.470  37.830  12.450
52234W        W24659  35.595  35.765   2.012
52235W        W24660   8.880  34.501  11.173
52236W        W24661   0.262  42.028  11.709
52237W        W24662  39.882  10.901   4.168
52238W        W24663  29.157  11.270   1.138
52239W        W24664  25.197  10.809  14.951
52240W        W24665   4.885   0.796  12.971
52241W        W24666  38.903   9.166  10.591
52242W        W24667  17.651   1.908   1.296
52243W        W24668  39.001  10.520  11.070
52244W        W24669  31.424  43.603  12.356
52245W        W24670  34.030   6.592  13.131
52246W        W24671   1.333  21.034   0.290
52247W        W24672  18.512  34.553  13.274
52248W        W24673   2.611  35.361   0.361
52249W        W24674  16.742  43.799  11.760
52250W        W24675  12.311   2.413   5.420
52251W        W24676  16.181  32.885   2.705
52252W        W24677   2.708   1.770  14.698
52253W        W24678  42.048  19.561   1.619
52254W        W24679   0.942  10.489   1.344
52255W        W24680  30.689  14.848   4.325
52256W        W24681  12.145  17.403  12.341
52257W        W24682  37.307   0.479   4.231
52258W        W24683  15.671   8.297   0.801
52259W        W24684  31.195   4.751   1.273
52260W        W24685  20.999   9.145   2.270
52261W        W24686  16.874  16.898  10.930
52262W        W24687  38.478  30.666   3.740
52263W        W24688   4.772  27.695  11.154
52264W        W24689  23.999  27.780   3.668
52265W        W24690  17.777  30.464   3.552
52266W        W24691  32.824  26.064   4.188
52267W        W24692  37.377  31.096   0.664
52268W        W24693  31.986   9.063   4.828
52269W        W24694  22.964  17.108   4.271
52270W        W24695  26.391   2.328  14.456
52271W        W24696  44.533  27.447   2.675
52272W        W24697  38.437   0.006  10.901
52273W        W24698   6.474  18.101  11.291
52274W        W24699   4.083  12.742  13.838
52275W        W24700   3.880  44.811  10.380
52276W        W24701   3.874  32.682  13.072
52277W        W24702  31.558  14.625  12.403
52278W        W24703  31.448   8.829   4.062
52279W        W24704  26.967  42.500  12.557
52280W        W24705  42.986   9.430   3.784
52281W        W24706  44.356  18.758  13.808
52282W        W24707  12.404  28.660  11.694
52283W        W24708  12.906   9.978   2.610
52284W        W24709  41.001   5.254   1.213
52285W        W24710   0.914  28.114  14.862
52286W        W24711  42.512   5.183   4.540
52287W        W24712  17.231  18.043   4.600
52288W        W24713  32.522  28.836   1.353
52289W        W24714  39.855  18.730  14.197
52290W        W24715  23.632   7.832  11.880
52291W        W24716   4.168   7.770  11.062
52292W        W24717  42.850  13.166  13.585
52293W        W24718   0.417  18.725   1.149
52294W        W24719  25.436   5.958   1.824
52295W        W24720   8.782   0.901   1.770
52296W        W24721  25.954  18.859  10.672
52297W        W24722  41.055  21.757   4.654
52298W        W24723  23.520  14.039   3.085
52299W        W24724   8.121  13.776   0.922
52300W        W24725  37.306  32.424   3.062
52301W        W24726   8.570  37.934  11.504
52302W        W24727  38.183  10.311  11.149
52303W        W24728  38.304  31.328  10.671
52304W        W24729  23.363   6.283  13.991
52305W        W24730  27.450   7.647   0.023
52306W        W24731  11.115  12.646  12.367
52307W        W24732   2.411  35.947  10.106
52308W        W24733  23.269   3.299   3.919
52309W        W24734  13.542  43.712  12.016
52310W        W24735  39.760  35.049  11.662
52311W        W24736  25.998   3.695  13.440
52312W        W24737  16.856  27.079   3.528
52313W        W24738  23.536  10.334   4.645
52314W        W24739  42.982  21.330   4.652
52315W        W24740  44.838  40.115   3.275
52316W        W24741  44.791  14.671   2.273
52317W        W24742  43.510  40.518   0.497
52318W        W24743  23.007  18.206  11.475
52319W        W24744  16.049  18.037   1.399
52320W        W24745  30.351  23.759  13.493
52321W        W24746  34.920   9.378   4.233
52322W        W24747   7.954  19.066  11.039
52323W        W24748  14.300  13.571   3.853
52324W        W24749  17.453  37.569  12.085
52325W        W24750   1.303  21.705  13.401
52326W        W24751  26.762  15.302   2.931
52327W        W24752  38.636  23.902  11.006
52328W        W24753  39.583  19.150  14.388
52329W        W24754  28.170  25.377   4.150
52330W        W24755  29.192  34.471  13.416
52331W        W24756  17.757  14.050  14.766
52332W        W24757   3.776   0.183  10.743
52333W        W24758  34.219  14.805   2.359
52334W        W24759  26.613  12.458   5.139
52335W        W24760  28.990  28.617   4.533
52336W        W24761  39.943  44.203   4.216
52337W        W24762  39.082  43.462   2.390
52338W        W24763  32.086  39.631  14.496
52339W        W24764  43.712  11.100  14.350
52340W        W24765  25.408  26.803   0.149
52341W        W24766  34.373   6.679  12.151
52342W        W24767  14.964   1.756  12.562
52343W        W24768  21.687  30.651  12.106
52344W        W24769  43.205  22.119   4.507
52345W        W24770  16.612  12.561   1.348
52346W        W24771  44.621   3.345  11.961
52347W        W24772  36.519  43.289   1.942
52348W        W24773   7.542   3.279  14.369
52349W        W24774   6.379  44.375  12.807
52350W        W24775  14.885  42.933  12.347
52351W        W24776  17.117   8.008  11.673
52352W        W24777  29.649   6.747  11.124
52353W        W24778   6.356  16.085   2.092
52354W        W24779  11.666  10.919   1.782
52355W        W24780  34.358  42.325  13.890
52356W        W24781  37.589  40.061   3.287
52357W        W24782  17.805  19.683  10.903
52358W        W24783  25.146   4.472  12.833
52359W        W24784  11.264  36.988   3.828
52360W        W24785  25.136  41.096   1.836
52361W        W24786  26.236  37.063  14.340
52362W        W24787  40.809   2.474  10.836
52363W        W24788  22.449  22.517  11.467
52364W        W24789   7.726   3.745  14.279
52365W        W24790   8.230  20.789  14.351
52366W        W24791  36.981  24.016  14.498
52367W        W24792   0.436  39.016   2.090
52368W        W24793  11.551  16.275  14.352
52369W        W24794   4.352  22.163  10.972
52370W        W24795  27.593  28.134   0.400
52371W        W24796  41.400  29.510   3.176
52372W        W24797   5.373  11.208   2.720
52373W        W24798  28.238  33.035   1.497
52374W        W24799   9.705  41.526  14.757
52375W        W24800   1.381  25.098   4.851
52376W        W24801  17.188   7.869  11.195
52377W        W24802  41.484   5.668  11.104
52378W        W24803  27.226  28.382   3.916
52379W        W24804  39.494  37.078  13.720
52380W        W24805  27.056  18.412   2.724
52381W        W24806   4.230   1.022   2.397
52382W        W24807   2.900  12.076  13.925
52383W        W24808   7.078   8.513  14.958
52384W        W24809  26.010   6.427  11.537
52385W        W24810  43.446  44.052   2.830
52386W        W24811  19.922   7.714  11.560
52387W        W24812   3.464  41.111  12.914
52388W        W24813  26.263  15.673  11.973
52389W        W24814  39.328  32.623  11.936
52390W        W24815  18.021  42.595  13.906
52391W        W24816   1.653   6.313  12.779
52392W        W24817   2.968   6.141  14.431
52393W        W24818  22.270  23.540   4.124
52394W        W24819  26.773  38.988   2.211
52395W        W24820  31.392  39.824   2.939
52396W        W24821  17.643  27.586   3.658
52397W        W24822  30.721   7.952  12.753
52398W        W24823   4.309  14.164   0.871
52399W        W24824  15.968  27.710   1.736
52400W        W24825  25.387   1.235  14.788
52401W        W24826  31.394  30.966  10.566
52402W        W24827  11.280   2.930   2.609
52403W        W24828   6.686  25.023  14.409
52404W        W24829  29.426  18.496   1.192
52405W        W24830   7.183  17.698  11.875
52406W        W24831  15.929  37.498  11.234
52407W        W24832  15.503  29.093   3.076
52408W        W24833  12.594   2.873  13.893
52409W        W24834   8.746   0.740  12.992
52410W        W24835  24.401  40.619  13.952
52411W        W24836  18.598  20.710  10.889
52412W        W24837  22.128  15.368  13.717
52413W        W24838  17.602  11.589   1.228
52414W        W24839   4.478  30.387  11.541
52415W        W24840  27.910   9.340  14.927
52416W        W24841  41.786  21.584  11.207
52417W        W24842  29.718  13.139  13.585
52418W        W24843   3.277  13.125   2.732
52419W        W24844   6.809  20.324   2.205
52420W        W24845  14.190  22.996  12.961
52421W        W24846  32.011  38.555  10.349
52422W        W24847   9.283   5.943  13.896
52423W        W24848   7.937  37.800  11.460
52424W        W24849  24.587  34.547   2.757
52425W        W24850  43.770   6.097  13.785
52426W        W24851  17.672  41.770  14.745
52427W        W24852  39.788  14.941  13.372
52428W        W24853  32.082  43.961  10.297
52429W        W24854  18.189   5.941  12.606
52430W        W24855   2.926   9.118  12.455
52431W        W24856  40.914  43.501  11.563
52432W        W24857  12.763  23.968   2.741
52433W        W24858  20.594   5.905  14.078
52434W        W24859   0.370  16.336  14.089
52435W        W24860  20.746   4.238   3.186
52436W        W24861  41.550   2.995  12.047
52437W        W24862  35.121  44.750  11.151
52438W        W24863   4.273  17.889   0.846
52439W        W24864  22.847  15.234   0.903
52440W        W24865  40.799   0.341   2.993
52441W        W24866  31.575  28.112  13.450
52442W        W24867  39.087  34.944  12.843
52443W        W24868  35.877   5.196   2.416
52444W        W24869  33.190  41.580   2.498
52445W        W24870  33.437  37.970   2.868
52446W        W24871  23.272  19.062  11.956
52447W        W24872  44.570   1.202   3.970
52448W        W24873  20.904  14.581  14.872
52449W        W24874  31.133   5.366   4.615
52450W        W24875  16.675  44.075   3.363
52451W        W24876  28.288  16.139  12.505
52452W        W24877  43.946  33.607   3.404
52453W        W24878  22.728  41.290  14.013
52454W        W24879  25.702   7.768   3.651
52455W        W24880  11.149  40.518  11.566
52456W        W24881  30.019  28.045  14.277
52457W        W24882  11.764  10.747   3.302
52458W        W24883  37.101  39.535   3.451
52459W        W24884  11.170  38.826   1.356
52460W        W24885  37.979  14.105   2.119
52461W        W24886  15.764  14.846   0.480
52462W        W24887  17.419  17.220   0.314
52463W        W24888  10.697   1.940  12.824
52464W        W24889  15.719  42.556   3.725
52465W        W24890   0.942  44.215  10.238
52466W        W24891  43.474  38.938   1.536
52467W        W24892  39.925   3.592  12.125
52468W        W24893   2.388  16.476  12.012
52469W        W24894  17.388  20.072   3.743
52470W        W24895  15.686  24.375  12.395
52471W        W24896   2.036  24.662  13.472
52472W        W24897  39.065  36.366   3.940
52473W        W24898   5.435   7.883  11.550
52474W        W24899   2.726  41.979  11.550
52475W        W24900  44.806  24.698  13.164
52476W        W24901  12.808  25.991   0.288
52477W        W24902  11.671  33.131   2.231
52478W        W24903  32.574  10.189  13.549
52479W        W24904  43.744  21.589  10.639
52480W        W24905   3.369  15.027  12.378
52481W        W24906  13.767  27.121  12.505
52482W        W24907   3.281  31.096  12.647
52483W        W24908  29.467  33.390  12.542
52484W        W24909  18.230  21.285   3.194
52485W        W24910  41.123  22.038   9.770
52486W        W24911   1.654  16.671   0.281
52487W        W24912  19.315  43.580  14.901
52488W        W24913   5.400   0.136  11.765
52489W        W24914   3.084  17.357   2.054
52490W        W24915  35.414  37.987  10.507
52491W        W24916  31.411   4.431  13.004
52492W        W24917  29.571  31.495   2.364
52493W        W24918   5.388  39.306  11.123
52494W        W24919   9.776  24.772   0.274
52495W        W24920  10.054   1.731   0.431
52496W        W24921  16.321  35.543   3.878
52497W        W24922  37.007  17.514  12.966
52498W        W24923  16.092  21.382   0.755
52499W        W24924   7.138  14.848  14.271
52500W        W24925  36.668   2.599   0.950
52501W        W24926  24.083  15.873  11.109
52502W        W24927  23.890   6.720  12.375
52503W        W24928  22.583  16.829  14.383
52504W        W24929  41.753  11.592  12.071
52505W        W24930   4.245  37.987   4.586
52506W        W24931   5.128  18.287   0.767
52507W        W24932   4.891  36.412  12.817
52508W        W24933   7.204  25.132   0.942
52509W        W24934  10.976  28.523  11.532
52510W        W24935   7.788  39.827  14.338
52511W        W24936  32.479  33.885   0.521
52512W        W24937  19.602  37.920   2.287
52513W        W24938  16.464  14.715   1.744
52514W        W24939   6.499  42.412   4.092
52515W        W24940  42.394   7.833   2.280
52516W        W24941   3.904   9.866   4.756
52517W        W24942  33.607  31.911  13.979
52518W        W24943  11.664   4.330   3.264
52519W        W24944   3.115  18.534  11.657
52520W        W24945  37.595  14.157  12.920
52521W        W24946  36.607  43.790   3.240
52522W        W24947   8.439   5.863  14.145
52523W        W24948  14.484  22.051  12.113
52524W        W24949  11.738  41.030  13.074
52525W        W24950  21.579  32.863  10.490
52526W        W24951   4.703   1.858   2.457
52527W        W24952  17.068  30.300   5.027
52528W        W24953  44.608  18.233  13.075
52529W        W24954  11.048  28.061  11.269
52530W        W24955  42.079  37.468  11.481
52531W        W24956  33.416  42.732  10.556
52532W        W24957  16.254  17.130   4.779
52533W        W24958   0.936  37.020   1.678
52534W        W24959  32.948   5.227  14.781
52535W        W24960  11.103  37.893   0.493
52536W        W24961  34.591  33.225   2.053
52537W        W24962  10.125   9.792  12.050
52538W        W24963   7.253  24.159   0.834
52539W        W24964  28.104  27.870   3.720
52540W        W24965  38.307  17.563   3.820
52541W        W24966  10.165   7.293  14.707
52542W        W24967  40.772  12.725   0.900
52543W        W24968  39.158  12.806  10.274
52544W        W24969  31.732  27.388  12.167
52545W        W24970  38.925   1.378   5.059
52546W        W24971  13.133  21.483  12.617
52547W        W24972  21.123  31.831   2.850
52548W        W24973  29.537  35.975  14.550
52549W        W24974  42.220  19.436   5.423
52550W        W24975  24.218   7.309   0.570
52551W        W24976  33.615  41.336   4.592
52552W        W24977  16.309  27.025  13.285
52553W        W24978  24.714   3.890  12.898
52554W        W24979  33.962   4.015   2.571
52555W        W24980  14.414   6.850  10.408
52556W        W24981  34.126   9.507  14.401
52557W        W24982  34.579   5.198  13.507
52558W        W24983   6.002   2.446  14.943
52559W        W24984  39.109  11.317   1.159
52560W        W24985  12.800  16.121  14.880
52561W        W24986  44.215  43.416   2.740
52562W        W24987  37.853  40.313   0.366
52563W        W24988  22.982  35.903  14.912
52564W        W24989  30.057  44.567  13.040
52565W        W24990  34.869  39.036  11.188
52566W        W24991  39.292  28.402   4.859
52567W        W24992   1.757  24.441   2.266
52568W        W24993  18.339  17.567   1.869
52569W        W24994  41.771  44.220   4.076
52570W        W24995  11.756  38.750   3.633
52571W        W24996  35.844  36.679   4.179
52572W        W24997  43.192  14.214  10.610
52573W        W24998  23.817  32.232  12.429
52574W        W24999  43.683   9.906   1.249
52575W        W25000  16.831   3.276   2.638
52576W        W25001  21.025  30.544  14.333
52577W        W25002  39.811  34.698   0.880
52578W        W25003  40.948  28.890   2.978
52579W        W25004  13.588  29.147  13.404
52580W        W25005  27.014  20.981  13.081
52581W        W25006   1.318  34.502   1.799
52582W        W25007   2.865   4.758  11.097
52583W        W25008  25.106   3.860   3.172
52584W        W25009  38.297  43.822  13.937
52585W        W25010   1.915  44.765   4.216
52586W        W25011  21.691  41.356  14.295
52587W        W25012  25.525  31.470  13.157
52588W        W25013  31.853  29.657  14.449
52589W        W25014  24.560   7.641  13.057
52590W        W25015  39.828   2.753  13.356
52591W        W25016   7.020  34.860  13.451
52592W        W25017  11.628  44.860   3.382
52593W        W25018  21.321  23.616  10.462
52594W        W25019   3.323  38.887  13.582
52595W        W25020  37.343   4.879  10.440
52596W        W25021  25.709  18.378   3.747
52597W        W25022  38.856  25.474  12.690
52598W        W25023   3.192   0.251   1.373
52599W        W25024  30.174  35.647   2.406
52600W        W25025  14.640   2.835   1.964
52601W        W25026  26.562  28.593   2.103
52602W        W25027   3.425  30.046   4.554
52603W        W25028  42.228  39.559  14.390
52604W        W25029   6.502  31.487  14.807
52605W        W25030  30.546  34.414   1.215
52606W        W25031  28.459   7.983   3.260
52607W        W25032  26.610  14.766  14.290
52608W        W25033  19.761  36.006   0.392
52609W        W25034  40.800  13.167   3.734
52610W        W25035  17.276   1.839  11.436
52611W        W25036  26.120   9.175   4.617
52612W        W25037  15.358  27.040   0.580
52613W        W25038  40.065  23.543   0.573
52614W        W25039  39.884   7.867   1.917
52615W        W25040  44.553  12.225  14.048
52616W        W25041  28.095  27.738  11.063
52617W        W25042  10.101   6.390  12.148
52618W        W25043  10.666   5.822   1.132
52619W        W25044  36.396   9.671  12.190
52620W        W25045   9.865  26.567  14.829
52621W        W25046  15.557   7.618   1.869
52622W        W25047  23.433  16.922   4.117
52623W        W25048  15.050   3.474  13.431
52624W        W25049  12.101  40.243  13.223
52625W        W25050  14.142  34.119   4.731
52626W        W25051  39.051  39.984  12.452
52627W        W25052   6.199  43.801   1.557
52628W        W25053   7.916  44.869  12.918
52629W        W25054  15.523  27.633  12.158
52630W        W25055  27.062  18.969  11.054
52631W        W25056  42.406  17.085   2.248
52632W        W25057  20.660  22.206   1.916
52633W        W25058   4.303  12.067   0.850
52634W        W25059   4.653  38.181  13.005
52635W        W25060   7.289   1.256  11.559
52636W        W25061   6.907  41.802   4.751
52637W        W25062  11.113  41.865  11.499
52638W        W25063   2.251  10.657   3.737
52639W        W25064  29.331  20.700  13.882
52640W        W25065  16.172  17.506  12.976
52641W        W25066  17.523  22.944  13.988
52642W        W25067  17.017  19.482  13.620
52643W        W25068  43.761  38.325  13.066
52644W        W25069  16.885  11.739  11.905
52645W        W25070  43.820  16.354  12.612
52646W        W25071  26.440  43.953   3.581
52647W        W25072  33.929  26.232   1.287
52648W        W25073  15.676  30.842   3.345
52649W        W25074  30.344  25.159   3.900
52650W        W25075   4.719  44.959  11.535
52651W        W25076  34.532  32.219  10.695
52652W        W25077  16.580  17.488   2.284
52653W        W25078   4.867  40.399  12.335
52654W        W25079  29.466  19.191   3.983
52655W        W25080  31.999   8.344   1.981
52656W        W25081  12.204   0.731   1.859
52657W        W25082  14.859   7.331  14.826
52658W        W25083   2.958  39.361   2.670
52659W        W25084  43.349  41.865  10.365
52660W        W25085  10.861  27.857   4.638
52661W        W25086  11.220  37.111  13.612
52662W        W25087  35.512  21.278  11.558
52663W        W25088  30.435  13.267  14.468
52664W        W25089   1.694  35.610  12.451
52665W        W25090  24.756  34.946  10.710
52666W        W25091  32.618  19.730   3.635
52667W        W25092  28.973  21.592   1.716
52668W        W25093  37.069  12.740  12.586
52669W        W25094  16.849   0.736   2.300
52670W        W25095  32.381   0.430   9.689
52671W        W25096  24.551  22.470  14.946
52672W        W25097  22.766   2.764   3.952
52673W        W25098  28.499  18.042   0.390
52674W        W25099  25.049   7.716   0.527
52675W        W25100  32.924  17.159  14.731
52676W        W25101  26.713  37.416  13.007
52677W        W25102   1.261  18.794  11.627
52678W        W25103  23.671   2.356   4.195
52679W        W25104  15.768  38.047  10.686
52680W        W25105  26.330  37.100   4.220
52681W        W25106  31.127  17.331   2.739
52682W        W25107  14.337  17.230  13.792
52683W        W25108  28.799  12.966   4.045
52684W        W25109  15.110  31.154  12.437
52685W        W25110  18.234   4.023   4.374
52686W        W25111   9.173  36.513   1.325
52687W        W25112   8.724  26.256   0.436
52688W        W25113  24.708  27.925  13.406
52689W        W25114  19.211  22.822  13.883
52690W        W25115  16.297  40.067  12.118
52691W        W25116  38.922  12.912   2.315
52692W        W25117  23.679  33.307  11.974
52693W        W25118   9.478  14.786   3.623
52694W        W25119  29.572  30.591  11.174
52695W        W25120  24.274  18.711  14.003
52696W        W25121  31.599  12.096   2.273
52697W        W25122  12.680  37.943  12.684
52698W        W25123   9.690  24.404  13.831
52699W        W25124  25.407  15.402   3.683
52700W        W25125  35.957   3.842   0.995
52701W        W25126  28.730  27.319  13.878
52702W        W25127  25.238  27.156   3.212
52703W        W25128  39.041   8.499   3.652
52704W        W25129   6.668  16.552  13.336
52705W        W25130  21.938   7.779  11.199
52706W        W25131  21.895  18.550   0.457
52707W        W25132   8.914  41.312   3.011
52708W        W25133  17.483   0.221   3.372
52709W        W25134  15.682  17.336  13.051
52710W        W25135   6.807   6.774  10.959
52711W        W25136  25.742  17.567   1.360
52712W        W25137   6.378   1.385   3.022
52713W        W25138   7.230  10.609  13.121
52714W        W25139  25.490  22.589   3.742
52715W        W25140  26.552  42.809   1.066
52716W        W25141  29.662  11.073   3.720
52717W        W25142  44.264  11.786   2.354
52718W        W25143   2.421  19.763   2.479
52719W        W25144  22.636   8.692   5.209
52720W        W25145   7.291  28.032   3.222
52721W        W25146  32.292  19.740   3.208
52722W        W25147  26.070  27.140  11.252
52723W        W25148  39.468  37.016  11.055
52724W        W25149  16.552   2.451   4.750
52725W        W25150  42.181  41.170   4.100
52726W        W25151  40.396  32.180  12.818
52727W        W25152   5.552   7.753   2.194
52728W        W25153  21.278  12.439  12.051
52729W        W25154  24.349  43.162   4.135
52730W        W25155  25.177   5.641   2.159
52731W        W25156  31.245  30.614   1.762
52732W        W25157  38.620  11.896   0.680
52733W        W25158  16.720  33.299   2.154
52734W        W25159  23.175   8.420  14.472
52735W        W25160   2.179  22.285   3.621
52736W        W25161  22.126  18.156   3.849
52737W        W25162  22.146  36.002   1.490
52738W        W25163  38.580  21.173   3.772
52739W        W25164  44.507  19.127  11.103
52740W        W25165  27.068  29.953  13.656
52741W        W25166   3.278  33.825   1.393
52742W        W25167  34.132  15.031  14.242
52743W        W25168  31.863  28.570   1.576
52744W        W25169   2.726  15.678   3.854
52745W        W25170  13.653  26.460  14.331
52746W        W25171  16.002   1.059   0.735
52747W        W25172  15.621  36.306  11.608
52748W        W25173   7.727  33.649   2.366
52749W        W25174   7.325  44.865   3.853
52750W        W25175  32.172   3.698   2.041
52751W        W25176  12.110   2.699  13.926
52752W        W25177  40.548  27.160   2.674
52753W        W25178  31.326  27.891   0.068
52754W        W25179  36.186  15.608   5.119
52755W        W25180  15.836  10.646  12.395
52756W        W25181  40.582   6.192  13.809
52757W        W25182   5.038  39.200  11.511
52758W        W25183  17.819  41.025  13.977
52759W        W25184  38.950  39.091  12.003
52760W        W25185  20.855  35.411   4.337
52761W        W25186  18.589  44.898   4.235
52762W        W25187  36.346  36.951  13.765
52763W        W25188  29.974   2.523  10.644
52764W        W25189  13.302  25.957   4.756
52765W        W25190  14.045  39.954  14.747
52766W        W25191  23.235  16.819   0.866
52767W        W25192  17.784  41.383  10.410
52768W        W25193  42.519   3.495  12.614
52769W        W25194  23.772  35.320  12.151
52770W        W25195  41.821   8.863  14.454
52771W        W25196   4.888  17.104  14.007
52772W        W25197   6.253   0.668  14.570
52773W        W25198   7.250  20.701  12.902
52774W        W25199  34.773  23.558  14.496
52775W        W25200  26.416  19.192  13.232
52776W        W25201   6.846  44.549  12.500
52777W        W25202  26.250  20.638   0.484
52778W        W25203   7.750  14.125   0.450
52779W        W25204  35.424  14.379   4.293
52780W        W25205  37.966  43.894  11.959
52781W        W25206  33.765  10.488  11.105
52782W        W25207  28.425  16.198  11.098
52783W        W25208   7.513  35.431  11.543
52784W        W25209  19.908  16.180  11.361
52785W        W25210  14.560  13.587  14.841
52786W        W25211  17.457  33.464   1.655
52787W        W25212  37.273  19.519  14.380
52788W        W25213  43.525  36.080  11.628
52789W        W25214   2.841  42.419   3.234
52790W        W25215   5.882  10.275   2.482
52791W        W25216  44.361  22.919  14.056
52792W        W25217  35.978   8.733  13.232
52793W        W25218  12.712  27.065   2.375
52794W        W25219  20.287  13.418  13.599
52795W        W25220  18.844  31.905  11.635
52796W        W25221  14.935  43.666  13.763
52797W        W25222   5.386   2.281   2.300
52798W        W25223  29.483   5.283  12.239
52799W        W25224  43.623  37.039   4.202
52800W        W25225  36.088  24.677  12.101
52801W        W25226  17.133  10.655   0.954
52802W        W25227   7.042  28.260   3.622
52803W        W25228  18.852  26.699  11.657
52804W        W25229   4.058  29.001   0.871
52805W        W25230  31.034  37.050  12.125
52806W        W25231  17.001  13.179   3.736
52807W        W25232  25.537   1.298  12.015
52808W        W25233  41.308  29.221  10.659
52809W        W25234   4.014   7.486  11.497
52810W        W25235  33.457  43.017   5.286
52811W        W25236  29.634  29.547  13.848
52812W        W25237   4.412  22.371  13.776
52813W        W25238  20.100  41.491  14.158
52814W        W25239  11.343  31.419   1.285
52815W        W25240   8.871   3.460  12.721
52816W        W25241  41.598  38.873  12.560
52817W        W25242  36.520  32.907  12.343
52818W        W25243   1.058  27.711   4.577
52819W        W25244  43.825  11.298  14.804
52820W        W25245  11.728  13.184  12.039
52821W        W25246  26.591  32.056   5.002
52822W        W25247  42.052  41.547   3.772
52823W        W25248  41.011  19.293   0.355
52824W        W25249  14.136   7.153   0.249
52825W        W25250  25.348  17.225   1.356
52826W        W25251  14.871   7.323   0.738
52827W        W25252  26.063  16.332  11.192
52828W        W25253  12.145  42.320   2.699
52829W        W25254   9.253  32.359   2.296
52830W        W25255   4.648  23.535   3.380
52831W        W25256  42.541  31.202   3.263
52832W        W25257   0.783  22.665  10.756
52833W        W25258  25.258  34.382   4.504
52834W        W25259  31.501   1.249  10.728
52835W        W25260  41.248  39.025   4.000
52836W        W25261  14.276  27.899   3.340
52837W        W25262  11.540  19.716  14.213
52838W        W25263  40.747  17.640  12.244
52839W        W25264   4.842  38.526   1.455
52840W        W25265  24.229  41.300   0.291
52841W        W25266  29.529  28.617   4.683
52842W        W25267   3.768  37.057  10.478
52843W        W25268  35.166  24.573  12.123
52844W        W25269  36.412  13.141  11.601
52845W        W25270  34.433  26.339  12.478
52846W        W25271  37.451  22.246  14.730
52847W        W25272  29.378  16.314  12.071
52848W        W25273  21.219  35.357  12.066
52849W        W25274  44.826  34.988  13.045
52850W        W25275  27.883  41.434  14.906
52851W        W25276  11.414  13.727   2.326
52852W        W25277  30.024   3.931   1.216
52853W        W25278   3.522  22.976  14.283
52854W        W25279  36.835  14.682  13.917
52855W        W25280  29.612  41.292  14.357
52856W        W25281  26.377  43.278   0.908
52857W        W25282   5.245  38.478  11.520
52858W        W25283  39.674  26.473   0.519
52859W        W25284   9.435  22.968  14.068
52860W        W25285   8.495  37.158   1.645
52861W        W25286   3.340  41.254   3.583
52862W        W25287  37.386  30.888  12.427
52863W        W25288  21.444  39.925  11.657
52864W        W25289  33.347   4.299  11.511
52865W        W25290   2.138  23.340   5.398
52866W        W25291   9.732  16.495  14.533
52867W        W25292  18.793  43.570   0.721
52868W        W25293   4.818  13.232   0.158
52869W        W25294   4.932   5.375   3.735
52870W        W25295  40.960   6.164   3.735
52871W        W25296  32.858  36.014  12.887
52872W        W25297   7.279  32.733   3.368
52873W        W25298   4.121  32.865  12.660
52874W        W25299  35.519  43.430   3.849
52875W        W25300  10.115  11.550  14.845
52876W        W25301   6.250  15.174  11.404
52877W        W25302  14.685  17.783   1.240
52878W        W25303   0.785  10.963   1.226
52879W        W25304   2.217  35.647  12.487
52880W        W25305   1.840   8.244  10.721
52881W        W25306  30.814  19.267  13.459
52882W        W25307  18.692  31.633  11.207
52883W        W25308  42.083  40.305  12.414
52884W        W25309   6.222  23.988   0.377
52885W        W25310  24.681  41.358   2.853
52886W        W25311   9.523  14.846   1.425
52887W        W25312  36.583  28.165   3.617
52888W        W25313  42.519  23.261   5.726
52889W        W25314  16.710   8.726  14.429
52890W        W25315  23.144  32.431  14.998
52891W        W25316  17.746  12.112  11.633
52892W        W25317  10.617   8.699  13.947
52893W        W25318  37.339  20.174   3.209
52894W        W25319  41.251  25.984  10.623
52895W        W25320   7.877  26.804  11.281
52896W        W25321   3.604   2.069   1.797
52897W        W25322  19.162  31.842  11.223
52898W        W25323  17.811  13.611  13.958
52899W        W25324  27.287   1.766   2.479
52900W        W25325  16.193  33.676   5.108
52901W        W25326   9.845  14.171   2.650
52902W        W25327  12.804   9.256   0.595
52903W        W25328  25.499   0.878   2.846
52904W        W25329  11.051   3.832   3.719
52905W        W25330   1.038  29.188  12.503
52906W        W25331  44.921  34.860   4.827
52907W        W25332  18.436  33.032   3.295
52908W        W25333  23.428  26.067   4.228
52909W        W25334  37.560  35.408   4.025
52910W        W25335  41.356  11.855  14.401
52911W        W25336   7.406  42.896  11.590
52912W        W25337   0.045  20.745   2.419
52913W        W25338  12.567  44.012  13.584
52914W        W25339  17.251   4.820   3.167
52915W        W25340  11.192  19.194   0.712
52916W        W25341  38.380  19.511  11.783
52917W        W25342  39.617   2.332   1.510
52918W        W25343  31.010   1.935  13.145
52919W        W25344  21.216   8.195  13.110
52920W        W25345   6.133  44.922   1.854
52921W        W25346  38.047  40.028   4.098
52922W        W25347  37.473  22.757  11.590
52923W        W25348  20.284  25.243   1.395
52924W        W25349  28.717  16.575  14.231
52925W        W25350   6.938  34.534   4.567
52926W        W25351  39.412  36.504   0.982
52927W        W25352  16.240  33.766  10.955
52928W        W25353  19.724  39.110   0.334
52929W        W25354  25.129   6.245  14.441
52930W        W25355   7.829  39.333   4.395
52931W        W25356   7.584  34.592  13.755
52932W        W25357  25.217   2.883   4.046
52933W        W25358  26.927   8.934  14.522
52934W        W25359  11.394  30.662  11.916
52935W        W25360  23.966  41.380   2.133
52936W        W25361  36.011  32.516   1.948
52937W        W25362  31.129  14.707   2.118
52938W        W25363  27.609  17.193  11.250
52939W        W25364  15.251  29.473   2.788
52940W        W25365   7.846   8.774  13.853
52941W        W25366  40.424  16.973   0.343
52942W        W25367   2.911  29.409   3.228
52943W        W25368   9.623  43.645   0.507
52944W        W25369  41.943   6.372   2.365
52945W        W25370  30.021  31.883   1.773
52946W        W25371  20.799  43.611  13.302
52947W        W25372  31.059  43.210   3.699
52948W        W25373  13.378  34.084   1.942
52949W        W25374  36.433   0.496  12.872
52950W        W25375  11.097  14.650  11.675
52951W        W25376  15.986  17.690   0.980
52952W        W25377  16.630  18.808   1.643
52953W        W25378  41.093  31.941   0.777
52954W        W25379  24.803  31.625  11.976
52955W        W25380  31.888  31.901  12.134
52956W        W25381   8.363   4.765   3.731
52957W        W25382  12.894  42.069   3.707
52958W        W25383  28.209  37.379   1.347
52959W        W25384  28.635  27.620  11.683
52960W        W25385  39.246  41.946  14.851
52961W        W25386  17.651  44.171   4.456
52962W        W25387  43.055   3.900  11.112
52963W        W25388  16.502  17.788   1.486
52964W        W25389  17.283  33.873   5.419
52965W        W25390  26.611  14.774   2.849
52966W        W25391  35.479  31.434   0.794
52967W        W25392  40.971  20.585   0.808
52968W        W25393  31.441  28.533   3.363
52969W        W25394   9.765  10.489  13.957
52970W        W25395  11.451  18.230  14.260
52971W        W25396  29.466   1.841   4.471
52972W        W25397   6.170  19.649   3.726
52973W        W25398  36.786  43.754   0.244
52974W        W25399  36.128  17.978   4.888
52975W        W25400  43.914   9.729  11.852
52976W        W25401  23.743  14.989   1.447
52977W        W25402   5.253  10.110  10.769
52978W        W25403  10.111  37.874   2.951
52979W        W25404  34.496   1.460  13.901
52980W        W25405  38.736  31.451   2.089
52981W        W25406  21.792  30.098  12.423
52982W        W25407  25.657  34.020  14.816
52983W        W25408  41.891  23.162  12.452
52984W        W25409  20.579   8.413  11.639
52985W        W25410   9.187  12.905   4.203
52986W        W25411  42.161   5.513   3.259
52987W        W25412   9.252  36.787   3.654
52988W        W25413  17.814   2.062  12.088
52989W        W25414  10.317  11.795   0.258
52990W        W25415  15.744  39.746  11.537
52991W        W25416   8.664  36.059   2.663
52992W        W25417  31.394  30.811   3.224
52993W        W25418  26.210   1.241  11.482
52994W        W25419  10.756  10.823  12.800
52995W        W25420  38.771  23.244   3.145
52996W        W25421   4.878  42.756  10.794
52997W        W25422  25.134  41.531   4.723
52998W        W25423  36.966   1.020  11.173
52999W        W25424  29.421  33.596  13.416
53000W        W25425  42.372  25.582   4.675
53001W        W25426  40.486   9.424  14.328
53002W        W25427   5.745  35.472  10.396
53003W        W25428  42.492  19.613  10.811
53004W        W25429  21.130  23.136   1.787
53005W        W25430   7.010  22.039   2.175
53006W        W25431  23.179  13.163  12.024
53007W        W25432  17.211   6.813   4.358
53008W        W25433  42.819  42.375   2.348
53009W        W25434  37.463  27.882   4.335
53010W        W25435   5.693  23.612   3.553
53011W        W25436  34.141  25.464  12.074
53012W        W25437  35.359   6.882  13.150
53013W        W25438  24.734  19.029  13.068
53014W        W25439  26.827   0.124  10.921
53015W        W25440  38.683  18.347   3.628
53016W        W25441  38.093   8.879  11.504
53017W        W25442  32.600  27.415   2.744
53018W        W25443  26.052  21.092  11.391
53019W        W25444  18.268   5.904   3.153
53020W        W25445  41.943   2.252   2.207
53021W        W25446  30.110   9.392  13.903
53022W        W25447  15.468  38.992   4.159
53023W        W25448   7.857  29.945   3.344
53024W        W25449   8.223   8.597  12.628
53025W        W25450   8.615  28.571  10.717
53026W        W25451  13.151  38.554  11.141
53027W        W25452  22.972  21.356  10.238
53028W        W25453   1.600   5.727  14.449
53029W        W25454   6.764  25.328   4.514
53030W        W25455  32.388  22.110   3.891
53031W        W25456  36.554  22.351   0.853
53032W        W25457   5.680  22.333  14.419
53033W        W25458  17.823  31.043  13.999
53034W        W25459  23.750   9.842  10.212
53035W        W25460  28.107   4.827   3.723
53036W        W25461   1.819  21.725   0.455
53037W        W25462  41.331  25.013   0.263
53038W        W25463  33.492  30.959  13.547
53039W        W25464   5.826  34.208   4.513
53040W        W25465  11.403  24.803   1.620
53041W        W25466   0.789  33.192  13.850
53042W        W25467  44.443   0.922  14.360
53043W        W25468   4.323  13.980  11.897
53044W        W25469  20.810  40.921  12.532
53045W        W25470  25.920  33.171   2.792
53046W        W25471  28.654  32.910  13.854
53047W        W25472  21.039   6.587  10.558
53048W        W25473  41.825  31.206   3.664
53049W        W25474  15.556  20.019   0.057
53050W        W25475  24.119  29.932  11.997
53051W        W25476  38.458  25.951   4.302
53052W        W25477  42.272  43.457  11.941
53053W        W25478  43.339  24.664   4.410
53054W        W25479  42.681  15.044  10.838
53055W        W25480  25.895  19.920   4.456
53056W        W25481  21.504  43.926  12.457
53057W        W25482  24.074   1.499   2.240
53058W        W25483  38.922  41.846   1.686
53059W        W25484  11.743   1.503   4.745
53060W        W25485   6.207  25.167   1.825
53061W        W25486  40.498  36.507  14.946
53062W        W25487  23.750   7.690   3.298
53063W        W25488  24.260  12.929   1.985
53064W        W25489  15.918  11.804   0.275
53065W        W25490  12.116  40.767  13.341
53066W        W25491  42.372  14.719   0.434
53067W        W25492  22.536   8.304  13.746
53068W        W25493  21.593  34.861  14.033
53069W        W25494   6.720   9.481  10.704
53070W        W25495  28.045  10.754  14.232
53071W        W25496  11.756  38.654   2.339
53072W        W25497  23.251  26.581  13.427
53073W        W25498  19.372  23.807   4.093
53074W        W25499  12.597  28.125  14.462
53075W        W25500   1.407  42.292  14.897
53076W        W25501  32.701  40.501   2.351
53077W        W25502  34.462  35.064   4.660
53078W        W25503  31.854   6.746   4.635
53079W        W25504  11.343  25.779  14.483
53080W        W25505  29.843  14.392   0.799
53081W        W25506   5.266  26.653   3.177
53082W        W25507   2.418  41.315   4.686
53083W        W25508  27.431  23.229  11.140
53084W        W25509  43.241  17.137   3.610
53085W        W25510  27.039   0.478   0.912
53086W        W25511  21.921  27.878  11.140
53087W        W25512   3.655  32.742  10.614
53088W        W25513  20.073   4.876   1.377
53089W        W25514  28.440  14.184   0.277
53090W        W25515   0.762  31.323  10.654
53091W        W25516  39.620  32.145  12.129
53092W        W25517   6.145  35.457   2.362
53093W        W25518  40.066  13.076  12.967
53094W        W25519  33.067  27.074  11.994
53095W        W25520  11.047  32.455  11.168
53096W        W25521  36.543  35.121  12.512
53097W        W25522  15.138  22.617   4.345
53098W        W25523  16.902  11.176   1.685
53099W        W25524  22.134   0.201  14.389
53100W        W25525   9.434   3.845   4.734
53101W        W25526  26.218  38.019  14.386
53102W        W25527  15.246   1.889  13.302
53103W        W25528   7.536  37.301   3.223
53104W        W25529  21.984  37.017   4.216
53105W        W25530  42.788  26.229   0.760
53106W        W25531  43.297   8.138  13.825
53107W        W25532  29.998  23.234   4.152
53108W        W25533  44.465  16.137   4.654
53109W        W25534  36.910   1.762  13.805
53110W        W25535   3.416   7.666   4.738
53111W        W25536   7.872  32.571  11.105
53112W        W25537  21.000   9.915  13.480
53113W        W25538   4.120  18.597   1.522
53114W        W25539  30.066  35.228   4.969
53115W        W25540  31.225  27.243   2.402
53116W        W25541  42.443   1.309  12.966
53117W        W25542  23.539   7.269   1.713
53118W        W25543  25.117   1.310  13.899
53119W        W25544  36.066  22.264  13.990
53120W        W25545  15.637   5.827  12.814
53121W        W25546   7.234  10.426   4.214
53122W        W25547   1.257  13.868  10.541
53123W        W25548  24.124  34.237   4.688
53124W        W25549  15.112  30.593   3.203
53125W        W25550  17.077  43.224  13.379
53126W        W25551  24.796   4.552   1.434
53127W        W25552  23.604   6.683  13.606
53128W        W25553  44.813  20.693   2.883
53129W        W25554  32.046   3.133  14.423
53130W        W25555  42.751  24.532  10.997
53131W        W25556  37.937  10.679  14.819
53132W        W25557  22.876  32.105  13.807
53133W        W25558  15.681  27.459  10.914
53134W        W25559   7.456  43.991   1.211
53135W        W25560  34.672   0.901   2.163
53136W        W25561  21.233  16.586   4.668
53137W        W25562  30.908   5.287  13.154
53138W        W25563  17.211  16.070   4.597
53139W        W25564  24.251   2.327  11.265
53140W        W25565  30.122  39.046  12.987
53141W        W25566  28.025  42.463  11.963
53142W        W25567  11.190   9.322   2.289
53143W        W25568  24.080  35.328  11.721
53144W        W25569  33.070  42.427   2.248
53145W        W25570  35.952  26.412  10.772
53146W        W25571  41.515  30.048  14.573
53147W        W25572   1.408  19.029   0.740
53148W        W25573  35.061  26.969   4.239
53149W        W25574  40.042  21.139  14.121
53150W        W25575   9.336  41.792   0.682
53151W        W25576  16.309  34.992   0.796
53152W        W25577   6.366  23.264   3.284
53153W        W25578   6.742  19.998  13.296
53154W        W25579   5.825  15.864   2.797
53155W        W25580  35.843   8.354  11.400
53156W        W25581  33.382  40.877  10.412
53157W        W25582   6.825  19.441  11.548
53158W        W25583  35.429   8.510   1.295
53159W        W25584  24.808  22.566  14.439
53160W        W25585  37.609  23.440   0.551
53161W        W25586  13.569  24.385  10.944
53162W        W25587  25.803  31.360   4.396
53163W        W25588  13.187  19.210   1.315
53164W        W25589  30.960  24.693   0.889
53165W        W25590  17.401  39.488   2.617
53166W        W25591  18.166  14.027  10.749
53167W        W25592  30.155   0.836  13.490
53168W        W25593  22.699  36.872  14.433
53169W        W25594   8.884  25.901  14.748
53170W        W25595   7.790  34.202  12.939
53171W        W25596   1.734  12.324  11.131
53172W        W25597  30.838  11.293   0.308
53173W        W25598  24.202  33.369  12.023
53174W        W25599   1.758   1.450   0.360
53175W        W25600  16.540   1.346  14.934
53176W        W25601  12.858  22.458   1.331
53177W        W25602  44.686  32.583  14.580
53178W        W25603   6.886  12.116  11.493
53179W        W25604  19.516  16.139   4.878
53180W        W25605  17.182  18.759  14.775
53181W        W25606  22.545  23.485  14.864
53182W        W25607  37.766  31.453  10.606
53183W        W25608   1.310  11.329   0.736
53184W        W25609  25.106   4.663   4.152
53185W        W25610  37.634  24.768   0.517
53186W        W25611  11.870  12.666   1.155
53187W        W25612  12.183  39.411  14.395
53188W        W25613   5.957  25.254  12.586
53189W        W25614   3.260  33.558   4.664
53190W        W25615  24.685  24.946   1.895
53191W        W25616   6.759  42.232  13.318
53192W        W25617  16.844  19.241   3.118
53193W        W25618  26.702   5.790   3.768
53194W        W25619  32.964  35.022   4.692
53195W        W25620  44.768  36.616  10.813
53196W        W25621   8.905   1.909   3.801
53197W        W25622   3.764   1.515  11.531
53198W        W25623   1.460  23.729  11.094
53199W        W25624  33.401  14.258   4.029
53200W        W25625  11.849  15.293  14.290
53201W        W25626  44.348  33.456   4.507
53202W        W25627  40.047  21.794  10.245
53203W        W25628  12.745  21.482   2.860
53204W        W25629  25.112  40.165   0.215
53205W        W25630  38.109  31.372   3.641
53206W        W25631  34.827  39.582  13.912
53207W        W25632  11.569  40.982  11.351
53208W        W25633  27.075  10.747  12.950
53209W        W25634  13.750  23.684  12.069
53210W        W25635   1.101  37.154   0.172
53211W        W25636   1.317   0.991  13.623
53212W        W25637  37.001   1.227   1.930
53213W        W25638   4.052  44.795  14.453
53214W        W25639   3.067  19.151   1.384
53215W        W25640  28.528  14.577  10.819
53216W        W25641  22.423   8.250   4.861
53217W        W25642  41.011  21.292  10.217
53218W        W25643  37.586  37.388   3.735
53219W        W25644  25.233  12.152  11.305
53220W        W25645  26.641  14.713  12.852
53221W        W25646  25.809   0.477   2.738
53222W        W25647  38.322  36.325   2.558
53223W        W25648   3.753  18.915  11.075
53224W        W25649   3.870  11.145   4.200
53225W        W25650   6.213   2.414   2.880
53226W        W25651  36.361  11.636  12.814
53227W        W25652   3.536  30.188   1.671
53228W        W25653  37.753   2.720   1.423
53229W        W25654  43.566  40.761  13.813
53230W        W25655  18.554  15.658   4.027
53231W        W25656  16.724  24.749  14.962
53232W        W25657  40.205  41.412  13.189
53233W        W25658  29.317  14.989   2.810
53234W        W25659   6.160  31.445   1.473
53235W        W25660  41.370  19.570  12.767
53236W        W25661  38.032  11.432   2.614
53237W        W25662   9.852  24.178  14.416
53238W        W25663  31.103   6.386  10.300
53239W        W25664   5.470  19.357   3.280
53240W        W25665  43.676  22.916   1.263
53241W        W25666  27.447  22.623  13.895
53242W        W25667  42.822  36.372  14.626
53243W        W25668  23.134  35.532   1.477
53244W        W25669   9.401  23.165   2.310
53245W        W25670  25.578   8.335   1.652
53246W        W25671  31.180  13.144   0.511
53247W        W25672  12.065  41.413   0.474
53248W        W25673  25.766  41.972  14.588
53249W        W25674  17.626   4.192  11.867
53250W        W25675  41.774  28.747   4.307
53251W        W25676   6.241  38.474  12.566
53252W        W25677  19.284  43.750  11.769
53253W        W25678  27.945   2.045  10.901
53254W        W25679  30.094  27.984   4.791
53255W        W25680  19.220  17.267   3.611
53256W        W25681  44.506  21.243  12.559
53257W        W25682   9.426  12.350   2.801
53258W        W25683  29.706  39.733  13.512
53259W        W25684  41.547  31.142  10.817
53260W        W25685  12.344  13.904   1.791
53261W        W25686  10.711  22.750  11.188
53262W        W25687  10.721  40.787  11.119
53263W        W25688  15.153  26.527  13.962
53264W        W25689   5.639  44.444   4.427
53265W        W25690  23.675  41.957  14.339
53266W        W25691  26.545  27.690   4.348
53267W        W25692  13.774   3.309   0.391
53268W        W25693   4.136   1.251   1.845
53269W        W25694  35.679  39.995   3.258
53270W        W25695  37.006  27.900  14.863
53271W        W25696  27.824   8.108  11.995
53272W        W25697  32.093  43.209  11.172
53273W        W25698  44.865   8.228  11.597
53274W        W25699   8.089  31.797  12.967
53275W        W25700   0.312  12.305  13.061
53276W        W25701  10.381  37.915   2.013
53277W        W25702   1.428  15.809   4.646
53278W        W25703  14.162  19.687  11.585
53279W        W25704  14.615  28.332   3.338
53280W        W25705  11.686  41.892  14.592
53281W        W25706  44.806  40.365  14.497
53282W        W25707  21.528  33.272   2.833
53283W        W25708   2.793  27.531  14.814
53284W        W25709  32.455   7.997   3.764
53285W        W25710  25.077   9.116  11.627
53286W        W25711  36.882  21.213   4.817
53287W        W25712  23.938  29.159  13.015
53288W        W25713   3.328  35.107   4.143
53289W        W25714  19.899   6.124  10.373
53290W        W25715  18.815  26.949   2.754
53291W        W25716   9.791   5.528   0.479
53292W        W25717  35.299  41.673  12.118
53293W        W25718  32.721  39.887   0.964
53294W        W25719  18.070   7.269   2.660
53295W        W25720  37.507  11.314  14.879
53296W        W25721   6.881   2.959  14.929
53297W        W25722   6.481  34.057   0.441
53298W        W25723  25.181  36.633  11.189
53299W        W25724  35.327  38.100   2.333
53300W        W25725  25.073  34.420   2.595
53301W        W25726  43.412  38.685  11.066
53302W        W25727  22.825  37.796  13.306
53303W        W25728  44.550  17.776  13.887
53304W        W25729  32.525   7.709  12.751
53305W        W25730  10.249  12.716  10.050
53306W        W25731  10.876   5.527  12.527
53307W        W25732  14.636  30.818   5.168
53308W        W25733  43.954  14.635  10.539
53309W        W25734  21.646  24.692  12.587
53310W        W25735  27.716  18.253  10.518
53311W        W25736  24.429  43.227   0.462
53312W        W25737  27.839  14.961   0.733
53313W        W25738  22.471   8.659   0.025
53314W        W25739   4.341  26.691   0.200
53315W        W25740  23.489  21.127   2.950
53316W        W25741   3.554  21.100  10.872
53317W        W25742  24.631  42.366   1.244
53318W        W25743  40.010  16.375   1.866
53319W        W25744   0.342  26.260   4.011
53320W        W25745  21.643  42.043  13.557
53321W        W25746  14.963  43.134  13.537
53322W        W25747  35.548  37.925  12.313
53323W        W25748  29.222   7.620   1.060
53324W        W25749  44.870  41.014   3.529
53325W        W25750  19.483  20.140  12.934
53326W        W25751  22.156   5.921  14.507
53327W        W25752  33.520  42.333  13.451
53328W        W25753  15.311   9.801  11.920
53329W        W25754  27.402   5.828  11.910
53330W        W25755   1.870  44.276  13.570
53331W        W25756  29.218   8.117   0.940
53332W        W25757  42.960  38.613  10.767
53333W        W25758  26.233  34.692   1.474
53334W        W25759  42.219  31.166  13.365
53335W        W25760  34.504  32.841  13.503
53336W        W25761   1.553  34.781  12.862
53337W        W25762  29.600  41.376   3.381
53338W        W25763   0.492  28.587  12.054
53339W        W25764  36.147  28.081  11.665
53340W        W25765  15.070   0.461  12.173
53341W        W25766  15.128  28.472   1.162
53342W        W25767   3.710  39.862   2.688
53343W        W25768  20.783  37.254  13.313
53344W        W25769  10.771   6.987  12.675
53345W        W25770  38.893  36.584  11.580
53346W        W25771  44.960  32.393   4.602
53347W        W25772  12.241  15.560   3.802
53348W        W25773   2.945  15.238   4.214
53349W        W25774  34.549  44.776   0.978
53350W        W25775   7.293  35.877   3.367
53351W        W25776  21.891  42.224  10.993
53352W        W25777  10.597  44.202   3.163
53353W        W25778  43.439  28.431  13.308
53354W        W25779  13.783  42.509  14.144
53355W        W25780  13.841  15.790  11.886
53356W        W25781   6.206   7.800  10.791
53357W        W25782  28.085  22.683   2.141
53358W        W25783   3.752  14.861  12.062
53359W        W25784  36.240   5.652  10.190
53360W        W25785  25.914   2.150  14.445
53361W        W25786  22.185   0.046   1.097
53362W        W25787  37.256  20.002   2.334
53363W        W25788  22.687  23.003  11.576
53364W        W25789  19.023   2.539  14.353
53365W        W25790  29.440   3.792   2.421
53366W        W25791  39.294  44.729   2.317
53367W        W25792   1.437  31.541   4.305
53368W        W25793  34.096   8.423  13.582
53369W        W25794  33.436  27.227  13.709
53370W        W25795  38.569  44.398   3.684
53371W        W25796  26.464  26.628  14.266
53372W        W25797  37.975   5.931   4.239
53373W        W25798  26.026   4.212  13.473
53374W        W25799  28.030  39.910  13.794
53375W        W25800   2.432  17.568   3.316
53376W        W25801   2.857   3.994   2.707
53377W        W25802   0.483  26.164  10.718
53378W        W25803  39.326   7.770  12.353
53379W        W25804  27.419  30.931  13.951
53380W        W25805  40.087  20.703  11.598
53381W        W25806   3.199  24.369   3.147
53382W        W25807   4.999  30.784  12.962
53383W        W25808  42.451   8.470   0.855
53384W        W25809  10.639   8.353   2.184
53385W        W25810  41.831   6.374  13.464
53386W        W25811   1.364  33.163   1.444
53387W        W25812   9.785  28.189   3.275
53388W        W25813   9.962  31.570   1.278
53389W        W25814  42.110   9.920  11.004
53390W        W25815  36.641  31.045   1.197
53391W        W25816  36.827  24.682  12.969
53392W        W25817  19.305  32.128   0.421
53393W        W25818  39.555  43.127   3.087
53394W        W25819   3.221   4.360  11.177
53395W        W25820  12.300   6.322  13.168
53396W        W25821  40.862  13.097  12.103
53397W        W25822   4.380  13.626   0.846
53398W        W25823  23.174  34.509   2.378
53399W        W25824  10.505  34.002   3.716
53400W        W25825  33.390  29.921   2.259
53401W        W25826  26.490  18.860   0.475
53402W        W25827   0.315   4.338   4.148
53403W        W25828   0.279  35.553   3.785
53404W        W25829   4.987  42.797   2.942
53405W        W25830  21.873  15.168  10.933
53406W        W25831  20.141  12.890   2.769
53407W        W25832  26.632  39.028   1.378
53408W        W25833  11.170  39.490   3.909
53409W        W25834   2.514  38.763   0.397
53410W        W25835  21.921   5.786  11.127
53411W        W25836  42.403  33.577  12.553
53412W        W25837  15.589  20.283   1.827
53413W        W25838   8.213  43.050   0.350
53414W        W25839  43.499  14.209   0.662
53415W        W25840  40.548  23.250  10.592
53416W        W25841  13.792  17.770  14.346
53417W        W25842  37.359  25.609  13.758
53418W        W25843  38.947  38.236  14.925
53419W        W25844   1.561   3.972   0.726
53420W        W25845  26.079   4.968   4.087
53421W        W25846  33.417  40.852   4.515
53422W        W25847  36.411  41.862  13.511
53423W        W25848  33.820  26.525   2.177
53424W        W25849  28.500   7.588   1.647
53425W        W25850   0.663   8.325  13.821
53426W        W25851   3.183  12.202  14.363
53427W        W25852  23.053  38.336   2.300
53428W        W25853   4.125  37.198   3.174
53429W        W25854   6.913  22.395  14.415
53430W        W25855   2.519  21.165   0.831
53431W        W25856  37.262  39.337   1.309
53432W        W25857  32.137  37.959   0.192
53433W        W25858  23.975  15.636   3.696
53434W        W25859  18.038  10.332   0.909
53435W        W25860   8.206  25.723  11.522
53436W        W25861  36.557  22.425  13.904
53437W        W25862  20.021  36.260  14.976
53438W        W25863  25.149  16.710  13.024
53439W        W25864  18.299  39.051   2.639
53440W        W25865  19.933   9.264   4.115
53441W        W25866   4.279  22.043  13.379
53442W        W25867  41.863  27.228   1.967
53443W        W25868  36.759  35.136   4.022
53444W        W25869  14.633  25.920   0.830
53445W        W25870  18.265   9.374   3.619
53446W        W25871  15.794  30.130   0.208
53447W        W25872  37.102  36.558   3.262
53448W        W25873   5.559   8.195   3.227
53449W        W25874  10.393  25.205  13.882
53450W        W25875  39.126   7.694  14.153
53451W        W25876  38.661  42.887  14.934
53452W        W25877  37.513   2.160   3.821
53453W        W25878  35.087  11.491  12.008
53454W        W25879  32.030  29.527   2.428
53455W        W25880   3.365  16.905   2.205
53456W        W25881  40.418  30.603  11.106
53457W        W25882  21.352   7.915   1.803
53458W        W25883  39.769   8.277  11.163
53459W        W25884   5.276  35.774   0.261
53460W        W25885   1.210  25.659   0.978
53461W        W25886  20.604  30.898  14.351
53462W        W25887  44.806  35.762  10.947
53463W        W25888  41.601  16.625  11.132
53464W        W25889  30.498   3.136   0.652
53465W        W25890  30.422  43.280  12.470
53466W        W25891  11.281  22.762   1.874
53467W        W25892  39.867  41.932   0.894
53468W        W25893  43.808  34.769   0.751
53469W        W25894  22.641  36.002  12.563
53470W        W25895   1.885  28.975  14.470
53471W        W25896  27.067  16.351  13.939
53472W        W25897   3.790  40.306   0.757
53473W        W25898   4.135  19.019  13.365
53474W        W25899   2.698   9.648   0.672
53475W        W25900  38.769  32.003   4.621
53476W        W25901  27.748  39.464   3.228
53477W        W25902  42.382  35.053   0.719
53478W        W25903   4.433  11.053   3.536
53479W        W25904  30.711  37.069   4.333
53480W        W25905   7.671   4.331  10.895
53481W        W25906  34.031  42.017   3.416
53482W        W25907  12.619   5.517  11.142
53483W        W25908   0.309  29.140  12.916
53484W        W25909  39.835  22.605  11.343
53485W        W25910  44.244   7.994   0.293
53486W        W25911   2.820  19.998   1.295
53487W        W25912   5.399  43.367  11.195
53488W        W25913   6.683  32.438  14.803
53489W        W25914  15.302  33.400   1.864
53490W        W25915   7.166   9.191  13.917
53491W        W25916  35.600  20.001   1.714
53492W        W25917   2.355   5.403  14.960
53493W        W25918  27.669   4.176   1.127
53494W        W25919   6.157  24.800  12.847
53495W        W25920  32.435  40.983   1.434
53496W        W25921   1.559  21.711   1.873
53497W        W25922  24.663  30.460  14.990
53498W        W25923  44.218  10.778   4.211
53499W        W25924  31.721  17.038  12.476
53500W        W25925   7.659  18.193  13.893
53501W        W25926   3.519  16.569  10.469
53502W        W25927   6.135  26.159  12.224
53503W        W25928  17.703  39.796  11.608
53504W        W25929  24.248   8.672  14.006
53505W        W25930  43.697  15.837  14.503
53506W        W25931   5.000  28.715   1.721
53507W        W25932  22.590  21.640  11.412
53508W        W25933  25.305  12.319  10.805
53509W        W25934  26.667  13.794   2.664
53510W        W25935  34.011  32.055   4.279
53511W        W25936  27.037  13.047   1.762
53512W        W25937  21.876   1.835  12.187
53513W        W25938  24.614  32.864  13.047
53514W        W25939  18.563  31.442  12.389
53515W        W25940   7.684  42.075  12.160
53516W        W25941  29.546  18.498   2.324
53517W        W25942   2.177  24.608   1.159
53518W        W25943  22.735  39.625   0.299
53519W        W25944  37.466  28.095   3.324
53520W        W25945   9.328  40.250  11.985
53521W        W25946   3.826  43.406  14.463
53522W        W25947  18.550  40.972   4.557
53523W        W25948  14.524  27.900  11.584
53524W        W25949  30.887   4.382  14.314
53525W        W25950  10.195  22.176   5.216
53526W        W25951  35.394   4.886  11.153
53527W        W25952   2.872  19.325  13.487
53528W        W25953  27.130  29.575   0.774
53529W        W25954  25.889  33.187   0.396
53530W        W25955  25.054  18.763   0.360
53531W        W25956  23.095  10.567   3.134
53532W        W25957  11.168  44.537  12.830
53533W        W25958  13.778  25.136   0.073
53534W        W25959  38.901  21.033  13.867
53535W        W25960  31.500  40.985   1.379
53536W        W25961  10.287  29.533  11.504
53537W        W25962  18.065  11.131   4.078
53538W        W25963   9.924  23.695  14.555
53539W        W25964  36.063  30.841  10.691
53540W        W25965  17.340  35.335  13.447
53541W        W25966  42.445   6.118  14.058
53542W        W25967  37.109   5.499   0.284
53543W        W25968  16.511   0.081   3.324
53544W        W25969  22.428  24.759  14.419
53545W        W25970  13.161  41.088  11.539
53546W        W25971  24.011  11.197  13.638
53547W        W25972  33.354   3.661  12.980
53548W        W25973  19.454   5.235  12.369
53549W        W25974  33.321  12.320  13.405
53550W        W25975  37.960  12.156   0.733
53551W        W25976  30.398  34.795   2.361
53552W        W25977  11.245  10.179   1.699
53553W        W25978  18.187   1.325  13.905
53554W        W25979   3.837   7.915   0.801
53555W        W25980  41.660  26.187  13.823
53556W        W25981  26.898  35.433   3.166
53557W        W25982   7.510   5.703   0.604
53558W        W25983  25.512   5.237  11.529
53559W        W25984  11.556  13.761   0.206
53560W        W25985  29.690  17.145  12.490
53561W        W25986  28.398  38.189   0.075
53562W        W25987   6.383  36.571   4.356
53563W        W25988  39.969   6.756   3.388
53564W        W25989  11.861  34.451  14.805
53565W        W25990  26.530  43.820  12.616
53566W        W25991  23.751  22.803  13.443
53567W        W25992  12.675  43.975   1.496
53568W        W25993  13.848   5.213   1.002
53569W        W25994  43.246  43.947   4.604
53570W        W25995  44.970  23.520   0.277
53571W        W25996  30.366  44.002   1.793
53572W        W25997  44.793  41.971  10.669
53573W        W25998  21.732  20.066   3.208
53574W        W25999  27.917  33.165   2.400
53575W        W26000   4.095  11.246   0.571
53576W        W26001  23.620  31.478   0.331
53577W        W26002  41.159  24.042   1.663
53578W        W26003  10.645  20.542   1.703
53579W        W26004  32.516  42.877  12.978
53580W        W26005  38.514  15.019  11.829
53581W        W26006  31.627  38.449   2.996
53582W        W26007  17.779  14.079   2.631
53583W        W26008  13.694  16.633  13.000
53584W        W26009  22.702  44.549   1.669
53585W        W26010  38.642  18.970  13.488
53586W        W26011  13.720  32.809   1.056
53587W        W26012  22.044  21.131   4.648
53588W        W26013   4.400   4.331   1.235
53589W        W26014  44.696  19.519  10.786
53590W        W26015  37.403  12.274   0.406
53591W        W26016  32.890   8.279  12.567
53592W        W26017  31.228   7.806   1.246
53593W        W26018  24.869  42.104   1.820
53594W        W26019  22.027  15.400   2.766
53595W        W26020  22.609  26.129  10.060
53596W        W26021  43.402  31.115  12.848
53597W        W26022  29.449  35.803  11.077
53598W        W26023  38.758  27.111   3.054
53599W        W26024  44.953  41.112  13.999
53600W        W26025  31.639  36.037   4.183
53601W        W26026  19.849  35.128   2.810
53602W        W26027  13.241  33.921  11.134
53603W        W26028  14.113  44.911  13.007
53604W        W26029  16.800   9.671  14.045
53605W        W26030  43.758  43.118  12.437
53606W        W26031  41.271  40.510   0.396
53607W        W26032  19.545  24.497  13.057
53608W        W26033  36.084  11.802  10.721
53609W        W26034  17.170  42.288   3.684
53610W        W26035  34.149  33.332  12.350
53611W        W26036  37.120   3.826   0.761
53612W        W26037  14.316  21.443   0.895
53613W        W26038  19.531  33.943  12.143
53614W        W26039  39.888  24.074  10.771
53615W        W26040  44.422  29.668  14.687
53616W        W26041   5.349  31.630   4.127
53617W        W26042  23.329   2.956  11.122
53618W        W26043   3.253  26.452   0.478
53619W        W26044  44.300   4.355  14.416
53620W        W26045   0.628   5.267  13.432
53621W        W26046  39.017  14.065   0.369
53622W        W26047  44.742  13.214  11.189
53623W        W26048  15.268  31.649   1.383
53624W        W26049  42.486  32.239   2.179
53625W        W26050   2.742  12.606   4.463
53626W        W26051  23.740   9.039  14.920
53627W        W26052   6.562  34.489  13.991
53628W        W26053   4.672  37.325  14.802
53629W        W26054  29.160  32.999   2.756
53630W        W26055   4.199  39.543  13.086
53631W        W26056  27.726  38.030   1.392
53632W        W26057  11.863  11.862  10.699
53633W        W26058  25.134   5.694   4.018
53634W        W26059  43.449   2.878   3.044
53635W        W26060   7.253  15.418   1.202
53636W        W26061  18.537   7.973  11.378
53637W        W26062  41.019  29.067   4.706
53638W        W26063  32.008  26.700   3.693
53639W        W26064   7.683   2.968   3.719
53640W        W26065  26.731  12.015  13.533
53641W        W26066  41.183  38.571   3.077
53642W        W26067  44.345  28.896  11.825
53643W        W26068   6.308  28.417  12.973
53644W        W26069  19.476   1.805   2.021
53645W        W26070  31.967  19.986  13.373
53646W        W26071  30.621  10.485   0.884
53647W        W26072  30.015   1.992  12.984
53648W        W26073   8.145  26.742   5.057
53649W        W26074  40.082   5.678  11.961
53650W        W26075   0.441  25.704  13.805
53651W        W26076  44.866  15.473   1.034
53652W        W26077  34.621  16.563  13.448
53653W        W26078  44.432   1.587   1.616
53654W        W26079  41.966  30.277   1.770
53655W        W26080  41.752  38.498  13.803
53656W        W26081  36.462  27.516  10.718
53657W        W26082  13.575  35.916  14.922
53658W        W26083  20.368  15.195   4.098
53659W        W26084  23.051  42.538   2.141
53660W        W26085  38.822  25.761   2.209
53661W        W26086   4.300  15.157   4.088
53662W        W26087  32.436  31.678  13.467
53663W        W26088  35.473  43.575  12.595
53664W        W26089  27.836  19.468   4.548
53665W        W26090  38.804  39.330   4.221
53666W        W26091  23.062  23.063  14.770
53667W        W26092  42.343   7.447  12.858
53668W        W26093   1.819  13.290   2.808
53669W        W26094  43.756  30.529   2.435
53670W        W26095  31.955  26.956   4.186
53671W        W26096   9.953  30.350   2.767
53672W        W26097  27.005  37.227   2.247
53673W        W26098  17.234   4.549   1.849
53674W        W26099   0.872  27.716   0.856
53675W        W26100  43.547  15.320   1.299
53676W        W26101  29.122  25.667  14.394
53677W        W26102  18.258  13.651   1.498
53678W        W26103  26.427  17.038   0.777
53679W        W26104  15.676  15.122  11.708
53680W        W26105  20.695  40.599  14.886
53681W        W26106   7.818  33.123  11.775
53682W        W26107  28.598  19.626  13.063
53683W        W26108   2.351  16.993  12.060
53684W        W26109  25.179  18.937  11.208
53685W        W26110  44.264   8.403   0.840
53686W        W26111   3.132  12.255   0.300
53687W        W26112  26.083   9.405   2.404
53688W        W26113   3.381   9.538  10.686
53689W        W26114  15.634  41.688   0.901
53690W        W26115  28.562  33.372   4.078
53691W        W26116   3.347  39.689  13.932
53692W        W26117  36.060   9.467   1.710
53693W        W26118  13.117   1.776  12.961
53694W        W26119  29.273  32.295   1.896
53695W        W26120  40.200  30.412  11.560
53696W        W26121  24.100  32.461   2.982
53697W        W26122  42.012  11.885  13.023
53698W        W26123   5.731  37.974  12.115
53699W        W26124  24.600   0.221   4.689
53700W        W26125  15.629  23.531   0.379
53701W        W26126  13.286  43.301  12.221
53702W        W26127  22.570  29.837  11.482
53703W        W26128  31.063  33.369  14.896
53704W        W26129  13.387  12.501   0.324
53705W        W26130  23.005  17.291   0.808
53706W        W26131   9.215  26.680   3.871
53707W        W26132  18.587  10.406  12.482
53708W        W26133  37.679   8.426   3.689
53709W        W26134  41.969  31.076  14.493
53710W        W26135  44.846  11.923   1.463
53711W        W26136   5.137   1.029  12.136
53712W        W26137  15.181   6.214   2.763
53713W        W26138  41.373  17.759  13.450
53714W        W26139  33.639  22.572  14.866
53715W        W26140   0.504  34.394   2.690
53716W        W26141  11.738  24.775   3.734
53717W        W26142  23.421  42.845   1.821
53718W        W26143  23.763  11.464  14.481
53719W        W26144  25.425  13.147   0.780
53720W        W26145   2.838  41.327   1.799
53721W        W26146  40.830   9.153  11.042
53722W        W26147  37.761  28.728  11.313
53723W        W26148  33.619  28.384  12.435
53724W        W26149  18.118  44.927  14.056
53725W        W26150  43.317   9.065   2.882
53726W        W26151   9.399   5.441   4.140
53727W        W26152  21.608   1.818  13.977
53728W        W26153  24.129   3.966   1.387
53729W        W26154  30.165   2.642   2.746
53730W        W26155  30.093  25.902   1.328
53731W        W26156   3.010  26.072   0.836
53732W        W26157  19.846  24.142  13.905
53733W        W26158   4.298   3.466  10.251
53734W        W26159  22.799  36.535  11.127
53735W        W26160   0.230  36.319   1.622
53736W        W26161   8.439  20.130   4.599
53737W        W26162  40.173   1.469   4.850
53738W        W26163  26.015  30.019   3.222
53739W        W26164   7.696   9.376   3.589
53740W        W26165  13.917   5.134  10.064
53741W        W26166  21.244  30.857  11.674
53742W        W26167  23.008  11.291   1.786
53743W        W26168  43.860  12.883   4.311
53744W        W26169  26.946  13.086  12.617
53745W        W26170  29.078   3.972   4.599
53746W        W26171   0.426   5.658   2.927
53747W        W26172  26.453  30.861   3.548
53748W        W26173  19.045   1.505   1.855
53749W        W26174  40.421  40.330   3.306
53750W        W26175  14.835  34.350  12.347
53751W        W26176  16.212  44.979  14.891
53752W        W26177   4.234  43.147  14.280
53753W        W26178  40.566  25.972   1.160
53754W        W26179  37.178  18.983  14.818
53755W        W26180   5.428  35.399   3.766
53756W        W26181  18.507  38.409   0.017
53757W        W26182  20.681  14.841  14.485
53758W        W26183  12.698   8.193   4.702
53759W        W26184  19.250   5.944  10.793
53760W        W26185  18.604  40.883  14.486
53761W        W26186  33.962  39.109  14.387
53762W        W26187  23.639  19.065   2.727
53763W        W26188  31.633  28.629   0.275
53764W        W26189   1.919  10.422  11.956
53765W        W26190   4.422  39.113   2.607
53766W        W26191  25.122  13.746  14.971
53767W        W26192  21.269  19.933  13.528
53768W        W26193  23.835  44.992   1.055
53769W        W26194  12.326   9.046   0.752
53770W        W26195  42.686  33.591  12.974
53771W        W26196  28.558   4.887  11.036
53772W        W26197  16.639  18.227  12.896
53773W        W26198  42.363  16.027  12.250
53774W        W26199  34.565  38.426   0.780
53775W        W26200  27.146   1.469   0.952
53776W        W26201  41.727  37.943  13.501
53777W        W26202  21.339  29.459  11.999
53778W        W26203  33.782  43.776   0.856
53779W        W26204  10.737  41.288   3.167
53780W        W26205  24.318  36.025   3.951
53781W        W26206  41.079  43.021   3.626
53782W        W26207  40.543  18.018  13.970
53783W        W26208   3.016  24.866   3.230
53784W        W26209  19.179  19.026  11.032
53785W        W26210  14.625   0.374   2.718
53786W        W26211  16.013  27.962  13.528
53787W        W26212  11.722  35.388  11.667
53788W        W26213  44.902   2.682   4.045
53789W        W26214  18.183  26.489   2.910
53790W        W26215  30.884   9.301   0.856
53791W        W26216  12.165   9.399  10.656
53792W        W26217   0.728  36.394  12.514
53793W        W26218  29.268  29.375   1.824
53794W        W26219  29.143  32.181  14.428
53795W        W26220  30.558  40.578  13.956
53796W        W26221  38.477  30.560   3.121
53797W        W26222  31.295  41.617  10.218
53798W        W26223  33.947  15.647   0.587
53799W        W26224   2.182  31.759  12.942
53800W        W26225  20.379  32.304   2.760
53801W        W26226  36.145  19.048  14.897
53802W        W26227   2.505  22.584   4.985
53803W        W26228   6.883  37.757   4.290
53804W        W26229  29.128   1.162   1.244
53805W        W26230   9.897  20.068  13.968
53806W        W26231  14.059  30.028   1.818
53807W        W26232   2.424   4.828   2.682
53808W        W26233  24.120  17.347  12.087
53809W        W26234  13.095  28.114   0.794
53810W        W26235  18.913   5.383   3.632
53811W        W26236  12.037  10.654   1.522
53812W        W26237  33.434  43.200  10.897
53813W        W26238  14.743  20.069   5.175
53814W        W26239  28.655  42.799   4.220
53815W        W26240  20.176   2.399   0.779
53816W        W26241  13.806  37.298  13.414
53817W        W26242  26.124  35.090  10.560
53818W        W26243  40.342  21.815   0.922
53819W        W26244  10.322   6.619   2.536
53820W        W26245  26.559  20.315   3.666
53821W        W26246  32.204  42.500   3.622
53822W        W26247  22.748  21.770  14.300
53823W        W26248   0.037  32.953   2.672
53824W        W26249  38.568   4.794   2.273
53825W        W26250  37.563  10.735  10.517
53826W        W26251  38.784   9.757  10.703
53827W        W26252  10.204  34.627  12.858
53828W        W26253   8.399  23.839   3.424
53829W        W26254  22.705  28.222  13.495
53830W        W26255  22.172  40.307   1.696
53831W        W26256  24.523  39.357   4.663
53832W        W26257  32.685   5.334   0.953
53833W        W26258  19.156  15.030  10.625
53834W        W26259  40.320   2.233  12.019
53835W        W26260  12.294   8.147   1.036
53836W        W26261  15.919  37.960  14.888
53837W        W26262  35.463  43.330  14.754
53838W        W26263  27.305  35.487   3.638
53839W        W26264  24.503  10.173  14.971
53840W        W26265   0.083  17.559   0.111
53841W        W26266  31.846   0.310  12.990
53842W        W26267  43.774  17.384   4.223
53843W        W26268   9.679  26.547   1.731
53844W        W26269  30.010  40.310  14.266
53845W        W26270   1.415  33.824   2.837
53846W        W26271  13.844  11.095   2.369
53847W        W26272  22.618   0.390  14.265
53848W        W26273  23.297  39.998  13.297
53849W        W26274   1.228   9.684  11.177
53850W        W26275  24.129  44.510   4.473
53851W        W26276  27.593  10.258   9.633
53852W        W26277  42.408   9.576  12.625
53853W        W26278  15.702  15.826   1.885
53854W        W26279  34.493  27.124   3.690
53855W        W26280   2.644  40.230   0.510
53856W        W26281  35.177  28.487   3.886
53857W        W26282  23.890  22.674   0.855
53858W        W26283  21.161  16.697   0.511
53859W        W26284  19.182  20.207   3.080
53860W        W26285   2.439  25.832   3.188
53861W        W26286   5.292  21.102   4.950
53862W        W26287   2.179   3.330   0.228
53863W        W26288  40.078  31.623   4.755
53864W        W26289   3.832  32.854   4.529
53865W        W26290  35.940  30.713   2.170
53866W        W26291  12.826  30.033   2.573
53867W        W26292   3.184  15.785   4.643
53868W        W26293   0.434  33.107   4.310
53869W        W26294  19.718  26.911  10.480
53870W        W26295  42.104   3.450  13.422
53871W        W26296  33.584  31.889   2.163
53872W        W26297  41.296  11.227  13.912
53873W        W26298  40.857  44.239   4.141
53874W        W26299  35.297  28.463   2.739
53875W        W26300   5.337  40.771  10.712
53876W        W26301   3.262  43.931   0.895
53877W        W26302  17.214  32.826   0.005
53878W        W26303  31.032  29.147  12.380
53879W        W26304  19.496  34.520  13.579
53880W        W26305  19.509  30.422   4.545
53881W        W26306  15.627   4.795   1.140
53882W        W26307  42.276  40.383   2.842
53883W        W26308   3.131  37.502   3.380
53884W        W26309  43.769  25.715   1.243
53885W        W26310   2.486  21.636  13.395
53886W        W26311  42.500  24.601   1.310
53887W        W26312  33.271  15.068   1.820
53888W        W26313  39.009  21.257  11.155
53889W        W26314  10.939  10.108   0.311
53890W        W26315  28.747  44.762   3.236
53891W        W26316  28.928   6.679   4.102
53892W        W26317  10.399  28.882  10.701
53893W        W26318  33.504  37.348  11.989
53894W        W26319  25.147  44.469   0.520
53895W        W26320   3.206  13.728  10.646
53896W        W26321  19.037  19.214   0.386
53897W        W26322  13.313  20.670   2.604
53898W        W26323  33.709  14.111   1.767
53899W        W26324  39.019  27.920   4.867
53900W        W26325  44.842  20.333   4.786
53901W        W26326  13.702  18.324  13.481
53902W        W26327  16.348  19.199   4.272
53903W        W26328  36.854  33.900  11.584
53904W        W26329  23.631   1.460  10.694
53905W        W26330  14.974  43.836   3.601
53906W        W26331  39.122  21.607   4.250
53907W        W26332  12.391  32.712   3.226
53908W        W26333   2.727   4.391  10.387
53909W        W26334   4.442   3.338   0.703
53910W        W26335  12.725   4.513  14.378
53911W        W26336  34.957   8.420   3.867
53912W        W26337  43.784  44.349  12.048
53913W        W26338  32.588   6.335   4.528
53914W        W26339  43.402  11.925  11.081
53915W        W26340  26.761  14.644  10.995
53916W        W26341   6.684  35.582  11.972
53917W        W26342  10.285   8.074   4.150
53918W        W26343  33.519   2.187  14.853
53919W        W26344   7.615  20.137  10.895
53920W        W26345  43.390  10.139  13.956
53921W        W26346  29.878  14.058  12.489
53922W        W26347  29.166  41.418   9.742
53923W        W26348  42.946  29.054  10.715
53924W        W26349  13.398   8.643   3.260
53925W        W26350   0.727   0.511   1.385
53926W        W26351  28.576  15.987   0.948
53927W        W26352  11.354  36.308  10.604
53928W        W26353  42.077  44.810   1.882
53929W        W26354  27.135   7.267  14.864
53930W        W26355  44.045  39.554   1.820
53931W        W26356  34.576   7.741   0.204
53932W        W26357  18.308   8.574   3.048
53933W        W26358   4.413  10.943  13.818
53934W        W26359  27.815  27.950  14.982
53935W        W26360  22.565  34.961  10.221
53936W        W26361   6.802  41.309  12.146
53937W        W26362  32.094   1.736   3.731
53938W        W26363  21.474  27.591  10.806
53939W        W26364  29.482   3.936   2.898
53940W        W26365   6.448  15.990   1.182
53941W        W26366   9.626  20.590  12.258
53942W        W26367  28.970   3.877  14.083
53943W        W26368  27.173  22.405  14.688
53944W        W26369  21.168   9.102   3.722
53945W        W26370  24.192  32.671  13.907
53946W        W26371  22.047  35.404  10.504
53947W        W26372   8.158  44.935   4.834
53948W        W26373  37.063  29.384  14.734
53949W        W26374  16.200  43.441  10.760
53950W        W26375   6.426  39.735  14.822
53951W        W26376  22.171   9.201  11.019
53952W        W26377   9.307  10.906  11.595
53953W        W26378  21.195  37.841   3.397
53954W        W26379  15.510   5.419   0.372
53955W        W26380   1.362  22.662   0.879
53956W        W26381  30.498  44.851  11.969
53957W        W26382  37.606  22.753   3.295
53958W        W26383  33.451   2.346  13.326
53959W        W26384  16.605   0.300  13.950
53960W        W26385  37.587   0.463   3.802
53961W        W26386  35.559   9.472  10.338
53962W        W26387   1.481  22.099  10.585
53963W        W26388  35.442   4.138   0.846
53964W        W26389  38.940  25.155   1.148
53965W        W26390  18.767   3.938  13.856
53966W        W26391  36.287  37.417   3.810
53967W        W26392  17.030  39.668   0.022
53968W        W26393   1.773   7.371  12.422
53969W        W26394  10.608  44.757  12.957
53970W        W26395  14.111  15.816  11.448
53971W        W26396  41.449  28.611  14.371
53972W        W26397   5.202  20.607   4.708
53973W        W26398  41.799  31.648  11.947
53974W        W26399  29.693  12.261   4.389
53975W        W26400  16.787  38.986   0.780
53976W        W26401  23.156  24.076  13.295
53977W        W26402  43.483  44.484  14.202
53978W        W26403   7.434   6.349  11.583
53979W        W26404  26.385   9.804   0.281
53980W        W26405  14.303  14.342   3.407
53981W        W26406  32.158   4.641   1.293
53982W        W26407  15.522  14.625  14.456
53983W        W26408  35.450  16.324   4.548
53984W        W26409  37.878  28.526  10.829
53985W        W26410  37.064  11.667   1.557
53986W        W26411  32.378  42.321  10.835
53987W        W26412   7.221  11.892   0.274
53988W        W26413  26.193  20.210  11.384
53989W        W26414  10.705  25.621  13.737
53990W        W26415  30.033  17.058   4.277
53991W        W26416  12.527  18.083  10.581
53992W        W26417  41.391   9.671   0.363
53993W        W26418  36.488  32.533  14.817
53994W        W26419  44.817  31.125   9.857
53995W        W26420   2.562  39.810  13.679
53996W        W26421  35.447   5.181  10.723
53997W        W26422  11.864  30.036   4.870
53998W        W26423   3.398  17.454  14.018
53999W        W26424  32.293  26.529  12.059
54000W        W26425   7.925  23.269   4.067
54001W        W26426  27.615  21.126  10.725
54002W        W26427  14.280  13.726  14.192
54003W        W26428  29.989  13.028  10.559
54004W        W26429  27.056  31.540   2.713
54005W        W26430  31.179   4.028   4.209
54006W        W26431  33.514  22.579   0.697
54007W        W26432  17.172  26.766  12.605
54008W        W26433   1.848  34.643   0.624
54009W        W26434  35.988  27.060   2.299
54010W        W26435  31.092  11.728   0.411
54011W        W26436  12.759  23.482   2.934
54012W        W26437   7.673   3.828  13.404
54013W        W26438  41.089  19.213   2.195
54014W        W26439  31.194  43.002   4.197
54015W        W26440  25.110   6.970  10.488
54016W        W26441  16.013   5.197   3.248
54017W        W26442  44.551   9.108  12.992
54018W        W26443   4.296  32.701   1.479
54019W        W26444  35.139   5.164  11.994
54020W        W26445  44.989  32.979   0.347
54021W        W26446  32.910  41.316  13.500
54022W        W26447   8.238  38.430  12.607
54023W        W26448  18.959  34.117  10.992
54024W        W26449   2.366  15.739  14.122
54025W        W26450  10.638  41.289  11.155
54026W        W26451  12.711  27.128   4.608
54027W        W26452  10.895  17.528   3.113
54028W        W26453   2.823  39.316   1.670
54029W        W26454  24.902  33.208   5.181
54030W        W26455  26.153  33.116   9.771
54031W        W26456  34.093  19.905   1.520
54032W        W26457  20.216  27.626  13.906
54033W        W26458  26.844  30.928  10.277
54034W        W26459  18.465  32.077  14.725
54035W        W26460  28.668  16.474  13.721
54036W        W26461   0.039  41.556  10.835
54037W        W26462  36.762   8.771   4.810
54038W        W26463  20.112   9.083  12.277
54039W        W26464   8.153  42.436   1.086
54040W        W26465  29.903  23.708   3.172
54041W        W26466  19.288  34.922  12.359
54042W        W26467   5.238  43.567  10.703
54043W        W26468  39.681  11.121  12.315
54044W        W26469   8.895   2.208  12.967
54045W        W26470   7.375   5.768   1.232
54046W        W26471  13.923   4.013   1.826
54047W        W26472   5.835  30.575  10.743
54048W        W26473  15.786   3.251  11.175
54049W        W26474  22.223  18.566   0.051
54050W        W26475   5.875  43.276  13.350
54051W        W26476   2.615  44.590  11.292
54052W        W26477   9.489  31.348  13.582
54053W        W26478  40.435  44.835   0.569
54054W        W26479  23.029   9.546   9.902
54055W        W26480  43.262  25.710   1.394
54056W        W26481   8.069  24.514  11.004
54057W        W26482  21.186  36.322   1.544
54058W        W26483  11.323  23.756  14.585
54059W        W26484   7.121  27.070  12.003
54060W        W26485   2.767  15.899   1.724
54061W        W26486  36.061  43.085  12.283
54062W        W26487  42.566   5.316   0.858
54063W        W26488  13.072  42.465   2.343
54064W        W26489  29.116  10.683  13.616
54065W        W26490  42.921  23.743  14.095
54066W        W26491  39.054  30.737  13.455
54067W        W26492  11.965  25.141   9.667
54068W        W26493  16.769  34.850   1.028
54069W        W26494  38.505  28.219  13.806
54070W        W26495  19.045   1.410  11.536
54071W        W26496  33.152  21.760   0.501
54072W        W26497  16.626   8.595   4.702
54073W        W26498  14.656   3.283   5.030
54074W        W26499  40.455  24.221   2.797
54075W        W26500  13.248  30.098  11.682
54076W        W26501  44.718  34.375  10.517
54077W        W26502  10.127  43.435  14.007
54078W        W26503  30.139  31.786  11.814
54079W        W26504  27.927  15.287  13.686
54080W        W26505  37.477   6.127  12.361
54081W        W26506  43.903  41.269   2.219
54082W        W26507  28.568  31.581  11.670
54083W        W26508  43.882   5.219  14.202
54084W        W26509  38.433  38.472   4.443
54085W        W26510  28.841  27.086  11.134
54086W        W26511   2.180  18.141   2.751
54087W        W26512  32.786  29.675   1.362
54088W        W26513   7.826  38.924  10.192
54089W        W26514  28.402  31.432   2.671
54090W        W26515  42.532  29.434  11.864
54091W        W26516  16.545  38.018   3.345
54092W        W26517  34.786   9.212  11.648
54093W        W26518  33.380  21.152   1.913
54094W        W26519   9.716   6.415   1.352
54095W        W26520   3.372   9.028   3.392
54096W        W26521  43.942   5.615   1.782
54097W        W26522  22.726  16.506  13.084
54098W        W26523  26.227  38.422   0.929
54099W        W26524  36.024  16.299   0.003
54100W        W26525   5.117  27.097  12.090
54101W        W26526   1.950  26.357  12.559
54102W        W26527  24.428  44.035   2.245
54103W        W26528  35.902   6.467  10.266
54104W        W26529  12.449  41.853   3.812
54105W        W26530  34.366  10.868   3.782
54106W        W26531   1.978  16.187  10.762
54107W        W26532  29.109  37.475  13.362
54108W        W26533  13.372  30.581   3.731
54109W        W26534  33.308   8.764  13.121
54110W        W26535   6.889  33.057  12.951
54111W        W26536  36.965  22.317   2.710
54112W        W26537  40.843  44.869  13.878
54113W        W26538   4.831  14.046  12.436
54114W        W26539  30.217   2.397   0.908
54115W        W26540  36.555   8.093  10.762
54116W        W26541  31.838   6.028  14.766
54117W        W26542  12.396  15.158   2.303
54118W        W26543  25.006  26.543   1.831
54119W        W26544  41.014  10.756   4.559
54120W        W26545   9.857   1.171  11.210
54121W        W26546  44.702  10.461   0.450
54122W        W26547  27.037  24.424   1.456
54123W        W26548  13.858   2.496  13.892
54124W        W26549   5.874  43.821  12.463
54125W        W26550  24.592  44.858  10.474
54126W        W26551  17.025  16.256  13.007
54127W        W26552  41.818  31.670   1.867
54128W        W26553  40.370   8.889  13.319
54129W        W26554  44.930  11.446   1.338
54130W        W26555   4.881   1.415  10.452
54131W        W26556  11.236  14.871   4.361
54132W        W26557  21.301  13.145   0.977
54133W        W26558  44.786  18.426   1.991
54134W        W26559  41.895  24.196  12.520
54135W        W26560   0.237   5.046  13.732
54136W        W26561  43.449   5.710  13.982
54137W        W26562  42.908  28.008  10.849
54138W        W26563  38.617  13.889  13.548
54139W        W26564   0.768  13.803   0.751
54140W        W26565  41.287  31.947   3.922
54141W        W26566   0.333  15.224   3.672
54142W        W26567  21.269  21.283  13.381
54143W        W26568  43.418  23.705  13.295
54144W        W26569  15.158  13.384  14.055
54145W        W26570  35.432   8.945   0.329
54146W        W26571  38.964  42.582   0.446
54147W        W26572  24.493  19.118  12.504
54148W        W26573  12.059   3.075   1.203
54149W        W26574   8.235  36.701  14.801
54150W        W26575  19.509  25.467  14.371
54151W        W26576   2.192  34.205   2.401
54152W        W26577  28.198   1.707  13.090
54153W        W26578   2.401  43.534  13.633
54154W        W26579  29.679  30.453   4.116
54155W        W26580  41.163  22.547   4.152
54156W        W26581  19.306  39.258  11.134
54157W        W26582  28.151  10.806   4.211
54158W        W26583  39.588  37.104  12.894
54159W        W26584  39.904   9.887   1.859
54160W        W26585  36.329  38.017  14.498
54161W        W26586  25.388  41.093   5.044
54162W        W26587  19.023  37.001   1.468
54163W        W26588  39.507  16.658   4.198
54164W        W26589  21.126  11.606  11.739
54165W        W26590  37.424   6.491  12.720
54166W        W26591   5.387  24.576   1.501
54167W        W26592  35.021  36.640   4.005
54168W        W26593   0.735  26.300   4.350
54169W        W26594  41.172   0.450  14.713
54170W        W26595  31.627  44.482  11.094
54171W        W26596  42.978  28.987   0.377
54172W        W26597  11.072  11.155  14.396
54173W        W26598   9.854  44.672  11.165
54174W        W26599  29.065  21.165  13.795
54175W        W26600  30.533  31.932   9.929
54176W        W26601  15.550  36.881   1.662
54177W        W26602  36.996  42.161   0.182
54178W        W26603  16.679  16.857   1.796
54179W        W26604  11.346  36.819  11.644
54180W        W26605  12.851  23.227   1.028
54181W        W26606  35.347   4.507  13.578
54182W        W26607  10.295  26.614  12.473
54183W        W26608  19.634  15.115  11.090
54184W        W26609  43.789  34.383   4.485
54185W        W26610   0.520  27.624  12.014
54186W        W26611  11.027  15.608  10.838
54187W        W26612  18.462   4.707   0.693
54188W        W26613  43.910  28.055   0.270
54189W        W26614  21.340  18.301  11.186
54190W        W26615   2.950   9.222   1.453
54191W        W26616  21.263  34.533  12.162
54192W        W26617  23.978  21.462   4.098
54193W        W26618  35.362  10.617   1.660
54194W        W26619   4.024  21.841  10.795
54195W        W26620  27.456  24.127  11.084
54196W        W26621  27.212  37.395   2.729
54197W        W26622   5.499  34.748   3.631
54198W        W26623  11.222  35.930   0.803
54199W        W26624  27.006  18.795   2.395
54200W        W26625  13.697  39.844  13.861
54201W        W26626  35.786   4.275  13.740
54202W        W26627   3.140  11.767   3.144
54203W        W26628  17.659  22.415   2.237
54204W        W26629  15.486  36.541   0.807
54205W        W26630  33.003  22.228   1.841
54206W        W26631   7.257  28.126   0.426
54207W        W26632   4.291  22.121  10.429
54208W        W26633  35.338  29.719  10.528
54209W        W26634  17.656  35.380   0.766
54210W        W26635   6.840  37.245   4.350
54211W        W26636  21.597   9.118  14.973
54212W        W26637  25.220  12.796   0.411
54213W        W26638  15.371  31.183   0.335
54214W        W26639   5.122  25.087   2.634
54215W        W26640  29.131   9.589   2.734
54216W        W26641  33.631  28.897  14.653
54217W        W26642  17.260  11.880   1.540
54218W        W26643  27.925   5.090   1.118
54219W        W26644  18.855  29.488   0.218
54220W        W26645  38.454  29.950   1.811
54221W        W26646   7.393  14.362   4.283
54222W        W26647  44.773  36.141   1.377
54223W        W26648  31.001  35.624  14.941
54224W        W26649  29.218  16.533   3.274
54225W        W26650  31.681  43.908   1.284
54226W        W26651  35.985  18.519  14.468
54227W        W26652  37.086  36.001  12.942
54228W        W26653   5.081  27.934  10.020
54229W        W26654  28.488  26.752   1.222
54230W        W26655  21.629   7.507   3.271
54231W        W26656  20.293   7.321  10.697
54232W        W26657  20.005  30.528  13.422
54233W        W26658  14.508  10.107   4.278
54234W        W26659   6.487   7.237   3.118
54235W        W26660   3.962  30.331   4.551
54236W        W26661  34.420  32.245  12.063
54237W        W26662  30.800  37.945   4.141
54238W        W26663   6.365  38.105  14.798
54239W        W26664  38.373  43.961   0.995
54240W        W26665   1.239  17.010  13.396
54241W        W26666   1.689  19.589  11.553
54242W        W26667  41.565  24.071  12.899
54243W        W26668  26.574  38.812   4.865
54244W        W26669   0.575  26.981   0.697
54245W        W26670   8.409  16.671  13.335
54246W        W26671  28.546  18.135   3.357
54247W        W26672   3.808  22.488   1.289
54248W        W26673  42.808  24.448   2.185
54249W        W26674   3.251  30.173   4.085
54250W        W26675  34.253  38.417   2.747
54251W        W26676   9.166  33.137  14.823
54252W        W26677  27.891  38.719  13.313
54253W        W26678  16.126  15.739   1.412
54254W        W26679  10.838  41.872  11.068
54255W        W26680  23.182  37.474   0.073
54256W        W26681   7.103  14.629   2.207
54257W        W26682  20.996  12.600   2.284
54258W        W26683   6.635  44.974   2.367
54259W        W26684  37.770  24.214   1.842
54260W        W26685  39.941  28.097   4.305
54261W        W26686  39.968  37.541   1.421
54262W        W26687  31.636   5.213   1.861
54263W        W26688  16.386  32.502  13.201
54264W        W26689  12.692   1.836   3.204
54265W        W26690  24.520  11.485  11.669
54266W        W26691  11.653   8.149  11.077
54267W        W26692  21.818  26.663  10.682
54268W        W26693  42.208  12.057  11.083
54269W        W26694  43.435  24.431   2.864
54270W        W26695  31.680   4.810  13.530
54271W        W26696  35.268  16.112   5.017
54272W        W26697  37.536  38.494   3.340
54273W        W26698  38.694  15.641   2.747
54274W        W26699  15.242  40.747   0.932
54275W        W26700  19.917  30.774   1.697
54276W        W26701  40.947  26.973   0.796
54277W        W26702   3.742  31.435  12.432
54278W        W26703   0.670  34.411  10.399
54279W        W26704  10.756   1.904  14.331
54280W        W26705  20.115  16.269   3.170
54281W        W26706  44.473  16.330  13.319
54282W        W26707  21.992   1.627   4.120
54283W        W26708  30.911   3.262  12.969
54284W        W26709  30.985  43.101  13.865
54285W        W26710   9.607  37.617  13.992
54286W        W26711  25.274  41.415   0.959
54287W        W26712  17.324  32.072  13.156
54288W        W26713  43.198  35.802   5.041
54289W        W26714  16.544  19.341   0.308
54290W        W26715  31.040  43.711   3.738
54291W        W26716  27.478  20.517  11.059
54292W        W26717  18.581  39.386  13.058
54293W        W26718  34.127  13.261   3.144
54294W        W26719  27.984   5.729   1.717
54295W        W26720  12.066  17.301  11.521
54296W        W26721  24.510  38.024   0.902
54297W        W26722   9.668   0.187   0.475
54298W        W26723  11.561  15.791   4.663
54299W        W26724   3.031  32.745   2.729
54300W        W26725  10.646  32.949  12.228
54301W        W26726   0.384  44.862  11.486
54302W        W26727  30.370   7.264  11.187
54303W        W26728  33.128  29.691  12.459
54304W        W26729  20.696   6.996   4.983
54305W        W26730  35.868  25.185  11.201
54306W        W26731   5.163  37.609  13.328
54307W        W26732  34.892  12.344  12.820
54308W        W26733  42.367  27.282   2.220
54309W        W26734  25.231   8.717  13.365
54310W        W26735  25.657  44.320  12.878
54311W        W26736  33.063  16.080   4.106
54312W        W26737  36.444  10.685   3.263
54313W        W26738  20.234  27.835   3.797
54314W        W26739  28.567   1.936   1.372
54315W        W26740  23.231  24.665   4.046
54316W        W26741   4.191  35.032   4.178
54317W        W26742  41.068  34.754  13.300
54318W        W26743  36.062  14.881  13.424
54319W        W26744  16.084  44.443  13.334
54320W        W26745  25.678   8.475  11.278
54321W        W26746  37.139  42.998  14.106
54322W        W26747  12.617  42.522   0.443
54323W        W26748  22.738  43.250  12.612
54324W        W26749  38.465  26.472  12.053
54325W        W26750  27.631  31.832  14.561
54326W        W26751  16.194  12.859   3.838
54327W        W26752  17.234  35.600   9.952
54328W        W26753  44.533  16.032  12.886
54329W        W26754  35.800  23.587  11.415
54330W        W26755  35.918  39.899  14.594
54331W        W26756  17.033   1.936  13.789
54332W        W26757  41.047  35.288  13.345
54333W        W26758  12.400  12.034  11.182
54334W        W26759  33.509  42.315   4.446
54335W        W26760  43.569  14.634  12.339
54336W        W26761  12.089  26.872  13.003
54337W        W26762  24.470  11.666  10.033
54338W        W26763  32.388  43.218   1.932
54339W        W26764   2.063  15.464  14.445
54340W        W26765   4.493   1.701  10.217
54341W        W26766  23.458  26.682  10.447
54342W        W26767  34.717   9.790   4.560
54343W        W26768  14.921  28.965   2.793
54344W        W26769  33.637  13.029  13.789
54345W        W26770  41.367  33.203   0.966
54346W        W26771  18.579   3.263  12.596
54347W        W26772  20.839   7.795  14.467
54348W        W26773  24.674  35.489  12.490
54349W        W26774  22.201  30.471   4.547
54350W        W26775  44.344  20.857   1.336
54351W        W26776  30.227  28.898   3.752
54352W        W26777  10.633  34.351   5.079
54353W        W26778  12.862  15.510  13.897
54354W        W26779  10.007  36.785   3.692
54355W        W26780  33.973  39.151   1.242
54356W        W26781   8.221  22.560  10.677
54357W        W26782   7.696  11.684   0.857
54358W        W26783  29.618  10.937   0.019
54359W        W26784   7.252   4.320  11.669
54360W        W26785  35.887   3.732   4.102
54361W        W26786  34.885  15.688  10.648
54362W        W26787   5.655  29.188   4.584
54363W        W26788  43.440   2.826   0.401
54364W        W26789  26.747  26.670  11.864
54365W        W26790  17.828  15.579  10.986
54366W        W26791  40.509   7.734  13.840
54367W        W26792   8.337  15.853   2.387
54368W        W26793   9.799  11.284   1.201
54369W        W26794   2.230  36.920  14.377
54370W        W26795  32.414  37.805   2.900
54371W        W26796   0.204  33.608   4.129
54372W        W26797  27.111  23.895  13.859
54373W        W26798   4.667  36.829   2.101
54374W        W26799  15.365  40.560   2.265
54375W        W26800  21.535  36.026   4.209
54376W        W26801  40.738  39.775  13.106
54377W        W26802  15.259   6.276  14.324
54378W        W26803  34.062  19.999  12.234
54379W        W26804  11.187  23.672   3.136
54380W        W26805  23.458  15.183   3.619
54381W        W26806  18.151  44.329  13.425
54382W        W26807  24.355  44.466   3.735
54383W        W26808   8.488  21.171  11.562
54384W        W26809   1.062  31.038  12.978
54385W        W26810  31.468  35.845   0.691
54386W        W26811  27.160  39.531  10.944
54387W        W26812  33.317  23.574   3.839
54388W        W26813  36.095  22.149  13.478
54389W        W26814   1.378  16.126   2.675
54390W        W26815  43.432  27.248  10.391
54391W        W26816  22.345   9.783   4.708
54392W        W26817   3.585  26.565   2.305
54393W        W26818  15.626  14.269  12.603
54394W        W26819  11.361  18.331   1.886
54395W        W26820   1.849  41.129   0.551
54396W        W26821  23.793  18.757   0.955
54397W        W26822  20.339  14.552   2.761
54398W        W26823  25.218  19.089   1.921
54399W        W26824   2.705   1.782   0.232
54400W        W26825  44.431  37.184   4.829
54401W        W26826  29.564  10.068   3.205
54402W        W26827  40.467  35.526  11.683
54403W        W26828  27.140  24.691  12.343
54404W        W26829  25.827  19.487  11.754
54405W        W26830  24.104  14.650   1.599
54406W        W26831  44.426  20.357  12.589
54407W        W26832  10.202  10.772   4.227
54408W        W26833  42.856   3.317  14.856
54409W        W26834  16.068  24.606  11.713
54410W        W26835  30.000  36.339  13.985
54411W        W26836  43.756  22.356  14.582
54412W        W26837  40.016  32.065  11.374
54413W        W26838   9.568  28.667  13.245
54414W        W26839  25.322  41.214  13.068
54415W        W26840  28.189  42.070   1.468
54416W        W26841   8.105  31.005  13.324
54417W        W26842  44.424  38.869  11.068
54418W        W26843  37.288  19.873   5.042
54419W        W26844   5.646  33.458  14.378
54420W        W26845  33.582  15.371  14.845
54421W        W26846  12.292   0.499  12.874
54422W        W26847  34.653  14.678  12.460
54423W        W26848  18.050   9.780  12.158
54424W        W26849  28.717  44.722  11.716
54425W        W26850  11.098  38.369  14.668
54426W        W26851  31.726  44.384   1.807
54427W        W26852   6.219  22.930   2.663
54428W        W26853  16.018  25.592  12.938
54429W        W26854   1.871  18.398   0.259
54430W        W26855  35.855  28.999  11.096
54431W        W26856  16.263  39.483   4.181
54432W        W26857  12.125  38.414  11.144
54433W        W26858  36.591  29.974  14.568
54434W        W26859  44.794  37.347  10.720
54435W        W26860  39.414  20.280  14.063
54436W        W26861  36.741  22.448  12.887
54437W        W26862   2.325  29.059  12.911
54438W        W26863   7.827   2.829   1.298
54439W        W26864   4.653  33.502  11.601
54440W        W26865   0.436  18.290  13.769
54441W        W26866   4.733  36.149   2.781
54442W        W26867  25.076   4.671   1.874
54443W        W26868  23.972  35.008  12.514
54444W        W26869  19.427   0.828  14.883
54445W        W26870  22.041  15.614   4.523
54446W        W26871  22.601  18.187   4.125
54447W        W26872  14.739   2.226  12.536
54448W        W26873   1.691   3.484  13.492
54449W        W26874  15.770   5.519  14.075
54450W        W26875  32.504  39.816  12.080
54451W        W26876  26.423  28.286   2.790
54452W        W26877  18.709  15.552  11.259
54453W        W26878  23.839  21.722   0.886
54454W        W26879  39.634  31.900  10.584
54455W        W26880   3.218  33.858  13.068
54456W        W26881  34.210  33.080  14.349
54457W        W26882  13.782  16.454   4.154
54458W        W26883  32.487  31.185   2.328
54459W        W26884   1.107  40.039  11.554
54460W        W26885   9.117   7.299  12.046
54461W        W26886  41.377  32.426  13.913
54462W        W26887  30.461  12.074  13.750
54463W        W26888  15.040  13.360  11.608
54464W        W26889  30.235  38.470  14.091
54465W        W26890  22.088  24.581   4.678
54466W        W26891  37.315   0.753   3.035
54467W        W26892   9.786   4.495  14.010
54468W        W26893   6.314  41.228  14.798
54469W        W26894  29.510   7.946  11.568
54470W        W26895  37.502   4.726  11.852
54471W        W26896  32.702  13.198  11.647
54472W        W26897   6.373  40.720   0.842
54473W        W26898  19.235  30.205  14.119
54474W        W26899  13.667  27.669  13.632
54475W        W26900  35.395  32.297   0.339
54476W        W26901   7.220  13.760  12.702
54477W        W26902  24.574  44.565  12.610
54478W        W26903  35.555  33.548  14.243
54479W        W26904  27.986   6.493   4.209
54480W        W26905  19.193  25.023  13.612
54481W        W26906  43.380  39.076   4.517
54482W        W26907  43.355  33.353  14.701
54483W        W26908  26.748   1.838   4.975
54484W        W26909  36.827  11.426  13.059
54485W        W26910  21.238  25.847  12.011
54486W        W26911   3.531  29.612   0.354
54487W        W26912  38.579  22.914   1.730
54488W        W26913   6.889   5.270  11.078
54489W        W26914  32.791  26.488  11.937
54490W        W26915   5.318  35.436   4.820
54491W        W26916  22.022  19.589  10.723
54492W        W26917  34.783   1.987   4.712
54493W        W26918  24.381  22.695   0.764
54494W        W26919  43.900  24.440  10.719
54495W        W26920   0.442  43.462   1.730
54496W        W26921  22.345  41.775   3.682
54497W        W26922  13.418   1.934  12.536
54498W        W26923  17.935  28.546  10.628
54499W        W26924   2.121  21.551  13.040
54500W        W26925   6.011  36.865  14.438
54501W        W26926  44.382  22.303   2.841
54502W        W26927  25.508  22.003  13.385
54503W        W26928  32.180  43.018  12.024
54504W        W26929  39.943  32.896  14.390
54505W        W26930  16.794  20.721   1.912
54506W        W26931  30.148   9.159  12.695
54507W        W26932  37.856  24.285   4.053
54508W        W26933  23.750  21.037  12.929
54509W        W26934  22.339  16.543  13.430
54510W        W26935  26.218  36.959   1.791
54511W        W26936  21.773  36.459  12.880
54512W        W26937  22.706  28.937  11.166
54513W        W26938  26.051  28.409   4.183
54514W        W26939  26.934   0.250  13.693
54515W        W26940  14.839   8.751  13.898
54516W        W26941  30.029   5.842   3.152
54517W        W26942  20.944  13.342  11.432
54518W        W26943   7.140  13.673   4.078
54519W        W26944  31.290  39.902  10.581
54520W        W26945  19.079   5.022  10.481
54521W        W26946   0.789  31.144   4.790
54522W        W26947   1.238   9.878   0.899
54523W        W26948  35.662  16.654  10.809
54524W        W26949  27.262   8.861   0.403
54525W        W26950  35.827  38.121  14.528
54526W        W26951  44.844  28.390  13.869
54527W        W26952  41.577   5.909  13.554
54528W        W26953  35.879   9.832  13.080
54529W        W26954  39.976   2.876   0.883
54530W        W26955   5.844  36.872   3.213
54531W        W26956  43.060  37.388  11.575
54532W        W26957  39.453  16.892   2.259
54533W        W26958  16.690  39.548  13.835
54534W        W26959  16.628  11.304  10.989
54535W        W26960   4.217  14.079   3.260
54536W        W26961  24.735  37.637  14.803
54537W        W26962  16.594  21.998  14.912
54538W        W26963  12.772  14.490   4.074
54539W        W26964   3.448  26.147   4.133
54540W        W26965  42.314  10.759   3.864
54541W        W26966   5.893  38.805   1.898
54542W        W26967  19.561   9.597  12.952
54543W        W26968  42.223  20.677   2.244
54544W        W26969  20.370  11.642  11.111
54545W        W26970   6.730  15.352   2.895
54546W        W26971  26.856  10.211   2.177
54547W        W26972   6.510  15.182  13.058
54548W        W26973  43.827  43.742  13.055
54549W        W26974  24.997  36.513   0.782
54550W        W26975  34.134   9.630  13.463
54551W        W26976  30.152  39.597  11.414
54552W        W26977  38.502  32.111   1.660
54553W        W26978   5.229  27.875   0.852
54554W        W26979   3.725   8.366  14.952
54555W        W26980  16.978  44.767  12.608
54556W        W26981  23.651   9.611  14.866
54557W        W26982  12.425  36.571   0.425
54558W        W26983   9.889  30.147  10.698
54559W        W26984  17.768  33.158   5.590
54560W        W26985  40.161  25.124  13.902
54561W        W26986  39.436   3.375   0.086
54562W        W26987  18.480  20.103   2.399
54563W        W26988  35.384  36.029   1.634
54564W        W26989   2.164  34.660   2.141
54565W        W26990   4.982  31.367   3.879
54566W        W26991  32.468  21.022  10.255
54567W        W26992  18.821  21.876   3.271
54568W        W26993  34.373  16.349  11.158
54569W        W26994  43.935  11.132  13.049
54570W        W26995   5.458  43.988   2.204
54571W        W26996   0.042   5.008  11.021
54572W        W26997   4.501  17.550  11.181
54573W        W26998  37.488  34.425  11.155
54574W        W26999  34.903  36.260  12.805
54575W        W27000   7.971  38.427  12.148
54576W        W27001   1.400   0.004   1.006
54577W        W27002  44.406  16.045   2.202
54578W        W27003  43.036  37.370   0.876
54579W        W27004  40.777  19.609   2.259
54580W        W27005  38.592  13.163   4.164
54581W        W27006  36.989  36.379   2.779
54582W        W27007  26.281  26.694   3.914
54583W        W27008  43.966   4.542   3.593
54584W        W27009   2.483  27.584  10.938
54585W        W27010  28.248  22.692  10.656
54586W        W27011  34.988  30.601   1.051
54587W        W27012  41.992  25.539  14.853
54588W        W27013   0.101   2.417  11.865
54589W        W27014  34.196  21.095   0.030
54590W        W27015   8.227  27.877  10.523
54591W        W27016  39.971  27.219  11.489
54592W        W27017  14.067  32.427   2.979
54593W        W27018  37.990  44.924  11.755
54594W        W27019   8.720  20.602   1.415
54595W        W27020  42.461  37.153  10.735
54596W        W27021  42.003   8.442  11.685
54597W        W27022  38.720  33.114   4.616
54598W        W27023   6.766  11.747  12.459
54599W        W27024  21.551  27.480   1.432
54600W        W27025  22.565  30.172  10.567
54601W        W27026  44.808  25.188   1.940
54602W        W27027  42.678  20.338  14.437
54603W        W27028  22.285  40.230  13.241
54604W        W27029  19.507   9.828   4.126
54605W        W27030  36.418  22.851  12.962
54606W        W27031   3.800  16.768   1.924
54607W        W27032  33.938   9.678   3.404
54608W        W27033   8.253  15.499  14.465
54609W        W27034   2.879  38.275   0.438
54610W        W27035   6.172  22.423  10.022
54611W        W27036  26.674  44.880   5.141
54612W        W27037   0.274   9.861   3.716
54613W        W27038  39.966  26.941   3.742
54614W        W27039  34.702   3.862  14.523
54615W        W27040   7.822  39.955  11.961
54616W        W27041  30.155   8.188  13.146
54617W        W27042  36.449  21.468  10.642
54618W        W27043   9.285  12.890  14.005
54619W        W27044  13.236  43.789   2.204
54620W        W27045  38.841  33.037   0.779
54621W        W27046  37.841  19.588   3.694
54622W        W27047  26.552  28.422  11.421
54623W        W27048  35.958   7.341   1.552
54624W        W27049  37.625  41.903   3.875
54625W        W27050  15.080  27.688   3.858
54626W        W27051  29.947   2.234   3.635
54627W        W27052  30.161  39.119  11.662
54628W        W27053   3.287  19.735  11.179
54629W        W27054   4.402   9.121   1.770
54630W        W27055  27.701  17.198   2.792
54631W        W27056  41.199  17.032   0.764
54632W        W27057  19.958  34.844  14.856
54633W        W27058  42.771  19.823   4.048
54634W        W27059  11.865  26.959   1.898
54635W        W27060  33.053  24.184   2.235
54636W        W27061   4.000   8.620   4.150
54637W        W27062  25.481  39.551   0.760
54638W        W27063  41.430  23.167  12.918
54639W        W27064   9.348  25.115  12.185
54640W        W27065  31.226  40.019  14.523
54641W        W27066  18.063   9.188  12.432
54642W        W27067   4.314   0.824  12.317
54643W        W27068  21.802  20.963   4.202
54644W        W27069  34.280  26.065   0.263
54645W        W27070  18.184  25.194   3.240
54646W        W27071  43.417  17.601  10.724
54647W        W27072   1.959  22.520  11.389
54648W        W27073   5.150  29.857   1.918
54649W        W27074  12.614  21.195   2.167
54650W        W27075   9.846  16.341   0.381
54651W        W27076  17.076  35.591  13.043
54652W        W27077  18.927  30.376  11.406
54653W        W27078  34.900  44.701  13.973
54654W        W27079  32.873   6.274   1.590
54655W        W27080   2.016  30.062   4.995
54656W        W27081  32.441  29.222   3.609
54657W        W27082  27.812  35.518   1.594
54658W        W27083  44.396  30.011   3.136
54659W        W27084  11.141  18.758  12.201
54660W        W27085  22.259  34.181  11.433
54661W        W27086  11.376  34.566  14.066
54662W        W27087   9.336  17.057   1.324
54663W        W27088  17.139  17.029   1.949
54664W        W27089  39.868  40.560   0.446
54665W        W27090  41.831  13.118   1.352
54666W        W27091  32.706  36.000  11.766
54667W        W27092   2.415  17.622  14.138
54668W        W27093  13.773  20.273  11.585
54669W        W27094  15.737   7.500   4.274
54670W        W27095  11.295   2.858   3.586
54671W        W27096   9.459  20.672  14.022
54672W        W27097  38.804  30.074   4.880
54673W        W27098  25.658  19.719   3.186
54674W        W27099  15.719  38.994   1.014
54675W        W27100  34.880  43.723   4.665
54676W        W27101  32.616  23.717   0.247
54677W        W27102  27.548  26.766   4.542
54678W        W27103  11.340  36.263  13.275
54679W        W27104   1.456  26.304  13.873
54680W        W27105  32.021  39.614  11.977
54681W        W27106  12.675  41.529  14.321
54682W        W27107  23.256  13.957  11.087
54683W        W27108  37.551  11.799   1.770
54684W        W27109  39.052  15.822  12.189
54685W        W27110   1.827  22.653  11.875
54686W        W27111   5.867  41.382  13.738
54687W        W27112  38.134  28.706   3.106
54688W        W27113  23.028  41.840  14.919
54689W        W27114  24.127  10.269  10.632
54690W        W27115  27.849  10.760   4.636
54691W        W27116  12.453   2.685   4.997
54692W        W27117  28.864  29.523   2.584
54693W        W27118  35.165  32.349   2.878
54694W        W27119  32.595   1.192  10.970
54695W        W27120  33.602  10.056   3.265
54696W        W27121   4.504  34.034   1.868
54697W        W27122  16.621  21.287   2.757
54698W        W27123  24.137  33.151   4.613
54699W        W27124   5.722  12.197  11.571
54700W        W27125  23.688  18.166  14.328
54701W        W27126  17.640  16.604  11.961
54702W        W27127  25.476  23.643  12.820
54703W        W27128  39.026   4.633   2.052
54704W        W27129  14.173  19.315   2.850
54705W        W27130  41.841   1.222   1.703
54706W        W27131   7.777  26.554  13.935
54707W        W27132  42.267  16.467   1.845
54708W        W27133  11.184   6.753  13.791
54709W        W27134  29.522  19.604   3.129
54710W        W27135  21.211  11.229   0.209
54711W        W27136   5.322  37.965  12.939
54712W        W27137  35.322   1.263   0.861
54713W        W27138  25.518  20.906  11.167
54714W        W27139  34.028   3.757  14.729
54715W        W27140  34.987  40.721  13.146
54716W        W27141   3.812  20.501   1.253
54717W        W27142   5.408   8.080   1.296
54718W        W27143  39.542  22.680   3.304
54719W        W27144  18.658  11.835   3.259
54720W        W27145  39.724  22.177   2.241
54721W        W27146  16.218   5.698   3.201
54722W        W27147   0.456   6.896  12.947
54723W        W27148   5.901  24.307  14.379
54724W        W27149  10.124  17.113   2.700
54725W        W27150   6.643  10.246  14.723
54726W        W27151  30.476  23.963  14.785
54727W        W27152  19.671   3.544   4.114
54728W        W27153   7.111  32.021  10.958
54729W        W27154   9.311   0.419  10.998
54730W        W27155  19.931  34.016   0.840
54731W        W27156  28.280   9.798  13.754
54732W        W27157  22.085  14.697   4.577
54733W        W27158   4.836  25.049  11.755
54734W        W27159  33.498  43.019   4.752
54735W        W27160  11.244  31.944   3.346
54736W        W27161  13.854  30.552  13.504
54737W        W27162  44.260  20.296   3.720
54738W        W27163  13.629  31.210   4.102
54739W        W27164  12.879  26.401  14.934
54740W        W27165  23.009  15.617   3.638
54741W        W27166  28.460  27.426  11.214
54742W        W27167  30.500  22.004   2.848
54743W        W27168   1.998   6.232   0.700
54744W        W27169   1.419  35.839   1.445
54745W        W27170  14.041   6.189  14.689
54746W        W27171   0.506  10.682   3.242
54747W        W27172   1.659   1.773  13.044
54748W        W27173  34.527  33.986  12.658
54749W        W27174   6.601  29.166  11.664
54750W        W27175  37.054  10.799  14.473
54751W        W27176  31.627  17.096  14.376
54752W        W27177  20.419  20.897  14.068
54753W        W27178  26.681  26.611   0.221
54754W        W27179   5.296  37.368   2.748
54755W        W27180  34.112  42.273   4.834
54756W        W27181  26.943   3.237  11.467
54757W        W27182  36.724  26.738  13.863
54758W        W27183  39.772  41.455   0.215
54759W        W27184  16.972  15.956   9.966
54760W        W27185   9.261  35.736   3.276
54761W        W27186  20.770  26.341  12.423
54762W        W27187  34.615  33.384   1.014
54763W        W27188   4.932  27.573  12.124
54764W        W27189   2.768  33.015   2.387
54765W        W27190  44.837  15.182   2.472
54766W        W27191  14.383  33.544  13.303
54767W        W27192  15.241  17.620  13.012
54768W        W27193  10.392   2.502  12.863
54769W        W27194  34.020  29.561  14.320
54770W        W27195  36.644  22.791  14.234
54771W        W27196  41.702  37.974  12.526
54772W        W27197   5.226  44.709   4.704
54773W        W27198   2.515  33.995   4.134
54774W        W27199  25.612  23.751   0.890
54775W        W27200  21.197  11.014   4.216
54776W        W27201   9.663  35.661   0.503
54777W        W27202   5.218  38.775  14.975
54778W        W27203   8.262  10.259   0.378
54779W        W27204  10.752  12.358   2.806
54780W        W27205  30.992  11.380   2.679
54781W        W27206  12.219  30.873  13.777
54782W        W27207  37.502  41.961  10.676
54783W        W27208  23.239  22.709   2.780
54784W        W27209  21.566  38.128   3.089
54785W        W27210   0.612  10.062   0.098
54786W        W27211  14.822  30.695  11.584
54787W        W27212  35.509  10.488  10.494
54788W        W27213  34.001  27.161   2.365
54789W        W27214   1.196   7.984   2.656
54790W        W27215  25.297  13.942   4.884
54791W        W27216  40.069  24.099   4.828
54792W        W27217  38.021  18.144   2.313
54793W        W27218  43.837  44.927  12.379
54794W        W27219  15.337  39.308   4.550
54795W        W27220  27.025  16.316  10.653
54796W        W27221  30.642  24.471   2.357
54797W        W27222   2.915   5.429  12.412
54798W        W27223  32.570  12.664   1.415
54799W        W27224  15.589  22.331   2.832
54800W        W27225  42.234  38.933   1.410
54801W        W27226   5.733   8.914   2.904
54802W        W27227  17.898  26.207   3.754
54803W        W27228   4.818  27.036   2.735
54804W        W27229  21.637  35.545  13.325
54805W        W27230   1.259   6.865   2.762
54806W        W27231  21.758  42.133  12.318
54807W        W27232  13.333  12.363   2.900
54808W        W27233  22.758  41.343   2.476
54809W        W27234  35.934  24.193  12.992
54810W        W27235   1.544  40.301   0.520
54811W        W27236  34.199  27.616  11.579
54812W        W27237  17.134   3.741   2.623
54813W        W27238  43.116   4.112   4.126
54814W        W27239  34.519  27.875  12.513
54815W        W27240  18.061  17.243  14.063
54816W        W27241  12.025  44.049   2.013
54817W        W27242  40.077  34.322  12.057
54818W        W27243  44.959   9.245   0.018
54819W        W27244  44.399  40.385  14.969
54820W        W27245  26.675   4.703  13.035
54821W        W27246   8.953   7.720  12.894
54822W        W27247   2.873  40.886  14.331
54823W        W27248  41.136   7.468   2.707
54824W        W27249   3.860  25.401   4.166
54825W        W27250  18.507  30.416  10.654
54826W        W27251  40.292  16.778  10.838
54827W        W27252  35.371  20.267   2.700
54828W        W27253  18.838  39.564  12.213
54829W        W27254  38.096   9.731   5.005
54830W        W27255  32.419   2.387   0.943
54831W        W27256  39.518  10.213   4.068
54832W        W27257  19.006  38.274  13.824
54833W        W27258  40.303  10.608  12.622
54834W        W27259   2.281  17.181   0.287
54835W        W27260  14.081  24.525   2.373
54836W        W27261   9.978  37.016   2.388
54837W        W27262   3.860  36.531  12.771
54838W        W27263  44.948  25.653   0.289
54839W        W27264  14.319   5.815   4.215
54840W        W27265  34.146   7.846  11.890
54841W        W27266  20.562  25.869  14.793
54842W        W27267  31.056  42.382   1.970
54843W        W27268  39.069  36.025  13.847
54844W        W27269  17.781  17.992  14.205
54845W        W27270  12.278   4.084   1.261
54846W        W27271  34.775  29.674  12.115
54847W        W27272  35.810  38.913  14.526
54848W        W27273   3.772   5.857   2.688
54849W        W27274  14.582  15.173   0.952
54850W        W27275   7.446  24.052  13.510
54851W        W27276  13.880  38.075   0.404
54852W        W27277   6.682  15.663  12.522
54853W        W27278   4.548  26.521  11.122
54854W        W27279  34.955   3.429  12.887
54855W        W27280  33.421  37.924  12.582
54856W        W27281   1.361  20.583   2.791
54857W        W27282  14.822  15.209  14.349
54858W        W27283  13.790  26.196   2.876
54859W        W27284   7.148  17.290   4.080
54860W        W27285   3.783  26.538  11.523
54861W        W27286  44.445  38.402   0.446
54862W        W27287  29.009   9.925   0.408
54863W        W27288   5.947  26.708  11.581
54864W        W27289  22.318  32.907   1.338
54865W        W27290  32.318  17.236   1.396
54866W        W27291   5.787  35.977  11.572
54867W        W27292  26.543  35.877   0.287
54868W        W27293  17.105  40.947   2.904
54869W        W27294   6.178  21.545   5.007
54870W        W27295  35.527  34.401   4.343
54871W        W27296   0.260  11.332   1.804
54872W        W27297  40.495  27.110  12.982
54873W        W27298   7.128  36.045  14.564
54874W        W27299  36.734  37.623   3.691
54875W        W27300  28.207  34.963  12.050
54876W        W27301  24.120   1.247   2.778
54877W        W27302   0.480  32.848   1.314
54878W        W27303  12.459  12.800   0.880
54879W        W27304  28.198  15.857   0.560
54880W        W27305  30.516   5.148  12.836
54881W        W27306  18.044  34.069   1.012
54882W        W27307  33.881  21.545   3.259
54883W        W27308  21.606   6.902   2.304
54884W        W27309  29.479  31.055   0.002
54885W        W27310  13.294  37.781   4.744
54886W        W27311  13.695   1.009  11.169
54887W        W27312  18.269  21.863  13.344
54888W        W27313  31.730  37.551   4.089
54889W        W27314  29.679  30.914  14.513
54890W        W27315  18.647   6.598  11.584
54891W        W27316   4.924  41.353   0.701
54892W        W27317  21.282  40.863   2.212
54893W        W27318  16.673  27.699  12.629
54894W        W27319  19.059   7.665  13.422
54895W        W27320   1.187  44.772  13.004
54896W        W27321   2.760  24.781   2.769
54897W        W27322  13.706   7.857   1.918
54898W        W27323  16.317  16.765   0.846
54899W        W27324  24.996  23.829  12.055
54900W        W27325  28.231  27.444  11.945
54901W        W27326  41.091  38.521   1.173
54902W        W27327  38.679  24.669   1.321
54903W        W27328  10.070  41.937  11.508
54904W        W27329  11.822  17.294  10.306
54905W        W27330  27.392  42.380   1.853
54906W        W27331   8.666   0.834   2.306
54907W        W27332  28.207  43.781  11.401
54908W        W27333  39.407  34.642   4.154
54909W        W27334  33.669  12.568   0.573
54910W        W27335   7.964   1.421  12.514
54911W        W27336   9.286   5.662  14.323
54912W        W27337  23.175  39.893   1.963
54913W        W27338   7.332  30.745   1.312
54914W        W27339   7.422  27.563   2.297
54915W        W27340   4.720  30.364  11.984
54916W        W27341   3.913   6.300   2.173
54917W        W27342   6.892  12.746  13.581
54918W        W27343  18.662  36.517  12.195
54919W        W27344  34.922   9.108  12.571
54920W        W27345  15.788   3.687   3.381
54921W        W27346  42.569  18.099   1.290
54922W        W27347  24.643  33.497  10.234
54923W        W27348   8.127  42.687   2.351
54924W        W27349  29.549  24.563  14.816
54925W        W27350  20.101   4.727  10.499
54926W        W27351  32.126  15.942   1.563
54927W        W27352  39.881  22.612  11.880
54928W        W27353  24.445  21.982   0.133
54929W        W27354  29.528  21.689  11.086
54930W        W27355  14.594  15.924  12.236
54931W        W27356   8.789  15.019  10.668
54932W        W27357  29.250  41.061  12.945
54933W        W27358   9.385  39.785   2.866
54934W        W27359  11.107  33.549   1.773
54935W        W27360  29.532  25.014  14.534
54936W        W27361   3.371  30.473  14.604
54937W        W27362   0.790  24.388  10.681
54938W        W27363  42.480  37.942  11.172
54939W        W27364  26.678  23.084   2.935
54940W        W27365  21.228  43.947   2.167
54941W        W27366  12.274  14.667  13.164
54942W        W27367  39.030  24.440   3.358
54943W        W27368  18.826  28.750  11.983
54944W        W27369  18.519  19.339  11.527
54945W        W27370  40.339  15.200  12.088
54946W        W27371  37.399   7.823   3.515
54947W        W27372  42.744  38.381   1.530
54948W        W27373  21.979   1.802   1.314
54949W        W27374  40.069  14.061  10.924
54950W        W27375  10.099  17.174   1.757
54951W        W27376  32.955  30.300  11.098
54952W        W27377  43.802  27.561   1.336
54953W        W27378  18.393  18.243  11.538
54954W        W27379  33.920  41.540  12.899
54955W        W27380  18.878   9.251  12.054
54956W        W27381   7.854  33.685  12.936
54957W        W27382  36.560  10.585  10.687
54958W        W27383   9.263  14.222  12.940
54959W        W27384  29.979  19.749   3.921
54960W        W27385  44.574  27.975   3.208
54961W        W27386  11.641  18.110  10.798
54962W        W27387   0.475  42.789   0.921
54963W        W27388   5.249   4.936  12.146
54964W        W27389  24.183  14.151   1.379
54965W        W27390  21.111  36.363  12.024
54966W        W27391  33.599  12.226   3.139
54967W        W27392   5.468  25.608  10.714
54968W        W27393  43.596  38.171  13.990
54969W        W27394  40.436  12.237  10.698
54970W        W27395  15.612   8.396   2.379
54971W        W27396   6.248  37.561   0.828
54972W        W27397  33.000  12.667  14.080
54973W        W27398  22.034  14.758   0.731
54974W        W27399   5.837  28.974   4.139
54975W        W27400  15.184  24.022   4.372
54976W        W27401   1.077  17.214  10.574
54977W        W27402  18.775   8.882   0.709
54978W        W27403  33.581  27.420   2.232
54979W        W27404  12.706  25.708  13.922
54980W        W27405  11.617  32.985  12.290
54981W        W27406  36.629  28.488   3.174
54982W        W27407  17.771  10.093   1.324
54983W        W27408   8.255  10.815  12.969
54984W        W27409  16.781  36.009  13.869
54985W        W27410  18.204  12.187  12.832
54986W        W27411  17.912  19.569  13.510
54987W        W27412  42.445  24.118   1.533
54988W        W27413  16.242   8.739   9.934
54989W        W27414  38.969  44.002   1.687
54990W        W27415   3.198  31.783  13.908
54991W        W27416  25.691   0.350  14.424
54992W        W27417  10.959  43.493  14.276
54993W        W27418  15.600   7.619  13.551
54994W        W27419  19.054  33.149   2.937
54995W        W27420  26.971  17.724   3.688
54996W        W27421  17.025   5.459   3.449
54997W        W27422   6.155  14.683  11.497
54998W        W27423  11.619  30.458  10.656
54999W        W27424   7.422   8.510   3.062
55000W        W27425  43.135  44.869  14.048
55001W        W27426  39.309  28.404   1.454
55002W        W27427  22.735   9.583  12.483
55003W        W27428   4.004  22.301  11.617
55004W        W27429  21.015  11.958  14.886
55005W        W27430  38.443   7.630  10.761
55006W        W27431  17.704  24.285   0.864
55007W        W27432  25.663  23.142  12.921
55008W        W27433  19.087  30.536  11.870
55009W        W27434   3.899  23.997   1.437
55010W        W27435  16.130  33.551   0.975
55011W        W27436  37.952  10.244  14.517
55012W        W27437  30.496  39.247  11.286
55013W        W27438   8.793   1.468  14.862
55014W        W27439  15.914  43.889  10.664
55015W        W27440   4.209  29.408  11.583
55016W        W27441  23.256  43.624   2.725
55017W        W27442  20.117  15.033  12.319
55018W        W27443   7.867  10.608  14.363
55019W        W27444  18.333  28.200  13.698
55020W        W27445  44.440   3.881   1.384
55021W        W27446  10.585  26.981   0.001
55022W        W27447  11.988  27.309  14.448
55023W        W27448  40.299   8.315  12.029
55024W        W27449  34.152   6.312   0.877
55025W        W27450  29.604  40.883   5.503
55026W        W27451   9.234  43.959   1.319
55027W        W27452   5.160  39.330   0.876
55028W        W27453  20.674  23.440  12.587
55029W        W27454  42.848  39.139  11.629
55030W        W27455  35.032  11.726  10.656
55031W        W27456  25.419  25.091  12.492
55032W        W27457  20.971  36.858  12.167
55033W        W27458   6.828   2.072   4.093
55034W        W27459  43.016  40.518  11.247
55035W        W27460  17.042  40.523   5.010
55036W        W27461  32.869  23.300  11.090
55037W        W27462   5.219   4.436   1.939
55038W        W27463  26.021   9.617   3.719
55039W        W27464  18.680  41.048   2.326
55040W        W27465  13.754  15.466  13.326
55041W        W27466  23.317   0.068   0.956
55042W        W27467  32.502  18.634   2.399
55043W        W27468  39.075  44.024  13.421
55044W        W27469  18.312  16.809  13.528
55045W        W27470  12.608  32.033  13.302
55046W        W27471  28.584  11.638  11.179
55047W        W27472  38.377  29.048  11.943
55048W        W27473  42.742  21.196  12.492
55049W        W27474  13.491  31.237   3.278
55050W        W27475  11.066  38.937   2.249
55051W        W27476  34.796   0.467   2.408
55052W        W27477   0.108  42.051  13.625
55053W        W27478  22.479  35.066  14.921
55054W        W27479  25.024   3.324   3.862
55055W        W27480  19.540  24.617  13.580
55056W        W27481  42.996  19.073   9.780
55057W        W27482   3.454  22.474  10.970
55058W        W27483  14.526  10.933   2.811
55059W        W27484  29.747  40.294   0.421
55060W        W27485  43.929  36.616  13.348
55061W        W27486   1.017  17.236  11.933
55062W        W27487  16.703   4.748   1.224
55063W        W27488  26.688  36.730   4.145
55064W        W27489  33.279   4.125   2.599
55065W        W27490  14.039  33.455  10.314
55066W        W27491  27.529  33.991   2.562
55067W        W27492  28.110  11.228  14.476
55068W        W27493  39.312  12.745  14.824
55069W        W27494  21.611  28.510  14.932
55070W        W27495  13.619  38.641  11.495
55071W        W27496  39.354   6.290   4.782
55072W        W27497  16.545  35.032   1.456
55073W        W27498  12.247   8.798  11.753
55074W        W27499  23.363   8.018   3.843
55075W        W27500  15.300   1.216  13.068
55076W        W27501  14.747  26.400   4.141
55077W        W27502   9.304  14.092  11.404
55078W        W27503  18.993  20.513   1.790
55079W        W27504   4.931   3.711   5.002
55080W        W27505  33.894  17.229   4.090
55081W        W27506  23.244  42.331  11.604
55082W        W27507  29.427  30.423  10.709
55083W        W27508  25.638  19.537  12.983
55084W        W27509  32.175  35.652  11.091
55085W        W27510  31.467  22.090  14.339
55086W        W27511  36.166  32.459   3.870
55087W        W27512  17.425   8.759  11.901
55088W        W27513   2.686  12.309  14.393
55089W        W27514   2.451  24.708   2.338
55090W        W27515  44.403   6.440   1.752
55091W        W27516  28.978  13.810   3.443
55092W        W27517  20.211  17.222  10.448
55093W        W27518  17.372  26.769  13.964
55094W        W27519  42.929   0.474  13.416
55095W        W27520  26.193   5.439  11.590
55096W        W27521   2.039  13.560  10.991
55097W        W27522   2.496   3.457  12.910
55098W        W27523   9.293  31.845   3.922
55099W        W27524  30.967  23.283  12.208
55100W        W27525  29.557  12.434   2.898
55101W        W27526  15.037  38.287  11.323
55102W        W27527   6.042  32.082   4.712
55103W        W27528  22.688  24.635   0.261
55104W        W27529  37.809  25.519  14.737
55105W        W27530  12.877  35.295   0.062
55106W        W27531   4.314  31.710   4.277
55107W        W27532  19.132  23.054   0.451
55108W        W27533   1.873  23.459  11.247
55109W        W27534  38.653  42.383   0.834
55110W        W27535  23.398  29.638   0.759
55111W        W27536  30.529  24.236   1.895
55112W        W27537  16.321  16.555  14.505
55113W        W27538  13.858  16.271   1.445
55114W        W27539  35.706  10.520  12.719
55115W        W27540  43.954   9.270  10.561
55116W        W27541   4.792  27.654   5.033
55117W        W27542  44.470  43.271  14.745
55118W        W27543  24.000   9.418   2.211
55119W        W27544   0.489   4.321  13.485
55120W        W27545  27.677  40.357  10.593
55121W        W27546  16.556  10.591   0.008
55122W        W27547   6.771  36.465  13.983
55123W        W27548  14.596  12.614  11.568
55124W        W27549  14.321  22.214  14.374
55125W        W27550  31.942  17.700   2.390
55126W        W27551  28.908  20.582   9.465
55127W        W27552  31.371  30.109  13.342
55128W        W27553  10.803  11.493  10.774
55129W        W27554   2.254  33.538   4.628
55130W        W27555  14.345   2.522  14.057
55131W        W27556  23.403   6.295  12.218
55132W        W27557  33.021  15.241   3.225
55133W        W27558  44.224   4.309   0.498
55134W        W27559  12.641  37.806   1.806
55135W        W27560  16.625  33.034   4.618
55136W        W27561  15.651  14.119  11.668
55137W        W27562  16.128  37.703  10.773
55138W        W27563  12.189  31.345   4.307
55139W        W27564  10.538   3.941  14.013
55140W        W27565  25.742  11.134   1.877
55141W        W27566  25.718   1.895  12.740
55142W        W27567  35.057  44.159   4.464
55143W        W27568  35.782   4.645  12.563
55144W        W27569  17.426  40.914   3.947
55145W        W27570  11.665   6.620   4.777
55146W        W27571   4.004  42.957   2.943
55147W        W27572  34.732  30.628  11.165
55148W        W27573  22.182  21.830   0.489
55149W        W27574  24.701  30.475  13.442
55150W        W27575  16.186  30.130  13.035
55151W        W27576  26.420   3.284  10.529
55152W        W27577  40.410  23.692   1.834
55153W        W27578  15.105   7.687  11.529
55154W        W27579  40.614  14.611   0.695
55155W        W27580  11.750  11.709   0.000
55156W        W27581  20.605  27.692   4.130
55157W        W27582  18.334   6.001  13.989
55158W        W27583  40.397  24.559   4.153
55159W        W27584  14.159  42.742   0.655
55160W        W27585  18.243  43.371  14.923
55161W        W27586  16.089  17.237   0.691
55162W        W27587  37.386   3.444   1.648
55163W        W27588  11.551  23.049   2.860
55164W        W27589   8.776  42.755  12.895
55165W        W27590  16.292   3.042  11.220
55166W        W27591  13.098   2.294   4.377
55167W        W27592  28.225  25.116   1.491
55168W        W27593   7.032  35.948  13.228
55169W        W27594  30.366   7.737  13.051
55170W        W27595  10.615  19.531  11.683
55171W        W27596  28.475  14.739   1.067
55172W        W27597   9.787   5.451  12.087
55173W        W27598  40.404  34.099   3.199
55174W        W27599   2.217  35.091  12.399
55175W        W27600  39.022   0.955   3.801
55176W        W27601   0.400  26.456   1.649
55177W        W27602  32.509  22.270   2.177
55178W        W27603  19.130  43.727   1.125
55179W        W27604  20.531  41.531   2.956
55180W        W27605  35.108  27.360   1.297
55181W        W27606   4.202  43.725   0.871
55182W        W27607  14.306  13.554   2.731
55183W        W27608  31.086  23.236   0.929
55184W        W27609   7.350   2.706   2.245
55185W        W27610  27.190  32.899  13.736
55186W        W27611  34.029  34.557  13.127
55187W        W27612  33.914  16.617   2.800
55188W        W27613  21.631  21.858   4.304
55189W        W27614  13.127   4.420  12.483
55190W        W27615  37.177  13.286   4.223
55191W        W27616  24.657  38.540   0.901
55192W        W27617  11.162  21.349  14.016
55193W        W27618  29.596  35.422   2.370
55194W        W27619   0.299  35.056   0.859
55195W        W27620  17.286  43.954   3.638
55196W        W27621  38.668  35.415  11.080
55197W        W27622  14.752   4.676  11.487
55198W        W27623   3.311   0.064   4.608
55199W        W27624   9.026  22.055   3.636
55200W        W27625  44.500   0.725   3.782
55201W        W27626  23.221   5.876   4.349
55202W        W27627  21.481  12.433   2.193
55203W        W27628  44.753   4.141  13.541
55204W        W27629  33.498   1.505  13.912
55205W        W27630  24.274  11.276   0.868
55206W        W27631  20.129  20.137  10.659
55207W        W27632   9.783  30.527   1.818
55208W        W27633  35.103   2.023  14.304
55209W        W27634  31.188  42.877  10.846
55210W        W27635  25.310  18.512  14.002
55211W        W27636  20.115  19.459   1.822
55212W        W27637   9.313  42.504  14.468
55213W        W27638  10.254  30.601  13.953
55214W        W27639  32.587  26.493   2.767
55215W        W27640  32.345  14.283   4.183
55216W        W27641  26.764  18.519   0.770
55217W        W27642  40.316  14.695  14.186
55218W        W27643  18.225   5.886  14.897
55219W        W27644  25.098  20.706  14.422
55220W        W27645  20.508  24.970  12.489
55221W        W27646  44.768  42.040   0.881
55222W        W27647  30.784  15.746   9.935
55223W        W27648  21.304  32.017   3.858
55224W        W27649  37.378  20.139  12.791
55225W        W27650   8.935  28.201   3.104
55226W        W27651  20.326   7.295   3.199
55227W        W27652  12.785   1.205   3.860
55228W        W27653  21.163  32.535  14.301
55229W        W27654   2.025  12.422  11.873
55230W        W27655   8.909  15.467  14.779
55231W        W27656  26.388   2.814  11.188
55232W        W27657  21.576  35.339   5.001
55233W        W27658  37.354   2.229  11.902
55234W        W27659   7.295  18.268   3.721
55235W        W27660  20.478  10.204  13.585
55236W        W27661  14.058  12.311   5.050
55237W        W27662  39.925  27.704  12.988
55238W        W27663  38.068  39.226  10.491
55239W        W27664  37.095  13.777   4.066
55240W        W27665  23.262  34.989   4.582
55241W        W27666  27.979  39.331  13.951
55242W        W27667  28.039  42.980  12.169
55243W        W27668  39.551  29.580  10.502
55244W        W27669  29.731   3.810  10.532
55245W        W27670   8.804  26.239  12.036
55246W        W27671  15.765  42.509  12.632
55247W        W27672  44.918  40.584   2.688
55248W        W27673  34.570  41.219  10.974
55249W        W27674  43.783  13.002   1.725
55250W        W27675   1.944  28.045  10.543
55251W        W27676  23.182  13.684  11.540
55252W        W27677  11.859  41.469   1.275
55253W        W27678  38.111  44.642   3.699
55254W        W27679  42.558  36.113  10.711
55255W        W27680  30.508  24.732  11.017
55256W        W27681  35.395  41.235   0.266
55257W        W27682  20.916  30.415  11.246
55258W        W27683   1.248  38.396  13.060
55259W        W27684   5.961   1.457  11.956
55260W        W27685   8.049  10.831   2.337
55261W        W27686  11.766   6.329   3.139
55262W        W27687  36.307  14.859   3.369
55263W        W27688  37.799  43.981   3.176
55264W        W27689   2.420  39.367  11.500
55265W        W27690   8.672  20.036  14.379
55266W        W27691  43.317   2.595   1.393
55267W        W27692   9.619  28.041  11.579
55268W        W27693  10.334   8.129  10.650
55269W        W27694  25.797  26.945   0.469
55270W        W27695  43.528   7.640  11.404
55271W        W27696  10.182  10.880  10.581
55272W        W27697   8.517   5.026  14.490
55273W        W27698   9.596   0.781   2.317
55274W        W27699   0.869  10.177  11.643
55275W        W27700  30.032  16.651  14.278
55276W        W27701  39.316  22.595  13.109
55277W        W27702  12.279  36.614  13.493
55278W        W27703  20.060  35.397   2.400
55279W        W27704  19.051  26.978   2.145
55280W        W27705  35.403  23.257  11.393
55281W        W27706   4.364  13.409   4.150
55282W        W27707  42.598  17.870  13.466
55283W        W27708  26.442  37.606   4.181
55284W        W27709  41.785  11.243  13.767
55285W        W27710  34.896  17.373   1.640
55286W        W27711  25.480  33.136  10.163
55287W        W27712  36.250   0.432   0.284
55288W        W27713   1.706  25.565  14.047
55289W        W27714  38.712  28.403  11.161
55290W        W27715  32.012  25.225   3.571
55291W        W27716  26.117   3.484  13.912
55292W        W27717  20.780  17.094  12.161
55293W        W27718  19.741   7.887   1.431
55294W        W27719  15.607  32.582   4.532
55295W        W27720   8.271  38.742  14.013
55296W        W27721  19.549  27.673   3.288
55297W        W27722   4.757  34.326  13.918
55298W        W27723  18.960  36.428   0.327
55299W        W27724  38.000  23.203  10.387
55300W        W27725   6.321  16.176   0.677
55301W        W27726  19.233  13.595   3.562
55302W        W27727  37.733   8.560  12.805
55303W        W27728  15.359  23.158   2.748
55304W        W27729   5.663  43.265   1.353
55305W        W27730   4.735  13.787  13.367
55306W        W27731  31.693  30.407   1.926
55307W        W27732  10.156  40.240  11.554
55308W        W27733  34.552   2.359  13.938
55309W        W27734  18.223  43.891   3.359
55310W        W27735  37.489  12.160  13.960
55311W        W27736   1.384  34.418   4.905
55312W        W27737   9.591  31.546  12.234
55313W        W27738  14.888   1.837  14.295
55314W        W27739  24.662  28.928  13.392
55315W        W27740  32.061  12.859  13.336
55316W        W27741   5.894  41.873   2.536
55317W        W27742  10.452  41.528  13.460
55318W        W27743  27.176   2.843  12.577
55319W        W27744  13.370  20.075   3.272
55320W        W27745  33.461  38.465  13.601
55321W        W27746   9.847  25.072  13.081
55322W        W27747   6.363  29.536  10.591
55323W        W27748  16.136  40.782  10.473
55324W        W27749  14.132   1.566  13.791
55325W        W27750   5.507  24.666  14.512
55326W        W27751   3.644  21.132   2.746
55327W        W27752  14.874  14.185  13.764
55328W        W27753  28.473  20.477   2.197
55329W        W27754  19.593   7.205   4.585
55330W        W27755  31.582  29.373  13.111
55331W        W27756  16.190  27.673  12.825
55332W        W27757  24.521  42.557  12.343
55333W        W27758  24.598  28.731  10.979
55334W        W27759  29.072  20.830   5.555
55335W        W27760  14.703  21.755   2.205
55336W        W27761  29.683  27.942  11.890
55337W        W27762   8.510   1.128   4.244
55338W        W27763  34.674  23.200   0.378
55339W        W27764   7.784   3.251  10.640
55340W        W27765  11.776  39.124  10.972
55341W        W27766  13.800  42.211   1.835
55342W        W27767   0.514  28.208   3.324
55343W        W27768  11.843  38.986   3.209
55344W        W27769  35.159  27.491  11.408
55345W        W27770  24.411   3.895   3.711
55346W        W27771  23.653   1.330   0.933
55347W        W27772   9.890  24.968  14.814
55348W        W27773  35.037  14.259   2.640
55349W        W27774  39.858  22.777  14.508
55350W        W27775   3.401  24.468  13.415
55351W        W27776  12.371  24.778  10.556
55352W        W27777   3.738  35.859  13.488
55353W        W27778  36.922  38.531   1.124
55354W        W27779  29.668   6.379  12.873
55355W        W27780  35.920  29.746   1.161
55356W        W27781  38.169  36.728  13.714
55357W        W27782  15.839  17.712   0.485
55358W        W27783  29.961  15.663   3.137
55359W        W27784   2.515   5.202   0.848
55360W        W27785   8.910  42.813  10.596
55361W        W27786  28.790  25.720  12.203
55362W        W27787  32.132  19.586  13.077
55363W        W27788   9.959  23.264  12.083
55364W        W27789  12.510  38.861  13.163
55365W        W27790  44.529  36.418   2.213
55366W        W27791   6.750   1.248   0.316
55367W        W27792  36.995  19.889  10.309
55368W        W27793   1.240  34.458  13.395
55369W        W27794  26.765  33.523   1.735
55370W        W27795   6.134  41.312   1.225
55371W        W27796  13.823  24.341   0.424
55372W        W27797   8.431  12.123  11.515
55373W        W27798  18.301   2.693   3.291
55374W        W27799   0.425  35.084   4.572
55375W        W27800  42.990   6.275  10.400
55376W        W27801  29.121  22.845  10.618
55377W        W27802  36.051  15.603   2.224
55378W        W27803  21.622   3.109   4.382
55379W        W27804  25.692  39.733   0.305
55380W        W27805  14.162  10.912  12.850
55381W        W27806  30.912  25.081   0.438
55382W        W27807   8.143  26.562  11.630
55383W        W27808  38.999  33.992   4.804
55384W        W27809  24.310   2.220   1.937
55385W        W27810  18.661  26.365   0.349
55386W        W27811  40.014   4.863   3.775
55387W        W27812   7.122  38.297  12.920
55388W        W27813  32.345  44.554   2.072
55389W        W27814  43.270  24.143   0.462
55390W        W27815  31.439  40.365   3.030
55391W        W27816  16.964  42.715  13.363
55392W        W27817  23.676   7.680   4.668
55393W        W27818  33.283  22.932   9.978
55394W        W27819  29.141  12.764  13.053
55395W        W27820  38.062  12.251   1.244
55396W        W27821  37.320  16.867   1.732
55397W        W27822   8.630  11.382   1.733
55398W        W27823  28.633  26.151  10.695
55399W        W27824   7.216   2.035  13.071
55400W        W27825   3.245  37.410   2.871
55401W        W27826  11.808  42.479  12.875
55402W        W27827  25.381  16.314   1.247
55403W        W27828   9.357  35.352  14.447
55404W        W27829  23.552  13.263  13.280
55405W        W27830  33.511   9.392   4.532
55406W        W27831  13.720  20.835  13.786
55407W        W27832  32.528   9.924  10.905
55408W        W27833  14.104  22.288  10.607
55409W        W27834  34.118  10.366   2.158
55410W        W27835   7.950  11.407  10.374
55411W        W27836   8.556  23.455  12.848
55412W        W27837   6.632  16.707  12.445
55413W        W27838  10.398  32.128   0.731
55414W        W27839  30.520   7.833  10.659
55415W        W27840  36.014   8.319   5.011
55416W        W27841  38.855  24.216  10.654
55417W        W27842  35.011  10.158   1.687
55418W        W27843  23.003  31.539  12.154
55419W        W27844  32.662   9.963  12.015
55420W        W27845   6.407  19.715  12.976
55421W        W27846  33.978  11.256  14.985
55422W        W27847  29.668  37.044   4.141
55423W        W27848  40.870  32.010  12.915
55424W        W27849  30.519  20.867  10.224
55425W        W27850  15.034  35.009  14.943
55426W        W27851  20.584  33.925  11.952
55427W        W27852   0.809  37.566  11.428
55428W        W27853  36.426  15.306   1.135
55429W        W27854  33.852  37.982   3.693
55430W        W27855  40.968  34.089   0.833
55431W        W27856   2.895  22.521   4.083
55432W        W27857  34.032  43.363   3.893
55433W        W27858  25.493  28.982   2.613
55434W        W27859  20.836  21.104  11.629
55435W        W27860  42.991  16.339  14.866
55436W        W27861  20.198  41.434   3.315
55437W        W27862  38.987  14.686  13.948
55438W        W27863  21.794  37.366   2.648
55439W        W27864  11.548  21.938  12.950
55440W        W27865  13.680  27.377   0.434
55441W        W27866  39.376  30.060  12.878
55442W        W27867   2.338  36.538   3.692
55443W        W27868  38.033  36.151   1.445
55444W        W27869  24.502   3.459  13.170
55445W        W27870   9.626  41.021  14.886
55446W        W27871  34.156  11.421   0.467
55447W        W27872  31.811  13.336   0.718
55448W        W27873  16.128   1.231   1.994
55449W        W27874  17.538   3.481  13.494
55450W        W27875  39.085  44.396  12.935
55451W        W27876  44.150   6.983  11.554
55452W        W27877  29.760   1.579   4.116
55453W        W27878   8.095   8.384  14.846
55454W        W27879  13.409  40.384   5.063
55455W        W27880  16.612  36.796   4.154
55456W        W27881  22.271  32.505  10.632
55457W        W27882  36.617  32.034  10.671
55458W        W27883  12.139  23.187   1.531
55459W        W27884  32.183  10.708   1.011
55460W        W27885   7.836  39.663  12.413
55461W        W27886   4.143  15.374  13.845
55462W        W27887  38.310  33.173  11.524
55463W        W27888  37.545   4.748  13.715
55464W        W27889   4.711  41.022  13.452
55465W        W27890  12.560  40.291   4.379
55466W        W27891  26.741  26.210   1.424
55467W        W27892  43.640  19.775  11.876
55468W        W27893   2.389   2.951  13.999
55469W        W27894   2.387   9.893  10.623
55470W        W27895  10.332  22.156  12.431
55471W        W27896  17.999  23.039  12.539
55472W        W27897   8.502  43.922  13.475
55473W        W27898  37.485  36.846  13.077
55474W        W27899  16.696   0.977  12.713
55475W        W27900   0.261  22.525   2.512
55476W        W27901   8.299  20.223  13.505
55477W        W27902  19.542  33.580   0.953
55478W        W27903   1.374  11.081   4.598
55479W        W27904  43.240  25.965   0.550
55480W        W27905  24.127  20.677  12.928
55481W        W27906   8.715  13.760   0.843
55482W        W27907  12.035  30.524   2.323
55483W        W27908  42.315  44.461   0.931
55484W        W27909  35.277  16.917  12.171
55485W        W27910  30.600  32.195   2.769
55486W        W27911   8.809  13.158   2.723
55487W        W27912  31.192   4.484  12.529
55488W        W27913   8.433   7.216   2.685
55489W        W27914   5.723   0.426   1.081
55490W        W27915  22.926  41.058   0.457
55491W        W27916  43.957  32.223   3.167
55492W        W27917  32.898   9.256  14.356
55493W        W27918  39.803  42.291   3.981
55494W        W27919  22.439  35.396  13.787
55495W        W27920  25.256   8.751   4.589
55496W        W27921   2.510  17.052  11.564
55497W        W27922  16.712  12.274  10.677
55498W        W27923  23.109  20.545   0.851
55499W        W27924  39.503  17.291  12.442
55500W        W27925  15.629   2.814   2.651
55501W        W27926  27.496  19.092   4.572
55502W        W27927   4.465  42.715   2.868
55503W        W27928  12.053   1.479  12.604
55504W        W27929  23.757  13.578   0.982
55505W        W27930   4.865  24.973   3.075
55506W        W27931  23.147  24.682   4.549
55507W        W27932  21.151  20.440  12.181
55508W        W27933  24.737  21.706  12.170
55509W        W27934  34.085  31.191  12.724
55510W        W27935  32.184  30.428  10.634
55511W        W27936  37.042   4.563  13.800
55512W        W27937  34.955  22.815  12.032
55513W        W27938  35.993  21.544  14.556
55514W        W27939  30.671  12.458   2.284
55515W        W27940  24.185  23.910  14.387
55516W        W27941  14.753  29.169  12.469
55517W        W27942  22.706   6.723  13.372
55518W        W27943  21.679   4.817  13.862
55519W        W27944  44.532  21.599  11.975
55520W        W27945  39.497  16.872   3.192
55521W        W27946   8.225  10.145   3.906
55522W        W27947  30.393   1.849  11.352
55523W        W27948  31.929  15.988  13.401
55524W        W27949  17.841  42.884  10.747
55525W        W27950  13.436  33.878   0.257
55526W        W27951   4.691  13.685   2.319
55527W        W27952  10.323   2.912  14.101
55528W        W27953  34.632  37.382  11.106
55529W        W27954  42.855  29.007   2.880
55530W        W27955  25.911  32.894  12.446
55531W        W27956  33.195  42.541  12.563
55532W        W27957  26.120  15.686  13.492
55533W        W27958  25.779  27.576   2.466
55534W        W27959  32.192  14.367  10.725
55535W        W27960  29.428  39.999  13.019
55536W        W27961  28.776  10.173  14.418
55537W        W27962  27.450  36.394   2.022
55538W        W27963  11.280  30.570   3.681
55539W        W27964   4.380  24.408   3.722
55540W        W27965  14.700  13.267  14.286
55541W        W27966   5.313  41.844   0.410
55542W        W27967  24.250  10.146  11.636
55543W        W27968  43.702  22.925   2.189
55544W        W27969  34.097  13.782   1.909
55545W        W27970  15.911  31.002   2.647
55546W        W27971  17.278  18.961   3.132
55547W        W27972  15.875  12.317  12.939
55548W        W27973  21.689  22.467   0.181
55549W        W27974   4.240   0.328   3.166
55550W        W27975  36.284  31.113   0.824
55551W        W27976  34.491   9.381  12.633
55552W        W27977   3.121  39.951   4.137
55553W        W27978  42.825  36.942  11.547
55554W        W27979   4.357  39.947  14.050
55555W        W27980  13.874  22.626  11.794
55556W        W27981  33.467  39.329  14.304
55557W        W27982  31.685  36.049  13.825
55558W        W27983   0.634   9.536  12.212
55559W        W27984  32.472   8.277   4.678
55560W        W27985  27.999  41.979  14.991
55561W        W27986  26.162  17.169   3.753
55562W        W27987  26.754   7.648  11.234
55563W        W27988  38.045  30.207  11.123
55564W        W27989  41.992   5.019   3.236
55565W        W27990  18.630  16.530   3.739
55566W        W27991  27.633   1.782   1.827
55567W        W27992  14.829  34.732  10.157
55568W        W27993  30.056   4.042  13.323
55569W        W27994   3.496  30.895   2.711
55570W        W27995  35.363  25.257   2.965
55571W        W27996  28.943  29.075  11.564
55572W        W27997  43.823  40.545  11.894
55573W        W27998  42.431  34.003  12.243
55574W        W27999  28.152   2.279  14.915
55575W        W28000  40.924   6.255  12.119
55576W        W28001  28.037  34.854  14.788
55577W        W28002  11.555  14.168  11.479
55578W        W28003  13.102  12.339  12.858
55579W        W28004   7.261  42.374  14.547
55580W        W28005  27.659  17.271   4.639
55581W        W28006  35.542   2.254  14.020
55582W        W28007  20.728   4.255   0.410
55583W        W28008  37.169   9.355  12.128
55584W        W28009  29.111  15.678  12.566
55585W        W28010  31.141  23.691   4.190
55586W        W28011  29.660  32.151   0.745
55587W        W28012  13.907  19.009   2.517
55588W        W28013   2.345   7.757   3.113
55589W        W28014  14.997  20.720  13.604
55590W        W28015  23.660  25.074  14.732
55591W        W28016  20.726  24.660  14.059
55592W        W28017  38.534  31.620   0.757
55593W        W28018  16.155  22.664   1.341
55594W        W28019   0.879  14.564   4.578
55595W        W28020  33.659  33.572  11.558
55596W        W28021  36.581  17.424   2.907
55597W        W28022  10.445  38.823   1.390
55598W        W28023  23.043  27.771   1.979
55599W        W28024  11.658  36.770  12.436
55600W        W28025  38.234  23.584   2.746
55601W        W28026   7.144  24.730   1.671
55602W        W28027  40.791   2.287   4.212
55603W        W28028  20.122  39.360  11.816
55604W        W28029   2.676  29.167   1.864
55605W        W28030   4.744  29.942   3.338
55606W        W28031   0.528   8.373   1.945
55607W        W28032  33.638   8.329  12.392
55608W        W28033   4.760   0.040   1.739
55609W        W28034  38.400  41.014  12.519
55610W        W28035   7.445  21.687  12.495
55611W        W28036  15.197  20.695   0.374
55612W        W28037  34.872  26.665   0.756
55613W        W28038  34.411  25.286  13.751
55614W        W28039  22.277   9.501   5.554
55615W        W28040  41.832   3.649   4.575
55616W        W28041   0.773  41.130   1.766
55617W        W28042  12.098   9.055  14.435
55618W        W28043  16.915  41.367   0.866
55619W        W28044  14.936  14.707   4.500
55620W        W28045  42.980  31.074  10.707
55621W        W28046   5.336  27.479  11.830
55622W        W28047  22.475  18.671   2.847
55623W        W28048  21.105   2.712   2.927
55624W        W28049   1.371  41.248   3.666
55625W        W28050  11.650  25.996   3.308
55626W        W28051  27.730  23.717   2.923
55627W        W28052  41.311  17.847   2.341
55628W        W28053  27.708  27.444  13.892
55629W        W28054  32.016  25.665  13.974
55630W        W28055  43.813   2.432   1.390
55631W        W28056  15.916   7.348   4.968
55632W        W28057  14.776  16.573   3.322
55633W        W28058   0.313  13.829  12.950
55634W        W28059  37.123  23.687  12.983
55635W        W28060  12.305  31.902   5.019
55636W        W28061  26.195  36.516   4.153
55637W        W28062  29.698  24.894   3.281
55638W        W28063  36.028  10.443  14.468
55639W        W28064  38.082  21.563   2.131
55640W        W28065  30.118   8.857   4.534
55641W        W28066   3.325  16.115   4.273
55642W        W28067  30.510  30.349  14.316
55643W        W28068  37.871  20.122   3.047
55644W        W28069  17.516  22.664   3.749
55645W        W28070  10.787  41.502   2.700
55646W        W28071  38.130  25.867   3.876
55647W        W28072  16.814  34.133  12.046
55648W        W28073  23.928  36.947  13.786
55649W        W28074  14.616   3.948  10.703
55650W        W28075   1.457   3.178  11.463
55651W        W28076  21.294  42.024   0.376
55652W        W28077  43.532  44.871   0.861
55653W        W28078  21.374  13.099  14.228
55654W        W28079   2.843  10.161   1.287
55655W        W28080  24.116  41.517   3.116
55656W        W28081   4.300  32.591   0.013
55657W        W28082  10.143  34.535  12.030
55658W        W28083  37.555  36.768  11.156
55659W        W28084  35.986  27.365   1.464
55660W        W28085  23.729  11.082  11.003
55661W        W28086  16.799  30.489   4.604
55662W        W28087  41.890  18.247   3.703
55663W        W28088   6.354   1.724   4.920
55664W        W28089  24.324   1.836  14.537
55665W        W28090  41.728  21.303   0.949
55666W        W28091   7.876   4.184   1.530
55667W        W28092  20.204  19.307   4.287
55668W        W28093  20.954  40.906   2.595
55669W        W28094  41.001  38.985   0.804
55670W        W28095  25.041   9.238  11.128
55671W        W28096  13.887  17.090   1.963
55672W        W28097   7.784  24.589   2.392
55673W        W28098  43.886  20.629   2.928
55674W        W28099  12.639  22.028  11.919
55675W        W28100   8.965  13.779  11.098
55676W        W28101  16.207   9.373  11.239
55677W        W28102   4.952   8.306  12.159
55678W        W28103  19.231  30.946  13.362
55679W        W28104  36.374  32.378  10.936
55680W        W28105  24.044  10.260  10.125
55681W        W28106   6.614  29.670  13.850
55682W        W28107  10.334  18.221   0.715
55683W        W28108  43.979  10.732  11.931
55684W        W28109  42.588  27.150  10.993
55685W        W28110  42.011   1.492   2.887
55686W        W28111  26.753  29.516  11.756
55687W        W28112  34.591  11.566  13.894
55688W        W28113  27.724  26.775  11.563
55689W        W28114  29.274  23.074   1.478
55690W        W28115  10.313  20.247   0.833
55691W        W28116  16.074  29.155  13.043
55692W        W28117  26.448  16.155  11.914
55693W        W28118  15.377  18.247  12.667
55694W        W28119  34.970  21.178  10.422
55695W        W28120  19.010  18.665  13.349
55696W        W28121   8.508  14.194  12.487
55697W        W28122  36.939  13.427   0.981
55698W        W28123  34.941  21.700  10.578
55699W        W28124  14.956  30.674  12.554
55700W        W28125  14.526  33.894  14.526
55701W        W28126  43.997   7.851  12.359
55702W        W28127  20.319  31.625  13.936
55703W        W28128   1.429   7.403   0.064
55704W        W28129  38.025  38.118  11.160
55705W        W28130  43.580  19.095   1.381
55706W        W28131   0.242  32.965   0.800
55707W        W28132  28.946  19.241  13.026
55708W        W28133  36.841   1.428  12.875
55709W        W28134  37.355  11.329   3.375
55710W        W28135  24.062   1.895   1.331
55711W        W28136  43.331   6.648   2.373
55712W        W28137  38.929   7.864  13.096
55713W        W28138  31.055  13.900   0.346
55714W        W28139  18.840  15.503  13.894
55715W        W28140  23.768   3.324   2.698
55716W        W28141  23.931  30.412  11.973
55717W        W28142   5.512  41.390  13.347
55718W        W28143  33.017  17.712  11.719
55719W        W28144  34.982   5.689  14.511
55720W        W28145   0.698  10.149   9.996
55721W        W28146   3.187  42.255  13.546
55722W        W28147  34.575   7.406   5.247
55723W        W28148  35.885  39.801  12.166
55724W        W28149   9.302   9.143  12.122
55725W        W28150   1.611  29.019  13.353
55726W        W28151  44.548  35.665   1.366
55727W        W28152  35.441  36.676  10.967
55728W        W28153  40.617   0.817   2.789
55729W        W28154   4.153  28.352   1.287
55730W        W28155  40.929  37.981   2.726
55731W        W28156   8.899   6.340   0.691
55732W        W28157  23.051  42.627  11.238
55733W        W28158  23.543  10.254   9.951
55734W        W28159  22.688  29.061   2.268
55735W        W28160  26.885  19.754  14.251
55736W        W28161  15.272  29.436   3.815
55737W        W28162  30.246  33.867  11.641
55738W        W28163   8.955  33.053  13.450
55739W        W28164  20.564   1.945  12.572
55740W        W28165  25.758  10.334  13.842
55741W        W28166   6.006  31.468  14.981
55742W        W28167  41.076  33.591   0.740
55743W        W28168  32.845  33.125  12.876
55744W        W28169   5.651  42.945   1.757
55745W        W28170  14.558  40.382   4.760
55746W        W28171  13.095  30.450  14.040
55747W        W28172  40.831   6.708  11.845
55748W        W28173  27.672  33.380  10.620
55749W        W28174  39.409  35.931   3.843
55750W        W28175  41.309  33.149  13.435
55751W        W28176  35.827  34.818  11.964
55752W        W28177   9.390  39.090  11.206
55753W        W28178  37.968   0.397  13.383
55754W        W28179   3.353  38.303   1.289
55755W        W28180  25.160   5.455   2.652
55756W        W28181  34.116   0.584  13.769
55757W        W28182  40.933  24.457  13.501
55758W        W28183  41.375  38.963  13.583
55759W        W28184  27.879  30.069  11.516
55760W        W28185  18.518  27.223  13.468
55761W        W28186  17.091  25.197  11.912
55762W        W28187  37.074  29.993  14.366
55763W        W28188  30.525  23.123  14.339
55764W        W28189  35.819  26.370   5.235
55765W        W28190   2.730  36.315  10.349
55766W        W28191  24.247  36.014  11.969
55767W        W28192   8.961   1.312   3.597
55768W        W28193  17.310  20.788  12.503
55769W        W28194  29.891  32.038   3.359
55770W        W28195  13.783  26.626   4.170
55771W        W28196  15.294  11.363   2.742
55772W        W28197  37.004  27.157  10.703
55773W        W28198   3.984  43.058  12.584
55774W        W28199  23.761  24.934   3.266
55775W        W28200   1.519  41.956   1.023
55776W        W28201  20.606  25.400   2.738
55777W        W28202  37.544  21.315  13.000
55778W        W28203  43.001   5.126  13.579
55779W        W28204   8.758  44.847  13.345
55780W        W28205  20.761  38.674  13.072
55781W        W28206  17.018   9.444  11.430
55782W        W28207  27.069  43.287  13.463
55783W        W28208   0.835  22.316   1.904
55784W        W28209  33.663   6.788   4.111
55785W        W28210  39.033  32.982   1.253
55786W        W28211   3.830  29.214   0.468
55787W        W28212   3.793  27.398   1.497
55788W        W28213  36.347  21.587  13.700
55789W        W28214  30.691  25.569  12.629
55790W        W28215  35.347  26.223  12.375
55791W        W28216   9.786  37.304  13.120
55792W        W28217  43.294  20.950  11.653
55793W        W28218  31.292   8.918  13.304
55794W        W28219  34.138  26.041  11.943
55795W        W28220  24.537   7.941  13.481
55796W        W28221  14.810  43.486   3.176
55797W        W28222  13.849  33.886  12.397
55798W        W28223  25.871   5.945   0.807
55799W        W28224  30.177   0.805  12.584
55800W        W28225   6.982   3.765  12.065
55801W        W28226  30.923  23.173  10.566
55802W        W28227  38.671   3.882   3.816
55803W        W28228  39.784  12.730   3.153
55804W        W28229   4.197   6.747   1.369
55805W        W28230  24.171  17.846  11.159
55806W        W28231  29.622  17.197   0.982
55807W        W28232  30.661  11.557  13.684
55808W        W28233   2.038  34.935  12.887
55809W        W28234   2.228  43.897   0.906
55810W        W28235  18.605  32.746   2.905
55811W        W28236  22.768  32.270   2.796
55812W        W28237  19.697   2.289  12.499
55813W        W28238  26.448   3.232   3.830
55814W        W28239  35.006  39.025   3.689
55815W        W28240  34.638   9.771   1.877
55816W        W28241   8.264  35.019  12.690
55817W        W28242  42.312  33.651  14.892
55818W        W28243  16.263  30.193  12.531
55819W        W28244  24.959  24.920  12.403
55820W        W28245  31.823  37.345   1.807
55821W        W28246  35.077  44.988  12.587
55822W        W28247  17.651  24.580   0.441
55823W        W28248  44.298  21.610   4.009
55824W        W28249  43.965  20.185   1.798
55825W        W28250   4.804  14.820  13.555
55826W        W28251   4.714   5.247   1.592
55827W        W28252  40.359   2.778  13.331
55828W        W28253   2.510  25.038  11.426
55829W        W28254  35.570  38.248   1.901
55830W        W28255   3.458  37.987  14.927
55831W        W28256  31.174  13.649   1.252
55832W        W28257   4.719  22.982  11.154
55833W        W28258  40.970  30.692   0.796
55834W        W28259  10.134  17.087  13.132
55835W        W28260  12.119  15.216  13.866
55836W        W28261  20.249  39.583  10.334
55837W        W28262   3.735  12.369  10.708
55838W        W28263  14.371  38.059   3.325
55839W        W28264  25.687  27.626   2.958
55840W        W28265  10.722  29.611  12.888
55841W        W28266  34.125  24.149   4.448
55842W        W28267  27.032   3.792   3.155
55843W        W28268   3.267  30.625   1.854
55844W        W28269  40.609  19.136   3.139
55845W        W28270  29.657  27.028  11.580
55846W        W28271  25.605  28.587  13.120
55847W        W28272  28.038  10.255  14.988
55848W        W28273  32.907  29.922   3.689
55849W        W28274  38.378  33.156   1.612
55850W        W28275  39.464  22.971   3.730
55851W        W28276  23.763  29.370  12.566
55852W        W28277  32.914  44.374   4.669
55853W        W28278  10.912  31.188   2.191
55854W        W28279   5.598  16.192   1.096
55855W        W28280   2.941   8.090  11.233
55856W        W28281  34.833   9.395   0.796
55857W        W28282  11.334   1.886  10.138
55858W        W28283  43.137  32.959   0.938
55859W        W28284  30.529  23.987  10.467
55860W        W28285  29.139  13.191  13.321
55861W        W28286   9.363   3.857   2.462
55862W        W28287  42.997  10.718   0.686
55863W        W28288   0.695  23.925  12.481
55864W        W28289   1.811  20.662   0.824
55865W        W28290  16.233   5.694  12.340
55866W        W28291  30.003  37.145  12.081
55867W        W28292  28.001  27.996   0.964
55868W        W28293   8.212  39.909   1.820
55869W        W28294   6.771   4.377   4.290
55870W        W28295  11.678  18.621   3.862
55871W        W28296  24.185  30.970   2.917
55872W        W28297   3.234   7.109  13.513
55873W        W28298  15.244  42.324   3.687
55874W        W28299   8.931  35.013  13.349
55875W        W28300  42.419  17.940  13.964
55876W        W28301   5.651  15.089   1.205
55877W        W28302  11.557  30.142   2.323
55878W        W28303   6.237   6.291   1.802
55879W        W28304  17.116  22.101   0.039
55880W        W28305  21.123  22.800   2.162
55881W        W28306   0.489  35.514   3.305
55882W        W28307  11.689  23.525  14.298
55883W        W28308  33.700  27.462  11.593
55884W        W28309  22.109  25.917   1.918
55885W        W28310  43.480  38.312  13.505
55886W        W28311  16.818  29.157   4.390
55887W        W28312  39.909  23.616   0.088
55888W        W28313  16.900   7.839  13.861
55889W        W28314  27.702  10.617   0.683
55890W        W28315   2.972  39.979  11.098
55891W        W28316  34.595  13.118   4.229
55892W        W28317  32.225  35.223   3.208
55893W        W28318   8.128   3.499  14.064
55894W        W28319  28.829  10.522  13.207
55895W        W28320  18.627   5.686   0.532
55896W        W28321  40.856  43.943  13.981
55897W        W28322   5.669  16.434   4.547
55898W        W28323  35.391  21.434  10.584
55899W        W28324  37.071  31.585   1.344
55900W        W28325  31.929   4.996  10.219
55901W        W28326  13.577  39.381   0.932
55902W        W28327  28.373  32.881  11.395
55903W        W28328  42.379   7.229  10.535
55904W        W28329  34.328  10.851   4.496
55905W        W28330  20.874  38.951   1.793
55906W        W28331  30.385  38.121  14.419
55907W        W28332   6.215   9.391   2.405
55908W        W28333   7.136  18.746   4.812
55909W        W28334  16.535  40.004   1.149
55910W        W28335  23.533   6.393   2.673
55911W        W28336   2.812   7.254  13.282
55912W        W28337  17.884   1.890  11.083
55913W        W28338  14.807  17.204  14.880
55914W        W28339  19.619  40.951   2.753
55915W        W28340   4.128  43.869   2.578
55916W        W28341  32.947  14.136  13.460
55917W        W28342  12.272  13.568   2.177
55918W        W28343  12.634  25.701  12.097
55919W        W28344  19.302  17.198   2.704
55920W        W28345  40.053   0.138   4.276
55921W        W28346  18.265  13.739   2.826
55922W        W28347  10.648   7.449  14.548
55923W        W28348  11.321  29.444   5.051
55924W        W28349  42.359  23.293   4.760
55925W        W28350  28.530   5.738   3.860
55926W        W28351  34.236   7.481  13.167
55927W        W28352  41.593  11.646  12.816
55928W        W28353  40.522  20.423  11.508
55929W        W28354   3.765  27.422  12.662
55930W        W28355  23.630  18.701  11.073
55931W        W28356  12.241  38.545   2.568
55932W        W28357  11.315  23.066  11.670
55933W        W28358  34.404  37.549  11.538
55934W        W28359   6.853   2.750  13.119
55935W        W28360  26.233  15.866  11.125
55936W        W28361  22.765   4.447   2.008
55937W        W28362  31.194  36.855   1.542
55938W        W28363   5.921  11.714   0.469
55939W        W28364   0.010  22.356  10.698
55940W        W28365  17.774  33.815  14.318
55941W        W28366  41.444   5.464   4.585
55942W        W28367  37.514  12.638   2.252
55943W        W28368  35.509   0.798  10.746
55944W        W28369  24.535  35.968  14.764
55945W        W28370   1.758  32.981   4.603
55946W        W28371  31.562   7.680   4.947
55947W        W28372   1.747  19.114   1.515
55948W        W28373  30.072  40.525   4.293
55949W        W28374  40.657  11.398   2.291
55950W        W28375   4.663  30.812   2.739
55951W        W28376  23.295  38.533   1.769
55952W        W28377  32.924  33.072   0.615
55953W        W28378  22.890  12.085  14.712
55954W        W28379  23.505  26.692   0.201
55955W        W28380   7.843  23.111  13.075
55956W        W28381  44.996  33.134   4.037
55957W        W28382  43.198  39.524  11.573
55958W        W28383  24.903  18.557   3.276
55959W        W28384   7.963  16.190  13.506
55960W        W28385  15.410  33.554  13.387
55961W        W28386  31.535  20.577   0.221
55962W        W28387   6.953  16.152   3.787
55963W        W28388  23.344  34.592  11.687
55964W        W28389  11.941  24.803  13.378
55965W        W28390  29.409  35.054   4.542
55966W        W28391  20.554  11.572  12.521
55967W        W28392  21.629  44.970  14.414
55968W        W28393  20.325  32.392  12.017
55969W        W28394  37.770  41.816  11.950
55970W        W28395  37.321  37.869  14.425
55971W        W28396  14.310  18.695   1.665
55972W        W28397   9.420  41.247  11.156
55973W        W28398  25.593   9.042   2.794
55974W        W28399  27.441   2.308   1.801
55975W        W28400   0.045  10.190   1.380
55976W        W28401  29.570   0.043  14.886
55977W        W28402  26.663  22.531   4.108
55978W        W28403  17.488  42.736  13.465
55979W        W28404   4.251  30.235  12.955
55980W        W28405  17.395  34.632   2.760
55981W        W28406  23.256  23.597   2.248
55982W        W28407  35.508  12.793   2.855
55983W        W28408   0.299  44.254  12.962
55984W        W28409  26.302  40.323  13.944
55985W        W28410  12.407  36.139   2.785
55986W        W28411  29.970  39.973   4.255
55987W        W28412  36.549   1.243   1.672
55988W        W28413  22.874  38.443  14.866
55989W        W28414   1.998   4.582  10.569
55990W        W28415  13.818  35.033  10.973
55991W        W28416   3.431  31.053   3.598
55992W        W28417  10.516  23.056  13.169
55993W        W28418  36.451  35.965  11.553
55994W        W28419  25.208   8.163  13.386
55995W        W28420  33.084  30.219  12.491
55996W        W28421  28.978  26.231  13.463
55997W        W28422   6.141   0.118   2.389
55998W        W28423  34.099  10.132  13.270
55999W        W28424  10.371  43.028  11.155
56000W        W28425  11.864   7.868  11.494
56001W        W28426  38.537   7.588   4.074
56002W        W28427   3.032  10.656   1.250
56003W        W28428  43.433  14.078  13.012
56004W        W28429  35.837  18.480   2.285
56005W        W28430   4.524  21.204   4.607
56006W        W28431  19.365  27.587  13.471
56007W        W28432   1.167  28.995  12.044
56008W        W28433  19.792  39.539   3.907
56009W        W28434  10.281  35.153  10.717
56010W        W28435  17.536  43.862   0.720
56011W        W28436  11.396   4.214   3.695
56012W        W28437  20.013   5.483  11.368
56013W        W28438  19.257  20.715   3.811
56014W        W28439   5.345  24.512  10.774
56015W        W28440  23.162  22.554   1.194
56016W        W28441  37.090  20.479   3.631
56017W        W28442  30.005  21.563  14.529
56018W        W28443  44.713   5.396  13.006
56019W        W28444  10.685  11.765  12.497
56020W        W28445  19.033  13.963   0.070
56021W        W28446  20.148   0.468   4.117
56022W        W28447   1.470  34.440   4.341
56023W        W28448  16.829  25.180   2.414
56024W        W28449  11.316  13.191   2.317
56025W        W28450  12.406  28.668   2.386
56026W        W28451   5.327   2.293   0.418
56027W        W28452  28.066  34.984   2.669
56028W        W28453  11.192  41.827   3.755
56029W        W28454  16.533  43.507   3.215
56030W        W28455   7.618  19.221  12.403
56031W        W28456  27.496  36.942   3.584
56032W        W28457  31.584  14.686  13.846
56033W        W28458  37.944  17.209  11.522
56034W        W28459  31.336  22.550  12.568
56035W        W28460  24.868  34.460   3.184
56036W        W28461   4.514  27.601  12.555
56037W        W28462  14.117  38.399  14.981
56038W        W28463  33.646  17.238  14.028
56039W        W28464  10.351   2.998  13.020
56040W        W28465   3.962  19.254   0.754
56041W        W28466  31.888  28.932  11.216
56042W        W28467  22.164  12.161  13.057
56043W        W28468   6.789  20.220  12.073
56044W        W28469  21.749  16.594   4.719
56045W        W28470  29.054   4.954  13.826
56046W        W28471  13.413   9.386   4.581
56047W        W28472  30.362  15.530  10.539
56048W        W28473  30.973  35.448  12.430
56049W        W28474  33.610  37.129   2.988
56050W        W28475  24.531  43.094  12.550
56051W        W28476  12.740  44.936   0.423
56052W        W28477  27.678  38.450  10.636
56053W        W28478  24.025  39.803  14.138
56054W        W28479  39.787  16.067  11.402
56055W        W28480  30.451   4.212  14.033
56056W        W28481  15.619  40.200   4.691
56057W        W28482  34.952  36.810  13.531
56058W        W28483  41.382  18.959   3.519
56059W        W28484  20.772  11.731  12.086
56060W        W28485  38.701  39.877  12.082
56061W        W28486  16.211  40.273   0.807
56062W        W28487  39.860   8.253  13.455
56063W        W28488  22.046  36.647   2.113
56064W        W28489  31.037  29.988  11.237
56065W        W28490  28.880   8.713   2.278
56066W        W28491   8.137  21.133   9.974
56067W        W28492  29.121  18.342   0.792
56068W        W28493  17.478  41.899   1.633
56069W        W28494   8.288  15.687  14.952
56070W        W28495  14.797   8.210  13.002
56071W        W28496   1.700  16.183   0.523
56072W        W28497  32.238  21.035  14.631
56073W        W28498  32.886  14.690  11.019
56074W        W28499   8.178   4.627  11.838
56075W        W28500  17.032  31.946   2.699
56076W        W28501  22.089  20.821  11.077
56077W        W28502  38.286   8.825   0.780
56078W        W28503  16.842  10.461  12.322
56079W        W28504  33.620  13.369   1.163
56080W        W28505  43.817   0.281   0.705
56081W        W28506  32.606  42.271   4.018
56082W        W28507   1.501   0.809   0.494
56083W        W28508  41.520  40.858  14.755
56084W        W28509  30.514  35.934  13.067
56085W        W28510  40.297  41.609  11.844
56086W        W28511  17.172  12.351  14.216
56087W        W28512  25.136  15.846   4.990
56088W        W28513   3.257   5.470   3.365
56089W        W28514  31.937  23.658   2.608
56090W        W28515   7.659  20.740  11.180
56091W        W28516  34.785   1.864   1.767
56092W        W28517  29.459  33.116   4.081
56093W        W28518  35.000  34.312  14.434
56094W        W28519   3.715  30.166   4.980
56095W        W28520  21.714  37.006  10.778
56096W        W28521  29.123  33.854   0.977
56097W        W28522  43.502  33.181  14.047
56098W        W28523  11.310  42.722  13.913
56099W        W28524  33.142  18.204   3.708
56100W        W28525  14.314  44.971  11.993
56101W        W28526   0.873   8.446   4.941
56102W        W28527   4.869  19.389  12.455
56103W        W28528  34.590  17.581   2.410
56104W        W28529   9.889   4.316  11.474
56105W        W28530  32.403  27.637   3.700
56106W        W28531  42.936  27.380  13.951
56107W        W28532  33.505  16.740  10.721
56108W        W28533  13.390   7.373  11.556
56109W        W28534  14.760  17.810  13.104
56110W        W28535   4.698  15.390  12.781
56111W        W28536  37.470  42.107   1.174
56112W        W28537  11.586  41.706   3.192
56113W        W28538   5.651  28.834   4.975
56114W        W28539  17.703   4.225  12.879
56115W        W28540   5.366  28.587   0.449
56116W        W28541  15.758  33.198   2.688
56117W        W28542  20.966   9.995  10.719
56118W        W28543  12.726   6.402   3.177
56119W        W28544  24.076   1.462   0.246
56120W        W28545  13.683  20.306   2.219
56121W        W28546   6.743  35.658  11.128
56122W        W28547  42.425  30.952  11.941
56123W        W28548  23.740   0.729   2.154
56124W        W28549   1.778  24.456  14.766
56125W        W28550  25.530  17.552   2.779
56126W        W28551  43.059  38.095  13.706
56127W        W28552  35.596  24.186  11.009
56128W        W28553  25.606   1.936  14.084
56129W        W28554  40.519  28.965  11.239
56130W        W28555  34.426  11.388   3.710
56131W        W28556  13.098  13.677  13.516
56132W        W28557   4.021  32.069  11.131
56133W        W28558  27.757  41.936  10.541
56134W        W28559  36.366  34.964   3.191
56135W        W28560   0.773   4.824   1.487
56136W        W28561  38.890  28.759   0.660
56137W        W28562  30.455   1.394   4.644
56138W        W28563   7.187  42.967   1.840
56139W        W28564  27.023   2.326   3.267
56140W        W28565   8.304  18.049   3.413
56141W        W28566  40.556  42.856  12.676
56142W        W28567  20.793  26.037   0.246
56143W        W28568  19.947  39.062  13.399
56144W        W28569   5.241  42.499   0.558
56145W        W28570  11.846  31.930  11.270
56146W        W28571  35.037   7.813  12.204
56147W        W28572  37.480   5.197  12.167
56148W        W28573  10.373   4.629  14.743
56149W        W28574   0.660  33.596  13.074
56150W        W28575  24.461  15.787   2.731
56151W        W28576   7.788  37.521  11.873
56152W        W28577  36.963   6.783  14.653
56153W        W28578  40.545  32.920   2.716
56154W        W28579  33.325  29.448  13.497
56155W        W28580   1.237   8.885   3.831
56156W        W28581  21.482  39.617  14.776
56157W        W28582  28.030  20.292   0.334
56158W        W28583  32.539  19.737  13.850
56159W        W28584  40.813  19.718  10.555
56160W        W28585   7.361  40.877   4.730
56161W        W28586  11.584  16.827  13.487
56162W        W28587   5.849   7.812   4.817
56163W        W28588  36.695   0.488   0.997
56164W        W28589  32.504  20.989   0.765
56165W        W28590  22.021  33.422   2.766
56166W        W28591  38.028  39.805   3.243
56167W        W28592  23.075  27.299   2.837
56168W        W28593  42.710  32.112  14.959
56169W        W28594  35.209  14.468  13.999
56170W        W28595  29.664  35.100   1.941
56171W        W28596   8.326  39.775  14.831
56172W        W28597   1.029  19.615  13.920
56173W        W28598   3.281  34.622  14.263
56174W        W28599   5.710  12.916   3.367
56175W        W28600  13.649   4.239  13.583
56176W        W28601  40.512  33.656   4.126
56177W        W28602   2.240  31.414  11.599
56178W        W28603  22.151   6.585  11.706
56179W        W28604  28.504  37.091  11.099
56180W        W28605  41.035  28.289   0.757
56181W        W28606  23.939  42.830   4.232
56182W        W28607  24.169  10.755  13.267
56183W        W28608  22.101   9.390   9.731
56184W        W28609  16.353  44.850   4.664
56185W        W28610  13.723  41.260  11.823
56186W        W28611  30.567  32.590   3.907
56187W        W28612  28.361  16.961  14.901
56188W        W28613  31.037  36.593  11.207
56189W        W28614   6.762  28.691   3.525
56190W        W28615  39.763  27.023  11.963
56191W        W28616   0.306   3.806   3.190
56192W        W28617  33.198   2.940   3.775
56193W        W28618  14.389  28.551  14.232
56194W        W28619  11.844  29.120   3.756
56195W        W28620  30.993  12.928  14.951
56196W        W28621   2.591  13.382   3.256
56197W        W28622   2.992  31.530   3.668
56198W        W28623  10.202  14.554   2.746
56199W        W28624  37.426  10.276  10.691
56200W        W28625  25.285  27.933  10.255
56201W        W28626   9.710   1.553   0.935
56202W        W28627  31.090  39.097   2.347
56203W        W28628  42.778   4.934   4.133
56204W        W28629  23.469   1.158   1.903
56205W        W28630  23.678   5.514  12.832
56206W        W28631   1.378  31.936   0.006
56207W        W28632  38.693  38.529  13.465
56208W        W28633   0.085  32.731  12.941
56209W        W28634  12.271  21.287  10.579
56210W        W28635  33.380  19.983  10.374
56211W        W28636  15.652  25.114  10.909
56212W        W28637  24.518   6.337  13.010
56213W        W28638  21.043  24.777   2.609
56214W        W28639  22.923  29.140  13.362
56215W        W28640  13.693  22.262   2.233
56216W        W28641  24.518  20.336  13.187
56217W        W28642  23.003  14.092  13.015
56218W        W28643   2.478  22.199  14.931
56219W        W28644  19.999  39.307  14.910
56220W        W28645  15.576  21.060   4.999
56221W        W28646  13.952  12.213  14.297
56222W        W28647  12.535  24.724   3.841
56223W        W28648  20.070   9.378   3.336
56224W        W28649  14.709  24.959  13.351
56225W        W28650  39.339  15.078  12.137
56226W        W28651  39.445  27.167   4.518
56227W        W28652  28.955   9.130  10.888
56228W        W28653   8.898  15.813  10.932
56229W        W28654  39.805  41.592  11.740
56230W        W28655  35.548  32.749  11.087
56231W        W28656  17.759   9.577  12.585
56232W        W28657  40.764  26.785  11.616
56233W        W28658  22.628  28.581   4.125
56234W        W28659  32.122  19.705  10.664
56235W        W28660  32.461  35.129   4.587
56236W        W28661   1.039  43.307   2.200
56237W        W28662   7.272  20.590  11.504
56238W        W28663  25.695  28.178   4.729
56239W        W28664  16.003  30.135   2.622
56240W        W28665  12.056  38.026  13.380
56241W        W28666  31.430   7.855  13.738
56242W        W28667  32.551   3.795   3.213
56243W        W28668   4.187  13.783  12.559
56244W        W28669  25.526   5.352  13.909
56245W        W28670  37.855  13.106   0.754
56246W        W28671  22.019  11.906  11.563
56247W        W28672  29.020  21.771   5.072
56248W        W28673  16.818  35.065   0.457
56249W        W28674  19.618  13.209  11.479
56250W        W28675  41.358  19.081  12.118
56251W        W28676  40.437  11.874   1.369
56252W        W28677  16.215  12.358  12.545
56253W        W28678   2.807   8.882  14.243
56254W        W28679  24.133  41.888  14.101
56255W        W28680  28.025  20.739   2.328
56256W        W28681  11.383  31.654  13.383
56257W        W28682  21.778  33.156   2.380
56258W        W28683  13.109  43.267   1.383
56259W        W28684   0.710  14.689   1.785
56260W        W28685  13.817  23.157  14.511
56261W        W28686  32.422  19.254   3.578
56262W        W28687   6.792  27.509   4.709
56263W        W28688   6.374  40.991   0.288
56264W        W28689  38.343   2.033  12.368
56265W        W28690  21.042   9.637  13.941
56266W        W28691  24.576   5.654   0.850
56267W        W28692   6.856  39.269  11.548
56268W        W28693  28.021  18.297   0.341
56269W        W28694  11.755  19.006   1.386
56270W        W28695  35.420  43.641   4.709
56271W        W28696  43.461   3.238   5.131
56272W        W28697  12.178  41.378  10.706
56273W        W28698  12.223  22.553   2.227
56274W        W28699  16.870   5.801  10.623
56275W        W28700  43.221  26.302  11.593
56276W        W28701  40.281   4.181  13.431
56277W        W28702  24.155   5.215   1.846
56278W        W28703  24.979   7.683  13.428
56279W        W28704  40.049   6.136   1.735
56280W        W28705  18.301   8.317  12.609
56281W        W28706   6.210  32.611   2.179
56282W        W28707  44.730  30.412  14.877
56283W        W28708   6.339  22.444  13.322
56284W        W28709   1.441  11.425   2.676
56285W        W28710  19.104  12.267  13.348
56286W        W28711  24.181   3.233  11.686
56287W        W28712  16.974  11.080   2.355
56288W        W28713  20.641  39.496   3.591
56289W        W28714   2.777  43.629   2.595
56290W        W28715  19.815  37.375   0.380
56291W        W28716  33.414  15.759  12.872
56292W        W28717   2.151  40.910  14.945
56293W        W28718  21.169  16.006   0.996
56294W        W28719  26.654  42.800  12.287
56295W        W28720  15.721  11.807   4.097
56296W        W28721   3.526  29.922   2.773
56297W        W28722  12.116  26.105  10.796
56298W        W28723  42.836  44.899  14.895
56299W        W28724  14.109  38.995  14.024
56300W        W28725   4.732  12.297  13.082
56301W        W28726   3.143  43.487  13.907
56302W        W28727  30.114   8.600   1.878
56303W        W28728   5.146  33.397  12.911
56304W        W28729  30.877  21.569   1.756
56305W        W28730  31.651   9.135  11.595
56306W        W28731  23.797  24.488   4.554
56307W        W28732  25.573  37.182   1.499
56308W        W28733  40.898  40.880  12.616
56309W        W28734   1.382  43.029   1.949
56310W        W28735  32.526  26.570   3.817
56311W        W28736  12.229   0.757  13.773
56312W        W28737  24.467   3.381  10.720
56313W        W28738  12.638  39.763   0.737
56314W        W28739  37.970  28.362  14.726
56315W        W28740   2.875  33.040  14.183
56316W        W28741  27.072   1.922  10.768
56317W        W28742  38.385  33.926  13.091
56318W        W28743   7.337  28.655   1.188
56319W        W28744  38.578  27.938   0.774
56320W        W28745   6.389  35.288   3.622
56321W        W28746  40.260  13.563  12.491
56322W        W28747  18.794  28.015   9.872
56323W        W28748  12.349  23.163  13.775
56324W        W28749  20.099  23.112   1.152
56325W        W28750   9.924   2.161  13.895
56326W        W28751   2.653  33.838   3.639
56327W        W28752   2.952  10.394   2.325
56328W        W28753  19.842  29.446  11.132
56329W        W28754  23.288  39.034   3.789
56330W        W28755  39.129   5.586   0.372
56331W        W28756   5.151  33.617   4.605
56332W        W28757  39.849  11.707   2.260
56333W        W28758  12.646  42.828  11.671
56334W        W28759  26.513  12.219   3.235
56335W        W28760  23.212  18.703  10.712
56336W        W28761  32.918  43.013  12.575
56337W        W28762  25.215  22.658   1.731
56338W        W28763  30.165   4.330   2.252
56339W        W28764  16.570  23.533   0.078
56340W        W28765  12.021  12.360   1.583
56341W        W28766  40.617  12.317  14.838
56342W        W28767  32.014   4.824   1.776
56343W        W28768  16.768  23.578  14.380
56344W        W28769  28.945  26.637   0.982
56345W        W28770  10.840   4.087   0.249
56346W        W28771  35.661   8.335  13.315
56347W        W28772  27.987  20.837   0.476
56348W        W28773  13.293   0.952  10.614
56349W        W28774  42.883  30.876   0.038
56350W        W28775   3.746   6.195  13.967
56351W        W28776   0.399  15.076  14.986
56352W        W28777  32.368  15.854  14.285
56353W        W28778  14.758   4.735   3.592
56354W        W28779  27.394  20.201   0.012
56355W        W28780  18.602  28.380   4.236
56356W        W28781   5.736  20.753  12.750
56357W        W28782  40.454  17.297   3.172
56358W        W28783  11.452  23.513  11.899
56359W        W28784  41.933  31.571  14.756
56360W        W28785   7.511  36.325  11.311
56361W        W28786  22.386  40.121   3.284
56362W        W28787  44.886  12.846  13.391
56363W        W28788   0.339  33.042  14.937
56364W        W28789  10.532  30.387  13.469
56365W        W28790  29.388  28.407  12.476
56366W        W28791  11.613  29.139  12.005
56367W        W28792  10.651  33.508  11.593
56368W        W28793   4.976  43.815   2.323
56369W        W28794  39.108  11.300   0.299
56370W        W28795   3.941  18.216  14.751
56371W        W28796  28.691  38.778   5.375
56372W        W28797  12.731  18.128  12.386
56373W        W28798   9.402  35.825  13.469
56374W        W28799   3.001  11.239   2.401
56375W        W28800   5.565  20.039   2.720
56376W        W28801  12.327  44.893   2.846
56377W        W28802  42.533  29.039   1.902
56378W        W28803  41.496  18.822  14.894
56379W        W28804  37.467   6.013   3.266
56380W        W28805  40.844   5.401   0.103
56381W        W28806  11.333  22.019  11.581
56382W        W28807  44.917   8.855   4.706
56383W        W28808  12.746   9.856   1.806
56384W        W28809  16.494  11.392  11.979
56385W        W28810  26.879  19.676   4.432
56386W        W28811  23.636  35.540  10.674
56387W        W28812  12.399  16.486   1.043
56388W        W28813  31.376  35.946  11.855
56389W        W28814   7.997  35.182  10.749
56390W        W28815  16.405  30.839  13.820
56391W        W28816  37.051  38.457   1.626
56392W        W28817  16.870   0.554  12.993
56393W        W28818  38.518  20.064   3.829
56394W        W28819  39.543   3.418  12.484
56395W        W28820  32.032  15.940   3.801
56396W        W28821  10.610  42.744   2.294
56397W        W28822  11.662  33.865   0.215
56398W        W28823   6.248  38.373  10.766
56399W        W28824  37.998  32.201   3.941
56400W        W28825  16.863  15.893   0.736
56401W        W28826  25.936  14.300   3.158
56402W        W28827   5.628  30.084   0.838
56403W        W28828  33.886  44.244   2.483
56404W        W28829   4.714  17.843  14.087
56405W        W28830  27.520   4.753  14.200
56406W        W28831  39.402  44.748  11.561
56407W        W28832  40.285  24.454  14.592
56408W        W28833  42.302  16.971   1.724
56409W        W28834  17.027  13.767  14.345
56410W        W28835  23.601  37.491  11.433
56411W        W28836  25.959   7.830  11.622
56412W        W28837  24.403  32.317   3.889
56413W        W28838  34.125  11.622  11.978
56414W        W28839  30.436  28.628  13.416
56415W        W28840  13.323  21.696   0.837
56416W        W28841  30.613  29.287   3.696
56417W        W28842   9.185  37.340  12.065
56418W        W28843  38.070   2.257  11.215
56419W        W28844  23.054  26.965  10.635
56420W        W28845  40.646   7.641   2.766
56421W        W28846  40.770   0.297  12.875
56422W        W28847  20.049  18.778  13.420
56423W        W28848   7.193   8.576   5.101
56424W        W28849   7.876  41.792  13.069
56425W        W28850  36.121   5.434  12.959
56426W        W28851  33.027  41.551  13.061
56427W        W28852  33.875  15.547   1.092
56428W        W28853  30.166  13.877  11.041
56429W        W28854  11.325  17.259   3.274
56430W        W28855  31.188  31.414  12.342
56431W        W28856  25.598  37.374   3.179
56432W        W28857  14.865  32.065   0.382
56433W        W28858  42.976  40.017  13.012
56434W        W28859  22.483   8.400  13.247
56435W        W28860   6.466  15.393   0.273
56436W        W28861  41.539  30.034   1.625
56437W        W28862  15.272  35.314   2.611
56438W        W28863  32.487  35.093   1.802
56439W        W28864  29.449  44.492   1.678
56440W        W28865  23.719  20.254  11.535
56441W        W28866  31.653  30.018   5.030
56442W        W28867  13.172  35.302  11.479
56443W        W28868  23.501  25.480  10.732
56444W        W28869  32.060  39.134   4.662
56445W        W28870  37.942   1.582   3.233
56446W        W28871  23.653  24.555   2.475
56447W        W28872  10.803  36.396   4.597
56448W        W28873  31.975  16.649   2.145
56449W        W28874  20.062   7.133   2.751
56450W        W28875   9.774   7.371   0.938
56451W        W28876   3.547  14.294  12.011
56452W        W28877  12.360  15.529  11.035
56453W        W28878  15.836  24.240   3.247
56454W        W28879  42.559  18.723   2.798
56455W        W28880  38.519   2.933   0.401
56456W        W28881  28.112  29.115  13.423
56457W        W28882  18.015  37.384   0.277
56458W        W28883  24.666  23.319  12.816
56459W        W28884  14.871  37.003  13.010
56460W        W28885  35.796  11.084  11.090
56461W        W28886  31.899  10.283  11.771
56462W        W28887  12.739  36.037  12.924
56463W        W28888  16.150  41.846  11.042
56464W        W28889  44.295  29.254  12.579
56465W        W28890  39.453  41.882   1.254
56466W        W28891  26.605  19.333  14.708
56467W        W28892  41.818  26.457   2.846
56468W        W28893  21.625  22.361   4.233
56469W        W28894  35.344   1.809   1.806
56470W        W28895  44.354  36.564  10.469
56471W        W28896  44.807   6.834  14.446
56472W        W28897  20.440   5.850   0.981
56473W        W28898  31.884  38.398   0.340
56474W        W28899  20.244  34.108   1.871
56475W        W28900  34.128   3.774  13.369
56476W        W28901   4.048  19.497   1.228
56477W        W28902  14.431  34.527  11.072
56478W        W28903  31.176  33.004  14.125
56479W        W28904   7.192  33.175   4.861
56480W        W28905  39.016  24.032   3.034
56481W        W28906  29.089  35.845  14.759
56482W        W28907  41.571  41.541  14.973
56483W        W28908  21.062  21.271   2.145
56484W        W28909  24.504  41.086   0.760
56485W        W28910   4.073  26.904  14.808
56486W        W28911  38.284  28.722   3.600
56487W        W28912  22.440  14.060  13.002
56488W        W28913   3.839   6.616   3.319
56489W        W28914  35.587   1.815   3.060
56490W        W28915  24.490  43.329   4.609
56491W        W28916   4.806  40.440   0.206
56492W        W28917   8.036  36.250  12.830
56493W        W28918  42.543  30.533   0.287
56494W        W28919  13.117  39.555  11.912
56495W        W28920  29.466  11.859  13.954
56496W        W28921   5.422  18.657   1.918
56497W        W28922  40.527  42.677   4.159
56498W        W28923  17.393  26.215   1.867
56499W        W28924   7.509   8.769  11.469
56500W        W28925  33.990  16.761   4.335
56501W        W28926  23.000  21.120  14.869
56502W        W28927  32.203  42.787  13.399
56503W        W28928  21.682  24.717   0.562
56504W        W28929   1.467  22.929  14.048
56505W        W28930  22.728  39.154   4.604
56506W        W28931   3.161  27.456   3.853
56507W        W28932   8.259  17.932   1.493
56508W        W28933  22.893  16.063  11.873
56509W        W28934  12.361  25.740   2.099
56510W        W28935  34.104  13.896  12.982
56511W        W28936  21.636  43.388   3.646
56512W        W28937   2.230  39.652  10.245
56513W        W28938  15.917  28.604  10.711
56514W        W28939  40.882  20.586   4.982
56515W        W28940  14.123   5.029   1.985
56516W        W28941   4.960  30.994  14.329
56517W        W28942   9.778   9.604  14.436
56518W        W28943  21.743  13.470   4.183
56519W        W28944  37.452  24.643   3.125
56520W        W28945  40.635   9.425   4.546
56521W        W28946  36.500  40.208   4.643
56522W        W28947   1.153  22.699   0.003
56523W        W28948  17.964  38.048  12.552
56524W        W28949  41.330  25.711   3.142
56525W        W28950  20.569  16.174   0.032
56526W        W28951   9.661  23.240   3.822
56527W        W28952   8.070  12.241  10.730
56528W        W28953  19.244   5.665  12.135
56529W        W28954  19.644  30.363   3.257
56530W        W28955  39.758  33.904  10.431
56531W        W28956  23.927   8.659  13.534
56532W        W28957  22.157  21.268  13.387
56533W        W28958  38.340  38.262   1.788
56534W        W28959   1.451  34.719   3.897
56535W        W28960  26.739   2.503  11.934
56536W        W28961   3.995   2.978   1.347
56537W        W28962  39.967  41.722   2.241
56538W        W28963  41.130  44.779  10.512
56539W        W28964  12.194  17.743  14.688
56540W        W28965  18.025  44.449  11.993
56541W        W28966  33.317  21.155  11.533
56542W        W28967  42.277   8.718  13.499
56543W        W28968  34.002  13.644   1.419
56544W        W28969  31.947   4.780  13.994
56545W        W28970  44.282  34.047  12.195
56546W        W28971  39.528  16.670   3.677
56547W        W28972  30.592   3.544   2.453
56548W        W28973  29.057  37.280  14.425
56549W        W28974  21.623  27.829   0.683
56550W        W28975   7.224  33.691   4.797
56551W        W28976  21.773  25.539  13.947
56552W        W28977  10.528   0.851  14.530
56553W        W28978  32.855  18.317  13.996
56554W        W28979  41.815   5.446   2.852
56555W        W28980  25.701  24.162   4.793
56556W        W28981   6.798   2.143   1.380
56557W        W28982   7.288   1.233   2.341
56558W        W28983   8.764   8.589   3.588
56559W        W28984  16.381   1.265  11.919
56560W        W28985  41.624   6.850   1.870
56561W        W28986  32.320  21.174  11.514
56562W        W28987  18.216   9.670   4.536
56563W        W28988  11.147  19.687  13.177
56564W        W28989  29.011  43.603   1.832
56565W        W28990  19.685  36.922  11.114
56566W        W28991   2.349  34.067  13.566
56567W        W28992  19.692   0.644   3.635
56568W        W28993  16.789  37.022   0.760
56569W        W28994  29.662  14.586   3.710
56570W        W28995   9.422  33.980  11.848
56571W        W28996  42.789  25.628   4.131
56572W        W28997  20.335  28.635  14.099
56573W        W28998  36.473  43.628   1.534
56574W        W28999  36.590  38.061   2.722
56575W        W29000  39.886  16.147   2.302
56576W        W29001  39.467  11.808   4.160
56577W        W29002  39.462  43.374   0.075
56578W        W29003  44.978   4.985   3.696
56579W        W29004  22.488  13.271   0.237
56580W        W29005  31.891   7.132   1.117
56581W        W29006   7.456  16.212  12.122
56582W        W29007  33.382  43.241  13.766
56583W        W29008  16.051  31.363   5.401
56584W        W29009  29.142  42.851   1.261
56585W        W29010  41.803  16.132   1.153
56586W        W29011  39.726  15.840  12.401
56587W        W29012  21.027  25.627   4.170
56588W        W29013  28.113   4.936   5.074
56589W        W29014  11.467  15.589  13.080
56590W        W29015  10.405  22.118  10.627
56591W        W29016  19.711   1.500  14.870
56592W        W29017  18.453   4.641   4.932
56593W        W29018  43.831  25.639  14.504
56594W        W29019  39.422   2.104  13.792
56595W        W29020  43.430  33.804   9.907
56596W        W29021  41.344  24.714   2.198
56597W        W29022  18.496  18.708  13.351
56598W        W29023   7.176   1.346   4.643
56599W        W29024  44.991  26.913   0.198
56600W        W29025  19.391  19.217   2.059
56601W        W29026  26.015  16.095   2.662
56602W        W29027   6.588  19.591   4.563
56603W        W29028  34.137   5.266  11.996
56604W        W29029  27.286  43.872  13.032
56605W        W29030  10.866  25.644  10.914
56606W        W29031  40.198  26.414  13.114
56607W        W29032  23.842  28.563   2.659
56608W        W29033  44.902  27.265   1.748
56609W        W29034  17.234   0.543   2.609
56610W        W29035  27.473  44.337  12.903
56611W        W29036  33.577  31.186   0.014
56612W        W29037   8.855   0.229  12.979
56613W        W29038  36.356   4.814  14.316
56614W        W29039  21.739  35.883   1.792
56615W        W29040  40.418  22.012   1.417
56616W        W29041  26.012   6.255   2.416
56617W        W29042  13.330  32.462   2.415
56618W        W29043  11.123  25.832  13.050
56619W        W29044  20.722   4.798  12.582
56620W        W29045  20.994  13.711  10.711
56621W        W29046  30.172  37.738  14.704
56622W        W29047   0.262  14.904   3.241
56623W        W29048  40.036  27.968  13.858
56624W        W29049   4.411  23.213  11.529
56625W        W29050  23.818  24.241  12.528
56626W        W29051  21.374  15.883  11.516
56627W        W29052  42.141   5.410  13.312
56628W        W29053  33.385  44.932   3.176
56629W        W29054  32.334   3.343   2.362
56630W        W29055  25.153  22.566  11.535
56631W        W29056   4.675  14.274   1.876
56632W        W29057  22.013   8.335  14.883
56633W        W29058  22.275  34.570   0.719
56634W        W29059  10.183  15.826   3.179
56635W        W29060  19.313  19.942   4.721
56636W        W29061  18.188   3.187   3.159
56637W        W29062  32.517  44.645  14.415
56638W        W29063   6.649   6.976   1.464
56639W        W29064  25.459  20.629   3.626
56640W        W29065  43.446   1.192  11.128
56641W        W29066  23.031  25.583   4.503
56642W        W29067  14.066  40.399   4.555
56643W        W29068  29.616  37.887   3.522
56644W        W29069  10.844   4.397  14.821
56645W        W29070   2.336  39.297  13.634
56646W        W29071  16.840  43.143  11.134
56647W        W29072   6.783  29.566  10.955
56648W        W29073  42.276   1.251  14.445
56649W        W29074   6.647   2.439   1.873
56650W        W29075  38.596   8.869  14.807
56651W        W29076  36.336  14.317   3.849
56652W        W29077  40.826  31.110   1.054
56653W        W29078  15.432  12.923  13.979
56654W        W29079  40.016  44.091   0.303
56655W        W29080  28.130  21.837   9.932
56656W        W29081  35.876  18.723  12.879
56657W        W29082   5.751  37.847   3.664
56658W        W29083   3.696   4.112  12.378
56659W        W29084  25.727   0.883   2.360
56660W        W29085  32.695  17.967  11.433
56661W        W29086  20.610  37.089  14.348
56662W        W29087  16.159  10.008   1.804
56663W        W29088   6.259   5.097   3.795
56664W        W29089  42.274  32.583  13.080
56665W        W29090  33.450  43.215  10.371
56666W        W29091  44.315  29.487   1.406
56667W        W29092   7.804   7.409   2.862
56668W        W29093  31.091  21.609  10.587
56669W        W29094  30.007  38.064  13.766
56670W        W29095  15.893  40.865   4.061
56671W        W29096  18.199  29.707   1.375
56672W        W29097  12.131  24.430   3.773
56673W        W29098  30.215  23.505  12.081
56674W        W29099  15.958  31.593  11.277
56675W        W29100  11.602   6.967  14.518
56676W        W29101   1.806  10.930  13.844
56677W        W29102  15.203  13.769  13.655
56678W        W29103  12.829  34.989   1.901
56679W        W29104   3.738  42.835   4.390
56680W        W29105  11.341  28.780   2.188
56681W        W29106   4.269  38.102   2.193
56682W        W29107  20.624   0.190   0.290
56683W        W29108  29.170  14.745   2.283
56684W        W29109  30.874  37.064   3.074
56685W        W29110  18.624   5.523   1.014
56686W        W29111  28.157  36.834  14.905
56687W        W29112  14.446   6.152   4.606
56688W        W29113  11.905  16.429  13.476
56689W        W29114  12.107  11.155   4.215
56690W        W29115  14.248   4.516  13.880
56691W        W29116  31.374  39.915  14.045
56692W        W29117  41.590  14.108   4.592
56693W        W29118  30.710  29.503  12.811
56694W        W29119  37.990  38.962  14.799
56695W        W29120   3.483   1.472   1.209
56696W        W29121   7.441  13.283  14.415
56697W        W29122  34.563   0.025   2.306
56698W        W29123   1.482   0.897  11.020
56699W        W29124  26.461  37.528  14.334
56700W        W29125  12.849   0.277   3.621
56701W        W29126   7.412  22.715   3.362
56702W        W29127  31.589   0.918   2.754
56703W        W29128  33.175   4.928   1.103
56704W        W29129  24.712  38.515   4.080
56705W        W29130   9.326   0.015  13.100
56706W        W29131  13.328   2.383   3.395
56707W        W29132  25.915  33.671   3.688
56708W        W29133   6.808  22.125   2.764
56709W        W29134  19.833   0.513  10.990
56710W        W29135  34.012  34.579  10.614
56711W        W29136  20.741   1.069  14.341
56712W        W29137   1.029  38.105   3.673
56713W        W29138  27.833  35.801   2.156
56714W        W29139  18.829   3.392   4.414
56715W        W29140  36.531  28.814  13.834
56716W        W29141  24.626  37.184  13.581
56717W        W29142  32.949  19.769   2.714
56718W        W29143   2.753  10.647   3.659
56719W        W29144  20.159  13.758  13.974
56720W        W29145  23.094   7.352  12.401
56721W        W29146  28.430  42.771  10.458
56722W        W29147  18.863  42.143   3.246
56723W        W29148  12.604  39.406  11.174
56724W        W29149  21.584  16.176  12.372
56725W        W29150  18.762  31.549   1.394
56726W        W29151  30.863  10.760  13.160
56727W        W29152  30.146  33.472   3.110
56728W        W29153   6.001  35.142   0.791
56729W        W29154  39.345  17.793   2.241
56730W        W29155  27.433  27.601  14.312
56731W        W29156  19.968  32.078   1.836
56732W        W29157  40.374   1.251   0.359
56733W        W29158  43.305  38.529  12.967
56734W        W29159   7.023  36.034  12.118
56735W        W29160   1.917  35.108  10.459
56736W        W29161  38.643  29.169   0.856
56737W        W29162  16.712   4.448  11.869
56738W        W29163  23.485  29.501   1.815
56739W        W29164  17.138  22.903   5.049
56740W        W29165   9.263  16.410  11.224
56741W        W29166  25.720   9.224   4.237
56742W        W29167  19.841  19.755   0.348
56743W        W29168  33.622  39.905  12.550
56744W        W29169  34.291  30.898   2.810
56745W        W29170  25.731  27.629   4.785
56746W        W29171  39.300  23.233  12.342
56747W        W29172  17.061   7.465   3.566
56748W        W29173  35.515  33.915   0.783
56749W        W29174  36.366   7.341  12.539
56750W        W29175  33.237   3.815   4.659
56751W        W29176   7.971  43.359  12.231
56752W        W29177  34.325  15.248   2.628
56753W        W29178  21.800   7.752  14.056
56754W        W29179   4.155  10.696   2.785
56755W        W29180  16.844  34.395   4.041
56756W        W29181  12.206  26.791  11.985
56757W        W29182  23.357  29.279   4.263
56758W        W29183  19.050  18.605  12.057
56759W        W29184  44.441  25.139  12.458
56760W        W29185  34.921  28.153  11.157
56761W        W29186  31.647  19.931  14.704
56762W        W29187  19.085  42.926  12.335
56763W        W29188  39.092  10.743   3.709
56764W        W29189  44.875  10.620   2.285
56765W        W29190  22.249  35.000   3.738
56766W        W29191  18.290  34.504  13.741
56767W        W29192  28.475  29.978  13.839
56768W        W29193  31.138   8.531  11.123
56769W        W29194  33.487  34.714  13.815
56770W        W29195  35.032  26.444   5.050
56771W        W29196  41.927  28.273   4.197
56772W        W29197  10.307  25.184  12.166
56773W        W29198  34.165  19.092   1.777
56774W        W29199  12.112   6.889   3.716
56775W        W29200  14.867  40.763   0.291
56776W        W29201  18.342  19.743   3.300
56777W        W29202   1.990  32.606   2.199
56778W        W29203  23.752  27.011   0.981
56779W        W29204  26.542  27.057   3.598
56780W        W29205  23.854  39.285   2.744
56781W        W29206  24.952  36.297  14.846
56782W        W29207  28.695  39.492   3.692
56783W        W29208  18.568  38.843  11.519
56784W        W29209  14.189  43.943   4.853
56785W        W29210   8.536  12.828   4.029
56786W        W29211   3.151  18.187   2.684
56787W        W29212  29.247  35.792   2.214
56788W        W29213  13.823  37.514   0.876
56789W        W29214  40.498  31.949   1.617
56790W        W29215  33.992  22.741  13.511
56791W        W29216  36.950  26.260  12.939
56792W        W29217   7.034  18.037   1.022
56793W        W29218  11.553  34.954  15.000
56794W        W29219  23.316   6.792   1.791
56795W        W29220  16.930   1.862  12.824
56796W        W29221  17.596  44.390  13.474
56797W        W29222  43.710  22.539  11.883
56798W        W29223  42.985  32.449  14.197
56799W        W29224  40.531  31.419   3.894
56800W        W29225  15.267  28.865  12.592
56801W        W29226  28.573   0.284  14.907
56802W        W29227  24.490  33.682   2.157
56803W        W29228   8.461  36.999  12.412
56804W        W29229  18.586  38.528   0.923
56805W        W29230   5.494  39.401  14.858
56806W        W29231  24.211  24.671   0.404
56807W        W29232  42.844  12.320  12.117
56808W        W29233  11.170   4.770   1.822
56809W        W29234  42.404  27.738   3.674
56810W        W29235   4.781  22.948   0.142
56811W        W29236  35.536  41.960  13.477
56812W        W29237  25.747  34.673   3.613
56813W        W29238   6.942  14.901  12.944
56814W        W29239  26.856  18.150   1.809
56815W        W29240  26.294  44.903  13.423
56816W        W29241  40.436  35.514   3.841
56817W        W29242  30.772  14.542   4.741
56818W        W29243  28.628  25.431  11.487
56819W        W29244  24.612  13.614   0.057
56820W        W29245   2.844  43.297  13.488
56821W        W29246  16.927  33.480  14.349
56822W        W29247  32.328   3.951  14.346
56823W        W29248  44.736  17.519   3.255
56824W        W29249  18.992  42.633  14.736
56825W        W29250  19.268  39.271  10.207
56826W        W29251  14.762  28.616   1.814
56827W        W29252  26.947  21.197  10.976
56828W        W29253  39.356  13.855  14.060
56829W        W29254  21.177   6.941   0.804
56830W        W29255   4.375   6.653   0.485
56831W        W29256  17.531  37.030  13.984
56832W        W29257  31.513  18.596   2.205
56833W        W29258   3.233  26.033   1.309
56834W        W29259  24.523  18.670   2.947
56835W        W29260  19.941  29.555   4.658
56836W        W29261   0.788  40.932  13.479
56837W        W29262  20.045  20.988  14.438
56838W        W29263  21.211  21.752  12.125
56839W        W29264  30.757  21.542   2.766
56840W        W29265  27.838  32.484  11.045
56841W        W29266  44.003  27.204  13.482
56842W        W29267  13.690  42.006   1.243
56843W        W29268  34.919  15.500  11.128
56844W        W29269  16.252  31.450   0.935
56845W        W29270  14.323  34.501  13.875
56846W        W29271  15.571   2.529  11.927
56847W        W29272   0.238  12.679  12.549
56848W        W29273  36.694  14.324   1.322
56849W        W29274  39.435  14.565   0.829
56850W        W29275   0.967  10.877   0.209
56851W        W29276  15.310  38.364  13.387
56852W        W29277  25.670   4.638   2.251
56853W        W29278  32.401  35.908  10.404
56854W        W29279   0.917  22.552   3.964
56855W        W29280  23.132  18.750   3.353
56856W        W29281   3.423   1.741   2.477
56857W        W29282  44.807  16.463   2.391
56858W        W29283  42.088  26.063   2.682
56859W        W29284   7.702  33.642   0.974
56860W        W29285   0.429   5.385   4.208
56861W        W29286  23.750  36.199   2.633
56862W        W29287   0.897  41.365   3.106
56863W        W29288  39.816  41.012  13.945
56864W        W29289   0.588   2.347  11.852
56865W        W29290  43.478  20.666  10.819
56866W        W29291  44.785  34.478  14.557
56867W        W29292  15.822  33.570   3.968
56868W        W29293   4.022  42.857  10.717
56869W        W29294  11.040  28.958   4.193
56870W        W29295  25.116   2.826   2.111
56871W        W29296  20.741   8.887   2.923
56872W        W29297   7.973  15.316   1.451
56873W        W29298   4.870   4.868   0.749
56874W        W29299  19.033  43.064  12.823
56875W        W29300   1.390   7.374   2.693
56876W        W29301  24.183  34.497   2.200
56877W        W29302  22.783  19.535   3.748
56878W        W29303   3.775  22.083  10.281
56879W        W29304  23.517  11.846  10.006
56880W        W29305  37.955  27.353   3.612
56881W        W29306  39.714  25.967   3.668
56882W        W29307  39.007  10.153  12.372
56883W        W29308  37.071  13.900  14.547
56884W        W29309  44.096  33.176   1.924
56885W        W29310  14.269  19.000  13.414
56886W        W29311  40.799  43.164  14.522
56887W        W29312  35.897   2.356   3.155
56888W        W29313   0.201  18.098   4.826
56889W        W29314   6.642  41.559  14.332
56890W        W29315  16.133   0.933  12.878
56891W        W29316  37.793   7.334  12.441
56892W        W29317  17.885  18.248  11.557
56893W        W29318  22.124  29.232   3.323
56894W        W29319  32.384  31.167  12.146
56895W        W29320  27.268   0.890   2.362
56896W        W29321  23.117   2.897  11.936
56897W        W29322  24.567   5.007   3.170
56898W        W29323  35.160  19.582   1.904
56899W        W29324   9.415   9.667  12.993
56900W        W29325  29.102  32.874  10.777
56901W        W29326  11.896   2.063  11.724
56902W        W29327  21.174   3.642   2.685
56903W        W29328   0.958  14.040   4.619
56904W        W29329  22.069  38.055  14.978
56905W        W29330  28.848   6.896  11.489
56906W        W29331  31.923  11.196  13.518
56907W        W29332  13.264  23.634   4.735
56908W        W29333  28.224  26.621   3.555
56909W        W29334  20.765   7.693   2.285
56910W        W29335  12.852  32.524  12.399
56911W        W29336  10.080  16.354   3.259
56912W        W29337   5.248  32.107   1.452
56913W        W29338  14.440  29.646  14.828
56914W        W29339   4.539  36.351   1.199
56915W        W29340  15.832  16.846  14.430
56916W        W29341  41.344  35.480  12.717
56917W        W29342  26.223  15.730  12.957
56918W        W29343  22.486  44.472   4.598
56919W        W29344  36.046   0.935  10.611
56920W        W29345  32.862  18.892   4.411
56921W        W29346  25.986   2.839   0.799
56922W        W29347  42.644  10.079  11.962
56923W        W29348  14.268  36.387   1.068
56924W        W29349  18.211  34.161   1.492
56925W        W29350  34.683  24.746  12.045
56926W        W29351  40.139   2.254   2.727
56927W        W29352  41.699  10.296   1.446
56928W        W29353  29.487  25.949   0.806
56929W        W29354  39.753  41.837  12.685
56930W        W29355   3.360  18.814   2.034
56931W        W29356  22.738   1.898  14.392
56932W        W29357  20.449  12.868   1.159
56933W        W29358  32.306  22.150   0.415
56934W        W29359  19.786  41.022   0.892
56935W        W29360  35.940  31.602   0.559
56936W        W29361  44.787  39.073   3.396
56937W        W29362   3.861   5.549   1.686
56938W        W29363  43.433  22.821   1.737
56939W        W29364  22.610   8.383  10.760
56940W        W29365  12.376  44.407  11.881
56941W        W29366  14.739   9.399   2.898
56942W        W29367  28.418  30.982   4.293
56943W        W29368  22.443  18.608  11.108
56944W        W29369  15.805   8.319  11.057
56945W        W29370  23.672  19.930  12.967
56946W        W29371  13.322  14.804   0.055
56947W        W29372   0.297   5.739  11.761
56948W        W29373   8.147  31.461  12.567
56949W        W29374  14.231  30.273   1.367
56950W        W29375  33.918  25.123  12.400
56951W        W29376  33.615  35.158  13.585
56952W        W29377  33.168  40.778   0.870
56953W        W29378  23.320  22.124   3.104
56954W        W29379  11.723   2.392  12.120
56955W        W29380  36.334  18.895  14.442
56956W        W29381   7.790  29.395   0.691
56957W        W29382  33.973  18.727  13.076
56958W        W29383  10.670  33.499   3.105
56959W        W29384  34.016  28.475   1.620
56960W        W29385   1.961   4.257   4.580
56961W        W29386  35.739   8.454   0.449
56962W        W29387   4.852   0.960  13.873
56963W        W29388  30.405  42.509   4.289
56964W        W29389  18.782  28.427   3.760
56965W        W29390  37.095  42.285  11.980
56966W        W29391   1.807  21.076   3.656
56967W        W29392  17.304  39.801   4.433
56968W        W29393  20.226  30.465  13.894
56969W        W29394  34.074  31.953  10.682
56970W        W29395  25.662  38.472  10.723
56971W        W29396  16.706   0.205  11.666
56972W        W29397   5.362  16.561  11.653
56973W        W29398   8.677  30.417   3.661
56974W        W29399   8.903  31.444   2.197
56975W        W29400  43.241  24.484   1.857
56976W        W29401  16.657  30.152  14.384
56977W        W29402  11.824  29.123   1.337
56978W        W29403  20.578  24.352  14.459
56979W        W29404  28.683   4.382   4.062
56980W        W29405  44.433   6.238   4.171
56981W        W29406  30.461  26.265   0.394
56982W        W29407  22.558  16.994   0.709
56983W        W29408   1.180  15.238  12.811
56984W        W29409   1.305  10.181   3.320
56985W        W29410  26.509  20.954  11.528
56986W        W29411  35.486  21.073   3.853
56987W        W29412  36.420   3.343  14.408
56988W        W29413  12.838  24.486   3.379
56989W        W29414   9.297  28.125   1.303
56990W        W29415  14.715  16.365   0.814
56991W        W29416  29.567  24.071   4.060
56992W        W29417  22.500  11.151   4.730
56993W        W29418  22.539   6.915   0.417
56994W        W29419  44.725  38.541  13.052
56995W        W29420  36.138  10.954  14.356
56996W        W29421  43.784  17.331   1.736
56997W        W29422  38.390  25.655   3.211
56998W        W29423   6.494  10.139  12.292
56999W        W29424   6.397  29.982   2.632
57000W        W29425  44.259   2.387  13.296
57001W        W29426  43.887   8.096   4.772
57002W        W29427   4.508  20.765  11.005
57003W        W29428  33.014   3.319   3.427
57004W        W29429   4.818  27.484  11.628
57005W        W29430  20.630  19.847  12.501
57006W        W29431  41.785  12.354  12.980
57007W        W29432   1.203  11.111  11.421
57008W        W29433  26.748  30.528   3.198
57009W        W29434  28.183   4.466  13.806
57010W        W29435  29.381  44.161   5.184
57011W        W29436  18.726   7.290  12.684
57012W        W29437  22.605   9.261   9.775
57013W        W29438   4.009  12.258   3.785
57014W        W29439  16.008   4.916   2.693
57015W        W29440  10.229  15.287  12.882
57016W        W29441  21.223  34.064   2.757
57017W        W29442  37.860  37.330   4.180
57018W        W29443  22.050  32.961  12.072
57019W        W29444  22.281  18.090  12.371
57020W        W29445  44.755  15.646   1.833
57021W        W29446   8.510  34.938  14.745
57022W        W29447  27.024   2.003  11.992
57023W        W29448  32.199   1.167   4.413
57024W        W29449  24.043  42.295   1.291
57025W        W29450  41.588  14.455   4.029
57026W        W29451  41.358  43.534   3.207
57027W        W29452  42.247  10.209   1.807
57028W        W29453   6.205  38.522   3.357
57029W        W29454   3.960  16.826  14.883
57030W        W29455  12.463  34.093   0.539
57031W        W29456  37.980  29.257  12.232
57032W        W29457  31.167  13.029   4.886
57033W        W29458  37.727  34.837  13.875
57034W        W29459   9.758  38.990   1.770
57035W        W29460  33.171  22.672   2.863
57036W        W29461  37.970   2.532   2.233
57037W        W29462  38.127  21.006  11.412
57038W        W29463  31.939  20.257   2.434
57039W        W29464   5.373   0.669  11.593
57040W        W29465  42.549  33.876   4.650
57041W        W29466   9.337   4.267  12.986
57042W        W29467   9.047   0.241   2.902
57043W        W29468  35.147  24.664   3.742
57044W        W29469   5.367  33.661  10.724
57045W        W29470  23.792  43.961  14.400
57046W        W29471  29.976  33.367   1.687
57047W        W29472  29.417  27.939   4.166
57048W        W29473  14.649   0.484  14.521
57049W        W29474  22.599  29.080  14.033
57050W        W29475   4.154  19.822  12.393
57051W        W29476  13.908   3.952   2.735
57052W        W29477  25.758  28.413  12.103
57053W        W29478   7.844  27.746  12.930
57054W        W29479  13.363   6.866  13.582
57055W        W29480  13.410  18.636  14.449
57056W        W29481  27.073  22.774  11.944
57057W        W29482  16.116  29.559   4.845
57058W        W29483   7.289  24.945  11.790
57059W        W29484  20.655  23.295   1.720
57060W        W29485  42.037   1.373   1.222
57061W        W29486  26.504  10.669   2.322
57062W        W29487   4.051  39.838  11.926
57063W        W29488  30.009  21.821   2.803
57064W        W29489   4.332  43.001  11.637
57065W        W29490   2.577  43.392   4.768
57066W        W29491  16.185  29.420  14.463
57067W        W29492  39.996   1.075   0.699
57068W        W29493   8.273  39.049   1.754
57069W        W29494  23.219  16.293   0.817
57070W        W29495  27.183  33.137   3.835
57071W        W29496  44.490   2.416   4.205
57072W        W29497  29.852  12.742   3.229
57073W        W29498   0.960  14.072  13.444
57074W        W29499   3.802   1.435  13.304
57075W        W29500  21.153  31.583  14.413
57076W        W29501  35.139  42.640  11.474
57077W        W29502   4.509   6.191  12.561
57078W        W29503   6.409  41.355  11.117
57079W        W29504   9.342  44.694   1.890
57080W        W29505  36.863  14.621   4.193
57081W        W29506  21.351   1.851   4.326
57082W        W29507  21.696   5.459   2.172
57083W        W29508   6.860   1.210   3.207
57084W        W29509   2.996  39.372  10.721
57085W        W29510   8.157  41.265  13.436
57086W        W29511  18.011  26.487  12.842
57087W        W29512  12.625  32.703   1.052
57088W        W29513  24.381  26.126   4.423
57089W        W29514  34.009  31.944  12.059
57090W        W29515  20.196  18.056   5.048
57091W        W29516  11.971  36.098  11.051
57092W        W29517  25.055  17.554  11.904
57093W        W29518  26.357  30.606  12.520
57094W        W29519  17.675  38.921  12.888
57095W        W29520  19.181  34.394  11.613
57096W        W29521  29.103   2.507   2.568
57097W        W29522  16.602  23.985  12.110
57098W        W29523  12.759   5.589  12.578
57099W        W29524  37.598  34.904  12.334
57100W        W29525  39.627   1.764  14.470
57101W        W29526  30.584  12.239  14.801
57102W        W29527  36.042  39.063  14.096
57103W        W29528  14.459  38.984  13.155
57104W        W29529   8.216  37.873   3.137
57105W        W29530  23.573   2.746  12.119
57106W        W29531  22.735   5.257   4.607
57107W        W29532  44.314  20.303   2.771
57108W        W29533  35.073  31.956   3.532
57109W        W29534  17.476  38.485  11.871
57110W        W29535  41.685   1.483   4.397
57111W        W29536  12.991  21.012  13.409
57112W        W29537  32.450  21.817   3.109
57113W        W29538  15.446  23.418   3.244
57114W        W29539  19.000  23.180   3.391
57115W        W29540   8.189  21.560  11.375
57116W        W29541  24.909   5.169   2.324
57117W        W29542  11.549  33.611  14.409
57118W        W29543  22.785   3.455   3.274
57119W        W29544  43.514   7.268  14.846
57120W        W29545   8.331  15.539  12.887
57121W        W29546   0.772  34.252   2.272
57122W        W29547  28.858  21.109  10.980
57123W        W29548   9.055  41.411   0.866
57124W        W29549  35.747  17.806   4.227
57125W        W29550   3.807  41.026  12.522
57126W        W29551  33.960   3.729  13.836
57127W        W29552  35.076  38.538   0.898
57128W        W29553   8.790  22.444   3.852
57129W        W29554  24.249   5.732  11.560
57130W        W29555  17.553  43.920  12.547
57131W        W29556   0.306  28.099  12.036
57132W        W29557  40.693  30.825  14.305
57133W        W29558  38.349  30.996  12.939
57134W        W29559  38.096  26.218  12.933
57135W        W29560  17.600  36.425  14.826
57136W        W29561  31.965  37.425   4.547
57137W        W29562  38.294  43.919   0.486
57138W        W29563  12.385  19.835   0.329
57139W        W29564  37.880  37.307   3.317
57140W        W29565  28.312  31.888  12.471
57141W        W29566  26.052  33.988   2.320
57142W        W29567  28.139  28.223  13.430
57143W        W29568  21.278  43.828  10.626
57144W        W29569   0.805  36.998  10.719
57145W        W29570  32.058  41.218   3.627
57146W        W29571   5.142   2.235   1.821
57147W        W29572  30.842  29.450  14.306
57148W        W29573  21.163  33.071  12.608
57149W        W29574  44.963  26.148   1.743
57150W        W29575  12.561  39.211   3.717
57151W        W29576  38.821  12.686   0.764
57152W        W29577  32.872   7.892  14.602
57153W        W29578  29.290   4.079  12.468
57154W        W29579  41.297  44.924  14.978
57155W        W29580  42.904  44.676   2.140
57156W        W29581  37.614   4.291   4.762
57157W        W29582  38.110  42.807   3.949
57158W        W29583  36.702  42.694   9.839
57159W        W29584  16.781   8.796   2.259
57160W        W29585  13.710  11.605   0.004
57161W        W29586  39.827  14.183   0.826
57162W        W29587   2.018   3.886  13.464
57163W        W29588  16.859  35.973  11.543
57164W        W29589  25.660  33.645   1.115
57165W        W29590  22.581  34.038  12.986
57166W        W29591   5.854  31.706  13.142
57167W        W29592  23.302   5.020   1.675
57168W        W29593  44.549   3.309  13.832
57169W        W29594  23.248  17.905  12.880
57170W        W29595  30.252  10.831   2.557
57171W        W29596  37.954   0.024   3.285
57172W        W29597  11.850   9.847  14.701
57173W        W29598  35.714  37.069  11.797
57174W        W29599  22.495  41.043  13.627
57175W        W29600   5.005  25.983   1.713
57176W        W29601  44.336  13.435   3.757
57177W        W29602  35.936  16.213   3.489
57178W        W29603  23.701   0.988  11.920
57179W        W29604  25.691   4.401   1.286
57180W        W29605   2.782  27.117  13.604
57181W        W29606   8.870   2.751   3.346
57182W        W29607  20.629  22.447   2.816
57183W        W29608  23.838  25.656  12.427
57184W        W29609   0.975   5.414  11.703
57185W        W29610   0.942  13.755  13.851
57186W        W29611  39.945  23.189   2.440
57187W        W29612   1.539  40.941  14.291
57188W        W29613  34.407  35.037  12.593
57189W        W29614  28.940  17.285  13.603
57190W        W29615  42.049   4.800  11.203
57191W        W29616  36.259  18.122   1.290
57192W        W29617  41.058   8.255  12.667
57193W        W29618  30.889  14.250   2.255
57194W        W29619  14.673  28.726  11.045
57195W        W29620   4.478  21.062  14.379
57196W        W29621   8.272   1.483  14.822
57197W        W29622  16.571  25.226  14.855
57198W        W29623   7.307   4.841  11.719
57199W        W29624  32.366  42.569  13.837
57200W        W29625  30.219   2.171  10.966
57201W        W29626  24.964   3.737   2.312
57202W        W29627  31.588   9.119   2.290
57203W        W29628   1.671  40.524  13.997
57204W        W29629   1.724  28.501  13.510
57205W        W29630  40.812  10.802   1.980
57206W        W29631   1.342  34.896  12.058
57207W        W29632  25.992  17.280  11.425
57208W        W29633   6.270  24.160  12.039
57209W        W29634  26.528  27.492   3.316
57210W        W29635   2.543  13.273  12.191
57211W        W29636   4.825  32.998   4.803
57212W        W29637   1.710  11.669   2.313
57213W        W29638  20.915   2.903   2.259
57214W        W29639   8.493  14.414   2.179
57215W        W29640   9.989  30.431   4.169
57216W        W29641  23.514  24.938   2.801
57217W        W29642  18.759  25.851   0.352
57218W        W29643  38.266  40.988   1.799
57219W        W29644  39.037   7.140   0.933
57220W        W29645  10.157  28.401  13.923
57221W        W29646  41.061  39.760  11.204
57222W        W29647   2.169  37.471  14.889
57223W        W29648  32.646  13.764  11.033
57224W        W29649  35.773  33.170  11.581
57225W        W29650  41.839  44.860   2.371
57226W        W29651  37.667  33.500   0.095
57227W        W29652  33.631  31.466  14.306
57228W        W29653  33.209  17.207   4.872
57229W        W29654   9.329  28.000  14.400
57230W        W29655  34.313  11.779   3.385
57231W        W29656  29.025  30.200   3.202
57232W        W29657   9.272  19.048  14.976
57233W        W29658  30.851  10.879  10.427
57234W        W29659  19.740   9.343   2.804
57235W        W29660  19.592  27.903  11.275
57236W        W29661  16.512  33.372   0.667
57237W        W29662  13.916  42.397   4.906
57238W        W29663  13.640  29.059  14.363
57239W        W29664  30.568  17.081  11.622
57240W        W29665  33.657  22.304  11.015
57241W        W29666  36.547  27.182   2.737
57242W        W29667   6.832  12.669  10.821
57243W        W29668  40.646  42.352   4.570
57244W        W29669  13.264   3.499   3.290
57245W        W29670  11.684  22.394   0.782
57246W        W29671  39.627  13.878   1.251
57247W        W29672  12.823  25.104  13.281
57248W        W29673  39.795  26.337   0.039
57249W        W29674  43.123   3.318  12.093
57250W        W29675  30.526   5.166   1.788
57251W        W29676  14.227  15.154  13.526
57252W        W29677  37.733  42.444  14.787
57253W        W29678  30.546  30.958   2.676
57254W        W29679   8.755  33.137  10.943
57255W        W29680  35.995  27.683   3.440
57256W        W29681  23.193  32.281  10.695
57257W        W29682  44.848   4.221   4.656
57258W        W29683  12.890   4.913   2.369
57259W        W29684   9.091  22.798   4.054
57260W        W29685  32.094  23.817  11.975
57261W        W29686  42.834  31.730   0.784
57262W        W29687  38.122  29.135   0.868
57263W        W29688   6.724  30.003  11.622
57264W        W29689  14.256  44.557   3.715
57265W        W29690  29.566  19.991   2.415
57266W        W29691  21.864   3.655   0.792
57267W        W29692  24.761  31.895  12.441
57268W        W29693  27.618   9.192   4.558
57269W        W29694  24.832   9.342  13.582
57270W        W29695  21.241   9.759   9.854
57271W        W29696  40.745  37.808  11.218
57272W        W29697  23.676   1.653   1.923
57273W        W29698  23.158  20.193   4.740
57274W        W29699  37.218  11.887   3.568
57275W        W29700  35.479   3.442   4.279
57276W        W29701  28.588  10.627   0.755
57277W        W29702  42.365  23.274  12.629
57278W        W29703  42.307  23.187  10.723
57279W        W29704  22.547  27.734  10.707
57280W        W29705   8.386   3.736   4.607
57281W        W29706  37.693  20.673  10.426
57282W        W29707   0.542   1.017  11.159
57283W        W29708  33.942  33.830  11.081
57284W        W29709  27.964  22.229   3.384
57285W        W29710  37.923  42.017   0.002
57286W        W29711  11.172  32.139   4.280
57287W        W29712  13.812   8.717  14.562
57288W        W29713  15.196  15.621   0.440
57289W        W29714  13.704  22.531   2.734
57290W        W29715  30.357  19.580  12.415
57291W        W29716   1.599   2.135  11.972
57292W        W29717   0.516  22.195  13.053
57293W        W29718  33.356  32.949  12.824
57294W        W29719  37.532  12.282   0.966
57295W        W29720  26.255   0.431  10.924
57296W        W29721  34.583   7.361   4.252
57297W        W29722   2.707  15.807  10.648
57298W        W29723  35.065   5.448   2.740
57299W        W29724  37.399  10.908  12.876
57300W        W29725   8.146   0.398   2.630
57301W        W29726  26.907  34.357   2.152
57302W        W29727  14.631   0.825  13.055
57303W        W29728   1.841   2.782   0.877
57304W        W29729   8.692  21.328  12.007
57305W        W29730  30.448  22.219  13.085
57306W        W29731  32.861  27.897   3.732
57307W        W29732  29.478   6.317  13.758
57308W        W29733   0.006  36.570   3.165
57309W        W29734  35.403  37.963   1.144
57310W        W29735  24.198  31.622   4.496
57311W        W29736  39.910  35.574   3.935
57312W        W29737  31.477  24.968  11.068
57313W        W29738  44.327   2.240   2.662
57314W        W29739   1.690   5.128   3.120
57315W        W29740  10.208  22.814  12.806
57316W        W29741  34.113  20.586  10.640
57317W        W29742  23.976  28.358  10.851
57318W        W29743  26.302  32.635   1.999
57319W        W29744  20.392  38.952   1.689
57320W        W29745  41.543  14.624   2.845
57321W        W29746   8.974   7.284  14.323
57322W        W29747  17.343  15.723  11.089
57323W        W29748  36.982  12.750   2.262
57324W        W29749  34.656  18.489   0.536
57325W        W29750   4.677  35.870   4.686
57326W        W29751  18.567   2.679  14.583
57327W        W29752  21.448  22.510  10.568
57328W        W29753  26.889  41.205  13.409
57329W        W29754   2.942  43.879  13.065
57330W        W29755  37.084  18.670  14.055
57331W        W29756  38.286  30.258   1.423
57332W        W29757   6.250  38.422   0.392
57333W        W29758  14.177  26.676   1.442
57334W        W29759  32.417   4.439   3.427
57335W        W29760  25.568  10.752  13.545
57336W        W29761  32.830  37.290  13.505
57337W        W29762  36.114  15.404  13.404
57338W        W29763   4.666   8.303  11.742
57339W        W29764  16.817  25.593  12.055
57340W        W29765  32.199   3.975  11.612
57341W        W29766  17.520  36.973   4.167
57342W        W29767  39.509  41.916   3.806
57343W        W29768  36.081  31.081  12.917
57344W        W29769  43.780  10.785   3.777
57345W        W29770  31.443  17.683   1.202
57346W        W29771  38.349  18.598   3.232
57347W        W29772  36.499  29.455  11.139
57348W        W29773  35.766   4.548  11.103
57349W        W29774   9.706  30.091   4.444
57350W        W29775  14.828  31.057  13.923
57351W        W29776  22.051  29.498   3.767
57352W        W29777  39.402  35.438   2.246
57353W        W29778  43.216  30.225  13.819
57354W        W29779  18.977  19.114   2.872
57355W        W29780  21.080  17.104  10.765
57356W        W29781  41.567  32.918  13.843
57357W        W29782   3.439  12.237   4.689
57358W        W29783  39.382  10.121  14.510
57359W        W29784  15.262  31.635   2.435
57360W        W29785  38.427   2.932   4.672
57361W        W29786  24.429   8.851  13.528
57362W        W29787   2.300  30.569  14.006
57363W        W29788  12.704   7.135   3.498
57364W        W29789   1.782   7.296   0.445
57365W        W29790  12.328  40.275   1.175
57366W        W29791  40.921  43.803   2.320
57367W        W29792   7.610  29.630  12.019
57368W        W29793  13.078  20.757   4.720
57369W        W29794   9.134  31.150   3.856
57370W        W29795  20.270  27.946   2.168
57371W        W29796  36.051  23.865   4.530
57372W        W29797  38.442  43.851   1.493
57373W        W29798  13.244   3.900  13.077
57374W        W29799  21.842  35.408   3.906
57375W        W29800  26.709  36.966   1.913
57376W        W29801  14.504   3.477   1.322
57377W        W29802  25.323  41.500  13.946
57378W        W29803   9.379   4.677  11.133
57379W        W29804  20.155  16.720  10.615
57380W        W29805  25.051   9.757  10.621
57381W        W29806  13.679  18.879   4.569
57382W        W29807  35.138  28.913   3.133
57383W        W29808  38.782  40.327   1.378
57384W        W29809  24.482  26.903   1.771
57385W        W29810  23.264  21.633   3.652
57386W        W29811  21.342  32.728  12.980
57387W        W29812  41.390  11.651   1.272
57388W        W29813  19.870  23.566   3.152
57389W        W29814  17.111  30.919  14.476
57390W        W29815  29.004  22.103   3.000
57391W        W29816  34.465  21.850   3.655
57392W        W29817   9.300   4.465   1.358
57393W        W29818   4.636  29.068  13.406
57394W        W29819  36.119   6.229  11.710
57395W        W29820   7.217   7.969   4.463
57396W        W29821  23.578   9.827  12.655
57397W        W29822  17.711  16.198   4.696
57398W        W29823  40.981  30.006  11.439
57399W        W29824  36.469  22.427   1.382
57400W        W29825  42.460   3.840   2.724
57401W        W29826   9.824  27.923  14.494
57402W        W29827  25.734  18.056   1.187
57403W        W29828  16.652  44.342   1.901
57404W        W29829   0.597  24.134  13.841
57405W        W29830  35.072  18.209  12.667
57406W        W29831   1.250   4.823   0.368
57407W        W29832  23.171  13.775   1.815
57408W        W29833  24.414   4.456  11.668
57409W        W29834  44.340  43.367  13.776
57410W        W29835  36.461   7.846   4.082
57411W        W29836  10.309   6.258  13.593
57412W        W29837  19.017   1.917  12.584
57413W        W29838  29.621  17.708  12.868
57414W        W29839  33.953  18.727  14.744
57415W        W29840  35.717  30.659  11.124
57416W        W29841  27.597  42.753  11.911
57417W        W29842  12.490   7.169  10.686
57418W        W29843   3.190   9.756  11.350
57419W        W29844  23.463  26.489   2.738
57420W        W29845   8.923  24.315   1.481
57421W        W29846  32.033  43.492   3.607
57422W        W29847  34.502  24.189   4.079
57423W        W29848   4.401   0.816   0.217
57424W        W29849  21.736   3.991   0.422
57425W        W29850  35.333  34.991  10.458
57426W        W29851  15.871   9.108  13.473
57427W        W29852  27.576   4.764  13.694
57428W        W29853  30.719  10.261   3.597
57429W        W29854   9.668  35.332  12.040
57430W        W29855  17.562  14.048  13.872
57431W        W29856  33.292  42.800   2.848
57432W        W29857  14.608  14.689   4.103
57433W        W29858  11.519  32.418   3.323
57434W        W29859  36.408   9.889   2.875
57435W        W29860  26.201  28.401   0.347
57436W        W29861  12.847  25.583   3.759
57437W        W29862  10.282  26.694   0.376
57438W        W29863  44.661  15.657   2.850
57439W        W29864   6.320  14.933  10.535
57440W        W29865   8.077  36.074  11.929
57441W        W29866   8.682   6.089   0.293
57442W        W29867  32.924  41.931   2.186
57443W        W29868  10.818  41.157   2.308
57444W        W29869  27.712   2.355   4.140
57445W        W29870  33.007  35.498  12.149
57446W        W29871  21.696   7.253  14.233
57447W        W29872   2.280  21.158  11.903
57448W        W29873   7.689   5.791   2.931
57449W        W29874  28.070  31.346   3.088
57450W        W29875  29.523  15.600   3.461
57451W        W29876  38.588   9.253   4.404
57452W        W29877   5.759  21.004  13.969
57453W        W29878  31.603  10.306  13.047
57454W        W29879  40.885   9.972   1.146
57455W        W29880  44.458  27.094   0.993
57456W        W29881  44.944  44.857  13.617
57457W        W29882  14.375  26.139   1.693
57458W        W29883   2.288  40.603   1.821
57459W        W29884   7.875   0.089   0.338
57460W        W29885  35.523   3.739  12.860
57461W        W29886  38.457  28.105   4.083
57462W        W29887  43.972  12.370   0.292
57463W        W29888  41.482  29.904   2.256
57464W        W29889  16.769  24.665   4.397
57465W        W29890   2.486  37.401   1.634
57466W        W29891  39.716  30.175  12.456
57467W        W29892   1.082  30.011  13.715
57468W        W29893  21.204   4.401   3.266
57469W        W29894   3.105  38.148  14.114
57470W        W29895  30.833  10.133   1.235
57471W        W29896  35.007  23.316  13.804
57472W        W29897  44.048  25.656  13.158
57473W        W29898  34.584  17.773   0.842
57474W        W29899  40.712  13.787  12.555
57475W        W29900  31.736  42.354   4.534
57476W        W29901   3.286  11.488  10.779
57477W        W29902   0.522  40.780  11.542
57478W        W29903  36.564   8.834  10.594
57479W        W29904  22.002  16.817  10.473
57480W        W29905  29.971  14.593  11.580
57481W        W29906   3.794   6.271   4.358
57482W        W29907  22.572  16.367   0.314
57483W        W29908  17.576   8.594  12.945
57484W        W29909  14.091  44.044  12.980
57485W        W29910  24.566  31.892   3.230
57486W        W29911  18.633   6.091  14.626
57487W        W29912  14.330  25.098  11.096
57488W        W29913   6.822  29.582   4.767
57489W        W29914  17.308  26.358  14.334
57490W        W29915  31.467   1.348  14.460
57491W        W29916  30.485   0.474  11.224
57492W        W29917  31.373  42.004   2.264
57493W        W29918  10.163  44.003   1.438
57494W        W29919  33.497  31.690  11.526
57495W        W29920  14.320  30.362  13.381
57496W        W29921  31.500  26.393  13.060
57497W        W29922  39.805   0.018   1.436
57498W        W29923   2.327  41.390  14.887
57499W        W29924  25.315  43.922  10.767
57500W        W29925   0.796  38.949   1.697
57501W        W29926  34.062  28.678  11.072
57502W        W29927  23.796  40.994  14.466
57503W        W29928  28.916  26.161  12.486
57504W        W29929  10.587  26.246  13.062
57505W        W29930  39.007   0.700  14.789
57506W        W29931  42.525   8.367  11.572
57507W        W29932   4.358   1.770   2.862
57508W        W29933  25.746   6.349   4.988
57509W        W29934  11.916   0.411   1.391
57510W        W29935  27.770  36.503  13.818
57511W        W29936  29.520   5.659   3.205
57512W        W29937  41.111  10.536  14.552
57513W        W29938  20.513  30.528   0.918
57514W        W29939  17.707  35.688  12.582
57515W        W29940  21.537   7.796   2.751
57516W        W29941  12.632  23.472  10.644
57517W        W29942  38.814  33.940  11.349
57518W        W29943  34.115  32.000  14.559
57519W        W29944  20.235  33.028  14.247
57520W        W29945  20.159  14.276   0.684
57521W        W29946   2.005  22.722  10.408
57522W        W29947  44.272  42.886  11.162
57523W        W29948  26.690  28.996   3.045
57524W        W29949  32.401  20.796   1.257
57525W        W29950  28.515  40.943   5.350
57526W        W29951  36.471   9.755   5.562
57527W        W29952   2.031  10.314  11.084
57528W        W29953  24.023  14.765   0.600
57529W        W29954  44.948  12.636   3.653
57530W        W29955  35.944  44.050   4.115
57531W        W29956  25.612  11.792  11.993
57532W        W29957  32.454   5.477   4.213
57533W        W29958  34.080  43.749  13.673
57534W        W29959  14.368  12.653   4.237
57535W        W29960  38.464  30.991  11.063
57536W        W29961  13.774   2.965   0.820
57537W        W29962  40.519   9.929  13.487
57538W        W29963  25.527   4.868  11.048
57539W        W29964   5.658  26.274  11.498
57540W        W29965  10.753  13.609   4.235
57541W        W29966   7.542  18.967  11.956
57542W        W29967  25.339  37.472   0.803
57543W        W29968   2.213  29.430   0.835
57544W        W29969  31.070  32.578   3.649
57545W        W29970  44.236  25.449   4.162
57546W        W29971  43.665  15.682   3.195
57547W        W29972  22.607  28.536   3.595
57548W        W29973  38.470  29.810  12.451
57549W        W29974   4.749  22.208  10.664
57550W        W29975   0.404  21.565   2.929
57551W        W29976  42.996  17.176   3.128
57552W        W29977  25.575  40.753   2.290
57553W        W29978  31.353  35.996   4.610
57554W        W29979  11.381  24.574  12.456
57555W        W29980  10.669  25.125   4.796
57556W        W29981  33.963  43.932  10.712
57557W        W29982  23.650  18.181   2.344
57558W        W29983  33.379  16.342  12.060
57559W        W29984  39.471  11.084  13.576
57560W        W29985   1.699   8.278   2.714
57561W        W29986  44.819  41.802   4.170
57562W        W29987  12.843  41.595  10.682
57563W        W29988  28.947  41.275   0.333
57564W        W29989  43.886  17.135  11.824
57565W        W29990  39.933   4.366   3.632
57566W        W29991  39.899  29.083  14.899
57567W        W29992   2.884  22.358  12.939
57568W        W29993  37.952  36.488  10.978
57569W        W29994  16.109  29.640   0.896
57570W        W29995  38.546  25.474   0.847
57571W        W29996  22.041  39.252   3.645
57572W        W29997  34.903   3.368   0.387
57573W        W29998  13.101   2.546  11.956
57574W        W29999  17.542  22.598  13.590
57575W        W30000  44.057  17.184  14.917
57576W        W30001  27.061  40.481   0.492
57577W        W30002  27.215  44.769  13.021
57578W        W30003   9.802  12.417   4.081
57579W        W30004  37.403  23.886   4.227
57580W        W30005  23.134   6.695  12.407
57581W        W30006  40.934  36.422   0.950
57582W        W30007  37.998   0.528   3.471
57583W        W30008  37.848  25.921   1.403
57584W        W30009   0.357  22.535   0.485
57585W        W30010  16.162  37.369  12.200
57586W        W30011  35.492   9.777   0.040
57587W        W30012  22.609  22.639  11.960
57588W        W30013  38.953  32.536  11.596
57589W        W30014  11.756  17.641  12.606
57590W        W30015  23.255  38.836  10.722
57591W        W30016  10.974  36.519  14.097
57592W        W30017  21.197  10.115   3.719
57593W        W30018  16.106  35.604   3.168
57594W        W30019  19.312  11.830  12.013
57595W        W30020  43.471   8.350   4.866
57596W        W30021  32.449   2.916   1.675
57597W        W30022  38.836  28.187  13.353
57598W        W30023  16.105  10.712   2.677
57599W        W30024  12.676   7.308   4.371
57600W        W30025   2.811   1.234  13.399
57601W        W30026  11.814  39.069   4.036
57602W        W30027  37.165  21.426  13.396
57603W        W30028  28.755  20.052  12.803
57604W        W30029  39.033   8.159   0.937
57605W        W30030  42.514   7.526   2.719
57606W        W30031  40.503  23.792  12.374
57607W        W30032  10.159  14.753  12.484
57608W        W30033  17.654   2.124   2.452
57609W        W30034  36.329  12.215  12.056
57610W        W30035  33.850  39.881  13.001
57611W        W30036  23.220  17.591   3.413
57612W        W30037  34.917  29.706   2.833
57613W        W30038  41.979   0.643   4.548
57614W        W30039   5.462  35.534   0.996
57615W        W30040  41.920   5.258  11.492
57616W        W30041  12.200  12.138  13.841
57617W        W30042  28.338  30.068   0.075
57618W        W30043  28.617  20.752   2.699
57619W        W30044   3.532  37.066  14.894
57620W        W30045   6.769  23.006   2.389
57621W        W30046   3.889  16.479   1.511
57622W        W30047  27.100  16.613  12.489
57623W        W30048   2.032   8.372   4.835
57624W        W30049  13.053  12.802   2.782
57625W        W30050  22.508  11.511  13.494
57626W        W30051  15.811  18.478  12.473
57627W        W30052  21.153  13.629   5.130
57628W        W30053  23.053  24.199   3.874
57629W        W30054  39.490  37.424  13.349
57630W        W30055  28.712   0.812  14.933
57631W        W30056   9.958   0.187  13.673
57632W        W30057  28.050   4.969  11.170
57633W        W30058  36.969  24.757   4.031
57634W        W30059  33.812  43.777  11.600
57635W        W30060  20.922   5.264  10.491
57636W        W30061  17.116  41.019   4.941
57637W        W30062  19.957  21.738  12.981
57638W        W30063  24.685  30.304   0.825
57639W        W30064  38.848  20.736   3.760
57640W        W30065  39.441  14.096   1.732
57641W        W30066  10.486  29.500  13.522
57642W        W30067   2.780  14.368   4.726
57643W        W30068  22.500  19.300  12.961
57644W        W30069   5.775   8.989  14.339
57645W        W30070  15.116   2.012   3.086
57646W        W30071  12.423   4.976  13.136
57647W        W30072  37.939  31.652  12.349
57648W        W30073  13.593   2.939  13.905
57649W        W30074   5.410  22.750  10.624
57650W        W30075  16.195  21.646   1.205
57651W        W30076  27.991  34.433   5.015
57652W        W30077   5.585   0.106  12.255
57653W        W30078  22.573  41.396  11.277
57654W        W30079  34.924  30.193  11.332
57655W        W30080   4.840  26.675  12.160
57656W        W30081  27.784  29.519  13.426
57657W        W30082  20.480  16.626  13.856
57658W        W30083  34.493  44.359   0.027
57659W        W30084   8.860  38.849   0.367
57660W        W30085  10.075  17.623   0.295
57661W        W30086  36.500   0.662  12.400
57662W        W30087  29.542  24.429   5.537
57663W        W30088  17.191   0.972  11.959
57664W        W30089  29.215   2.506  11.138
57665W        W30090   1.169   1.357  14.136
57666W        W30091   4.580  44.904  14.450
57667W        W30092   4.969  13.550   2.741
57668W        W30093   0.800  16.510  11.735
57669W        W30094  22.936   2.791   4.577
57670W        W30095  41.500  24.602   1.182
57671W        W30096  28.873  14.464  13.301
57672W        W30097  19.012   2.879  14.781
57673W        W30098  36.608  13.484  12.425
57674W        W30099  26.686  25.470  12.349
57675W        W30100  42.051   8.622   1.700
57676W        W30101   1.851  20.339  12.117
57677W        W30102  32.606   8.730   1.788
57678W        W30103   4.464  33.711  12.572
57679W        W30104  33.949  12.541  14.377
57680W        W30105   7.466  27.781   2.800
57681W        W30106   0.107  32.824   1.727
57682W        W30107  21.950  11.705   3.551
57683W        W30108  42.879  36.576  13.530
57684W        W30109   5.711  24.259  12.450
57685W        W30110   7.306  29.890   4.083
57686W        W30111  37.277  12.658  13.886
57687W        W30112  12.569   5.661   0.953
57688W        W30113  25.632   4.746  14.942
57689W        W30114  44.318  33.426  14.847
57690W        W30115  27.199  29.836   3.772
57691W        W30116  17.993  13.583  11.518
57692W        W30117  41.008  10.887   2.863
57693W        W30118  32.602   3.242  13.882
57694W        W30119  37.536  19.596   0.794
57695W        W30120  19.167  32.453  13.337
57696W        W30121  17.706  20.345   1.914
57697W        W30122   2.556  10.626  13.353
57698W        W30123   6.044  35.505  14.036
57699W        W30124  37.729  18.106  11.642
57700W        W30125   1.256  28.147   2.355
57701W        W30126   1.273   8.779  12.470
57702W        W30127   4.706  36.819   4.829
57703W        W30128  36.891  43.457   4.152
57704W        W30129  18.191  33.473  14.906
57705W        W30130  42.831  31.151   4.600
57706W        W30131  10.109  43.072  10.193
57707W        W30132  42.020  31.701   3.762
57708W        W30133   5.304  21.167   1.296
57709W        W30134  39.075  36.024  12.978
57710W        W30135  37.379   3.149  12.051
57711W        W30136   2.656  40.741   5.141
57712W        W30137  30.902   6.277   0.378
57713W        W30138   7.331   5.954   3.259
57714W        W30139  18.768   8.655  10.701
57715W        W30140  44.741  13.021  13.873
57716W        W30141  22.548  29.419   3.797
57717W        W30142  29.990  39.530  10.885
57718W        W30143  40.320  35.463  13.440
57719W        W30144   1.803  22.885  12.340
57720W        W30145  19.739  17.653  12.555
57721W        W30146  34.809   2.471   2.465
57722W        W30147  29.697   8.720  14.229
57723W        W30148  42.535  15.565   2.352
57724W        W30149  18.035  21.662   1.290
57725W        W30150   1.362  13.878   1.807
57726W        W30151  23.260   4.701  13.070
57727W        W30152  20.816  32.160  10.744
57728W        W30153  34.114  10.752  10.459
57729W        W30154  14.135  35.870   0.557
57730W        W30155  36.558  32.080   3.574
57731W        W30156   2.309  34.670   3.377
57732W        W30157  43.645   2.317   1.872
57733W        W30158   8.954   9.259   1.128
57734W        W30159  29.589  23.998   4.588
57735W        W30160  16.038  23.994  12.464
57736W        W30161  30.177  21.187  14.233
57737W        W30162  13.216  22.200   1.644
57738W        W30163  11.300  22.541   1.335
57739W        W30164  23.997  36.933   3.101
57740W        W30165  40.920  40.536  10.724
57741W        W30166  19.889   8.379  12.061
57742W        W30167  14.166  21.770  13.505
57743W        W30168  24.255  44.983   2.584
57744W        W30169  33.669  27.920   2.286
57745W        W30170  43.540  29.461  11.044
57746W        W30171  16.360  37.678  13.955
57747W        W30172   8.871  25.008   0.705
57748W        W30173  35.096   7.330  12.020
57749W        W30174   8.745  21.678   4.552
57750W        W30175  37.471  18.399  11.307
57751W        W30176  43.905  18.128  11.226
57752W        W30177  19.181  25.591  11.610
57753W        W30178  21.537  40.975   1.757
57754W        W30179  25.288  15.791  12.093
57755W        W30180   3.130  13.871   0.936
57756W        W30181  31.470   9.216   4.774
57757W        W30182  20.310  11.612  12.964
57758W        W30183  16.869   9.217  14.340
57759W        W30184  41.789  29.205  11.544
57760W        W30185  24.005  12.179   1.388
57761W        W30186   2.271  13.359  13.156
57762W        W30187  44.269   5.384   3.632
57763W        W30188   9.195   4.093   3.919
57764W        W30189  34.439  34.136   2.132
57765W        W30190   0.495  14.063  14.825
57766W        W30191  40.308  35.283   0.253
57767W        W30192  25.482  38.001   4.270
57768W        W30193  27.354   4.779  10.888
57769W        W30194  22.220  10.943   3.147
57770W        W30195  32.698  23.652  10.788
57771W        W30196  38.822  20.906  14.446
57772W        W30197  29.216  16.176   0.408
57773W        W30198  22.987  26.672  14.321
57774W        W30199   2.049   1.904   1.457
57775W        W30200  33.405   3.236  13.260
57776W        W30201  23.408  22.538   0.726
57777W        W30202  19.260  35.749  12.901
57778W        W30203   5.003  39.725  11.572
57779W        W30204  21.609  40.489   3.634
57780W        W30205   2.224  17.232   3.651
57781W        W30206   4.008   4.189  14.691
57782W        W30207   7.371  22.232  14.569
57783W        W30208  21.657  41.565  13.308
57784W        W30209  16.962  12.325   3.459
57785W        W30210   9.277   7.755  13.402
57786W        W30211  30.436  11.382   4.236
57787W        W30212  44.860   4.393   1.843
57788W        W30213  10.263  43.740  13.589
57789W        W30214  22.725  10.872   3.394
57790W        W30215  40.218  29.447  12.544
57791W        W30216  21.514  38.648   3.150
57792W        W30217   0.872  42.789   1.454
57793W        W30218  22.545  15.717  10.033
57794W        W30219   1.033  33.828  11.446
57795W        W30220  43.452  39.257   5.001
57796W        W30221   8.823  40.927  14.242
57797W        W30222   9.889   7.293   1.474
57798W        W30223  33.078  13.290   3.188
57799W        W30224   0.513  40.038  14.831
57800W        W30225  11.798  12.657   0.263
57801W        W30226  20.745  37.799  10.335
57802W        W30227   3.319   3.313  11.108
57803W        W30228  10.975   4.371   1.550
57804W        W30229  29.567  21.137  13.018
57805W        W30230  11.784  24.213   0.987
57806W        W30231  41.564  29.862  13.004
57807W        W30232  32.955  42.060  12.871
57808W        W30233  35.298   2.655   2.801
57809W        W30234   4.074  18.943  11.473
57810W        W30235  38.392  24.229   3.221
57811W        W30236   3.044  27.023   1.685
57812W        W30237  43.257  32.061  12.202
57813W        W30238  43.084  28.382  12.460
57814W        W30239  44.475   7.911   4.575
57815W        W30240  34.945  16.863   0.286
57816W        W30241  31.129  18.040  12.091
57817W        W30242  25.192   6.306  13.531
57818W        W30243  31.272  17.493  14.323
57819W        W30244  22.017  28.661  12.399
57820W        W30245  44.262  21.799  13.121
57821W        W30246  37.535   1.847   3.413
57822W        W30247   0.950  24.178   1.961
57823W        W30248  44.855  23.511  11.975
57824W        W30249   1.930  23.768  12.973
57825W        W30250  28.103  34.165   0.951
57826W        W30251  37.404   3.382   2.725
57827W        W30252  19.191  44.397  11.201
57828W        W30253   5.906  14.615   1.219
57829W        W30254  15.358  42.295   1.318
57830W        W30255  29.102  38.339  14.627
57831W        W30256   2.813   6.715  11.051
57832W        W30257  43.470  34.142  14.318
57833W        W30258  23.677  18.506  12.405
57834W        W30259  23.075  20.519  14.492
57835W        W30260  39.958  34.389   3.140
57836W        W30261   5.242  24.009  13.347
57837W        W30262  15.864  30.506   1.895
57838W        W30263  40.017  34.063  13.440
57839W        W30264   3.413  11.163   4.478
57840W        W30265   6.306  11.663   4.889
57841W        W30266  39.890  43.571   1.209
57842W        W30267  32.907  15.170  12.262
57843W        W30268   3.658   4.309  14.312
57844W        W30269  27.802  44.263  10.173
57845W        W30270   5.179  13.212   4.730
57846W        W30271  44.421  13.936   3.644
57847W        W30272  16.765  17.126  12.125
57848W        W30273  37.963  10.219   0.036
57849W        W30274   6.191  12.601   2.225
57850W        W30275   2.313  39.339  12.406
57851W        W30276  26.632  29.524   0.970
57852W        W30277   9.557  43.758   3.638
57853W        W30278  11.357  21.049  14.448
57854W        W30279  14.208   0.215  13.445
57855W        W30280  18.226  38.059  14.256
57856W        W30281   9.154  31.525  10.449
57857W        W30282  23.204  23.009  11.610
57858W        W30283  23.593  31.096  11.575
57859W        W30284  41.910  35.477  12.010
57860W        W30285  28.631   1.320   1.122
57861W        W30286  40.742  38.928   1.250
57862W        W30287  12.566  35.276  11.987
57863W        W30288  31.513   9.185   0.475
57864W        W30289  23.703   6.026   0.213
57865W        W30290  36.584  23.762   4.202
57866W        W30291  39.928   0.004  14.295
57867W        W30292  36.976  23.737  10.778
57868W        W30293  37.332  12.106   2.442
57869W        W30294  15.428  44.321   9.943
57870W        W30295   1.319  32.663  11.573
57871W        W30296  34.890  19.513  11.168
57872W        W30297   6.223   9.423  13.728
57873W        W30298  11.980  36.328   0.722
57874W        W30299  42.777  25.558   5.011
57875W        W30300  32.173  42.327   2.309
57876W        W30301  35.625   8.625  14.251
57877W        W30302  12.095  36.356   2.449
57878W        W30303  26.647  34.506   1.741
57879W        W30304  23.052   0.723  13.583
57880W        W30305  14.348  10.002  11.547
57881W        W30306   7.000  14.136   5.393
57882W        W30307  40.497  32.743  10.738
57883W        W30308  29.644  39.429  11.390
57884W        W30309  11.620  33.083  14.439
57885W        W30310  35.362   4.474   4.255
57886W        W30311  19.000   6.338  13.506
57887W        W30312  24.512  34.508  10.768
57888W        W30313  32.569   6.576   9.600
57889W        W30314  18.547  43.778  14.534
57890W        W30315  27.302  18.681  13.378
57891W        W30316  17.182  35.551   2.708
57892W        W30317  30.344   9.046   1.755
57893W        W30318  12.704  25.062   4.520
57894W        W30319  16.925  38.096   4.298
57895W        W30320  20.799   7.688  13.949
57896W        W30321  11.723  10.831  12.455
57897W        W30322   9.702   2.307   1.218
57898W        W30323   4.395  41.576   0.634
57899W        W30324  31.429   4.915   4.678
57900W        W30325   7.317  22.746   2.350
57901W        W30326  28.011  11.029   3.763
57902W        W30327   8.883   7.622  13.900
57903W        W30328  19.662  17.353   1.477
57904W        W30329  27.670  41.604   2.253
57905W        W30330  15.775  20.727  13.895
57906W        W30331  25.011   1.418  11.050
57907W        W30332   3.963  26.380  13.525
57908W        W30333  12.099  22.082   4.418
57909W        W30334  35.141   5.228  14.354
57910W        W30335  10.092  35.893  14.637
57911W        W30336  43.508   7.825   1.719
57912W        W30337   2.851  12.609   2.176
57913W        W30338   2.450   0.681  13.863
57914W        W30339  25.586  30.622  13.240
57915W        W30340   4.689  40.278  13.801
57916W        W30341  31.402  27.560   1.782
57917W        W30342  31.012  42.799  13.031
57918W        W30343  30.602   1.262   1.301
57919W        W30344   1.337  23.152   4.169
57920W        W30345   8.861  39.703   2.976
57921W        W30346  31.493   5.899   3.143
57922W        W30347   9.312  29.134  11.119
57923W        W30348  26.956  28.971   1.835
57924W        W30349   0.828   6.964  14.252
57925W        W30350  14.576  39.644  10.299
57926W        W30351  30.623   6.298  10.504
57927W        W30352  10.396  26.096   3.744
57928W        W30353  43.057   0.928  13.875
57929W        W30354  29.812  12.555  13.514
57930W        W30355  31.485  13.052  14.826
57931W        W30356  33.028  28.493  10.661
57932W        W30357  35.820  23.516  14.826
57933W        W30358  22.072  13.657  14.806
57934W        W30359  31.361  10.013  10.591
57935W        W30360  31.497  30.256   2.391
57936W        W30361  11.272  22.225   1.892
57937W        W30362  38.527  39.079   0.485
57938W        W30363   9.444   6.247  12.996
57939W        W30364  27.868   6.645  11.453
57940W        W30365  39.146  34.449  12.645
57941W        W30366  17.632  40.927   0.759
57942W        W30367  44.416  30.488   2.938
57943W        W30368  18.803  13.743   4.299
57944W        W30369  27.952  21.989  14.828
57945W        W30370  13.605  41.630  14.412
57946W        W30371   0.356  37.317  11.396
57947W        W30372  37.828  32.107  11.164
57948W        W30373  17.260  23.794  10.516
57949W        W30374  11.878  30.645  13.441
57950W        W30375  41.365  19.038   1.231
57951W        W30376  23.736  30.958   1.361
57952W        W30377  40.200   0.957  11.561
57953W        W30378  13.087  42.470  13.945
57954W        W30379  34.462  17.641  11.596
57955W        W30380   1.776  20.303  13.505
57956W        W30381  21.627  40.981  13.382
57957W        W30382  22.220  37.632  11.326
57958W        W30383   1.953  27.143  10.684
57959W        W30384  11.715  10.485   3.738
57960W        W30385  12.715  34.855  13.908
57961W        W30386  26.757  27.186   2.976
57962W        W30387  19.420   3.719  11.660
57963W        W30388  41.092   7.683  12.067
57964W        W30389  29.414  34.077  12.042
57965W        W30390  23.945  32.545  11.436
57966W        W30391  30.729   3.168   2.770
57967W        W30392   9.889   2.565   4.199
57968W        W30393  40.304  20.889   2.820
57969W        W30394  38.608   1.180  13.370
57970W        W30395  15.189  34.042  11.652
57971W        W30396  24.490  26.369   1.840
57972W        W30397   1.352  32.731  10.619
57973W        W30398  29.414  36.426  11.111
57974W        W30399  15.342  31.920   3.850
57975W        W30400  29.562  37.309   9.996
57976W        W30401  10.498  43.007   9.884
57977W        W30402  20.068   3.518  11.121
57978W        W30403  35.507  39.618  11.237
57979W        W30404  37.405   4.699  12.364
57980W        W30405  22.162  18.700   0.946
57981W        W30406  26.887  43.832   0.416
57982W        W30407  23.026  26.744   1.723
57983W        W30408  24.043  22.337   3.693
57984W        W30409  11.743  37.342   2.544
57985W        W30410  15.830  39.067   2.426
57986W        W30411  14.225  33.972  13.636
57987W        W30412  40.368   4.948  12.983
57988W        W30413  34.492   1.238   4.791
57989W        W30414  40.767  23.285  14.384
57990W        W30415  10.698  36.375   1.297
57991W        W30416  29.060  44.851   0.732
57992W        W30417   0.798  31.053   1.992
57993W        W30418   6.206  13.636   0.644
57994W        W30419   9.681  17.710  13.812
57995W        W30420   2.395  38.350   4.379
57996W        W30421   1.742  36.313  11.077
57997W        W30422  33.982  24.755  14.366
57998W        W30423  23.538  24.318  12.106
57999W        W30424  30.512  34.919   1.022
58000W        W30425  35.685  12.659   3.806
58001W        W30426  29.746  34.126   3.678
58002W        W30427  19.084   8.289  14.610
58003W        W30428  12.833  41.412  14.828
58004W        W30429   8.596  36.349   0.436
58005W        W30430  17.792  26.878  14.269
58006W        W30431  25.953  40.178   3.332
58007W        W30432  16.683   5.990  13.320
58008W        W30433  37.472  40.026  13.551
58009W        W30434  38.809  23.495   4.856
58010W        W30435  23.670   4.655   9.976
58011W        W30436  26.603  40.072   1.594
58012W        W30437  16.608   2.971   1.714
58013W        W30438  33.795  35.074  14.867
58014W        W30439  10.959  23.411  11.869
58015W        W30440  15.058  33.575  10.577
58016W        W30441  17.697  33.098   2.122
58017W        W30442   6.254  17.581  12.299
58018W        W30443  31.063  41.991  11.798
58019W        W30444  10.874  20.576   4.074
58020W        W30445  26.166  43.104  14.295
58021W        W30446   3.392  31.533   0.022
58022W        W30447  33.391  29.668  14.882
58023W        W30448   9.050   8.111  13.923
58024W        W30449  36.053  33.301   0.968
58025W        W30450  31.075  17.756  12.536
58026W        W30451  17.775  17.045  11.042
58027W        W30452  24.168  22.622  11.593
58028W        W30453  17.940  23.288  13.973
58029W        W30454  36.326  36.455   0.270
58030W        W30455  14.536  43.010   0.380
58031W        W30456  24.244  34.067   1.901
58032W        W30457  41.451  11.883  12.374
58033W        W30458  37.342  38.874  14.095
58034W        W30459   4.322   8.294   2.941
58035W        W30460   9.764  12.094  11.653
58036W        W30461  29.880  12.593  12.659
58037W        W30462   7.881   3.263   3.228
58038W        W30463  11.304  15.221   3.998
58039W        W30464  26.934  40.383  13.807
58040W        W30465  29.407  28.156  11.486
58041W        W30466  32.827  37.696   3.201
58042W        W30467  42.557  28.777  12.863
58043W        W30468   8.796  26.486   3.661
58044W        W30469   1.956  19.688   2.257
58045W        W30470  44.306  28.514  12.973
58046W        W30471  29.077  34.978  14.927
58047W        W30472  43.802  34.815  10.700
58048W        W30473  26.565   5.393   2.734
58049W        W30474   1.769  18.048  11.572
58050W        W30475  15.924  25.883   2.843
58051W        W30476   7.086   7.800  13.544
58052W        W30477  40.864  37.507   0.308
58053W        W30478  33.760  18.596   4.563
58054W        W30479  40.840  19.645  13.364
58055W        W30480  11.313   1.403  12.955
58056W        W30481   3.707  27.974  11.241
58057W        W30482   9.295   9.824   4.826
58058W        W30483  23.494  12.913  14.511
58059W        W30484   8.865  22.603  12.782
58060W        W30485  25.660   3.305   5.108
58061W        W30486   5.841   2.551  11.558
58062W        W30487  34.636  40.392  12.911
58063W        W30488  20.631   7.883   2.761
58064W        W30489  42.964  20.726  12.477
58065W        W30490  39.500   7.383   0.471
58066W        W30491  43.422  34.629  14.955
58067W        W30492   3.410  20.862  13.079
58068W        W30493  28.010   7.679   2.522
58069W        W30494  42.776  22.831  13.338
58070W        W30495   7.673  26.474  14.881
58071W        W30496  16.805  43.410  14.843
58072W        W30497   4.397   8.301   3.951
58073W        W30498  24.015  13.636  13.836
58074W        W30499  38.858  41.416   4.611
58075W        W30500  35.505   7.192  12.328
58076W        W30501  37.622  43.841   2.134
58077W        W30502  38.283   5.992   2.883
58078W        W30503  40.571  29.099  12.474
58079W        W30504  33.382  14.855  14.304
58080W        W30505   2.824   8.835   4.201
58081W        W30506  14.691   7.149  10.754
58082W        W30507  15.114   6.446   3.242
58083W        W30508  10.125  12.263   0.777
58084W        W30509   6.324  24.746   2.947
58085W        W30510   6.030  23.930  14.889
58086W        W30511  22.496  39.287  10.458
58087W        W30512   2.880  33.939  11.370
58088W        W30513  43.832  27.314   2.856
58089W        W30514   6.195   8.767  11.072
58090W        W30515  23.342  15.888  14.967
58091W        W30516  14.735  39.870  13.922
58092W        W30517  33.287  36.057  14.726
58093W        W30518   8.251  20.706  12.368
58094W        W30519  36.173  33.963  14.120
58095W        W30520  22.509  18.560  13.112
58096W        W30521  27.126  33.570   0.664
58097W        W30522   3.045  22.606   1.844
58098W        W30523  24.982  34.805   4.742
58099W        W30524  12.042  33.400  14.402
58100W        W30525  17.531  30.674   3.972
58101W        W30526   1.783   3.801  10.845
58102W        W30527  11.941  25.639  12.829
58103W        W30528  14.336  35.520  12.898
58104W        W30529  15.667  37.825   3.706
58105W        W30530  41.847  40.795   3.130
58106W        W30531  24.916   8.355  10.703
58107W        W30532  35.960  40.631   4.068
58108W        W30533  10.407  44.872   2.747
58109W        W30534  43.750  19.559   2.673
58110W        W30535  23.217  33.449   0.866
58111W        W30536   1.297  44.971   1.943
58112W        W30537  13.335  29.005   3.594
58113W        W30538  29.673  35.000  14.961
58114W        W30539  37.797   5.707  12.885
58115W        W30540  24.094  39.215  10.625
58116W        W30541  20.478   4.338   1.803
58117W        W30542   2.978   4.029   0.780
58118W        W30543   9.726   0.252   4.406
58119W        W30544  33.341  40.378   1.190
58120W        W30545  29.474  32.598  13.261
58121W        W30546  25.499  17.084  13.190
58122W        W30547  33.626   8.753  12.717
58123W        W30548   6.861  40.673   2.749
58124W        W30549  23.808   5.418   2.933
58125W        W30550  18.762   1.373  14.078
58126W        W30551  38.274  35.476   2.895
58127W        W30552  29.096   7.801  13.580
58128W        W30553  13.258  44.801   4.334
58129W        W30554  10.199  39.567   3.634
58130W        W30555   5.905  41.210   0.137
58131W        W30556  26.617  10.019   4.341
58132W        W30557  24.846   0.181   1.005
58133W        W30558   5.019  22.504   0.039
58134W        W30559  35.178  38.905   0.544
58135W        W30560  37.024  39.503   0.880
58136W        W30561  36.817  31.485   2.728
58137W        W30562  18.374  36.803   3.250
58138W        W30563  26.247  25.073   0.198
58139W        W30564  37.393   7.267   3.350
58140W        W30565  44.939   4.490   0.421
58141W        W30566  32.374  44.457  14.875
58142W        W30567  38.822  25.417   0.061
58143W        W30568  25.202  16.806   3.698
58144W        W30569  43.753  27.475   2.267
58145W        W30570  32.650   3.760  11.477
58146W        W30571  32.981  26.721  14.774
58147W        W30572   0.347  30.183   1.254
58148W        W30573  18.299  16.149   2.162
58149W        W30574  20.518   6.166   4.333
58150W        W30575  29.119  25.474   1.397
58151W        W30576  11.874   6.421  12.888
58152W        W30577  19.757  18.099   2.124
58153W        W30578  37.037   3.890   3.828
58154W        W30579   3.846  29.607  10.674
58155W        W30580  21.055  23.816   0.574
58156W        W30581  30.017  20.286   0.840
58157W        W30582  44.226   4.239   2.741
58158W        W30583  27.843  41.991   5.012
58159W        W30584  37.901  41.094  12.903
58160W        W30585  24.994  39.250   3.721
58161W        W30586   0.999  40.156   3.921
58162W        W30587  23.009  13.250   0.384
58163W        W30588   2.730  20.294  12.082
58164W        W30589  10.544  18.744   1.790
58165W        W30590  16.786  19.821  13.289
58166W        W30591  10.605  38.340  14.537
58167W        W30592   7.853   5.306  10.834
58168W        W30593  42.065   2.529  13.502
58169W        W30594   7.825   6.565   0.481
58170W        W30595  38.120   4.584   2.152
58171W        W30596  39.256  22.257   3.239
58172W        W30597  30.859  12.358  10.724
58173W        W30598   3.148   8.246   1.333
58174W        W30599   4.035  27.197   3.356
58175W        W30600  16.347  40.670  12.662
58176W        W30601  27.656  16.705   4.009
58177W        W30602   6.799  18.703   0.561
58178W        W30603  14.295  43.560   1.859
58179W        W30604   4.874   8.210   3.767
58180W        W30605   8.857  29.450   2.107
58181W        W30606   7.713  35.237  12.903
58182W        W30607  20.587  22.451  13.100
58183W        W30608  19.994  10.595   4.170
58184W        W30609   3.446  30.871  11.157
58185W        W30610  17.017  37.013  11.154
58186W        W30611   8.700  27.447   3.931
58187W        W30612  15.943  14.053  11.166
58188W        W30613  19.607  16.433   3.789
58189W        W30614  37.617  22.000  10.608
58190W        W30615  30.965   7.723  11.443
58191W        W30616  29.145  34.091  14.491
58192W        W30617   2.717  19.871   3.815
58193W        W30618  13.660  10.174   0.468
58194W        W30619   2.346   7.717   4.394
58195W        W30620  29.429  38.084  11.985
58196W        W30621  29.287  17.243  14.749
58197W        W30622  30.476  38.539   3.686
58198W        W30623  35.311  34.781   1.929
58199W        W30624  42.748  39.882  11.119
58200W        W30625  30.058  16.107   4.473
58201W        W30626   2.877   7.922  12.620
58202W        W30627  35.955  31.018  13.860
58203W        W30628  11.352   8.831   2.390
58204W        W30629  33.085  28.848   0.356
58205W        W30630  26.109  13.483  14.594
58206W        W30631  43.856  16.537  13.862
58207W        W30632  42.342  36.333  11.999
58208W        W30633  23.694  34.566  12.452
58209W        W30634   4.893  13.291   0.700
58210W        W30635  10.669  12.296   1.502
58211W        W30636   6.201   5.417   0.238
58212W        W30637   2.453  32.430   4.859
58213W        W30638  41.568  31.462   0.568
58214W        W30639  37.133  21.954  13.422
58215W        W30640  24.284  36.889   1.630
58216W        W30641  37.632   6.800   3.310
58217W        W30642  36.792   2.186  11.841
58218W        W30643   9.608  17.988  13.369
58219W        W30644  33.873  13.250   2.685
58220W        W30645  13.101  43.633  14.095
58221W        W30646  29.541  42.299   1.819
58222W        W30647  38.093  43.696   3.899
58223W        W30648  12.577  13.553  14.838
58224W        W30649   8.827  25.130  13.121
58225W        W30650   7.856  20.770   4.147
58226W        W30651  40.440   4.114  14.774
58227W        W30652  22.126  20.298  14.539
58228W        W30653  27.736  32.003  13.320
58229W        W30654  40.538  11.739   4.166
58230W        W30655  14.365  30.563  12.391
58231W        W30656   2.182   5.643   1.934
58232W        W30657  39.955  28.983  14.373
58233W        W30658  33.574  43.639   4.620
58234W        W30659  35.641  13.663  13.826
58235W        W30660   0.394  25.081  12.969
58236W        W30661  40.914  21.146   3.798
58237W        W30662  22.605  12.110   1.148
58238W        W30663  30.526  42.493  12.548
58239W        W30664  17.666  10.216   1.799
58240W        W30665  18.284  32.347  11.134
58241W        W30666  24.417   2.403   3.176
58242W        W30667  43.477  42.128   4.603
58243W        W30668  42.911  13.664   1.828
58244W        W30669  39.616   9.879  11.094
58245W        W30670  44.758  39.782  10.971
58246W        W30671  25.408   8.195   3.751
58247W        W30672  28.091  28.460   0.282
58248W        W30673  33.386  23.471  11.511
58249W        W30674  35.246   3.215  14.814
58250W        W30675  27.737  33.468  11.971
58251W        W30676  23.625  32.386   0.182
58252W        W30677  35.595   5.784   1.406
58253W        W30678   2.299  38.465  14.802
58254W        W30679  22.550  16.760  10.486
58255W        W30680   4.448  12.259  13.972
58256W        W30681  29.132  39.687   4.492
58257W        W30682  11.221   3.874  13.050
58258W        W30683  39.746  11.163  11.067
58259W        W30684  41.676  16.539   4.557
58260W        W30685  37.583  37.884  11.094
58261W        W30686  43.522  24.195   4.744
58262W        W30687  12.294   2.865   0.734
58263W        W30688   0.415  35.112   2.220
58264W        W30689  13.345   2.023   1.296
58265W        W30690   4.266   9.333   0.388
58266W        W30691  27.701  19.389   2.329
58267W        W30692  13.678  43.039  11.610
58268W        W30693  20.731  16.423   0.466
58269W        W30694   7.194  36.470  12.776
58270W        W30695  40.220  20.552  13.429
58271W        W30696  13.772  29.439  13.000
58272W        W30697   8.774  30.694  11.469
58273W        W30698  39.926  37.067  12.056
58274W        W30699  28.547   3.418   2.738
58275W        W30700  26.919  28.606   0.749
58276W        W30701  27.449   5.312   1.223
58277W        W30702  19.524  21.846  14.696
58278W        W30703  35.027  18.217  12.163
58279W        W30704   5.042  30.919   4.148
58280W        W30705   9.368  23.339  11.164
58281W        W30706  17.678   9.243   3.839
58282W        W30707  36.567  28.518  11.013
58283W        W30708  19.070   6.855   0.135
58284W        W30709  29.904  17.016  11.495
58285W        W30710  29.870   8.735  11.900
58286W        W30711  44.658   6.868  11.627
58287W        W30712  43.785  11.902  10.536
58288W        W30713  44.798  38.509   1.222
58289W        W30714   2.066  37.121  10.572
58290W        W30715  40.292  23.038   3.554
58291W        W30716  23.507  21.701  10.844
58292W        W30717  28.723  35.080  12.094
58293W        W30718  42.834  18.203  11.863
58294W        W30719  22.695   2.969   0.278
58295W        W30720  19.751  29.019   1.564
58296W        W30721  24.981  32.557  10.066
58297W        W30722  10.182  22.172   0.655
58298W        W30723  38.863  38.892   1.912
58299W        W30724   1.279  23.291  14.351
58300W        W30725  21.790   0.302  11.980
58301W        W30726  39.776  34.375   1.284
58302W        W30727  12.563  12.659  10.725
58303W        W30728  44.331  24.153   0.421
58304W        W30729  39.068   1.738  11.164
58305W        W30730  43.859  23.660  12.967
58306W        W30731  32.116   2.686  14.146
58307W        W30732   1.788   3.740   3.890
58308W        W30733  39.624  44.284  14.970
58309W        W30734  33.817  37.602  10.633
58310W        W30735  39.609  13.868  11.703
58311W        W30736  26.508   2.477   3.318
58312W        W30737  32.478  20.271  14.231
58313W        W30738  35.432  35.933   0.215
58314W        W30739  40.282  19.268   1.794
58315W        W30740  19.202  27.126  12.568
58316W        W30741  40.139  40.028  12.634
58317W        W30742  40.325  33.374   2.883
58318W        W30743  23.960  31.147  14.511
58319W        W30744   8.392  34.790  13.512
58320W        W30745  19.511   1.084   2.724
58321W        W30746   4.784  28.131  10.861
58322W        W30747  34.561  38.179  13.905
58323W        W30748  38.154  13.159   1.200
58324W        W30749  40.961   2.916   1.854
58325W        W30750  30.434  35.952   4.798
58326W        W30751  43.059  38.277   1.942
58327W        W30752  44.195   0.980   4.233
58328W        W30753   6.237  20.089   0.402
58329W        W30754  26.761  18.269   1.291
58330W        W30755  18.077  16.171  13.054
58331W        W30756  26.220  15.278  13.203
58332W        W30757   5.786  17.370   2.849
58333W        W30758  16.210  34.480   4.547
58334W        W30759  16.542  33.404  12.825
58335W        W30760  40.987   3.807   1.826
58336W        W30761  16.543   0.431  12.100
58337W        W30762  15.310  13.682   2.810
58338W        W30763  41.740  24.505  10.667
58339W        W30764  44.000  36.903  11.348
58340W        W30765  21.135  41.120  10.231
58341W        W30766  34.372  28.247  11.980
58342W        W30767   8.098   9.817   0.940
58343W        W30768  18.615  34.044  13.008
58344W        W30769  40.883   1.718  11.114
58345W        W30770  29.436  11.040  11.247
58346W        W30771  24.329   0.239  14.888
58347W        W30772  42.714  36.115   3.747
58348W        W30773   1.989  10.678  11.455
58349W        W30774  35.902  42.977   0.736
58350W        W30775  30.076  26.140   1.784
58351W        W30776  10.386  43.816   2.807
58352W        W30777  31.228  26.607   4.194
58353W        W30778   2.856  29.581  10.713
58354W        W30779  35.972  37.977  12.663
58355W        W30780   3.943   9.376   4.582
58356W        W30781   5.839  10.090   0.973
58357W        W30782  37.065  28.291   3.632
58358W        W30783  29.487  32.745   1.528
58359W        W30784   0.798  37.376   3.748
58360W        W30785  29.021  33.060   0.417
58361W        W30786  44.454  18.515   4.142
58362W        W30787  26.235  34.594  10.627
58363W        W30788   4.499  25.991  14.376
58364W        W30789  18.257  20.038   1.924
58365W        W30790   2.901   3.520   3.898
58366W        W30791   5.975  31.011   0.405
58367W        W30792  31.156   8.284   1.459
58368W        W30793  21.190  28.474  14.140
58369W        W30794  18.011  23.737  11.679
58370W        W30795  31.559   8.280  13.980
58371W        W30796   6.965  34.090  13.094
58372W        W30797   2.256  20.102   2.136
58373W        W30798  19.599  42.623   3.121
58374W        W30799  18.547  30.228   1.823
58375W        W30800   8.577  40.739  12.966
58376W        W30801  17.517  34.898  14.891
58377W        W30802   0.546   9.097   2.130
58378W        W30803  36.663  44.379  12.013
58379W        W30804  32.941   8.086  11.140
58380W        W30805  42.910  16.176   2.213
58381W        W30806   6.827  23.023   1.877
58382W        W30807  26.687  21.720   1.714
58383W        W30808  20.662  18.788  11.637
58384W        W30809   8.371  44.295  12.096
58385W        W30810  36.319  14.788  13.865
58386W        W30811  34.115   1.657   3.203
58387W        W30812  24.193  29.120   4.909
58388W        W30813  36.519   5.980   4.245
58389W        W30814  16.736  15.189  11.677
58390W        W30815  23.677  36.852  14.621
58391W        W30816  28.109   9.763   0.201
58392W        W30817  39.394  15.055   1.774
58393W        W30818  19.133  44.334  13.565
58394W        W30819  27.873  19.696  14.391
58395W        W30820   3.825  18.993   4.686
58396W        W30821  19.593  44.076  13.511
58397W        W30822  42.674  20.047   2.395
58398W        W30823   0.957  33.080   4.215
58399W        W30824  40.203  14.301  14.841
58400W        W30825  20.832  23.758   4.181
58401W        W30826   1.961  30.005   2.718
58402W        W30827  37.811  20.039   0.668
58403W        W30828  28.488  16.215   4.102
58404W        W30829  32.590  15.288   0.837
58405W        W30830  21.239  18.809  14.922
58406W        W30831  10.771  23.573  10.602
58407W        W30832  17.749  19.179   3.098
58408W        W30833  22.706  40.036  14.482
58409W        W30834   7.208   0.710   2.271
58410W        W30835  26.391  43.339   2.875
58411W        W30836  22.469  16.802   2.439
58412W        W30837  14.494  24.493  11.513
58413W        W30838  19.801  36.947  11.629
58414W        W30839  12.336  15.336   3.339
58415W        W30840  41.942  18.082   5.091
58416W        W30841   1.906   3.489  11.659
58417W        W30842   3.704  40.316   4.907
58418W        W30843  44.464   7.947   1.752
58419W        W30844  13.040  41.962  13.833
58420W        W30845  24.197  13.200  14.046
58421W        W30846  26.195  37.335   3.604
58422W        W30847  35.852   7.190   4.352
58423W        W30848  41.426   5.252   1.491
58424W        W30849  24.493   1.824  14.045
58425W        W30850  44.833  32.197   3.598
58426W        W30851  26.750  13.411   3.539
58427W        W30852   7.416  21.605  14.728
58428W        W30853  22.345  43.881  10.659
58429W        W30854  24.150  26.428   1.449
58430W        W30855   6.721  38.192  14.414
58431W        W30856  38.358   8.745   2.213
58432W        W30857   8.124  20.963   2.811
58433W        W30858   3.327  21.551  14.538
58434W        W30859  22.900  17.674   2.488
58435W        W30860   8.146  28.477   2.477
58436W        W30861  31.501  42.353  14.712
58437W        W30862  12.181  22.792  10.862
58438W        W30863  31.069  44.802   2.308
58439W        W30864  26.508  13.360  13.836
58440W        W30865  18.206  42.024  12.429
58441W        W30866  30.099   4.221  14.979
58442W        W30867  27.751   1.827  13.402
58443W        W30868  11.258  28.401   1.016
58444W        W30869  30.145  25.466  12.140
58445W        W30870  12.165   5.346  13.511
58446W        W30871  39.966  14.668   0.692
58447W        W30872   7.358   5.360   3.378
58448W        W30873  15.661  30.139  12.033
58449W        W30874  21.357  30.529   4.165
58450W        W30875  19.176  16.578  10.658
58451W        W30876  15.172  36.015  14.399
58452W        W30877  43.170   3.012  10.864
58453W        W30878  22.664  43.809  11.558
58454W        W30879  12.303  18.259   2.454
58455W        W30880  29.479  33.358   3.626
58456W        W30881  35.126  27.955  11.645
58457W        W30882  18.093  27.628  14.788
58458W        W30883  34.408  16.617   2.692
58459W        W30884  22.034  38.591  13.319
58460W        W30885  12.460  23.237   0.167
58461W        W30886  10.389  25.971  14.363
58462W        W30887  20.632  16.580   4.308
58463W        W30888  24.750  20.094  12.361
58464W        W30889  19.176  17.791   3.592
58465W        W30890  32.541   3.206  11.165
58466W        W30891  41.393  34.466   1.719
58467W        W30892  34.643  31.621   4.174
58468W        W30893  15.217  16.585   0.862
58469W        W30894  14.138   1.719  12.925
58470W        W30895  40.148  41.716  14.953
58471W        W30896  13.911   1.043   4.084
58472W        W30897  11.342  42.610   4.226
58473W        W30898   4.590  39.836   4.227
58474W        W30899  41.824  13.017  11.345
58475W        W30900  23.773  35.456  14.003
58476W        W30901  31.171  42.557   0.071
58477W        W30902  42.906  39.319   0.897
58478W        W30903  14.666  31.360  12.062
58479W        W30904   1.681   1.711   4.853
58480W        W30905  28.544  10.071   0.764
58481W        W30906  13.079   1.889  10.638
58482W        W30907  18.018  36.910  13.869
58483W        W30908  13.028  43.732  11.986
58484W        W30909  33.767  29.415   3.678
58485W        W30910  23.388  41.817   1.793
58486W        W30911  10.800  12.434   4.756
58487W        W30912  17.162   4.455  11.639
58488W        W30913  10.342  18.739   0.777
58489W        W30914  38.780  31.597   1.590
58490W        W30915  40.596  39.760  10.898
58491W        W30916   5.278   8.030   1.874
58492W        W30917  32.379  40.908  13.910
58493W        W30918  37.130  36.193  14.841
58494W        W30919  37.813  17.682   2.253
58495W        W30920   8.122  24.216   4.164
58496W        W30921   6.774   1.998   2.701
58497W        W30922  40.505   5.420  12.090
58498W        W30923  36.989  35.960   4.422
58499W        W30924  25.176  31.385  12.760
58500W        W30925  16.034  33.887   4.663
58501W        W30926   3.189  28.471  14.232
58502W        W30927  20.611  26.575   3.316
58503W        W30928  20.292  23.659   1.792
58504W        W30929  38.109  19.686  14.085
58505W        W30930   0.076  18.770  12.072
58506W        W30931  40.697  15.709  12.727
58507W        W30932  14.330  28.362  13.315
58508W        W30933  43.364  25.967   1.845
58509W        W30934  19.753  18.685  12.545
58510W        W30935  41.115  26.112  12.084
58511W        W30936  44.108  36.925   2.825
58512W        W30937  11.064  43.523   4.181
58513W        W30938  13.238  36.034  12.761
58514W        W30939  38.686  37.678  13.024
58515W        W30940  23.147  12.788  11.287
58516W        W30941  36.983  28.660  10.733
58517W        W30942   7.122  15.176   3.222
58518W        W30943   8.167   7.468   0.191
58519W        W30944  32.929  27.446   0.498
58520W        W30945   1.940  33.335  12.118
58521W        W30946  44.761  35.067   0.361
58522W        W30947  27.239  32.605  14.401
58523W        W30948  27.194  18.192  10.599
58524W        W30949  31.258  25.755  11.949
58525W        W30950   1.527  15.552  14.420
58526W        W30951  19.027  21.919  14.853
58527W        W30952  22.719  17.773  12.003
58528W        W30953   8.184  11.610   3.651
58529W        W30954  13.555  19.159  12.275
58530W        W30955   1.064   0.853  14.295
58531W        W30956  30.665  12.964   4.174
58532W        W30957  20.973   2.795   4.912
58533W        W30958  19.802  33.862   1.732
58534W        W30959   4.979  17.795   0.403
58535W        W30960   2.561  10.860  10.667
58536W        W30961  24.940   9.243  10.625
58537W        W30962  36.135  26.512   1.764
58538W        W30963   6.511  10.650   3.241
58539W        W30964  30.674  13.021  14.046
58540W        W30965  18.484  13.752  11.678
58541W        W30966  17.292  11.201   4.550
58542W        W30967  14.719  15.615  14.681
58543W        W30968  17.626  23.137   1.180
58544W        W30969  17.741  33.375   9.859
58545W        W30970  41.317  16.812  11.528
58546W        W30971   6.793  21.127   3.210
58547W        W30972   1.490  22.107   3.197
58548W        W30973  40.843  10.645   3.282
58549W        W30974  14.737  29.632   1.659
58550W        W30975  41.141  25.501   2.704
58551W        W30976  12.245  41.529   4.214
58552W        W30977  28.945   7.115  12.832
58553W        W30978   8.194  32.579  10.682
58554W        W30979  10.365  42.375  11.632
58555W        W30980   3.777  34.409   3.774
58556W        W30981  44.079  28.035   1.275
58557W        W30982  22.503  43.463  14.037
58558W        W30983  30.066  14.970  14.045
58559W        W30984  22.016  37.538   4.024
58560W        W30985  13.696   9.947   1.689
58561W        W30986  34.181   5.133   0.907
58562W        W30987  16.757  44.339  11.560
58563W        W30988  33.653  31.191   1.799
58564W        W30989  29.449  22.745  11.173
58565W        W30990  25.044  42.460  10.845
58566W        W30991   8.698  31.850   4.240
58567W        W30992  34.107  21.422  14.051
58568W        W30993   2.033   8.392  12.633
58569W        W30994   6.696  17.721   1.236
58570W        W30995  32.439  20.728   3.636
58571W        W30996  12.687  11.859  14.094
58572W        W30997   5.832  25.635   2.848
58573W        W30998  24.605   2.360  10.898
58574W        W30999  34.123  11.449  11.071
58575W        W31000  41.070  35.608  14.725
58576W        W31001   0.372   3.217  10.774
58577W        W31002  26.419  44.971   3.226
58578W        W31003  10.691  31.122   0.775
58579W        W31004  43.331  11.205  12.386
58580W        W31005  20.189  28.621  13.589
58581W        W31006  15.165  16.006   2.710
58582W        W31007  26.327  29.366  11.503
58583W        W31008  16.173   2.373  11.695
58584W        W31009   0.731  39.511  12.918
58585W        W31010   3.738  29.212   2.209
58586W        W31011  33.085  30.338  14.316
58587W        W31012  40.980  13.672   3.806
58588W        W31013   7.125  13.651   0.715
58589W        W31014  15.738  22.782   2.638
58590W        W31015  23.701  17.170  11.803
58591W        W31016  32.315   5.047  13.716
58592W        W31017  11.651  26.052  11.017
58593W        W31018  39.882  38.021   2.793
58594W        W31019  32.406  25.013   1.082
58595W        W31020   5.925  20.189  12.093
58596W        W31021  10.906  26.371  11.066
58597W        W31022   1.086  35.500  13.891
58598W        W31023  17.472  19.121  11.490
58599W        W31024  33.969  22.952  14.966
58600W        W31025  44.222  38.568  13.094
58601W        W31026   0.656  21.118  11.136
58602W        W31027  15.510  43.934   1.880
58603W        W31028  39.429  33.318  11.486
58604W        W31029  22.585  31.411   0.967
58605W        W31030  18.749  27.131  13.010
58606W        W31031   0.219   5.491  11.054
58607W        W31032   0.276  26.102  11.576
58608W        W31033  39.461  40.367  13.494
58609W        W31034  42.915  22.769   3.641
58610W        W31035   1.924  39.053   2.194
58611W        W31036   0.803  29.180   3.621
58612W        W31037  43.527  21.072   2.185
58613W        W31038   3.345  23.886   3.321
58614W        W31039  10.379  19.232   3.896
58615W        W31040  41.986  21.022   3.325
58616W        W31041  41.404  13.347  11.546
58617W        W31042   4.859  21.717  14.430
58618W        W31043  17.155  13.721   0.234
58619W        W31044   8.752  26.170   4.961
58620W        W31045  10.820  33.884  14.951
58621W        W31046   0.008   1.409  14.889
58622W        W31047   2.380  39.792   0.473
58623W        W31048   9.328   6.197  14.338
58624W        W31049  12.748   9.504   2.783
58625W        W31050   0.747  40.506  11.037
58626W        W31051  24.963  24.872   4.129
58627W        W31052  27.935  30.496  10.996
58628W        W31053   2.307   2.399   0.709
58629W        W31054  32.960   7.807   3.226
58630W        W31055  38.775  25.621   1.322
58631W        W31056   6.014   9.193   1.154
58632W        W31057  19.188   9.787   0.250
58633W        W31058   6.721  14.177   3.208
58634W        W31059  31.711  17.880  11.508
58635W        W31060  34.434  38.311  12.178
58636W        W31061   8.809  41.925   0.745
58637W        W31062  32.490  40.034   0.535
58638W        W31063  15.245   8.468   3.143
58639W        W31064  36.572  26.694   2.035
58640W        W31065   5.336  24.512  14.988
58641W        W31066   3.918  40.975   4.544
58642W        W31067   7.352  37.412  13.395
58643W        W31068   2.237  38.796   4.125
58644W        W31069  32.935  27.939   1.373
58645W        W31070  11.306  13.859  10.941
58646W        W31071  36.861  37.155  10.513
58647W        W31072  32.042  17.920  12.462
58648W        W31073  39.624  13.371   1.166
58649W        W31074   2.724   0.339   3.107
58650W        W31075  12.775  16.078  10.635
58651W        W31076  41.713  31.592  13.728
58652W        W31077   1.211  11.369   1.781
58653W        W31078  26.583   7.329   1.758
58654W        W31079  27.719   9.658   3.599
58655W        W31080   3.899   2.376  13.259
58656W        W31081  33.067   3.081  14.052
58657W        W31082  27.024   1.568   2.907
58658W        W31083  24.768  38.957  13.447
58659W        W31084  26.978  37.887  11.537
58660W        W31085  33.440  36.431  11.960
58661W        W31086  27.461  16.205  13.530
58662W        W31087  14.741  14.143  11.441
58663W        W31088  38.631  24.160  13.782
58664W        W31089   9.119  19.554   3.705
58665W        W31090  43.837  16.348   0.271
58666W        W31091  28.697  23.145  13.841
58667W        W31092  42.337  41.231  12.882
58668W        W31093  27.741  27.542  11.922
58669W        W31094  42.506   6.485  11.646
58670W        W31095  42.070  23.116   1.183
58671W        W31096  25.472  13.824   4.084
58672W        W31097  31.021  29.499   4.871
58673W        W31098  22.072  10.214   4.846
58674W        W31099   4.439  42.165   2.831
58675W        W31100  31.467  42.825   4.604
58676W        W31101  10.892  40.641  12.960
58677W        W31102  31.840   9.870   1.258
58678W        W31103  11.033   9.331   4.126
58679W        W31104   8.922  27.232  11.690
58680W        W31105   4.222   7.266   1.273
58681W        W31106   2.915  25.151  11.733
58682W        W31107  22.569  21.297   4.538
58683W        W31108  19.071  28.845   3.809
58684W        W31109   0.405  25.162  13.866
58685W        W31110   9.119  20.146   0.789
58686W        W31111  40.089  10.946   2.792
58687W        W31112  18.056  10.616   3.018
58688W        W31113  27.915  28.692  12.531
58689W        W31114  36.919  43.059  11.136
58690W        W31115  38.399  41.477  12.201
58691W        W31116   9.204  22.270   3.174
58692W        W31117  15.347  10.416   4.178
58693W        W31118  43.354  27.639  14.125
58694W        W31119   8.920  28.639   2.791
58695W        W31120  39.817  25.937   1.829
58696W        W31121  23.962  24.743  12.481
58697W        W31122  33.325   7.153  14.235
58698W        W31123  11.870   2.485   1.500
58699W        W31124  36.510  25.977   1.179
58700W        W31125  10.664  24.968   1.830
58701W        W31126  32.879  24.908   3.635
58702W        W31127   9.640  24.562  11.876
58703W        W31128   3.937  32.608  11.034
58704W        W31129   2.973  18.073  13.347
58705W        W31130   0.548  33.377   2.818
58706W        W31131  29.615  25.200   1.376
58707W        W31132  28.102  30.468   1.821
58708W        W31133  27.154  16.056  14.404
58709W        W31134  34.322  16.109  12.487
58710W        W31135  16.138   9.727  10.826
58711W        W31136  43.344  22.731   4.984
58712W        W31137  13.659   7.299   4.061
58713W        W31138   7.442  42.324   1.718
58714W        W31139   1.283  38.567  14.956
58715W        W31140   0.255  12.793   0.786
58716W        W31141   1.707  40.948  13.334
58717W        W31142  25.732  35.497  12.610
58718W        W31143   6.058  32.875   3.059
58719W        W31144   8.108  37.507   1.199
58720W        W31145   3.099  22.640   0.442
58721W        W31146  37.699  31.468   2.318
58722W        W31147  14.807  24.086   0.421
58723W        W31148   9.800  12.352  12.632
58724W        W31149  40.802  39.952   1.721
58725W        W31150   7.427  18.162   4.253
58726W        W31151  10.554  12.225  14.351
58727W        W31152  22.427  24.731   0.682
58728W        W31153  38.275  16.154   0.354
58729W        W31154  31.545   0.054   2.217
58730W        W31155  44.388  43.201   3.193
58731W        W31156  16.689   0.806  10.660
58732W        W31157   5.945  35.709   0.860
58733W        W31158  21.507  34.583  14.485
58734W        W31159  29.959  36.857   4.747
58735W        W31160  43.275  20.459   3.703
58736W        W31161  25.047  32.820  10.492
58737W        W31162  35.355  25.269  11.220
58738W        W31163  13.249  13.092  14.523
58739W        W31164  32.555   2.977   2.693
58740W        W31165   5.253   0.992  14.240
58741W        W31166  19.223   6.715   0.613
58742W        W31167  39.000  34.100   3.586
58743W        W31168  29.822  31.112   3.168
58744W        W31169  34.456  43.843   2.303
58745W        W31170  39.041  41.495  14.699
58746W        W31171  23.189   3.407  10.621
58747W        W31172   1.380   3.683   4.742
58748W        W31173   5.783  24.060   3.333
58749W        W31174  41.344  43.312  13.813
58750W        W31175  29.226  13.812   0.259
58751W        W31176   4.711  18.307  11.620
58752W        W31177  22.682  29.669   1.437
58753W        W31178  29.767  10.723   2.455
58754W        W31179   7.978  10.366  11.293
58755W        W31180  27.035  32.863   2.438
58756W        W31181   3.305   3.244   3.666
58757W        W31182  42.427   7.993   1.003
58758W        W31183  21.538   6.423   2.094
58759W        W31184  37.567  27.924   2.120
58760W        W31185  22.838  35.566  12.871
58761W        W31186  12.630  33.946   0.035
58762W        W31187   7.379   5.732  12.100
58763W        W31188  42.947  33.468   1.129
58764W        W31189   0.010  24.010  12.057
58765W        W31190  37.741   8.803   3.336
58766W        W31191  43.490  41.442  14.989
58767W        W31192   0.608  33.427   5.054
58768W        W31193  25.497  10.817  14.057
58769W        W31194  12.056  38.988  10.531
58770W        W31195  36.792  27.122   1.798
58771W        W31196  43.592  17.260   2.271
58772W        W31197  11.390  21.454  13.114
58773W        W31198  10.187  37.322  12.327
58774W        W31199  30.731  43.032  13.406
58775W        W31200   4.204  29.457   2.083
58776W        W31201  30.598  37.381   2.223
58777W        W31202  35.932  12.276  14.773
58778W        W31203  20.002   6.374  13.501
58779W        W31204  24.315  21.133  11.474
58780W        W31205  17.934  21.201   3.695
58781W        W31206  16.007  34.100  14.791
58782W        W31207  20.048  31.147   1.335
58783W        W31208  28.919  33.328   0.906
58784W        W31209  21.602   4.347   4.626
58785W        W31210  27.171   0.063   4.389
58786W        W31211   8.171  43.564   0.309
58787W        W31212  12.704  36.620  12.893
58788W        W31213  22.342  43.286  14.497
58789W        W31214   3.402  38.096   3.048
58790W        W31215  28.716  23.912  10.384
58791W        W31216  16.805  27.589  14.316
58792W        W31217   8.770  23.955  14.547
58793W        W31218   5.514  40.352  11.149
58794W        W31219   0.733  19.156   3.157
58795W        W31220  19.526  34.436  10.660
58796W        W31221  29.048  26.202   2.154
58797W        W31222  27.508  33.540   1.025
58798W        W31223  33.741   9.463   2.675
58799W        W31224  36.510   9.962   5.102
58800W        W31225  39.059   9.206   3.164
58801W        W31226  32.575  44.101   1.209
58802W        W31227  22.995  37.081  11.021
58803W        W31228  19.504  26.902   1.761
58804W        W31229  22.596  42.876   4.562
58805W        W31230  30.440  21.497   5.493
58806W        W31231   7.913  21.094  10.706
58807W        W31232   0.177  19.463   3.575
58808W        W31233  29.590  32.352   3.644
58809W        W31234  12.594  23.653  11.538
58810W        W31235  41.020  32.081  12.431
58811W        W31236  34.566  20.653   0.916
58812W        W31237  38.994  19.027   3.196
58813W        W31238  22.497   8.300   4.352
58814W        W31239   1.377  31.812   2.554
58815W        W31240  13.352  41.469   3.561
58816W        W31241  24.420   2.712   1.826
58817W        W31242  11.909   9.774  11.495
58818W        W31243  26.055  12.277   3.681
58819W        W31244   9.578  15.643  10.611
58820W        W31245  24.634  22.946   3.777
58821W        W31246  25.640   7.614   3.167
58822W        W31247   7.663   6.248  10.803
58823W        W31248   7.288  39.128  11.330
58824W        W31249   5.383  10.137   3.161
58825W        W31250  29.902  33.466  13.995
58826W        W31251  34.342  10.361  14.215
58827W        W31252   2.461  25.974   1.821
58828W        W31253  32.925  37.493  14.828
58829W        W31254  19.147  15.069  12.912
58830W        W31255  12.226   8.276  11.891
58831W        W31256   0.496  43.031  14.409
58832W        W31257  13.408   4.365   0.766
58833W        W31258  27.720   2.081   1.405
58834W        W31259   7.897  15.674   5.079
58835W        W31260  15.989  21.222  14.575
58836W        W31261  12.167  26.545  10.540
58837W        W31262   3.748   0.937  14.524
58838W        W31263   7.275  39.450   2.439
58839W        W31264   4.900  35.355   3.720
58840W        W31265  12.383  38.537  10.694
58841W        W31266  25.529  43.510   1.232
58842W        W31267  26.127  43.532   2.441
58843W        W31268  39.524  37.845   1.439
58844W        W31269  14.602  38.474   3.022
58845W        W31270  42.422  10.303  14.339
58846W        W31271  19.592  15.827   0.358
58847W        W31272  14.782  31.486  12.635
58848W        W31273  13.873   2.431  10.640
58849W        W31274  29.955  24.823   3.745
58850W        W31275  10.335  17.692   0.741
58851W        W31276  18.515  35.241   4.983
58852W        W31277  13.360  21.214  10.641
58853W        W31278  32.539   3.841   2.352
58854W        W31279  29.210   1.989  11.113
58855W        W31280  29.674   7.391   0.979
58856W        W31281  16.280  35.390   2.712
58857W        W31282  30.462  24.763  14.302
58858W        W31283  36.985   3.385  12.687
58859W        W31284  22.086  19.507   2.931
58860W        W31285  30.913  32.541  12.033
58861W        W31286  19.329  39.761  12.971
58862W        W31287   4.352  41.225  12.935
58863W        W31288  26.611  13.204  14.359
58864W        W31289  11.663  40.271   3.147
58865W        W31290   3.793  27.678  14.805
58866W        W31291  20.255  34.734  12.498
58867W        W31292  25.771  17.629   3.211
58868W        W31293  10.155  25.920   4.171
58869W        W31294  28.441  11.040   3.159
58870W        W31295  40.656  35.513  10.734
58871W        W31296  19.634  17.817  11.465
58872W        W31297  13.136  11.889  11.130
58873W        W31298   0.298   7.383  13.616
58874W        W31299  38.105  29.634   4.627
58875W        W31300   0.778  28.162   4.627
58876W        W31301   1.320   6.765   3.694
58877W        W31302  24.751  34.159  14.290
58878W        W31303  37.865  42.843   2.967
58879W        W31304  26.708   0.252   0.540
58880W        W31305   6.745  24.753   1.331
58881W        W31306  27.613  25.885  10.492
58882W        W31307  23.459  28.463   1.370
58883W        W31308  25.949  22.418  11.307
58884W        W31309  11.903   9.539  10.216
58885W        W31310  25.144  38.071   2.823
58886W        W31311  25.098  38.035  13.066
58887W        W31312  39.889  32.888   2.142
58888W        W31313  22.020  26.040   0.787
58889W        W31314  21.017  22.987   3.721
58890W        W31315  43.473  40.370  11.541
58891W        W31316  21.676  13.789   3.714
58892W        W31317  23.121  19.616  10.754
58893W        W31318  41.029   8.211   4.491
58894W        W31319  11.364  41.894  11.036
58895W        W31320  19.751  44.184  14.009
58896W        W31321  34.462  11.034  11.105
58897W        W31322  17.301  40.774  12.220
58898W        W31323  31.201  41.052  11.469
58899W        W31324  29.566   3.319  14.571
58900W        W31325  28.700  26.497   2.791
58901W        W31326  25.942  27.674   0.022
58902W        W31327   3.518  34.157  14.119
58903W        W31328  33.053  36.361   1.495
58904W        W31329  25.154   6.948   3.352
58905W        W31330  13.185  13.314  11.392
58906W        W31331  40.886   1.028   4.122
58907W        W31332  40.312  41.262   4.598
58908W        W31333  41.924  17.304  10.878
58909W        W31334   5.740  31.352  11.508
58910W        W31335  12.611  11.714   0.483
58911W        W31336  20.143   0.263  13.420
58912W        W31337  22.225  25.216   3.235
58913W        W31338  41.003  24.994  11.770
58914W        W31339  38.354  43.986  11.560
58915W        W31340  21.100  16.809   2.297
58916W        W31341  36.643   5.044  11.662
58917W        W31342  33.821   6.949  13.480
58918W        W31343  38.091  34.074   0.569
58919W        W31344   6.167  26.456  13.869
58920W        W31345  26.400  24.101   3.642
58921W        W31346  42.077  32.152   1.741
58922W        W31347  44.916  26.977   3.213
58923W        W31348  27.082  19.495   1.680
58924W        W31349  21.793  25.100   5.136
58925W        W31350  11.182  35.244   3.844
58926W        W31351  44.211  22.133  14.395
58927W        W31352   1.457  36.863   2.275
58928W        W31353   8.736  39.315  12.669
58929W        W31354   5.406  23.569  12.236
58930W        W31355   8.856  32.086  13.379
58931W        W31356  19.105   2.441   3.792
58932W        W31357  21.711  30.148  14.836
58933W        W31358   6.729  26.123  13.994
58934W        W31359  15.643   7.740   4.745
58935W        W31360  10.869  10.894   3.811
58936W        W31361  41.817  23.343  13.915
58937W        W31362  20.943  26.292  11.932
58938W        W31363  33.222  41.121  11.226
58939W        W31364  36.774  40.784  12.126
58940W        W31365  37.000   6.025  12.552
58941W        W31366  22.524  34.914  13.433
58942W        W31367  31.588   8.857  11.162
58943W        W31368  41.410  40.542  12.868
58944W        W31369   7.693  20.600   4.657
58945W        W31370  34.376  27.418  11.037
58946W        W31371  12.892  38.362   4.060
58947W        W31372  28.593  26.470  14.362
58948W        W31373  26.650  12.940   5.024
58949W        W31374  33.390  14.511   2.735
58950W        W31375  20.305  19.550  13.128
58951W        W31376  30.459  23.190   0.318
58952W        W31377  29.861   8.766  12.414
58953W        W31378  25.664   9.545   2.681
58954W        W31379  19.308  16.314  14.529
58955W        W31380  16.550   2.800   2.777
58956W        W31381  40.437  26.922   4.682
58957W        W31382  17.353  25.634  14.671
58958W        W31383  38.417  29.164   3.363
58959W        W31384   9.712  23.637   4.912
58960W        W31385  32.163  12.279   1.113
58961W        W31386  38.638  34.479   3.640
58962W        W31387  41.783  11.275  11.067
58963W        W31388  34.893  23.690  10.375
58964W        W31389  20.116  28.234   1.251
58965W        W31390  24.572  12.130  13.057
58966W        W31391  21.756   9.758  12.775
58967W        W31392  41.458   0.218  10.574
58968W        W31393  27.223  32.078  13.420
58969W        W31394  13.086  19.069  14.392
58970W        W31395  23.958  21.221   3.183
58971W        W31396  12.134  21.108  11.176
58972W        W31397   8.299  38.934  12.521
58973W        W31398  32.833  19.749   1.835
58974W        W31399  20.186   8.118   3.690
58975W        W31400  19.700  41.351  11.325
58976W        W31401   7.644   5.743   1.670
58977W        W31402   5.431  22.945  12.906
58978W        W31403   2.627   3.618  12.078
58979W        W31404  30.966  16.127  10.768
58980W        W31405  40.566  14.334  14.452
58981W        W31406  44.012  40.301  12.300
58982W        W31407  31.512  42.030  12.718
58983W        W31408  33.483   4.230  13.237
58984W        W31409   2.802   3.794   1.613
58985W        W31410  11.390   6.773  12.421
58986W        W31411  29.185   8.663  14.102
58987W        W31412  35.803   2.773   2.758
58988W        W31413   7.159   3.668  13.494
58989W        W31414   4.904   8.873   0.383
58990W        W31415  14.752  32.966  13.898
58991W        W31416  23.500   0.030   1.450
58992W        W31417  32.870  14.503   2.674
58993W        W31418  20.162  28.622   2.401
58994W        W31419   4.089  25.519  11.887
58995W        W31420   5.822  10.342   3.000
58996W        W31421  36.182  41.138   3.188
58997W        W31422  35.886  42.477  12.954
58998W        W31423  25.231  16.077   3.308
58999W        W31424  15.068  11.640   0.107
59000W        W31425  30.341  17.964   0.210
59001W        W31426  35.091  39.476   3.421
59002W        W31427  41.499   9.287   0.034
59003W        W31428  23.173  10.169  10.697
59004W        W31429  40.754  43.311  11.116
59005W        W31430  20.037  19.066   3.842
59006W        W31431  38.841   8.723   3.211
59007W        W31432  24.464  37.591  14.371
59008W        W31433  10.661   9.898   2.099
59009W        W31434  16.196  10.857   1.313
59010W        W31435  20.406  29.209  11.390
59011W        W31436  42.225  21.243   2.896
59012W        W31437  22.080   7.762  12.064
59013W        W31438  19.640  40.377   3.866
59014W        W31439  14.526  39.792   4.024
59015W        W31440  10.804  17.814  14.022
59016W        W31441  24.954  11.577   2.076
59017W        W31442   8.039  15.680  13.687
59018W        W31443  42.935  23.236   0.829
59019W        W31444  29.024  37.017  11.636
59020W        W31445  36.091  10.663  11.229
59021W        W31446  21.093  24.096   1.664
59022W        W31447  15.233  40.440   0.491
59023W        W31448   5.763  22.399  10.376
59024W        W31449  42.634  18.833  10.140
59025W        W31450  37.540  38.371  12.902
59026W        W31451   1.228  44.158   9.584
59027W        W31452  12.543  31.730   0.818
59028W        W31453  11.334  44.996   0.716
59029W        W31454  17.132  40.455  13.155
59030W        W31455  27.619  12.621  12.773
59031W        W31456  14.188   5.418   0.661
59032W        W31457  31.679  40.960   5.053
59033W        W31458  35.426  42.126   2.824
59034W        W31459   5.835  41.286   0.777
59035W        W31460  17.736  33.930   9.826
59036W        W31461  37.820  34.457  14.228
59037W        W31462   8.173  38.521   4.429
59038W        W31463  13.849  18.844   0.731
59039W        W31464   1.393  29.670   4.609
59040W        W31465   3.189  40.277  12.833
59041W        W31466  23.241  10.280   3.682
59042W        W31467  16.724  38.435  10.981
59043W        W31468  10.963  22.146  10.667
59044W        W31469  40.877  22.937   9.929
59045W        W31470  17.919  29.083  13.906
59046W        W31471   0.639  20.003  12.790
59047W        W31472  31.396  11.929  11.951
59048W        W31473  36.863  33.677  11.056
59049W        W31474  31.186  43.356   0.484
59050W        W31475  27.333  39.795   3.622
59051W        W31476   1.238   8.495   2.816
59052W        W31477  17.147  13.501  11.609
59053W        W31478  33.818  15.629   1.865
59054W        W31479  36.183  28.231  14.430
59055W        W31480   4.972  12.087   2.689
59056W        W31481   7.424  29.220  11.128
59057W        W31482  36.289   8.839  11.028
59058W        W31483  15.526  13.728  11.060
59059W        W31484  37.459  37.965   0.651
59060W        W31485   7.085   1.898  12.114
59061W        W31486  36.797  14.119   3.152
59062W        W31487   6.260   2.766   4.472
59063W        W31488  37.775  11.796  12.973
59064W        W31489  36.393  23.114   3.652
59065W        W31490  19.475  15.828  13.506
59066W        W31491   6.325  24.625   1.949
59067W        W31492  43.852  15.837   4.260
59068W        W31493  22.569  17.780  13.925
59069W        W31494  34.525  36.751   4.636
59070W        W31495  29.456   2.309   0.339
59071W        W31496   1.767  10.607   0.764
59072W        W31497  30.628  14.241  13.185
59073W        W31498  21.567  40.517   2.860
59074W        W31499  26.512  31.388   0.878
59075W        W31500  31.654  12.694  11.147
59076W        W31501   6.458   3.406   0.136
59077W        W31502  18.059  19.524   4.817
59078W        W31503  19.586  44.958  12.842
59079W        W31504   6.416  32.448   1.665
59080W        W31505  26.452  32.196   1.356
59081W        W31506   3.019  36.529   1.240
59082W        W31507  30.976  19.108   0.778
59083W        W31508   6.538  42.999  12.475
59084W        W31509  16.006  37.118  13.858
59085W        W31510   6.193   2.789  13.863
59086W        W31511  16.702  22.740   3.217
59087W        W31512  40.040  15.356  12.508
59088W        W31513   1.280  41.687   2.200
59089W        W31514  44.108  31.332   5.528
59090W        W31515  32.897  34.570  10.691
59091W        W31516  14.303  38.134   1.383
59092W        W31517  15.872  11.817   1.341
59093W        W31518  18.719  21.851   1.857
59094W        W31519  27.497   1.381   2.184
59095W        W31520  35.615   6.863  10.117
59096W        W31521   6.436  41.054  11.512
59097W        W31522  42.002  11.780  10.692
59098W        W31523  18.233  17.629  10.650
59099W        W31524  26.807   3.928   2.711
59100W        W31525  32.532  20.006   0.710
59101W        W31526  44.324  15.039   4.114
59102W        W31527  40.990  40.887  13.980
59103W        W31528  38.922  21.278  13.378
59104W        W31529  43.822   4.746  10.725
59105W        W31530  20.196  26.802   3.895
59106W        W31531  16.299  18.752   1.227
59107W        W31532   7.574  16.959  11.834
59108W        W31533  15.831   8.080  13.547
59109W        W31534  16.556  34.854   2.293
59110W        W31535  27.956  32.686  10.502
59111W        W31536  20.701  21.556   4.488
59112W        W31537  15.013  43.374  14.373
59113W        W31538  34.376  24.601   4.391
59114W        W31539  10.748  16.322   2.442
59115W        W31540  15.641  29.088  14.500
59116W        W31541  28.595  18.214  11.109
59117W        W31542  42.122   3.886  10.670
59118W        W31543  39.079  26.116  13.897
59119W        W31544  20.760   8.757   1.960
59120W        W31545  31.846   4.126  14.322
59121W        W31546   1.344  16.252   4.366
59122W        W31547  22.918  35.763   3.264
59123W        W31548  16.189  16.346   3.215
59124W        W31549   9.493  37.417  14.464
59125W        W31550  35.440   2.332   1.843
59126W        W31551  40.673   1.747  14.704
59127W        W31552  11.452  25.490  12.791
59128W        W31553  26.799  11.512  13.423
59129W        W31554  18.259  36.331  10.413
59130W        W31555   5.999  12.005   0.014
59131W        W31556  42.453  18.022   0.380
59132W        W31557  29.410   3.260   3.185
59133W        W31558   8.250  39.404   0.832
59134W        W31559  37.987  43.753   1.262
59135W        W31560  15.461  19.306   4.139
59136W        W31561   5.816  29.344  13.671
59137W        W31562   5.321  29.352  11.074
59138W        W31563  23.264  14.559   1.447
59139W        W31564  11.527  40.979  14.210
59140W        W31565  19.822  39.791  13.909
59141W        W31566   3.215  33.191   3.334
59142W        W31567  16.709  18.720   4.859
59143W        W31568  40.307  43.243   1.239
59144W        W31569  17.694  12.897   4.231
59145W        W31570  25.019  27.449   0.042
59146W        W31571  27.261   1.644  13.414
59147W        W31572  14.593  36.712   1.332
59148W        W31573  34.607  26.311   3.284
59149W        W31574  28.624  28.649   3.701
59150W        W31575  23.400   4.339  10.741
59151W        W31576  15.757   2.915   4.575
59152W        W31577   8.917   0.065  13.792
59153W        W31578  36.564   8.809  11.484
59154W        W31579  18.056  23.804   2.160
59155W        W31580  38.552   7.417   0.810
59156W        W31581  21.196  44.315  10.813
59157W        W31582  35.820   0.216  12.082
59158W        W31583  39.084  41.185   2.372
59159W        W31584  19.900   9.328   0.732
59160W        W31585  39.532  12.005   0.733
59161W        W31586  12.728  43.844   0.055
59162W        W31587   0.215   4.355  14.171
59163W        W31588  35.854  24.012   1.877
59164W        W31589  19.100   6.296   0.894
59165W        W31590   5.444  18.745  11.608
59166W        W31591   1.048  38.673  13.460
59167W        W31592  29.111  17.140  12.412
59168W        W31593  31.153  17.771   3.029
59169W        W31594  41.491   0.725  13.101
59170W        W31595  39.297  43.974   2.661
59171W        W31596  20.152  41.414   2.234
59172W        W31597  44.514  11.582  10.360
59173W        W31598  13.668  12.916   3.705
59174W        W31599  27.460  35.766   0.304
59175W        W31600  13.810  44.900  12.098
59176W        W31601  15.256  27.535   0.708
59177W        W31602  15.153  10.729   4.573
59178W        W31603  10.211   9.359   2.098
59179W        W31604  38.590  11.997   5.137
59180W        W31605  12.256  29.724  10.948
59181W        W31606   5.150  21.173   2.631
59182W        W31607   9.218  12.628  12.667
59183W        W31608   8.605  43.347  14.622
59184W        W31609  39.933  11.336  14.303
59185W        W31610  33.328  36.539   3.665
59186W        W31611   3.908  19.501   1.729
59187W        W31612  34.671  32.374  12.507
59188W        W31613  42.564  33.079   1.844
59189W        W31614  35.910  15.140  11.141
59190W        W31615  35.335   6.116  14.546
59191W        W31616  31.541  28.048   3.569
59192W        W31617   2.946  37.971  14.909
59193W        W31618  34.143  39.471   3.392
59194W        W31619  21.926  39.823  11.038
59195W        W31620   0.080  13.182   4.204
59196W        W31621  32.900  27.383   3.701
59197W        W31622   7.738   5.424  14.747
59198W        W31623  16.498  37.875  11.069
59199W        W31624   6.475  25.141   3.226
59200W        W31625   1.737  12.792   2.707
59201W        W31626   2.044   0.452  14.803
59202W        W31627  23.624  41.724   3.020
59203W        W31628  41.045  20.584  14.899
59204W        W31629  43.498  39.684  12.001
59205W        W31630  16.357  31.350  13.902
59206W        W31631  36.947  17.233  11.985
59207W        W31632  30.458  24.536  12.290
59208W        W31633  38.264  19.098   0.904
59209W        W31634  44.875  23.810  11.544
59210W        W31635  38.540   6.215   0.234
59211W        W31636  20.832  26.240   5.315
59212W        W31637   5.264  14.171  14.997
59213W        W31638   0.258  17.348   0.728
59214W        W31639  17.205   6.185  10.582
59215W        W31640  27.038   8.351  11.557
59216W        W31641  31.594  15.906   0.363
59217W        W31642  15.000  38.552   3.574
59218W        W31643  16.674   9.904  13.062
59219W        W31644  25.412  41.760   4.081
59220W        W31645  15.192  18.549   4.606
59221W        W31646  41.842   3.167   1.933
59222W        W31647   7.416  19.809  12.949
59223W        W31648   6.769   6.388   1.786
59224W        W31649  20.554  40.418   3.644
59225W        W31650   2.296   2.496  14.257
59226W        W31651  22.745  19.810  12.901
59227W        W31652  30.907  13.452   1.649
59228W        W31653   4.985  17.387  11.283
59229W        W31654  30.104   7.587   1.968
59230W        W31655  27.494  25.438  10.765
59231W        W31656  37.973  35.570  13.266
59232W        W31657  34.422   8.742  12.015
59233W        W31658  38.151  40.540   4.096
59234W        W31659  43.762   8.585   2.272
59235W        W31660  34.224  10.889   1.430
59236W        W31661  26.851   9.254  11.086
59237W        W31662   8.793   9.941  10.831
59238W        W31663  12.098  10.838  13.397
59239W        W31664   4.931   1.886   1.510
59240W        W31665  25.015  13.638   2.344
59241W        W31666  31.056  32.175   0.846
59242W        W31667  29.089   8.615   0.957
59243W        W31668  31.185  35.524  11.122
59244W        W31669  37.774   4.619  14.893
59245W        W31670   1.230  31.921  13.004
59246W        W31671   3.854  14.809  12.561
59247W        W31672  29.464  34.925   0.415
59248W        W31673   0.361  18.136   1.758
59249W        W31674  22.090  19.205   1.165
59250W        W31675  34.905  21.213   3.061
59251W        W31676  26.543   5.200  12.931
59252W        W31677  26.278   2.428  12.161
59253W        W31678  12.109  28.968  12.029
59254W        W31679  10.961  20.053  12.868
59255W        W31680  35.070  22.269   2.306
59256W        W31681  37.335  24.621   0.034
59257W        W31682  29.512  18.620   3.426
59258W        W31683   8.859   2.259   3.152
59259W        W31684  35.859  13.741   1.337
59260W        W31685   4.310  30.181   3.223
59261W        W31686  29.545  19.249   4.590
59262W        W31687  40.352  10.136   1.944
59263W        W31688  21.314  15.161  12.037
59264W        W31689  40.260   0.443  10.698
59265W        W31690  38.474  24.569  11.578
59266W        W31691  16.261  11.413   3.435
59267W        W31692  30.598   8.217  11.457
59268W        W31693  14.591  14.710  12.317
59269W        W31694  20.265  32.061  10.724
59270W        W31695  38.259  16.916   1.271
59271W        W31696  12.376   5.471  12.931
59272W        W31697   6.725  37.151  10.761
59273W        W31698  39.164  35.286  11.119
59274W        W31699  16.830   4.496  12.884
59275W        W31700  31.006   3.345   1.719
59276W        W31701   4.478  10.598  10.883
59277W        W31702   8.822  21.308   4.103
59278W        W31703  24.036  18.065   5.041
59279W        W31704  37.779  21.034   0.371
59280W        W31705  40.764  10.255  14.833
59281W        W31706  16.527   9.040   3.745
59282W        W31707  10.302  33.901   2.306
59283W        W31708  29.286  10.580  14.872
59284W        W31709  12.814  17.178  13.026
59285W        W31710  15.566   1.784   0.244
59286W        W31711   9.651  39.897   4.146
59287W        W31712  15.430   2.937  11.584
59288W        W31713  28.127  17.236   9.963
59289W        W31714  20.228  19.583  10.170
59290W        W31715  26.425  15.790  10.634
59291W        W31716  39.383  13.112   3.834
59292W        W31717   0.850   2.811   1.824
59293W        W31718  22.179   0.686   0.280
59294W        W31719  37.878   4.344  13.479
59295W        W31720  19.116  15.695   3.831
59296W        W31721  24.985  21.676  10.794
59297W        W31722  41.101  17.962   1.646
59298W        W31723  28.586  17.217  10.992
59299W        W31724  41.833   6.464   0.317
59300W        W31725  35.915   8.110  12.408
59301W        W31726   6.253  20.515   4.790
59302W        W31727  25.418   0.961  12.426
59303W        W31728  32.623  16.151  11.142
59304W        W31729   8.733  34.321  12.918
59305W        W31730  41.388  24.792   0.722
59306W        W31731   8.600  13.196   1.708
59307W        W31732  17.665  21.669  14.010
59308W        W31733  33.851  12.844   2.371
59309W        W31734  42.194  29.520  11.483
59310W        W31735  10.476  12.104   5.032
59311W        W31736  36.971  34.899   3.603
59312W        W31737   3.009  17.264   1.547
59313W        W31738  26.037  21.409   3.067
59314W        W31739  36.306   2.663   2.717
59315W        W31740   3.991  35.835   1.895
59316W        W31741  27.313  18.215  11.453
59317W        W31742  43.336   0.255  12.027
59318W        W31743  15.769   5.853   3.586
59319W        W31744  29.532  11.333   1.897
59320W        W31745  22.228   3.332   0.957
59321W        W31746  17.183  20.087   0.789
59322W        W31747   7.335  19.681  11.535
59323W        W31748  34.075  35.618   0.821
59324W        W31749  13.834  20.714   2.543
59325W        W31750   2.859  30.512   4.068
59326W        W31751  37.449  17.051   1.257
59327W        W31752   0.583  15.154  11.080
59328W        W31753  44.046  35.438  11.169
59329W        W31754   9.724  10.786   1.446
59330W        W31755   5.297  23.472   0.014
59331W        W31756  37.381  37.254   2.908
59332W        W31757  30.644  38.410   2.766
59333W        W31758   4.313  33.511   0.490
59334W        W31759  21.210  17.554  10.999
59335W        W31760  25.548   4.475   0.376
59336W        W31761   2.253   8.640   3.252
59337W        W31762  36.445  24.944   1.253
59338W        W31763  37.097  37.986   0.284
59339W        W31764  23.554  14.062   2.292
59340W        W31765  15.379  23.418  14.911
59341W        W31766  27.674   6.262   0.215
59342W        W31767  31.624  13.608  11.168
59343W        W31768  42.823  27.199   0.951
59344W        W31769  30.007  25.677  14.450
59345W        W31770  32.314  39.999   4.102
59346W        W31771  21.440  42.851   4.265
59347W        W31772   4.175   1.747   1.728
59348W        W31773   0.816   7.895  14.056
59349W        W31774  39.518  25.866  12.976
59350W        W31775  31.933  38.624   4.718
59351W        W31776  18.734  39.216  11.845
59352W        W31777   7.275  23.616  10.855
59353W        W31778   1.498  33.839  14.645
59354W        W31779   4.848  11.190  12.064
59355W        W31780  19.807   6.480  14.405
59356W        W31781  14.710  20.518   4.061
59357W        W31782  24.079  20.727   0.349
59358W        W31783  14.244  42.744  14.246
59359W        W31784  14.162  34.060   0.809
59360W        W31785  40.556  21.440   0.355
59361W        W31786   9.637  40.865  11.450
59362W        W31787  19.136  26.731  14.376
59363W        W31788   7.718  36.476  14.006
59364W        W31789   0.551  15.707   4.839
59365W        W31790  35.449   5.746  10.776
59366W        W31791  24.766  31.988  11.613
59367W        W31792   0.817  11.868   1.730
59368W        W31793   6.403  44.776   2.790
59369W        W31794  24.637  27.335  11.164
59370W        W31795  23.054  27.379   4.314
59371W        W31796   7.839  10.301   5.074
59372W        W31797  26.662   7.245   4.782
59373W        W31798  27.082  17.961   4.144
59374W        W31799  14.321  15.635  13.315
59375W        W31800  10.403  24.586  11.584
59376W        W31801  34.653  14.358   0.285
59377W        W31802  17.488  29.614  10.649
59378W        W31803  40.926   4.646  12.769
59379W        W31804  37.096  35.400   3.725
59380W        W31805  10.146  23.559   0.568
59381W        W31806   6.917  12.240  12.432
59382W        W31807  15.506  25.131   3.714
59383W        W31808   3.227  37.438   1.170
59384W        W31809  36.483  12.841   4.092
59385W        W31810   2.876   8.634   0.748
59386W        W31811   8.150  14.647  13.329
59387W        W31812  22.223  27.604   2.263
59388W        W31813  28.126  31.398   0.945
59389W        W31814   9.680  22.235   3.429
59390W        W31815  36.282  33.060  11.484
59391W        W31816  34.792  16.832  13.858
59392W        W31817  10.610   1.793  10.375
59393W        W31818  33.633  30.930   4.581
59394W        W31819   2.457   0.542   2.669
59395W        W31820  19.308  27.776   3.763
59396W        W31821  19.401  42.530   1.912
59397W        W31822  15.717  34.478   1.210
59398W        W31823  13.543  13.318   4.586
59399W        W31824  22.753  13.712   0.287
59400W        W31825   7.386  15.087  13.743
59401W        W31826  25.653  26.419  11.031
59402W        W31827  20.588  31.139  12.974
59403W        W31828  35.049  21.513  11.459
59404W        W31829  15.630  40.256   0.800
59405W        W31830  35.398  18.271   3.331
59406W        W31831  21.663   8.839   2.786
59407W        W31832   1.756  14.334  12.988
59408W        W31833  26.113  16.322   0.894
59409W        W31834  43.455   0.224   4.195
59410W        W31835  39.398  15.380   2.216
59411W        W31836   3.809  33.565  12.012
59412W        W31837  40.308  31.146   1.690
59413W        W31838  14.717  32.498  12.089
59414W        W31839   9.682  35.281  12.861
59415W        W31840  12.322  18.224  12.032
59416W        W31841   5.577  12.538  11.905
59417W        W31842  18.685  16.166   3.175
59418W        W31843   3.700  19.043   0.133
59419W        W31844  38.101   6.517  13.999
59420W        W31845  13.199  25.649   2.908
59421W        W31846  35.654  31.385   0.158
59422W        W31847  38.190  21.589   4.510
59423W        W31848  32.664  21.549  10.563
59424W        W31849  33.093  21.965   3.377
59425W        W31850  17.933  27.784  10.693
59426W        W31851  13.164   1.800  11.652
59427W        W31852  13.230  24.172   2.139
59428W        W31853  28.562  41.039  11.266
59429W        W31854  34.409  31.881  13.374
59430W        W31855  34.096   9.091   2.717
59431W        W31856  15.155  11.561  14.127
59432W        W31857  35.993   0.074   0.548
59433W        W31858  38.871   3.349   1.910
59434W        W31859  29.588  40.995  13.899
59435W        W31860   6.132  39.365   0.620
59436W        W31861  37.779  33.129  11.586
59437W        W31862  13.049   7.820  10.731
59438W        W31863  26.100  43.383  13.640
59439W        W31864  29.531  40.729  13.456
59440W        W31865   7.310  36.834   3.488
59441W        W31866  19.278  19.460   3.259
59442W        W31867   0.987  15.572  11.919
59443W        W31868  44.466   6.051  13.489
59444W        W31869  22.562  26.227  14.871
59445W        W31870  39.480  38.049  10.774
59446W        W31871  26.000  34.883   2.804
59447W        W31872  19.758  10.599  14.519
59448W        W31873  17.380  24.983  11.564
59449W        W31874  23.466  11.507  12.014
59450W        W31875  44.408  24.991  11.526
59451W        W31876   4.252  25.099   2.927
59452W        W31877   7.449  31.025  12.555
59453W        W31878   4.956  23.961  13.761
59454W        W31879  25.560  13.407   1.725
59455W        W31880  19.198   4.254  13.462
59456W        W31881  13.638  36.017  13.104
59457W        W31882   5.876  35.030  14.045
59458W        W31883  12.732   6.301   4.655
59459W        W31884  43.829  22.126  12.182
59460W        W31885  28.507  31.472   0.390
59461W        W31886   1.988  19.713   3.325
59462W        W31887   7.790  42.600   1.418
59463W        W31888   3.449  35.012   3.640
59464W        W31889  34.229  29.527   3.488
59465W        W31890  22.508  34.956   4.184
59466W        W31891  12.185  19.591   0.752
59467W        W31892  27.612  41.787  14.649
59468W        W31893  40.435  10.734  11.258
59469W        W31894  42.308  10.751   4.931
59470W        W31895  18.617  41.312   3.688
59471W        W31896   5.875  12.708   3.819
59472W        W31897   5.765  21.203   5.134
59473W        W31898  17.475  39.026  13.773
59474W        W31899  23.337   3.154  12.398
59475W        W31900  37.077  24.062   0.901
59476W        W31901  13.390  44.546   0.927
59477W        W31902  26.950   2.427   1.911
59478W        W31903  30.388  10.683   3.128
59479W        W31904  27.066  19.267  14.413
59480W        W31905  20.268  44.370  13.757
59481W        W31906  34.125  21.476  10.386
59482W        W31907  19.823   8.383   0.728
59483W        W31908  26.911  12.847   3.668
59484W        W31909   4.515  16.090   2.905
59485W        W31910  34.597  10.099   4.133
59486W        W31911  18.760  30.828  11.589
59487W        W31912  31.358  14.334   0.417
59488W        W31913  40.604  21.530  13.292
59489W        W31914  23.453  19.131   0.899
59490W        W31915  31.156   1.577  13.790
59491W        W31916  16.721  12.903   0.973
59492W        W31917   2.943  23.510   3.622
59493W        W31918  12.817  27.794   2.889
59494W        W31919   8.791  11.693  14.351
59495W        W31920   1.234  13.362   0.294
59496W        W31921  15.761  28.238   0.864
59497W        W31922  32.003  43.568   1.828
59498W        W31923  23.227  34.947  10.540
59499W        W31924   4.198  39.792   2.810
59500W        W31925   6.064  22.084  10.686
59501W        W31926  22.506  44.807  12.523
59502W        W31927  33.130   1.438   4.772
59503W        W31928  28.402  21.660   5.284
59504W        W31929  19.459   2.884  14.331
59505W        W31930  13.307   5.468  14.977
59506W        W31931  19.509  12.056  14.110
59507W        W31932  41.101  24.735   1.478
59508W        W31933  29.254  40.467   5.101
59509W        W31934  39.297  33.592  11.076
59510W        W31935  24.205  27.479  12.077
59511W        W31936  19.484  41.359   2.417
59512W        W31937  18.247   0.040   0.964
59513W        W31938  16.850  26.551  10.189
59514W        W31939  32.227  27.699  12.512
59515W        W31940  26.079  39.449  11.910
59516W        W31941   2.193   1.755  10.172
59517W        W31942  27.742  43.918  14.832
59518W        W31943  28.156   2.622   4.507
59519W        W31944   6.899   5.438  14.443
59520W        W31945  12.325   6.373  12.651
59521W        W31946  38.586  14.397  13.616
59522W        W31947  34.912  23.600  10.891
59523W        W31948   1.988  37.786  13.108
59524W        W31949  31.455  32.892   4.325
59525W        W31950  40.224  26.078   3.642
59526W        W31951  29.572   4.396   4.139
59527W        W31952   8.059  13.673   2.792
59528W        W31953  29.315   3.906   1.943
59529W        W31954   8.167  44.764  12.123
59530W        W31955   4.908  13.693  14.268
59531W        W31956  17.753  24.082   0.379
59532W        W31957  22.265  34.935   0.367
59533W        W31958   9.425  35.174   2.275
59534W        W31959  10.816  32.956  10.636
59535W        W31960   3.074  11.019   3.718
59536W        W31961   1.419  34.141  11.518
59537W        W31962  25.948   7.949  14.602
59538W        W31963  42.373  20.782  14.334
59539W        W31964  14.205  12.246   3.973
59540W        W31965  14.776  36.152  14.802
59541W        W31966   4.530   2.295   4.591
59542W        W31967  44.279   8.512   3.602
59543W        W31968  30.477  33.403  11.686
59544W        W31969  44.775   9.844   3.638
59545W        W31970  11.933  32.606   1.727
59546W        W31971   5.905  43.732   2.261
59547W        W31972  23.225  33.865  13.315
59548W        W31973  43.890  30.498   1.075
59549W        W31974   1.029  25.038  14.929
59550W        W31975  15.106  12.734  14.928
59551W        W31976  25.037  10.417  11.861
59552W        W31977  14.681  44.403   1.385
59553W        W31978   0.812  20.999  11.610
59554W        W31979  26.862  38.022   4.599
59555W        W31980  12.829  38.645  11.628
59556W        W31981   7.287  18.887   1.234
59557W        W31982  19.800  18.294   4.251
59558W        W31983  15.282  42.672  11.620
59559W        W31984  26.021  42.859   3.750
59560W        W31985  26.576  24.136   1.345
59561W        W31986  13.782   8.874   1.877
59562W        W31987  30.354  15.314   0.320
59563W        W31988  30.549  17.644  14.857
59564W        W31989  40.464  24.012   4.124
59565W        W31990  34.556  36.529  13.888
59566W        W31991  30.189  37.074   2.228
59567W        W31992  36.174   9.272   3.177
59568W        W31993   3.784  24.468   1.858
59569W        W31994   4.306  17.013   3.651
59570W        W31995   9.267  32.162  13.932
59571W        W31996  40.754  10.365   1.692
59572W        W31997  18.169  13.441  12.004
59573W        W31998  27.873  16.711   2.728
59574W        W31999  44.817  38.889   1.942
59575W        W32000  24.212   5.372   3.251
59576W        W32001  36.805  34.914   2.718
59577W        W32002  28.650  44.277   2.216
59578W        W32003  18.452  28.896   2.200
59579W        W32004  37.293  40.936  10.769
59580W        W32005  32.417  40.361  13.002
59581W        W32006  34.465  37.879   4.042
59582W        W32007  41.407   4.258   1.363
59583W        W32008  31.813   0.863   1.173
59584W        W32009  11.207   6.191  11.259
59585W        W32010  16.711  14.181   3.420
59586W        W32011  22.279   2.592   4.100
59587W        W32012  39.285  12.476   0.663
59588W        W32013   0.945  39.113  13.190
59589W        W32014  41.480   2.671  12.451
59590W        W32015   9.478  24.815  14.065
59591W        W32016  21.081   9.030  10.525
59592W        W32017  25.234  20.002  12.537
59593W        W32018   2.813  34.268   0.746
59594W        W32019  25.762   8.259   2.786
59595W        W32020   2.981   6.544  11.506
59596W        W32021  37.777  19.567  14.452
59597W        W32022  26.441  42.374   1.310
59598W        W32023  29.131   5.882  11.581
59599W        W32024  32.053  31.317   4.438
59600W        W32025   7.793  22.882   0.338
59601W        W32026  26.953  10.840   1.417
59602W        W32027  27.087  24.889   9.984
59603W        W32028  39.065  17.341  14.157
59604W        W32029  12.908  25.563   4.807
59605W        W32030  41.460  15.870  14.908
59606W        W32031  35.829  39.024  10.467
59607W        W32032   9.913  40.233  14.480
59608W        W32033  28.153  42.559   2.517
59609W        W32034  44.524  15.987  11.084
59610W        W32035  41.003  26.244   1.318
59611W        W32036  25.561  12.514   2.215
59612W        W32037  27.175   1.512  12.895
59613W        W32038  23.467  28.579   4.117
59614W        W32039  15.147  34.474   4.569
59615W        W32040   0.702   6.439  12.872
59616W        W32041  17.592  29.679  12.964
59617W        W32042  18.516  21.275  11.431
59618W        W32043  17.277   5.443   2.114
59619W        W32044  25.227  37.113   1.885
59620W        W32045  11.869   2.803  14.384
59621W        W32046  33.940  12.735   0.995
59622W        W32047  34.003  12.553  13.448
59623W        W32048  34.559  18.772   2.788
59624W        W32049  40.776   6.434  14.927
59625W        W32050  13.718  13.829  12.504
59626W        W32051  41.003  24.993   1.050
59627W        W32052  27.451   3.847  12.201
59628W        W32053  27.215  12.181  12.410
59629W        W32054  10.057   3.295  14.411
59630W        W32055  17.518  31.920   3.736
59631W        W32056  16.192  41.270   1.326
59632W        W32057  20.175  25.659   2.757
59633W        W32058  13.227  30.244   0.319
59634W        W32059   3.386  44.981   3.640
59635W        W32060  43.971  28.578   3.588
59636W        W32061  40.292  30.132   3.401
59637W        W32062   5.836  38.158   1.266
59638W        W32063   4.217  30.521   4.139
59639W        W32064  13.951  16.411  13.486
59640W        W32065   0.170  24.970  14.818
59641W        W32066  29.450  22.081  12.307
59642W        W32067   8.355  23.755   4.005
59643W        W32068   6.161  23.524   0.967
59644W        W32069  24.207   2.254   0.966
59645W        W32070  16.284  29.969  13.993
59646W        W32071   0.828  44.544  11.204
59647W        W32072   7.669  27.503  11.583
59648W        W32073  29.784   6.888   2.158
59649W        W32074   1.379   7.277   4.610
59650W        W32075  28.146  14.056   3.884
59651W        W32076  44.252  18.240   0.387
59652W        W32077   5.413  31.931  12.073
59653W        W32078  44.729  14.314   0.196
59654W        W32079  27.457   2.329   3.630
59655W        W32080  23.555  39.984  14.052
59656W        W32081  30.062   4.405  13.701
59657W        W32082  44.733  14.173  11.175
59658W        W32083  38.943  10.784   0.279
59659W        W32084  31.751  35.671   3.360
59660W        W32085   0.341  18.908  10.585
59661W        W32086   7.740  30.125  14.983
59662W        W32087  26.950   8.433  14.483
59663W        W32088   6.451  36.378   1.207
59664W        W32089  44.372  41.879   2.907
59665W        W32090  34.101  12.348  11.393
59666W        W32091   9.186  16.119  12.925
59667W        W32092  18.145   3.188  10.320
59668W        W32093  14.324  35.007  10.931
59669W        W32094  18.090  12.113  13.831
59670W        W32095  20.031  19.140   0.462
59671W        W32096  36.562  35.311   1.346
59672W        W32097   6.948   8.686   4.194
59673W        W32098  27.604  10.709   3.135
59674W        W32099  25.486  25.541   4.621
59675W        W32100  14.641  11.146  10.697
59676W        W32101   3.259  33.997   0.889
59677W        W32102  17.391   3.951  10.137
59678W        W32103   2.035  43.994   2.847
59679W        W32104  30.708   1.952  12.363
59680W        W32105  31.103  30.545   4.072
59681W        W32106  11.151   9.202   1.356
59682W        W32107  31.970  28.168   4.014
59683W        W32108   0.324   1.188   3.406
59684W        W32109   9.253   1.157  12.174
59685W        W32110   9.841   9.405   3.838
59686W        W32111   5.889  31.179   3.628
59687W        W32112  14.821  30.363  13.439
59688W        W32113   2.394   9.378   0.996
59689W        W32114   2.069  25.489  10.979
59690W        W32115  24.052  43.541   4.838
59691W        W32116  39.326  44.413  14.563
59692W        W32117  18.104  30.231  14.981
59693W        W32118  32.072  20.982  11.938
59694W        W32119  31.966   5.398   3.610
59695W        W32120   5.839  41.021   2.163
59696W        W32121  31.610  23.789  11.824
59697W        W32122  18.822  38.073   0.923
59698W        W32123  16.369  14.598  11.177
59699W        W32124  19.432   4.020   4.110
59700W        W32125  43.796   2.009   4.541
59701W        W32126   7.593   5.318  13.371
59702W        W32127  12.811   4.676  10.663
59703W        W32128  28.589  34.593  11.120
59704W        W32129  22.216   6.693  13.541
59705W        W32130  44.675  30.931  11.838
59706W        W32131   9.621   7.921   3.278
59707W        W32132  14.477   9.898   3.776
59708W        W32133  32.541  10.641   2.486
59709W        W32134  41.766  37.725  14.988
59710W        W32135  30.164   8.402  11.193
59711W        W32136  28.003  12.709   4.624
59712W        W32137  33.108  15.298  14.226
59713W        W32138  22.481  30.965  14.186
59714W        W32139  37.404  12.022  11.085
59715W        W32140  10.942  24.611   3.440
59716W        W32141   3.916  37.436  13.814
59717W        W32142  25.847   4.901   4.551
59718W        W32143  34.368  40.096   2.910
59719W        W32144  34.924  32.581  11.557
59720W        W32145  23.126  18.151   4.160
59721W        W32146  11.933   9.389   1.795
59722W        W32147  34.600  19.363   0.833
59723W        W32148   8.536  37.085  10.446
59724W        W32149   2.834  20.258  10.590
59725W        W32150  10.257  16.422  14.401
59726W        W32151  19.318  38.572  11.930
59727W        W32152  34.697  44.470   4.230
59728W        W32153  34.841  42.851   2.877
59729W        W32154  36.250  28.197  13.579
59730W        W32155  31.614  16.769   1.454
59731W        W32156   9.717  30.359  12.847
59732W        W32157   2.222   5.896  14.844
59733W        W32158   6.709   9.350   2.801
59734W        W32159  40.552  14.267   1.462
59735W        W32160  24.059   8.161  12.472
59736W        W32161  44.445  40.318  11.157
59737W        W32162  39.907   1.001   0.210
59738W        W32163  23.797   7.816  14.148
59739W        W32164  26.565   5.773  14.951
59740W        W32165   9.171  14.923  12.020
59741W        W32166   3.507   9.946  10.996
59742W        W32167  42.440  15.461   4.592
59743W        W32168  23.814  11.227   3.618
59744W        W32169   3.724  36.886   0.863
59745W        W32170  21.150  38.547   3.852
59746W        W32171  28.974  10.160  14.923
59747W        W32172   0.102   7.126   2.195
59748W        W32173  43.497  29.191  14.699
59749W        W32174  34.126  39.483  11.073
59750W        W32175  17.315  41.368   2.690
59751W        W32176   7.907  42.295  13.085
59752W        W32177  21.170  33.789   4.090
59753W        W32178   8.411  19.047  13.891
59754W        W32179  18.275  26.475   4.274
59755W        W32180  10.843  16.079   1.471
59756W        W32181  43.633  40.287  10.198
59757W        W32182  37.421  17.505   3.187
59758W        W32183  40.892   4.266   1.009
59759W        W32184  16.324  41.521  10.679
59760W        W32185   1.756  37.722   4.284
59761W        W32186   0.802  18.701  10.715
59762W        W32187  26.827  38.927  10.335
59763W        W32188  36.232  14.756  11.354
59764W        W32189   3.468  28.683  10.743
59765W        W32190  22.052  13.297  12.936
59766W        W32191   8.608   4.208  10.992
59767W        W32192  29.683  39.095  10.268
59768W        W32193  20.151   1.010  13.925
59769W        W32194  31.007  27.943   1.795
59770W        W32195   0.730   0.025  12.930
59771W        W32196  32.282   7.156  14.966
59772W        W32197  40.944  42.751  11.405
59773W        W32198  26.627  21.205  10.577
59774W        W32199   5.835   3.395  14.521
59775W        W32200  32.021  17.996  11.935
59776W        W32201  33.384   5.384   1.319
59777W        W32202  20.881   9.620   4.510
59778W        W32203  20.518  37.303   4.076
59779W        W32204  23.150  35.898  12.627
59780W        W32205  26.993  25.025  11.033
59781W        W32206  24.069  18.675   0.477
59782W        W32207  18.057   1.936  12.996
59783W        W32208  15.567   2.820  10.935
59784W        W32209  35.030  10.052  13.297
59785W        W32210  44.693  33.882  11.895
59786W        W32211  33.735   0.287   1.321
59787W        W32212   8.796  33.293  12.745
59788W        W32213  28.139  19.589   2.932
59789W        W32214  25.561  42.277   3.311
59790W        W32215   2.045   4.655   3.827
59791W        W32216  15.335  11.696  11.627
59792W        W32217   6.390  34.457  12.326
59793W        W32218  22.153  36.704   2.611
59794W        W32219  41.894   0.386  13.364
59795W        W32220   2.887  19.282  14.018
59796W        W32221  29.587  31.299   3.751
59797W        W32222  35.120   4.960   3.630
59798W        W32223  28.152  12.038  13.445
59799W        W32224  35.920  27.024   0.442
59800W        W32225  38.936   2.864   2.085
59801W        W32226  22.735  38.702  12.445
59802W        W32227  31.940  16.922  13.885
59803W        W32228  11.737  14.806   1.186
59804W        W32229  24.738  30.449  12.929
59805W        W32230  27.752  39.830   9.721
59806W        W32231   4.408  10.223  14.291
59807W        W32232  29.482  28.436  11.922
59808W        W32233  18.717  14.527  11.044
59809W        W32234  18.106  23.568   3.758
59810W        W32235  38.043  13.039   2.873
59811W        W32236  44.317  42.449  13.195
59812W        W32237  13.727  23.788   4.525
59813W        W32238   9.252  43.397   4.592
59814W        W32239  13.247  28.552  12.426
59815W        W32240  25.170  30.425   1.002
59816W        W32241  14.959  30.746   4.504
59817W        W32242  28.349  38.489   5.100
59818W        W32243  16.482  10.175   2.167
59819W        W32244   2.345  34.593  12.200
59820W        W32245  34.319  22.138   4.533
59821W        W32246   0.291  18.558   3.628
59822W        W32247   7.669   0.723   5.101
59823W        W32248  31.980  18.425  12.480
59824W        W32249  10.362  27.892  12.424
59825W        W32250   2.723  29.405   0.754
59826W        W32251   6.352  22.729  13.768
59827W        W32252  10.372  38.233   4.029
59828W        W32253  33.142   6.421   3.295
59829W        W32254  43.202   0.379  11.131
59830W        W32255   9.857  21.342   1.332
59831W        W32256  35.606   2.798   3.262
59832W        W32257  25.150   8.106   0.204
59833W        W32258  21.337  24.053   1.192
59834W        W32259  36.780  29.546  14.347
59835W        W32260  20.162  18.142  10.694
59836W        W32261  40.859  41.291  11.537
59837W        W32262  43.382  18.471   4.367
59838W        W32263  20.732   3.237   0.482
59839W        W32264  28.953  30.568  13.510
59840W        W32265  27.529  13.833   2.963
59841W        W32266  36.794  20.191  12.029
59842W        W32267  43.394  26.240   2.281
59843W        W32268  22.787  13.088   4.176
59844W        W32269   1.711  32.214  14.081
59845W        W32270   9.477  39.925  13.049
59846W        W32271  43.040  43.238   0.792
59847W        W32272   4.993   6.827  13.576
59848W        W32273  17.300  12.501  11.664
59849W        W32274  26.929  13.195   0.802
59850W        W32275   3.310  37.096  12.020
59851W        W32276  33.981   4.248  13.790
59852W        W32277   8.402  13.375   0.757
59853W        W32278  11.466  27.555  14.327
59854W        W32279  15.745  39.501  14.302
59855W        W32280  12.078  29.064   1.771
59856W        W32281  17.362  17.742   2.310
59857W        W32282  24.573  20.088   2.280
59858W        W32283  36.337   1.454   4.096
59859W        W32284  13.799   5.432   9.427
59860W        W32285  13.293  30.196   1.170
59861W        W32286  12.660  44.586   4.111
59862W        W32287  27.210  18.169   4.605
59863W        W32288   0.246  30.703  13.004
59864W        W32289   3.332  25.759  11.290
59865W        W32290   5.858  12.695  14.397
59866W        W32291   2.941   7.786  13.955
59867W        W32292  35.858  16.512  14.548
59868W        W32293  41.019  40.223  13.037
59869W        W32294  37.472  23.030  10.780
59870W        W32295  12.182   2.137   1.909
59871W        W32296   7.411  14.777  10.715
59872W        W32297  28.256  38.709  10.098
59873W        W32298  20.050   6.162   2.868
59874W        W32299  25.750   1.659  14.517
59875W        W32300  22.189  33.041  14.559
59876W        W32301  40.963  20.326   2.771
59877W        W32302  27.158   9.690  11.101
59878W        W32303  25.050  31.089   4.766
59879W        W32304  20.842  30.596   1.291
59880W        W32305  23.921  44.218   2.344
59881W        W32306  17.334  12.758   1.826
59882W        W32307  40.230  30.410   1.295
59883W        W32308   7.844  28.007  11.567
59884W        W32309  13.214   9.870  14.464
59885W        W32310  29.950   4.281   3.789
59886W        W32311  22.635  42.087  14.421
59887W        W32312  10.058  31.712   0.790
59888W        W32313   2.429  39.728   4.600
59889W        W32314  35.666  26.059   0.938
59890W        W32315  25.456   4.877  12.107
59891W        W32316  16.161  17.319  12.011
59892W        W32317  13.651  34.483  10.363
59893W        W32318  38.773  26.009   1.738
59894W        W32319   4.411  43.457  11.880
59895W        W32320  43.761  35.243  14.844
59896W        W32321   9.919  11.219   0.684
59897W        W32322  19.016  35.339  11.520
59898W        W32323  28.187  42.759   1.734
59899W        W32324  16.794  18.316  11.563
59900W        W32325   6.019  39.246  13.512
59901W        W32326  19.077  26.145   3.006
59902W        W32327  11.795   8.947  12.050
59903W        W32328   2.301  40.919  10.529
59904W        W32329   8.586   7.271  12.071
59905W        W32330  35.309  32.411  11.980
59906W        W32331   2.443  38.005  11.562
59907W        W32332  40.993  21.666  13.905
59908W        W32333   4.847   8.307  10.795
59909W        W32334   9.706  19.117  13.235
59910W        W32335  19.710  17.598   1.929
59911W        W32336  16.310  44.425   3.203
59912W        W32337  26.459  20.142  11.944
59913W        W32338   4.262  33.345  13.562
59914W        W32339  38.372  32.595  10.924
59915W        W32340  34.065   9.646  12.574
59916W        W32341   5.398  34.962   4.080
59917W        W32342  22.701   1.481  10.050
59918W        W32343  33.686   2.262  11.415
59919W        W32344   7.606  30.165  11.918
59920W        W32345  32.009  27.090   1.697
59921W        W32346   8.636  43.400  11.194
59922W        W32347  13.293   5.341   3.738
59923W        W32348   0.320  14.773  13.261
59924W        W32349   6.187  15.308   3.217
59925W        W32350  19.066  12.242   2.264
59926W        W32351  37.438  40.327   0.833
59927W        W32352  34.389  15.931  14.392
59928W        W32353  30.916  31.896   0.459
59929W        W32354  38.633  27.118  12.944
59930W        W32355  38.444  17.338  13.035
59931W        W32356  38.837  39.875  10.141
59932W        W32357   9.003  17.027  12.570
59933W        W32358  22.719   7.507   5.151
59934W        W32359  15.137  19.876  13.022
59935W        W32360  30.642  18.344  13.996
59936W        W32361  22.656   8.844  12.989
59937W        W32362   0.175  30.410   1.693
59938W        W32363  14.735   9.672  14.908
59939W        W32364  12.422  30.475  12.089
59940W        W32365  30.987   3.773  14.967
59941W        W32366   6.719  16.288  14.937
59942W        W32367  29.007   7.279   0.277
59943W        W32368   3.769  41.883   0.249
59944W        W32369   6.346  25.264   5.104
59945W        W32370  28.165  24.984  12.954
59946W        W32371   7.618  44.913  14.895
59947W        W32372  33.940  11.394   2.266
59948W        W32373   7.641  21.763  13.000
59949W        W32374   5.814  33.442  10.450
59950W        W32375  29.055   0.069  14.922
59951W        W32376  30.501  18.147   0.677
59952W        W32377   6.369  29.893   4.644
59953W        W32378  22.702  25.577  13.982
59954W        W32379  13.845  11.132   3.372
59955W        W32380  10.258  18.670  14.422
59956W        W32381   9.570  25.508   3.059
59957W        W32382  41.072  21.299   0.418
59958W        W32383  35.618  28.711   0.832
59959W        W32384  33.095  32.016  11.677
59960W        W32385  20.230  38.093   1.864
59961W        W32386  28.989   5.185  14.543
59962W        W32387  12.983   5.958   3.160
59963W        W32388  19.237  35.595  14.948
59964W        W32389  29.135  42.302  10.232
59965W        W32390  32.392   9.758   4.583
59966W        W32391  32.517  17.648  13.457
59967W        W32392  38.071  28.689   1.738
59968W        W32393  43.763  15.212  11.928
59969W        W32394   7.844  38.943   0.476
59970W        W32395  39.460  31.867   3.602
59971W        W32396   8.232   9.186   1.694
59972W        W32397  26.175   3.299   0.647
59973W        W32398  32.939  14.832   4.585
59974W        W32399  31.604  17.186  10.889
59975W        W32400   0.552  21.517   1.052
59976W        W32401  34.598  17.347  13.048
59977W        W32402  43.966  29.104   4.606
59978W        W32403   9.354  36.051  10.685
59979W        W32404  18.300   2.750   1.463
59980W        W32405  21.561  31.698  11.936
59981W        W32406  29.101  18.703  12.606
59982W        W32407  17.716  16.126  13.524
59983W        W32408  21.745  16.050   0.812
59984W        W32409   9.289   3.935  12.091
59985W        W32410  34.518  20.443   3.259
59986W        W32411  23.695  39.831   1.807
59987W        W32412  32.351  23.480   0.659
59988W        W32413  41.512  26.455  10.666
59989W        W32414  36.528  22.136  14.911
59990W        W32415  28.209  25.619  11.270
59991W        W32416  40.281  22.727  14.805
59992W        W32417  38.951  35.624  14.892
59993W        W32418  28.688   9.854  11.211
59994W        W32419  27.340  31.447  10.214
59995W        W32420  44.965  32.580   0.013
59996W        W32421   5.352  26.951   2.752
59997W        W32422   6.814  32.597   0.282
59998W        W32423   0.428  30.685   1.328
59999W        W32424  25.064   1.157   3.769
60000W        W32425  10.654  12.111   0.470
60001W        W32426  38.903  34.931   0.928
60002W        W32427  12.152   3.955  12.166
60003W        W32428   0.405  19.540  12.653
60004W        W32429  25.197  35.925   2.375
60005W        W32430  41.894  11.844   0.785
60006W        W32431  43.465  26.178   3.155
60007W        W32432  22.020   6.339  12.742
60008W        W32433  28.965  19.192  14.051
60009W        W32434   0.358  15.715   0.947
60010W        W32435  32.691  30.176  13.169
60011W        W32436  25.724  38.782   4.863
60012W        W32437  27.622  33.817  13.915
60013W        W32438  44.866  31.364   4.579
60014W        W32439  40.805  40.728   3.394
60015W        W32440  41.448  11.852   4.993
60016W        W32441  39.871  36.144   2.609
60017W        W32442  39.421  28.236   0.891
60018W        W32443   4.393   8.570   1.656
60019W        W32444  28.591  42.044  12.179
60020W        W32445   5.356   1.658   1.212
60021W        W32446  29.532  15.036  14.230
60022W        W32447  28.677  14.669   2.086
60023W        W32448  14.057  35.889   3.752
60024W        W32449  43.550  37.105   4.700
60025W        W32450  20.028  29.939  13.807
60026W        W32451   8.902  40.099  12.216
60027W        W32452  30.708  10.358  12.892
60028W        W32453  23.249  27.146  14.314
60029W        W32454   9.531  22.264  13.941
60030W        W32455  12.884  42.865   0.767
60031W        W32456   4.448   7.286   0.802
60032W        W32457  14.765  37.727  11.557
60033W        W32458  25.764  12.601  14.052
60034W        W32459  10.841  35.421   2.164
60035W        W32460  16.952   7.402   5.103
60036W        W32461   8.249  39.352  13.464
60037W        W32462  21.295  31.585   2.250
60038W        W32463  33.539  13.520  13.829
60039W        W32464  44.304   0.293   0.552
60040W        W32465  10.338  35.280   0.797
60041W        W32466  14.631  22.170   1.027
60042W        W32467  34.698  32.550   2.848
60043W        W32468   7.149  36.884  10.718
60044W        W32469   0.736  17.364  11.056
60045W        W32470  10.778   3.385  11.925
60046W        W32471  44.124  44.504   0.249
60047W        W32472  27.078  20.158  13.940
60048W        W32473  42.464  38.417   2.613
60049W        W32474  14.189  44.273   1.918
60050W        W32475  42.962  24.903  10.672
60051W        W32476  35.112  24.061  10.757
60052W        W32477  41.978   1.738   2.015
60053W        W32478  42.937   3.071   2.931
60054W        W32479  43.002  41.909   3.678
60055W        W32480  24.980   2.676   2.590
60056W        W32481  41.091  38.152   4.154
60057W        W32482  34.882  25.994  12.442
60058W        W32483  34.368  15.133  12.583
60059W        W32484  41.111  31.593   0.389
60060W        W32485  21.033  42.530   1.379
60061W        W32486  36.513  38.794   1.330
60062W        W32487  15.829  26.872  14.649
60063W        W32488  29.556  15.222  14.705
60064W        W32489   9.308  11.782  12.131
60065W        W32490   7.428   1.918   1.728
60066W        W32491  24.118   1.388   1.186
60067W        W32492  16.749   9.180   4.194
60068W        W32493  11.370  13.637  11.428
60069W        W32494  42.288   0.283   2.194
60070W        W32495  26.998   8.334  10.677
60071W        W32496  20.790   6.171   1.223
60072W        W32497   7.621  35.321   4.240
60073W        W32498  30.882  27.648  13.761
60074W        W32499  33.333  10.789  12.042
60075W        W32500  13.685  41.811  13.007
60076W        W32501  10.143  22.966  10.238
60077W        W32502  22.978  25.623  12.193
60078W        W32503   7.379   8.160  14.378
60079W        W32504  19.813  32.975   4.504
60080W        W32505   0.078  27.922   3.251
60081W        W32506  14.699  18.305   0.451
60082W        W32507  12.810   2.392   4.776
60083W        W32508   7.599   0.490  13.554
60084W        W32509   4.406  35.786  14.987
60085W        W32510  14.874  15.523   4.182
60086W        W32511   2.941   5.190   2.158
60087W        W32512  10.927   4.945   2.278
60088W        W32513   9.402  24.947   3.962
60089W        W32514  40.814  28.389   3.068
60090W        W32515  20.527  14.360  13.034
60091W        W32516  29.907  13.273   1.651
60092W        W32517  34.428  34.610   1.951
60093W        W32518  43.262   5.960  14.409
60094W        W32519  24.602  42.328   3.621
60095W        W32520  18.777  15.308  14.376
60096W        W32521  31.402  14.135   2.163
60097W        W32522  31.524  34.038   0.224
60098W        W32523  10.941  19.521  11.285
60099W        W32524  33.550  10.957  14.879
60100W        W32525  17.509  21.074   2.448
60101W        W32526  13.158  28.649   0.186
60102W        W32527  26.808  17.654  14.780
60103W        W32528  20.191  40.393   4.098
60104W        W32529   0.788  41.679  12.264
60105W        W32530  19.359  37.364  13.823
60106W        W32531   7.964   2.346   1.832
60107W        W32532  39.511  14.095   3.047
60108W        W32533  23.490  23.592   3.627
60109W        W32534  31.419  21.658  12.354
60110W        W32535  28.908   0.659   3.569
60111W        W32536   5.173  36.753  14.050
60112W        W32537  23.144  36.792  11.425
60113W        W32538  37.483  44.294   0.472
60114W        W32539  42.859  39.513   4.187
60115W        W32540  27.754  11.813   1.144
60116W        W32541  27.471  37.370  14.437
60117W        W32542   3.330  39.410   3.345
60118W        W32543  11.884  21.012  14.454
60119W        W32544  39.301  29.583  14.465
60120W        W32545   4.327   5.866   3.404
60121W        W32546   4.359   7.521  13.970
60122W        W32547  36.623  10.602   2.385
60123W        W32548  36.452  20.012  13.831
60124W        W32549  25.701  34.699   0.837
60125W        W32550  42.534  33.507  13.467
60126W        W32551  17.733  15.205  11.304
60127W        W32552  29.952  20.786   2.978
60128W        W32553  23.686  23.728   1.415
60129W        W32554  39.976  26.869   0.641
60130W        W32555  40.844  24.720   2.334
60131W        W32556   6.265  36.549  11.938
60132W        W32557  25.018  20.075  13.482
60133W        W32558   5.246  25.711   0.347
60134W        W32559  34.826  19.429   0.347
60135W        W32560   0.375  44.340   2.756
60136W        W32561  35.004  23.182   3.817
60137W        W32562  35.518  35.565   3.639
60138W        W32563   2.734  17.622  10.722
60139W        W32564  43.414  38.757  14.997
60140W        W32565  19.458  34.445   1.488
60141W        W32566   8.208  15.696  10.796
60142W        W32567  20.206  40.479  10.987
60143W        W32568  30.673  17.684  11.530
60144W        W32569  33.680  16.602  11.226
60145W        W32570  26.398   5.714  10.578
60146W        W32571  19.176   1.740   3.191
60147W        W32572  17.213  42.099  11.399
60148W        W32573  12.786  41.572   0.363
60149W        W32574  10.292  17.809  10.077
60150W        W32575  18.515  18.391   0.881
60151W        W32576  22.941  18.692  11.143
60152W        W32577  34.086  27.721   1.405
60153W        W32578  24.479  33.469  14.792
60154W        W32579  16.046  38.300   4.533
60155W        W32580  21.385  21.399  13.852
60156W        W32581  41.656  13.955   2.311
60157W        W32582   0.288   5.368   3.371
60158W        W32583   5.758   2.836  14.212
60159W        W32584   8.354   7.135  10.758
60160W        W32585  24.020  35.952  14.845
60161W        W32586  16.702  25.761   3.476
60162W        W32587  35.658   0.287   0.881
60163W        W32588   9.177  23.654   0.907
60164W        W32589  13.503  42.157  13.865
60165W        W32590  11.828  15.705   1.448
60166W        W32591  24.225  17.538   3.184
60167W        W32592  23.464  27.015   1.804
60168W        W32593  31.572  29.346  11.246
60169W        W32594  11.909   5.141   1.431
60170W        W32595   8.289  40.394   1.865
60171W        W32596  12.067  12.585   2.883
60172W        W32597  43.929  33.157  13.254
60173W        W32598  43.477   1.873  13.499
60174W        W32599  35.606   5.528  13.607
60175W        W32600  27.669  17.514  13.960
60176W        W32601  22.600  21.640  12.433
60177W        W32602  35.832  17.263   4.113
60178W        W32603  25.606  30.072   2.275
60179W        W32604  18.655  14.513  14.083
60180W        W32605  30.113  33.850   4.301
60181W        W32606   0.899  20.727   1.093
60182W        W32607  42.821  21.545  14.578
60183W        W32608  27.193  12.877  11.917
60184W        W32609  44.210  42.985   2.431
60185W        W32610   9.758  14.966   1.877
60186W        W32611  37.808  34.896  10.524
60187W        W32612   6.845  25.687  12.091
60188W        W32613   4.474  12.907   1.397
60189W        W32614  17.207  12.332  14.733
60190W        W32615  32.366   9.222   1.658
60191W        W32616  37.519   8.945   3.796
60192W        W32617   7.309  40.362   2.883
60193W        W32618   9.403  14.534   2.308
60194W        W32619  31.628  32.398  11.581
60195W        W32620  33.983   8.681  14.862
60196W        W32621  38.980  20.240   2.799
60197W        W32622  19.613   9.082   2.334
60198W        W32623   7.058  11.065  14.900
60199W        W32624  40.135  12.565  11.108
60200W        W32625  13.688  41.332  12.801
60201W        W32626  18.025  27.045  11.954
60202W        W32627   5.675  41.396  14.224
60203W        W32628  37.973  39.298   3.789
60204W        W32629  32.946  28.168   4.196
60205W        W32630  40.338  18.500   0.471
60206W        W32631   2.665  13.919  12.083
60207W        W32632  26.666  20.469  12.463
60208W        W32633  30.763  19.490   1.941
60209W        W32634  22.431  27.918  11.172
60210W        W32635  19.820  12.634  13.433
60211W        W32636  24.615   7.684   3.176
60212W        W32637  44.198   0.363   3.512
60213W        W32638  39.641  33.666  13.411
60214W        W32639  19.940   6.906  11.184
60215W        W32640   9.037  13.641  12.987
60216W        W32641   7.782   4.239   2.039
60217W        W32642   8.906   3.686   4.555
60218W        W32643  22.541  30.360   2.851
60219W        W32644  38.388  23.580   4.058
60220W        W32645  40.303   8.077   0.277
60221W        W32646  37.343  27.371   3.159
60222W        W32647   0.984  22.734   1.250
60223W        W32648  24.517   4.373  12.641
60224W        W32649  40.391  29.266   4.768
60225W        W32650  16.161  21.001  11.421
60226W        W32651  17.477  36.955  12.581
60227W        W32652  37.390  42.950  14.550
60228W        W32653  25.471  25.546  10.784
60229W        W32654  35.624  28.705  14.872
60230W        W32655  18.701   4.787   0.234
60231W        W32656  41.362  43.687  11.909
60232W        W32657  19.730  19.126  13.632
60233W        W32658  31.731   8.756  14.137
60234W        W32659  25.125  31.760   5.066
60235W        W32660  42.046  38.358  13.387
60236W        W32661   5.753  28.920  14.519
60237W        W32662  35.118  23.681   3.738
60238W        W32663  39.600  41.967   0.222
60239W        W32664   4.336  26.189  13.926
60240W        W32665  20.597  31.626   0.373
60241W        W32666  33.813  23.171  14.466
60242W        W32667  13.260   9.228   0.333
60243W        W32668   3.964  19.781   0.771
60244W        W32669  16.835  29.650   2.705
60245W        W32670   1.664  22.561  13.746
60246W        W32671   3.914  28.949   3.919
60247W        W32672  41.809  38.363   1.896
60248W        W32673   4.721  18.213   1.101
60249W        W32674  22.236  37.461   0.883
60250W        W32675   8.462  27.726  14.721
60251W        W32676   2.894  29.565  13.637
60252W        W32677   8.636  11.384   3.432
60253W        W32678  37.271  27.903   0.727
60254W        W32679  36.442   0.277   3.261
60255W        W32680  16.122  18.231  14.376
60256W        W32681  28.223  21.993  12.925
60257W        W32682  17.054  35.010   4.559
60258W        W32683   9.768  31.088   1.320
60259W        W32684   3.100  21.079  11.118
60260W        W32685   3.792  40.499   2.293
60261W        W32686  19.030  10.673  13.319
60262W        W32687  12.177  13.759  10.733
60263W        W32688   2.319  40.865  11.046
60264W        W32689  19.514   0.188   2.380
60265W        W32690   1.385   8.140   0.416
60266W        W32691   0.009  34.292   9.728
60267W        W32692  13.627  17.737  12.404
60268W        W32693  28.427  19.448   1.249
60269W        W32694  24.004  25.908  13.873
60270W        W32695  30.587  28.034  14.487
60271W        W32696  29.203  18.746   2.008
60272W        W32697  40.961  36.573  13.039
60273W        W32698  17.249  43.967   0.274
60274W        W32699  15.290  27.037  11.494
60275W        W32700  19.827   7.248  13.804
60276W        W32701  13.259  17.357  10.465
60277W        W32702  40.450  44.034   3.159
60278W        W32703  41.016  25.681   3.594
60279W        W32704  14.367  43.070   1.966
60280W        W32705  10.963   0.789   1.371
60281W        W32706  36.070  26.005  13.595
60282W        W32707  42.485  35.042   2.924
60283W        W32708  35.696   4.916   0.379
60284W        W32709  31.860  40.402  13.443
60285W        W32710  37.447   1.228   3.178
60286W        W32711  17.714  38.915  14.957
60287W        W32712  21.703   0.434  13.529
60288W        W32713  27.127   5.395  14.839
60289W        W32714  39.327   7.709  14.666
60290W        W32715  18.286   9.423  11.164
60291W        W32716  33.089  14.748   3.085
60292W        W32717  13.165  31.442  11.369
60293W        W32718  14.275  12.682   0.456
60294W        W32719  10.927  21.744  11.751
60295W        W32720   3.300  15.744  14.251
60296W        W32721  44.990  11.582   0.828
60297W        W32722   6.592  11.387  12.107
60298W        W32723  14.278  28.078  14.012
60299W        W32724  10.615  38.020  10.447
60300W        W32725  10.867  23.215  13.983
60301W        W32726  26.686  38.568  12.467
60302W        W32727  13.176  30.601   4.659
60303W        W32728  14.130  23.995  11.917
60304W        W32729  39.970  37.940   4.735
60305W        W32730   5.801  17.415  12.824
60306W        W32731  13.120   9.210  14.720
60307W        W32732  39.993  21.111  10.423
60308W        W32733  32.284  16.127   3.095
60309W        W32734  24.951  26.591  14.321
60310W        W32735  29.706  23.149   4.961
60311W        W32736  11.103   5.682  14.196
60312W        W32737  19.959  28.510  11.647
60313W        W32738  29.261   1.866  12.022
60314W        W32739   0.776   2.005  11.513
60315W        W32740  20.431  22.120  10.659
60316W        W32741  11.378  38.843   1.844
60317W        W32742  11.801  24.519   4.181
60318W        W32743   5.626  18.732   4.912
60319W        W32744  33.873  10.651   3.856
60320W        W32745  42.231  20.021   5.073
60321W        W32746  32.777  13.733   3.160
60322W        W32747  42.872  25.696   2.753
60323W        W32748  14.838  12.615  12.605
60324W        W32749   4.978  25.904  14.508
60325W        W32750  28.600  10.135   1.697
60326W        W32751  22.306  32.143   0.444
60327W        W32752  19.726   8.826   2.806
60328W        W32753  13.225  30.355   4.190
60329W        W32754  37.622   5.873  11.213
60330W        W32755  24.895  42.997   4.369
60331W        W32756  43.766  36.959  14.977
60332W        W32757  13.340  31.070  13.058
60333W        W32758  11.300   4.138  12.342
60334W        W32759   8.783  16.242  14.457
60335W        W32760  44.493  33.096   1.349
60336W        W32761   5.392   7.475   1.792
60337W        W32762  30.165  27.648  14.591
60338W        W32763  39.306   1.516  14.828
60339W        W32764  39.588  16.846   4.705
60340W        W32765  30.704  42.396   3.857
60341W        W32766  33.051  21.150  12.394
60342W        W32767   9.899  24.156  10.885
60343W        W32768  18.087  11.113   3.195
60344W        W32769  40.837  26.736   1.234
60345W        W32770  44.568  37.950  13.741
60346W        W32771  43.786   2.814  12.989
60347W        W32772  23.003   1.981   3.578
60348W        W32773  35.084   7.155   3.195
60349W        W32774  20.320  14.260   1.164
60350W        W32775  34.641  13.764  10.469
60351W        W32776  20.577  17.053   3.350
60352W        W32777  40.938  36.439   0.418
60353W        W32778   6.735  20.193   0.192
60354W        W32779  29.459  35.341   1.229
60355W        W32780  18.405  40.139  13.487
60356W        W32781   5.792  28.446   1.328
60357W        W32782  34.493  28.709   1.439
60358W        W32783  12.644   5.021  14.407
60359W        W32784  37.211  14.409   3.343
60360W        W32785  32.909  21.328   0.704
60361W        W32786   0.889  27.990   3.627
60362W        W32787  26.086  15.221  11.809
60363W        W32788  38.150  31.250  14.372
60364W        W32789  11.214  35.805  10.638
60365W        W32790  33.271  38.631   1.103
60366W        W32791  24.622   3.536  11.660
60367W        W32792  36.626  18.747  12.516
60368W        W32793  17.655  32.481  13.930
60369W        W32794   4.459  38.242  12.518
60370W        W32795  28.963  15.780  11.545
60371W        W32796  41.070  10.369  14.072
60372W        W32797  42.438  34.037   2.730
60373W        W32798  41.371  43.557   2.296
60374W        W32799  14.087  27.235   0.069
60375W        W32800  43.936  43.306  11.673
60376W        W32801  30.628   6.726  12.075
60377W        W32802  17.086  13.214   1.694
60378W        W32803  42.994  26.513  10.193
60379W        W32804  36.567  28.217  11.913
60380W        W32805  40.593  44.328  12.320
60381W        W32806  30.712  21.058   1.734
60382W        W32807  43.691  43.458   2.713
60383W        W32808  42.025  32.538   1.385
60384W        W32809  27.732  24.813   2.599
60385W        W32810  19.296  11.216   3.376
60386W        W32811  23.528  35.241   2.823
60387W        W32812  39.529   1.284   0.801
60388W        W32813  43.686  12.471   1.913
60389W        W32814  20.229  34.935   4.508
60390W        W32815   6.319  30.580  12.689
60391W        W32816  16.211  26.220  11.028
60392W        W32817  11.280  43.165  12.600
60393W        W32818  19.268  43.041   1.870
60394W        W32819  34.225  42.800  10.956
60395W        W32820  39.322  36.012   4.926
60396W        W32821   5.249  16.642   1.752
60397W        W32822  12.274  21.229  12.716
60398W        W32823  32.614  39.150  13.404
60399W        W32824  10.540   9.950   3.116
60400W        W32825  25.733  20.686  12.614
60401W        W32826  37.531   4.583   4.334
60402W        W32827  31.051  33.965   3.408
60403W        W32828  35.692   6.675   1.796
60404W        W32829  10.815  36.013  12.914
60405W        W32830  35.357   8.268  12.902
60406W        W32831   3.880  24.222   0.958
60407W        W32832  42.867   9.838  12.593
60408W        W32833  29.146  14.706   0.140
60409W        W32834  40.795  17.060  14.973
60410W        W32835  10.576  22.393   9.777
60411W        W32836   7.180  13.582  14.081
60412W        W32837  25.446   6.133   2.311
60413W        W32838  12.125  38.510  12.157
60414W        W32839  32.915   0.342  14.943
60415W        W32840   5.973   1.771   0.362
60416W        W32841  18.756  29.216  13.437
60417W        W32842   2.189  31.201  10.779
60418W        W32843  27.359  31.597  12.506
60419W        W32844  29.586  37.315   0.039
60420W        W32845  18.148   2.852  14.306
60421W        W32846   4.757   8.089   2.776
60422W        W32847  41.912  36.832   3.159
60423W        W32848  43.056  32.507  10.698
60424W        W32849   9.999  43.472   0.218
60425W        W32850  29.443  29.053  11.710
60426W        W32851  30.760  29.162   1.784
60427W        W32852  11.425  22.160   3.722
60428W        W32853  33.897   9.438   1.712
60429W        W32854   7.993   1.121   0.142
60430W        W32855   2.233   4.366   1.407
60431W        W32856   9.198  33.231   0.797
60432W        W32857  16.088  42.229  11.359
60433W        W32858  28.660  30.171  14.380
60434W        W32859   1.164  31.050  11.602
60435W        W32860  27.103  42.424   2.809
60436W        W32861  43.195  14.854   1.931
60437W        W32862  43.759  38.285  11.004
60438W        W32863  14.987  30.094   0.823
60439W        W32864  26.638  25.945  11.348
60440W        W32865  35.063  37.280   2.307
60441W        W32866   5.466  12.664   4.152
60442W        W32867  34.941  39.646   1.773
60443W        W32868  29.728  28.010  12.484
60444W        W32869   7.913  25.209   4.155
60445W        W32870   5.552  13.245   1.341
60446W        W32871  38.596  32.579   0.718
60447W        W32872  12.759   9.854   0.976
60448W        W32873  26.425  34.562   2.876
60449W        W32874   7.639  36.755   0.492
60450W        W32875  10.785  27.897  12.118
60451W        W32876   0.845  17.153   3.372
60452W        W32877  36.833  42.857   3.356
60453W        W32878  28.591  15.737  12.591
60454W        W32879  22.508   8.865  10.504
60455W        W32880  27.536   1.379   4.692
60456W        W32881  15.846  14.244   2.296
60457W        W32882  41.696   6.231   1.189
60458W        W32883   4.204  34.908   0.721
60459W        W32884   2.013  22.578  10.897
60460W        W32885  41.982  34.954   2.900
60461W        W32886  32.927  19.790  11.138
60462W        W32887  18.430  12.157   3.911
60463W        W32888   0.367   0.322  10.751
60464W        W32889   4.352  44.906  12.566
60465W        W32890  42.294  15.958  14.535
60466W        W32891  35.586  43.158   4.876
60467W        W32892  33.140  37.075  13.100
60468W        W32893  10.181   9.147  10.697
60469W        W32894   4.289  41.820  14.084
60470W        W32895   0.757  42.576  12.664
60471W        W32896  41.397  25.305  13.605
60472W        W32897  39.012  31.458   2.888
60473W        W32898  18.703   3.420   2.267
60474W        W32899  35.602  32.560   2.706
60475W        W32900   3.336   3.411   4.156
60476W        W32901   1.863  19.731  14.053
60477W        W32902  20.515   7.162   1.255
60478W        W32903   3.294  37.012   3.578
60479W        W32904  16.305  34.378  12.903
60480W        W32905   2.331  37.470  12.382
60481W        W32906  29.112  44.504  11.464
60482W        W32907  17.748  23.273  11.688
60483W        W32908  14.601  26.996  11.097
60484W        W32909  41.781  12.192   3.813
60485W        W32910  41.263  27.198  11.989
60486W        W32911  22.038  42.006  14.896
60487W        W32912  23.643  14.783  13.402
60488W        W32913  14.662   0.405  12.557
60489W        W32914  28.981   4.513  12.502
60490W        W32915  39.049  19.231  10.747
60491W        W32916  24.614   8.128   4.207
60492W        W32917  26.594  11.289  10.626
60493W        W32918  39.674  22.542  13.478
60494W        W32919   5.451  30.624   4.044
60495W        W32920   3.715  29.411   2.879
60496W        W32921  25.866  36.899   4.308
60497W        W32922  29.532  18.771   4.796
60498W        W32923   0.408   4.821  14.421
60499W        W32924  25.617  15.596  14.830
60500W        W32925  25.916  43.902   3.711
60501W        W32926  24.996  32.018   4.648
60502W        W32927  33.495  31.112   2.686
60503W        W32928   9.134  34.642   1.160
60504W        W32929  21.758  25.399  12.961
60505W        W32930  19.063  34.120   1.279
60506W        W32931  19.634  36.996   2.856
60507W        W32932  33.826   5.361  14.888
60508W        W32933  13.634  33.099   1.448
60509W        W32934  30.448  40.089  14.052
60510W        W32935  38.381   2.214   2.286
60511W        W32936  44.564  34.005  11.406
60512W        W32937   0.939  36.141   0.285
60513W        W32938  44.736  24.874  10.402
60514W        W32939  26.020  37.972   4.189
60515W        W32940   2.843  23.020  13.648
60516W        W32941  26.745  31.639  10.760
60517W        W32942   2.296  31.932  10.696
60518W        W32943   4.667  43.643  12.787
60519W        W32944  17.669  44.936   4.193
60520W        W32945  23.631  19.668  13.406
60521W        W32946  30.251   0.272   0.265
60522W        W32947  44.243  35.320   3.411
60523W        W32948  19.443  27.545  10.462
60524W        W32949  10.024   1.062   2.253
60525W        W32950  22.180  41.497  12.470
60526W        W32951  16.542  44.590   1.379
60527W        W32952   1.227  31.552   4.823
60528W        W32953  18.492  20.234  10.727
60529W        W32954  16.271   4.924  11.524
60530W        W32955  41.944  15.888   0.709
60531W        W32956  13.405  26.990   4.206
60532W        W32957  30.552  28.136  13.571
60533W        W32958   3.176  25.132   4.616
60534W        W32959   5.596  23.074  10.971
60535W        W32960  36.817   4.343   3.657
60536W        W32961  33.929  31.514  10.902
60537W        W32962  25.146  14.891  12.469
60538W        W32963  22.717  23.014  10.674
60539W        W32964   0.058  39.012  14.768
60540W        W32965  11.668  30.068  12.942
60541W        W32966  36.643  17.328   4.238
60542W        W32967  29.273  19.653  10.375
60543W        W32968  28.904  37.891   2.318
60544W        W32969  23.130  10.294   2.696
60545W        W32970  11.883  39.900   2.876
60546W        W32971  33.843   9.071  13.713
60547W        W32972  40.714  38.916   2.311
60548W        W32973  39.140  13.731  13.583
60549W        W32974  13.264  17.713  14.415
60550W        W32975  23.909  15.514   1.709
60551W        W32976   1.319  39.545   1.020
60552W        W32977  31.742  15.212   1.906
60553W        W32978   3.951  30.367   1.928
60554W        W32979  25.555  20.216  13.475
60555W        W32980  43.395  39.322  13.376
60556W        W32981  16.171   3.227  14.527
60557W        W32982   5.894  12.418  13.445
60558W        W32983  21.449   9.583  11.487
60559W        W32984  14.833  13.398   0.231
60560W        W32985  27.101  30.015   0.485
60561W        W32986   4.392  35.822  11.718
60562W        W32987  17.634  28.212   4.221
60563W        W32988   6.085  33.865  11.768
60564W        W32989  31.806  15.240   4.770
60565W        W32990  34.944  18.422   2.787
60566W        W32991  39.735   7.371  11.041
60567W        W32992  39.899  37.515   2.769
60568W        W32993  39.239   5.236  11.476
60569W        W32994  18.167  12.262  13.335
60570W        W32995  13.786  33.082   3.795
60571W        W32996  28.131   8.973  10.270
60572W        W32997  19.835  15.764  13.890
60573W        W32998  29.439   3.220   0.480
60574W        W32999  29.095  30.048   1.364
60575W        W33000  32.130  21.665   0.368
60576W        W33001  23.806  19.185  11.085
60577W        W33002  20.254   3.355   1.763
60578W        W33003   0.344  12.338  11.174
60579W        W33004  27.658  24.688  13.856
60580W        W33005  30.560  10.129  10.694
60581W        W33006   7.676  27.983  10.678
60582W        W33007  31.491   2.589   4.499
60583W        W33008  10.766   3.177  10.403
60584W        W33009  25.565  38.217  13.991
60585W        W33010   7.229  26.214   0.904
60586W        W33011  18.825  12.870  12.406
60587W        W33012  38.766  36.737   4.527
60588W        W33013  42.945   1.458   0.194
60589W        W33014  43.812   0.606   4.158
60590W        W33015  36.307  34.476  11.937
60591W        W33016   6.969  20.517  12.484
60592W        W33017  29.074  43.381   0.374
60593W        W33018  28.070  37.167   3.365
60594W        W33019  21.149  11.307  11.297
60595W        W33020  40.901   0.271   4.465
60596W        W33021  20.415   5.267  10.595
60597W        W33022  34.398  29.348  14.768
60598W        W33023  13.777  13.085  12.127
60599W        W33024  10.380  15.168   4.842
60600W        W33025  10.425   5.421  10.781
60601W        W33026  34.595  22.939  13.362
60602W        W33027  22.675   9.343  11.131
60603W        W33028  36.036  23.490   1.827
60604W        W33029  14.742   7.957   2.880
60605W        W33030  36.456  28.592   2.681
60606W        W33031  40.337  29.798  10.692
60607W        W33032   6.221  28.188  11.615
60608W        W33033   6.340  35.697   1.946
60609W        W33034  34.557  17.803   1.411
60610W        W33035  15.252  25.995  11.885
60611W        W33036  41.505  35.177   2.980
60612W        W33037  25.511   0.901   1.225
60613W        W33038  35.519  28.241   2.307
60614W        W33039  32.064  19.221   4.956
60615W        W33040  21.582   7.900  12.892
60616W        W33041  41.949  28.450  14.447
60617W        W33042  25.584  13.767  12.081
60618W        W33043   0.077   3.074  12.375
60619W        W33044  38.557  21.449   3.314
60620W        W33045  39.339  38.460   0.217
60621W        W33046  37.961  18.289  12.078
60622W        W33047  38.070  44.378  10.536
60623W        W33048  23.187   9.829  14.839
60624W        W33049   6.374   4.848   0.482
60625W        W33050   3.727  26.596  14.523
60626W        W33051  26.975  19.217  13.907
60627W        W33052  37.852  15.279   4.629
60628W        W33053  17.093   0.244   0.755
60629W        W33054   7.218  26.017  11.576
60630W        W33055   1.483  43.776   0.352
60631W        W33056  34.463  10.361   3.723
60632W        W33057  43.593  17.739   1.978
60633W        W33058  26.574  31.973  11.738
60634W        W33059  41.234   1.799   1.256
60635W        W33060  27.579  44.229   0.566
60636W        W33061  21.577   4.874   0.360
60637W        W33062  18.667  26.045  11.021
60638W        W33063  17.564  30.160  14.450
60639W        W33064  32.338  21.660  14.482
60640W        W33065  12.198   2.658   1.863
60641W        W33066  27.056  15.161  13.474
60642W        W33067   5.292  39.002   2.863
60643W        W33068  42.062  19.140  11.596
60644W        W33069  16.727  38.941  10.225
60645W        W33070   9.786  29.733   2.342
60646W        W33071  38.774  24.000   3.506
60647W        W33072  37.703   7.320   0.439
60648W        W33073  25.621  18.039  12.880
60649W        W33074   0.898  31.938   1.821
60650W        W33075   5.016  37.956  10.800
60651W        W33076  15.582  10.385  13.130
60652W        W33077  13.784   7.084  11.058
60653W        W33078  44.979  36.907   3.557
60654W        W33079  39.442  26.046   0.304
60655W        W33080  34.461   1.687  12.909
60656W        W33081   9.726  32.628   4.131
60657W        W33082  25.469   2.649   3.215
60658W        W33083  34.386  18.667  11.637
60659W        W33084  42.248   2.376  12.497
60660W        W33085  35.025  31.126  12.410
60661W        W33086  38.970  38.764   4.970
60662W        W33087  29.546  14.064   1.069
60663W        W33088   8.331  33.121  11.549
60664W        W33089  19.872   1.745  14.436
60665W        W33090  13.661  41.410   4.553
60666W        W33091  43.173  20.542  10.416
60667W        W33092  27.935  38.671   2.843
60668W        W33093  14.434  27.506   2.093
60669W        W33094  19.508  39.437   3.503
60670W        W33095   1.261  41.909   4.584
60671W        W33096  10.575  38.785   2.229
60672W        W33097   1.022  44.899  14.338
60673W        W33098   6.259  12.808  12.360
60674W        W33099  15.360   3.483   5.466
60675W        W33100  40.076  35.104  11.068
60676W        W33101  38.534  21.792   2.276
60677W        W33102  10.062  43.858  12.801
60678W        W33103  35.643  12.882  11.156
60679W        W33104  34.518   1.713   0.705
60680W        W33105  33.596  18.537   1.873
60681W        W33106  36.355  10.188  14.767
60682W        W33107   5.738  11.689   2.163
60683W        W33108  19.289  17.375  12.615
60684W        W33109  13.407  42.035   3.698
60685W        W33110  44.773   7.968   3.715
60686W        W33111  13.430  33.929   2.716
60687W        W33112  21.794  16.064   3.231
60688W        W33113  28.750  13.263   2.375
60689W        W33114   5.920  17.389   1.818
60690W        W33115   5.343  31.444  11.886
60691W        W33116  16.638   1.974   0.310
60692W        W33117  19.929  34.354  12.788
60693W        W33118   7.937  38.444   0.709
60694W        W33119  40.915   7.108   1.365
60695W        W33120  11.151  41.757  13.830
60696W        W33121  36.864  23.177   4.607
60697W        W33122  41.743   7.492  11.557
60698W        W33123  38.960  13.725   4.162
60699W        W33124  19.324  29.521  14.971
60700W        W33125  27.476  13.108   0.781
60701W        W33126  13.803  16.627  12.497
60702W        W33127  31.319  43.880   2.887
60703W        W33128  29.579  29.329   4.991
60704W        W33129  29.956  11.225  13.397
60705W        W33130  33.341  16.313   0.842
60706W        W33131   1.541  30.182   4.727
60707W        W33132  21.178  44.940   1.325
60708W        W33133  23.968   0.840   4.537
60709W        W33134  31.679   4.040  11.592
60710W        W33135  14.025  27.407   3.220
60711W        W33136  13.165  21.298  10.132
60712W        W33137   4.043   5.754  12.014
60713W        W33138  27.660  13.096  12.018
60714W        W33139  19.457  15.124   4.610
60715W        W33140  25.334  12.325  11.834
60716W        W33141   5.712  21.540   3.392
60717W        W33142  22.991  41.999  11.969
60718W        W33143  22.562  29.958  13.941
60719W        W33144  41.452  39.821   4.912
60720W        W33145   9.934  35.856   3.164
60721W        W33146  36.766  40.450  11.485
60722W        W33147   8.707  29.048  13.427
60723W        W33148  25.277  17.386   2.372
60724W        W33149   0.219  20.270  10.886
60725W        W33150  34.062   0.641  14.286
60726W        W33151  41.474   5.979  11.513
60727W        W33152  35.629  18.309   0.286
60728W        W33153  18.319  10.407  11.566
60729W        W33154  36.645  15.313   0.676
60730W        W33155  25.529  29.178  10.279
60731W        W33156  40.069  11.046  11.434
60732W        W33157  36.328  41.414   3.821
60733W        W33158  44.677   4.350   1.353
60734W        W33159  23.599  19.621   2.818
60735W        W33160  33.468   3.069   0.285
60736W        W33161  10.264  37.752   3.825
60737W        W33162  40.860  15.039   3.264
60738W        W33163   0.011  36.168  11.821
60739W        W33164  40.483  21.111  10.222
60740W        W33165   1.581  20.999   4.984
60741W        W33166   1.141   3.800  13.924
60742W        W33167  41.273  22.767   0.850
60743W        W33168  12.963   3.711   2.914
60744W        W33169  38.819  28.624  13.616
60745W        W33170   7.323  16.038  13.046
60746W        W33171  34.004  15.412  13.922
60747W        W33172  35.024  19.693   0.768
60748W        W33173  37.979  33.739  12.833
60749W        W33174  42.640  15.594   3.368
60750W        W33175  41.602  19.129   4.371
60751W        W33176  32.643  23.801  11.978
60752W        W33177  35.949  11.187  13.510
60753W        W33178  16.797  28.640   0.340
60754W        W33179  37.249  27.549   3.998
60755W        W33180  28.391   5.772   4.854
60756W        W33181  28.550  29.041   3.385
60757W        W33182   8.807  38.039  14.932
60758W        W33183   1.034  40.948  14.454
60759W        W33184  25.854   9.624   4.544
60760W        W33185  20.095  28.031  12.381
60761W        W33186  10.001   7.891   2.325
60762W        W33187  18.725  19.348  11.022
60763W        W33188   4.766   7.629   5.048
60764W        W33189  39.605  16.162  13.922
60765W        W33190   3.304  25.403   0.549
60766W        W33191   4.193  23.310   3.301
60767W        W33192  17.088  20.575   4.599
60768W        W33193  37.168  41.726   0.383
60769W        W33194  17.709  33.395  13.980
60770W        W33195   8.305   6.427   0.369
60771W        W33196  19.000  40.168  12.047
60772W        W33197   0.267  29.150   1.388
60773W        W33198   6.158  18.668   1.414
60774W        W33199  43.185  20.170  14.469
60775W        W33200  38.425  40.424  13.792
60776W        W33201   5.477  40.549  13.987
60777W        W33202   0.274  10.943  11.177
60778W        W33203   7.899  26.735   3.321
60779W        W33204  22.704  33.231  11.126
60780W        W33205  13.102  27.443   2.589
60781W        W33206  35.558  17.556   3.800
60782W        W33207  41.239  20.720   0.375
60783W        W33208  32.627   0.507  14.006
60784W        W33209  20.933  19.177  13.022
60785W        W33210   3.877  44.505   1.780
60786W        W33211  37.747  39.747   3.676
60787W        W33212  35.054  31.180  12.916
60788W        W33213   8.690  34.838  12.922
60789W        W33214  16.322  18.146  11.652
60790W        W33215   8.709   6.825   2.419
60791W        W33216  24.121  11.080   5.584
60792W        W33217  33.535  36.147  13.811
60793W        W33218  13.160  14.491   4.413
60794W        W33219   5.509   6.300  12.471
60795W        W33220  19.767   4.384   2.871
60796W        W33221  41.006   0.755  11.040
60797W        W33222  18.361  37.900  14.778
60798W        W33223  16.255   4.940   3.642
60799W        W33224  37.806  41.718   2.787
60800W        W33225  21.443  27.596   0.218
60801W        W33226  13.624  34.434  13.036
60802W        W33227   3.293  16.589   1.759
60803W        W33228  41.618  30.970   1.753
60804W        W33229  13.361  42.885  12.581
60805W        W33230  27.179  24.197  11.506
60806W        W33231  21.137  31.809  10.504
60807W        W33232  18.171  37.112  13.300
60808W        W33233   9.829  41.873  11.029
60809W        W33234  36.797   6.055   3.779
60810W        W33235  13.671  36.784   1.430
60811W        W33236  20.239  23.532  13.494
60812W        W33237  32.450  42.837   3.256
60813W        W33238  44.850  19.412   1.679
60814W        W33239  31.474  39.101  14.285
60815W        W33240   4.819   4.781  12.480
60816W        W33241  26.895   5.791   2.804
60817W        W33242  33.745  35.971   1.022
60818W        W33243  33.095  34.914  11.447
60819W        W33244  43.032  39.407   4.714
60820W        W33245  28.990   6.664   0.950
60821W        W33246  35.070  35.468  12.428
60822W        W33247  21.714   8.245   0.311
60823W        W33248  40.012   6.890   0.902
60824W        W33249  35.682  11.249   1.849
60825W        W33250  13.169  14.046   5.115
60826W        W33251  27.093   9.945  14.081
60827W        W33252  16.203  22.973  13.965
60828W        W33253  13.850  31.986  10.371
60829W        W33254  40.498  22.772  10.757
60830W        W33255  29.063  14.126   0.881
60831W        W33256  39.612   7.559  14.240
60832W        W33257  26.228  27.564  11.988
60833W        W33258  33.089  12.312   2.326
60834W        W33259  40.916  37.340  14.316
60835W        W33260   4.909  17.556  13.679
60836W        W33261   7.954  18.768  13.086
60837W        W33262  22.238  24.597   1.558
60838W        W33263   5.197  43.914   0.968
60839W        W33264   3.654  37.424   2.407
60840W        W33265   5.784  14.403   0.788
60841W        W33266  34.564   5.907   3.166
60842W        W33267  20.690  11.438  11.512
60843W        W33268  13.348  20.195   4.569
60844W        W33269  22.634   2.958  11.740
60845W        W33270  43.055  11.158   2.411
60846W        W33271   4.553  31.146  12.520
60847W        W33272  31.708  16.365   3.799
60848W        W33273  34.331  32.125   3.338
60849W        W33274   0.350  17.796   4.023
60850W        W33275  15.689  22.279  11.435
60851W        W33276  40.466  28.827  14.163
60852W        W33277  38.006  43.269  13.388
60853W        W33278  34.324  17.017  10.704
60854W        W33279  39.385   5.876   2.569
60855W        W33280  36.819  41.710   4.175
60856W        W33281   9.182   8.831   4.894
60857W        W33282  13.407  31.936  13.543
60858W        W33283  34.881   4.138  14.914
60859W        W33284  44.398  36.213  14.106
60860W        W33285  38.785   5.630   0.762
60861W        W33286  40.431  11.264  12.075
60862W        W33287  24.799  27.021   4.121
60863W        W33288  33.000   0.532   1.775
60864W        W33289  10.184  19.558  10.765
60865W        W33290  28.346  28.600   0.729
60866W        W33291  19.006  33.713   0.911
60867W        W33292   0.531  38.321   3.763
60868W        W33293  44.214  15.259  12.127
60869W        W33294  40.728  15.544  10.216
60870W        W33295  14.683  19.473  10.737
60871W        W33296   6.206  21.032  12.582
60872W        W33297  43.043  43.322  14.868
60873W        W33298  24.025  40.636  10.022
60874W        W33299  25.651  11.655   3.315
60875W        W33300   0.957   8.431   0.391
60876W        W33301  23.744  11.891  11.535
60877W        W33302  19.781  26.663  14.797
60878W        W33303  20.260  13.305   1.424
60879W        W33304   1.807  37.560   2.119
60880W        W33305  18.261  42.787   0.368
60881W        W33306  40.338  20.014   3.282
60882W        W33307  21.136  44.798   1.847
60883W        W33308  12.575  10.354   5.527
60884W        W33309   0.763  40.032   3.467
60885W        W33310  29.539  24.210   2.565
60886W        W33311  27.123   5.998  13.610
60887W        W33312  24.631  20.495  12.719
60888W        W33313   1.385  14.675  14.002
60889W        W33314  17.554  22.314   2.787
60890W        W33315   2.370   3.019   1.805
60891W        W33316  21.211  12.307  12.554
60892W        W33317  28.899  36.376  11.058
60893W        W33318   8.084   2.522  12.648
60894W        W33319  10.420   8.124   0.286
60895W        W33320   0.336  12.129   1.310
60896W        W33321  11.843  39.277  12.110
60897W        W33322  23.818   8.325  13.120
60898W        W33323  41.969  13.451   0.236
60899W        W33324  34.660  30.161  14.101
60900W        W33325  13.423   2.263  11.679
60901W        W33326   5.638  22.578  14.895
60902W        W33327  19.195  43.518   1.623
60903W        W33328  39.855  31.227  12.088
60904W        W33329  20.503  17.205  13.418
60905W        W33330  26.326  31.534  11.036
60906W        W33331   3.356  41.932  12.546
60907W        W33332   7.426  44.011  11.660
60908W        W33333  43.802  33.587  14.529
60909W        W33334  26.098  24.013   0.312
60910W        W33335  36.934   4.345  14.778
60911W        W33336  32.043  42.583   0.913
60912W        W33337   1.714  42.766   2.265
60913W        W33338  35.100  44.402  13.293
60914W        W33339  34.255  27.488   0.975
60915W        W33340   0.564   3.183  12.145
60916W        W33341  28.152  32.999   2.834
60917W        W33342  17.823  15.366   1.548
60918W        W33343  21.752  28.229  12.449
60919W        W33344  15.659  19.841  11.511
60920W        W33345   6.257  16.721  14.758
60921W        W33346  33.715  43.708   2.609
60922W        W33347  38.581  26.096  12.985
60923W        W33348   8.370  42.063   3.844
60924W        W33349  39.712  31.000  14.518
60925W        W33350  40.896  43.110  12.375
60926W        W33351  34.069  34.850  14.450
60927W        W33352  24.025  34.402  13.370
60928W        W33353  21.155  35.109  13.910
60929W        W33354   4.222  10.772  12.383
60930W        W33355  17.109  30.822   3.043
60931W        W33356  19.834  24.654  14.002
60932W        W33357  14.567  22.187  14.824
60933W        W33358  25.668  35.153  10.753
60934W        W33359  44.242  37.333   3.662
60935W        W33360   3.954  24.751   2.290
60936W        W33361  14.332  31.367   4.375
60937W        W33362  29.531   4.218  11.547
60938W        W33363  34.815  36.033  10.218
60939W        W33364  25.223  34.860  13.996
60940W        W33365  16.356  41.737   2.817
60941W        W33366   4.569  16.479   2.337
60942W        W33367  37.636  19.230  11.067
60943W        W33368  41.042  21.202   5.199
60944W        W33369  11.347  13.794   4.924
60945W        W33370  27.948  20.348  10.227
60946W        W33371  17.816  16.305  12.626
60947W        W33372   3.509  37.329  14.450
60948W        W33373  33.843  42.417  13.862
60949W        W33374  36.038  19.187   2.849
60950W        W33375  30.434  23.708  11.169
60951W        W33376  11.162  33.613   3.158
60952W        W33377  13.749   4.726   2.241
60953W        W33378  28.180  31.426   4.515
60954W        W33379  18.790  18.664   2.732
60955W        W33380  16.858   9.958  12.231
60956W        W33381  27.102   2.375  13.865
60957W        W33382  14.688  43.925   1.104
60958W        W33383  22.097   7.301   3.251
60959W        W33384  29.402   8.648  13.209
60960W        W33385  17.562  41.182  11.374
60961W        W33386  37.582  20.492   0.844
60962W        W33387  24.624  25.207   4.309
60963W        W33388  24.111  21.034  11.946
60964W        W33389   6.498  37.181  12.537
60965W        W33390   3.066  35.634  14.928
60966W        W33391  24.761  37.379   3.624
60967W        W33392  14.176  12.704   4.699
60968W        W33393  29.594  10.555  13.518
60969W        W33394  34.396  41.981  10.838
60970W        W33395  43.459  38.840   3.652
60971W        W33396   5.684  39.781  12.438
60972W        W33397  37.709  26.390   4.710
60973W        W33398   9.878  38.704   0.559
60974W        W33399  20.717  11.400   1.816
60975W        W33400  39.862  38.421  14.297
60976W        W33401  12.292  27.499  14.834
60977W        W33402  22.013  34.067  12.273
60978W        W33403  28.124  26.784  14.381
60979W        W33404  19.662  23.700   0.969
60980W        W33405  27.391  11.696   0.236
60981W        W33406  37.639  38.599  13.776
60982W        W33407  28.446   2.834   1.465
60983W        W33408  16.725  21.496  14.918
60984W        W33409   6.772  38.040   2.483
60985W        W33410   3.295  34.042  13.588
60986W        W33411  13.696   0.086   4.148
60987W        W33412  20.703  22.464  13.994
60988W        W33413   4.009  43.440  11.528
60989W        W33414  36.644  11.110  14.583
60990W        W33415  24.761  34.763  12.119
60991W        W33416  12.076  19.727  12.628
60992W        W33417  14.380   0.373  12.996
60993W        W33418   8.812  38.176  11.117
60994W        W33419  27.964  20.241  12.870
60995W        W33420  19.648  10.195   0.248
60996W        W33421  15.979  25.770  10.479
60997W        W33422  38.738  20.804  13.447
60998W        W33423  15.213   4.044   2.027
60999W        W33424  17.115  11.185  12.750
61000W        W33425  29.422  34.510  10.716
61001W        W33426  18.086  17.148   4.355
61002W        W33427   9.281   0.062   4.229
61003W        W33428  40.361  11.160   1.929
61004W        W33429  30.045  27.551  12.506
61005W        W33430  25.447  28.140  12.981
61006W        W33431  11.599  13.228  12.953
61007W        W33432  31.282  38.142  12.855
61008W        W33433  25.733  11.650   1.809
61009W        W33434  16.994  12.788  14.870
61010W        W33435  26.031  24.668   2.444
61011W        W33436   5.167  17.130   3.566
61012W        W33437   2.377  15.566  11.914
61013W        W33438  32.439  14.011   0.535
61014W        W33439  11.110   5.362  11.067
61015W        W33440  40.088   3.257  14.779
61016W        W33441  36.508  21.076  13.782
61017W        W33442  23.606  17.716  11.160
61018W        W33443   8.299  32.889   1.446
61019W        W33444   5.150  38.863  13.415
61020W        W33445  28.048  24.219   0.311
61021W        W33446  13.037  18.336   0.041
61022W        W33447  31.679  10.118   0.060
61023W        W33448  17.152   4.531   3.819
61024W        W33449  29.353  24.661   2.747
61025W        W33450  36.887  28.954   3.161
61026W        W33451  23.365   5.240  13.960
61027W        W33452  42.862  13.840  10.861
61028W        W33453  31.608   3.351  13.494
61029W        W33454  21.778  29.736  11.974
61030W        W33455  22.648  44.561   0.077
61031W        W33456  35.474  11.211  13.212
61032W        W33457   1.725  40.541   2.423
61033W        W33458   6.867  30.015   2.357
61034W        W33459  10.797   2.826   3.788
61035W        W33460   7.289   6.971   3.213
61036W        W33461  41.699  44.302   5.026
61037W        W33462  33.343  16.468  13.573
61038W        W33463  40.395  14.415   1.926
61039W        W33464  11.190   1.727   1.313
61040W        W33465   7.751  24.028  12.968
61041W        W33466   2.770  29.617   2.227
61042W        W33467  16.777  24.597   1.989
61043W        W33468  43.395   3.764   4.415
61044W        W33469  37.256   6.548   2.511
61045W        W33470  19.771  33.939   4.557
61046W        W33471  34.677  38.782   1.731
61047W        W33472  15.424   3.683   2.895
61048W        W33473  22.052  14.889   2.844
61049W        W33474  33.036  40.569  12.818
61050W        W33475  24.972   4.152  12.457
61051W        W33476  15.284  37.870   0.294
61052W        W33477  44.863  20.512  13.793
61053W        W33478  38.799  44.825   1.346
61054W        W33479  43.476   0.657  14.612
61055W        W33480  33.050  19.576   1.409
61056W        W33481  26.499   4.950  13.454
61057W        W33482  26.941  27.019  12.205
61058W        W33483  11.166  25.006   4.622
61059W        W33484  24.416  28.138  10.964
61060W        W33485  37.980  42.237  12.517
61061W        W33486  41.477  18.893  10.672
61062W        W33487  22.319  14.092  11.568
61063W        W33488  13.940  19.075   3.856
61064W        W33489  36.619  14.292  13.066
61065W        W33490  27.589  19.004  12.591
61066W        W33491  39.868   5.175  11.958
61067W        W33492  39.040  15.386   0.318
61068W        W33493  43.459   2.320  12.700
61069W        W33494   0.032  22.134   2.157
61070W        W33495  33.656   7.831   4.429
61071W        W33496   0.756   6.711   4.183
61072W        W33497  35.062  17.384   3.711
61073W        W33498  30.917  19.133  12.975
61074W        W33499   9.625   1.784   2.720
61075W        W33500   9.270  32.406   1.385
61076W        W33501  28.668  19.735   4.641
61077W        W33502  10.928  31.375   0.375
61078W        W33503  39.382  40.305   2.262
61079W        W33504  20.799  41.060  14.428
61080W        W33505  26.656  33.158   2.212
61081W        W33506  42.400  15.916  14.046
61082W        W33507  14.847  22.203  14.370
61083W        W33508  29.078  34.986  11.736
61084W        W33509   4.696  11.189   4.022
61085W        W33510  32.642   5.305   2.834
61086W        W33511   9.924   1.397  11.662
61087W        W33512   5.724  42.770   4.648
61088W        W33513  31.354  36.450  14.014
61089W        W33514  41.012   0.511  12.436
61090W        W33515  25.478   5.855   2.739
61091W        W33516  37.325  36.386   4.057
61092W        W33517   1.970  37.806  13.629
61093W        W33518  40.528  18.296  13.529
61094W        W33519  39.911  28.703  11.971
61095W        W33520  14.769  29.654  11.248
61096W        W33521  22.236  27.849   2.759
61097W        W33522  10.262  25.096   3.419
61098W        W33523  17.707  12.648   3.790
61099W        W33524  39.137   3.966   4.148
61100W        W33525  23.338  17.409  10.820
61101W        W33526  35.183  40.428  14.981
61102W        W33527  42.916  32.974   5.062
61103W        W33528   7.090  37.635   2.555
61104W        W33529  29.349  13.125   0.357
61105W        W33530  31.099  12.629   0.398
61106W        W33531  19.494  20.459  12.474
61107W        W33532  31.388  15.152   3.400
61108W        W33533  20.523  18.945   4.119
61109W        W33534  18.779  10.126  14.673
61110W        W33535  36.866  15.697   1.577
61111W        W33536  37.055  21.139   2.909
61112W        W33537  33.338  34.042  11.573
61113W        W33538  44.082  28.186   3.225
61114W        W33539  42.837  15.484   0.889
61115W        W33540  28.054  18.373  12.969
61116W        W33541  31.402  29.413   3.621
61117W        W33542   1.488  29.781   3.720
61118W        W33543   8.794  14.212  11.319
61119W        W33544  18.530  26.106   0.785
61120W        W33545  13.257  18.749  13.442
61121W        W33546   8.964  29.898  11.062
61122W        W33547  35.561   0.966  11.882
61123W        W33548   5.887  44.322   4.978
61124W        W33549  35.353  39.871  10.473
61125W        W33550  27.627  34.930  12.951
61126W        W33551  32.104  25.500  11.561
61127W        W33552   9.082   0.013   3.357
61128W        W33553  42.138  11.345  14.469
61129W        W33554  32.441  36.391  12.039
61130W        W33555   4.368  44.807  11.197
61131W        W33556   1.528  25.977  13.492
61132W        W33557   0.321  17.968  14.862
61133W        W33558  34.996   7.387   1.780
61134W        W33559  27.610  20.515  12.429
61135W        W33560  10.337  39.838   5.016
61136W        W33561  17.196  26.962  10.226
61137W        W33562  18.310  27.660  11.557
61138W        W33563  21.714   1.328  13.056
61139W        W33564  19.008   8.046   0.794
61140W        W33565  26.698  37.068  13.408
61141W        W33566  37.417  27.517  13.567
61142W        W33567  24.577   4.852  13.360
61143W        W33568  16.237  21.724  11.601
61144W        W33569  10.270  22.097   0.157
61145W        W33570  43.572   7.711   1.228
61146W        W33571   6.852  37.150   0.276
61147W        W33572  22.750   8.841   1.608
61148W        W33573  21.130   5.929  13.511
61149W        W33574  12.163  23.167   4.016
61150W        W33575  35.595   7.197  14.369
61151W        W33576  10.230  27.106  12.666
61152W        W33577   7.833  22.492  12.926
61153W        W33578   6.335  34.298  11.859
61154W        W33579  30.807   0.367  10.821
61155W        W33580  28.437  40.900  12.700
61156W        W33581  26.743  13.684  14.963
61157W        W33582   9.463  39.564  11.023
61158W        W33583  12.576   7.643  10.908
61159W        W33584  10.849  37.399  14.459
61160W        W33585  20.042  44.039   1.431
61161W        W33586  20.595  12.422   4.985
61162W        W33587  20.771  34.914   0.373
61163W        W33588  19.964   2.382   1.758
61164W        W33589  31.913  31.063  11.378
61165W        W33590  35.881   0.206   0.037
61166W        W33591   9.676  18.885   1.303
61167W        W33592  25.876  20.627  13.515
61168W        W33593  10.891  25.245  14.905
61169W        W33594  29.549   3.291   4.258
61170W        W33595   7.439  25.291  12.599
61171W        W33596  30.810   6.865   3.096
61172W        W33597   7.588  22.571  12.402
61173W        W33598  36.890  44.064   4.927
61174W        W33599   2.726  13.915  10.650
61175W        W33600  26.616   5.957  13.449
61176W        W33601   9.279  10.809  14.529
61177W        W33602  18.121  19.539   2.003
61178W        W33603  11.123   6.417   2.872
61179W        W33604  44.742   5.653   1.494
61180W        W33605  19.576  38.881  11.588
61181W        W33606  41.366  13.687  14.278
61182W        W33607  29.762  27.402  11.922
61183W        W33608  42.347  41.623  12.509
61184W        W33609   2.102  12.610  14.486
61185W        W33610  37.514  33.570  11.068
61186W        W33611  22.963  12.702   1.205
61187W        W33612  21.916   1.377   1.713
61188W        W33613  11.231  24.875   3.764
61189W        W33614  27.265  36.382  12.152
61190W        W33615  30.389  39.512  11.904
61191W        W33616  37.953  40.244   3.636
61192W        W33617   9.236   4.951  13.443
61193W        W33618  27.235  11.837  13.563
61194W        W33619  33.306   3.323   2.183
61195W        W33620  37.417  33.595   2.851
61196W        W33621  24.733  44.065  12.477
61197W        W33622   7.476  23.482   4.247
61198W        W33623  36.545   0.161   0.624
61199W        W33624  18.281  16.697   2.182
61200W        W33625  18.214  31.726  13.759
61201W        W33626  26.566  12.300  12.580
61202W        W33627  30.744  22.083  10.073
61203W        W33628  33.581   7.490   4.818
61204W        W33629  20.131  42.776   4.688
61205W        W33630  16.737  38.089   2.768
61206W        W33631  17.040   1.918   3.277
61207W        W33632   3.444  16.176  14.494
61208W        W33633  11.095   8.658   2.809
61209W        W33634  41.439  30.956   3.369
61210W        W33635  35.118  18.786   4.150
61211W        W33636  11.377  14.556   1.471
61212W        W33637  25.423  20.542   1.453
61213W        W33638   1.876  23.447  14.832
61214W        W33639  11.139  19.547  11.760
61215W        W33640  12.306  25.155  13.408
61216W        W33641  16.269  31.420   0.417
61217W        W33642  31.486  19.963   3.776
61218W        W33643   5.340   5.759   1.976
61219W        W33644   5.901   8.159   3.773
61220W        W33645  21.016  17.561   0.533
61221W        W33646   8.129  22.497   1.717
61222W        W33647  44.767   5.232   1.199
61223W        W33648  25.232  28.402   4.696
61224W        W33649   9.916   9.183  12.467
61225W        W33650  24.895  41.825   2.750
61226W        W33651  10.933  18.626  11.746
61227W        W33652  39.911  22.654   3.658
61228W        W33653   5.256  12.320  13.329
61229W        W33654  29.405   4.272  14.257
61230W        W33655  39.889  18.252  14.520
61231W        W33656  44.197   3.413   4.137
61232W        W33657  37.672  43.639  13.349
61233W        W33658  20.692   1.175   3.645
61234W        W33659   9.706  21.288   0.327
61235W        W33660  31.919  21.010  13.937
61236W        W33661  32.840   1.656  14.517
61237W        W33662  22.740   6.241   1.739
61238W        W33663  33.406  10.227   2.285
61239W        W33664  21.568  27.027   2.703
61240W        W33665  32.084  27.092   2.214
61241W        W33666  36.967  41.926   1.518
61242W        W33667  35.164  25.031  12.458
61243W        W33668   7.785  32.612  11.963
61244W        W33669  41.674  39.853   0.403
61245W        W33670   8.650  12.282   2.225
61246W        W33671  14.041  24.472  13.259
61247W        W33672  25.669  13.736  14.478
61248W        W33673  13.597  39.947   4.593
61249W        W33674  36.293  43.464   2.433
61250W        W33675  21.748  41.664  12.736
61251W        W33676  24.058  23.728   1.777
61252W        W33677  14.401  44.834   2.611
61253W        W33678  19.589  14.130  11.456
61254W        W33679  10.746  18.650  10.730
61255W        W33680  40.408  23.131   0.390
61256W        W33681   1.495  10.345  14.600
61257W        W33682   9.717  13.268   3.673
61258W        W33683  36.852   3.675   1.461
61259W        W33684  40.421  23.303   0.876
61260W        W33685   8.932   0.372   1.616
61261W        W33686   5.121  35.884  12.353
61262W        W33687  21.056   7.594   2.716
61263W        W33688  18.776   4.313   0.475
61264W        W33689  43.889  29.697  12.069
61265W        W33690  34.987  10.821   1.338
61266W        W33691  28.871  37.375   2.424
61267W        W33692  26.102  20.638  11.636
61268W        W33693  22.816  39.102  14.831
61269W        W33694  15.398  11.768   1.527
61270W        W33695  33.694  29.046   4.660
61271W        W33696  33.437  11.983  14.954
61272W        W33697  26.475  36.826   1.182
61273W        W33698  10.770  18.808   2.856
61274W        W33699  40.277   4.207  11.710
61275W        W33700   1.192  33.486  11.055
61276W        W33701  26.191   0.879   4.256
61277W        W33702  38.334  32.404   0.292
61278W        W33703  38.300  35.379   0.253
61279W        W33704  21.239  44.478   3.214
61280W        W33705  13.132  38.550   1.436
61281W        W33706  33.448   8.891  11.204
61282W        W33707  42.417  22.995  14.549
61283W        W33708  29.601   2.503   2.743
61284W        W33709  41.422  18.294  13.463
61285W        W33710  23.604  41.770  11.209
61286W        W33711  44.889  28.701   3.646
61287W        W33712  20.169  21.775   3.813
61288W        W33713  39.935  14.320   2.807
61289W        W33714  16.455  35.594  12.689
61290W        W33715  23.975   5.438  10.680
61291W        W33716  23.360  31.223  13.955
61292W        W33717   0.222  18.268  13.309
61293W        W33718  42.006   8.737   0.748
61294W        W33719  17.588  31.846   0.315
61295W        W33720  40.386  12.380   1.834
61296W        W33721  25.853  31.408  11.172
61297W        W33722  43.297  25.985  13.006
61298W        W33723   4.455  30.540   1.913
61299W        W33724  30.863  30.405   2.678
61300W        W33725   2.016  43.179  12.539
61301W        W33726  28.210  20.632   0.902
61302W        W33727   6.936   5.533  11.503
61303W        W33728   3.620  14.065   2.642
61304W        W33729  26.488  11.592   2.066
61305W        W33730  33.140  12.850  14.562
61306W        W33731  34.620  39.829  12.546
61307W        W33732  22.634  15.832  14.454
61308W        W33733  12.520  17.865  11.057
61309W        W33734  10.266  12.778   2.183
61310W        W33735  12.626  15.237  12.549
61311W        W33736   6.193  41.532  13.371
61312W        W33737  43.186   4.298   1.248
61313W        W33738  15.877  33.885  14.312
61314W        W33739  26.071  16.110  13.843
61315W        W33740  38.414  21.180  14.640
61316W        W33741  44.512  33.524   5.001
61317W        W33742  42.509  20.281   1.968
61318W        W33743  33.011  31.008  10.607
61319W        W33744   1.576  36.350   3.253
61320W        W33745  44.927  15.772  11.311
61321W        W33746   2.018  27.762  12.951
61322W        W33747  39.082   5.313  13.360
61323W        W33748  36.181  29.442  12.404
61324W        W33749  28.707  17.779   4.129
61325W        W33750  20.261   1.661   3.018
61326W        W33751  31.035  36.351  13.587
61327W        W33752  14.984   8.642  10.692
61328W        W33753  21.716  25.078   0.953
61329W        W33754  30.468  41.354   4.047
61330W        W33755  40.934  16.185  12.008
61331W        W33756  40.541  18.611   5.223
61332W        W33757  14.914  23.146   1.287
61333W        W33758  40.766  11.358   2.813
61334W        W33759  35.975  41.588  12.864
61335W        W33760  14.153   9.902  11.084
61336W        W33761  11.263  40.863  13.308
61337W        W33762  34.317  19.624   1.900
61338W        W33763  26.574  39.317  13.040
61339W        W33764  17.594  41.909  13.696
61340W        W33765   1.875  37.141   2.405
61341W        W33766   0.760   0.819  14.721
61342W        W33767  36.920  11.611   3.259
61343W        W33768  16.069  32.037  14.390
61344W        W33769  16.433   6.036   1.250
61345W        W33770   5.756   7.326   0.365
61346W        W33771  15.163  33.889   0.806
61347W        W33772   0.106  21.338   0.832
61348W        W33773  37.823  17.994  14.022
61349W        W33774  44.996  14.763   0.116
61350W        W33775  24.975  30.631   3.591
61351W        W33776  31.297   2.346   1.907
61352W        W33777  40.956  19.489   3.750
61353W        W33778  41.114  40.456  13.486
61354W        W33779  22.500  42.386   2.946
61355W        W33780   7.903  20.139   4.624
61356W        W33781  42.468  14.584  10.647
61357W        W33782  40.908  18.908  11.902
61358W        W33783   7.854  42.295   3.854
61359W        W33784   4.483   1.176  10.146
61360W        W33785   8.226  12.470  11.158
61361W        W33786  15.594   0.727   3.243
61362W        W33787  11.135  10.594  11.613
61363W        W33788   7.879  38.787   1.475
61364W        W33789  13.031  17.147  11.652
61365W        W33790  37.114  31.908   2.870
61366W        W33791  38.099  31.392   0.939
61367W        W33792  41.406  38.849   4.745
61368W        W33793  17.603  23.968   2.348
61369W        W33794  36.384   6.858   2.335
61370W        W33795  23.974   3.906  12.305
61371W        W33796  19.473  33.688  10.986
61372W        W33797  22.459  34.034   3.250
61373W        W33798   2.292   9.007   3.598
61374W        W33799  29.644  42.027  13.899
61375W        W33800  38.847  10.352  13.364
61376W        W33801  25.425  30.914  10.536
61377W        W33802  35.142  41.431   2.089
61378W        W33803  36.895  15.783  11.639
61379W        W33804  24.424  34.363   4.139
61380W        W33805  18.077  34.076   4.632
61381W        W33806   0.308  17.632  12.852
61382W        W33807  44.872  11.630   1.902
61383W        W33808  25.685  19.331  13.951
61384W        W33809  42.486  14.352  14.806
61385W        W33810  10.679  29.600  11.128
61386W        W33811  19.658   1.518  13.387
61387W        W33812  29.723  40.895   1.135
61388W        W33813  43.379  39.831  13.474
61389W        W33814   2.391  20.990   1.961
61390W        W33815  15.146  35.989  12.391
61391W        W33816   4.697  20.481   4.673
61392W        W33817  28.905  34.400  10.751
61393W        W33818  16.097  38.996   1.441
61394W        W33819  38.202  14.135   4.996
61395W        W33820  32.091  37.118   0.201
61396W        W33821  10.975  43.477  10.674
61397W        W33822   5.020  32.955   2.864
61398W        W33823  26.105  20.992  14.854
61399W        W33824   9.771  44.945   0.928
61400W        W33825   6.399   7.280   3.610
61401W        W33826  44.962   8.860   0.431
61402W        W33827  31.968   4.852  14.908
61403W        W33828  32.120  29.225   0.401
61404W        W33829   0.063  36.184  10.823
61405W        W33830   8.583  25.044  14.238
61406W        W33831  13.866  11.331   4.698
61407W        W33832  36.514  39.334  12.244
61408W        W33833  11.313  15.743  13.561
61409W        W33834  22.022  26.180  13.291
61410W        W33835  16.551  32.387  11.114
61411W        W33836   4.922   6.760  14.527
61412W        W33837  12.101  28.040   1.006
61413W        W33838  27.518  42.965  11.454
61414W        W33839  28.454  13.854   3.499
61415W        W33840  28.217   2.006  13.522
61416W        W33841   9.695  25.452   2.243
61417W        W33842   7.460  42.516  11.956
61418W        W33843  22.994  15.152   1.815
61419W        W33844  20.532  43.929  11.144
61420W        W33845   7.411  19.127   2.335
61421W        W33846  19.703  28.437  12.622
61422W        W33847  31.022   9.848   0.824
61423W        W33848  10.072  11.652  11.043
61424W        W33849   7.975  37.604   9.945
61425W        W33850  30.949  26.192   4.104
61426W        W33851  44.864  12.409   4.949
61427W        W33852  32.872   1.742   3.262
61428W        W33853  38.863  19.320  12.173
61429W        W33854  44.826  24.703   1.711
61430W        W33855  43.044   1.394   4.859
61431W        W33856  16.141  24.865  12.317
61432W        W33857  30.598   5.226   4.512
61433W        W33858   9.831  19.854  12.443
61434W        W33859  30.511   9.971   0.843
61435W        W33860  21.739  27.169  10.652
61436W        W33861  44.548  32.115  14.333
61437W        W33862  10.156  33.043  14.031
61438W        W33863   8.815  44.048   4.181
61439W        W33864  17.491  13.860   4.123
61440W        W33865  15.417  33.264  12.123
61441W        W33866   4.317  15.353   1.842
61442W        W33867  26.195  36.962   4.716
61443W        W33868   3.232   5.408   1.232
61444W        W33869  22.323  15.194   0.781
61445W        W33870  28.228  16.541  11.485
61446W        W33871  28.760  33.793   3.790
61447W        W33872  18.168  42.928  12.382
61448W        W33873  23.920  41.518   2.625
61449W        W33874  22.465  33.868  12.471
61450W        W33875   8.597   9.108   0.264
61451W        W33876   2.365   2.891   0.876
61452W        W33877   9.949   9.152  14.168
61453W        W33878   7.447  43.496   3.154
61454W        W33879  16.158   0.314   3.615
61455W        W33880  24.092  35.238  10.063
61456W        W33881   3.963   2.859   4.862
61457W        W33882  21.664  39.993   2.834
61458W        W33883   1.762  42.362  12.044
61459W        W33884  10.322  30.049  14.352
61460W        W33885  11.364  44.713   1.619
61461W        W33886  37.588  20.608   4.323
61462W        W33887   7.797   0.110   3.871
61463W        W33888  36.396  39.949  14.399
61464W        W33889  38.411  30.591  12.068
61465W        W33890  30.144  26.966   2.801
61466W        W33891  27.944   2.701   0.157
61467W        W33892  32.160  13.573   2.233
61468W        W33893  28.933   1.562   1.527
61469W        W33894  18.998  39.556  14.931
61470W        W33895  40.815  15.260  11.918
61471W        W33896   3.308  19.602  13.285
61472W        W33897  26.531  14.676   1.170
61473W        W33898  34.327   3.330   2.290
61474W        W33899  36.465  34.826   3.707
61475W        W33900   0.837  34.698   3.644
61476W        W33901  29.641  38.425  12.336
61477W        W33902  29.860   9.214   1.817
61478W        W33903   0.994  31.660   2.244
61479W        W33904   4.507  17.828   2.247
61480W        W33905  27.975  18.705  10.000
61481W        W33906  44.838  10.688  12.434
61482W        W33907  16.830   2.841   1.280
61483W        W33908   4.187  36.232   3.877
61484W        W33909  39.001   0.017   0.360
61485W        W33910  13.141  26.583  12.217
61486W        W33911  30.135  28.566   1.596
61487W        W33912  42.211  29.491   4.875
61488W        W33913  18.990   8.905   2.504
61489W        W33914  43.703  35.980   2.258
61490W        W33915   2.839  44.016  11.816
61491W        W33916  14.758   4.704   0.802
61492W        W33917  14.557  37.412  12.900
61493W        W33918   8.799  12.471  10.845
61494W        W33919  27.397  13.894  10.850
61495W        W33920  43.429  37.594  12.378
61496W        W33921  44.777  33.910  13.869
61497W        W33922  12.027  23.902   5.312
61498W        W33923  31.307  37.245   3.306
61499W        W33924  39.425  34.611   1.589
61500W        W33925  42.333   8.806   2.103
61501W        W33926   1.407  20.820  11.587
61502W        W33927   0.278  24.285   0.433
61503W        W33928  29.544   7.909  10.673
61504W        W33929   8.363  27.995   2.370
61505W        W33930  13.805  16.255   0.372
61506W        W33931  40.005   0.767  12.011
61507W        W33932  37.321  11.151  11.667
61508W        W33933  26.081  30.189  13.478
61509W        W33934  34.937   4.697   4.050
61510W        W33935  23.100  15.260  12.606
61511W        W33936  23.612  44.969  13.394
61512W        W33937  38.862  13.671  13.997
61513W        W33938  43.898  19.319   3.140
61514W        W33939  21.026   1.498   3.889
61515W        W33940  42.373  11.843   2.635
61516W        W33941  40.817  13.315  13.819
61517W        W33942  32.568  32.129  14.498
61518W        W33943  41.468  12.729  14.256
61519W        W33944  33.048  11.611  13.013
61520W        W33945   0.991   5.354   3.726
61521W        W33946  21.131  34.290   4.096
61522W        W33947  11.335  26.263  14.248
61523W        W33948  10.569  39.258   0.241
61524W        W33949  37.559  33.592  13.094
61525W        W33950  11.827  25.863   2.853
61526W        W33951  32.102  40.082  10.694
61527W        W33952  36.843  38.106   3.802
61528W        W33953  32.621   3.890   1.825
61529W        W33954  20.490  44.495  13.297
61530W        W33955  41.453  29.087   1.733
61531W        W33956  19.965  44.886   0.708
61532W        W33957  19.144  14.132   4.953
61533W        W33958  37.164  20.294   1.341
61534W        W33959  30.517  14.375   0.172
61535W        W33960  39.134  24.279   2.079
61536W        W33961  18.187  44.888   4.593
61537W        W33962  28.901   2.349  12.863
61538W        W33963   7.848  33.960   1.978
61539W        W33964   2.357  25.948   0.390
61540W        W33965  15.385   7.336   0.942
61541W        W33966  39.635  21.324   5.021
61542W        W33967   4.190   6.013   4.613
61543W        W33968  41.438  18.199   3.921
61544W        W33969  44.820  44.972  11.463
61545W        W33970  39.383  14.635  14.522
61546W        W33971  44.319   4.417  11.514
61547W        W33972  44.534  33.060  12.025
61548W        W33973  27.443   0.164  11.925
61549W        W33974  29.635  36.883  12.818
61550W        W33975   1.431   8.764   1.731
61551W        W33976  12.759  10.379   0.926
61552W        W33977  34.463   6.210  12.384
61553W        W33978  38.820  16.616  13.121
61554W        W33979  40.049  33.941  12.425
61555W        W33980  31.902  36.033  14.550
61556W        W33981  21.442   2.520  11.823
61557W        W33982  25.639   9.706   4.069
61558W        W33983   2.019  12.086   1.163
61559W        W33984   4.317  34.092  11.505
61560W        W33985  42.925  39.814   3.622
61561W        W33986   3.251  14.635  10.920
61562W        W33987  12.272  11.096  12.464
61563W        W33988  37.366  29.243  10.126
61564W        W33989  25.245  40.891  13.514
61565W        W33990  41.833  22.590  13.055
61566W        W33991   2.171  33.603  13.165
61567W        W33992  12.744  32.073   2.786
61568W        W33993  35.147  42.963   0.442
61569W        W33994  35.315   2.762  11.416
61570W        W33995  40.503  23.971  11.168
61571W        W33996  17.743  21.987  10.680
61572W        W33997  32.908  30.822  14.303
61573W        W33998  37.581  14.506   2.104
61574W        W33999  24.526   0.570   3.152
61575W        W34000  12.027  27.887  11.579
61576W        W34001  19.492  12.772   4.120
61577W        W34002  29.017   6.142  14.753
61578W        W34003  16.580  43.321  11.949
61579W        W34004  44.930  10.933  13.331
61580W        W34005  31.906   5.747  10.630
61581W        W34006  18.559  36.696   2.164
61582W        W34007  22.859  18.553  13.499
61583W        W34008  37.396  23.575   4.641
61584W        W34009  14.244   9.794   1.020
61585W        W34010  19.048  39.638  14.130
61586W        W34011   4.475  29.671  14.024
61587W        W34012  16.640  24.650  14.120
61588W        W34013  23.990  35.188   4.053
61589W        W34014  16.166  36.743   4.921
61590W        W34015  19.568  17.626  13.044
61591W        W34016   0.374  18.263  11.599
61592W        W34017  21.531  11.307   4.723
61593W        W34018   4.880  14.840   2.744
61594W        W34019  42.598  33.386   3.107
61595W        W34020  19.163  26.125  10.838
61596W        W34021  44.870  29.743   2.859
61597W        W34022  18.390  43.761  12.874
61598W        W34023  20.401  35.213   4.089
61599W        W34024  16.219  36.348   4.600
61600W        W34025  18.082  39.525   1.776
61601W        W34026  35.023  12.735   2.663
61602W        W34027  13.826  10.224  10.654
61603W        W34028  21.723   5.273   0.648
61604W        W34029  34.612  30.535   2.617
61605W        W34030  27.536  16.597  13.969
61606W        W34031  44.061  32.418  12.851
61607W        W34032   0.508  20.504   2.359
61608W        W34033  29.379  35.748   0.549
61609W        W34034  43.508  33.056   2.761
61610W        W34035  39.266   8.322  13.907
61611W        W34036  34.387  17.066   4.092
61612W        W34037  15.163  28.020  10.913
61613W        W34038  28.995  10.806   3.348
61614W        W34039  21.129  23.536  13.351
61615W        W34040  34.028  36.595   2.525
61616W        W34041  13.634  21.107  11.098
61617W        W34042  32.658  44.720   1.688
61618W        W34043  19.539  12.256  13.632
61619W        W34044  28.067  19.116  14.677
61620W        W34045  37.433  24.997   2.752
61621W        W34046   7.737  17.538   0.758
61622W        W34047  36.036  42.196  13.369
61623W        W34048  23.517  26.760   4.694
61624W        W34049  32.008  27.192   2.815
61625W        W34050  42.699  41.301  11.964
61626W        W34051  20.072  10.425  13.387
61627W        W34052   9.661  34.481  11.847
61628W        W34053   8.386   4.278   2.868
61629W        W34054  16.116  23.596   3.676
61630W        W34055  20.183  44.314   1.878
61631W        W34056  41.116  15.491  12.947
61632W        W34057   1.188  13.811  14.358
61633W        W34058  23.716  38.477   2.731
61634W        W34059  37.402  33.203   4.258
61635W        W34060  14.397  31.488   1.965
61636W        W34061   3.546  34.186   3.409
61637W        W34062   7.675  12.809  11.236
61638W        W34063  14.865  33.165  10.327
61639W        W34064   9.648  30.085   0.120
61640W        W34065  14.879  34.848   0.908
61641W        W34066  26.516  42.403   4.332
61642W        W34067  22.368  32.553   2.612
61643W        W34068  17.382  13.021  12.475
61644W        W34069  27.642  33.970   3.048
61645W        W34070   9.116  44.276  10.584
61646W        W34071  11.789  21.836  11.435
61647W        W34072   8.278  11.133   1.462
61648W        W34073  27.348   5.561  13.392
61649W        W34074  39.327  22.743   1.472
61650W        W34075   9.170  36.255   3.589
61651W        W34076   1.834  34.413  11.545
61652W        W34077  43.008   7.109  12.930
61653W        W34078  18.306   9.818   0.852
61654W        W34079  30.958  28.908   4.356
61655W        W34080  40.359  30.934   1.198
61656W        W34081  40.564  19.712   1.789
61657W        W34082   5.968  13.846   1.808
61658W        W34083  32.883  12.217  14.298
61659W        W34084   5.345  24.846  11.206
61660W        W34085  19.600   9.092   4.629
61661W        W34086   9.399   8.737   0.344
61662W        W34087  41.527   1.432   4.880
61663W        W34088  30.987  34.394  13.877
61664W        W34089  41.252  16.321   0.315
61665W        W34090  34.763  18.306   1.476
61666W        W34091  38.453  24.073  11.447
61667W        W34092  29.978  24.702  12.616
61668W        W34093  43.112  10.300  11.968
61669W        W34094   0.497  14.191   3.750
61670W        W34095  44.466  23.606   2.381
61671W        W34096  11.183  22.604   4.516
61672W        W34097  21.329  35.539   4.093
61673W        W34098   0.838  32.826  10.605
61674W        W34099  33.421   6.735   2.597
61675W        W34100  41.473  21.146  11.972
61676W        W34101  20.797  41.040   0.270
61677W        W34102  26.056  18.959   1.374
61678W        W34103  13.033  31.640  13.835
61679W        W34104  41.008   8.227  10.751
61680W        W34105   5.929  11.956   1.748
61681W        W34106  12.013   0.017   0.996
61682W        W34107  28.710  33.459  12.045
61683W        W34108  11.130  21.068  12.875
61684W        W34109  20.555  35.797   4.168
61685W        W34110  21.520  18.949   5.137
61686W        W34111   1.323  37.382   2.333
61687W        W34112   2.445   9.239   0.003
61688W        W34113  12.732  28.405  12.598
61689W        W34114   3.707   5.215   1.315
61690W        W34115  35.507  34.552   0.521
61691W        W34116  38.354  42.936  10.413
61692W        W34117  30.938  33.688   0.720
61693W        W34118   4.375   4.010   2.298
61694W        W34119  40.371  26.326  12.421
61695W        W34120  24.532  27.683   2.380
61696W        W34121   9.871  44.505   3.166
61697W        W34122  16.147  21.068  13.792
61698W        W34123  29.595  30.399  10.219
61699W        W34124  13.424  33.451  11.170
61700W        W34125  21.037  27.941   0.923
61701W        W34126   1.831  36.083   1.230
61702W        W34127   6.931  14.169   4.141
61703W        W34128  34.557  44.710   1.857
61704W        W34129  38.089  20.919  13.471
61705W        W34130   0.874   5.265   2.260
61706W        W34131  11.807  40.506  12.893
61707W        W34132  36.290  33.683  12.345
61708W        W34133  33.035  39.671   2.703
61709W        W34134  22.112  19.064   4.583
61710W        W34135  42.508  19.537   0.823
61711W        W34136   5.329  19.248  14.444
61712W        W34137   2.050  35.625  14.885
61713W        W34138   2.254  44.013  13.784
61714W        W34139  10.195  40.099  13.617
61715W        W34140  24.791   4.779   3.772
61716W        W34141   3.913  10.230  14.111
61717W        W34142  43.242  23.087  14.012
61718W        W34143  14.031  12.689  10.749
61719W        W34144  21.518   8.535  13.398
61720W        W34145  44.454  23.658  10.622
61721W        W34146  23.106  26.380  14.937
61722W        W34147  27.451   7.648   1.720
61723W        W34148   5.179   7.226   1.343
61724W        W34149  29.487  41.090  10.848
61725W        W34150  20.655  35.395   1.342
61726W        W34151  24.318  20.797  12.444
61727W        W34152   3.485   0.127   0.086
61728W        W34153  43.786  25.623  10.652
61729W        W34154  37.087  19.677   3.177
61730W        W34155  23.737  41.113   0.314
61731W        W34156  32.941  39.278   0.391
61732W        W34157  29.199  19.733  10.885
61733W        W34158  16.755   6.458  13.091
61734W        W34159  30.760  32.998   3.643
61735W        W34160  19.751  38.499   1.175
61736W        W34161  22.131  27.993   0.003
61737W        W34162  27.171   7.381   4.979
61738W        W34163  31.452   0.361  12.673
61739W        W34164  10.638  17.185  11.627
61740W        W34165  20.495   9.127   1.663
61741W        W34166  27.969  13.662   4.655
61742W        W34167  41.081  35.369   4.649
61743W        W34168  22.949  10.253  13.510
61744W        W34169  24.795  19.146   2.225
61745W        W34170  31.425  38.186   3.688
61746W        W34171   0.139  35.689  13.657
61747W        W34172   3.682  11.113   0.289
61748W        W34173  44.243   9.871  14.870
61749W        W34174  21.590   7.429  13.124
61750W        W34175   2.357  17.652   0.498
61751W        W34176  40.966  27.121  14.289
61752W        W34177  31.473   3.364   1.977
61753W        W34178  36.123  10.326   0.263
61754W        W34179   2.220  13.542  11.894
61755W        W34180   9.660  15.194  11.404
61756W        W34181  21.226  39.023  10.936
61757W        W34182  36.067  24.648   0.312
61758W        W34183  13.362  10.136  13.233
61759W        W34184  40.708  30.416  11.484
61760W        W34185  21.666  33.514   1.569
61761W        W34186  35.485   9.197   3.764
61762W        W34187  18.437  18.558  11.126
61763W        W34188  20.035   1.700  11.496
61764W        W34189  39.551  11.076   3.746
61765W        W34190  43.459  26.207  12.534
61766W        W34191  42.435  16.916  13.863
61767W        W34192  15.239  24.468  12.117
61768W        W34193  13.343  31.568   2.323
61769W        W34194  27.473  37.461  10.541
61770W        W34195  44.145   9.439   2.477
61771W        W34196  19.267  12.181  12.408
61772W        W34197  41.146  28.083  11.999
61773W        W34198  44.823   0.303  11.079
61774W        W34199  15.620  28.676  13.833
61775W        W34200  33.688  12.672   1.873
61776W        W34201  38.348  37.230   0.469
61777W        W34202  28.461  35.065  10.899
61778W        W34203   0.145   0.890  12.836
61779W        W34204  39.865  16.524  11.651
61780W        W34205  37.343  16.352   0.344
61781W        W34206  20.701  29.906   1.915
61782W        W34207  28.263  12.289   4.220
61783W        W34208  35.569  30.300  12.429
61784W        W34209  21.163  34.084   0.001
61785W        W34210   5.784   2.468   1.410
61786W        W34211  28.549  43.223  13.037
61787W        W34212  23.996  29.397   1.688
61788W        W34213   2.277  43.320   0.695
61789W        W34214   3.371  19.726  10.691
61790W        W34215  19.281  43.447  14.091
61791W        W34216   4.414   2.780  12.520
61792W        W34217   5.883  31.336  14.086
61793W        W34218  30.982   2.999   3.893
61794W        W34219  35.128   0.580  11.527
61795W        W34220  23.298   9.864  13.335
61796W        W34221  38.296  44.467   0.913
61797W        W34222  23.474  23.409  12.915
61798W        W34223  14.083  32.686  14.352
61799W        W34224  16.964  26.116  14.678
61800W        W34225  25.733  10.893   2.702
61801W        W34226   9.750   5.877  14.413
61802W        W34227  41.502  14.851   3.298
61803W        W34228  12.694   4.239  10.942
61804W        W34229  17.349  11.858  14.911
61805W        W34230  31.989  42.302  13.415
61806W        W34231  44.963  29.871  11.854
61807W        W34232  34.000  20.104   2.021
61808W        W34233  36.602   9.181   2.237
61809W        W34234  31.347   7.455  11.172
61810W        W34235  43.893  29.725  14.348
61811W        W34236  17.986   1.978  14.986
61812W        W34237   3.442  26.986  10.545
61813W        W34238  38.174  30.683  13.375
61814W        W34239  39.775  28.536  10.364
61815W        W34240   0.560   2.670   1.406
61816W        W34241  15.431  18.810  14.314
61817W        W34242  40.472  43.830  12.130
61818W        W34243  27.242  42.477   2.328
61819W        W34244  32.983  24.503  11.619
61820W        W34245  20.278  12.877  13.541
61821W        W34246  32.972   5.683  14.074
61822W        W34247  44.678  37.402  10.214
61823W        W34248  38.588  40.059  14.914
61824W        W34249  12.216  22.957  11.696
61825W        W34250  43.779  35.710   1.762
61826W        W34251   2.669  42.712   1.499
61827W        W34252  21.054  42.362   4.168
61828W        W34253  10.223  20.561   1.312
61829W        W34254  19.218  12.765  11.555
61830W        W34255  25.996  23.242  12.291
61831W        W34256   3.566  34.928   4.965
61832W        W34257  40.643  41.057  11.093
61833W        W34258  24.467  24.232  13.325
61834W        W34259  30.836  19.786  12.497
61835W        W34260  17.280  41.011  13.996
61836W        W34261   8.243  32.174   4.207
61837W        W34262  18.351  43.886  10.681
61838W        W34263  42.336  42.213   1.374
61839W        W34264  27.725  36.373  14.325
61840W        W34265  28.633  31.305   3.750
61841W        W34266  34.001   4.320  12.767
61842W        W34267  17.347  33.117   3.604
61843W        W34268   3.747  44.130   0.839
61844W        W34269  39.982   8.637  12.633
61845W        W34270  16.508  32.195  14.949
61846W        W34271  12.653  15.818  12.497
61847W        W34272  12.292  21.140   3.530
61848W        W34273  44.839   5.171   3.202
61849W        W34274  22.044   3.469  12.914
61850W        W34275  16.748  19.120  12.063
61851W        W34276  42.885   2.442  11.835
61852W        W34277  24.709  17.487  12.767
61853W        W34278  15.682  17.518   3.835
61854W        W34279  17.075  41.820  14.402
61855W        W34280   1.188  44.548  13.704
61856W        W34281  29.178  11.791  10.899
61857W        W34282  40.622  15.686  14.413
61858W        W34283  11.852  22.790  14.804
61859W        W34284  29.491   1.986   2.398
61860W        W34285  41.390   1.970  11.615
61861W        W34286  29.975  35.942  12.294
61862W        W34287  22.487  29.320  11.525
61863W        W34288  25.229  27.127  10.719
61864W        W34289  12.604  18.971   4.304
61865W        W34290  15.708  39.304  14.801
61866W        W34291  17.709  13.376  12.816
61867W        W34292   5.193  11.033  14.893
61868W        W34293  28.255  31.966   2.695
61869W        W34294  21.109  22.067   1.666
61870W        W34295  13.507  38.997  13.282
61871W        W34296  21.130   1.887   0.817
61872W        W34297  26.379  41.312   3.289
61873W        W34298  11.210  11.411   0.265
61874W        W34299  13.364  32.326  10.150
61875W        W34300   5.666  35.842  12.403
61876W        W34301   2.383  28.676  11.986
61877W        W34302   2.893  21.593  14.250
61878W        W34303  10.583   4.737   1.391
61879W        W34304   1.915  39.605   0.347
61880W        W34305  34.056   5.659   4.669
61881W        W34306   9.258   1.837   5.149
61882W        W34307  10.777   2.674   4.309
61883W        W34308  41.549   5.443   1.035
61884W        W34309  11.122  30.893  13.136
61885W        W34310  41.235  34.568  13.854
61886W        W34311  33.889   3.512  14.289
61887W        W34312  26.117  34.087   4.606
61888W        W34313  12.112  39.232   1.425
61889W        W34314  44.527   0.545   1.799
61890W        W34315   1.925  20.227   3.197
61891W        W34316   6.281   6.278   0.482
61892W        W34317  24.964  30.490  12.423
61893W        W34318  18.063  25.631  14.214
61894W        W34319  23.494  41.904  12.101
61895W        W34320   7.282   2.883  14.582
61896W        W34321  23.660   9.345   2.592
61897W        W34322  23.768  11.880  13.784
61898W        W34323  23.098   2.321   1.351
61899W        W34324  30.796  21.772  13.602
61900W        W34325  42.554  23.922  14.868
61901W        W34326  29.325   1.851   1.323
61902W        W34327  12.292  27.276   1.256
61903W        W34328  11.956  35.951   1.997
61904W        W34329  15.198  32.650   3.222
61905W        W34330   0.514   1.268   4.883
61906W        W34331  21.579  12.677  12.593
61907W        W34332  44.758  21.687   2.274
61908W        W34333   6.458  28.610  14.409
61909W        W34334  31.083  13.719  11.058
61910W        W34335   7.957  29.268  11.078
61911W        W34336  14.781  22.015  13.410
61912W        W34337  38.461  12.371  14.896
61913W        W34338  26.876   8.343   1.255
61914W        W34339  20.349  43.450   4.098
61915W        W34340  20.698   4.401   4.448
61916W        W34341   4.002  20.837  11.058
61917W        W34342  30.568  36.381   0.813
61918W        W34343  35.023  39.139   1.859
61919W        W34344  29.895   7.791   3.291
61920W        W34345  35.960  11.396   3.415
61921W        W34346  42.040  31.688  13.325
61922W        W34347  22.258   3.952  13.021
61923W        W34348  20.302  17.240  11.943
61924W        W34349  18.721  19.331   3.255
61925W        W34350   3.334  42.141   1.951
61926W        W34351  25.202  43.031   1.590
61927W        W34352  35.668  31.932   0.863
61928W        W34353  22.808  29.989  13.430
61929W        W34354   4.293  24.115  10.783
61930W        W34355   4.757  22.105   2.835
61931W        W34356  31.531   9.900  11.072
61932W        W34357  20.974  32.955   0.869
61933W        W34358  36.907   1.485   4.262
61934W        W34359  24.501  40.394  12.491
61935W        W34360  24.192   0.996   2.253
61936W        W34361  28.491  33.466  10.934
61937W        W34362  38.983  35.545  14.022
61938W        W34363  41.289  36.586  13.849
61939W        W34364  13.182  19.065  11.476
61940W        W34365  31.860  22.654   3.062
61941W        W34366  10.837  26.581  14.727
61942W        W34367  32.846  12.723   3.311
61943W        W34368   6.998  11.010  12.331
61944W        W34369   7.298  34.431  13.357
61945W        W34370   3.956   9.148  12.518
61946W        W34371  34.556  27.631  10.611
61947W        W34372  42.368  15.801  13.115
61948W        W34373   7.677  30.004   4.901
61949W        W34374  25.754   5.675  10.919
61950W        W34375   9.729  44.291   4.158
61951W        W34376  12.361  32.173  14.864
61952W        W34377  43.025   1.931   0.411
61953W        W34378  19.329  13.324   4.894
61954W        W34379  17.322   4.543  12.130
61955W        W34380  40.989   4.893   3.425
61956W        W34381  11.284   3.444  12.067
61957W        W34382   6.907  27.537  14.813
61958W        W34383  38.918  16.144   3.358
61959W        W34384  20.077  19.661  14.889
61960W        W34385  29.389  34.670  12.579
61961W        W34386  38.885  32.463  12.124
61962W        W34387  43.262  26.570  13.308
61963W        W34388  37.998   9.756   4.100
61964W        W34389  29.944  43.950  13.851
61965W        W34390  14.335  17.075   0.004
61966W        W34391  17.338  28.002   3.858
61967W        W34392   5.451  12.145   2.846
61968W        W34393   8.132  28.117  14.852
61969W        W34394  29.081  34.580   0.321
61970W        W34395  32.416  13.720  12.881
61971W        W34396  15.534   7.337  10.518
61972W        W34397   2.346  18.563  12.008
61973W        W34398  27.066  12.392  14.457
61974W        W34399  18.160  32.497  14.727
61975W        W34400   5.817  39.890  12.922
61976W        W34401   5.353  12.716  12.683
61977W        W34402  13.827  36.326   4.748
61978W        W34403  12.344  37.946   3.302
61979W        W34404  23.975  22.942  11.201
61980W        W34405  18.761  38.888  13.034
61981W        W34406  31.590  17.767   4.152
61982W        W34407   2.044   6.007  11.085
61983W        W34408  36.999  25.787  10.845
61984W        W34409  22.196   9.866   5.204
61985W        W34410  28.967  17.795   0.470
61986W        W34411  39.287  30.497   0.274
61987W        W34412  10.759  10.189  12.032
61988W        W34413  28.508  35.813   1.419
61989W        W34414  21.747  34.976  10.703
61990W        W34415   0.381   6.845   1.860
61991W        W34416  39.429  38.851   3.626
61992W        W34417   4.725  22.903  12.459
61993W        W34418  36.119  21.229  13.317
61994W        W34419  17.513  37.971   1.427
61995W        W34420  23.509  39.092  11.593
61996W        W34421   2.343  31.987   4.601
61997W        W34422   8.675   0.362  14.771
61998W        W34423  31.048   2.268   0.280
61999W        W34424  18.551  44.249  14.749
62000W        W34425  14.244  17.544   3.193
62001W        W34426  39.478   3.746  12.958
62002W        W34427  22.938   7.019  12.011
62003W        W34428  38.619  42.394   2.761
62004W        W34429  29.969   9.399  11.676
62005W        W34430   7.188  11.510   2.585
62006W        W34431  20.179  22.337   3.159
62007W        W34432  14.754  30.864  13.444
62008W        W34433   7.522  44.006   3.248
62009W        W34434  11.386  11.028   2.578
62010W        W34435   5.740  29.484   1.364
62011W        W34436  13.754   3.246  12.030
62012W        W34437  35.467  23.660   1.899
62013W        W34438  19.448  29.394   2.355
62014W        W34439  31.430   6.282   0.352
62015W        W34440  22.500  35.660   2.699
62016W        W34441   1.779  31.706   3.941
62017W        W34442  19.040  36.792   4.375
62018W        W34443  29.506  26.326  11.054
62019W        W34444  34.361   9.955  14.575
62020W        W34445   0.900  42.249   4.171
62021W        W34446  43.915  40.454   3.939
62022W        W34447   6.855   8.262  13.433
62023W        W34448  43.515  24.980   3.620
62024W        W34449  11.564  26.420   0.391
62025W        W34450  24.881  15.147   0.431
62026W        W34451  42.994  28.203  10.386
62027W        W34452  44.987  30.648  14.400
62028W        W34453  44.832  28.443   0.921
62029W        W34454  41.558  39.551   3.250
62030W        W34455   5.668  26.215   1.302
62031W        W34456  19.740   9.744   1.001
62032W        W34457  44.740  26.628   3.807
62033W        W34458  29.641  29.930  14.224
62034W        W34459  15.117  41.048   3.238
62035W        W34460  40.778  27.252  12.561
62036W        W34461  19.691  17.824   3.415
62037W        W34462  25.626  14.544  13.960
62038W        W34463  33.977   7.018  14.042
62039W        W34464  39.562  38.948  10.631
62040W        W34465  11.878   9.207  11.091
62041W        W34466  44.597   7.343  12.935
62042W        W34467   2.936   0.954  12.463
62043W        W34468  29.673  19.067   0.334
62044W        W34469  37.234  17.023   5.010
62045W        W34470   8.413  13.301  11.371
62046W        W34471  16.072  35.901   3.621
62047W        W34472  28.949  29.713   0.941
62048W        W34473  22.117   5.320   1.868
62049W        W34474   9.315  25.683  11.410
62050W        W34475  32.172   7.931   1.302
62051W        W34476  25.101  28.544   0.981
62052W        W34477  12.949  38.893   5.258
62053W        W34478  19.967  39.827  14.886
62054W        W34479  14.869   6.362   3.695
62055W        W34480  29.381  12.712  12.147
62056W        W34481  21.569  12.993  13.053
62057W        W34482   0.471  23.984   3.315
62058W        W34483  16.783  33.125   3.696
62059W        W34484  13.673   1.526   4.008
62060W        W34485  18.064  19.938   0.637
62061W        W34486  24.016  40.922   1.269
62062W        W34487  30.922  31.969   3.226
62063W        W34488   6.728  31.481   1.811
62064W        W34489  30.439  25.960  14.397
62065W        W34490  31.886  39.927  11.567
62066W        W34491  21.462  39.814   1.431
62067W        W34492  11.849   0.889  14.556
62068W        W34493  18.292   4.459  12.955
62069W        W34494  28.199  30.384   3.370
62070W        W34495  25.614  33.692  11.964
62071W        W34496  19.647  35.838   1.704
62072W        W34497  14.630  29.944   2.645
62073W        W34498  41.026  42.193  14.537
62074W        W34499  18.821   7.094   2.338
62075W        W34500  36.575   1.930  13.336
62076W        W34501   8.113  25.598  13.040
62077W        W34502  35.432  29.883   0.451
62078W        W34503  14.831  21.669  12.081
62079W        W34504  21.633  12.050  11.860
62080W        W34505  33.417  30.679   3.688
62081W        W34506  23.702  19.800   4.759
62082W        W34507  44.838  33.905   4.941
62083W        W34508  37.269   7.134   4.275
62084W        W34509  43.383   8.090  10.440
62085W        W34510   6.759   9.129   3.936
62086W        W34511  15.696   7.331   3.768
62087W        W34512  22.042   0.310   3.335
62088W        W34513  26.531  11.569   3.565
62089W        W34514  29.169  36.286  11.912
62090W        W34515  33.721  10.746   2.737
62091W        W34516  23.641  41.096   4.289
62092W        W34517  42.501  28.066  10.512
62093W        W34518   1.407  15.752   4.136
62094W        W34519  38.820  41.937   9.973
62095W        W34520   5.366   2.160   1.346
62096W        W34521  10.265  39.752   1.694
62097W        W34522  41.082  15.804   1.634
62098W        W34523   2.411  37.030   3.575
62099W        W34524  24.497  23.627  10.402
62100W        W34525  14.625  38.005  14.213
62101W        W34526   7.682  22.317   4.100
62102W        W34527  41.881  30.894  13.026
62103W        W34528  40.948   9.609   2.163
62104W        W34529   6.087  43.033   3.282
62105W        W34530  34.116  28.046  14.393
62106W        W34531   3.778   0.008   0.496
62107W        W34532   9.210  29.682  12.017
62108W        W34533   8.683  43.840  13.960
62109W        W34534  14.084  40.668   1.011
62110W        W34535  40.836  36.990   4.706
62111W        W34536  22.998  40.875  14.812
62112W        W34537  13.422   9.888   2.599
62113W        W34538  12.251  44.421  10.375
62114W        W34539  39.019  41.565  11.430
62115W        W34540  11.679  44.369   2.270
62116W        W34541   5.156  44.905   3.731
62117W        W34542  39.510  29.151  13.349
62118W        W34543   6.053  12.319  12.068
62119W        W34544  17.205  10.899   4.144
62120W        W34545  38.140  12.318   3.770
62121W        W34546  39.785  11.249  12.804
62122W        W34547  36.553   4.741  12.087
62123W        W34548  18.292  35.051   1.467
62124W        W34549   0.783  26.913   1.227
62125W        W34550  14.359  36.403  11.061
62126W        W34551  31.077  25.701   2.226
62127W        W34552   8.110  19.669   4.680
62128W        W34553  36.950  20.646  10.996
62129W        W34554   3.919  42.998   4.868
62130W        W34555  33.834  29.585  13.474
62131W        W34556  21.414   4.340  13.751
62132W        W34557   1.693   7.790   2.591
62133W        W34558   7.987  33.938   3.202
62134W        W34559   2.422  23.923  14.184
62135W        W34560  17.286  33.490  12.516
62136W        W34561  36.854   4.875   3.865
62137W        W34562   5.926  44.426  12.113
62138W        W34563   4.309  22.619   4.470
62139W        W34564  18.152  40.229   0.538
62140W        W34565  28.266  24.535   0.700
62141W        W34566   4.255  29.889   1.805
62142W        W34567  38.910  15.903   0.054
62143W        W34568  16.397  36.025   0.713
62144W        W34569  15.331   3.730  13.072
62145W        W34570  12.532  11.323   3.065
62146W        W34571  44.492   6.155  14.852
62147W        W34572  18.663  40.881  13.055
62148W        W34573  18.355   7.148  12.076
62149W        W34574   1.393   7.906  13.661
62150W        W34575  38.084  29.966  14.019
62151W        W34576  33.065  29.625  13.934
62152W        W34577  43.881   7.182   0.304
62153W        W34578  14.590  20.733  12.998
62154W        W34579  35.518  10.864   2.679
62155W        W34580   9.360   4.337  11.510
62156W        W34581  14.739  32.648   5.271
62157W        W34582  24.471  13.125   0.288
62158W        W34583  15.199   0.520   1.786
62159W        W34584  42.864  44.020  12.942
62160W        W34585   8.338  25.228  13.321
62161W        W34586  24.066  34.485  12.015
62162W        W34587  10.678  13.176  11.195
62163W        W34588  38.503  42.755   2.118
62164W        W34589  34.269  29.701  12.136
62165W        W34590  19.347   0.753  10.757
62166W        W34591  11.298  31.075   2.588
62167W        W34592  29.057  24.996   3.823
62168W        W34593  39.572  35.413  14.812
62169W        W34594  11.261   2.041  11.074
62170W        W34595  31.843  21.695   1.291
62171W        W34596  30.025  21.395   0.426
62172W        W34597  29.821  17.330   1.457
62173W        W34598  34.017  42.020   2.915
62174W        W34599  26.906  30.743  13.576
62175W        W34600  34.720  25.117  11.224
62176W        W34601  29.047  44.018  10.672
62177W        W34602   7.781  26.767   4.173
62178W        W34603   7.168  10.276  14.739
62179W        W34604   0.032  22.100  14.922
62180W        W34605   2.314  20.491   3.413
62181W        W34606  10.112  27.902  11.579
62182W        W34607   3.331   6.810   3.878
62183W        W34608  14.883  31.431   1.701
62184W        W34609  30.839   3.703  10.545
62185W        W34610  40.781  14.921  12.309
62186W        W34611   1.909  15.738   4.904
62187W        W34612  18.858  12.729  10.550
62188W        W34613  16.855  43.928  14.896
62189W        W34614   5.163  17.111  10.724
62190W        W34615   6.546  21.394   4.646
62191W        W34616   3.008  15.685   0.689
62192W        W34617  39.408  20.297  12.876
62193W        W34618  29.903  25.135   0.867
62194W        W34619  24.013   7.233   3.785
62195W        W34620  37.577  25.553  14.267
62196W        W34621  23.992  34.109  13.801
62197W        W34622  32.377   0.374  14.911
62198W        W34623   9.324  36.496  11.496
62199W        W34624  35.908   7.615  12.542
62200W        W34625  12.649   6.176  11.609
62201W        W34626  32.940  11.844  14.958
62202W        W34627   3.497  39.979  11.127
62203W        W34628  28.947  43.579   4.573
62204W        W34629  44.828  11.323   4.915
62205W        W34630  17.598   6.704  14.799
62206W        W34631  32.849  14.419   0.482
62207W        W34632   6.405  37.986   1.695
62208W        W34633  23.192  15.018  13.547
62209W        W34634   3.632  20.624  12.614
62210W        W34635  18.631  20.551  14.025
62211W        W34636   8.797  10.218   2.154
62212W        W34637  31.296  13.448   2.006
62213W        W34638  30.515  21.596  10.787
62214W        W34639  38.889  41.266  10.753
62215W        W34640  42.368  11.640   1.325
62216W        W34641  15.188  40.518  14.962
62217W        W34642   0.930  44.881   4.013
62218W        W34643  25.464  36.146   3.134
62219W        W34644  44.849  19.273   2.163
62220W        W34645  23.600  10.433   3.364
62221W        W34646  10.173  19.266  13.003
62222W        W34647  39.810  41.575   3.566
62223W        W34648   0.611  43.876   4.078
62224W        W34649  42.867  22.270   5.538
62225W        W34650   4.934  10.888   3.086
62226W        W34651  13.327  39.444   3.829
62227W        W34652  41.608   1.658   0.449
62228W        W34653  19.311  37.333  12.445
62229W        W34654  23.529  42.076  12.622
62230W        W34655  29.733  42.378  11.008
62231W        W34656   1.246  28.621  12.582
62232W        W34657  18.786  41.856  12.451
62233W        W34658  30.159  34.468   3.647
62234W        W34659  37.455   7.890   2.547
62235W        W34660  24.494  15.280  10.645
62236W        W34661  23.104  11.138  12.175
62237W        W34662  38.433   1.239  14.302
62238W        W34663  31.516  16.880   2.366
62239W        W34664   6.669  42.931   1.869
62240W        W34665  43.055  20.871   3.223
62241W        W34666  32.988  23.466   4.255
62242W        W34667  33.326  11.137  13.045
62243W        W34668   7.346  28.990  13.881
62244W        W34669  30.012   9.817   0.736
62245W        W34670  14.681  22.762   4.154
62246W        W34671  21.358  25.507  14.271
62247W        W34672  43.537  26.568  12.872
62248W        W34673  19.035  18.372   0.729
62249W        W34674  11.818  32.081  12.232
62250W        W34675  10.109  37.559  13.761
62251W        W34676  16.594  27.439  13.090
62252W        W34677  13.862  13.364   4.080
62253W        W34678  19.860   5.619   1.724
62254W        W34679   7.392   3.730  12.592
62255W        W34680  20.657  28.733   2.267
62256W        W34681  32.940  27.946  13.049
62257W        W34682  44.746  21.716   4.794
62258W        W34683  17.116  25.005  10.306
62259W        W34684  36.591  36.721   3.212
62260W        W34685   7.712   1.185  14.319
62261W        W34686  16.168  11.442   4.427
62262W        W34687   2.534  26.199  13.567
62263W        W34688  20.793  22.615   1.137
62264W        W34689  36.696   7.359   0.829
62265W        W34690  31.266  42.239   3.770
62266W        W34691  16.650  35.397  14.481
62267W        W34692   3.458  16.803   0.816
62268W        W34693  31.510  20.477   2.660
62269W        W34694   8.950   9.267  13.470
62270W        W34695  18.984  19.320  14.003
62271W        W34696  34.473   6.460   4.493
62272W        W34697   3.909  21.644   2.552
62273W        W34698  26.524  24.538  14.404
62274W        W34699   9.407   1.879   3.644
62275W        W34700  15.693   2.215  11.523
62276W        W34701  30.388  23.452   3.219
62277W        W34702  16.191  13.852   3.523
62278W        W34703   2.897   2.186  14.914
62279W        W34704  17.792  21.089  14.852
62280W        W34705  26.180  11.356   3.245
62281W        W34706  35.870   3.323   3.597
62282W        W34707  14.092  29.176   0.315
62283W        W34708  44.943  30.002   1.921
62284W        W34709   7.364  30.178   0.655
62285W        W34710  26.421  16.243   0.136
62286W        W34711  18.861  12.160  14.432
62287W        W34712   1.954  31.063   1.137
62288W        W34713  27.839   3.018   4.572
62289W        W34714   2.556  18.667   1.990
62290W        W34715  24.102  29.391  11.280
62291W        W34716  29.706  15.219  10.794
62292W        W34717  39.382   8.759  12.007
62293W        W34718  40.368   4.837   0.723
62294W        W34719   2.841  33.770   0.707
62295W        W34720  26.241   1.258   0.093
62296W        W34721   9.715  39.570  14.892
62297W        W34722  42.910  21.911   0.321
62298W        W34723  23.611  34.364   3.830
62299W        W34724  12.636  29.094   0.901
62300W        W34725   3.224  29.636  11.572
62301W        W34726   5.257  25.012  12.595
62302W        W34727  28.429  33.398  13.923
62303W        W34728  14.231  34.101  12.088
62304W        W34729  25.951  44.472  12.109
62305W        W34730  35.910   0.778   4.667
62306W        W34731  26.868  34.558   4.631
62307W        W34732  26.399  40.291  13.439
62308W        W34733  42.770  30.590  13.821
62309W        W34734  32.019   4.505   5.119
62310W        W34735  35.975  35.020   3.638
62311W        W34736  38.606  41.414   0.859
62312W        W34737  35.238  15.745   3.321
62313W        W34738  12.323   8.718  12.249
62314W        W34739   0.575  10.492  11.345
62315W        W34740  27.555   9.340  12.535
62316W        W34741  16.513  25.239   2.807
62317W        W34742  23.775  16.825   0.049
62318W        W34743   9.867  21.246   4.260
62319W        W34744  44.079   0.760  11.096
62320W        W34745  19.028  35.423   0.407
62321W        W34746   0.225   1.818   1.131
62322W        W34747   1.005  29.419  11.222
62323W        W34748  42.366  16.022   3.262
62324W        W34749  22.660  22.458  14.854
62325W        W34750   2.404  13.524  14.826
62326W        W34751  32.454  11.423  11.993
62327W        W34752  15.312  38.028   2.756
62328W        W34753  37.307   9.081  13.244
62329W        W34754  29.103  35.964  12.285
62330W        W34755  27.243  40.840   4.130
62331W        W34756   2.292  12.437   4.219
62332W        W34757  38.827  36.999   3.131
62333W        W34758  11.597  13.941  13.633
62334W        W34759  29.183  38.274  14.102
62335W        W34760   9.361  34.518  14.070
62336W        W34761   9.940  12.686   3.626
62337W        W34762  16.817  12.616  13.896
62338W        W34763   6.420  13.277   1.823
62339W        W34764  10.247   8.641  10.601
62340W        W34765  29.088  11.278  12.933
62341W        W34766  16.020  16.992  12.814
62342W        W34767   2.285  20.147  13.318
62343W        W34768   1.768  15.363  14.853
62344W        W34769  18.029  27.496   3.256
62345W        W34770  14.297  21.510  12.941
62346W        W34771  29.765   1.030  13.788
62347W        W34772   9.866  32.229  10.664
62348W        W34773   1.465  42.366  10.978
62349W        W34774   1.194  17.156  11.106
62350W        W34775  23.649  27.287   1.384
62351W        W34776  10.288   4.419   1.650
62352W        W34777  41.971  28.246   0.427
62353W        W34778  15.704  20.216  14.057
62354W        W34779  15.094  35.948  11.866
62355W        W34780  44.005   4.732   3.115
62356W        W34781  17.749   2.520  14.354
62357W        W34782  24.145   1.264   4.245
62358W        W34783  11.040  15.846   0.370
62359W        W34784  24.683   6.827  12.841
62360W        W34785  18.861  42.118  14.821
62361W        W34786  12.593  23.592  12.418
62362W        W34787  26.168  20.272  12.374
62363W        W34788  16.935  14.480  13.509
62364W        W34789  44.474  22.281  10.631
62365W        W34790  21.639  36.112   3.295
62366W        W34791   3.763   7.048   0.511
62367W        W34792  11.287  37.663   2.450
62368W        W34793   2.820   6.601   4.613
62369W        W34794  18.016  43.991   2.012
62370W        W34795  40.322  29.362   1.881
62371W        W34796   6.656  13.649   3.228
62372W        W34797  17.169  27.686   0.627
62373W        W34798  28.628  13.860   3.991
62374W        W34799  18.580  28.797  14.856
62375W        W34800  34.430  38.521  10.710
62376W        W34801  32.487  30.722   3.798
62377W        W34802  43.873  12.420  10.453
62378W        W34803  42.013  18.604   3.355
62379W        W34804  35.645  18.127  10.475
62380W        W34805  16.300   5.835   2.125
62381W        W34806   1.013  11.845   2.632
62382W        W34807  34.069   0.906  12.017
62383W        W34808   6.251  28.702  11.619
62384W        W34809  17.740   4.341  12.359
62385W        W34810  29.990  15.170   4.191
62386W        W34811   1.273  41.394  14.249
62387W        W34812  42.026  34.404  13.499
62388W        W34813   2.426  38.396   3.058
62389W        W34814  18.298   5.848  11.214
62390W        W34815  28.105  24.441  13.811
62391W        W34816  33.859  37.279  11.589
62392W        W34817  20.481  13.965   4.991
62393W        W34818   9.428  38.782   4.944
62394W        W34819  27.615  38.826  12.502
62395W        W34820   1.392  35.272   2.314
62396W        W34821  21.738  26.066   4.724
62397W        W34822  18.920   3.876   3.180
62398W        W34823  40.295  17.642  14.272
62399W        W34824  16.577  19.334  11.634
62400W        W34825  30.509  41.881   5.360
62401W        W34826  10.709  12.331  10.218
62402W        W34827  35.010  39.581   0.824
62403W        W34828  23.408  14.297  10.692
62404W        W34829  34.678  29.069   1.851
62405W        W34830  39.997  38.241  10.711
62406W        W34831  36.569  34.508   0.978
62407W        W34832  39.376  32.623   1.369
62408W        W34833  14.106  20.004  12.531
62409W        W34834  16.552   1.785   3.163
62410W        W34835  33.060   8.112  11.673
62411W        W34836  33.379  15.109  12.459
62412W        W34837  36.556   2.454  11.476
62413W        W34838  23.430   3.256  13.797
62414W        W34839  28.246   9.714   3.555
62415W        W34840  44.403  29.128  14.796
62416W        W34841  34.624  10.805  14.473
62417W        W34842  34.543  29.455  11.046
62418W        W34843  26.704   0.609  11.116
62419W        W34844  37.626  42.762   4.120
62420W        W34845  37.522  17.370  11.143
62421W        W34846   9.134   9.861   3.261
62422W        W34847  11.551   5.752  12.983
62423W        W34848  33.567   8.985   1.697
62424W        W34849  14.201  19.593   1.229
62425W        W34850  39.861  13.400  14.908
62426W        W34851  22.089   5.669   3.191
62427W        W34852   5.591   4.329  11.073
62428W        W34853   2.499  25.204  10.954
62429W        W34854  14.757  10.121  12.254
62430W        W34855  28.581  23.912  13.431
62431W        W34856  19.472  30.539  10.934
62432W        W34857   0.487  15.860   3.314
62433W        W34858  16.726   4.555   4.225
62434W        W34859  26.116   9.670  13.546
62435W        W34860   4.621   6.138   1.718
62436W        W34861  15.196  21.801  14.450
62437W        W34862  42.647  44.426  12.712
62438W        W34863  19.498  17.063  13.011
62439W        W34864   9.747  15.802   2.358
62440W        W34865   8.591  42.490   3.175
62441W        W34866  32.413   2.234  13.444
62442W        W34867  28.167   6.807  10.862
62443W        W34868  10.872   1.727   0.879
62444W        W34869  31.752  23.922   3.543
62445W        W34870  29.033  44.151  14.886
62446W        W34871  10.015  25.537  14.378
62447W        W34872   3.915  21.242   0.719
62448W        W34873  34.497  21.160   3.793
62449W        W34874  27.984  14.732   1.204
62450W        W34875  41.221  14.121   4.217
62451W        W34876  15.594   9.957   5.056
62452W        W34877  33.442  15.021   4.498
62453W        W34878  31.475  10.590   4.185
62454W        W34879  35.134   2.595  12.353
62455W        W34880  13.464  19.216   2.337
62456W        W34881  11.289   1.773   3.120
62457W        W34882  24.011  13.397  13.094
62458W        W34883  41.924  35.912  13.476
62459W        W34884  20.646  37.380  10.702
62460W        W34885  38.022  32.797  11.281
62461W        W34886  42.462  12.401  12.434
62462W        W34887  15.018  23.133   3.228
62463W        W34888  11.607  29.455   4.141
62464W        W34889   2.598  30.614  12.903
62465W        W34890  24.453  22.208  13.370
62466W        W34891  19.192  39.057  10.668
62467W        W34892  39.893   6.414  14.703
62468W        W34893  16.034  10.429   2.238
62469W        W34894  29.390  19.152   1.699
62470W        W34895  17.621  22.210   4.747
62471W        W34896  34.479  12.814   0.292
62472W        W34897  14.279   9.268   3.260
62473W        W34898  35.880  20.224  10.867
62474W        W34899  14.179  43.820  14.768
62475W        W34900  34.516   7.032   0.803
62476W        W34901  37.180  10.713  12.401
62477W        W34902  23.360  11.983  12.503
62478W        W34903  23.910  36.070   4.605
62479W        W34904  15.612  31.923  13.442
62480W        W34905  36.425   3.642   4.243
62481W        W34906  42.359  36.410  11.121
62482W        W34907   3.790   9.365   0.204
62483W        W34908  24.863  32.249   1.395
62484W        W34909  35.388  27.579  11.849
62485W        W34910  42.833  35.299   3.233
62486W        W34911  24.467  15.176   1.992
62487W        W34912  11.318  20.712   3.068
62488W        W34913  43.921   4.710   4.332
62489W        W34914  30.115   7.162  10.740
62490W        W34915  28.759  26.164   4.991
62491W        W34916  42.805  25.594  14.243
62492W        W34917   6.608  43.746  12.109
62493W        W34918   0.393  11.607   1.198
62494W        W34919  13.150   5.851   2.662
62495W        W34920   1.286  10.411  11.866
62496W        W34921   9.376  25.316  13.988
62497W        W34922   8.526  38.446  11.494
62498W        W34923  22.772  34.167  14.772
62499W        W34924  27.158  29.341  14.789
62500W        W34925  42.447  15.662  13.614
62501W        W34926  27.698   4.275  13.846
62502W        W34927  25.638  23.719   2.617
62503W        W34928  38.512   9.842  14.757
62504W        W34929  38.799  18.517  12.589
62505W        W34930   4.256  13.323  14.965
62506W        W34931  32.161  20.715  10.614
62507W        W34932   7.332  29.957   1.726
62508W        W34933  13.670  32.480  11.032
62509W        W34934   8.299   5.395   4.057
62510W        W34935  39.470  10.122  12.598
62511W        W34936   2.475  14.326   3.253
62512W        W34937  18.991   0.630  12.975
62513W        W34938   1.721   2.966  13.556
62514W        W34939  29.561  43.563   3.185
62515W        W34940   5.528   6.061  14.533
62516W        W34941  24.040  26.269  11.639
62517W        W34942   3.433  14.077   0.577
62518W        W34943  12.791   3.435   1.821
62519W        W34944   7.446  42.915  10.699
62520W        W34945  39.895  40.313   4.053
62521W        W34946  40.846   0.490   0.539
62522W        W34947  19.732   7.847  13.944
62523W        W34948   0.959  43.010  12.167
62524W        W34949  31.653  23.237   5.162
62525W        W34950   9.320   7.691   4.535
62526W        W34951  37.850  34.028  10.618
62527W        W34952  21.674   6.985   3.159
62528W        W34953  43.998  23.975  12.053
62529W        W34954  33.905  10.172  14.720
62530W        W34955  16.210  20.441   0.226
62531W        W34956  32.967  24.885  12.992
62532W        W34957   6.845   7.800  14.028
62533W        W34958  25.629  34.711  14.325
62534W        W34959  40.653  21.558   1.308
62535W        W34960  16.157  22.962  14.511
62536W        W34961   8.577   9.210  11.040
62537W        W34962   3.473  22.570  11.873
62538W        W34963  10.285  41.253   0.973
62539W        W34964   7.814  13.185   2.927
62540W        W34965  38.313  17.717  12.118
62541W        W34966  10.632   1.497   2.869
62542W        W34967  38.595  15.199  13.975
62543W        W34968   2.848   1.769   1.129
62544W        W34969  16.195   5.234  14.218
62545W        W34970   8.781  22.724   1.348
62546W        W34971  15.979  32.238  14.912
62547W        W34972  19.011  29.654  13.466
62548W        W34973   2.210   2.518   4.150
62549W        W34974   6.930  30.628   4.085
62550W        W34975  23.087  12.280   0.914
62551W        W34976  32.181  44.518   1.588
62552W        W34977   7.147   5.453   0.891
62553W        W34978  21.728   0.014   3.047
62554W        W34979  29.712   7.713   0.198
62555W        W34980  24.300   4.809   3.599
62556W        W34981  25.130   2.714  10.671
62557W        W34982  23.862   7.074  11.887
62558W        W34983   7.375  24.802  12.431
62559W        W34984   0.791   9.175   0.858
62560W        W34985  33.499   0.194  10.738
62561W        W34986  33.804  28.911   3.698
62562W        W34987   3.865  34.875  12.550
62563W        W34988  14.366  21.694  11.387
62564W        W34989  42.546  21.176   1.968
62565W        W34990  30.516  22.406   4.228
62566W        W34991  21.703  17.335   0.813
62567W        W34992  28.009   4.888   1.899
62568W        W34993  41.611   6.261  13.963
62569W        W34994  13.375  35.335   0.247
62570W        W34995  37.546   7.160  12.037
62571W        W34996  10.715  41.531   0.839
62572W        W34997  21.524  14.288   0.278
62573W        W34998  44.361  15.555  12.961
62574W        W34999  29.359  18.906  14.951
62575W        W35000  11.529  16.652   4.909
62576W        W35001   5.206  22.315  10.876
62577W        W35002   3.249   6.643   4.970
62578W        W35003  35.335   8.639  12.023
62579W        W35004  43.334  16.249   3.656
62580W        W35005   8.769  17.686   3.523
62581W        W35006   3.281  10.875  14.739
62582W        W35007  14.285  13.124  10.664
62583W        W35008  37.516  29.191  14.970
62584W        W35009  33.771  13.412   0.457
62585W        W35010   9.549   2.355   2.621
62586W        W35011  40.397  34.392   1.848
62587W        W35012  42.802  31.310  12.101
62588W        W35013   1.949  20.764  10.691
62589W        W35014  11.237  10.601   4.031
62590W        W35015  31.193  38.842  11.564
62591W        W35016  22.039  25.708  12.647
62592W        W35017  13.022  37.955  12.312
62593W        W35018  30.373  32.003   3.178
62594W        W35019   3.005  31.317  11.106
62595W        W35020  39.316  25.593   1.302
62596W        W35021  30.571  22.014  14.641
62597W        W35022  39.881  23.752   3.845
62598W        W35023  23.530  30.223  12.216
62599W        W35024  30.479  37.114  14.251
62600W        W35025  14.553  43.926   2.126
62601W        W35026  23.234   9.745   0.358
62602W        W35027  25.568  42.229   4.271
62603W        W35028  29.514  15.869   2.410
62604W        W35029  22.531   9.483   5.092
62605W        W35030  35.809  26.074   1.781
62606W        W35031   4.411   7.983  10.654
62607W        W35032  12.209  43.945   2.860
62608W        W35033  31.055  18.308  10.418
62609W        W35034  10.140  25.517   1.403
62610W        W35035  22.405  18.784   0.468
62611W        W35036  22.816  43.611  14.461
62612W        W35037  31.966  10.449   4.348
62613W        W35038  37.916   7.990  14.487
62614W        W35039  31.726  26.719  13.416
62615W        W35040  25.165  40.418   4.094
62616W        W35041  15.832  37.562  12.561
62617W        W35042  40.530   3.921  13.060
62618W        W35043  18.595  40.508  12.118
62619W        W35044   2.677   2.524   1.052
62620W        W35045  42.334  28.298   2.586
62621W        W35046  11.346  25.586   2.049
62622W        W35047  16.050  41.837  14.373
62623W        W35048   5.974  13.208  12.497
62624W        W35049  15.150  17.628  11.018
62625W        W35050   3.213   6.375  14.011
62626W        W35051   4.385  32.535  12.380
62627W        W35052   8.618  24.992  11.728
62628W        W35053  38.049   1.462  12.510
62629W        W35054  36.487  15.734   4.619
62630W        W35055  26.933  17.194  14.982
62631W        W35056   4.388  22.619  10.701
62632W        W35057  40.008  40.495  13.268
62633W        W35058  42.879   5.257  14.894
62634W        W35059  34.364  30.578  14.818
62635W        W35060   8.600  36.526   2.357
62636W        W35061  25.185  28.944  12.432
62637W        W35062  28.878  18.300   2.749
62638W        W35063  20.113   4.188   2.143
62639W        W35064   1.264  30.107  12.871
62640W        W35065  16.048   1.498   1.017
62641W        W35066   7.485  18.549   2.653
62642W        W35067  31.371  23.075  12.512
62643W        W35068   4.057   1.486  13.761
62644W        W35069  29.087  21.042   4.786
62645W        W35070   0.926   5.927   3.590
62646W        W35071  18.269   9.841  10.834
62647W        W35072  41.901  29.989   4.228
62648W        W35073  43.281  43.471   4.391
62649W        W35074   5.506  43.510   0.797
62650W        W35075  24.434   5.888  14.802
62651W        W35076   6.187  31.089   1.882
62652W        W35077  36.850  14.796   3.365
62653W        W35078  21.006  23.787  12.406
62654W        W35079  38.387  21.556  10.900
62655W        W35080   7.743  16.758   2.611
62656W        W35081   7.892  27.741   2.460
62657W        W35082   6.176  42.710   0.904
62658W        W35083   6.733  10.203   2.413
62659W        W35084  43.099  37.297   4.499
62660W        W35085  32.097  17.384  13.675
62661W        W35086  27.230   2.800   3.695
62662W        W35087  21.676  39.465   0.220
62663W        W35088  14.134  42.891   1.176
62664W        W35089  25.529  24.653   1.715
62665W        W35090  41.238  32.401  11.154
62666W        W35091  16.373  23.495   2.282
62667W        W35092  35.554  24.766  11.225
62668W        W35093  13.678  39.130  11.589
62669W        W35094  33.428  28.751  12.105
62670W        W35095   3.862  40.244  13.410
62671W        W35096  15.027   7.009   3.340
62672W        W35097  33.271  22.296  13.483
62673W        W35098  37.918  31.670  13.357
62674W        W35099  34.264   6.883   0.372
62675W        W35100  26.054  22.040  12.532
62676W        W35101  39.108  37.195   2.600
62677W        W35102  33.955  43.449  11.984
62678W        W35103  21.783   2.232   2.408
62679W        W35104   4.995  30.015   5.000
62680W        W35105  14.658  11.890   0.290
62681W        W35106   5.992  42.296   4.666
62682W        W35107  32.566   8.193  14.926
62683W        W35108  18.308  10.676  10.954
62684W        W35109  25.141   5.495  12.916
62685W        W35110  37.486  17.908  12.961
62686W        W35111  44.498  27.120  10.985
62687W        W35112  29.613  43.000   4.084
62688W        W35113   4.701  12.833   2.253
62689W        W35114  27.021  20.676  10.840
62690W        W35115   5.214   1.825  13.069
62691W        W35116   2.979  32.105  12.524
62692W        W35117  12.919  41.494   5.233
62693W        W35118  17.092   6.177   2.764
62694W        W35119  33.753  39.904   0.720
62695W        W35120  37.575  44.349  10.677
62696W        W35121  30.573  34.444  10.559
62697W        W35122  11.701   4.877  13.183
62698W        W35123  39.968   0.245   0.939
62699W        W35124  24.775   8.578   1.941
62700W        W35125  17.735   2.434  14.864
62701W        W35126  38.943  24.867   3.630
62702W        W35127   2.445  14.276   1.419
62703W        W35128   9.666   6.931   2.372
62704W        W35129  31.150  20.039  13.985
62705W        W35130  43.164  14.627   0.841
62706W        W35131  39.915  19.717   3.642
62707W        W35132  20.088  22.935  10.742
62708W        W35133   8.197  32.156  14.856
62709W        W35134  32.541   7.276   4.814
62710W        W35135  28.616  34.798   0.713
62711W        W35136  31.686  39.415  13.356
62712W        W35137  28.389  43.539  13.418
62713W        W35138  44.725  32.302  12.449
62714W        W35139  26.311  39.217   2.798
62715W        W35140  14.032  22.242  14.819
62716W        W35141   2.215  44.301  14.209
62717W        W35142  20.872  39.443  13.984
62718W        W35143   0.743  40.456  12.727
62719W        W35144  18.827  44.197  13.954
62720W        W35145  39.343   9.802  10.600
62721W        W35146  31.019  32.632   4.586
62722W        W35147  13.401  38.487   0.696
62723W        W35148  22.231  14.215   4.337
62724W        W35149  20.202   4.278   4.631
62725W        W35150  42.015   9.772   3.114
62726W        W35151  38.779  27.435  11.774
62727W        W35152  40.929  12.716   0.004
62728W        W35153   7.158  40.919  13.258
62729W        W35154  33.917  40.145  12.028
62730W        W35155  14.303  19.103   0.832
62731W        W35156  19.134  38.088  11.929
62732W        W35157   9.877   2.464  11.123
62733W        W35158  29.827  10.976  13.835
62734W        W35159  41.388  20.215   4.575
62735W        W35160  13.623  37.120  13.878
62736W        W35161  29.905  42.846   3.673
62737W        W35162  29.083  21.175   0.283
62738W        W35163   9.325  41.491   4.952
62739W        W35164  43.487  21.937   0.326
62740W        W35165  14.955   7.959  11.124
62741W        W35166  17.192   1.561   2.910
62742W        W35167  11.811  15.782  14.983
62743W        W35168  10.626  14.793  11.560
62744W        W35169  13.119  17.029   2.650
62745W        W35170  26.163  33.016  13.456
62746W        W35171  17.616   8.439  13.420
62747W        W35172   0.815   1.884  10.798
62748W        W35173  15.335  13.072  11.898
62749W        W35174  29.176  30.093  13.426
62750W        W35175  37.962  33.097   3.480
62751W        W35176  11.750  11.991   2.771
62752W        W35177  28.170   4.766  14.579
62753W        W35178  26.370  17.000  11.629
62754W        W35179  14.682  11.989   2.006
62755W        W35180  12.645  11.289  10.674
62756W        W35181  41.743   7.864  13.381
62757W        W35182  34.055  31.480  13.274
62758W        W35183  25.836  39.644   1.319
62759W        W35184   8.783  24.555  11.479
62760W        W35185   4.409   3.916  14.008
62761W        W35186   1.853  13.864  13.915
62762W        W35187  35.385  32.031  14.542
62763W        W35188  36.467  26.509  13.021
62764W        W35189  29.307   0.116   0.358
62765W        W35190   6.315  39.216  11.050
62766W        W35191  29.743  35.573   5.253
62767W        W35192   8.915  30.420  11.034
62768W        W35193  29.128  26.100  12.017
62769W        W35194  10.258  24.990   0.292
62770W        W35195  28.382  29.031  12.920
62771W        W35196  19.602  29.465   4.174
62772W        W35197   9.846  10.296   2.237
62773W        W35198   6.333  32.309  12.127
62774W        W35199  10.629  44.981   4.217
62775W        W35200  28.984  34.863   3.594
62776W        W35201  35.777  22.984  12.159
62777W        W35202  18.439  27.641  10.688
62778W        W35203  27.112   2.766  11.661
62779W        W35204  37.801  27.099  12.674
62780W        W35205  33.158  12.171   1.228
62781W        W35206   1.463  33.336  11.898
62782W        W35207  44.049  35.405   2.942
62783W        W35208  38.190  19.547   2.398
62784W        W35209   0.731  24.389   3.159
62785W        W35210  34.133  30.608  13.622
62786W        W35211  14.990  13.252   1.237
62787W        W35212   2.289  30.914  12.590
62788W        W35213  35.032  28.678  11.150
62789W        W35214  10.880  37.901   3.280
62790W        W35215  41.788   3.908   1.202
62791W        W35216  18.278  13.915  12.123
62792W        W35217  20.545  37.168  12.038
62793W        W35218  41.341  16.158  11.132
62794W        W35219  16.323  18.704   2.157
62795W        W35220   9.320  34.310  10.994
62796W        W35221  23.710  21.743   4.444
62797W        W35222  27.136  35.003  14.433
62798W        W35223  15.806   6.407  12.907
62799W        W35224   1.859   1.650   2.404
62800W        W35225  27.065  24.424   2.044
62801W        W35226  37.070  15.189  13.926
62802W        W35227  28.199  36.672  14.335
62803W        W35228  27.894  20.642  13.648
62804W        W35229  30.959   4.297   3.151
62805W        W35230  17.992  41.795   0.189
62806W        W35231  33.511  43.655  10.668
62807W        W35232  17.839  39.578  14.114
62808W        W35233  30.274  13.073  11.696
62809W        W35234   3.768  14.617   0.372
62810W        W35235  13.060  29.124  13.480
62811W        W35236  10.930  38.128   0.957
62812W        W35237  16.827  11.743  11.362
62813W        W35238  33.941  41.953   0.816
62814W        W35239  38.055  21.192   3.833
62815W        W35240  32.714  17.014   3.438
62816W        W35241  13.048  26.507   3.003
62817W        W35242  20.511   9.254   2.150
62818W        W35243  10.552  32.045   3.587
62819W        W35244  28.976  14.268   0.354
62820W        W35245  14.720  23.768  13.789
62821W        W35246   7.367  11.350   4.111
62822W        W35247  24.228  20.800   2.348
62823W        W35248  21.085   4.885  10.181
62824W        W35249   9.113   5.847  13.027
62825W        W35250  22.236  19.059   4.072
62826W        W35251  12.040  37.488  12.042
62827W        W35252   4.352  15.680  11.861
62828W        W35253  20.565   1.268   4.139
62829W        W35254  26.663  26.181  12.533
62830W        W35255  18.188  41.019   0.818
62831W        W35256  34.024  35.635  12.085
62832W        W35257  43.284  37.194  13.885
62833W        W35258  34.444  41.368   0.742
62834W        W35259   1.399  23.221  11.164
62835W        W35260  31.043  41.598  12.595
62836W        W35261  21.710  33.053  11.490
62837W        W35262  33.587  16.788   0.055
62838W        W35263   1.930  22.482  13.315
62839W        W35264  23.210   3.149   4.816
62840W        W35265   4.406  31.939   0.299
62841W        W35266  31.287  22.553  13.844
62842W        W35267   2.340  44.780   1.180
62843W        W35268   1.337  43.891   1.369
62844W        W35269  30.878   7.617  13.134
62845W        W35270  29.547  23.639  13.920
62846W        W35271  43.833  41.817  14.237
62847W        W35272   8.135   2.383   1.328
62848W        W35273  30.593  27.931   0.835
62849W        W35274  43.882   6.755   3.612
62850W        W35275   3.368  14.682   3.157
62851W        W35276   1.486  28.036   3.263
62852W        W35277  25.955  26.760  12.902
62853W        W35278  23.512  28.124   0.282
62854W        W35279   4.207  35.559   2.264
62855W        W35280   0.288   2.840   0.810
62856W        W35281   4.457   6.287   3.668
62857W        W35282  17.535  19.956  12.095
62858W        W35283  32.202   7.778  10.375
62859W        W35284  25.014  27.531  12.601
62860W        W35285  30.161  13.574  14.780
62861W        W35286  16.543  35.919  14.337
62862W        W35287  38.292  20.804   2.516
62863W        W35288   6.659  23.724  12.496
62864W        W35289  17.807  30.623   4.424
62865W        W35290  20.084  15.277  13.275
62866W        W35291  37.176  34.543   0.544
62867W        W35292  28.973  40.196  12.823
62868W        W35293  24.149  26.279   4.893
62869W        W35294  37.342  31.643  12.967
62870W        W35295  18.301  13.090  10.708
62871W        W35296  20.453  39.861  11.184
62872W        W35297  40.115  21.964  14.311
62873W        W35298  23.506  38.486  13.739
62874W        W35299  26.058  20.751   4.753
62875W        W35300  12.770  15.241   1.304
62876W        W35301  21.810  12.931   0.945
62877W        W35302  22.226  25.181   0.815
62878W        W35303   9.595  18.090  12.526
62879W        W35304  34.542  12.343   1.294
62880W        W35305  44.938  17.052   4.957
62881W        W35306  32.922  19.580   0.191
62882W        W35307  41.551  34.527   1.235
62883W        W35308  35.560   3.526  12.383
62884W        W35309  11.333  41.387  10.692
62885W        W35310  17.809  19.076  13.444
62886W        W35311  37.533  15.043   1.249
62887W        W35312   5.349  21.671   1.201
62888W        W35313  23.416   4.813  10.980
62889W        W35314  38.488  44.124  12.572
62890W        W35315   7.997  10.851  13.844
62891W        W35316  16.041  35.616   1.726
62892W        W35317  15.346   0.819  11.257
62893W        W35318  39.742  16.841  14.375
62894W        W35319   1.864  32.107   2.811
62895W        W35320  27.880   9.783   3.125
62896W        W35321   7.913  29.417   3.292
62897W        W35322  21.096  38.512   1.649
62898W        W35323  12.665  19.238  11.582
62899W        W35324  17.075  42.084   0.325
62900W        W35325   9.612  32.942   0.028
62901W        W35326   0.191  33.323  14.497
62902W        W35327  31.881  31.564  11.019
62903W        W35328  13.706  44.415  13.633
62904W        W35329  13.570   5.719  12.096
62905W        W35330  14.703  17.831  10.832
62906W        W35331  13.742  23.107   0.949
62907W        W35332   6.368   1.616   0.043
62908W        W35333   8.082  42.620   3.091
62909W        W35334   1.374   2.876  12.180
62910W        W35335   1.319  16.637   3.733
62911W        W35336  25.679  11.543  10.627
62912W        W35337  18.358  22.647  12.536
62913W        W35338  44.483  12.252   2.456
62914W        W35339  42.032  18.722   1.890
62915W        W35340  36.470   6.722   1.836
62916W        W35341   7.776  31.150   0.785
62917W        W35342  29.423  35.577  13.828
62918W        W35343  23.490   6.745  11.991
62919W        W35344  38.311  30.066   3.160
62920W        W35345  11.286  35.359  13.574
62921W        W35346   7.534  24.794  12.954
62922W        W35347  17.571  10.699  11.862
62923W        W35348  36.870  11.575  14.447
62924W        W35349   2.452   3.902  14.379
62925W        W35350  38.370  13.615  11.212
62926W        W35351  12.824  22.794  13.495
62927W        W35352  17.069  31.937  11.275
62928W        W35353  17.313  16.224   2.251
62929W        W35354  36.042  37.897  14.091
62930W        W35355  43.997  18.793   3.190
62931W        W35356  28.125  22.033  11.287
62932W        W35357   8.469  13.813  11.250
62933W        W35358   9.625  26.794  13.089
62934W        W35359   5.968  22.764  14.400
62935W        W35360  40.995  41.029  12.130
62936W        W35361   3.157  19.569   3.781
62937W        W35362   4.005  26.013   1.720
62938W        W35363  31.374  22.684   4.318
62939W        W35364  32.393  31.710  11.008
62940W        W35365  10.758  14.240   1.631
62941W        W35366   3.863  30.896  14.824
62942W        W35367  35.674  39.913   0.057
62943W        W35368  31.514   3.688   3.285
62944W        W35369  27.544   9.836  12.397
62945W        W35370  39.802  16.184   0.241
62946W        W35371   8.347   9.777   4.302
62947W        W35372  36.459  44.938   1.665
62948W        W35373  18.597  41.865   3.648
62949W        W35374   2.987  37.724   3.835
62950W        W35375  36.600  36.941  12.008
62951W        W35376   9.697   1.987  13.477
62952W        W35377  35.493  13.593  12.950
62953W        W35378  37.629  23.061   0.891
62954W        W35379  27.656  28.069  11.167
62955W        W35380  16.065  14.724   2.318
62956W        W35381  21.674  32.598  14.210
62957W        W35382  25.754   4.331  14.006
62958W        W35383  44.967  22.481  13.598
62959W        W35384  23.281  32.963   2.946
62960W        W35385  15.177  20.603   1.394
62961W        W35386  20.486  11.852   9.833
62962W        W35387  28.575   8.993  13.254
62963W        W35388  31.299  24.135  12.035
62964W        W35389  35.490  13.151   3.314
62965W        W35390  43.027  27.047  13.561
62966W        W35391  13.682  37.448  14.306
62967W        W35392  15.467   1.370  14.907
62968W        W35393   6.282  39.325  11.926
62969W        W35394  22.203  42.187   0.431
62970W        W35395  39.050  43.475   9.972
62971W        W35396  35.942   7.073  12.568
62972W        W35397  35.276  37.982   4.547
62973W        W35398  42.019   7.342   3.579
62974W        W35399  39.477   3.809  12.052
62975W        W35400  36.119  24.140  12.109
62976W        W35401  34.905   6.315  12.789
62977W        W35402  10.593  32.230   0.224
62978W        W35403   8.531  11.444   1.039
62979W        W35404  11.804  24.757  11.241
62980W        W35405   7.343   1.879   1.208
62981W        W35406  20.498  25.632   2.287
62982W        W35407  28.425  19.021  10.668
62983W        W35408  14.462  33.138  11.175
62984W        W35409  31.047  26.910   3.675
62985W        W35410  43.723  16.652   4.748
62986W        W35411   3.813  40.055  14.886
62987W        W35412  14.686  24.706  13.831
62988W        W35413   4.239  39.803   0.028
62989W        W35414   5.867  44.674  10.971
62990W        W35415   6.152   2.488  11.968
62991W        W35416  35.545   9.329   1.888
62992W        W35417  15.718  22.440   1.143
62993W        W35418   3.840  43.406   3.188
62994W        W35419  22.642  25.105   1.354
62995W        W35420  34.964  29.422   2.208
62996W        W35421  37.503  32.038  13.412
62997W        W35422  15.560   9.408   4.180
62998W        W35423  28.803  23.584  14.449
62999W        W35424  17.729  23.247   0.674
63000W        W35425  11.787  29.080   2.206
63001W        W35426  44.369  24.467  12.426
63002W        W35427   5.030  20.701  14.637
63003W        W35428  11.609   8.387   1.656
63004W        W35429  11.061  12.428  10.617
63005W        W35430  15.999  31.497   3.315
63006W        W35431  11.847  26.140  12.973
63007W        W35432   1.366  43.301   0.161
63008W        W35433  39.072  12.286  10.428
63009W        W35434  33.789  23.678   4.038
63010W        W35435  36.020   2.019  12.500
63011W        W35436   7.382  14.407  14.365
63012W        W35437  18.513  33.090  13.028
63013W        W35438  39.240   2.352   3.692
63014W        W35439  40.074  32.002  10.867
63015W        W35440  16.828   3.251  13.951
63016W        W35441  31.209  23.916   3.671
63017W        W35442  44.284   7.492   0.410
63018W        W35443  35.964  42.514   3.196
63019W        W35444  19.753   8.868   0.933
63020W        W35445  17.192  26.192   0.217
63021W        W35446  18.594  22.317   3.227
63022W        W35447  25.672   8.748  13.808
63023W        W35448  20.712  15.384   3.627
63024W        W35449  12.194  10.726   3.021
63025W        W35450  40.852  33.673   2.155
63026W        W35451   5.931  23.053   3.067
63027W        W35452  21.255  36.452  12.902
63028W        W35453  12.490  35.459  12.652
63029W        W35454  27.480  27.584  10.376
63030W        W35455  18.015  36.819   1.405
63031W        W35456  22.522  41.837  14.853
63032W        W35457  37.838  24.047  12.801
63033W        W35458  43.846  30.912   2.072
63034W        W35459  18.589   7.377  14.777
63035W        W35460  28.817   9.194   2.798
63036W        W35461  21.722   6.162   4.608
63037W        W35462  43.715  28.757  13.624
63038W        W35463   1.431  13.104  14.871
63039W        W35464  31.848  36.130   1.405
63040W        W35465  22.231   0.909   0.741
63041W        W35466  36.685  18.253   1.611
63042W        W35467  19.836  35.516   3.662
63043W        W35468  34.912  15.244  14.752
63044W        W35469   9.210  33.692   2.107
63045W        W35470  27.214  15.488   2.714
63046W        W35471  32.522  24.766   4.714
63047W        W35472  29.937  31.962  12.808
63048W        W35473  21.078   8.498  12.536
63049W        W35474  38.740  29.096   2.145
63050W        W35475  32.701  33.047   3.102
63051W        W35476  28.544  31.864   3.982
63052W        W35477  23.991  40.689   4.204
63053W        W35478  36.093   9.274  11.210
63054W        W35479  30.500   0.988   4.010
63055W        W35480  34.187   1.748   2.691
63056W        W35481  41.110  15.702  10.984
63057W        W35482  36.389   7.648   5.092
63058W        W35483   0.703   3.162   4.526
63059W        W35484  31.987  14.304  14.527
63060W        W35485  29.060  34.163   1.380
63061W        W35486  30.962  29.678   3.752
63062W        W35487  28.179  43.586   3.322
63063W        W35488   5.383  11.597  14.552
63064W        W35489  28.056  14.147   4.445
63065W        W35490  24.964   9.135   4.805
63066W        W35491   6.708  30.196  12.086
63067W        W35492  42.765  21.658  11.407
63068W        W35493   9.874  17.608  12.458
63069W        W35494  11.556   5.681  14.945
63070W        W35495  30.069  19.307   4.733
63071W        W35496  20.505  29.556  12.520
63072W        W35497  31.252  21.025   1.504
63073W        W35498  38.389  43.234   2.295
63074W        W35499   0.437   0.805  14.268
63075W        W35500  43.117   3.287   0.308
63076W        W35501  44.164   8.649  12.923
63077W        W35502  35.395   5.405  11.174
63078W        W35503  31.406  23.510  11.443
63079W        W35504  22.574  16.732  12.049
63080W        W35505  18.663  14.880  12.859
63081W        W35506   2.364  13.542   4.512
63082W        W35507  21.155  12.250  10.163
63083W        W35508  42.908  22.618   3.153
63084W        W35509  31.165  31.575  14.131
63085W        W35510  32.552  29.747  12.229
63086W        W35511   4.441  41.465   2.383
63087W        W35512   1.956  31.154   0.624
63088W        W35513  17.303  11.419  14.231
63089W        W35514   4.492  16.183  14.414
63090W        W35515  37.087   0.937   0.270
63091W        W35516   8.815  40.479  13.375
63092W        W35517  39.792  21.228  12.773
63093W        W35518  30.709  22.028   3.354
63094W        W35519  28.569   1.664  11.577
63095W        W35520  10.064   6.850  11.175
63096W        W35521  13.144   1.444  12.565
63097W        W35522  19.254   6.826   4.837
63098W        W35523   4.374   8.742   3.209
63099W        W35524   7.871   2.338  10.738
63100W        W35525  19.625  30.893   3.207
63101W        W35526  40.597  39.329   0.927
63102W        W35527  10.001  18.758  12.989
63103W        W35528  16.152  40.412  11.729
63104W        W35529  40.509  13.364   4.105
63105W        W35530   9.657   9.820  11.834
63106W        W35531  15.573  31.544  13.900
63107W        W35532  41.901  13.865  12.020
63108W        W35533  12.813  26.503  10.015
63109W        W35534  14.120  12.730   0.979
63110W        W35535  31.509  29.047  10.829
63111W        W35536  37.970  26.137   4.329
63112W        W35537   3.809   3.646  13.783
63113W        W35538   0.462  34.769   1.278
63114W        W35539  26.201  42.063   3.186
63115W        W35540  41.288   0.929  14.503
63116W        W35541   1.676  17.646  14.879
63117W        W35542  22.696   9.227   1.228
63118W        W35543  18.677  17.249   1.153
63119W        W35544  44.401  28.525   1.233
63120W        W35545  25.660  35.614   2.619
63121W        W35546  10.761  33.682   2.185
63122W        W35547  23.508  15.633   2.929
63123W        W35548  31.480   9.798  13.799
63124W        W35549  33.076  18.731  13.252
63125W        W35550  38.905  41.057  12.611
63126W        W35551  22.379   6.229  14.131
63127W        W35552  30.167   7.093   1.845
63128W        W35553   5.522  29.494   1.833
63129W        W35554  26.907   3.245   3.607
63130W        W35555   4.977   6.678   0.598
63131W        W35556   3.827  11.397  14.849
63132W        W35557  28.493  20.045  10.870
63133W        W35558  29.133   4.458  12.034
63134W        W35559  40.066   2.361  12.478
63135W        W35560   7.835  22.250   2.828
63136W        W35561  40.238  21.402  12.971
63137W        W35562  33.560  31.060  12.625
63138W        W35563  41.309   1.690  10.756
63139W        W35564  43.833   8.377   1.421
63140W        W35565  32.434  16.552   2.823
63141W        W35566  28.558  11.083  11.846
63142W        W35567   6.465  39.049  14.780
63143W        W35568  20.021  19.491  11.192
63144W        W35569  22.661  39.984  11.684
63145W        W35570  26.694  22.314   0.771
63146W        W35571  43.699  16.994  13.400
63147W        W35572  35.098   7.155   2.293
63148W        W35573  18.079   1.933   2.088
63149W        W35574  11.508  40.303   2.102
63150W        W35575   0.905  33.063  11.039
63151W        W35576  36.012  21.912  12.272
63152W        W35577  26.047   4.234  12.146
63153W        W35578  21.306  43.716  11.487
63154W        W35579  38.830  20.673   0.359
63155W        W35580  22.412  30.292  13.567
63156W        W35581  16.343  10.502  12.508
63157W        W35582  39.885  10.407   1.875
63158W        W35583  38.908  11.367  10.768
63159W        W35584   6.475  39.518   4.576
63160W        W35585  15.864   1.150  11.912
63161W        W35586  14.541   8.992  11.584
63162W        W35587  30.744  18.627   0.816
63163W        W35588  18.990  12.592  12.979
63164W        W35589  26.815   0.198   3.000
63165W        W35590   4.347  11.866   1.375
63166W        W35591  35.156  15.679  14.915
63167W        W35592  26.500  39.101  11.156
63168W        W35593   6.651  42.967  13.969
63169W        W35594  37.118  13.706   2.582
63170W        W35595  20.413  18.102   1.742
63171W        W35596   4.725  22.437   2.450
63172W        W35597   5.515  10.732   0.159
63173W        W35598  26.146  12.202  11.403
63174W        W35599  30.926  25.776   3.174
63175W        W35600  26.739  30.295   1.751
63176W        W35601  33.461   3.672  13.958
63177W        W35602   0.226  29.969   3.745
63178W        W35603  26.769   0.834  14.989
63179W        W35604  38.978  19.109   0.104
63180W        W35605  10.727  19.639  14.497
63181W        W35606   8.347  34.590   2.872
63182W        W35607  17.262   9.635  12.330
63183W        W35608  21.101   5.249   3.071
63184W        W35609  34.627  38.388  14.835
63185W        W35610  28.146   5.003   2.400
63186W        W35611  11.600  20.673  11.969
63187W        W35612  26.001  20.081   3.045
63188W        W35613  18.730  20.635   0.475
63189W        W35614  39.621  34.643  11.973
63190W        W35615   1.740   0.345   1.286
63191W        W35616   5.409  22.053   3.619
63192W        W35617  38.406  34.532   1.317
63193W        W35618  39.895   0.801   4.254
63194W        W35619  39.553  35.417  12.523
63195W        W35620  33.555   8.144  11.432
63196W        W35621  25.643  32.101   2.058
63197W        W35622   1.862  24.162   0.249
63198W        W35623  23.209  34.388  14.596
63199W        W35624  18.132  33.666  11.486
63200W        W35625   8.610  18.659   3.717
63201W        W35626  12.783   5.126   3.511
63202W        W35627  40.489  15.725   1.372
63203W        W35628  10.654  23.731  13.886
63204W        W35629   8.143  34.533  11.981
63205W        W35630  27.624  14.336   3.186
63206W        W35631  28.208  31.553   3.548
63207W        W35632  43.050  21.383  11.083
63208W        W35633  32.075  18.473  11.163
63209W        W35634   0.956   3.286  13.956
63210W        W35635  41.227   2.345   4.531
63211W        W35636   1.300  43.571   2.743
63212W        W35637  17.141  40.905   0.994
63213W        W35638  34.955  43.706  11.145
63214W        W35639   5.497  28.222  13.188
63215W        W35640  17.280  44.487   0.294
63216W        W35641  24.112  10.651   0.215
63217W        W35642   6.180  12.279  12.953
63218W        W35643  14.117  14.054  13.406
63219W        W35644  17.425  21.318  10.830
63220W        W35645  34.935  24.684   4.607
63221W        W35646  11.307  33.171   1.423
63222W        W35647   1.423  18.175   0.474
63223W        W35648   2.116   9.079  12.067
63224W        W35649  17.034  32.540  14.275
63225W        W35650   2.852  21.573   0.317
63226W        W35651   1.072   6.035  12.864
63227W        W35652  15.627  16.576   2.330
63228W        W35653  43.575   0.705  11.085
63229W        W35654  28.020  14.019   2.840
63230W        W35655  33.228   5.875  13.253
63231W        W35656  34.461  35.303   0.723
63232W        W35657   8.450   6.691   2.841
63233W        W35658  36.856  43.837  14.337
63234W        W35659   8.426  16.336   1.298
63235W        W35660  27.510  17.132  13.088
63236W        W35661  37.141   1.215   3.866
63237W        W35662  42.626  26.767   3.616
63238W        W35663   3.182   2.417   0.859
63239W        W35664  28.924  38.571   3.711
63240W        W35665  43.731  11.271   1.629
63241W        W35666  13.669  21.171   3.117
63242W        W35667  36.060  28.552  10.951
63243W        W35668  38.067  29.360   2.883
63244W        W35669  43.563  26.307   3.645
63245W        W35670  18.668  10.887   0.976
63246W        W35671  27.588  17.706  11.556
63247W        W35672   5.952  13.661   3.829
63248W        W35673  44.413  38.778   3.018
63249W        W35674  37.768  11.665   2.237
63250W        W35675  28.943  19.123   3.942
63251W        W35676  40.869  22.250   1.302
63252W        W35677  38.451  40.972  14.436
63253W        W35678   7.502   7.399  10.673
63254W        W35679  14.699  28.051  13.112
63255W        W35680  22.664  28.938  14.855
63256W        W35681  10.745  32.616  12.767
63257W        W35682  30.435  40.239  10.644
63258W        W35683  35.020   3.037  12.104
63259W        W35684  18.183  26.557  14.230
63260W        W35685   0.277  35.156  12.854
63261W        W35686   9.929   4.560  12.325
63262W        W35687  34.959  28.227   1.805
63263W        W35688  14.389  35.093   5.289
63264W        W35689  38.090  44.191  11.029
63265W        W35690  29.752   6.262   5.155
63266W        W35691  10.108   8.412   2.293
63267W        W35692  12.429  25.818   9.636
63268W        W35693  19.820  44.480   4.560
63269W        W35694  16.769  28.896   3.788
63270W        W35695   5.923  14.718  12.850
63271W        W35696  41.238   7.657   0.387
63272W        W35697  43.836  10.291   0.457
63273W        W35698  38.455   8.687   1.714
63274W        W35699  11.778  31.992   2.466
63275W        W35700   7.804   8.135  12.161
63276W        W35701  34.402  25.573   3.400
63277W        W35702  40.513   6.532  12.978
63278W        W35703  17.064  28.471   3.775
63279W        W35704  44.505  31.354  13.281
63280W        W35705  24.689  17.536   4.084
63281W        W35706  36.385  13.711  13.388
63282W        W35707   3.200   1.724   1.992
63283W        W35708  26.167  19.025  12.827
63284W        W35709  15.787  28.581  14.478
63285W        W35710  14.072  17.934  12.616
63286W        W35711   4.265  39.922  13.530
63287W        W35712  13.565  39.322   3.295
63288W        W35713  20.178  27.072   0.081
63289W        W35714  41.797  41.980  11.094
63290W        W35715  21.651  42.404  14.276
63291W        W35716  43.530   7.772  13.420
63292W        W35717  33.614   9.890   1.712
63293W        W35718   5.285  20.079   0.168
63294W        W35719  21.632  41.059  14.719
63295W        W35720  34.929  37.631   4.173
63296W        W35721  38.610  17.691   4.209
63297W        W35722  44.535  42.522  11.452
63298W        W35723   8.777   2.922  12.441
63299W        W35724  44.238   4.706  14.003
63300W        W35725  14.656  36.652  13.894
63301W        W35726   1.362   4.489  11.392
63302W        W35727  25.473  17.117   0.834
63303W        W35728  11.824  22.052  10.483
63304W        W35729  41.833   3.000  13.413
63305W        W35730  20.496  20.513   0.004
63306W        W35731   6.587  24.745  12.532
63307W        W35732  10.203  37.464   2.210
63308W        W35733  14.520  41.981   4.232
63309W        W35734  32.587   7.290   0.895
63310W        W35735  16.643  35.409  11.424
63311W        W35736  31.939  35.496   2.437
63312W        W35737  26.179  14.345  12.719
63313W        W35738  32.908  34.335  13.866
63314W        W35739  13.859  21.171  11.567
63315W        W35740  14.678  19.783   1.420
63316W        W35741  43.004  27.024   1.399
63317W        W35742   7.251   9.828   4.922
63318W        W35743  19.630  42.103   4.204
63319W        W35744   9.157  39.911  11.253
63320W        W35745   6.867  30.152  13.866
63321W        W35746  30.852  13.762   3.838
63322W        W35747  43.734   1.956   0.646
63323W        W35748  19.531  21.560   0.688
63324W        W35749  31.140  43.848   4.244
63325W        W35750  35.300  32.570  13.276
63326W        W35751  40.075  35.091  14.472
63327W        W35752  14.784  13.886   0.404
63328W        W35753  37.848  20.251   4.602
63329W        W35754  15.500  43.291   0.190
63330W        W35755   1.078  43.280  11.665
63331W        W35756  34.543  30.394  13.399
63332W        W35757  22.761  15.623   1.251
63333W        W35758  31.164  12.470  12.514
63334W        W35759  39.689  27.648  11.530
63335W        W35760  10.793   1.404  12.976
63336W        W35761   4.488  42.704  14.348
63337W        W35762   2.877   8.428  14.474
63338W        W35763  24.611   9.839   0.358
63339W        W35764   5.729   0.962  10.658
63340W        W35765   4.447   9.741   3.166
63341W        W35766  34.404   9.086   0.806
63342W        W35767  30.633  39.961  12.029
63343W        W35768  27.665  18.557  11.677
63344W        W35769   5.988  21.516  11.890
63345W        W35770  29.879  16.588   0.703
63346W        W35771   6.996  37.421  11.529
63347W        W35772  12.554  17.189   4.163
63348W        W35773   4.425  11.024  13.249
63349W        W35774  29.398   0.037   4.145
63350W        W35775  40.489  32.532   2.290
63351W        W35776  27.700  34.328   0.441
63352W        W35777  18.063  42.798   1.357
63353W        W35778  38.458  17.124   0.752
63354W        W35779   8.689  10.619  13.271
63355W        W35780  26.249   3.487  12.865
63356W        W35781   1.021  22.969   2.504
63357W        W35782  33.586  18.915  14.442
63358W        W35783  41.895  37.619  10.176
63359W        W35784  19.460  24.076  12.477
63360W        W35785   0.209  26.370   0.793
63361W        W35786   0.306   4.174  12.005
63362W        W35787  38.862   6.935  12.036
63363W        W35788   4.183  27.000  11.998
63364W        W35789  39.745  14.777  11.580
63365W        W35790  18.595  40.245  11.683
63366W        W35791  10.799  38.383  10.748
63367W        W35792  20.101  37.523   3.689
63368W        W35793   0.598  19.782   1.841
63369W        W35794  39.006  41.957   3.591
63370W        W35795  30.473   1.049   1.778
63371W        W35796  21.863  12.913   2.205
63372W        W35797   5.925   4.824  12.952
63373W        W35798  31.590  36.263   0.953
63374W        W35799  26.535   1.483  13.007
63375W        W35800  18.261  14.099  14.839
63376W        W35801  43.347  28.712  12.836
63377W        W35802  37.551  43.913   3.670
63378W        W35803  26.465  27.092  13.662
63379W        W35804  29.757   8.269  12.540
63380W        W35805  26.145  23.402  13.921
63381W        W35806  14.761  36.302  12.541
63382W        W35807  12.762  36.161   3.532
63383W        W35808  19.217  36.378   4.582
63384W        W35809  23.379  20.798  12.656
63385W        W35810   5.954  44.293  13.538
63386W        W35811  20.543   1.734  11.600
63387W        W35812  21.719   3.204   1.714
63388W        W35813   9.151  42.696   1.807
63389W        W35814   1.429   4.112  11.060
63390W        W35815  13.161  29.832   4.595
63391W        W35816  35.126  18.111  13.164
63392W        W35817  41.179  42.813   4.086
63393W        W35818  16.127  23.944   2.367
63394W        W35819  27.151  17.287   4.608
63395W        W35820  40.425  32.850   4.526
63396W        W35821  17.577   7.758  11.543
63397W        W35822  23.800  16.143   1.767
63398W        W35823  43.003  38.593  11.634
63399W        W35824  21.698  44.024  13.119
63400W        W35825  34.901  30.588   1.564
63401W        W35826  36.320  32.347  14.354
63402W        W35827  27.427  17.228   0.031
63403W        W35828  33.809   7.431   2.256
63404W        W35829   1.165  36.053   2.218
63405W        W35830  20.362  31.698  13.027
63406W        W35831  16.036  25.437  11.517
63407W        W35832  33.832  19.030   3.657
63408W        W35833  26.870  19.287   2.567
63409W        W35834  22.933   8.226   4.624
63410W        W35835  39.773  33.944   2.220
63411W        W35836  22.627  10.652   2.946
63412W        W35837  35.448  16.827   2.914
63413W        W35838  17.720  40.346   0.075
63414W        W35839  38.823  23.875   0.056
63415W        W35840   5.697   6.330  13.470
63416W        W35841  41.035  30.629   4.112
63417W        W35842  17.476  34.474  13.289
63418W        W35843  39.612  25.108  11.868
63419W        W35844  27.968  12.401   0.434
63420W        W35845  43.111  20.577   0.012
63421W        W35846   1.659   0.930   2.933
63422W        W35847  32.390  16.715  13.587
63423W        W35848  44.474  33.123   4.115
63424W        W35849   5.878  39.623  13.917
63425W        W35850  19.797   0.347   1.567
63426W        W35851  43.365   3.710   4.942
63427W        W35852   4.290  20.204  14.751
63428W        W35853  13.142  11.738   3.659
63429W        W35854  41.304  11.087  14.872
63430W        W35855  13.601   9.840  10.384
63431W        W35856  39.441  44.135  12.694
63432W        W35857  42.607  27.520  12.726
63433W        W35858  14.811  41.794  14.088
63434W        W35859  41.585  13.759   1.317
63435W        W35860  39.878  44.520  12.130
63436W        W35861  10.660  41.875  12.408
63437W        W35862  24.210  41.055  14.159
63438W        W35863  12.232  31.541  11.225
63439W        W35864   3.463  20.117   5.032
63440W        W35865  25.172  23.649  13.942
63441W        W35866  43.072  13.119   4.071
63442W        W35867  33.980   6.157   0.121
63443W        W35868  25.937   8.161  12.048
63444W        W35869   1.771  36.387  10.557
63445W        W35870   9.160   2.838   4.352
63446W        W35871  12.705  14.349  12.108
63447W        W35872  22.692  12.530   5.115
63448W        W35873   4.357  29.666  11.153
63449W        W35874  42.880  21.824   4.800
63450W        W35875  36.994  43.547  12.058
63451W        W35876  17.530  16.295  13.069
63452W        W35877  14.549  35.313  11.267
63453W        W35878  27.989  44.520  14.339
63454W        W35879  43.886   8.405  11.579
63455W        W35880   1.427  25.523  14.970
63456W        W35881   2.859  37.809  11.959
63457W        W35882   8.857  24.067   0.981
63458W        W35883  15.708  24.907   4.149
63459W        W35884  39.719  26.463   4.756
63460W        W35885   7.658  41.363   0.474
63461W        W35886  33.881   7.226   4.471
63462W        W35887   9.918   2.978   3.257
63463W        W35888  22.507   6.750   2.247
63464W        W35889  13.656  27.576  11.697
63465W        W35890  36.990  21.983  14.414
63466W        W35891  16.194  37.730   0.279
63467W        W35892  33.371  32.422   4.107
63468W        W35893  13.539  33.679   2.270
63469W        W35894  39.307  39.343   2.173
63470W        W35895  35.442  15.789   4.625
63471W        W35896  11.864  35.507   4.263
63472W        W35897  38.857  31.725  13.312
63473W        W35898  27.226  20.244  10.621
63474W        W35899   9.742   8.190  11.763
63475W        W35900  43.806   0.121   3.212
63476W        W35901   4.825   0.024   3.319
63477W        W35902  15.617   7.842   3.743
63478W        W35903  28.551   3.387   0.742
63479W        W35904   9.700  11.628  11.436
63480W        W35905  41.118   0.023   2.738
63481W        W35906   4.212  37.120   2.309
63482W        W35907   5.514  19.128   3.770
63483W        W35908   5.905  15.140   4.655
63484W        W35909  25.756  27.106   3.116
63485W        W35910  14.844   3.383  13.920
63486W        W35911  18.096  10.938   1.505
63487W        W35912   5.578  29.676   0.462
63488W        W35913  23.112  15.776   0.731
63489W        W35914  17.144  33.456  13.885
63490W        W35915  42.298  41.515   3.295
63491W        W35916  34.616  24.725   1.667
63492W        W35917  41.521  14.268   1.355
63493W        W35918   6.311  33.729  14.995
63494W        W35919  21.445  28.948  11.515
63495W        W35920  30.959  26.138   0.239
63496W        W35921  44.517   1.399   4.894
63497W        W35922  30.980  43.398  10.629
63498W        W35923  32.071  25.687  13.089
63499W        W35924  33.570  29.941  12.488
63500W        W35925  12.568  21.970   2.968
63501W        W35926  43.328  42.506  12.057
63502W        W35927   6.439  25.681   4.726
63503W        W35928  30.487  24.199   3.639
63504W        W35929   8.697  14.331   3.300
63505W        W35930  43.500   7.847  10.931
63506W        W35931  32.702  36.104  13.817
63507W        W35932  30.858  36.590  14.029
63508W        W35933   3.813  30.089  13.306
63509W        W35934  32.873  40.964  10.246
63510W        W35935   1.472   0.333  13.834
63511W        W35936  29.714  22.442  10.700
63512W        W35937  41.793  42.238   3.189
63513W        W35938  33.585  25.609   4.657
63514W        W35939  26.452  42.314  14.271
63515W        W35940  16.711   3.134  11.636
63516W        W35941  12.935   9.119  11.155
63517W        W35942  38.419  42.459  13.497
63518W        W35943   2.527  14.325   0.058
63519W        W35944  39.845   2.403  13.769
63520W        W35945  24.732   8.141  11.132
63521W        W35946  14.346  19.771  11.127
63522W        W35947  20.947  16.635   0.034
63523W        W35948  11.637  10.632   2.253
63524W        W35949   9.081   7.611  11.239
63525W        W35950  32.387   1.474  10.584
63526W        W35951   9.066  15.555   2.997
63527W        W35952   4.760  23.421  12.456
63528W        W35953   4.255  26.691  13.806
63529W        W35954  42.229  35.830  14.386
63530W        W35955   6.814  44.851  14.487
63531W        W35956  26.991  38.659  14.659
63532W        W35957  26.441   7.712   3.383
63533W        W35958  19.657  27.389  12.580
63534W        W35959  17.838   3.121   4.891
63535W        W35960   5.416  16.051   0.282
63536W        W35961  19.688  21.442   1.716
63537W        W35962   2.675   1.706  13.902
63538W        W35963  31.604   1.298   0.371
63539W        W35964  28.961  14.928  11.170
63540W        W35965  10.601  36.510   4.133
63541W        W35966  41.682  19.753  11.067
63542W        W35967  40.776  22.288   0.257
63543W        W35968  20.534  36.847   0.924
63544W        W35969  24.112   6.946   0.937
63545W        W35970  33.123  17.604   0.906
63546W        W35971   4.396  29.525   4.533
63547W        W35972  28.147  44.152   1.700
63548W        W35973  10.168   1.315   0.766
63549W        W35974   1.998  30.073   1.774
63550W        W35975  29.906  41.497   3.793
63551W        W35976  30.332  30.563  12.020
63552W        W35977  43.325  19.671  14.515
63553W        W35978  31.959  39.411   1.739
63554W        W35979  37.266  19.820  13.256
63555W        W35980  41.737   0.671   1.725
63556W        W35981  22.379  43.868   1.772
63557W        W35982  22.619  13.081  10.625
63558W        W35983   4.841  14.121  10.892
63559W        W35984   5.569   0.364  12.696
63560W        W35985  10.632   6.727   2.139
63561W        W35986  19.091  40.857  13.352
63562W        W35987  31.089  33.541   4.904
63563W        W35988  17.755  10.611   1.265
63564W        W35989  44.873   6.365   3.876
63565W        W35990  44.349  34.367  14.991
63566W        W35991   4.709  27.954  11.877
63567W        W35992  14.020  33.454   2.193
63568W        W35993  44.488  21.602  13.564
63569W        W35994  18.412   1.423   1.274
63570W        W35995  38.987  40.014  11.687
63571W        W35996   1.545  24.543  13.312
63572W        W35997  41.082  32.847  14.053
63573W        W35998  32.105  32.989  13.918
63574W        W35999  36.046  43.834  14.733
63575W        W36000  33.992  41.567   3.640
63576W        W36001   7.580  33.977  13.380
63577W        W36002  36.344  26.758   2.513
63578W        W36003  21.742  22.125  13.503
63579W        W36004  20.964  37.603   2.166
63580W        W36005  14.616  30.132   3.716
63581W        W36006  25.161  38.580   0.732
63582W        W36007  15.432  37.974  12.590
63583W        W36008   7.273  28.881   1.719
63584W        W36009  40.235  20.494   5.306
63585W        W36010  28.660  32.935  11.815
63586W        W36011  39.395  27.651  14.778
63587W        W36012  23.259  28.321  14.276
63588W        W36013  35.457  15.590   1.832
63589W        W36014  32.195   5.324  11.506
63590W        W36015  18.298  36.338  10.928
63591W        W36016   2.286   5.196  10.703
63592W        W36017  12.201   9.419  12.955
63593W        W36018  31.511  32.637  10.755
63594W        W36019  27.481  27.120   2.449
63595W        W36020  38.950   8.232  13.504
63596W        W36021  22.692   1.777   3.158
63597W        W36022  15.091  38.817  14.373
63598W        W36023  35.050  33.553   3.278
63599W        W36024  32.409  21.177  13.769
63600W        W36025  25.456  43.019   1.104
63601W        W36026  23.019   9.855  11.540
63602W        W36027   9.208  17.049   0.342
63603W        W36028  26.488   5.829   1.753
63604W        W36029  21.171  41.740  14.938
63605W        W36030  10.349   7.617  10.684
63606W        W36031   3.189  32.565  13.427
63607W        W36032  21.706  42.936   0.057
63608W        W36033  22.475  19.926   3.629
63609W        W36034  31.047  40.604   3.284
63610W        W36035  41.934  20.858  13.503
63611W        W36036  29.579  28.943  12.668
63612W        W36037  32.887  36.545  10.655
63613W        W36038  12.633  30.067  13.299
63614W        W36039   8.150  26.168   2.588
63615W        W36040  25.736  42.839  14.333
63616W        W36041  42.265  22.487   5.086
63617W        W36042  17.276  39.894  11.928
63618W        W36043  35.832  34.483  13.948
63619W        W36044  28.679   5.709  13.446
63620W        W36045  41.768  37.913   0.848
63621W        W36046  32.087  36.589   1.307
63622W        W36047  26.981  26.916   3.859
63623W        W36048  40.358  17.773  11.476
63624W        W36049   7.869  15.289  12.996
63625W        W36050   4.794  30.912   1.249
63626W        W36051  28.037  30.170  12.454
63627W        W36052   8.692  13.313   5.447
63628W        W36053  27.031  37.720   2.289
63629W        W36054   2.955  34.069   1.729
63630W        W36055  32.942  37.175   4.150
63631W        W36056   9.281  39.457  14.651
63632W        W36057   6.917  26.434  13.138
63633W        W36058  28.699  12.686   1.671
63634W        W36059  25.677  35.920   2.174
63635W        W36060   5.914  26.379   3.731
63636W        W36061   3.153  13.830  14.276
63637W        W36062  23.749   6.246   3.110
63638W        W36063   8.946  24.822   1.269
63639W        W36064  12.818  21.002  14.320
63640W        W36065  18.297  13.099   2.326
63641W        W36066  16.304   9.426  13.450
63642W        W36067  25.540   7.148   2.254
63643W        W36068  21.548   0.869   4.032
63644W        W36069  10.952  29.479  13.321
63645W        W36070  38.833   4.208   1.829
63646W        W36071  27.185  40.973   3.279
63647W        W36072  28.636  11.150  11.356
63648W        W36073  20.532  28.388  12.438
63649W        W36074  41.672  35.005  14.506
63650W        W36075  24.003  30.660  14.330
63651W        W36076  12.776  23.886   5.107
63652W        W36077  10.009  33.561  10.765
63653W        W36078  26.106  14.123   2.679
63654W        W36079  29.422  21.719  10.178
63655W        W36080   7.198   2.426  11.398
63656W        W36081  27.087  29.497  11.363
63657W        W36082  26.644  11.698  10.930
63658W        W36083  17.205  10.079   4.487
63659W        W36084  36.038  16.284  10.701
63660W        W36085  43.845  42.611   2.396
63661W        W36086  34.087  29.442  11.762
63662W        W36087  17.336  35.305   4.848
63663W        W36088  15.111  40.484  14.020
63664W        W36089  18.204  11.753  10.770
63665W        W36090  34.813  28.434   4.740
63666W        W36091   9.851  12.639   0.430
63667W        W36092  11.477  19.652   2.196
63668W        W36093  21.000  30.540   0.716
63669W        W36094  27.024  18.521  14.800
63670W        W36095  38.585  34.110   1.566
63671W        W36096  21.965  33.230   1.904
63672W        W36097  27.989  38.897   1.227
63673W        W36098  20.686  42.429   1.780
63674W        W36099  44.588  14.425   3.621
63675W        W36100  20.254  32.135   3.242
63676W        W36101   3.986   2.551  11.604
63677W        W36102  17.907  32.431  10.187
63678W        W36103  35.541  30.234   4.942
63679W        W36104  31.694  43.505  11.090
63680W        W36105  22.737  39.522  11.257
63681W        W36106  24.147  15.640   5.022
63682W        W36107  30.817  36.669   0.003
63683W        W36108  26.076   5.203  13.671
63684W        W36109   6.753  17.874   4.163
63685W        W36110  38.761  44.026  14.025
63686W        W36111  35.926  14.283   4.158
63687W        W36112  42.965  37.451   2.347
63688W        W36113  41.373   9.165   1.933
63689W        W36114   9.627  29.576   1.451
63690W        W36115  35.664   8.929   9.736
63691W        W36116  36.270  18.359  11.603
63692W        W36117  30.952  22.750   2.604
63693W        W36118  31.979  44.804   2.417
63694W        W36119  14.018  31.649   1.641
63695W        W36120   2.491  40.321   2.733
63696W        W36121   6.157  22.866   4.105
63697W        W36122  20.187  32.041   1.317
63698W        W36123  11.644   2.255  10.313
63699W        W36124  23.919  39.906  12.934
63700W        W36125  27.607   9.002  13.935
63701W        W36126  30.944  12.709   4.535
63702W        W36127  38.838  37.315   0.354
63703W        W36128   2.938  30.296  14.900
63704W        W36129   7.303  36.902  14.555
63705W        W36130  33.450  26.522  13.471
63706W        W36131   7.360  19.168   4.080
63707W        W36132  28.495  16.602   1.756
63708W        W36133  15.842  21.117   4.510
63709W        W36134  42.460  36.488   2.303
63710W        W36135  15.717  16.078   2.336
63711W        W36136  16.031  10.603  11.926
63712W        W36137  30.704  20.922   3.171
63713W        W36138  13.238  23.894  12.948
63714W        W36139  41.876  34.718  14.904
63715W        W36140  22.639  38.010   2.458
63716W        W36141  31.950   0.877   3.566
63717W        W36142  12.305  25.766  10.480
63718W        W36143   7.699  22.604  10.931
63719W        W36144  34.515   4.182   3.805
63720W        W36145  37.401  44.809   0.659
63721W        W36146   7.837  42.242   2.826
63722W        W36147  39.752   4.661   2.787
63723W        W36148  40.588  25.727   0.674
63724W        W36149   0.966  22.281   3.135
63725W        W36150  33.487  18.604   3.674
63726W        W36151  19.111   3.257  12.629
63727W        W36152  25.938   3.842  11.136
63728W        W36153  36.003  15.765   3.746
63729W        W36154  28.707  32.108   1.212
63730W        W36155  28.972  15.390   2.721
63731W        W36156  31.100   4.372  11.580
63732W        W36157  28.398  29.977  11.538
63733W        W36158   9.736  14.669   4.072
63734W        W36159  42.842  21.686   4.307
63735W        W36160  15.664  35.024   3.885
63736W        W36161  14.410   0.559  12.135
63737W        W36162  15.773  44.879  12.079
63738W        W36163   0.526  34.089  14.819
63739W        W36164  29.097   0.886  12.289
63740W        W36165  24.756  39.405   4.191
63741W        W36166  18.788  30.873  10.734
63742W        W36167  38.004  14.874  11.897
63743W        W36168  18.590  21.011  14.262
63744W        W36169   3.380  27.435   1.932
63745W        W36170   7.816   4.332  13.394
63746W        W36171   3.894   1.367  10.469
63747W        W36172  24.732  31.005  11.102
63748W        W36173  27.446  22.047   0.384
63749W        W36174  37.824  38.136  13.384
63750W        W36175  21.999  21.501   3.252
63751W        W36176  26.122  28.420  11.714
63752W        W36177   9.775   5.674  11.625
63753W        W36178  19.754  16.406   1.239
63754W        W36179  37.462  34.114   2.032
63755W        W36180  30.465  44.271   0.471
63756W        W36181  42.825  33.026  13.437
63757W        W36182  37.323  42.124  11.131
63758W        W36183  42.338  13.867   1.054
63759W        W36184  25.081  42.321   2.687
63760W        W36185  19.904  27.836  14.315
63761W        W36186  37.044  23.268  10.570
63762W        W36187   7.315  14.100  10.598
63763W        W36188   9.786  22.676   3.113
63764W        W36189   8.710  41.380  14.486
63765W        W36190  16.198   8.215   1.773
63766W        W36191   1.388  22.768   3.749
63767W        W36192   8.428  23.458  11.536
63768W        W36193   7.147   4.747   3.913
63769W        W36194   3.356   8.388   0.877
63770W        W36195  21.612  33.207  11.974
63771W        W36196  14.785  42.977   2.236
63772W        W36197  24.463  23.767  13.007
63773W        W36198  37.989  41.352  11.916
63774W        W36199  19.132  42.055  13.437
63775W        W36200  39.333  36.768   2.427
63776W        W36201  29.022  28.266   4.076
63777W        W36202  33.428  40.332   0.658
63778W        W36203  27.233  10.513   3.542
63779W        W36204  38.484   0.561  12.499
63780W        W36205   3.539   2.228   3.707
63781W        W36206  43.735   8.292   3.629
63782W        W36207   4.901  18.867  12.466
63783W        W36208  12.952  31.362   0.541
63784W        W36209   1.072  30.926  12.111
63785W        W36210  19.342  38.020   2.733
63786W        W36211  38.177  35.122   1.514
63787W        W36212   2.334  26.892   1.508
63788W        W36213  32.435   1.839   1.884
63789W        W36214  21.517  17.590   1.371
63790W        W36215   6.651   6.781   0.970
63791W        W36216   3.930  22.043   3.423
63792W        W36217   4.767  37.636   1.026
63793W        W36218  12.654  38.814  12.108
63794W        W36219  33.798  39.788  10.778
63795W        W36220   3.140  34.985  13.068
63796W        W36221   3.936  15.752   0.366
63797W        W36222  28.096  20.637  13.166
63798W        W36223  11.244  21.697   1.874
63799W        W36224   9.025  41.859   1.207
63800W        W36225  20.465  13.016   4.754
63801W        W36226  11.683  19.535   0.711
63802W        W36227  22.558  26.626   0.228
63803W        W36228  12.671  27.365  12.573
63804W        W36229  17.424   1.837  14.160
63805W        W36230   3.223  15.662  10.485
63806W        W36231   6.751  10.853  13.869
63807W        W36232  38.493  43.056  11.036
63808W        W36233  28.915  32.686  12.455
63809W        W36234  29.955  36.638  11.962
63810W        W36235  32.991  38.266  12.470
63811W        W36236  36.938  38.397  10.298
63812W        W36237  31.359  37.442  11.489
63813W        W36238  18.346  43.965  13.888
63814W        W36239  18.174   0.700   2.801
63815W        W36240  25.015  14.401  11.570
63816W        W36241  19.033  30.483   1.617
63817W        W36242  38.985  42.802  12.033
63818W        W36243   8.888  35.502   1.818
63819W        W36244  12.088  29.514   2.997
63820W        W36245   7.183  42.812  13.229
63821W        W36246  18.557  16.244  14.782
63822W        W36247  40.590  43.283   3.614
63823W        W36248  25.484  10.881  12.001
63824W        W36249  37.941  22.304   1.738
63825W        W36250  21.525   4.729  10.398
63826W        W36251  11.567  40.425   4.723
63827W        W36252  30.794  43.980  13.538
63828W        W36253  20.539  26.017   1.753
63829W        W36254  25.110   1.820  12.810
63830W        W36255  15.440  27.652   4.230
63831W        W36256  22.305   5.367   2.806
63832W        W36257   4.070  17.087  10.780
63833W        W36258  30.806  19.140  14.309
63834W        W36259  23.310  16.752  11.495
63835W        W36260  18.813   6.338   0.449
63836W        W36261   9.896  10.700   3.367
63837W        W36262  33.280  20.618   1.334
63838W        W36263  10.364  29.002   2.285
63839W        W36264  28.019  24.759  11.479
63840W        W36265  33.119  44.958  10.481
63841W        W36266  25.990  17.117   1.270
63842W        W36267  28.828  27.283   0.377
63843W        W36268  23.076   1.465  13.101
63844W        W36269  28.688  24.955   1.289
63845W        W36270  17.670  17.964   4.186
63846W        W36271  35.169  18.840  13.454
63847W        W36272  20.450   7.085  11.113
63848W        W36273  30.846  29.214  14.893
63849W        W36274  24.960  13.746   0.464
63850W        W36275  22.310  29.080   1.467
63851W        W36276  34.972   6.693   1.415
63852W        W36277  20.573  27.883  12.519
63853W        W36278  34.865  33.557   4.128
63854W        W36279   0.276  34.356  14.387
63855W        W36280   3.024  28.769   1.755
63856W        W36281  33.385  16.115   0.357
63857W        W36282  39.415  12.609   1.619
63858W        W36283  28.861  39.887  11.483
63859W        W36284  19.052  22.970  14.911
63860W        W36285  41.966  24.784   4.983
63861W        W36286  40.984  29.703   2.356
63862W        W36287  10.112  11.256   2.927
63863W        W36288  41.477  20.882  12.436
63864W        W36289  44.913   3.409  10.953
63865W        W36290  12.123  30.180   0.911
63866W        W36291  42.536  19.013   2.313
63867W        W36292  14.987  34.108  14.676
63868W        W36293  27.083  10.859   3.157
63869W        W36294   1.836  28.632   4.068
63870W        W36295  29.575  14.518  11.207
63871W        W36296  41.292  41.417   2.955
63872W        W36297  21.059  12.035  13.890
63873W        W36298  21.458  10.380  13.486
63874W        W36299  40.534   2.714  11.995
63875W        W36300  12.327  30.846   4.198
63876W        W36301  12.253   8.896  11.255
63877W        W36302   8.512  22.027   3.748
63878W        W36303   3.869  15.177  13.421
63879W        W36304   7.731  12.908   2.097
63880W        W36305  29.045  13.778   2.326
63881W        W36306  43.343  18.004   2.671
63882W        W36307   4.912  23.931  11.165
63883W        W36308  25.595  40.160  14.503
63884W        W36309  43.267  15.592  12.384
63885W        W36310  12.827  44.927  10.643
63886W        W36311   4.847  12.904  14.744
63887W        W36312  14.351   1.844  11.604
63888W        W36313  29.968  28.429  11.149
63889W        W36314  13.354  23.684   3.699
63890W        W36315  16.733  44.392   2.919
63891W        W36316  41.235  24.539  10.696
63892W        W36317  16.559  15.848  11.546
63893W        W36318  14.784  15.689  14.170
63894W        W36319  28.589  16.720  11.152
63895W        W36320  13.345  37.962  11.923
63896W        W36321  23.781  20.971   4.026
63897W        W36322  19.777  19.546   2.218
63898W        W36323  22.423   9.936   3.410
63899W        W36324  17.888  41.716   3.147
63900W        W36325   2.918  40.509   4.669
63901W        W36326  32.230  16.151   4.663
63902W        W36327  33.840  13.331   3.592
63903W        W36328   1.212   5.699  14.810
63904W        W36329  36.963  16.154   0.933
63905W        W36330  17.810  36.358  10.678
63906W        W36331  27.904  32.136   2.308
63907W        W36332  33.884  12.160   4.508
63908W        W36333   6.358  35.004   4.042
63909W        W36334  41.263  35.509   0.219
63910W        W36335  32.778  25.220  10.147
63911W        W36336  41.327   7.309   1.707
63912W        W36337  42.555  16.258   1.433
63913W        W36338  40.826   1.222  11.165
63914W        W36339   2.555  23.456  12.029
63915W        W36340  11.033  41.011  11.455
63916W        W36341  14.803  39.059  12.272
63917W        W36342  19.691  28.613   2.657
63918W        W36343  30.657  14.233  10.447
63919W        W36344  36.469  19.032   1.107
63920W        W36345  30.075   9.974   4.895
63921W        W36346  24.826   4.459  10.749
63922W        W36347  26.118  10.377   1.337
63923W        W36348   9.743  38.414  14.195
63924W        W36349  15.210   8.566   0.315
63925W        W36350   3.774  30.365   0.669
63926W        W36351  29.039  41.939   1.483
63927W        W36352  35.476  10.894   0.736
63928W        W36353  15.219  16.590   3.577
63929W        W36354   2.485  23.249   2.322
63930W        W36355  17.613  10.713  14.739
63931W        W36356  18.704  13.040  12.874
63932W        W36357   0.398   5.538  13.803
63933W        W36358  13.331  36.348   0.473
63934W        W36359  28.197  29.323  10.217
63935W        W36360  25.680  13.188  14.529
63936W        W36361  41.257   7.882  11.595
63937W        W36362  24.839   7.841  10.691
63938W        W36363   5.350  34.834   2.161
63939W        W36364  34.821  31.979   3.065
63940W        W36365  38.273   0.793  13.323
63941W        W36366  34.001   2.405   4.518
63942W        W36367  17.803  22.675   0.393
63943W        W36368   3.987  39.312   2.788
63944W        W36369  28.031  37.943   4.428
63945W        W36370  25.910  15.506   0.420
63946W        W36371  23.552  38.480   2.218
63947W        W36372   8.380  35.581   1.778
63948W        W36373  31.097  40.554  11.343
63949W        W36374  15.859  34.047   4.212
63950W        W36375  16.791  31.998   4.670
63951W        W36376  42.026  33.612  10.668
63952W        W36377  34.881  35.895  14.377
63953W        W36378  39.033  11.937  14.318
63954W        W36379  41.409  25.189  12.000
63955W        W36380  16.849  30.881  12.950
63956W        W36381  35.833   2.228  12.051
63957W        W36382   2.421  16.389   1.382
63958W        W36383  17.210   4.214  13.086
63959W        W36384  42.111  11.805  11.618
63960W        W36385  27.665  44.416   4.041
63961W        W36386  24.557   1.921  12.602
63962W        W36387  41.098  12.924  10.726
63963W        W36388  36.338  28.601   4.514
63964W        W36389  21.097   7.160  13.064
63965W        W36390  24.210   0.327   3.872
63966W        W36391  42.331  36.393   0.417
63967W        W36392  33.914  36.785  11.412
63968W        W36393   9.454   7.609  12.932
63969W        W36394  11.675  42.479  13.386
63970W        W36395  28.485  35.860   2.875
63971W        W36396  10.485   9.294  13.313
63972W        W36397  27.423  35.158  10.752
63973W        W36398  10.117  22.152  12.892
63974W        W36399  11.924   7.545   2.735
63975W        W36400  38.474  28.467   0.756
63976W        W36401  37.608  40.213   2.335
63977W        W36402   1.886  10.065  10.636
63978W        W36403  23.697  16.852   2.852
63979W        W36404  34.860   5.712   4.122
63980W        W36405  25.984  38.931   4.204
63981W        W36406  42.348  34.585   0.970
63982W        W36407  16.598   0.933  13.227
63983W        W36408   0.860  11.266  13.193
63984W        W36409  27.955  35.697  14.237
63985W        W36410   4.310   3.356   3.243
63986W        W36411  28.414  43.892   3.723
63987W        W36412  21.045  33.040   2.776
63988W        W36413  19.203  39.091   0.877
63989W        W36414   3.472  40.993  13.844
63990W        W36415  24.491  41.773  11.899
63991W        W36416  24.789  30.687   4.496
63992W        W36417  23.254  40.306   0.645
63993W        W36418  20.087  14.129  12.177
63994W        W36419  32.142  26.782   9.944
63995W        W36420  34.696  36.580  10.713
63996W        W36421  12.634  41.107  10.660
63997W        W36422  36.483  11.150  11.913
63998W        W36423  10.365  37.186  10.689
63999W        W36424  16.808   2.826  11.225
64000W        W36425  42.427   8.213   3.274
64001W        W36426  11.703  34.573  10.382
64002W        W36427  11.859  27.634   0.680
64003W        W36428   1.036  42.909  10.782
64004W        W36429  11.228  20.253   0.961
64005W        W36430   8.191  26.010   4.607
64006W        W36431  23.615  40.492  11.666
64007W        W36432  28.562  39.283   2.822
64008W        W36433  31.760  20.987   4.173
64009W        W36434  20.232  14.858   3.184
64010W        W36435   8.755  17.964   4.643
64011W        W36436  26.118  10.323  10.980
64012W        W36437  20.651   6.664   1.382
64013W        W36438  23.131   0.769   1.750
64014W        W36439   7.371  38.927  12.323
64015W        W36440  24.979   9.834   2.745
64016W        W36441  27.061  19.505  11.910
64017W        W36442  16.835  20.500  12.453
64018W        W36443  14.360  13.698  13.099
64019W        W36444   3.748  25.083   0.353
64020W        W36445  10.401  18.117  14.015
64021W        W36446  37.160  13.042  14.278
64022W        W36447   5.980  38.440  13.560
64023W        W36448  33.972  18.236   3.236
64024W        W36449  22.754  11.126  14.377
64025W        W36450   0.776  25.306  11.664
64026W        W36451  34.574  28.692   3.276
64027W        W36452  12.501  21.489  10.990
64028W        W36453  10.731  30.189  10.417
64029W        W36454   9.387  37.441   2.653
64030W        W36455   0.879  41.863  10.888
64031W        W36456   2.419  40.406  10.718
64032W        W36457  38.017   7.449   0.849
64033W        W36458  18.780  19.652   2.313
64034W        W36459  32.951  17.262  11.988
64035W        W36460  32.180  41.539   1.651
64036W        W36461   1.415   0.252  12.978
64037W        W36462  26.805  14.923   3.298
64038W        W36463  25.132   6.318   2.915
64039W        W36464  43.439   0.117   0.391
64040W        W36465  14.626   6.326  10.382
64041W        W36466  25.016  15.633   0.559
64042W        W36467  12.574  39.865  12.537
64043W        W36468  19.284  31.190  14.873
64044W        W36469  31.051  41.934   0.460
64045W        W36470   9.730  17.182   0.339
64046W        W36471  10.236  15.822  12.424
64047W        W36472  13.677  34.513   3.892
64048W        W36473  12.888   3.433   0.932
64049W        W36474  10.159  35.180   3.330
64050W        W36475  14.010  12.854  14.915
64051W        W36476  20.015  41.643   3.775
64052W        W36477  29.439  20.935   2.204
64053W        W36478  16.699  20.753  12.885
64054W        W36479   0.351  41.305   0.258
64055W        W36480  32.825  42.942   1.057
64056W        W36481  25.204  34.579  10.910
64057W        W36482  15.823  21.631   9.738
64058W        W36483   0.341   8.056   1.171
64059W        W36484  20.728   3.486   1.478
64060W        W36485  21.382  41.315   3.193
64061W        W36486   6.407  21.406  13.420
64062W        W36487   5.163  31.067   2.771
64063W        W36488  16.676   0.513   3.655
64064W        W36489  16.849  41.522  10.733
64065W        W36490  14.294  28.768   0.563
64066W        W36491  12.881  10.360   3.399
64067W        W36492  37.124  41.295   4.235
64068W        W36493  23.990  25.035  12.887
64069W        W36494  25.434  21.965   3.353
64070W        W36495  22.876  38.992  12.026
64071W        W36496  25.286   6.961  14.318
64072W        W36497  13.545  17.492   0.960
64073W        W36498  34.926   2.475  12.805
64074W        W36499  44.289   6.762   2.249
64075W        W36500  13.554  41.994  14.863
64076W        W36501  16.509  10.601   2.984
64077W        W36502  14.138   8.752   1.479
64078W        W36503  15.207   9.381   3.156
64079W        W36504  38.476   9.599   4.054
64080W        W36505  24.772   8.765   3.208
64081W        W36506   4.302  33.425   4.923
64082W        W36507  40.757  42.454   1.265
64083W        W36508  37.862   6.231  12.863
64084W        W36509  31.571  22.116  13.795
64085W        W36510  26.073  18.295  11.825
64086W        W36511  11.318  38.986   3.211
64087W        W36512  17.705  40.350  10.747
64088W        W36513   0.524  14.616  12.401
64089W        W36514  11.322  33.488  13.467
64090W        W36515   2.436  34.702  12.686
64091W        W36516   4.237  44.225   3.260
64092W        W36517  37.981  22.618  12.591
64093W        W36518  19.544   5.172  10.730
64094W        W36519  21.821  12.131   1.886
64095W        W36520   1.650  18.142   2.683
64096W        W36521  42.550  38.067   4.019
64097W        W36522   3.949  14.472  13.874
64098W        W36523   7.788  40.324   4.133
64099W        W36524  17.276  14.753  13.809
64100W        W36525  36.684  40.948  14.902
64101W        W36526   7.813   4.836  11.076
64102W        W36527  28.130  14.853   0.303
64103W        W36528   6.758   7.759   4.649
64104W        W36529  35.399  16.249   2.307
64105W        W36530  31.766   5.739  13.583
64106W        W36531  42.680  42.077  12.656
64107W        W36532  41.283  43.203  11.792
64108W        W36533  18.038  31.344  13.455
64109W        W36534   8.957  32.421   1.811
64110W        W36535   9.119  43.414   2.751
64111W        W36536  27.724  21.733  11.064
64112W        W36537  34.970  25.218  12.894
64113W        W36538  42.741  13.771  12.288
64114W        W36539  28.389   5.772  12.051
64115W        W36540  37.349  33.599   3.917
64116W        W36541  40.444  16.030  11.980
64117W        W36542   8.598  33.909   2.685
64118W        W36543  41.342  33.581   1.940
64119W        W36544   7.109  19.106   1.672
64120W        W36545  29.077  15.108   3.857
64121W        W36546  14.377  25.653   0.403
64122W        W36547  32.712  11.609  12.500
64123W        W36548  24.699  14.520   3.077
64124W        W36549  30.857  11.123  14.426
64125W        W36550   0.462  41.822  13.919
64126W        W36551  28.170  13.232   0.990
64127W        W36552  15.212  18.800  10.711
64128W        W36553  40.368  38.098   3.296
64129W        W36554  22.107   4.730   0.495
64130W        W36555  17.444   6.212  12.061
64131W        W36556  31.157  18.868  12.460
64132W        W36557  41.862   6.691   1.415
64133W        W36558   6.714  16.813   0.720
64134W        W36559  36.749  40.013   2.678
64135W        W36560  33.489  21.623   0.994
64136W        W36561  15.892  29.156   0.844
64137W        W36562  15.085  21.679   4.837
64138W        W36563  15.039  10.895   2.756
64139W        W36564   8.860  19.196  13.600
64140W        W36565   7.282  20.252   3.364
64141W        W36566   6.880  10.842  12.825
64142W        W36567   9.786  37.991  12.083
64143W        W36568   3.806  15.850  13.128
64144W        W36569  25.489   3.036  10.806
64145W        W36570  16.227  33.356   2.885
64146W        W36571  41.845  14.300  14.155
64147W        W36572  30.042  18.449   2.571
64148W        W36573   4.234  17.691  11.617
64149W        W36574  23.594   4.260  13.087
64150W        W36575  19.610  14.583  11.197
64151W        W36576   9.018   1.933  14.822
64152W        W36577  10.236   8.933   4.603
64153W        W36578   0.936  17.463   0.444
64154W        W36579  25.473  17.888   3.636
64155W        W36580  43.842  38.470   4.712
64156W        W36581   8.154  28.805  10.692
64157W        W36582  37.004  30.739  12.784
64158W        W36583  21.345  26.159   2.565
64159W        W36584  29.487   2.014  12.842
64160W        W36585  17.248  10.478   1.893
64161W        W36586   9.036   3.536   0.432
64162W        W36587   9.355  23.989   3.743
64163W        W36588  17.727  38.595  11.000
64164W        W36589  21.532  43.043   4.739
64165W        W36590  35.963   6.804  14.931
64166W        W36591  31.960  20.087  14.280
64167W        W36592  43.494  43.500   0.719
64168W        W36593  21.405   6.000   3.395
64169W        W36594   3.184  40.156   5.007
64170W        W36595  21.968  26.129   3.317
64171W        W36596  33.177  35.622  10.234
64172W        W36597   4.239  11.763  14.018
64173W        W36598   2.490  27.919  13.046
64174W        W36599  39.120  29.682   4.787
64175W        W36600  18.165  40.605  11.569
64176W        W36601  16.065  11.847  12.835
64177W        W36602  34.078   7.802   0.954
64178W        W36603  22.925  40.577   4.114
64179W        W36604  25.477   9.332  12.866
64180W        W36605  18.252   3.794   0.417
64181W        W36606   2.059  29.386  13.498
64182W        W36607  38.571   9.747   2.123
64183W        W36608  15.526   9.290   3.666
64184W        W36609  28.923  29.707  14.361
64185W        W36610  34.219  40.941  11.209
64186W        W36611  29.640  14.963  12.105
64187W        W36612  24.204  20.471  14.457
64188W        W36613   0.810  36.454   3.741
64189W        W36614  14.092  28.355   2.391
64190W        W36615   4.135   7.257  11.057
64191W        W36616  19.137  33.441   0.093
64192W        W36617  17.819  40.048   0.924
64193W        W36618  23.713  22.217   1.000
64194W        W36619  44.176  10.142   4.426
64195W        W36620  21.599  35.825   3.737
64196W        W36621  31.965   6.005   2.964
64197W        W36622  10.742  23.214   1.464
64198W        W36623   0.294  29.565  10.723
64199W        W36624  29.930  14.636   4.185
64200W        W36625  13.032  33.927  12.169
64201W        W36626  10.698  19.230   0.511
64202W        W36627   6.663   0.942  14.870
64203W        W36628   8.194  14.981  11.664
64204W        W36629  44.902   7.651  10.767
64205W        W36630  40.948  32.607  11.575
64206W        W36631  37.789  18.707   4.633
64207W        W36632  36.128  17.089  14.039
64208W        W36633   1.479  38.276   0.369
64209W        W36634  40.514   7.066  11.162
64210W        W36635  15.188  16.738  10.605
64211W        W36636  43.230  13.594   1.405
64212W        W36637  31.934  20.181   3.557
64213W        W36638  10.394  13.247  12.518
64214W        W36639  17.876   5.380  13.295
64215W        W36640   8.527  18.170  11.085
64216W        W36641   0.285  38.578  11.996
64217W        W36642  36.410  12.271  14.979
64218W        W36643  26.034  23.107   3.820
64219W        W36644  42.730  26.049  11.552
64220W        W36645  11.606  21.135   1.326
64221W        W36646  31.286  14.174  12.557
64222W        W36647  24.035  25.967  14.950
64223W        W36648  23.909   2.791  14.676
64224W        W36649   4.004  42.933   0.247
64225W        W36650  18.546  17.677  12.030
64226W        W36651  39.986  16.731   3.440
64227W        W36652  31.832  38.145  12.868
64228W        W36653   1.485  24.182   0.847
64229W        W36654  13.685  44.541   4.251
64230W        W36655  44.419   9.308  14.867
64231W        W36656  19.118  40.997  10.700
64232W        W36657  14.481  37.601   5.141
64233W        W36658  39.835  14.385   3.560
64234W        W36659  18.680   7.622  13.070
64235W        W36660  25.639  35.837  10.946
64236W        W36661  15.620  16.810  13.091
64237W        W36662  26.679  31.186  13.459
64238W        W36663  34.897  33.845   4.595
64239W        W36664  10.647   7.353   4.757
64240W        W36665   4.825  40.269  10.560
64241W        W36666   8.162  11.048   0.294
64242W        W36667  26.439  34.961   1.924
64243W        W36668  27.151   6.450   4.049
64244W        W36669  37.822  22.012   3.197
64245W        W36670  40.542  13.221   3.263
64246W        W36671  33.147  30.023   4.615
64247W        W36672  14.256  40.697   2.819
64248W        W36673  18.688  30.919  14.230
64249W        W36674  25.620  43.962  14.560
64250W        W36675   3.674  33.562   1.710
64251W        W36676  14.020  19.654  12.918
64252W        W36677  15.089  19.091   1.458
64253W        W36678  41.432  35.501  14.265
64254W        W36679  11.907  31.797   4.172
64255W        W36680   1.505  39.489   2.855
64256W        W36681  41.021  14.097   1.349
64257W        W36682   5.542  38.788   3.843
64258W        W36683   9.682   1.807   1.385
64259W        W36684  31.880  32.220  14.828
64260W        W36685  29.639  10.620  14.480
64261W        W36686   8.725  15.944  14.873
64262W        W36687  24.099   9.878   0.922
64263W        W36688  13.892   6.702   0.365
64264W        W36689  31.148   7.520  12.017
64265W        W36690  35.476  21.985   2.090
64266W        W36691  32.201  26.770  14.653
64267W        W36692  33.007   1.916  10.980
64268W        W36693  24.109  25.946   2.314
64269W        W36694   4.976   7.651  13.140
64270W        W36695   2.013  42.881   0.259
64271W        W36696  26.184  42.969  12.460
64272W        W36697  17.477   7.485   0.889
64273W        W36698  13.301  21.688   4.238
64274W        W36699  16.561  16.975   2.301
64275W        W36700   3.267  31.597  12.554
64276W        W36701   6.229  40.808  12.870
64277W        W36702  18.154  21.165  12.560
64278W        W36703  26.745  20.710   0.531
64279W        W36704   3.847  28.733  13.042
64280W        W36705  39.122  16.635   4.562
64281W        W36706   4.975  23.781   2.209
64282W        W36707  19.400   6.730  13.466
64283W        W36708   8.375  16.126   4.338
64284W        W36709  15.935  15.631   0.929
64285W        W36710  11.206  13.151   2.816
64286W        W36711  13.621  22.572   1.816
64287W        W36712  43.763  37.985  10.556
64288W        W36713  36.769  11.781   0.663
64289W        W36714  40.040  32.526   0.428
64290W        W36715   0.759  12.217   2.874
64291W        W36716  33.950   2.999   2.773
64292W        W36717  43.528  13.210   0.424
64293W        W36718  40.238  38.321   0.237
64294W        W36719  44.963  25.671  11.912
64295W        W36720  15.362   3.342  13.864
64296W        W36721   1.390  10.160   2.213
64297W        W36722   1.493  23.599   4.838
64298W        W36723  23.676  33.286  12.829
64299W        W36724  20.896  42.864  14.945
64300W        W36725  21.145  31.828   0.331
64301W        W36726   9.609  36.120  14.298
64302W        W36727  44.847   6.270  12.201
64303W        W36728  32.057  36.553   4.765
64304W        W36729  35.457  41.565  10.456
64305W        W36730  10.310   1.001  13.128
64306W        W36731   4.350  31.695  14.827
64307W        W36732   1.841  13.075   1.197
64308W        W36733  35.057  44.253   3.417
64309W        W36734  18.214   3.756   0.955
64310W        W36735  44.506  11.823  12.591
64311W        W36736   5.326   3.796   2.522
64312W        W36737   3.188  11.909  11.112
64313W        W36738  43.503  37.589   0.917
64314W        W36739  42.734  12.748  13.864
64315W        W36740   7.652  37.826   0.336
64316W        W36741  29.381  39.429  13.848
64317W        W36742   4.445  24.181  12.875
64318W        W36743  20.185  28.800   3.758
64319W        W36744  12.807  19.745  14.752
64320W        W36745  40.296  38.680   2.073
64321W        W36746  16.617  29.687  13.542
64322W        W36747  44.568  35.491  11.301
64323W        W36748  21.625  24.923  13.068
64324W        W36749  43.076  39.079  12.473
64325W        W36750  31.535  39.795  14.883
64326W        W36751   3.802  37.472   1.198
64327W        W36752  19.641   0.405   3.184
64328W        W36753  23.504  36.646   2.726
64329W        W36754   7.001  31.008  12.312
64330W        W36755   3.911  22.283  13.930
64331W        W36756  38.082  40.851  13.324
64332W        W36757  26.740  25.289  10.676
64333W        W36758  42.568  19.897  12.587
64334W        W36759  41.519  22.534  13.575
64335W        W36760  34.898  43.872   3.113
64336W        W36761   4.199  33.593  11.353
64337W        W36762   7.786  13.845   2.340
64338W        W36763  13.300  12.205   4.426
64339W        W36764  27.869  23.066   1.780
64340W        W36765   5.943  14.240   2.145
64341W        W36766   7.177  11.680  10.863
64342W        W36767  28.698  33.815  11.654
64343W        W36768   6.021  38.462   2.897
64344W        W36769  15.589  18.229   4.495
64345W        W36770  26.435  15.421   3.904
64346W        W36771  31.043  27.460  11.421
64347W        W36772   4.006  18.173  13.446
64348W        W36773  42.320  39.420   1.746
64349W        W36774   7.742  37.102   0.879
64350W        W36775  24.057  18.567   3.171
64351W        W36776  15.023  39.428  10.605
64352W        W36777  17.522  12.590   1.308
64353W        W36778  31.987  41.445   2.648
64354W        W36779  11.290  35.417   2.418
64355W        W36780  30.351  33.549  14.855
64356W        W36781  28.752  41.975  13.927
64357W        W36782  11.853   8.416   1.170
64358W        W36783  34.081  35.906   0.001
64359W        W36784  15.134  35.392   3.257
64360W        W36785   9.358   8.186  11.056
64361W        W36786  29.429   0.436  13.327
64362W        W36787  30.236  36.584   2.441
64363W        W36788  18.275  33.713   3.723
64364W        W36789  25.674  23.776  11.378
64365W        W36790  37.446   4.690   0.307
64366W        W36791  36.101   9.173   2.142
64367W        W36792  26.505  24.335  13.023
64368W        W36793   6.305  31.486  13.218
64369W        W36794  25.091  35.347  11.418
64370W        W36795   5.429   8.800  12.428
64371W        W36796   0.543  34.074   1.804
64372W        W36797   7.285  39.581  11.621
64373W        W36798  33.583  16.615   1.819
64374W        W36799   0.774  12.149   3.387
64375W        W36800  19.338  38.273   1.365
64376W        W36801  43.523   4.251  11.986
64377W        W36802  29.428  32.446   1.108
64378W        W36803  22.782  19.429  10.399
64379W        W36804   7.902  32.007  10.615
64380W        W36805  12.505   4.219   5.025
64381W        W36806  15.386  36.485   1.952
64382W        W36807   0.199  13.829   1.437
64383W        W36808  44.768  26.610   1.029
64384W        W36809  40.853  44.312   3.264
64385W        W36810  10.225  31.824  11.105
64386W        W36811  34.459  18.027   3.227
64387W        W36812   7.098  19.065  13.882
64388W        W36813  14.005  30.733   1.404
64389W        W36814  25.932   4.851  12.350
64390W        W36815  15.240  23.005   0.887
64391W        W36816   2.895   7.592   0.974
64392W        W36817  44.437  44.906  12.885
64393W        W36818  31.889  24.937   0.265
64394W        W36819  12.771  34.667  13.388
64395W        W36820   4.548  26.696  14.711
64396W        W36821  42.373  20.254   0.936
64397W        W36822   5.869  17.849  12.517
64398W        W36823  33.059   4.933  13.525
64399W        W36824  44.325  42.350   0.777
64400W        W36825  41.062  33.390  11.037
64401W        W36826  16.941  22.760  14.011
64402W        W36827  16.257  38.904  14.426
64403W        W36828  23.598   1.757  13.878
64404W        W36829  43.243  21.455  11.567
64405W        W36830   0.370   8.302  10.831
64406W        W36831   7.927  11.871   3.226
64407W        W36832  18.658   9.157  10.720
64408W        W36833  35.798  28.488  10.512
64409W        W36834  33.866   9.199  11.470
64410W        W36835  17.137  21.289   4.949
64411W        W36836  15.722   7.446   1.329
64412W        W36837  24.934  20.660   1.493
64413W        W36838   4.969  13.055  12.526
64414W        W36839   3.470  10.398   2.348
64415W        W36840  25.444  36.079   1.365
64416W        W36841  12.697   5.372   1.960
64417W        W36842  28.233  30.381  10.043
64418W        W36843  44.414  29.099   1.935
64419W        W36844  38.629  29.575   4.616
64420W        W36845   8.583  31.029  11.148
64421W        W36846   9.123   2.062  12.462
64422W        W36847  19.228  12.767   2.334
64423W        W36848  36.028  14.199  14.934
64424W        W36849  36.878  29.044   0.792
64425W        W36850  15.128   3.642   0.062
64426W        W36851  23.217  44.319  12.210
64427W        W36852  31.891  35.243  10.954
64428W        W36853  42.367  20.797  13.771
64429W        W36854  35.948  30.357  10.651
64430W        W36855  19.754   5.354   1.232
64431W        W36856  24.612  35.587  13.556
64432W        W36857  15.024  40.570   1.398
64433W        W36858  17.758  21.647   0.401
64434W        W36859  31.990  17.507  12.104
64435W        W36860  25.802  18.203   1.704
64436W        W36861  21.965   4.111   2.340
64437W        W36862   1.192  10.086  14.250
64438W        W36863  40.076  35.033  13.626
64439W        W36864  41.831   4.007   0.218
64440W        W36865  20.213  23.823  10.387
64441W        W36866  33.407  23.147   2.737
64442W        W36867  27.134   5.479  13.878
64443W        W36868  33.409  33.092  11.615
64444W        W36869  29.914  43.174  12.595
64445W        W36870  40.200   5.957  11.526
64446W        W36871  36.110  34.936   2.278
64447W        W36872  21.206  40.240  12.029
64448W        W36873  36.070  18.250   4.427
64449W        W36874  34.399  43.840   3.335
64450W        W36875  19.001  35.916   4.627
64451W        W36876  26.290   6.831  14.371
64452W        W36877  18.601  35.602   4.640
64453W        W36878  24.257  28.522   1.693
64454W        W36879   0.717  43.494  14.774
64455W        W36880  38.715  19.548   2.353
64456W        W36881  16.519  35.570   1.516
64457W        W36882   0.977  22.728  10.286
64458W        W36883  20.548  42.500   4.072
64459W        W36884   7.985   9.324   2.709
64460W        W36885  18.501  15.249  14.818
64461W        W36886   2.302  19.368   0.847
64462W        W36887   0.433  23.772   0.454
64463W        W36888  30.528  30.158  11.115
64464W        W36889  30.941  40.794   0.292
64465W        W36890   3.465  38.482  12.481
64466W        W36891   2.270  14.601  12.018
64467W        W36892  15.056  42.741   0.807
64468W        W36893  26.101  24.729  12.930
64469W        W36894  42.260  21.669   3.580
64470W        W36895  14.822  23.139   9.699
64471W        W36896  43.801  30.234  11.999
64472W        W36897   9.719   1.389  12.128
64473W        W36898  25.000  15.243  13.904
64474W        W36899  14.624   3.599   4.130
64475W        W36900  38.583  26.187   3.865
64476W        W36901  17.213  10.055  10.503
64477W        W36902  22.309  26.898   4.986
64478W        W36903  24.176   7.335  14.839
64479W        W36904  42.455  11.644  12.882
64480W        W36905  10.469   7.100   4.111
64481W        W36906  24.508  29.102   1.468
64482W        W36907   2.110  28.081  11.735
64483W        W36908  20.298  31.435  14.770
64484W        W36909  37.744   4.867  14.422
64485W        W36910  22.968  31.071  14.403
64486W        W36911  23.279  30.435  13.694
64487W        W36912  42.826  14.240   5.222
64488W        W36913  28.110  16.986   1.884
64489W        W36914  20.654  15.527  13.992
64490W        W36915  18.198  28.877   0.991
64491W        W36916  43.330   9.169   1.530
64492W        W36917  15.813  10.893   2.278
64493W        W36918  41.763  33.441   3.765
64494W        W36919  33.524  32.548   2.307
64495W        W36920  31.670   8.076   1.272
64496W        W36921  30.958  15.114   2.442
64497W        W36922  35.410  31.645   4.777
64498W        W36923  13.859  29.732   2.224
64499W        W36924   4.143  29.041   1.765
64500W        W36925  14.643  44.844   1.960
64501W        W36926  18.577  40.286   2.105
64502W        W36927  43.970   6.672  10.628
64503W        W36928   0.420  10.329  10.436
64504W        W36929  26.495   9.372   2.050
64505W        W36930  29.943  33.087   2.324
64506W        W36931  12.657   6.767  11.472
64507W        W36932  32.566  41.245  14.835
64508W        W36933  10.726  11.345   4.032
64509W        W36934  18.151  10.636  12.320
64510W        W36935   7.516   8.178  13.009
64511W        W36936  15.539  31.133  12.070
64512W        W36937  11.282  34.216  12.618
64513W        W36938   9.830  30.857   2.679
64514W        W36939  23.494  13.267   1.863
64515W        W36940  27.152   7.210   3.604
64516W        W36941  21.925   5.491   4.077
64517W        W36942  13.178   8.908   3.674
64518W        W36943  17.832  38.025   3.659
64519W        W36944  29.623  23.521  12.858
64520W        W36945  16.016  31.344   4.678
64521W        W36946  14.329   1.234  12.938
64522W        W36947  30.983  42.093  11.302
64523W        W36948  24.529  44.249   0.765
64524W        W36949  35.107   9.366   0.321
64525W        W36950  10.336   1.593  11.952
64526W        W36951  35.390  25.672   4.313
64527W        W36952  22.982  11.842   3.625
64528W        W36953   6.806  41.804  13.601
64529W        W36954   7.384   9.172   0.681
64530W        W36955   2.932  27.046   4.156
64531W        W36956   7.902  28.526  12.455
64532W        W36957   0.626  21.687  12.968
64533W        W36958  42.050   4.242  11.966
64534W        W36959  44.000  25.153   3.327
64535W        W36960  11.636  34.913  13.730
64536W        W36961   6.609  24.672  11.217
64537W        W36962  36.821  25.986  11.707
64538W        W36963  19.465  43.341  12.973
64539W        W36964  31.428  38.836   0.677
64540W        W36965   0.963  22.052   4.059
64541W        W36966  40.785  18.260  10.648
64542W        W36967  28.153  24.159  14.771
64543W        W36968   1.274  28.958  11.190
64544W        W36969  20.074   3.606  12.036
64545W        W36970   8.209  34.024  10.690
64546W        W36971  27.914  21.779   0.354
64547W        W36972  29.215  27.543   2.654
64548W        W36973   8.075  30.966  11.358
64549W        W36974  10.197  33.018   0.816
64550W        W36975  36.993  24.937  13.395
64551W        W36976   8.098  42.022   1.464
64552W        W36977  21.242  12.779  13.818
64553W        W36978  42.019  29.774   1.779
64554W        W36979  17.111  29.895  14.436
64555W        W36980  20.139  33.197   2.639
64556W        W36981  22.210  42.323   4.501
64557W        W36982  44.223  31.862   2.293
64558W        W36983  33.449   6.903   4.574
64559W        W36984  21.148  44.328  14.152
64560W        W36985   0.997  16.146  14.790
64561W        W36986   2.872  41.876   3.138
64562W        W36987  27.853   4.893  12.182
64563W        W36988  44.974  32.049   5.015
64564W        W36989  27.678  20.666   0.029
64565W        W36990  22.089  24.650  11.345
64566W        W36991  21.262  30.803   9.805
64567W        W36992  11.230  38.913  12.468
64568W        W36993  39.805  30.686   1.929
64569W        W36994  22.585  16.744   4.230
64570W        W36995  34.639  32.436  14.906
64571W        W36996  30.487  20.976  14.590
64572W        W36997  44.997   1.753  14.380
64573W        W36998   3.668  14.837  11.114
64574W        W36999  11.327   3.885   5.035
64575W        W37000  42.419  18.799  11.476
64576W        W37001  31.466   1.661   3.579
64577W        W37002  35.226  36.454  14.473
64578W        W37003  35.083  39.439  11.487
64579W        W37004  19.274  16.870   2.269
64580W        W37005   0.303  41.093  13.464
64581W        W37006  27.369  27.604   1.381
64582W        W37007   8.012  40.498   2.284
64583W        W37008  10.712  31.227  12.976
64584W        W37009  34.544   5.271  12.353
64585W        W37010  28.018  29.453   0.260
64586W        W37011  11.872   3.038  12.372
64587W        W37012  18.525  30.509  14.506
64588W        W37013  40.610  23.016  13.447
64589W        W37014  29.908   6.884   0.517
64590W        W37015   8.628  32.556   3.639
64591W        W37016  25.209  44.091  11.646
64592W        W37017  43.091  33.023   1.924
64593W        W37018  21.302  11.581  13.969
64594W        W37019  14.827  39.951  12.800
64595W        W37020   8.852   3.828  12.370
64596W        W37021  35.752   5.794   4.602
64597W        W37022  34.191  36.450  14.269
64598W        W37023  34.681  42.862   3.800
64599W        W37024  41.493  28.045  13.528
64600W        W37025  17.112   9.342   3.208
64601W        W37026  37.043  19.525  12.610
64602W        W37027  39.228  12.179   1.962
64603W        W37028  20.150  15.581  14.246
64604W        W37029  39.822  14.287   4.063
64605W        W37030  18.041  30.531  10.927
64606W        W37031   0.102  30.583  12.126
64607W        W37032  30.052  34.187   0.462
64608W        W37033  24.494  44.754  14.959
64609W        W37034  42.679  27.242  11.494
64610W        W37035  18.392  38.353  11.558
64611W        W37036  29.548  40.534  12.953
64612W        W37037  33.613   3.827  11.438
64613W        W37038  23.035  10.663  13.844
64614W        W37039  32.869   2.510   3.784
64615W        W37040  41.478  37.918   3.832
64616W        W37041  14.678   8.903   5.004
64617W        W37042   7.308  24.206  10.673
64618W        W37043  25.139  11.177  14.598
64619W        W37044  11.252  12.147   2.708
64620W        W37045   6.202  17.189  14.461
64621W        W37046   1.869   8.656  12.209
64622W        W37047  22.428  40.699  14.033
64623W        W37048  27.659  33.014  13.546
64624W        W37049  24.071  24.441   1.207
64625W        W37050  15.089  37.594   2.205
64626W        W37051   9.165   7.206   4.538
64627W        W37052   8.938  22.619  11.445
64628W        W37053  40.933  44.869  10.979
64629W        W37054  28.075  21.317   1.449
64630W        W37055  35.497  21.776  11.447
64631W        W37056  17.113  35.885   0.226
64632W        W37057  35.582  19.979   3.134
64633W        W37058  42.839   7.652   0.921
64634W        W37059  36.405  22.121  11.076
64635W        W37060  20.256  26.213  14.481
64636W        W37061  23.626   6.454  14.405
64637W        W37062   4.626  15.379  11.526
64638W        W37063  28.399  33.240   2.169
64639W        W37064  11.744  37.914   1.687
64640W        W37065   0.453  29.543   3.575
64641W        W37066  25.098  36.401   2.904
64642W        W37067   0.859   4.202  12.091
64643W        W37068  25.597   6.681   4.109
64644W        W37069  10.607  27.414   4.457
64645W        W37070  14.419  11.763   0.940
64646W        W37071  37.356   0.038  13.854
64647W        W37072  21.740   0.324   0.707
64648W        W37073  34.920  31.493  11.113
64649W        W37074  42.901   4.301  13.873
64650W        W37075  39.133  17.075   4.850
64651W        W37076  24.075  35.060   3.020
64652W        W37077   1.984  15.539  12.275
64653W        W37078  39.906  32.148   2.853
64654W        W37079  40.571  27.147   1.372
64655W        W37080  10.907  28.234  12.487
64656W        W37081  25.676  41.829   0.471
64657W        W37082  19.569  34.569  14.454
64658W        W37083  19.502  16.031  13.025
64659W        W37084  40.553   8.205   0.821
64660W        W37085  10.817  21.051   3.806
64661W        W37086  13.748  31.652  12.108
64662W        W37087   3.006  33.098  13.363
64663W        W37088  41.251  11.589  11.923
64664W        W37089  12.692   3.352   5.331
64665W        W37090  36.622  23.228   4.126
64666W        W37091  33.965  27.007   0.209
64667W        W37092  19.294  33.486  12.666
64668W        W37093  10.380   3.261  14.832
64669W        W37094  11.376  37.399   4.283
64670W        W37095  36.775  18.624  14.500
64671W        W37096  18.171  18.161   0.575
64672W        W37097  19.022  29.600   4.976
64673W        W37098  42.349  40.921   1.723
64674W        W37099  43.602  26.889  14.811
64675W        W37100  19.680  34.051  13.122
64676W        W37101  18.581   3.436  13.493
64677W        W37102  28.569  20.187  11.374
64678W        W37103  21.654   5.321   1.148
64679W        W37104  14.269   9.916  12.900
64680W        W37105  10.318   5.679  11.660
64681W        W37106  13.074  27.374   4.095
64682W        W37107  27.374  19.745  14.350
64683W        W37108  10.428   9.671  12.982
64684W        W37109  38.445   0.286   4.818
64685W        W37110   6.110   4.952   5.193
64686W        W37111  12.729   5.655  10.651
64687W        W37112   0.462  20.276   1.863
64688W        W37113   5.932  19.081   2.579
64689W        W37114  30.028  16.559   1.717
64690W        W37115   4.381  12.644   3.462
64691W        W37116   2.320  28.905  11.535
64692W        W37117  21.704  41.199   2.220
64693W        W37118  25.639  16.865   0.387
64694W        W37119   8.751  35.047   4.814
64695W        W37120  36.560  17.159  14.602
64696W        W37121  13.180  27.567  10.504
64697W        W37122  13.565  32.910  14.328
64698W        W37123   1.024  28.709  14.221
64699W        W37124   2.355  32.002   2.614
64700W        W37125  17.974   4.905   4.193
64701W        W37126   5.945  36.896  13.543
64702W        W37127  35.392   0.243   0.209
64703W        W37128  16.529  43.203  14.440
64704W        W37129  12.411   9.266   3.091
64705W        W37130  25.510  17.708   1.808
64706W        W37131  29.900  30.902   4.617
64707W        W37132  36.049  36.050  12.885
64708W        W37133   3.175   4.920  14.644
64709W        W37134  44.281  39.847   0.490
64710W        W37135  43.583   8.577  13.827
64711W        W37136  16.615   9.253  14.804
64712W        W37137  41.999  23.729  14.244
64713W        W37138  30.855  19.412   4.142
64714W        W37139  38.838  14.685  14.547
64715W        W37140  32.332   0.023   1.435
64716W        W37141  34.910  37.120  14.987
64717W        W37142   7.195  32.139   1.383
64718W        W37143  20.260  17.899  14.452
64719W        W37144  38.597  32.102  10.708
64720W        W37145  17.556   2.350  13.486
64721W        W37146  20.827  18.866   3.700
64722W        W37147   9.237  19.175  12.871
64723W        W37148   7.988  31.426   1.235
64724W        W37149  24.067  31.864   3.130
64725W        W37150   1.711  27.353   2.367
64726W        W37151  43.298  34.920   1.910
64727W        W37152   6.403  38.854  12.866
64728W        W37153  28.158  21.736   3.534
64729W        W37154   3.466  21.943   3.184
64730W        W37155  21.439  17.703   2.633
64731W        W37156  25.681  37.464  14.748
64732W        W37157   9.778   0.721   0.492
64733W        W37158  10.727  40.836  12.479
64734W        W37159   1.226  19.303  11.619
64735W        W37160  13.082  26.821   5.180
64736W        W37161  16.965  17.051  12.595
64737W        W37162  20.064  26.585   2.317
64738W        W37163  28.678  40.391   0.342
64739W        W37164  32.695  31.933   4.302
64740W        W37165  14.009  35.977   2.420
64741W        W37166  35.081  29.363   1.700
64742W        W37167   5.226  22.476  14.585
64743W        W37168   0.908   9.140  12.416
64744W        W37169  18.644  43.965  12.467
64745W        W37170  32.176  37.116   1.207
64746W        W37171  44.851  20.773   4.450
64747W        W37172   2.392  40.067   0.957
64748W        W37173  11.607  29.080  14.375
64749W        W37174   0.342  20.647   2.933
64750W        W37175  28.422  18.145  14.477
64751W        W37176  11.403   6.155   4.882
64752W        W37177   4.236  26.944  10.427
64753W        W37178  33.531  43.261   0.877
64754W        W37179   6.842  29.513  10.424
64755W        W37180  18.701  12.482   3.571
64756W        W37181   3.294   6.965   2.394
64757W        W37182  35.464  16.248   1.450
64758W        W37183  28.081  20.875  14.083
64759W        W37184  37.506  16.184  13.939
64760W        W37185  38.934  41.739  13.429
64761W        W37186  20.524  33.617  14.622
64762W        W37187  30.834  25.001  11.687
64763W        W37188  20.691  32.337   3.425
64764W        W37189  44.972  34.959   1.278
64765W        W37190  17.454  35.338   1.264
64766W        W37191  12.877  20.550   3.716
64767W        W37192  31.448  22.090  11.149
64768W        W37193  14.381  29.915   2.198
64769W        W37194  32.519  23.679   4.191
64770W        W37195  23.940  33.470   4.246
64771W        W37196  26.327  33.091  11.134
64772W        W37197  24.219  21.608  11.265
64773W        W37198  38.402  19.655  10.724
64774W        W37199  40.980  26.629  12.062
64775W        W37200   6.459  25.235  12.548
64776W        W37201  10.701  35.054   3.804
64777W        W37202  30.955  22.838  10.962
64778W        W37203   6.404  21.934  13.349
64779W        W37204  31.840   1.389  14.850
64780W        W37205  11.196  11.243   1.636
64781W        W37206  12.225  15.674  13.540
64782W        W37207  19.246   7.694   4.537
64783W        W37208  16.220  24.342  14.023
64784W        W37209  39.030  10.944   1.949
64785W        W37210  25.033  22.046   0.293
64786W        W37211  14.837   9.393  11.494
64787W        W37212  37.919  36.029   3.710
64788W        W37213  43.797   6.058   0.379
64789W        W37214   0.515  30.441   0.363
64790W        W37215  12.806  10.589   0.433
64791W        W37216  26.096   7.318  10.641
64792W        W37217  19.812  40.582  12.329
64793W        W37218  19.700  44.829  14.671
64794W        W37219  44.001  44.871  13.145
64795W        W37220  25.520  35.336  11.690
64796W        W37221  13.119   6.933   4.564
64797W        W37222  24.549  26.087   1.339
64798W        W37223   9.643   5.801   3.329
64799W        W37224  15.273  22.093  12.954
64800W        W37225   3.845  17.494  10.563
64801W        W37226  14.310   8.817   0.708
64802W        W37227  17.111  12.176   0.718
64803W        W37228  15.601   5.886  14.424
64804W        W37229  18.321  21.662  11.853
64805W        W37230   2.036   2.193  12.989
64806W        W37231   4.578  18.559  10.395
64807W        W37232  40.025  13.147   4.146
64808W        W37233  44.953   2.269   4.400
64809W        W37234   8.560  30.505   1.147
64810W        W37235  40.184  32.376   1.640
64811W        W37236  43.338   1.846   4.902
64812W        W37237  20.053  10.459  14.970
64813W        W37238  22.638  33.659   2.865
64814W        W37239  15.598   8.620  14.893
64815W        W37240  24.644  22.343   0.464
64816W        W37241  27.447  14.173  14.279
64817W        W37242  44.312  28.440   2.736
64818W        W37243  43.587  30.995  13.347
64819W        W37244  33.950  12.770   2.937
64820W        W37245  28.206   3.225  12.468
64821W        W37246  21.803  27.548  14.821
64822W        W37247  21.497  11.080  13.946
64823W        W37248   9.623  20.851   3.730
64824W        W37249  24.484  34.019  13.882
64825W        W37250  25.436  19.522  12.512
64826W        W37251  42.746  32.246  12.861
64827W        W37252   7.125  22.017   4.040
64828W        W37253   4.938  29.558  11.427
64829W        W37254  22.759  40.359   0.935
64830W        W37255   7.360  34.189   4.485
64831W        W37256  42.506  22.139  10.547
64832W        W37257  33.094  18.174   2.893
64833W        W37258  25.141  21.224  14.420
64834W        W37259  36.800  15.246   1.875
64835W        W37260   0.161   5.737   1.783
64836W        W37261   3.350   6.714  12.232
64837W        W37262  30.435  25.250  11.110
64838W        W37263  14.366   3.767   5.743
64839W        W37264   6.732  22.342   3.969
64840W        W37265  31.360  21.652   2.200
64841W        W37266  23.735   0.478   4.156
64842W        W37267  19.214  37.890  14.170
64843W        W37268  26.909  22.016  14.482
64844W        W37269   1.999  41.963   0.829
64845W        W37270  35.048  35.363   3.662
64846W        W37271  37.108  25.997   3.221
64847W        W37272  36.586  14.795   3.799
64848W        W37273  28.562  38.176  12.979
64849W        W37274  29.424  10.886   2.814
64850W        W37275  27.473  27.626   0.249
64851W        W37276  36.046  26.447   0.400
64852W        W37277  28.575  25.006  14.401
64853W        W37278   9.619  42.388   3.236
64854W        W37279  15.554  13.047   4.957
64855W        W37280  10.712  14.240   3.427
64856W        W37281  19.733  13.030  13.074
64857W        W37282   8.752  33.899  13.546
64858W        W37283   1.786  41.910  11.796
64859W        W37284  37.909  36.944  12.397
64860W        W37285  16.106  41.543  13.755
64861W        W37286  13.766   5.710   3.519
64862W        W37287  33.926  38.462   2.335
64863W        W37288  37.043  38.281   4.271
64864W        W37289  15.157  21.501   2.390
64865W        W37290  41.938  42.545  13.955
64866W        W37291  35.185  37.634  13.829
64867W        W37292  43.983  20.705   3.899
64868W        W37293  37.155  15.517  10.636
64869W        W37294  26.189  31.947   2.851
64870W        W37295  39.964  16.307   0.732
64871W        W37296  11.892  33.932  11.504
64872W        W37297  34.709  44.758  14.724
64873W        W37298  22.120  41.279   1.224
64874W        W37299  39.406   2.898  14.339
64875W        W37300  15.009   0.019   3.411
64876W        W37301  16.780  22.301  12.772
64877W        W37302  32.062   1.894  10.718
64878W        W37303   5.628  30.894   1.285
64879W        W37304  33.798  29.923   1.399
64880W        W37305  35.441   7.872  12.573
64881W        W37306  32.545  38.519  11.625
64882W        W37307  33.198  42.253   0.310
64883W        W37308  18.779  41.372  14.435
64884W        W37309  33.627   3.235  12.795
64885W        W37310  14.776   3.833  10.225
64886W        W37311  25.841  19.766   3.669
64887W        W37312  28.167  11.139   2.712
64888W        W37313  44.873   0.770   2.437
64889W        W37314  30.323  32.059  14.957
64890W        W37315  28.152  36.998   2.870
64891W        W37316  20.970   3.939  13.600
64892W        W37317   6.651  21.238   2.710
64893W        W37318  12.728  31.839   2.321
64894W        W37319  31.388   4.899   0.815
64895W        W37320  14.106  20.723  14.491
64896W        W37321  40.475  21.655   9.513
64897W        W37322  37.483   0.978   1.199
64898W        W37323  40.055  35.891   2.196
64899W        W37324  17.604  26.139   4.509
64900W        W37325   4.989  35.121  13.419
64901W        W37326  16.000   3.637  14.814
64902W        W37327  34.708   6.648   9.991
64903W        W37328  29.942  27.163  13.496
64904W        W37329  43.045  26.449   3.654
64905W        W37330  26.197  38.448  10.729
64906W        W37331  28.736   4.666  13.127
64907W        W37332   3.395  22.935  10.114
64908W        W37333  16.146  12.479  12.065
64909W        W37334   7.754  38.794  14.012
64910W        W37335  23.650  19.944  10.924
64911W        W37336  11.746  19.566  13.009
64912W        W37337   5.469  38.382  13.564
64913W        W37338  42.701   2.937  13.955
64914W        W37339  10.264  30.935  14.915
64915W        W37340  19.995   7.782  10.718
64916W        W37341  36.801  33.007  14.869
64917W        W37342  23.957  33.408  11.566
64918W        W37343  41.887  42.906   0.736
64919W        W37344   2.612  22.575   0.294
64920W        W37345  36.364  28.083   9.829
64921W        W37346  17.151  26.468   0.797
64922W        W37347   5.426  30.115   4.141
64923W        W37348  21.126  37.192   1.867
64924W        W37349  21.184   9.110   4.601
64925W        W37350  28.440   9.322  13.983
64926W        W37351  27.048   0.166  11.427
64927W        W37352  37.782   1.239  10.351
64928W        W37353  37.730  14.531   3.297
64929W        W37354  32.393  33.583   2.723
64930W        W37355   3.372  23.085   0.431
64931W        W37356  23.441  21.615  10.338
64932W        W37357   0.506   1.749  10.397
64933W        W37358  13.005  20.863   2.246
64934W        W37359  21.333  19.706  13.009
64935W        W37360  25.608  40.117   1.399
64936W        W37361  31.369  13.619   0.680
64937W        W37362  25.858  29.718  14.362
64938W        W37363   3.368  16.699  11.326
64939W        W37364   7.058  27.787  13.516
64940W        W37365  30.652   0.971  11.082
64941W        W37366  36.669  42.438   4.625
64942W        W37367  16.349  22.186   0.326
64943W        W37368   3.863  27.749  14.265
64944W        W37369  19.577  14.190   4.651
64945W        W37370  35.979  29.487  11.156
64946W        W37371  29.341  14.766  10.808
64947W        W37372  32.369  35.772  12.859
64948W        W37373  37.361  31.241   4.599
64949W        W37374  39.431  24.727  12.195
64950W        W37375  28.208  15.240   4.193
64951W        W37376  21.162  21.529   3.083
64952W        W37377  18.834   3.195   1.301
64953W        W37378  36.329   4.964   2.245
64954W        W37379  35.797   7.359   1.064
64955W        W37380  27.632  17.495   0.445
64956W        W37381  17.767  37.327  14.360
64957W        W37382  25.988  27.243  13.790
64958W        W37383  36.126  36.087   3.861
64959W        W37384   0.007  13.850  14.996
64960W        W37385  16.196  23.470  14.122
64961W        W37386   5.932   7.469   0.847
64962W        W37387  36.545  27.703   2.791
64963W        W37388   4.252  23.022   1.958
64964W        W37389   0.869  40.306   1.592
64965W        W37390  17.272   2.330  14.037
64966W        W37391  17.997  42.448   0.677
64967W        W37392  36.946  42.000   4.601
64968W        W37393  14.099  17.091   0.470
64969W        W37394  18.628  44.863   2.337
64970W        W37395   2.513  29.966   2.663
64971W        W37396  21.445  22.558  13.425
64972W        W37397   1.205  38.813   4.033
64973W        W37398  39.526  44.776   3.709
64974W        W37399  39.537  26.828   2.830
64975W        W37400  25.722  36.167  12.131
64976W        W37401  43.500  34.452  13.464
64977W        W37402  30.519  15.874  10.890
64978W        W37403   3.329  25.479  11.715
64979W        W37404  15.730  32.687   3.499
64980W        W37405  17.367  11.371   0.723
64981W        W37406   4.491  34.110  12.900
64982W        W37407  17.173  21.836   4.088
64983W        W37408  28.980  27.586  10.624
64984W        W37409  19.775  13.224   2.669
64985W        W37410  26.178  30.535   3.226
64986W        W37411   5.284  31.368   3.174
64987W        W37412  24.918   9.723  14.395
64988W        W37413  37.670  27.877  13.831
64989W        W37414  21.265   1.312   0.966
64990W        W37415  36.639  28.286  12.997
64991W        W37416  38.341  21.629   3.776
64992W        W37417  36.800  29.450   1.133
64993W        W37418  37.425  36.300  11.007
64994W        W37419   7.719  40.878  11.340
64995W        W37420  16.041  33.457  10.616
64996W        W37421  34.553  25.720  11.867
64997W        W37422  15.301  14.778   4.882
64998W        W37423  38.878  10.890   4.199
64999W        W37424   7.669  43.210  11.297
65000W        W37425   7.657  32.862  12.594
65001W        W37426  28.639  30.900  12.427
65002W        W37427  37.946  32.489  14.009
65003W        W37428  33.582  23.461   4.987
65004W        W37429   9.294  42.869   4.671
65005W        W37430  16.860  43.593   3.619
65006W        W37431  31.603  42.833   0.968
65007W        W37432   9.863   7.178  11.555
65008W        W37433  35.890  22.284  12.626
65009W        W37434  37.515   3.283   3.682
65010W        W37435  43.483  41.785   1.910
65011W        W37436  40.565  36.852   2.944
65012W        W37437  40.080  35.204   1.560
65013W        W37438  19.775  32.869   2.366
65014W        W37439  33.592  16.805   1.331
65015W        W37440  38.352   8.441  11.558
65016W        W37441  40.753   1.384   2.368
65017W        W37442  40.810   8.886   0.315
65018W        W37443  43.951   7.717   1.983
65019W        W37444  43.066   7.761   1.378
65020W        W37445  28.989   0.752   0.931
65021W        W37446  44.319  34.329  11.721
65022W        W37447  25.099  19.271   0.393
65023W        W37448  38.008  16.212  14.880
65024W        W37449  36.289  35.157  12.958
65025W        W37450  24.682   4.265   0.353
65026W        W37451  16.621   5.954  13.855
65027W        W37452  10.786  42.729  13.940
65028W        W37453   0.466  40.534   4.521
65029W        W37454  40.624  34.093  14.537
65030W        W37455  14.466  22.953   1.466
65031W        W37456  19.381  28.622   1.623
65032W        W37457  10.862  34.123   1.947
65033W        W37458  31.112   4.435   4.546
65034W        W37459   7.452  43.282  12.360
65035W        W37460  13.749  33.613  11.554
65036W        W37461  32.396  11.174   0.257
65037W        W37462  37.817  33.540   3.692
65038W        W37463  19.854  21.499  14.393
65039W        W37464  12.851  18.076   4.585
65040W        W37465  13.515  37.386  11.187
65041W        W37466   0.955  24.972   4.075
65042W        W37467  37.194  42.162   0.695
65043W        W37468  20.051  26.108  14.919
65044W        W37469   3.399   0.694   1.627
65045W        W37470  30.880  34.983  13.552
65046W        W37471  16.254  38.696   3.419
65047W        W37472  13.469  11.239  14.337
65048W        W37473  37.818  26.846   0.036
65049W        W37474  22.999  25.854   0.761
65050W        W37475  10.313  38.742  11.488
65051W        W37476  34.387  44.646   3.422
65052W        W37477  14.707  16.763   1.785
65053W        W37478  41.595   2.401  13.400
65054W        W37479  39.930  23.734  14.585
65055W        W37480   7.655   4.203   3.255
65056W        W37481  30.640  34.642   3.809
65057W        W37482  44.218   7.437   4.567
65058W        W37483  13.179  28.724   2.626
65059W        W37484  30.009   9.191  12.169
65060W        W37485  25.726   0.446   0.365
65061W        W37486  37.867   5.714   2.825
65062W        W37487  44.779  16.643  10.604
65063W        W37488   9.182   6.630   3.671
65064W        W37489   7.653  14.112  14.949
65065W        W37490  31.987   8.262  12.240
65066W        W37491  26.035  11.698  11.656
65067W        W37492  13.229  39.470  13.291
65068W        W37493  31.698  34.590   3.736
65069W        W37494  11.653   8.474  11.930
65070W        W37495  39.082  19.915   0.046
65071W        W37496   9.400   9.580   1.358
65072W        W37497  39.987  10.422   3.973
65073W        W37498  11.156   0.735   4.893
65074W        W37499  22.526   0.782  13.465
65075W        W37500  28.601  36.665   1.678
65076W        W37501   5.751  28.482   3.935
65077W        W37502  15.059  25.650  12.837
65078W        W37503  15.843  43.195  14.801
65079W        W37504   0.965  34.469   9.987
65080W        W37505  41.016   3.038   3.110
65081W        W37506  32.616  11.608   2.596
65082W        W37507  31.912  36.437  12.091
65083W        W37508  15.930   0.229   1.245
65084W        W37509  32.474  30.348   1.424
65085W        W37510  41.267   4.978   4.161
65086W        W37511   8.267  14.726  12.420
65087W        W37512   0.711  41.410   4.114
65088W        W37513   7.984  41.106   1.466
65089W        W37514   2.992  31.520  13.438
65090W        W37515  38.806  31.127   5.110
65091W        W37516  20.080  12.054   2.322
65092W        W37517  12.010  28.919  10.795
65093W        W37518  11.348  13.594   1.215
65094W        W37519  25.505   1.610   1.836
65095W        W37520  29.070  32.489   2.349
65096W        W37521  26.198  37.920   0.370
65097W        W37522  27.735  42.957   4.199
65098W        W37523  24.419  39.059  11.434
65099W        W37524   6.410  23.076   1.278
65100W        W37525   5.593  34.364   4.023
65101W        W37526  20.466   3.827   3.303
65102W        W37527  16.709  16.227  10.741
65103W        W37528   3.978  37.869  10.870
65104W        W37529  35.954  29.152   0.522
65105W        W37530  20.102  43.423  11.959
65106W        W37531  32.409   2.302   0.431
65107W        W37532  31.852  25.655   2.721
65108W        W37533  31.460  30.456   4.761
65109W        W37534  17.569  37.456  14.843
65110W        W37535  21.133  34.688   1.857
65111W        W37536  39.914   3.438   4.526
65112W        W37537  43.327   1.647  14.416
65113W        W37538  14.196   6.447  10.651
65114W        W37539  11.915   2.236  11.239
65115W        W37540   3.294   8.755  12.394
65116W        W37541   6.710  23.626   3.663
65117W        W37542  18.022   0.978   3.794
65118W        W37543   5.460  33.118  14.757
65119W        W37544  35.165  32.437   3.765
65120W        W37545  42.324  42.583   0.016
65121W        W37546  26.889  41.372   3.300
65122W        W37547   8.704  39.977  13.532
65123W        W37548  35.465  35.391   0.908
65124W        W37549  31.914  33.079   0.254
65125W        W37550   7.020  13.866  11.228
65126W        W37551  23.614  36.102   1.798
65127W        W37552  28.531  32.904   4.378
65128W        W37553  44.833  22.711   4.890
65129W        W37554  27.492  12.377   3.931
65130W        W37555  37.887   4.436   0.366
65131W        W37556  37.870  44.494   3.267
65132W        W37557  26.680  26.014  10.463
65133W        W37558   8.634  12.630  14.585
65134W        W37559  19.238  13.068  10.687
65135W        W37560  30.684  24.449  13.084
65136W        W37561  43.706   1.799   3.114
65137W        W37562  23.747  39.868   5.228
65138W        W37563  40.576   2.840   3.737
65139W        W37564  42.341   3.941  11.644
65140W        W37565  12.068  32.433   1.225
65141W        W37566   0.242  13.240   3.707
65142W        W37567   0.154  33.521  13.051
65143W        W37568  38.421  26.727   3.671
65144W        W37569  37.516  22.124  13.717
65145W        W37570  41.195  35.140   4.174
65146W        W37571   5.729  35.083  11.145
65147W        W37572   4.357   4.757   0.828
65148W        W37573  44.236  35.012   0.291
65149W        W37574  11.835   4.358   0.948
65150W        W37575   6.865  15.551  12.045
65151W        W37576  33.499  17.353  12.929
65152W        W37577   6.824  44.972  10.985
65153W        W37578   9.191  40.519  13.020
65154W        W37579   7.900  16.205   0.393
65155W        W37580  37.445  24.419   0.864
65156W        W37581   8.810  27.123   1.780
65157W        W37582  24.086  43.225  14.835
65158W        W37583  33.341  44.975   2.180
65159W        W37584  15.723  11.626  12.507
65160W        W37585   7.962  44.103  14.431
65161W        W37586  22.197  30.668  11.400
65162W        W37587  22.587   9.021   4.238
65163W        W37588  10.426  37.887  11.336
65164W        W37589   2.106  31.025   4.958
65165W        W37590  21.698  38.922   1.490
65166W        W37591  20.734   3.397   2.000
65167W        W37592   7.019  10.661   2.379
65168W        W37593  44.937  43.845   3.182
65169W        W37594  36.030  12.030  12.483
65170W        W37595  37.618   9.177  11.914
65171W        W37596  18.797   9.326  13.879
65172W        W37597  14.171   6.851   3.112
65173W        W37598  11.126  37.775  12.982
65174W        W37599  31.554  36.571   4.055
65175W        W37600  10.238  30.093  13.840
65176W        W37601  29.758  16.314   2.225
65177W        W37602  38.592  15.826   4.569
65178W        W37603  27.213  39.930   4.722
65179W        W37604   9.415  17.502   4.105
65180W        W37605  40.389   5.192   2.589
65181W        W37606  43.832  15.399  12.853
65182W        W37607  29.101  22.618   3.813
65183W        W37608  40.051  44.422   2.350
65184W        W37609  36.495  37.150  12.474
65185W        W37610  11.669  40.538  11.598
65186W        W37611  11.280  32.034   1.716
65187W        W37612  40.416  38.199   1.943
65188W        W37613   2.861  42.443   1.904
65189W        W37614  40.814  33.379  12.893
65190W        W37615   5.245  32.022   3.668
65191W        W37616  19.678  29.602   2.860
65192W        W37617  10.209  37.048   0.977
65193W        W37618  11.533  20.949   2.650
65194W        W37619  39.691  28.960   2.447
65195W        W37620  23.616  26.526   4.239
65196W        W37621  22.262  11.588  11.889
65197W        W37622  21.117  21.780   4.232
65198W        W37623  23.451  17.926   3.739
65199W        W37624  37.140  44.282   3.705
65200W        W37625  13.847   7.410  12.814
65201W        W37626  38.437  37.936   3.653
65202W        W37627  19.685  34.840   4.541
65203W        W37628   2.944  10.828   4.566
65204W        W37629  28.654  15.218  13.877
65205W        W37630  36.318   5.407   3.379
65206W        W37631  33.522  39.948   4.745
65207W        W37632  24.051  18.092  11.609
65208W        W37633  32.962  40.823  11.551
65209W        W37634  26.504  34.312  12.903
65210W        W37635  41.247  36.782   0.662
65211W        W37636   1.973   3.259  13.892
65212W        W37637   0.222  31.874   3.765
65213W        W37638  28.868  12.355   2.354
65214W        W37639  10.218  19.191   4.411
65215W        W37640  36.008  38.398   4.593
65216W        W37641  34.322   9.216  11.233
65217W        W37642  31.141   6.287  11.648
65218W        W37643  14.652  39.803   2.665
65219W        W37644  38.514   4.032  10.956
65220W        W37645  14.216   9.854  14.703
65221W        W37646  30.090   1.909   2.213
65222W        W37647  15.726  28.406  12.555
65223W        W37648  10.799  10.166  14.111
65224W        W37649   8.108  33.494  14.983
65225W        W37650   9.480  25.516  12.826
65226W        W37651  24.202  15.479  13.515
65227W        W37652  21.114  18.510   3.466
65228W        W37653  36.482  12.098   1.384
65229W        W37654   3.704   3.861   0.002
65230W        W37655  17.653  20.595  12.831
65231W        W37656  16.459   1.292   0.774
65232W        W37657  18.317  16.374   0.238
65233W        W37658  30.620   6.154  12.912
65234W        W37659  27.535  43.914   4.188
65235W        W37660  33.555  28.936  14.112
65236W        W37661   0.509  32.358   4.563
65237W        W37662  22.533  19.814  11.177
65238W        W37663  23.910  35.873  12.379
65239W        W37664  44.820   9.282   1.911
65240W        W37665  29.934   3.023  10.872
65241W        W37666  29.210  17.830  10.491
65242W        W37667  18.859  22.933   1.814
65243W        W37668   6.847  30.519  12.914
65244W        W37669   4.195   9.201  10.398
65245W        W37670  38.000  19.554  13.610
65246W        W37671  44.820   3.661   3.319
65247W        W37672   7.688  19.495   3.832
65248W        W37673  22.960  20.327   2.804
65249W        W37674   1.080  30.041  10.580
65250W        W37675  36.961  25.955   2.383
65251W        W37676   6.309  18.774   3.785
65252W        W37677  22.997   6.358   0.310
65253W        W37678  19.671   8.805   4.143
65254W        W37679  40.008   7.650  13.881
65255W        W37680  38.285  23.744   2.271
65256W        W37681  41.160  10.683  12.906
65257W        W37682  24.299  40.780   0.410
65258W        W37683  38.334  42.060   4.341
65259W        W37684  25.624   7.431   1.822
65260W        W37685  35.760   9.626   3.822
65261W        W37686  43.812  36.942   2.371
65262W        W37687  11.062  34.942   2.364
65263W        W37688   1.979  29.915  13.378
65264W        W37689  28.565  15.577   0.353
65265W        W37690  19.537   5.535  11.097
65266W        W37691  22.063  20.280  13.068
65267W        W37692  33.744  44.313   4.176
65268W        W37693  27.973  30.098   3.871
65269W        W37694  16.782  37.590   4.235
65270W        W37695  32.764   5.240  13.878
65271W        W37696  34.413   5.467   4.300
65272W        W37697  21.478  36.383   3.740
65273W        W37698  33.031  42.317   1.747
65274W        W37699  17.219  17.843  13.780
65275W        W37700  34.952  42.039   0.672
65276W        W37701  10.308   3.903   1.530
65277W        W37702  40.783  23.594  11.438
65278W        W37703  35.354  34.545  11.164
65279W        W37704  17.217  15.627   4.835
65280W        W37705  14.634  22.513   3.705
65281W        W37706   2.961   0.786   0.505
65282W        W37707  19.370  36.527  12.509
65283W        W37708  41.837  12.079  12.074
65284W        W37709  11.498  44.871   2.423
65285W        W37710   7.678   7.215  13.150
65286W        W37711  32.386  21.734   2.257
65287W        W37712  36.893  19.551   3.734
65288W        W37713   9.617   3.188   3.605
65289W        W37714   9.829  42.908   4.721
65290W        W37715  39.797  13.667   0.779
65291W        W37716  38.636  17.059  12.627
65292W        W37717  38.284  18.602  13.498
65293W        W37718  29.511  14.731   0.505
65294W        W37719   0.221  43.505   2.930
65295W        W37720  16.644  10.551  14.114
65296W        W37721   9.828  13.557  10.458
65297W        W37722  42.433   9.255  14.588
65298W        W37723  11.359  37.546  13.391
65299W        W37724  26.563   6.939  12.543
65300W        W37725  41.755  17.569   3.202
65301W        W37726  41.573  40.932   4.108
65302W        W37727  32.384  41.094  12.439
65303W        W37728  35.672  44.753   4.498
65304W        W37729  33.204  20.231  11.161
65305W        W37730   3.957   1.831   0.276
65306W        W37731  37.131  43.410  14.420
65307W        W37732   7.034  31.023   1.667
65308W        W37733  26.737  32.894  14.012
65309W        W37734  27.162  12.325  13.399
65310W        W37735  22.301  37.053  13.139
65311W        W37736  29.663  27.189  12.410
65312W        W37737  34.529   6.505  13.094
65313W        W37738   5.781  42.515   0.004
65314W        W37739  37.012   7.362   2.312
65315W        W37740  16.208  16.368  11.969
65316W        W37741  40.247   0.307  12.067
65317W        W37742  19.591  29.309  11.637
65318W        W37743  28.138   6.353   0.483
65319W        W37744   1.985  18.834   4.220
65320W        W37745  12.796  30.669   4.318
65321W        W37746  37.212  42.528  14.823
65322W        W37747  30.932  38.325   2.049
65323W        W37748  32.110  11.310  14.840
65324W        W37749  23.115   5.983   2.563
65325W        W37750  12.198   1.821  11.370
65326W        W37751   3.830  31.424   4.739
65327W        W37752  40.429   8.616  14.288
65328W        W37753  39.515  43.917   4.920
65329W        W37754  33.545  15.845   1.365
65330W        W37755  12.229  30.371  13.920
65331W        W37756  35.658  18.005  11.004
65332W        W37757   2.785  10.911   0.277
65333W        W37758   3.326   1.915   0.974
65334W        W37759  20.563  24.034  12.541
65335W        W37760   1.766  31.250   2.429
65336W        W37761  36.439  29.000  12.406
65337W        W37762  11.350   0.252  11.497
65338W        W37763  23.033  29.826   3.324
65339W        W37764  18.619  11.678   2.774
65340W        W37765  17.405  24.985   3.673
65341W        W37766  35.142  31.503  13.999
65342W        W37767  25.711  23.923  13.208
65343W        W37768  10.316  15.064  14.919
65344W        W37769  10.315  38.800  12.984
65345W        W37770   2.666  22.412   3.629
65346W        W37771  14.647  37.663   3.131
65347W        W37772  34.608  38.927   0.450
65348W        W37773   5.269  13.100  13.922
65349W        W37774  20.039   9.910  14.978
65350W        W37775  17.733   5.315  10.638
65351W        W37776  30.751  40.512  10.938
65352W        W37777  12.902  14.643   0.808
65353W        W37778   8.515   4.809   2.206
65354W        W37779  27.440  38.276   4.737
65355W        W37780  39.463   2.761   0.717
65356W        W37781  11.739  29.252   0.819
65357W        W37782  16.584  32.064   2.944
65358W        W37783  20.834  29.200   2.340
65359W        W37784  33.432  34.279   4.303
65360W        W37785  25.643  34.327   2.246
65361W        W37786   9.303  40.372   1.982
65362W        W37787  40.337  22.162  14.988
65363W        W37788  41.039  34.596   0.130
65364W        W37789  32.101  23.588  13.805
65365W        W37790   9.167  44.755  12.312
65366W        W37791  10.326  25.029   1.402
65367W        W37792  23.801  12.333   5.146
65368W        W37793  14.137  13.623   2.230
65369W        W37794  33.606  36.064  12.795
65370W        W37795  23.529  13.856   4.245
65371W        W37796   4.347  16.538   1.234
65372W        W37797   1.770  22.042   2.752
65373W        W37798  16.059  36.576  13.896
65374W        W37799  39.923  36.059  11.180
65375W        W37800  13.287  30.649   1.882
65376W        W37801  44.515  44.358  10.303
65377W        W37802  11.986  16.944  12.136
65378W        W37803   1.779  41.730   1.412
65379W        W37804  12.818   2.456   0.547
65380W        W37805  18.512  12.214   4.435
65381W        W37806   2.200  25.178  13.495
65382W        W37807  16.425  30.068   3.369
65383W        W37808  28.940  35.974   4.589
65384W        W37809  36.513   9.194  14.959
65385W        W37810   4.899   6.607  11.680
65386W        W37811   9.434   0.952  10.867
65387W        W37812  33.160  27.556   0.003
65388W        W37813  23.570  36.515  11.546
65389W        W37814  22.960  43.754   3.153
65390W        W37815   4.639  18.369   1.585
65391W        W37816  35.133  15.413   2.206
65392W        W37817  12.921  22.571  10.278
65393W        W37818  14.551  14.837  13.289
65394W        W37819  22.479  38.957  14.428
65395W        W37820  20.939  36.739  14.116
65396W        W37821  19.927  23.564  14.062
65397W        W37822  21.583  32.424  13.315
65398W        W37823  15.527  10.890  13.070
65399W        W37824  42.917   8.680   1.249
65400W        W37825  16.109   8.668   4.680
65401W        W37826  30.505  27.895  14.962
65402W        W37827  15.811  19.510  13.396
65403W        W37828  43.862  42.717  13.233
65404W        W37829   0.864  15.097   4.559
65405W        W37830  22.677  29.314   2.770
65406W        W37831  22.468  43.840  14.766
65407W        W37832  41.780   3.318  11.045
65408W        W37833  20.157  17.501   1.644
65409W        W37834  20.660   2.327  14.861
65410W        W37835  17.038  22.626  13.511
65411W        W37836  35.185  39.864   4.207
65412W        W37837  33.749   0.261  14.525
65413W        W37838  16.764   2.363  13.997
65414W        W37839  36.409   1.773   1.428
65415W        W37840  28.904  39.828   1.322
65416W        W37841  22.959   5.777  11.174
65417W        W37842  40.064  15.888   1.644
65418W        W37843  24.608  14.854  13.944
65419W        W37844  28.964  39.429   1.647
65420W        W37845  40.474   6.491  12.148
65421W        W37846  43.389   6.361   1.125
65422W        W37847  26.159  29.346  11.014
65423W        W37848  31.038  25.970   2.704
65424W        W37849   5.732  36.507   0.259
65425W        W37850  21.830   8.702  12.138
65426W        W37851  14.565  16.870   3.721
65427W        W37852   7.715  28.985   1.020
65428W        W37853  38.312   6.628   4.350
65429W        W37854  30.904  24.231  14.931
65430W        W37855  36.563  33.385   3.957
65431W        W37856  34.949   2.264  10.804
65432W        W37857  23.929  38.314  10.541
65433W        W37858  17.776  13.945  12.130
65434W        W37859   8.799   9.157   1.645
65435W        W37860   5.686  38.579   4.322
65436W        W37861  33.414   1.738   5.075
65437W        W37862  35.067  11.899   3.131
65438W        W37863   2.099  35.399  13.090
65439W        W37864   1.850   4.392  11.541
65440W        W37865   2.227   0.199   1.475
65441W        W37866  40.494  31.719  10.741
65442W        W37867   0.190   3.911  13.305
65443W        W37868  22.283   3.315   1.974
65444W        W37869  13.260   7.164  11.115
65445W        W37870  30.153  31.075   1.334
65446W        W37871  30.855  21.705   2.269
65447W        W37872  34.366   0.826  14.887
65448W        W37873  31.847  32.020  14.058
65449W        W37874  30.701   9.308   2.243
65450W        W37875   7.465  27.023   3.253
65451W        W37876  28.405  18.715   4.119
65452W        W37877   7.303  21.833   1.389
65453W        W37878  37.070   8.340   5.149
65454W        W37879  25.328  39.795   5.090
65455W        W37880  29.453  31.361  10.683
65456W        W37881   0.418  17.006  14.470
65457W        W37882  12.688  44.256  14.723
65458W        W37883   7.152  30.972  12.992
65459W        W37884   8.290  17.299  13.812
65460W        W37885  37.432  32.939   0.334
65461W        W37886  22.345   2.173   0.286
65462W        W37887  33.737  40.634   0.376
65463W        W37888  25.125  40.281   1.479
65464W        W37889  36.108  12.622  11.173
65465W        W37890  31.981  40.439  11.642
65466W        W37891   3.421  14.100  11.491
65467W        W37892  35.903  11.811   4.167
65468W        W37893   4.286   0.333  14.428
65469W        W37894  39.662  15.490  14.219
65470W        W37895  14.532  13.521   3.202
65471W        W37896  22.163  38.317  12.877
65472W        W37897  36.923   8.636   0.329
65473W        W37898   5.657  19.162   2.113
65474W        W37899   7.736  19.789  12.239
65475W        W37900   6.923  16.293  12.496
65476W        W37901  42.821  42.885   3.345
65477W        W37902   3.183  38.894   2.633
65478W        W37903  17.547  37.062  11.187
65479W        W37904  21.194   6.727  14.801
65480W        W37905  32.660   4.891   0.214
65481W        W37906  21.196   0.796  12.050
65482W        W37907   2.217  33.378   3.662
65483W        W37908  39.650  42.988  13.871
65484W        W37909  13.513  23.215   2.339
65485W        W37910  41.379   6.070  11.994
65486W        W37911  24.230   7.469   2.350
65487W        W37912  11.586   2.025  12.562
65488W        W37913  19.859  20.703   1.465
65489W        W37914   2.849   5.120  11.930
65490W        W37915   2.369   7.919  12.451
65491W        W37916  13.425  25.059   2.219
65492W        W37917  24.066  31.605  14.741
65493W        W37918  43.588  37.567   2.987
65494W        W37919   9.482  22.615   2.218
65495W        W37920   4.138  14.707  11.244
65496W        W37921  18.806  25.487   2.839
65497W        W37922   6.250  33.380   4.489
65498W        W37923  35.151   8.866  14.708
65499W        W37924   1.552   0.284  14.888
65500W        W37925  28.215  18.121   4.851
65501W        W37926  18.951  27.056  12.132
65502W        W37927  18.594  36.051   4.934
65503W        W37928  40.015  13.181   3.255
65504W        W37929   2.252  14.369   0.925
65505W        W37930   1.264  20.044   0.494
65506W        W37931  39.482  34.011   1.775
65507W        W37932  27.019  35.485  14.279
65508W        W37933   1.984  21.671  14.137
65509W        W37934  27.947  37.732   2.220
65510W        W37935  11.537   0.365   0.399
65511W        W37936  34.804   8.666  11.135
65512W        W37937  13.386   8.628   4.106
65513W        W37938  34.569  34.163   1.614
65514W        W37939  31.922   6.756  11.623
65515W        W37940  12.047  41.058   3.598
65516W        W37941  29.147   5.419  11.833
65517W        W37942  19.213  13.820   0.536
65518W        W37943  33.267   3.290  10.678
65519W        W37944  32.429  33.834   2.272
65520W        W37945  10.950  22.910  14.881
65521W        W37946   6.205  21.695   3.356
65522W        W37947  27.423  32.000  11.330
65523W        W37948  42.948  20.158  14.016
65524W        W37949  23.005  38.886   0.718
65525W        W37950  23.151  36.011  13.545
65526W        W37951  31.681   5.350  11.561
65527W        W37952  25.103   6.161   1.455
65528W        W37953  32.628  25.607   4.687
65529W        W37954  41.825  19.583   4.172
65530W        W37955  40.783  14.258   2.422
65531W        W37956  34.698  13.030  11.183
65532W        W37957  31.729  34.217  12.869
65533W        W37958   9.142  15.384  10.715
65534W        W37959  38.900  11.075  12.025
65535W        W37960  10.893  28.541  12.989
65536W        W37961  40.285  16.804  11.474
65537W        W37962   7.227  40.197  13.567
65538W        W37963  32.382  26.284  11.215
65539W        W37964  41.408  12.590   2.722
65540W        W37965  44.827  13.108   0.794
65541W        W37966  36.336  34.373  11.025
65542W        W37967  25.518  10.707   3.881
65543W        W37968  11.596  32.528  12.026
65544W        W37969   9.770  37.393  11.222
65545W        W37970  20.279  41.766   4.860
65546W        W37971  28.376  44.839  10.697
65547W        W37972  34.577  43.250   4.605
65548W        W37973  18.318  27.819   2.067
65549W        W37974  19.904  31.805   3.400
65550W        W37975  13.281  12.522   2.388
65551W        W37976  32.124  23.712   0.020
65552W        W37977  16.159  24.983  12.842
65553W        W37978  40.070   8.211  11.567
65554W        W37979   9.371  13.570  13.377
65555W        W37980  13.776  19.322   0.496
65556W        W37981  30.498  16.618   0.063
65557W        W37982  28.685  15.841   2.631
65558W        W37983  33.872  40.540  11.161
65559W        W37984   4.309   4.155  13.201
65560W        W37985   2.319  25.065   2.692
65561W        W37986  26.506  16.154   1.218
65562W        W37987  43.728  32.501   0.445
65563W        W37988  27.153  44.981   0.524
65564W        W37989  22.633  10.579  13.246
65565W        W37990   4.245   6.753   3.639
65566W        W37991  36.382  30.897  11.655
65567W        W37992  43.014  22.946   2.780
65568W        W37993  40.578   1.453  13.310
65569W        W37994  42.253  26.942  11.454
65570W        W37995  41.128  19.773   4.586
65571W        W37996  20.082  29.029  13.871
65572W        W37997  38.065  13.884   4.568
65573W        W37998  36.692   0.300   0.091
65574W        W37999  33.648  15.834   2.318
65575W        W38000  14.104  10.509   1.185
65576W        W38001  23.973  32.502  13.477
65577W        W38002   2.708  41.302   1.286
65578W        W38003  29.589   0.009   0.783
65579W        W38004  32.761  32.210  15.000
65580W        W38005  13.123   3.977   1.515
65581W        W38006  34.890  10.721   3.728
65582W        W38007  38.750   0.349  12.116
65583W        W38008  36.368  25.946  10.762
65584W        W38009  15.785  38.600   2.225
65585W        W38010   0.977  29.475   0.357
65586W        W38011  26.463  22.800   3.701
65587W        W38012  36.079  19.772   2.894
65588W        W38013   4.690   1.814  10.732
65589W        W38014  14.163  27.914  13.532
65590W        W38015   9.683  28.690   3.228
65591W        W38016   4.747  25.772   2.134
65592W        W38017  20.317  18.241   4.178
65593W        W38018  20.722  21.258   1.283
65594W        W38019  23.221  14.876  10.773
65595W        W38020  39.623  21.604   1.335
65596W        W38021  27.697  11.753  13.333
65597W        W38022   0.672  30.541  12.168
65598W        W38023  33.702  10.357   1.872
65599W        W38024  41.204   7.701   4.614
65600W        W38025  29.343  10.807  10.775
65601W        W38026  24.224  23.018  13.456
65602W        W38027   5.632   8.702  13.931
65603W        W38028  10.127  44.404  14.394
65604W        W38029   2.917   8.193   3.649
65605W        W38030  23.487  18.511   1.330
65606W        W38031  43.355  11.505  12.822
65607W        W38032  32.871  23.507   0.685
65608W        W38033  41.178  16.696  14.953
65609W        W38034  43.020  42.516   0.247
65610W        W38035  40.405  24.464  13.426
65611W        W38036  14.268  44.796  14.357
65612W        W38037  24.611  30.239   3.073
65613W        W38038   6.329  11.102   3.064
65614W        W38039  19.978  15.932   4.709
65615W        W38040  10.631  43.785   2.318
65616W        W38041  33.922  11.238   2.785
65617W        W38042  41.010  33.817  13.959
65618W        W38043   8.624   9.845  11.716
65619W        W38044   1.756  28.777  14.013
65620W        W38045   0.936  43.425  10.749
65621W        W38046   3.287  33.227  14.437
65622W        W38047   5.506  11.815   4.264
65623W        W38048  10.390  12.074  11.142
65624W        W38049  24.784  27.442   3.289
65625W        W38050  42.242  29.635   0.352
65626W        W38051   8.227  14.358  13.816
65627W        W38052  42.454  22.247   3.290
65628W        W38053   4.038  33.392  10.238
65629W        W38054  22.744  28.902   0.766
65630W        W38055  27.733  42.636   2.172
65631W        W38056  35.653  31.219   3.557
65632W        W38057   8.133  15.618  12.378
65633W        W38058  38.870  29.206   0.365
65634W        W38059   9.225  36.598   3.159
65635W        W38060  28.910  24.661  12.487
65636W        W38061   5.116  33.032   3.914
65637W        W38062  39.842  35.522   0.266
65638W        W38063  17.637  43.983   1.644
65639W        W38064   8.990  35.012  14.601
65640W        W38065   4.480  38.016   0.851
65641W        W38066   7.467  41.860   0.339
65642W        W38067  37.029  41.578   1.929
65643W        W38068  21.060  16.592   1.831
65644W        W38069  14.355   7.407   0.638
65645W        W38070  18.719  25.737   1.390
65646W        W38071  36.471  33.592   0.862
65647W        W38072  16.467  22.960   4.136
65648W        W38073  38.490  19.141   0.387
65649W        W38074  14.262  12.119  12.636
65650W        W38075  40.082   2.915  12.927
65651W        W38076  25.983  35.915  13.943
65652W        W38077  20.652  14.400   3.856
65653W        W38078   5.471  38.924   1.013
65654W        W38079  24.006   7.673   1.510
65655W        W38080  25.240  44.263  13.163
65656W        W38081  43.855  29.063  11.170
65657W        W38082  18.661  18.007   3.582
65658W        W38083   9.859  39.387  11.939
65659W        W38084  37.087   1.737   1.205
65660W        W38085  38.426  22.030  11.103
65661W        W38086  28.528  12.575  13.962
65662W        W38087  12.944  26.527  10.986
65663W        W38088  33.371   7.128   2.195
65664W        W38089  32.994  23.619  14.844
65665W        W38090  39.005  10.920  14.390
65666W        W38091  11.569   8.384   2.210
65667W        W38092  35.263  15.005   1.375
65668W        W38093   8.269  21.232   4.041
65669W        W38094  38.925   3.476   4.148
65670W        W38095  44.528   2.226   4.708
65671W        W38096  21.613  38.452  10.500
65672W        W38097  28.596  32.928   0.681
65673W        W38098  26.694   0.261  10.178
65674W        W38099  37.940   4.725  13.147
65675W        W38100  14.872  10.327   3.988
65676W        W38101  14.241  25.022  14.895
65677W        W38102  23.714  26.650  13.918
65678W        W38103  22.320  15.424  10.857
65679W        W38104  34.529  34.055  14.348
65680W        W38105  22.471  11.699   3.559
65681W        W38106   9.341  17.206   3.262
65682W        W38107  15.099  37.839   4.495
65683W        W38108  37.449   6.791  11.707
65684W        W38109  41.083  22.406   1.750
65685W        W38110  43.707   5.477   3.329
65686W        W38111  42.331   7.255   4.000
65687W        W38112  17.263  18.620   2.701
65688W        W38113  28.375  31.345  12.423
65689W        W38114  39.304  27.509  13.718
65690W        W38115  39.981  44.534   4.624
65691W        W38116  25.986  17.837   3.615
65692W        W38117  28.517  37.065  11.965
65693W        W38118  12.296  30.955   2.233
65694W        W38119   2.283  15.794  11.453
65695W        W38120  18.556  22.775  10.250
65696W        W38121  17.514  23.778   2.830
65697W        W38122   6.442  22.043   3.639
65698W        W38123  43.277  25.599   4.289
65699W        W38124   9.917   8.695  14.686
65700W        W38125  35.647  22.112   3.131
65701W        W38126  15.258  31.993  13.885
65702W        W38127  32.150   4.912  11.193
65703W        W38128   5.667  10.407   3.513
65704W        W38129  38.964  20.708   1.809
65705W        W38130  18.710  27.369  12.537
65706W        W38131   5.875  34.836  14.527
65707W        W38132  38.046  15.012   3.346
65708W        W38133  13.750  12.432   2.578
65709W        W38134  44.796  26.171   4.722
65710W        W38135  27.215  31.746  10.616
65711W        W38136  41.454  10.466   4.312
65712W        W38137   4.551  24.581   1.435
65713W        W38138  29.959   1.228  12.401
65714W        W38139   0.645  40.925  14.995
65715W        W38140  40.968  19.401  12.081
65716W        W38141  42.881   8.898   4.504
65717W        W38142  19.604  36.293   3.647
65718W        W38143  25.145   8.882   2.206
65719W        W38144  19.138  43.885  13.331
65720W        W38145   5.687  44.874  11.399
65721W        W38146  36.134   3.345  13.959
65722W        W38147  28.021  36.991  13.912
65723W        W38148  35.041  11.361   3.157
65724W        W38149  10.896  19.244   3.786
65725W        W38150  33.638  32.030   0.757
65726W        W38151  34.099  27.769   0.246
65727W        W38152  43.665  26.809  10.160
65728W        W38153  38.314  31.849  11.605
65729W        W38154  11.293   3.928   4.164
65730W        W38155  44.463  13.573   3.255
65731W        W38156  44.294  10.039  14.082
65732W        W38157  15.646  11.365   2.333
65733W        W38158  30.305  18.986  12.046
65734W        W38159   6.258  23.639  11.970
65735W        W38160  19.119  32.996   0.508
65736W        W38161  43.394  35.321   0.270
65737W        W38162  15.759  13.860   2.627
65738W        W38163  23.476   5.691   2.283
65739W        W38164   3.704  25.098   3.737
65740W        W38165  21.679  43.305   2.344
65741W        W38166  43.000  12.814   2.328
65742W        W38167  28.556  43.488  13.903
65743W        W38168  27.048  14.671  12.530
65744W        W38169  35.694  31.139  10.929
65745W        W38170   7.835  30.414   2.310
65746W        W38171  25.981  23.760  10.966
65747W        W38172  37.192  20.177  11.130
65748W        W38173  22.845  18.571   2.458
65749W        W38174  36.809  34.555  14.050
65750W        W38175   0.846  36.514  10.509
65751W        W38176  16.639  26.515  14.891
65752W        W38177  27.625  34.582  14.989
65753W        W38178   9.149   6.254   1.157
65754W        W38179  31.420  44.794  11.458
65755W        W38180  25.103  37.020   0.768
65756W        W38181  25.163  15.457  14.494
65757W        W38182  38.527  11.902   0.113
65758W        W38183  37.471  11.337   1.487
65759W        W38184  42.786  19.071  14.700
65760W        W38185   9.164  30.077  14.448
65761W        W38186  43.384  17.696   0.976
65762W        W38187  13.904  40.333   3.691
65763W        W38188  14.866  20.297  14.027
65764W        W38189  40.646  25.493   0.209
65765W        W38190  22.126  25.470  10.595
65766W        W38191  22.226  13.842   3.610
65767W        W38192  10.867  15.495   4.177
65768W        W38193  21.208  41.345   2.362
65769W        W38194   5.415  37.397   3.740
65770W        W38195  22.475   0.386  10.749
65771W        W38196   5.900  20.387   1.308
65772W        W38197  34.199   1.183   3.355
65773W        W38198  24.981  43.437  10.749
65774W        W38199   6.334  41.240   0.733
65775W        W38200   6.355  39.784   2.613
65776W        W38201   3.378   7.294   3.652
65777W        W38202  40.022   3.861  10.742
65778W        W38203  37.487  33.173  14.353
65779W        W38204   9.080  30.130   2.760
65780W        W38205   2.853  19.987   2.658
65781W        W38206   4.671  41.950   1.870
65782W        W38207  23.048  11.199  13.931
65783W        W38208  12.107   9.306  11.569
65784W        W38209  44.765  44.794  14.500
65785W        W38210   6.060  15.026   3.663
65786W        W38211  16.989  19.149   3.704
65787W        W38212  19.285  18.377   2.204
65788W        W38213  10.976  25.626  11.916
65789W        W38214   8.238  28.028  11.259
65790W        W38215  28.040   4.135   0.741
65791W        W38216  39.060  31.653  14.308
65792W        W38217   3.958   1.876  11.210
65793W        W38218  26.701   8.172   0.807
65794W        W38219  27.736  17.685  12.094
65795W        W38220  29.150  10.137   4.615
65796W        W38221  36.789  21.723   4.901
65797W        W38222   6.696  38.531  14.002
65798W        W38223  12.418  44.459   4.547
65799W        W38224   6.316  43.890   1.058
65800W        W38225  44.450  20.047   2.337
65801W        W38226  10.767  25.895  12.664
65802W        W38227  26.471   3.921  13.462
65803W        W38228  11.854   8.717  13.476
65804W        W38229   1.284  27.659   1.456
65805W        W38230  23.714  34.585  13.748
65806W        W38231  16.801  30.540   2.711
65807W        W38232  25.016  17.667  14.026
65808W        W38233  40.784  16.568  12.885
65809W        W38234   0.508  11.826   4.578
65810W        W38235  27.113   6.213   0.316
65811W        W38236   0.309  29.688   2.152
65812W        W38237   9.619  16.587  14.013
65813W        W38238   1.712  24.436  13.813
65814W        W38239  40.644  40.061  12.695
65815W        W38240  22.256  34.090   3.727
65816W        W38241  41.583  11.661   2.942
65817W        W38242  11.077  12.331   0.698
65818W        W38243  41.338  10.178  14.846
65819W        W38244   9.380  32.406  10.905
65820W        W38245  10.780  18.727   2.287
65821W        W38246  17.675  21.118  12.749
65822W        W38247  15.186  23.676  11.529
65823W        W38248   1.039  44.910   2.421
65824W        W38249  43.662  32.903   1.009
65825W        W38250   4.993  30.375  10.266
65826W        W38251  20.299  25.462  12.009
65827W        W38252  38.077   9.165   2.319
65828W        W38253   8.173  17.819   2.253
65829W        W38254  31.906  42.578  11.953
65830W        W38255   6.205   8.315   4.200
65831W        W38256  23.010  11.760  10.624
65832W        W38257  42.040  33.042   1.714
65833W        W38258  41.590  18.383   2.880
65834W        W38259   9.197   5.398   2.597
65835W        W38260  13.380  26.549   2.122
65836W        W38261  31.967  41.883  12.461
65837W        W38262  21.257  30.392  14.766
65838W        W38263  26.259  13.616   3.660
65839W        W38264  30.200  15.059  10.732
65840W        W38265   9.219  12.146  13.469
65841W        W38266  36.199  36.955  11.664
65842W        W38267  21.014  29.192   1.495
65843W        W38268  41.040  40.970   4.214
65844W        W38269  25.159  32.205  12.552
65845W        W38270   3.147  13.860   0.226
65846W        W38271  23.462   8.539  10.701
65847W        W38272  44.174   1.378  14.439
65848W        W38273   0.709  19.999   3.165
65849W        W38274  36.836  17.200  13.325
65850W        W38275  19.135  29.188  14.291
65851W        W38276  36.787  27.801  13.036
65852W        W38277  14.398   0.692   1.551
65853W        W38278   3.986  36.099   0.038
65854W        W38279   6.408  44.448   1.774
65855W        W38280  18.597   8.422   0.959
65856W        W38281  15.270  44.585   3.290
65857W        W38282  35.576  38.796   4.062
65858W        W38283  23.539  18.129  13.823
65859W        W38284  29.973  23.056  12.002
65860W        W38285  30.146  13.104  14.051
65861W        W38286  38.944  18.180  12.959
65862W        W38287  39.118  30.431   2.476
65863W        W38288  37.207   0.849  13.377
65864W        W38289   8.924  44.222  14.209
65865W        W38290   0.525   8.348  14.310
65866W        W38291  18.804  34.965  10.125
65867W        W38292  11.288  31.712  11.577
65868W        W38293   2.328  34.219  12.546
65869W        W38294   8.175  25.956   1.355
65870W        W38295  38.567  11.949  14.595
65871W        W38296   8.869  43.230  12.605
65872W        W38297  20.278   9.611   1.857
65873W        W38298  30.125  22.754   3.068
65874W        W38299  35.534   9.844   2.352
65875W        W38300   3.755  41.548   1.375
65876W        W38301  21.197   2.875   0.498
65877W        W38302  15.678  44.791   4.967
65878W        W38303  27.153  16.897  11.374
65879W        W38304  36.138  37.395  13.988
65880W        W38305  20.715  18.840   4.923
65881W        W38306  31.147  34.054  12.205
65882W        W38307  41.054  30.688   2.111
65883W        W38308   8.677  18.729  14.869
65884W        W38309  10.575  21.276   0.315
65885W        W38310  15.761   2.666   0.945
65886W        W38311  32.631  36.995  11.724
65887W        W38312   9.363  39.959   4.597
65888W        W38313  24.616  35.275   3.643
65889W        W38314  12.397   4.034  13.224
65890W        W38315  20.767  30.050  12.526
65891W        W38316  22.038  15.319  12.714
65892W        W38317  10.339  39.607  11.160
65893W        W38318  38.212  42.463   4.652
65894W        W38319  42.535  34.090   0.689
65895W        W38320   3.438   2.753   4.756
65896W        W38321   8.383  29.558  11.118
65897W        W38322  20.298  42.102  10.670
65898W        W38323  41.472  13.687  13.802
65899W        W38324  22.670  39.532   1.228
65900W        W38325  35.848  35.399  14.336
65901W        W38326  27.940  36.434   3.910
65902W        W38327  43.942  15.332  11.051
65903W        W38328  14.339  16.269   0.465
65904W        W38329  12.779  15.263  11.239
65905W        W38330   8.669  26.432  13.904
65906W        W38331  27.092  28.396  14.254
65907W        W38332  20.147  29.945   3.810
65908W        W38333  34.148   8.121  14.882
65909W        W38334  18.754  21.289  14.851
65910W        W38335   4.074  40.831   0.001
65911W        W38336   4.029   9.987  14.552
65912W        W38337  25.403  32.527  13.600
65913W        W38338  10.675   4.797  12.975
65914W        W38339  23.228  27.295   2.206
65915W        W38340  29.600  43.354   4.698
65916W        W38341  28.585   3.488  14.207
65917W        W38342   6.698  29.271  14.600
65918W        W38343  20.057  21.486  11.180
65919W        W38344  43.762   4.498   2.726
65920W        W38345  21.678  27.210   0.528
65921W        W38346  14.900  20.231   0.353
65922W        W38347   1.756   5.678  13.946
65923W        W38348   7.620  36.128  10.644
65924W        W38349  18.784  35.899  14.289
65925W        W38350  44.825  17.907   4.069
65926W        W38351  40.903  43.264   3.197
65927W        W38352  40.353  38.569  14.409
65928W        W38353  37.934  42.514   0.271
65929W        W38354  24.351  31.673  11.740
65930W        W38355  21.435  18.279  12.533
65931W        W38356  16.358  43.165  14.932
65932W        W38357  15.890  34.124  13.039
65933W        W38358  18.218  44.354   4.572
65934W        W38359   7.116   7.860   3.710
65935W        W38360  23.509  32.499   2.330
65936W        W38361  13.852  37.950  11.963
65937W        W38362  43.534   9.950  11.100
65938W        W38363  12.564  19.957   4.084
65939W        W38364  37.563  23.367   4.188
65940W        W38365  15.723   6.848  10.558
65941W        W38366  26.568  30.016   4.557
65942W        W38367   0.740  37.829   0.971
65943W        W38368   4.406  43.353   1.913
65944W        W38369  43.969  41.262   0.071
65945W        W38370  43.376  22.538  10.507
65946W        W38371  22.442   6.232  11.436
65947W        W38372  19.111  37.436   4.020
65948W        W38373  10.050  29.006  13.048
65949W        W38374  34.370   2.749  11.180
65950W        W38375  33.131  19.577   3.581
65951W        W38376  11.648  24.224  13.642
65952W        W38377  30.876  21.231  14.301
65953W        W38378   7.372  11.317  14.394
65954W        W38379  25.577  25.180   1.961
65955W        W38380  38.419  35.122   4.103
65956W        W38381   3.804  29.095   1.315
65957W        W38382  24.543   0.849  11.226
65958W        W38383   1.852  14.995   2.468
65959W        W38384   4.967  31.460  13.232
65960W        W38385   2.282  28.445   2.860
65961W        W38386  27.724  38.189  11.691
65962W        W38387  18.929  27.611   1.451
65963W        W38388  29.686  29.487   1.463
65964W        W38389  13.139  41.208   2.657
65965W        W38390  22.257  38.375   3.661
65966W        W38391  30.582  22.808   5.102
65967W        W38392  35.827  26.711   3.514
65968W        W38393  37.324  15.688  11.107
65969W        W38394   0.996  44.010  14.427
65970W        W38395  31.019   4.903   4.350
65971W        W38396   7.659  19.624   2.680
65972W        W38397   9.807  14.657  14.048
65973W        W38398  36.490  18.707   2.878
65974W        W38399  23.473  23.157   2.898
65975W        W38400  34.137  15.662   2.334
65976W        W38401   5.982  33.502   1.701
65977W        W38402   2.766   0.813   0.984
65978W        W38403  18.805  40.324   1.648
65979W        W38404   6.724   2.746  11.182
65980W        W38405  21.184  34.047  12.919
65981W        W38406  27.345  31.675   1.297
65982W        W38407  11.032   9.799   2.446
65983W        W38408  20.598  43.853   2.883
65984W        W38409  33.462  14.295   2.256
65985W        W38410  13.257  22.444  12.350
65986W        W38411  31.686   6.384   2.257
65987W        W38412  23.914  29.658   0.824
65988W        W38413  13.675  11.101   0.152
65989W        W38414  21.365   8.680  11.238
65990W        W38415  17.742  34.568   9.730
65991W        W38416  13.054  39.427   2.351
65992W        W38417  36.073  38.940   2.825
65993W        W38418  16.065  41.951  12.007
65994W        W38419  27.339  10.232   2.487
65995W        W38420  29.123  24.184   3.312
65996W        W38421  18.426  41.838  13.896
65997W        W38422  19.993  42.720   3.711
65998W        W38423  29.921   6.672  11.573
65999W        W38424  40.020   8.607  10.796
66000W        W38425   1.697  41.657  12.551
66001W        W38426  10.372  22.056   2.676
66002W        W38427   3.301  44.108  13.365
66003W        W38428   9.761  41.937   1.004
66004W        W38429  20.419  22.524   5.042
66005W        W38430  12.624  12.769  14.346
66006W        W38431  27.960  15.213  12.503
66007W        W38432  17.553  33.468  10.728
66008W        W38433   4.221   4.814  11.863
66009W        W38434  12.859  25.078   4.026
66010W        W38435  11.559  27.444  12.372
66011W        W38436  38.053  21.513   3.039
66012W        W38437  17.726   6.612  11.469
66013W        W38438  39.120  43.987  11.263
66014W        W38439  41.454  14.273  12.535
66015W        W38440  27.880  28.657  11.191
66016W        W38441  16.084   6.458  13.875
66017W        W38442  32.068  24.782   1.808
66018W        W38443  23.825  20.619  12.443
66019W        W38444  10.306  37.617  11.922
66020W        W38445  21.152   2.096  13.950
66021W        W38446  39.022  27.055  14.088
66022W        W38447   6.332  29.994  14.899
66023W        W38448  32.160   0.676   4.549
66024W        W38449  39.721   0.414  10.655
66025W        W38450  12.044   2.513   1.025
66026W        W38451   2.002  16.846  13.322
66027W        W38452  24.820  34.488  13.868
66028W        W38453   0.895  44.482   3.574
66029W        W38454  38.066   2.766  12.079
66030W        W38455  11.699   0.624   1.918
66031W        W38456  27.735  36.699   0.184
66032W        W38457  38.121  32.347  11.497
66033W        W38458  21.539  30.570  13.496
66034W        W38459  40.256  13.630   3.190
66035W        W38460  31.685   6.205   0.800
66036W        W38461  30.138  21.225   0.898
66037W        W38462   2.846   6.138   4.890
66038W        W38463   9.690   2.310   3.401
66039W        W38464   0.634  11.687  13.421
66040W        W38465  16.544   5.254   3.312
66041W        W38466  39.628  17.761   1.808
66042W        W38467  38.181  23.213   0.778
66043W        W38468   9.586  13.621   1.900
66044W        W38469  23.224  41.245  12.496
66045W        W38470  22.464   6.240   2.189
66046W        W38471  16.782  36.874   4.684
66047W        W38472  31.001  35.100   0.888
66048W        W38473  40.301  43.630  10.872
66049W        W38474  30.379  43.437   2.678
66050W        W38475  21.149  17.688  12.899
66051W        W38476  38.439  11.239   1.937
66052W        W38477   4.865   8.548   0.804
66053W        W38478  44.184  32.919   0.963
66054W        W38479  41.030  26.431   4.214
66055W        W38480  39.803   6.203  13.363
66056W        W38481  13.876  24.503   0.909
66057W        W38482  27.975  10.586   1.923
66058W        W38483  25.793  17.578  12.201
66059W        W38484  25.337   7.910  10.794
66060W        W38485  26.493  41.013   4.715
66061W        W38486  35.323  11.747   4.984
66062W        W38487  25.665  20.087  10.573
66063W        W38488   6.483   8.351   2.575
66064W        W38489   5.311   3.559   0.916
66065W        W38490  17.156   6.228  13.358
66066W        W38491  33.584   5.733   3.903
66067W        W38492  36.626  16.087  13.030
66068W        W38493   5.756  12.979  14.820
66069W        W38494  30.571  44.700   3.173
66070W        W38495  24.524  20.593   1.191
66071W        W38496  38.465  30.034   0.452
66072W        W38497  31.524  22.682  11.824
66073W        W38498  16.315  40.504   1.943
66074W        W38499  42.134  19.031  14.555
66075W        W38500  25.932  27.970  11.913
66076W        W38501  12.334  12.400   1.180
66077W        W38502  24.691   4.717   2.239
66078W        W38503   8.188  37.203   2.580
66079W        W38504  40.976  18.744  10.613
66080W        W38505  15.278  30.589  13.421
66081W        W38506  42.503  41.255  14.965
66082W        W38507  36.579  12.221   0.889
66083W        W38508  36.039   6.779   4.101
66084W        W38509  25.079   6.923   2.190
66085W        W38510  36.789   9.736   3.750
66086W        W38511  18.515  23.625  10.977
66087W        W38512  29.744  31.400  12.466
66088W        W38513  44.362  44.267  14.838
66089W        W38514   9.697  16.853   1.900
66090W        W38515  26.827   1.769   2.229
66091W        W38516   3.659  25.209  10.697
66092W        W38517  30.627  17.164   2.749
66093W        W38518  31.546  40.744  11.690
66094W        W38519   3.543  32.113   3.068
66095W        W38520  22.275  13.866   2.887
66096W        W38521  23.546  42.867   0.473
66097W        W38522   9.848  18.097   0.228
66098W        W38523  31.182  44.329  10.213
66099W        W38524  40.711  38.900  14.865
66100W        W38525  19.190  43.341   2.748
66101W        W38526   3.308  39.818  11.608
66102W        W38527  31.866   1.226   1.726
66103W        W38528   7.719  13.783  12.056
66104W        W38529  31.656   1.926  13.851
66105W        W38530  37.885   9.456  13.797
66106W        W38531  29.169  39.407   4.075
66107W        W38532  40.594  36.521  11.586
66108W        W38533  43.804  14.276  11.168
66109W        W38534  23.461   7.186  13.729
66110W        W38535  41.508  30.459   3.501
66111W        W38536   5.260  35.104  13.836
66112W        W38537  20.392  33.107  11.525
66113W        W38538  13.724   0.405  14.086
66114W        W38539   6.214  42.777  12.923
66115W        W38540  26.008  43.115  12.941
66116W        W38541   4.914  26.155   0.885
66117W        W38542  14.054  30.957   0.740
66118W        W38543  26.157  23.617  13.455
66119W        W38544  14.658  37.907   0.963
66120W        W38545  29.018  39.965   2.924
66121W        W38546  12.129   4.732   2.762
66122W        W38547  27.401   4.409  13.354
66123W        W38548  41.574  38.109   4.314
66124W        W38549   4.435  29.426   2.551
66125W        W38550  29.453   0.625   5.293
66126W        W38551  28.436  36.569  11.062
66127W        W38552  30.652  23.114   4.688
66128W        W38553  42.927  18.240   1.758
66129W        W38554  14.111  13.826  14.685
66130W        W38555  11.720  17.066   1.190
66131W        W38556   7.811  44.366   4.992
66132W        W38557  10.545  33.498   0.848
66133W        W38558  16.798  10.512   0.541
66134W        W38559  26.191   3.567   4.199
66135W        W38560  42.341  18.697  10.575
66136W        W38561   5.328  10.783  11.442
66137W        W38562  40.642  26.598   3.400
66138W        W38563  43.916  28.540   1.421
66139W        W38564  42.914  10.663   2.590
66140W        W38565   2.033  19.434   1.807
66141W        W38566  12.519  10.622   1.309
66142W        W38567  44.814  11.054  12.839
66143W        W38568  21.072   1.305  13.502
66144W        W38569  11.172  41.298   0.953
66145W        W38570  35.766  13.218  14.462
66146W        W38571  37.847  25.299  10.657
66147W        W38572   5.941  38.990  13.030
66148W        W38573  14.679  33.429   0.445
66149W        W38574  36.792  14.330  14.459
66150W        W38575   7.794   0.321  10.562
66151W        W38576  44.709   0.490   0.886
66152W        W38577   9.911  36.125   2.287
66153W        W38578  22.742  25.136   0.835
66154W        W38579  18.074  43.037   1.867
66155W        W38580  12.286   3.418  14.957
66156W        W38581  23.511  27.270   4.523
66157W        W38582   4.460  26.200  12.317
66158W        W38583  19.282  40.079  13.930
66159W        W38584  40.347  22.029  12.402
66160W        W38585   4.955   9.155  14.944
66161W        W38586  36.668  21.580   0.037
66162W        W38587   3.450  17.323   1.220
66163W        W38588  44.340  11.253  14.935
66164W        W38589  40.502   4.194   2.823
66165W        W38590  40.723  29.048   1.141
66166W        W38591  17.133   8.392   1.507
66167W        W38592  28.495  34.906   1.196
66168W        W38593  35.110  34.864   0.336
66169W        W38594  35.505   2.994  12.301
66170W        W38595  44.825  36.366   2.634
66171W        W38596  25.233  18.387  12.020
66172W        W38597   3.234  28.687  13.489
66173W        W38598  44.408  19.517   1.428
66174W        W38599  38.591  30.935  14.326
66175W        W38600  29.503  27.812  13.755
66176W        W38601  25.516   8.181  12.957
66177W        W38602  43.253  36.670  14.931
66178W        W38603  37.356   5.767   1.875
66179W        W38604   7.839  26.915  10.773
66180W        W38605  16.243  12.554  11.132
66181W        W38606  29.210  18.086   1.410
66182W        W38607  26.497  19.210   1.221
66183W        W38608  26.661  12.808   0.291
66184W        W38609   2.032  20.368   4.116
66185W        W38610  21.987  34.867  14.912
66186W        W38611  14.794  33.324  12.320
66187W        W38612  18.349   5.334  11.918
66188W        W38613  29.985  43.476  11.754
66189W        W38614  14.768  12.736  14.434
66190W        W38615  36.296  25.636   0.843
66191W        W38616  43.710  19.184   0.257
66192W        W38617  44.884  38.302  12.166
66193W        W38618  32.927  14.241   3.157
66194W        W38619  38.402  36.892   3.610
66195W        W38620  41.358  43.301   2.742
66196W        W38621  38.309  26.679   0.061
66197W        W38622  43.784  13.365   3.604
66198W        W38623  13.331  26.107   3.166
66199W        W38624  39.832   7.689   3.201
66200W        W38625  31.826  20.730   2.288
66201W        W38626  12.765   1.327   3.366
66202W        W38627   2.953   9.062  14.770
66203W        W38628  25.945  38.036  12.564
66204W        W38629  37.957   5.920  12.424
66205W        W38630  31.873  23.563   0.454
66206W        W38631  22.655  14.351  14.714
66207W        W38632  38.306   8.907   2.717
66208W        W38633  43.910  18.280   3.328
66209W        W38634  31.068  39.204   1.817
66210W        W38635  16.263   4.769   3.118
66211W        W38636  16.178  25.355   5.002
66212W        W38637  15.696   2.294   4.365
66213W        W38638  26.657   0.929  14.220
66214W        W38639  20.476  12.863   0.318
66215W        W38640  21.755  11.903   0.403
66216W        W38641   8.314  10.728   1.829
66217W        W38642  17.880   2.384   4.241
66218W        W38643  31.866  18.370  11.622
66219W        W38644  16.838  14.789   4.638
66220W        W38645  17.245  35.410  14.952
66221W        W38646  39.814  10.188  14.798
66222W        W38647  15.055  10.440  14.928
66223W        W38648  16.678  32.986   2.797
66224W        W38649  42.152   6.882   1.824
66225W        W38650  17.697  21.222   0.741
66226W        W38651  11.171   3.176   1.238
66227W        W38652   6.399  15.663   0.707
66228W        W38653  22.846  25.430   1.909
66229W        W38654  36.463   0.939   4.694
66230W        W38655  25.523  15.073  14.865
66231W        W38656  17.127  10.863  14.927
66232W        W38657  30.377  25.882   0.892
66233W        W38658  42.065  34.119  11.470
66234W        W38659  16.319  35.136   3.228
66235W        W38660   3.870  19.347  12.193
66236W        W38661  20.131  19.668   0.798
66237W        W38662  11.098  24.364   5.267
66238W        W38663  20.340  26.104   4.045
66239W        W38664  41.009  24.499   0.969
66240W        W38665   8.453  10.925  14.044
66241W        W38666  16.792   4.354  12.363
66242W        W38667  16.523  42.246  14.055
66243W        W38668   1.987  17.767  13.169
66244W        W38669  31.490  18.015   3.316
66245W        W38670  24.629  14.260  10.774
66246W        W38671  25.969  16.186  12.818
66247W        W38672  30.974  26.359   1.521
66248W        W38673  41.205  27.481   3.262
66249W        W38674  25.195  36.477   0.286
66250W        W38675  26.222  22.064   3.733
66251W        W38676   4.732  42.934  13.559
66252W        W38677   2.726  30.001   4.088
66253W        W38678  33.315  39.187   3.194
66254W        W38679  33.277   3.577   0.378
66255W        W38680  44.009  26.411  11.014
66256W        W38681  15.350  41.835   3.596
66257W        W38682  39.127   2.466   1.394
66258W        W38683   0.583  13.242   4.151
66259W        W38684   5.097  22.048   2.400
66260W        W38685  28.777  44.986  14.506
66261W        W38686  12.111  38.320   1.740
66262W        W38687  39.776   5.310  12.797
66263W        W38688   6.698  32.430  10.580
66264W        W38689  14.728   3.947   1.277
66265W        W38690  35.675   9.334   2.385
66266W        W38691   2.426  41.860  14.005
66267W        W38692   7.252  43.891   0.727
66268W        W38693  40.889  17.739  12.927
66269W        W38694  35.804  35.543  13.827
66270W        W38695  13.176  17.666   4.684
66271W        W38696  20.747  44.624  13.752
66272W        W38697  21.752  15.470   1.440
66273W        W38698  29.919  20.770  12.104
66274W        W38699  43.007  21.394   0.465
66275W        W38700  22.523  28.095  14.696
66276W        W38701  35.394   4.323   1.751
66277W        W38702  16.678   9.801   2.479
66278W        W38703  16.498  28.056   0.337
66279W        W38704   6.664   5.329  11.902
66280W        W38705  44.925  12.769   0.371
66281W        W38706   6.779  36.332  12.468
66282W        W38707   9.614  28.547  14.795
66283W        W38708  17.839  12.071  14.951
66284W        W38709  16.878   9.763   3.378
66285W        W38710  25.568  34.849   2.189
66286W        W38711  27.041   9.046   3.327
66287W        W38712  24.777  12.728   1.959
66288W        W38713  18.051   8.145  10.661
66289W        W38714  22.139  21.178  14.481
66290W        W38715  25.701  40.263   0.425
66291W        W38716  19.740  11.976   3.740
66292W        W38717  21.955   3.487  13.837
66293W        W38718  28.589  27.286   1.473
66294W        W38719  34.159  39.796  11.574
66295W        W38720  37.079  15.819  13.621
66296W        W38721  39.280  33.834  10.622
66297W        W38722  32.230  18.979   2.697
66298W        W38723   3.199  31.694   4.151
66299W        W38724   8.708   5.380   1.932
66300W        W38725  18.113  36.044   4.082
66301W        W38726   4.940  44.351  13.420
66302W        W38727  14.662  39.773   1.859
66303W        W38728   2.232  10.916  12.423
66304W        W38729  38.360  29.524  14.728
66305W        W38730  21.210  28.077   2.045
66306W        W38731  34.018  22.154   4.979
66307W        W38732  36.581  43.955  14.783
66308W        W38733  35.239  19.369  13.486
66309W        W38734  13.329  17.696   2.236
66310W        W38735  35.436  26.091   1.401
66311W        W38736   8.308  36.407   3.365
66312W        W38737  11.404  12.899   1.905
66313W        W38738   5.182  31.672   1.166
66314W        W38739  17.695  19.805  13.914
66315W        W38740  10.029   8.337   1.317
66316W        W38741  37.035  12.896  14.781
66317W        W38742  21.179  30.392   4.629
66318W        W38743  44.429  32.037   9.817
66319W        W38744  42.022  40.826   2.647
66320W        W38745  26.923  37.331   5.032
66321W        W38746  28.967   2.639   0.829
66322W        W38747  33.081  31.810   4.673
66323W        W38748  13.220  12.054  12.433
66324W        W38749   3.428  21.605   2.764
66325W        W38750  34.883   3.757  10.713
66326W        W38751  34.012  12.413  10.888
66327W        W38752  12.403  13.686   3.478
66328W        W38753  44.875  12.589  10.640
66329W        W38754  29.432  44.137  13.980
66330W        W38755   1.450  22.979   2.237
66331W        W38756  16.020  33.039  13.050
66332W        W38757   4.520  13.723   1.832
66333W        W38758  33.565   9.975  11.001
66334W        W38759  25.955  43.139  11.649
66335W        W38760   6.310  26.242  14.822
66336W        W38761   9.894  35.556   3.582
66337W        W38762   1.427  22.760  13.288
66338W        W38763  13.206  25.131   3.638
66339W        W38764   4.701  42.449   0.702
66340W        W38765  29.640  30.416  14.413
66341W        W38766  18.686  16.638  11.180
66342W        W38767   8.890  13.049  14.305
66343W        W38768   5.500  16.774  10.900
66344W        W38769  16.178   3.704  12.095
66345W        W38770  38.359  13.405   2.721
66346W        W38771  19.308  21.770   4.065
66347W        W38772   4.169   4.362  14.202
66348W        W38773  26.209  38.470   0.410
66349W        W38774  37.006  27.982  11.728
66350W        W38775  23.472  29.123  11.629
66351W        W38776  31.381  11.604   0.839
66352W        W38777  12.672  37.756   2.744
66353W        W38778  11.849  12.567   3.365
66354W        W38779  33.895  43.478  10.979
66355W        W38780  41.760  26.663   3.310
66356W        W38781   5.596  27.033  12.211
66357W        W38782  33.394   9.369  11.453
66358W        W38783  18.285   0.212   2.914
66359W        W38784  27.185   5.934  14.733
66360W        W38785  19.750  14.308   1.883
66361W        W38786  44.378  15.253   2.729
66362W        W38787  38.372  26.149   1.435
66363W        W38788  29.415  19.186   0.774
66364W        W38789   8.589  11.169   2.937
66365W        W38790   2.975  34.930   1.754
66366W        W38791  17.243  10.864   0.478
66367W        W38792  32.378  28.209  11.781
66368W        W38793   5.777   3.476  11.218
66369W        W38794  31.705  42.743   3.687
66370W        W38795  23.737  23.589   4.079
66371W        W38796  32.408  37.611  13.432
66372W        W38797   0.039  42.800  14.288
66373W        W38798  21.723  27.716   2.349
66374W        W38799  16.265  20.384  10.865
66375W        W38800  35.314  24.432  14.848
66376W        W38801  22.566  22.791   1.022
66377W        W38802   7.324  37.370   2.191
66378W        W38803  19.684  15.092   0.875
66379W        W38804  10.312   3.733  14.465
66380W        W38805  11.148  41.084  14.589
66381W        W38806   6.863  34.109  11.105
66382W        W38807   1.580  33.634   5.162
66383W        W38808  21.389  26.325  10.010
66384W        W38809   7.737  33.461  13.406
66385W        W38810  27.164  42.769  13.349
66386W        W38811  39.854   9.397   2.745
66387W        W38812  24.750  12.570  10.725
66388W        W38813  10.126  22.475   3.472
66389W        W38814  25.703  14.190  13.531
66390W        W38815  29.395  35.429  11.601
66391W        W38816  43.874  15.328   0.234
66392W        W38817  13.219  22.309  10.616
66393W        W38818  36.611  43.357  14.357
66394W        W38819  17.263  22.157  11.975
66395W        W38820   6.104  12.889   3.044
66396W        W38821   5.378   7.357  13.759
66397W        W38822   8.896  21.527  11.533
66398W        W38823   3.371  39.092   0.901
66399W        W38824  20.109   2.205  10.757
66400W        W38825  15.224  39.761  11.527
66401W        W38826  31.355  25.588   2.927
66402W        W38827  24.054  30.884   0.452
66403W        W38828  38.402  19.276   4.386
66404W        W38829  24.650   5.896   1.328
66405W        W38830  35.119  26.077   2.376
66406W        W38831  27.292  10.681   2.720
66407W        W38832  16.081  21.108   1.352
66408W        W38833  41.473  19.054   0.353
66409W        W38834   6.899   9.121   0.492
66410W        W38835  29.588  37.014  13.840
66411W        W38836   8.802  40.496   1.845
66412W        W38837  13.608   5.107   0.260
66413W        W38838   0.926  41.098  13.963
66414W        W38839  18.824  27.646  13.499
66415W        W38840   2.519  27.404  14.394
66416W        W38841  32.400   7.234  12.476
66417W        W38842  31.430   0.784  12.962
66418W        W38843  18.538  13.557  10.789
66419W        W38844  40.749  29.557  13.430
66420W        W38845  13.415  20.692  10.614
66421W        W38846  40.266  33.341   4.474
66422W        W38847  22.134   7.329   1.759
66423W        W38848  33.485  12.314  14.491
66424W        W38849  40.579  20.932   5.332
66425W        W38850   0.512  15.780   2.410
66426W        W38851   0.463  27.973  13.453
66427W        W38852  39.083  23.609   3.336
66428W        W38853   5.949  34.137   0.888
66429W        W38854  18.862  22.413  13.880
66430W        W38855   2.792  35.970  11.522
66431W        W38856  17.855  39.048  14.118
66432W        W38857  31.562  36.935  14.013
66433W        W38858   3.186  20.591  14.347
66434W        W38859  15.302  27.556   4.708
66435W        W38860  20.833  20.124  14.958
66436W        W38861  20.098   5.592  11.874
66437W        W38862  26.578  37.249   1.454
66438W        W38863  26.952  27.426  14.279
66439W        W38864  36.793  41.398   0.209
66440W        W38865  21.753  15.692  13.002
66441W        W38866  31.789  17.271  10.398
66442W        W38867  30.904  40.324  13.130
66443W        W38868  39.787   8.738   4.652
66444W        W38869  33.583  36.830   1.255
66445W        W38870  20.382   1.924  14.419
66446W        W38871  23.740   1.275  11.467
66447W        W38872  33.689   1.899  14.223
66448W        W38873  41.617  18.856   3.063
66449W        W38874  42.007   6.327  10.727
66450W        W38875  23.564  31.767   3.194
66451W        W38876   6.788  28.180   2.369
66452W        W38877  26.012  19.373   1.023
66453W        W38878  19.148  24.469   0.955
66454W        W38879   1.859   2.710  14.840
66455W        W38880  38.372  28.197  11.543
66456W        W38881  23.962  38.277   4.338
66457W        W38882   7.518  28.531   0.273
66458W        W38883  10.791   5.091  13.409
66459W        W38884  34.087  38.809   4.067
66460W        W38885  16.576  25.073   1.951
66461W        W38886  20.840  43.346   4.177
66462W        W38887   3.332  37.618  12.070
66463W        W38888   8.914   4.439   1.744
66464W        W38889  19.103   0.909   4.271
66465W        W38890  29.049  19.000  14.551
66466W        W38891  10.815  40.943   4.322
66467W        W38892  38.848   1.979  12.413
66468W        W38893  35.390  44.796   4.077
66469W        W38894  11.589  29.067  10.554
66470W        W38895   6.166  18.682   3.302
66471W        W38896   6.327  39.841  12.039
66472W        W38897  15.237   7.939  11.963
66473W        W38898  42.617   3.853  10.816
66474W        W38899  26.545  18.504  12.572
66475W        W38900  19.642  10.933   3.640
66476W        W38901   4.734  34.157  10.816
66477W        W38902  19.058  34.580   4.161
66478W        W38903  42.396  30.647   2.459
66479W        W38904  32.039  27.197   0.611
66480W        W38905  38.898  44.203  10.439
66481W        W38906  26.275  37.812   2.713
66482W        W38907  24.707  26.574  12.040
66483W        W38908  37.068   7.685  10.182
66484W        W38909  40.396  35.894  11.289
66485W        W38910  12.821   5.239   0.748
66486W        W38911  25.797  39.268   2.683
66487W        W38912  23.105  39.056  11.159
66488W        W38913   2.388   3.918   1.903
66489W        W38914  37.116  38.981   1.933
66490W        W38915  40.314  24.662   4.758
66491W        W38916   7.204  35.598   4.168
66492W        W38917   5.351  22.682  12.169
66493W        W38918  29.639  34.930   5.004
66494W        W38919  17.707  34.005   2.849
66495W        W38920  13.530  21.145   2.614
66496W        W38921  18.210  13.612  12.964
66497W        W38922  26.823  38.857   3.556
66498W        W38923  34.659  39.590  14.401
66499W        W38924  27.077   1.821  12.482
66500W        W38925  12.806  11.738   3.246
66501W        W38926  15.587  38.119   2.305
66502W        W38927  44.467  44.932  13.859
66503W        W38928   6.666  13.416   3.703
66504W        W38929  42.300  16.499  12.034
66505W        W38930   9.349  43.931   4.105
66506W        W38931  33.532  41.464   5.081
66507W        W38932  17.205  44.790   3.284
66508W        W38933  44.860  33.519  10.084
66509W        W38934  15.403  23.296  12.981
66510W        W38935   4.663  21.592   3.658
66511W        W38936  13.335  36.434   4.563
66512W        W38937  16.268  30.214  14.982
66513W        W38938  27.773   6.537  10.381
66514W        W38939   5.383  13.620   0.879
66515W        W38940  20.499  16.750  14.817
66516W        W38941  25.480  33.006   1.835
66517W        W38942   6.949  22.736   3.095
66518W        W38943  22.108  10.582  11.078
66519W        W38944   9.826  18.589   4.399
66520W        W38945  26.466   0.672   3.871
66521W        W38946  43.033  37.500  13.053
66522W        W38947  31.445   5.224  11.031
66523W        W38948  43.630   4.829   3.904
66524W        W38949  33.951   3.702   0.705
66525W        W38950   5.156  34.890  12.969
66526W        W38951  27.069  13.843   4.528
66527W        W38952  43.006   7.153  12.119
66528W        W38953   1.776  28.306   0.263
66529W        W38954   7.286  42.278  12.441
66530W        W38955  39.520  39.883  10.626
66531W        W38956  18.306  18.223  13.350
66532W        W38957  39.456  41.036   0.361
66533W        W38958   5.934  27.604  14.253
66534W        W38959   1.451  17.498  12.095
66535W        W38960  25.154   7.995   2.360
66536W        W38961  36.805  30.611   0.189
66537W        W38962  29.413  21.465  10.628
66538W        W38963   3.707   4.881   4.760
66539W        W38964  30.021  39.588   1.833
66540W        W38965  10.367  44.312  14.895
66541W        W38966  41.343  27.096   0.494
66542W        W38967  38.736  14.851  12.598
66543W        W38968  30.791  20.135  13.131
66544W        W38969  34.435  18.685   0.101
66545W        W38970  42.315  12.983   0.154
66546W        W38971   3.179  20.092  12.399
66547W        W38972  42.464  33.605   4.220
66548W        W38973  11.783  21.417   1.729
66549W        W38974  13.119  24.390  11.587
66550W        W38975  30.869   1.895   2.967
66551W        W38976   4.298  32.616   2.851
66552W        W38977   7.722   0.816   3.624
66553W        W38978   4.226   3.453  10.764
66554W        W38979  36.192  30.462  11.104
66555W        W38980  36.031  25.003  13.408
66556W        W38981  10.925  21.620  10.762
66557W        W38982  14.334  17.262   4.145
66558W        W38983   9.835   3.054   4.083
66559W        W38984  44.729   8.236  13.475
66560W        W38985  30.946  44.065   0.895
66561W        W38986  43.455   5.341  11.766
66562W        W38987  37.783  30.440   2.061
66563W        W38988  16.243   2.898  12.515
66564W        W38989  10.320   2.810   4.021
66565W        W38990  13.348  31.374   0.904
66566W        W38991  33.366  35.470   0.409
66567W        W38992  17.738  40.124   4.510
66568W        W38993  24.036  33.602   1.935
66569W        W38994  37.477  24.613  13.987
66570W        W38995  12.482   4.740  10.205
66571W        W38996  19.316  18.392  12.490
66572W        W38997   7.392  38.538   2.939
66573W        W38998   4.519  37.645   0.180
66574W        W38999  10.904  37.948  14.152
66575W        W39000  22.137   7.779  14.908
66576W        W39001  23.156  14.158  14.019
66577W        W39002  26.557  32.714   1.330
66578W        W39003  34.036  18.195   1.873
66579W        W39004   1.654   1.996   3.694
66580W        W39005  26.124  29.545  12.458
66581W        W39006  35.288  35.039   2.392
66582W        W39007  43.501   8.887  12.152
66583W        W39008   1.315  29.765  11.409
66584W        W39009  28.574  29.618   2.127
66585W        W39010   5.982  36.062  13.340
66586W        W39011  23.855  37.099   4.662
66587W        W39012  12.892   5.650   3.848
66588W        W39013   8.771  17.348   1.739
66589W        W39014  32.409  31.445   0.923
66590W        W39015  42.839  24.723   0.934
66591W        W39016  35.742  29.200   0.023
66592W        W39017   8.642  16.802  12.072
66593W        W39018  36.956  36.284   3.671
66594W        W39019  13.044  11.185  11.445
66595W        W39020  22.583  37.977  11.513
66596W        W39021   0.092  15.924  11.774
66597W        W39022  23.723  26.805   3.313
66598W        W39023  16.155  34.576  12.449
66599W        W39024  18.471   3.255   2.711
66600W        W39025  25.232  27.550  11.968
66601W        W39026  35.010  44.323  14.766
66602W        W39027  40.590  41.419  14.008
66603W        W39028   7.763  30.599  12.609
66604W        W39029  10.328   1.772  14.653
66605W        W39030  43.902   7.295   3.464
66606W        W39031  35.182  10.074   4.665
66607W        W39032   3.760  18.960   2.907
66608W        W39033  21.159  14.225  10.722
66609W        W39034   6.706  11.695  13.403
66610W        W39035   5.639  38.392   4.807
66611W        W39036   8.455   0.509   1.685
66612W        W39037  14.651  12.775   0.851
66613W        W39038  31.584   1.749  10.895
66614W        W39039   2.346   4.376  11.706
66615W        W39040  22.072  21.718  11.039
66616W        W39041  40.889  28.117  13.403
66617W        W39042  23.394  20.098   2.650
66618W        W39043  32.570  43.361  11.874
66619W        W39044  11.754   0.485   4.579
66620W        W39045  18.101   2.232   3.204
66621W        W39046  10.196   3.920  10.567
66622W        W39047  10.062  12.266  14.495
66623W        W39048  15.019  43.457   4.203
66624W        W39049   8.310  26.054  14.494
66625W        W39050  28.492  31.221   1.262
66626W        W39051  11.260  22.117   4.651
66627W        W39052  32.684  14.648   2.208
66628W        W39053   5.189   8.522   4.540
66629W        W39054  41.496  24.101   1.254
66630W        W39055  12.223  26.520  11.487
66631W        W39056  28.071  38.152   2.858
66632W        W39057  38.549  30.495  14.760
66633W        W39058  16.571   5.795  11.922
66634W        W39059  21.561  30.533  14.369
66635W        W39060  35.005  10.609  12.494
66636W        W39061  31.665  34.996  12.518
66637W        W39062  23.158  33.059   3.462
66638W        W39063  42.367  26.137   4.754
66639W        W39064   3.260   3.910  12.547
66640W        W39065  39.859   4.831  13.012
66641W        W39066  37.094  21.505  12.503
66642W        W39067  13.548  26.106  10.670
66643W        W39068  39.790  21.761  11.144
66644W        W39069  36.334   0.298  12.086
66645W        W39070  30.992  21.596   5.125
66646W        W39071  33.587  41.059  13.564
66647W        W39072  41.547  42.047  12.036
66648W        W39073  35.566  11.736  14.032
66649W        W39074  14.628   6.815   2.250
66650W        W39075   1.711   3.804  13.917
66651W        W39076  14.349  14.152  13.880
66652W        W39077  13.967  13.929   5.210
66653W        W39078  19.031  15.974   4.770
66654W        W39079  43.802  21.598   3.346
66655W        W39080  28.585  37.087   4.251
66656W        W39081  18.157  28.163  11.589
66657W        W39082  44.894  31.182   0.302
66658W        W39083  28.908  33.997  12.099
66659W        W39084  14.226  36.704   2.045
66660W        W39085  12.886   6.347  14.282
66661W        W39086  17.461   4.753  10.022
66662W        W39087  38.989  25.404  11.640
66663W        W39088  20.834  40.277  10.401
66664W        W39089  31.095   8.961   2.269
66665W        W39090  28.729  25.255  10.511
66666W        W39091   5.239  39.712   0.552
66667W        W39092  33.868  37.326   0.468
66668W        W39093  22.589  24.061  12.024
66669W        W39094  18.737   6.947   3.231
66670W        W39095  12.152  14.675   4.190
66671W        W39096   4.073  44.348  12.290
66672W        W39097  20.076   0.266   2.371
66673W        W39098  33.049  44.567   3.380
66674W        W39099  18.544  16.772  14.500
66675W        W39100  17.781   8.170   0.317
66676W        W39101  26.823  37.056   2.808
66677W        W39102  41.415  20.643   2.000
66678W        W39103  18.265  26.619   0.781
66679W        W39104  36.004  38.937   0.003
66680W        W39105  42.437  35.856  13.358
66681W        W39106  42.938   2.804   3.368
66682W        W39107   6.252   8.763   1.528
66683W        W39108  44.855   9.104  12.549
66684W        W39109  13.089  44.961   0.822
66685W        W39110  26.184  15.572   2.645
66686W        W39111  20.659  26.720  13.548
66687W        W39112  37.834  41.913  14.393
66688W        W39113   8.362  44.327   1.852
66689W        W39114  29.120  36.378  13.865
66690W        W39115   5.065  29.859   2.940
66691W        W39116  18.058  10.791  14.411
66692W        W39117  33.319  37.099   2.560
66693W        W39118   6.277   8.419   1.111
66694W        W39119  38.027  13.850   4.057
66695W        W39120   2.863  12.924   0.489
66696W        W39121   8.411  42.578  13.878
66697W        W39122   9.730  12.112  12.180
66698W        W39123  37.307  17.169  13.939
66699W        W39124  26.979   8.775  11.266
66700W        W39125  30.819   8.676  10.299
66701W        W39126   4.029  16.174  11.622
66702W        W39127  37.989   0.236   1.314
66703W        W39128  37.395  19.497   4.521
66704W        W39129  41.402  36.447   2.285
66705W        W39130  30.476  38.903   0.896
66706W        W39131  24.186   7.482  11.758
66707W        W39132  21.150  26.182   3.540
66708W        W39133  23.169  21.148   3.785
66709W        W39134  21.498  21.113   3.771
66710W        W39135  36.164  34.584  12.430
66711W        W39136  39.928  27.138   3.242
66712W        W39137   1.975  10.565  14.210
66713W        W39138  28.596   3.926   2.937
66714W        W39139   7.242   6.983  14.864
66715W        W39140  13.484   4.601   0.273
66716W        W39141  12.709  33.067   1.507
66717W        W39142  44.476  29.126   1.062
66718W        W39143  36.803  42.601   2.619
66719W        W39144  25.749  28.635   3.830
66720W        W39145  11.541   2.380   3.695
66721W        W39146   7.635  33.481  14.755
66722W        W39147  34.822  23.789   4.183
66723W        W39148   6.337  41.522   0.247
66724W        W39149  17.173  17.601   3.768
66725W        W39150  39.303   6.194  12.419
66726W        W39151  21.251  15.116   1.713
66727W        W39152  30.486  37.879  11.067
66728W        W39153  31.127  12.715   4.044
66729W        W39154  13.246   3.530  10.699
66730W        W39155  35.381   3.277   3.383
66731W        W39156   8.640   0.795   4.627
66732W        W39157  33.523  13.844   1.338
66733W        W39158  28.245  11.300  12.653
66734W        W39159  42.744  30.588  11.698
66735W        W39160   5.635  12.342   3.525
66736W        W39161  14.277  31.909   4.351
66737W        W39162  30.493   5.660  12.992
66738W        W39163  44.998   4.251  14.976
66739W        W39164  24.425  12.833  14.357
66740W        W39165  21.076  22.159  11.848
66741W        W39166   6.487  38.337  13.531
66742W        W39167  34.798  22.477   3.103
66743W        W39168  22.676  27.438  12.420
66744W        W39169  41.242   1.514   2.419
66745W        W39170  35.331  19.338   0.353
66746W        W39171  42.915  44.340   1.540
66747W        W39172  18.231  17.516   2.636
66748W        W39173  19.747  11.338   3.145
66749W        W39174  21.028  11.640   1.444
66750W        W39175  37.158  11.869   2.880
66751W        W39176  15.308   3.774   3.701
66752W        W39177  22.045  38.546   2.155
66753W        W39178  35.478  14.056   2.835
66754W        W39179  38.607   1.756  11.978
66755W        W39180  42.909  15.157   3.140
66756W        W39181  40.502  35.371  11.210
66757W        W39182  20.522  28.906   2.756
66758W        W39183  34.336  22.766  11.522
66759W        W39184  17.209  44.603  13.823
66760W        W39185  31.133   2.724   0.857
66761W        W39186  20.572  39.770   4.310
66762W        W39187  13.868  31.154   0.242
66763W        W39188  19.167  19.993  11.364
66764W        W39189  10.277  38.958   1.855
66765W        W39190   3.999  17.644   3.265
66766W        W39191  40.803  34.599   0.892
66767W        W39192  42.764  32.049  11.515
66768W        W39193  36.847  28.506  13.536
66769W        W39194  38.074  11.713   3.044
66770W        W39195  23.998  18.470   1.383
66771W        W39196   8.728   4.417  13.387
66772W        W39197  38.887   7.791  10.534
66773W        W39198  43.790   2.441   0.472
66774W        W39199  25.221  35.759   2.867
66775W        W39200  28.505   1.548   2.476
66776W        W39201  35.030  36.338  11.988
66777W        W39202  36.410  43.296   4.110
66778W        W39203  28.256  30.890   0.895
66779W        W39204  22.266  18.217  14.289
66780W        W39205  19.892  22.694   1.426
66781W        W39206  25.078   0.670  12.125
66782W        W39207  37.064  27.129  13.969
66783W        W39208  10.924   4.095  13.474
66784W        W39209  25.964  37.581  11.540
66785W        W39210   6.807  39.982  12.971
66786W        W39211  29.487  41.239   2.889
66787W        W39212  26.488   9.086  14.239
66788W        W39213  19.170  23.232  12.924
66789W        W39214  43.423  30.871   2.994
66790W        W39215  22.330   0.459   4.719
66791W        W39216  42.541   0.307  11.594
66792W        W39217   5.315  37.767   0.485
66793W        W39218   8.637  34.393  12.046
66794W        W39219  22.273  26.054   2.399
66795W        W39220  33.470   2.724  10.034
66796W        W39221  11.462  11.788  11.974
66797W        W39222  27.035  28.642  13.797
66798W        W39223   1.894  37.989  11.543
66799W        W39224  24.041  20.524   2.758
66800W        W39225  28.075  17.621   4.237
66801W        W39226  42.876  27.656  13.517
66802W        W39227  17.060  19.259   1.278
66803W        W39228  33.984   4.277  14.844
66804W        W39229  21.479  42.994  10.378
66805W        W39230  19.289  17.142  12.033
66806W        W39231  20.175  19.817   5.200
66807W        W39232  11.747  28.887   2.892
66808W        W39233  20.102   0.759  12.943
66809W        W39234   2.348   5.590  11.258
66810W        W39235  23.381  23.153  13.365
66811W        W39236  37.707   3.249  14.800
66812W        W39237   5.474   5.148  11.700
66813W        W39238  43.521  30.457  13.413
66814W        W39239  41.002  32.417   1.292
66815W        W39240   6.753  38.569  12.591
66816W        W39241  31.340  40.785  13.906
66817W        W39242  23.842  40.369  11.193
66818W        W39243  36.023  20.727   4.685
66819W        W39244   2.289   8.844  12.501
66820W        W39245  37.045  23.469  11.252
66821W        W39246  14.110  13.243   4.518
66822W        W39247  10.414  13.784  12.544
66823W        W39248   6.220  42.751   4.865
66824W        W39249   6.288  42.540  12.448
66825W        W39250  13.703  36.356   1.748
66826W        W39251  42.997  31.689   1.904
66827W        W39252  19.993  13.787   1.387
66828W        W39253  37.563   6.299  11.517
66829W        W39254  16.745  35.445   0.057
66830W        W39255  32.027   6.346   1.206
66831W        W39256   1.752  28.027  12.543
66832W        W39257  41.924  16.141   1.669
66833W        W39258  34.162   2.440  11.544
66834W        W39259  29.176  35.389   1.886
66835W        W39260  14.044  44.704   0.759
66836W        W39261  15.308  42.659   2.744
66837W        W39262   7.168  18.248  10.646
66838W        W39263  25.738  40.536   2.738
66839W        W39264  27.165   0.690  13.499
66840W        W39265  39.361  36.747   3.727
66841W        W39266   0.940  40.361   1.099
66842W        W39267  35.451  38.822   3.549
66843W        W39268  15.778  38.527   3.165
66844W        W39269  17.064  13.655   0.744
66845W        W39270   5.354  36.047   2.459
66846W        W39271  21.993  41.379   4.865
66847W        W39272  31.799  22.371   4.849
66848W        W39273  22.258  39.013   2.317
66849W        W39274  20.254   0.110  11.696
66850W        W39275  14.308  18.269   4.237
66851W        W39276  22.625  25.797   3.664
66852W        W39277  26.918   7.294  13.886
66853W        W39278  20.555  12.085   0.715
66854W        W39279  28.434  43.570   2.805
66855W        W39280  37.360  33.142   3.121
66856W        W39281  10.378  34.113   1.193
66857W        W39282   0.447  13.954  13.940
66858W        W39283  24.886  37.970  11.574
66859W        W39284  22.241  29.988   3.790
66860W        W39285  13.198  20.826  11.105
66861W        W39286   6.804   8.348   1.830
66862W        W39287  37.434  34.498   0.110
66863W        W39288   5.940   5.452  11.400
66864W        W39289  19.049  31.419  13.469
66865W        W39290  11.225  13.360  12.059
66866W        W39291   0.815  35.037   3.185
66867W        W39292  43.901  15.552  10.544
66868W        W39293  22.076  10.898   1.423
66869W        W39294  36.826   5.546  13.838
66870W        W39295  29.014   4.244  14.936
66871W        W39296  34.960  11.942   0.139
66872W        W39297  10.205  27.005   2.470
66873W        W39298  22.481  23.276   1.166
66874W        W39299  10.197  36.390  12.372
66875W        W39300  28.501  20.752   1.750
66876W        W39301   5.472   3.831  11.008
66877W        W39302  44.464  19.530   2.390
66878W        W39303  10.006  15.981  14.589
66879W        W39304  15.070  26.245   0.918
66880W        W39305  43.843  24.428   2.233
66881W        W39306  36.904  22.037  11.156
66882W        W39307  29.231  12.639   4.058
66883W        W39308   9.381  28.646   0.259
66884W        W39309  36.130   0.455  10.778
66885W        W39310  21.824  33.393   4.082
66886W        W39311  35.176  44.732   1.559
66887W        W39312  40.938  19.814   2.706
66888W        W39313  37.904  35.499   2.497
66889W        W39314   3.783  41.385  13.983
66890W        W39315   1.480  33.958   0.165
66891W        W39316  13.606  27.295   2.904
66892W        W39317  19.970  41.113  14.924
66893W        W39318  17.177   4.401   0.763
66894W        W39319  29.125  32.342  11.525
66895W        W39320  14.192   8.958  11.997
66896W        W39321   0.531  43.543  13.331
66897W        W39322  42.611  37.669   0.878
66898W        W39323  20.546  17.320   3.800
66899W        W39324  14.553   8.316  13.920
66900W        W39325  40.332   2.690  13.848
66901W        W39326  37.396  35.757   2.761
66902W        W39327  26.975   5.336   3.054
66903W        W39328   2.647   3.141   4.812
66904W        W39329  21.741  38.383   0.862
66905W        W39330  34.288  43.366  13.963
66906W        W39331  43.925   1.220   3.353
66907W        W39332  27.991  21.004  11.989
66908W        W39333  23.107  39.305   3.312
66909W        W39334  25.521  10.021   2.562
66910W        W39335  22.683  15.996  13.129
66911W        W39336   3.027   5.379   0.748
66912W        W39337  23.643  34.469   4.699
66913W        W39338  27.790  15.757  10.364
66914W        W39339  15.696  16.652   3.766
66915W        W39340  30.016   7.312   2.400
66916W        W39341   2.095   9.571  13.375
66917W        W39342  12.453  23.488  14.727
66918W        W39343  34.251  24.471  14.717
66919W        W39344  36.321  42.022   2.215
66920W        W39345  13.854  35.627   0.215
66921W        W39346   6.992  40.978   4.338
66922W        W39347  34.499   7.695  12.463
66923W        W39348  36.173  42.073   3.084
66924W        W39349  21.742  10.811  13.586
66925W        W39350  35.463   6.267  10.933
66926W        W39351   9.862  32.181   0.778
66927W        W39352  34.897  35.563   5.256
66928W        W39353   4.705  13.846   1.368
66929W        W39354  32.334  18.016   0.656
66930W        W39355   5.008   1.045   2.699
66931W        W39356  22.478  30.782  13.717
66932W        W39357  16.622  21.190   4.967
66933W        W39358  39.037  21.146   0.399
66934W        W39359   2.619  22.663  14.007
66935W        W39360   5.785  44.790   3.294
66936W        W39361   1.527  21.172   2.251
66937W        W39362  10.047  26.378   2.717
66938W        W39363  30.858  16.086  11.701
66939W        W39364  34.437   3.534  10.842
66940W        W39365  17.090  34.380   1.389
66941W        W39366  11.233  38.388   1.648
66942W        W39367  28.017  37.891  13.838
66943W        W39368   4.471  18.588  12.661
66944W        W39369  21.224  27.473   0.680
66945W        W39370  23.094  27.424  13.887
66946W        W39371  37.191  40.824   2.503
66947W        W39372  10.095   7.441  12.877
66948W        W39373  16.701  44.784  13.842
66949W        W39374  44.028   2.283   0.943
66950W        W39375  40.549  10.459   4.566
66951W        W39376   9.915  14.575   2.239
66952W        W39377  32.857  12.288  12.069
66953W        W39378  24.454   3.355  13.733
66954W        W39379  38.416  41.363   2.554
66955W        W39380  25.547  18.205   2.147
66956W        W39381   5.990  27.972  11.164
66957W        W39382  32.169  37.063   4.888
66958W        W39383  31.602  13.357   2.772
66959W        W39384  30.201   4.965   1.431
66960W        W39385  38.844  27.504   4.069
66961W        W39386  21.283  25.584  10.712
66962W        W39387  33.860  25.585   0.892
66963W        W39388  38.007  38.281   0.476
66964W        W39389  34.262  35.672  13.774
66965W        W39390  32.162  18.585  12.038
66966W        W39391  10.249   8.375   1.777
66967W        W39392   4.964  30.611  11.535
66968W        W39393  38.422   4.146   0.765
66969W        W39394  22.785  38.437   0.947
66970W        W39395   9.117  37.904  13.324
66971W        W39396   5.281  13.161  14.480
66972W        W39397  13.339  20.634  14.952
66973W        W39398  35.307  39.202   1.046
66974W        W39399  28.605  29.387  14.584
66975W        W39400  28.701  41.407   9.970
66976W        W39401  26.212   4.815   1.405
66977W        W39402  18.174  35.063   3.656
66978W        W39403  26.986   7.359  13.253
66979W        W39404  33.147  39.850  13.444
66980W        W39405  15.887   1.831  14.320
66981W        W39406   5.378  16.123   2.607
66982W        W39407  13.281  34.533   4.212
66983W        W39408  38.526   6.515   0.666
66984W        W39409  25.774  42.914  12.090
66985W        W39410  33.797  25.472   2.227
66986W        W39411  10.141  44.525   5.146
66987W        W39412  37.495   0.145   0.275
66988W        W39413   9.869  21.484   0.801
66989W        W39414  16.078  32.490   5.446
66990W        W39415  25.214   7.494  14.164
66991W        W39416  37.430  41.625  11.093
66992W        W39417  39.968   3.908   4.338
66993W        W39418  12.166  38.391   1.214
66994W        W39419  15.190  29.875  11.522
66995W        W39420  20.776  37.490  13.759
66996W        W39421  34.594  43.436  14.374
66997W        W39422  38.134  19.792   4.075
66998W        W39423  32.086  19.092   1.829
66999W        W39424  19.125   2.999   4.101
67000W        W39425  39.524  43.355  11.598
67001W        W39426  41.749  22.100  13.820
67002W        W39427  24.786  28.665  11.455
67003W        W39428  38.958  21.506   2.263
67004W        W39429  26.473   6.463   3.339
67005W        W39430   1.378  43.047  12.559
67006W        W39431   7.967   3.521  12.402
67007W        W39432  35.881  31.565   2.620
67008W        W39433  22.756  16.820  11.551
67009W        W39434   1.570  31.097  12.985
67010W        W39435  40.819  25.701   3.077
67011W        W39436  39.663  28.957   4.344
67012W        W39437  24.612  29.858  13.906
67013W        W39438  38.488   7.837   4.562
67014W        W39439  20.647  14.281   1.945
67015W        W39440  39.809  30.977  11.634
67016W        W39441   7.652  16.672  12.247
67017W        W39442  36.344   6.491   9.940
67018W        W39443  35.879  34.765   4.115
67019W        W39444   3.401   0.918   3.026
67020W        W39445  15.838  21.151   1.841
67021W        W39446  41.330  35.611  11.223
67022W        W39447  10.430   4.250  12.808
67023W        W39448  33.365  24.627   1.294
67024W        W39449  32.494  30.970   2.818
67025W        W39450  17.783  11.558  14.802
67026W        W39451  39.599  26.081   1.298
67027W        W39452  39.009   4.192  12.160
67028W        W39453  17.254   1.568   0.588
67029W        W39454  41.819  20.968   3.845
67030W        W39455  44.411  38.435  12.016
67031W        W39456  31.098  41.333  10.636
67032W        W39457  22.053  29.895  13.058
67033W        W39458  10.837  32.356   3.961
67034W        W39459   2.588  25.500   2.621
67035W        W39460  12.429  14.754   0.610
67036W        W39461  32.649  19.718  10.705
67037W        W39462  10.428   2.225  10.611
67038W        W39463  32.630  32.596   3.620
67039W        W39464  39.109  15.258  13.914
67040W        W39465  33.621  23.229  10.657
67041W        W39466  26.718   5.313   4.709
67042W        W39467   3.974  33.356   0.860
67043W        W39468   6.233  12.728  14.743
67044W        W39469  30.642  10.733  12.534
67045W        W39470  44.851  15.863   1.386
67046W        W39471   4.943  24.541   1.776
67047W        W39472  32.602  36.976  10.694
67048W        W39473  37.392  32.361  14.407
67049W        W39474  44.048  17.826   1.740
67050W        W39475  11.142  20.489  14.352
67051W        W39476   9.293   9.117  11.221
67052W        W39477  30.020  15.567   4.589
67053W        W39478   2.675  40.840  12.096
67054W        W39479   3.668  16.244  13.598
67055W        W39480  40.344  17.254  10.669
67056W        W39481  21.975  35.132   2.400
67057W        W39482  27.576   2.004  12.538
67058W        W39483   4.418  25.133  13.752
67059W        W39484  35.074  34.325   3.674
67060W        W39485  11.950  28.097  10.281
67061W        W39486  20.080  13.231  14.043
67062W        W39487  23.163  44.326   1.349
67063W        W39488  23.655  32.521   0.763
67064W        W39489   5.785  10.303   0.498
67065W        W39490  32.616   2.836  14.211
67066W        W39491  18.167  32.875  11.108
67067W        W39492  37.110  10.794   0.476
67068W        W39493  21.121  42.727   1.870
67069W        W39494  44.834  34.536   2.606
67070W        W39495  37.564  34.696   0.883
67071W        W39496   8.315  22.993   0.368
67072W        W39497   1.006  21.074   2.365
67073W        W39498  22.558  28.946   3.264
67074W        W39499  23.047   5.528   3.440
67075W        W39500  13.632  41.728   0.771
67076W        W39501  33.672  22.636   2.785
67077W        W39502  15.081  18.518  14.521
67078W        W39503   5.294  33.397  10.287
67079W        W39504  40.985  23.057   4.121
67080W        W39505  16.386  36.058   3.250
67081W        W39506   5.943   2.372  13.571
67082W        W39507  44.226  23.991  12.543
67083W        W39508  26.043  44.235   0.718
67084W        W39509  37.647  15.276   0.795
67085W        W39510  11.065  16.321  14.515
67086W        W39511  22.762  26.612   4.294
67087W        W39512   4.430  15.728   3.278
67088W        W39513  44.969  31.107   5.024
67089W        W39514  16.961   4.869   4.566
67090W        W39515  12.840  25.518  12.526
67091W        W39516   3.324  33.731  14.555
67092W        W39517  34.528   0.435  14.059
67093W        W39518  41.905   6.630  11.191
67094W        W39519  24.746  32.270   0.466
67095W        W39520  18.114   3.864   1.983
67096W        W39521  11.231  42.770   2.711
67097W        W39522   3.137   9.694  11.852
67098W        W39523  29.425  25.815  11.034
67099W        W39524  36.303   4.104   4.032
67100W        W39525  14.837  38.103   0.484
67101W        W39526   8.617  31.626   2.904
67102W        W39527   9.663  26.914  12.432
67103W        W39528  41.950   8.720  13.080
67104W        W39529   1.819  36.682   4.198
67105W        W39530  19.785  12.338  11.411
67106W        W39531  24.609  35.897   4.970
67107W        W39532  35.776  21.640  11.862
67108W        W39533   9.733  19.626  10.990
67109W        W39534  33.276  38.433   3.003
67110W        W39535  14.742  14.313   4.754
67111W        W39536  17.035  25.691  10.871
67112W        W39537   9.770   6.884   4.167
67113W        W39538  22.676  30.545  14.398
67114W        W39539  35.577  31.274  12.373
67115W        W39540   8.243   2.337  14.965
67116W        W39541  11.121  28.697   1.475
67117W        W39542  12.646  15.695   0.465
67118W        W39543  30.068  22.081  13.938
67119W        W39544  26.432  36.453  14.766
67120W        W39545   3.837  23.565   3.847
67121W        W39546  38.116  10.414   1.793
67122W        W39547   2.037  37.100  11.557
67123W        W39548  44.752  30.925  14.876
67124W        W39549   5.881  25.793   4.665
67125W        W39550  34.244   6.422  11.122
67126W        W39551  28.895  31.965  11.245
67127W        W39552   8.751  24.391  12.441
67128W        W39553  18.922  31.445   0.871
67129W        W39554  13.077  11.255   4.372
67130W        W39555  17.746  35.563   4.081
67131W        W39556  43.857  30.146   1.466
67132W        W39557  30.015  40.714  12.761
67133W        W39558  35.950  20.736  10.914
67134W        W39559  44.524  32.961  10.701
67135W        W39560   6.824   8.758  13.990
67136W        W39561  30.071  30.120  14.449
67137W        W39562   5.593  44.399  10.642
67138W        W39563   2.404  29.187  13.867
67139W        W39564  22.558  12.205   3.557
67140W        W39565  33.446  26.275  14.016
67141W        W39566   0.736  22.585  14.726
67142W        W39567  16.514  24.162  12.574
67143W        W39568   8.665  27.182  12.700
67144W        W39569  20.281  26.877   0.526
67145W        W39570   5.760  38.183  13.133
67146W        W39571  44.261  18.016   4.732
67147W        W39572  26.689  26.780   1.710
67148W        W39573  11.789  26.999   2.803
67149W        W39574  12.500   1.458   0.897
67150W        W39575   1.200  19.168   2.191
67151W        W39576  10.610  16.929  13.300
67152W        W39577  24.665  10.213   2.891
67153W        W39578   3.271  44.449  12.432
67154W        W39579  15.105   1.800   1.195
67155W        W39580  38.955  16.717   4.084
67156W        W39581  23.073  23.279   3.773
67157W        W39582  17.975  32.951  12.003
67158W        W39583  38.608  40.315  12.883
67159W        W39584  29.603  41.840   3.140
67160W        W39585   6.340  32.108   2.038
67161W        W39586  12.122  33.470   0.829
67162W        W39587  33.413   2.695  11.545
67163W        W39588  30.591  17.330   1.769
67164W        W39589  30.541  44.073  10.667
67165W        W39590  11.163   5.430   4.406
67166W        W39591  19.635  42.053   1.821
67167W        W39592  40.558   1.936   2.762
67168W        W39593  20.684  37.873  10.840
67169W        W39594  24.677  15.545   2.311
67170W        W39595   5.175  19.825  13.329
67171W        W39596  22.010  22.050   1.848
67172W        W39597  22.182  34.024   2.239
67173W        W39598  37.091  43.866   3.402
67174W        W39599  28.001  20.357  14.066
67175W        W39600  37.563  13.301  12.386
67176W        W39601  11.860  25.116  12.019
67177W        W39602  32.989   8.828  10.767
67178W        W39603  28.575  29.280  13.526
67179W        W39604  33.418  39.346  12.871
67180W        W39605  40.441  44.810  13.573
67181W        W39606  38.804  42.910  10.652
67182W        W39607  15.038  40.118   2.338
67183W        W39608  29.866  43.410   4.265
67184W        W39609   5.748  26.723   1.320
67185W        W39610  32.615  43.572   2.862
67186W        W39611   6.728  39.456  12.820
67187W        W39612  30.296  25.801  11.793
67188W        W39613   7.088  13.780   2.581
67189W        W39614  41.873  38.861  13.439
67190W        W39615  27.954  13.082  12.607
67191W        W39616  32.858   0.910   1.401
67192W        W39617  35.692  19.220  12.650
67193W        W39618   1.975   1.374  14.379
67194W        W39619  29.192   0.723  11.141
67195W        W39620   1.293  44.527  11.446
67196W        W39621  31.740  33.155   2.559
67197W        W39622  17.712  34.965  10.459
67198W        W39623  33.035  23.109   3.112
67199W        W39624  14.208  14.763  11.510
67200W        W39625  33.395  40.729  10.921
67201W        W39626   3.512   3.371  14.776
67202W        W39627  12.401   7.868   3.603
67203W        W39628  18.427  31.469   1.001
67204W        W39629   3.812  22.940   2.738
67205W        W39630  15.259  18.715   2.779
67206W        W39631  33.672   2.636   4.161
67207W        W39632  17.209   8.066   4.346
67208W        W39633  19.398  29.076   1.946
67209W        W39634  28.039   3.745   4.175
67210W        W39635  19.234  13.806   2.592
67211W        W39636  37.553  31.689  13.801
67212W        W39637   4.512  19.313  13.807
67213W        W39638  40.952  24.185   2.359
67214W        W39639  43.873  21.562   1.805
67215W        W39640   9.633   7.342  12.039
67216W        W39641   9.793  20.462  11.270
67217W        W39642   4.842   4.661  10.708
67218W        W39643  33.544   5.826   2.043
67219W        W39644  19.971  24.285   2.137
67220W        W39645  26.769  36.982  10.644
67221W        W39646  27.738  33.049   1.305
67222W        W39647  19.558   6.933   1.457
67223W        W39648   1.213  19.689   1.463
67224W        W39649  10.417  22.548   1.436
67225W        W39650  22.979  15.898  10.346
67226W        W39651  27.050  29.109  12.458
67227W        W39652  39.461   0.394   1.685
67228W        W39653  30.630   9.190   0.394
67229W        W39654  41.382  42.410  13.322
67230W        W39655  40.793  32.972   1.891
67231W        W39656  29.675  41.144   4.661
67232W        W39657   7.397  16.868  10.508
67233W        W39658  32.985  13.911   4.080
67234W        W39659  42.626  14.638   2.553
67235W        W39660  28.087  39.925  14.927
67236W        W39661  28.986  23.946  12.119
67237W        W39662   4.244  37.642  14.739
67238W        W39663   1.845  20.100  13.028
67239W        W39664   5.679  20.033  13.481
67240W        W39665  12.954  28.049   3.783
67241W        W39666  15.812  20.453  14.897
67242W        W39667  26.061  15.999  11.596
67243W        W39668  19.042   7.369   0.007
67244W        W39669  24.081  14.102  12.515
67245W        W39670  40.080  20.532   0.642
67246W        W39671  20.610  28.132  12.984
67247W        W39672   8.714  22.726   2.381
67248W        W39673  34.560  35.814   0.700
67249W        W39674  23.311  43.740  14.354
67250W        W39675  40.831  30.846   2.798
67251W        W39676  12.903  25.496  14.936
67252W        W39677  35.877  34.835   0.807
67253W        W39678  27.484  28.981   1.960
67254W        W39679  35.700  36.409  10.628
67255W        W39680   2.236   2.813   3.731
67256W        W39681  42.421  32.395  11.686
67257W        W39682  36.591  13.622   1.815
67258W        W39683   8.910   8.356  10.838
67259W        W39684  15.579  26.595  11.514
67260W        W39685  35.509  34.127   3.904
67261W        W39686  13.041  14.443  12.685
67262W        W39687  26.192  42.395   2.645
67263W        W39688  22.241   1.843   1.823
67264W        W39689  12.801  40.613   1.939
67265W        W39690  25.565  17.471   4.529
67266W        W39691  40.978  16.144   0.719
67267W        W39692  18.226  33.634   1.288
67268W        W39693  34.181  21.641  10.939
67269W        W39694  41.066   8.118   1.415
67270W        W39695   8.107  12.360  12.925
67271W        W39696  33.619  24.388   3.273
67272W        W39697   4.451   0.322  14.989
67273W        W39698   3.882  38.514  12.070
67274W        W39699  34.965   1.072  11.510
67275W        W39700  43.262   4.641   0.419
67276W        W39701   0.446  42.963   3.748
67277W        W39702  20.765  32.887  13.450
67278W        W39703   9.133  12.271   1.972
67279W        W39704  16.790  32.840   1.887
67280W        W39705  32.896  44.977  14.414
67281W        W39706   0.625  16.550  14.483
67282W        W39707  13.677  34.887  12.819
67283W        W39708  44.467  40.552  10.686
67284W        W39709   6.390  42.895   3.851
67285W        W39710  30.537  33.525   2.773
67286W        W39711  39.972  36.014  12.154
67287W        W39712  32.095   9.623  11.050
67288W        W39713  18.955   8.746   4.672
67289W        W39714  39.384  29.212  14.880
67290W        W39715  26.632  16.328   4.232
67291W        W39716  18.727  31.434   3.469
67292W        W39717   7.869  38.457  14.683
67293W        W39718  27.236  26.780  11.734
67294W        W39719  10.591  38.889  11.920
67295W        W39720  28.223  15.606  10.580
67296W        W39721  37.641   5.709  12.052
67297W        W39722  40.789   8.997  14.332
67298W        W39723  25.794  42.336   0.659
67299W        W39724  11.386  25.657  11.570
67300W        W39725  22.486  30.955   4.492
67301W        W39726  36.532  18.074  14.851
67302W        W39727  44.461  42.838  14.403
67303W        W39728  23.234  13.086   2.279
67304W        W39729  41.883  40.835  10.648
67305W        W39730  22.034  17.752  12.747
67306W        W39731  28.697   2.500  11.204
67307W        W39732  20.728  13.131  14.868
67308W        W39733   4.452  25.521   4.860
67309W        W39734  13.088   2.282   0.944
67310W        W39735  34.072  30.641  14.364
67311W        W39736  42.360  27.725  14.933
67312W        W39737  26.976  35.448  10.697
67313W        W39738  24.353  18.574  11.697
67314W        W39739  35.054  13.957  12.950
67315W        W39740  39.798  40.043  11.378
67316W        W39741  27.905  13.629  14.188
67317W        W39742   0.203  35.575  14.181
67318W        W39743  19.024   4.915   1.262
67319W        W39744  22.862  10.562  11.030
67320W        W39745   8.864   7.312  11.592
67321W        W39746  21.187   6.805  12.470
67322W        W39747  22.258   3.445  12.400
67323W        W39748  44.753  10.126   3.170
67324W        W39749  10.658  10.467   2.925
67325W        W39750  19.980  15.142   4.488
67326W        W39751  16.683  32.667  14.666
67327W        W39752  22.529  37.072  13.996
67328W        W39753   4.743  29.764  13.091
67329W        W39754  13.767   3.922   4.617
67330W        W39755  20.172  10.588  12.005
67331W        W39756  40.404  30.184  13.846
67332W        W39757  44.008  11.994  11.415
67333W        W39758   4.256  44.270   0.783
67334W        W39759  17.251  34.327  13.857
67335W        W39760   8.716  25.508  11.504
67336W        W39761  44.039  13.256  10.660
67337W        W39762  44.322  25.917   2.642
67338W        W39763  15.829   6.705   4.636
67339W        W39764   6.065   7.355   5.010
67340W        W39765   5.926  42.438   2.640
67341W        W39766  39.235  16.584  12.044
67342W        W39767  41.761  27.200  11.855
67343W        W39768  13.162   4.501   4.286
67344W        W39769   7.021   0.562  12.328
67345W        W39770  31.686   5.805  12.703
67346W        W39771  14.945  33.906  14.188
67347W        W39772  29.031  25.499  13.876
67348W        W39773   2.820   3.710  11.607
67349W        W39774  29.981  41.002  11.054
67350W        W39775  21.136  28.949   4.461
67351W        W39776  29.689  26.677   2.775
67352W        W39777  21.705   8.276  11.398
67353W        W39778  32.101  43.384   0.544
67354W        W39779  22.714   2.892   3.405
67355W        W39780   9.118  11.208   4.725
67356W        W39781  43.283  31.008   1.667
67357W        W39782  19.739  28.858   3.168
67358W        W39783  19.317  32.164  11.619
67359W        W39784   7.351  32.537   2.870
67360W        W39785  11.361  28.508  13.184
67361W        W39786  22.930  40.953  10.623
67362W        W39787  41.491  16.988   4.402
67363W        W39788  34.451   0.084   3.172
67364W        W39789  26.859   4.828   4.620
67365W        W39790  27.629  39.760  14.711
67366W        W39791  39.991  21.596   3.644
67367W        W39792  27.103  16.075   4.085
67368W        W39793   7.225  13.710  13.592
67369W        W39794   9.422  26.209   0.513
67370W        W39795   6.104  16.855   2.362
67371W        W39796  41.338  32.154  14.355
67372W        W39797  44.782  42.391  14.463
67373W        W39798   0.246  17.497  11.116
67374W        W39799   9.775  27.565  10.735
67375W        W39800  44.956  30.085  12.339
67376W        W39801   4.017  21.348  11.031
67377W        W39802   1.706  38.610  13.074
67378W        W39803   1.936   5.192   4.111
67379W        W39804  29.494  36.941   3.072
67380W        W39805   3.004  29.597   0.378
67381W        W39806  13.107  18.728   3.384
67382W        W39807  39.820  19.633  10.557
67383W        W39808   7.113   2.335  12.396
67384W        W39809  29.861  34.456   0.062
67385W        W39810  18.482  43.988  11.538
67386W        W39811  27.090  14.523   3.033
67387W        W39812   5.634   6.867   3.768
67388W        W39813  13.702  38.812  10.708
67389W        W39814  35.962   9.657   2.693
67390W        W39815   6.902  36.455  10.494
67391W        W39816  32.676  23.937  11.207
67392W        W39817   1.482  19.147   2.622
67393W        W39818  23.023   4.847   0.430
67394W        W39819   5.020   1.758   4.409
67395W        W39820  33.230  35.675  12.980
67396W        W39821  10.751  34.495   0.197
67397W        W39822   9.944   4.597   2.358
67398W        W39823  44.596   2.143   0.372
67399W        W39824  13.712  19.743   0.871
67400W        W39825  22.957  28.882   0.287
67401W        W39826  44.506  31.018  12.858
67402W        W39827  11.338  37.198   3.366
67403W        W39828  11.434  12.052  14.489
67404W        W39829  12.342  20.719   3.819
67405W        W39830  22.750  32.548  10.450
67406W        W39831  30.928  19.590  14.079
67407W        W39832  17.017  30.686  11.148
67408W        W39833  40.392  15.291   3.241
67409W        W39834  38.339  32.693  14.762
67410W        W39835  21.302  11.677   0.484
67411W        W39836  16.640  23.990  11.252
67412W        W39837  39.930   6.380  11.617
67413W        W39838  14.495  11.257  11.574
67414W        W39839  31.924  27.537  11.054
67415W        W39840  42.412   5.912   1.804
67416W        W39841  11.777  35.628  10.038
67417W        W39842  31.118  44.232  11.094
67418W        W39843  19.089  23.916   1.883
67419W        W39844   9.184  21.962   4.540
67420W        W39845  24.037   5.221   0.261
67421W        W39846  42.835  12.779  12.432
67422W        W39847   3.440  12.406  14.800
67423W        W39848   3.968  24.705   3.130
67424W        W39849  42.058   6.194   0.751
67425W        W39850  37.996  36.174   4.654
67426W        W39851  35.118  43.994  10.727
67427W        W39852  33.311   9.276  13.049
67428W        W39853  39.337   4.737  14.376
67429W        W39854  33.828  13.662   0.020
67430W        W39855   4.284  22.813   3.167
67431W        W39856  34.662  22.510   2.591
67432W        W39857   4.680  12.151  14.422
67433W        W39858   1.995  32.813  12.058
67434W        W39859  38.583  22.412  11.995
67435W        W39860  31.118  31.049  14.464
67436W        W39861   5.747  25.721   0.471
67437W        W39862  44.274  37.535   1.396
67438W        W39863  17.767  26.090   1.267
67439W        W39864  27.686  40.552   1.223
67440W        W39865  41.566  16.567   1.319
67441W        W39866  31.044  30.450   5.104
67442W        W39867  32.941   4.489   2.796
67443W        W39868   6.251   5.725   1.860
67444W        W39869  20.685  24.549  12.703
67445W        W39870  24.514   8.911   5.032
67446W        W39871   1.479  33.374  10.189
67447W        W39872  32.358  22.605  12.388
67448W        W39873  13.551  15.631   1.864
67449W        W39874  27.667  15.139   0.273
67450W        W39875  22.600   0.518  14.761
67451W        W39876  14.603   0.696   0.887
67452W        W39877   7.422   4.328  10.413
67453W        W39878  42.716  32.355  11.073
67454W        W39879  23.237  35.009   3.655
67455W        W39880   3.823   6.368  10.605
67456W        W39881  17.615   7.685   1.835
67457W        W39882  36.660  16.729   3.837
67458W        W39883  43.281  38.440   1.449
67459W        W39884  33.745  27.082  14.404
67460W        W39885  39.520   9.137  14.270
67461W        W39886  32.906  21.267  13.500
67462W        W39887  31.995  37.327   2.285
67463W        W39888  22.817   9.741   1.963
67464W        W39889   6.171  40.281  12.913
67465W        W39890  35.943   9.732  11.034
67466W        W39891  25.010  15.133   2.365
67467W        W39892  38.962   8.670   0.964
67468W        W39893  28.188  42.459  11.459
67469W        W39894  25.019  13.629   3.359
67470W        W39895   8.873  23.156   4.377
67471W        W39896   8.174   0.075   1.836
67472W        W39897  33.434  38.158   4.881
67473W        W39898  34.134  31.563   4.187
67474W        W39899  16.570  41.365   5.047
67475W        W39900   6.666   0.486   0.717
67476W        W39901  30.028   8.133   0.894
67477W        W39902  30.561  19.565   0.279
67478W        W39903   9.812   4.007  13.796
67479W        W39904  26.473  25.673  13.293
67480W        W39905  24.403  22.892   1.980
67481W        W39906  30.026   6.342   2.347
67482W        W39907  10.447  44.795  10.612
67483W        W39908   2.669   6.174  14.868
67484W        W39909   2.462  22.712   4.349
67485W        W39910  28.045  30.900   4.643
67486W        W39911  27.969   7.744   0.853
67487W        W39912   1.216  23.228  13.081
67488W        W39913   9.467  11.635  13.567
67489W        W39914   3.325  44.550   4.533
67490W        W39915  44.605   7.203   2.151
67491W        W39916  23.537  20.476   4.024
67492W        W39917  34.500   7.759   3.798
67493W        W39918  24.178  10.918   3.877
67494W        W39919  20.572  44.994  13.400
67495W        W39920  36.449  36.818   1.181
67496W        W39921  14.829  44.239   0.681
67497W        W39922  24.178  32.850   2.625
67498W        W39923  44.704  18.389   4.971
67499W        W39924   0.790  29.486  12.835
67500W        W39925   8.367  10.917   4.089
67501W        W39926   8.124  21.586  10.879
67502W        W39927  22.073   7.100   2.213
67503W        W39928  21.483  32.770   2.779
67504W        W39929  29.845  20.012   1.267
67505W        W39930  21.178   0.804  11.515
67506W        W39931  14.747  44.918   2.974
67507W        W39932  33.971  15.663   2.853
67508W        W39933  21.530  20.010   1.341
67509W        W39934  16.842   9.780   4.757
67510W        W39935   8.982  26.855  13.892
67511W        W39936   6.720  27.420   3.958
67512W        W39937   0.783  14.005  10.682
67513W        W39938  39.454  33.071  11.024
67514W        W39939  44.692   1.360  14.415
67515W        W39940  35.867  16.385   4.866
67516W        W39941  15.270   1.694  11.861
67517W        W39942  10.312  24.369  14.254
67518W        W39943   0.756  14.296   0.244
67519W        W39944  21.032  38.515   1.041
67520W        W39945  29.868   7.805  12.854
67521W        W39946  25.260  21.278  11.681
67522W        W39947  40.050  19.591   3.163
67523W        W39948  12.066   9.652  13.818
67524W        W39949  41.301  42.026  14.123
67525W        W39950  31.017  36.044  13.164
67526W        W39951  16.852   8.820   1.368
67527W        W39952  42.945  41.225  14.363
67528W        W39953  17.580  24.166  14.353
67529W        W39954  30.679  42.507  13.402
67530W        W39955  31.827  31.502   0.978
67531W        W39956  42.780   0.348   4.817
67532W        W39957  38.179  30.153  13.512
67533W        W39958   8.360  19.107   3.661
67534W        W39959  43.305  34.314  10.046
67535W        W39960   9.206  13.694   0.992
67536W        W39961  42.504  11.192  13.119
67537W        W39962  34.074   2.305  11.056
67538W        W39963  40.961   5.474  12.593
67539W        W39964  30.195  38.662  14.750
67540W        W39965   7.847  28.020   4.907
67541W        W39966   7.220  13.754  12.178
67542W        W39967  20.661   3.297  14.942
67543W        W39968   6.795  15.651   1.460
67544W        W39969   4.249  37.899  12.900
67545W        W39970  39.313  12.758  13.615
67546W        W39971  23.457   2.478   1.683
67547W        W39972  32.639  11.337   3.035
67548W        W39973  32.863  16.988  13.489
67549W        W39974   5.124  39.598  14.545
67550W        W39975   1.082  26.990   3.218
67551W        W39976   8.886  35.538   3.586
67552W        W39977  37.630   0.080  14.297
67553W        W39978  42.952  26.781  11.643
67554W        W39979   3.284  13.350   2.210
67555W        W39980  39.562   3.227  13.411
67556W        W39981   8.896  25.696  11.954
67557W        W39982  41.557  29.066  11.080
67558W        W39983  34.135  37.560   2.855
67559W        W39984  29.921  35.272  11.552
67560W        W39985  11.151  44.428  11.141
67561W        W39986  42.997  36.306   3.190
67562W        W39987   6.956  33.013  14.317
67563W        W39988  40.986  15.855   2.862
67564W        W39989  41.297  43.932   4.098
67565W        W39990  42.802   9.900  13.164
67566W        W39991  24.126  37.561  11.245
67567W        W39992  24.304  23.631   2.232
67568W        W39993  19.782  15.666  14.877
67569W        W39994  30.589  34.241   3.093
67570W        W39995  40.536   3.521   1.784
67571W        W39996  20.271  25.543   1.830
67572W        W39997  39.881  26.548   1.440
67573W        W39998  36.293  11.063  10.906
67574W        W39999  22.102   9.701  10.176
67575W        W40000   3.005  21.571  13.295
67576W        W40001  37.126  34.590   2.422
67577W        W40002  26.914  29.264  12.970
67578W        W40003   4.496  13.700   4.720
67579W        W40004  26.728  42.779   0.050
67580W        W40005  27.984  33.043   4.604
67581W        W40006  31.698  29.575  12.581
67582W        W40007  21.473  32.124   0.017
67583W        W40008  36.578  12.854  11.174
67584W        W40009  18.816  13.123   1.029
67585W        W40010   1.307  44.955   4.429
67586W        W40011  27.146   0.884  12.019
67587W        W40012  28.748  43.694  14.897
67588W        W40013  35.447  28.135   0.889
67589W        W40014   3.109   8.654  13.311
67590W        W40015  25.444  38.452   2.190
67591W        W40016  23.676  26.257   2.297
67592W        W40017  36.500   3.213   5.074
67593W        W40018   0.505  14.125  12.551
67594W        W40019  38.469   5.646  14.366
67595W        W40020  29.354   2.408  12.030
67596W        W40021  34.647  34.569   0.431
67597W        W40022   3.673   9.260  10.370
67598W        W40023  35.752  31.142  10.399
67599W        W40024  30.607  22.724   3.826
67600W        W40025   9.339   8.100   0.994
67601W        W40026  27.557  14.794   2.894
67602W        W40027  16.130  42.969  13.584
67603W        W40028  39.797  33.440  11.140
67604W        W40029  21.798  35.860  10.618
67605W        W40030  44.016  25.256  12.834
67606W        W40031  26.938   5.726  10.611
67607W        W40032   6.666  38.173   0.230
67608W        W40033  36.438  18.174   0.776
67609W        W40034  14.214   3.408   2.225
67610W        W40035   3.361  32.283  13.846
67611W        W40036   6.606  26.928   1.306
67612W        W40037  43.506  36.949  14.330
67613W        W40038  39.889  23.270  13.011
67614W        W40039  41.833   4.589  11.616
67615W        W40040  44.894  12.697   2.713
67616W        W40041  43.974  21.702   0.380
67617W        W40042  14.569   2.129   4.652
67618W        W40043  22.534  16.344   4.563
67619W        W40044  31.980  27.827  12.081
67620W        W40045  35.527  35.053  14.546
67621W        W40046  19.260  19.742   4.216
67622W        W40047   8.679   4.919  10.508
67623W        W40048  21.239  11.745   4.709
67624W        W40049   7.210  12.820  14.482
67625W        W40050   1.781  30.598  13.938
67626W        W40051  38.291   0.933   3.026
67627W        W40052   5.601  26.636   0.323
67628W        W40053   9.990   6.425   4.037
67629W        W40054   9.931  42.388   2.726
67630W        W40055   4.738  27.014   0.090
67631W        W40056  35.061  37.490  10.031
67632W        W40057  24.383  25.840   1.783
67633W        W40058  42.213  10.158   1.292
67634W        W40059   1.030  32.918   5.057
67635W        W40060  42.549   7.762  11.171
67636W        W40061  38.269  19.964  13.508
67637W        W40062   2.039  22.117   2.285
67638W        W40063  43.925  44.888   3.667
67639W        W40064  25.549  37.942   0.997
67640W        W40065  13.766  36.482  14.355
67641W        W40066  17.111  35.635   0.986
67642W        W40067  26.159   5.195   1.036
67643W        W40068  15.195   2.189  12.033
67644W        W40069  30.172   5.559   4.448
67645W        W40070  19.795  39.493   1.304
67646W        W40071  28.376  14.960  12.622
67647W        W40072   2.838  10.399   0.292
67648W        W40073   3.184  32.602  10.804
67649W        W40074  24.132  13.442   3.161
67650W        W40075  34.037  31.145   2.416
67651W        W40076  20.615  24.156  10.753
67652W        W40077  34.332   2.394   2.219
67653W        W40078  19.730   0.679   0.278
67654W        W40079   1.853  28.645  14.862
67655W        W40080   2.757  15.701   4.375
67656W        W40081   1.942  33.884   0.379
67657W        W40082  20.353  42.346   2.214
67658W        W40083  44.856  38.877  11.341
67659W        W40084  29.872  37.867   2.683
67660W        W40085  20.126   6.871  11.661
67661W        W40086  41.779  27.464  14.209
67662W        W40087  24.133  17.419  13.854
67663W        W40088  14.961   7.624   4.157
67664W        W40089  20.296   7.332  11.553
67665W        W40090   6.591  27.050  12.925
67666W        W40091   0.543  35.904   1.508
67667W        W40092  12.018  38.010  12.079
67668W        W40093   3.071  34.049   3.295
67669W        W40094  44.481   7.715  11.143
67670W        W40095  38.458  38.842  14.535
67671W        W40096   0.417  13.290   2.644
67672W        W40097   4.716  33.539   1.878
67673W        W40098  15.416  37.974  14.793
67674W        W40099  24.752   9.380   2.593
67675W        W40100  28.439  20.091  10.324
67676W        W40101   1.410  13.305  12.898
67677W        W40102  23.734  23.294   0.519
67678W        W40103  17.164  20.182   0.235
67679W        W40104  14.790  17.514   4.188
67680W        W40105  38.541  14.287   0.477
67681W        W40106  29.950  20.771   1.788
67682W        W40107  33.276   9.129   3.230
67683W        W40108  11.749  10.383  14.063
67684W        W40109  28.696  40.535  13.506
67685W        W40110   2.730  31.046  13.544
67686W        W40111   4.335  10.876  11.866
67687W        W40112  28.495  32.624   2.337
67688W        W40113  23.115  43.100   2.649
67689W        W40114   9.317  38.561   3.260
67690W        W40115   5.826  31.630  11.930
67691W        W40116  20.764  14.328  14.367
67692W        W40117   1.627  26.914  14.909
67693W        W40118  12.382  38.367   4.052
67694W        W40119  43.030   3.297  13.775
67695W        W40120  24.323  32.388  10.042
67696W        W40121  16.583  15.270  13.171
67697W        W40122  36.464  34.703   4.740
67698W        W40123  30.007  29.670   3.452
67699W        W40124  35.027   1.964   2.211
67700W        W40125  11.600  37.029   1.290
67701W        W40126  40.863  19.845   1.360
67702W        W40127  21.007  40.944  13.904
67703W        W40128   4.203  20.542  14.352
67704W        W40129   5.824  13.904   0.904
67705W        W40130  34.491  25.098   3.189
67706W        W40131   1.482  30.069  13.348
67707W        W40132  16.028   8.258   1.197
67708W        W40133  41.560  33.507   0.577
67709W        W40134  38.801  22.636   1.339
67710W        W40135  19.311   4.353   2.626
67711W        W40136  30.417  18.469  10.465
67712W        W40137  10.423  20.470   2.181
67713W        W40138  27.100   3.985   4.165
67714W        W40139   4.430   0.325   4.673
67715W        W40140  44.586   8.211  12.020
67716W        W40141  32.057  42.778  14.757
67717W        W40142  44.890   0.443   3.637
67718W        W40143  16.688  37.129   3.193
67719W        W40144   1.627   2.969  14.235
67720W        W40145  14.083  33.310   1.244
67721W        W40146  39.532  12.343  13.030
67722W        W40147  22.716  20.778   1.084
67723W        W40148  21.061   3.152  11.601
67724W        W40149  16.721   9.321   2.234
67725W        W40150  37.020  41.769  10.802
67726W        W40151   1.782  42.857  11.880
67727W        W40152  31.233  33.744  10.715
67728W        W40153  38.212  42.242  11.168
67729W        W40154  12.143  40.478   4.090
67730W        W40155  43.800  19.958  11.410
67731W        W40156  31.840  31.171   0.363
67732W        W40157  18.228   4.235  11.117
67733W        W40158  34.843  12.584  13.273
67734W        W40159   2.935   8.157  13.583
67735W        W40160  40.092  29.464  13.050
67736W        W40161  38.632  29.473  12.862
67737W        W40162   7.910  39.587  11.034
67738W        W40163  40.414  23.230  13.877
67739W        W40164  32.615  29.114   3.139
67740W        W40165  26.736  18.929   4.198
67741W        W40166  12.787  25.025  14.758
67742W        W40167  37.611   9.439   0.990
67743W        W40168  28.911  33.627  11.206
67744W        W40169  29.897  20.472   2.207
67745W        W40170  42.410  31.999  11.983
67746W        W40171  18.803  16.644  12.525
67747W        W40172  12.308   1.989   0.918
67748W        W40173  17.193  30.059  10.722
67749W        W40174   6.802  28.628   1.659
67750W        W40175  28.681  11.701   2.371
67751W        W40176  19.323   7.168   2.346
67752W        W40177  25.775  14.941  11.200
67753W        W40178  32.782  42.647  14.456
67754W        W40179   1.304  19.254   1.703
67755W        W40180  27.873  28.654  13.409
67756W        W40181  27.456  22.490   3.663
67757W        W40182  27.075   7.483  12.749
67758W        W40183   0.889  32.689   2.168
67759W        W40184  30.072  25.018   0.367
67760W        W40185  27.815   7.960  10.525
67761W        W40186  36.686  11.310  11.133
67762W        W40187  44.702  32.949   0.847
67763W        W40188  13.294   0.831   2.610
67764W        W40189  41.692   1.787  14.919
67765W        W40190  32.576   5.295   4.696
67766W        W40191  12.894  10.794   3.710
67767W        W40192  36.803  36.899  12.831
67768W        W40193  26.978   4.669  13.460
67769W        W40194  18.561  28.277   2.235
67770W        W40195  24.125   8.654   3.759
67771W        W40196  19.696  17.873  13.521
67772W        W40197  26.790  24.546  14.864
67773W        W40198   6.025   1.938  14.790
67774W        W40199  12.879  33.956  14.056
67775W        W40200   0.454  24.637  13.881
67776W        W40201  27.917  26.230  13.419
67777W        W40202  42.811   9.188   0.519
67778W        W40203   5.459  33.464   4.154
67779W        W40204  14.736  38.027   2.778
67780W        W40205  20.055   9.902   1.417
67781W        W40206  41.773  32.116   3.991
67782W        W40207  17.307  28.124  11.215
67783W        W40208  14.963   0.196  14.903
67784W        W40209  26.677  38.576   0.623
67785W        W40210  38.141  14.881   3.849
67786W        W40211   6.395  24.454   0.517
67787W        W40212  10.383   7.070  14.287
67788W        W40213   8.203   6.975  13.918
67789W        W40214  10.322   0.387  14.366
67790W        W40215  43.296   7.400  10.712
67791W        W40216   1.483  39.735   1.804
67792W        W40217  26.785  41.765  10.851
67793W        W40218   3.467   9.096   1.404
67794W        W40219   3.017  36.301   4.636
67795W        W40220   7.745  35.752   4.959
67796W        W40221  19.711   7.928   3.823
67797W        W40222  28.896   5.708   0.022
67798W        W40223   7.369  22.137  11.115
67799W        W40224  10.296  13.652   3.840
67800W        W40225  14.604   1.273   0.881
67801W        W40226  36.412  19.814   3.719
67802W        W40227  28.055  35.278  12.477
67803W        W40228  15.305  25.442   0.526
67804W        W40229   1.635  26.440   3.935
67805W        W40230  29.134   8.792   2.740
67806W        W40231   2.309  15.926  12.926
67807W        W40232  19.506  26.705   2.265
67808W        W40233  13.396  21.114   0.214
67809W        W40234   1.813  31.745  10.833
67810W        W40235  21.424  42.420  11.105
67811W        W40236  34.505  32.149   4.181
67812W        W40237  20.154  14.068   2.654
67813W        W40238  36.606  29.450   3.151
67814W        W40239  24.182  32.600  10.927
67815W        W40240  38.762  28.547   3.724
67816W        W40241  43.066  27.003  11.186
67817W        W40242  12.144   3.416  11.494
67818W        W40243  36.812  34.173  11.109
67819W        W40244  15.179  37.131   2.430
67820W        W40245   5.390   8.184   3.720
67821W        W40246  41.119  32.860  11.994
67822W        W40247  11.914  38.923   0.596
67823W        W40248  22.730  15.322  14.374
67824W        W40249   8.918   8.893  13.928
67825W        W40250  42.844  24.470   0.462
67826W        W40251  44.636  14.712   1.774
67827W        W40252  15.532  15.307  10.327
67828W        W40253  23.971  14.199   4.929
67829W        W40254   6.245  43.097   0.569
67830W        W40255  35.819  27.553  13.811
67831W        W40256  37.398  44.494   4.154
67832W        W40257  27.170   4.904  13.029
67833W        W40258   7.458  23.082  10.862
67834W        W40259  30.212  31.063  13.334
67835W        W40260  11.345  20.119   1.956
67836W        W40261   8.815   6.157  13.905
67837W        W40262  39.548   4.976   0.696
67838W        W40263  28.220   4.971  12.560
67839W        W40264  41.481   1.893   4.148
67840W        W40265  17.594  15.037  14.855
67841W        W40266  40.632  15.011  13.931
67842W        W40267  20.462   1.536   1.856
67843W        W40268  32.046  30.505  12.092
67844W        W40269  33.341  31.646   3.795
67845W        W40270  40.962   4.847   0.105
67846W        W40271  20.074  23.535   3.732
67847W        W40272   1.818  25.284   4.605
67848W        W40273   5.729  22.454  10.888
67849W        W40274   8.782   4.640  14.265
67850W        W40275  41.310  41.073  11.389
67851W        W40276  17.740   8.464  13.912
67852W        W40277  11.230  13.897  12.765
67853W        W40278   8.235  14.630   4.226
67854W        W40279  17.062  28.031  14.447
67855W        W40280  11.361  14.227   0.375
67856W        W40281  24.162  26.386  13.879
67857W        W40282  25.139  10.001   0.351
67858W        W40283  33.246  20.743   2.734
67859W        W40284  13.713   1.835   0.135
67860W        W40285  32.364  14.705   3.773
67861W        W40286  18.526  41.050  11.214
67862W        W40287  35.793  29.653  14.740
67863W        W40288  40.359  40.775  11.616
67864W        W40289  43.435  15.157   3.195
67865W        W40290  42.692  15.492  14.055
67866W        W40291   2.964   5.772  13.605
67867W        W40292  19.005  30.998  12.541
67868W        W40293   3.289  10.090  13.101
67869W        W40294   1.300  29.044  12.926
67870W        W40295   9.122  21.226  14.700
67871W        W40296   7.965  31.649  14.815
67872W        W40297  31.607   9.162  14.458
67873W        W40298   0.845  13.499   3.760
67874W        W40299   6.290  10.286   2.151
67875W        W40300  33.900   4.448   1.351
67876W        W40301   5.824   4.206   3.655
67877W        W40302  41.271  25.649   4.561
67878W        W40303  20.556  24.062  13.070
67879W        W40304  18.756  42.810   0.425
67880W        W40305  29.127  28.447   1.729
67881W        W40306  22.833   3.068  12.309
67882W        W40307  33.163  36.023   1.883
67883W        W40308  32.579  26.587   0.643
67884W        W40309  18.719  24.026   3.341
67885W        W40310  44.476   3.675  11.089
67886W        W40311  25.220  20.934   1.163
67887W        W40312  42.550  34.576   0.474
67888W        W40313  21.357  41.958  12.583
67889W        W40314  34.082  16.209  12.945
67890W        W40315  15.583  44.391  13.337
67891W        W40316  19.299   6.183  12.133
67892W        W40317  33.538  16.553   3.596
67893W        W40318  16.630  28.368  14.929
67894W        W40319  25.370  40.380  13.738
67895W        W40320  26.995  11.308  12.973
67896W        W40321   4.208  23.676  11.068
67897W        W40322  34.204  19.018  12.539
67898W        W40323  40.451  18.071  13.055
67899W        W40324   6.076  32.237   2.525
67900W        W40325  33.826  40.811   2.314
67901W        W40326  35.846  25.369  14.576
67902W        W40327  31.589  39.268  14.832
67903W        W40328   5.089  27.524  10.314
67904W        W40329  33.902  27.233  10.854
67905W        W40330  15.635  13.158   4.455
67906W        W40331  10.095  43.954  14.067
67907W        W40332   7.323  30.478  13.158
67908W        W40333   9.689  43.739   2.303
67909W        W40334  41.563  30.143  12.523
67910W        W40335  30.301   4.666   3.760
67911W        W40336   0.770  37.815  12.633
67912W        W40337  10.815  28.149  13.409
67913W        W40338  17.305   2.988  11.157
67914W        W40339   3.024   8.223  10.754
67915W        W40340   0.419  26.903   2.720
67916W        W40341  24.891  34.865   3.848
67917W        W40342  19.068  19.322  11.456
67918W        W40343  21.461  25.410   0.109
67919W        W40344  16.126   7.736  11.797
67920W        W40345  35.503  26.469  13.032
67921W        W40346  43.366  39.060  12.916
67922W        W40347  44.873  38.043   1.473
67923W        W40348   2.828  37.831   3.107
67924W        W40349  40.926  18.964  14.927
67925W        W40350  14.836  39.973   3.620
67926W        W40351  13.720  16.683  10.942
67927W        W40352  15.830  26.445   0.355
67928W        W40353  10.025  17.266   0.768
67929W        W40354   5.768   4.224   4.181
67930W        W40355  30.755  23.366   9.771
67931W        W40356  43.022  26.201   2.714
67932W        W40357  35.118  28.493  12.020
67933W        W40358  15.241  13.251  13.565
67934W        W40359  20.333  37.555  10.172
67935W        W40360  12.146  25.086  10.996
67936W        W40361  24.493  37.201  14.722
67937W        W40362  35.869   0.310  11.207
67938W        W40363   7.206  25.990   0.368
67939W        W40364  32.951  30.363   2.598
67940W        W40365  35.415   5.356   0.337
67941W        W40366  38.583  38.029   4.176
67942W        W40367  30.120  30.079  11.990
67943W        W40368  38.707  14.200  10.274
67944W        W40369   8.858   2.844   0.978
67945W        W40370  11.297  33.580   4.557
67946W        W40371  13.866  42.085  14.440
67947W        W40372   4.332  30.727  14.078
67948W        W40373  34.632  24.278  13.805
67949W        W40374  29.540   3.723   3.345
67950W        W40375  10.259  24.657  11.068
67951W        W40376  16.445  19.130   3.762
67952W        W40377  12.857  34.075   1.888
67953W        W40378  15.504  18.098   2.207
67954W        W40379  35.485  15.255   4.526
67955W        W40380  17.548  40.016   2.679
67956W        W40381  28.747  30.715   0.832
67957W        W40382   6.624  42.984   0.938
67958W        W40383  10.059  19.692   1.849
67959W        W40384   9.749  29.117  12.364
67960W        W40385  12.764   7.858   1.972
67961W        W40386  28.463  13.086  11.910
67962W        W40387   1.854  32.675  14.988
67963W        W40388   3.928  25.910  13.740
67964W        W40389  16.149   8.227  12.136
67965W        W40390  38.931  25.646   3.159
67966W        W40391  26.041  21.981  14.455
67967W        W40392  26.550   9.220  12.455
67968W        W40393  14.256  27.829   0.794
67969W        W40394  33.811  33.123   0.042
67970W        W40395  35.895  35.585  11.618
67971W        W40396  12.215  27.629  12.584
67972W        W40397  19.097  22.110  13.464
67973W        W40398  43.724  11.969   3.736
67974W        W40399   0.874   7.910   0.360
67975W        W40400  10.237  25.595   4.585
67976W        W40401  22.099  27.220   1.352
67977W        W40402  31.406  34.779   0.837
67978W        W40403  15.062  18.176  14.138
67979W        W40404  27.064   6.497   2.216
67980W        W40405  20.002  31.917  14.868
67981W        W40406  21.010  41.050  10.728
67982W        W40407   3.887  39.399   0.127
67983W        W40408   6.381  44.540  12.302
67984W        W40409  36.784  34.932   1.886
67985W        W40410  28.901  41.513   1.918
67986W        W40411   3.194  38.686  14.196
67987W        W40412  25.920  30.959  13.890
67988W        W40413  12.374  16.910  14.719
67989W        W40414  15.416   2.889   3.623
67990W        W40415  41.868  10.843   4.143
67991W        W40416  38.916  25.230   0.606
67992W        W40417  17.246   1.016  12.866
67993W        W40418  23.698  19.925  13.841
67994W        W40419  20.772  17.071   1.878
67995W        W40420  23.646  13.602   3.332
67996W        W40421  38.812  17.666   3.154
67997W        W40422  29.921   2.971  14.796
67998W        W40423  16.870  40.830  11.937
67999W        W40424  14.815   6.231   1.955
68000W        W40425  10.891   6.848   0.289
68001W        W40426  10.371  11.854  10.667
68002W        W40427   4.881  41.435  11.195
68003W        W40428  44.228   6.172  13.002
68004W        W40429  12.296   0.773  14.313
68005W        W40430  10.203  19.854  14.362
68006W        W40431  40.481  18.068   3.716
68007W        W40432  16.844   0.265  14.459
68008W        W40433  35.391   8.766   4.563
68009W        W40434   5.284  28.726   2.165
68010W        W40435  23.424  35.865   3.165
68011W        W40436  10.787  23.311   2.366
68012W        W40437  30.113   8.412   4.264
68013W        W40438  18.214  15.453  10.662
68014W        W40439  23.512  38.451   3.214
68015W        W40440  44.998  29.411  12.127
68016W        W40441  12.465  35.836   1.804
68017W        W40442  19.723  34.460   1.042
68018W        W40443  27.466  40.758  14.857
68019W        W40444   7.418  42.406   4.118
68020W        W40445  42.658   0.359  14.772
68021W        W40446  18.231  44.447   2.225
68022W        W40447  13.408  17.022  11.259
68023W        W40448  40.427  27.937   4.604
68024W        W40449   0.534  35.651  11.291
68025W        W40450  33.946  22.268   0.754
68026W        W40451  17.850   8.216  14.333
68027W        W40452  24.712  14.790  10.711
68028W        W40453   6.289   3.481   2.800
68029W        W40454  42.428   5.147   1.363
68030W        W40455  25.623   7.103   3.188
68031W        W40456  13.848  23.028   2.717
68032W        W40457  20.747   2.815  10.243
68033W        W40458   5.848  11.207   2.910
68034W        W40459  33.031  23.957  11.637
68035W        W40460   5.607  13.161   3.882
68036W        W40461  32.636  34.992   2.745
68037W        W40462  20.837   8.164   3.151
68038W        W40463  18.790  29.300   3.818
68039W        W40464  38.494  15.215  10.834
68040W        W40465   6.083  40.583   4.761
68041W        W40466  30.056  33.103  11.711
68042W        W40467  44.930   9.803   2.665
68043W        W40468  26.007   0.309  14.868
68044W        W40469  17.058  17.187   5.115
68045W        W40470  19.144   8.196   4.693
68046W        W40471  21.122  10.232  13.059
68047W        W40472  26.031   2.027  11.961
68048W        W40473  27.818  24.292   1.255
68049W        W40474  23.467  37.175  13.803
68050W        W40475  20.828   1.426   4.912
68051W        W40476  23.977   3.066  12.124
68052W        W40477  10.460   3.365  12.382
68053W        W40478  21.194  18.591  11.612
68054W        W40479  34.885  44.746   3.215
68055W        W40480   9.418  30.137  11.041
68056W        W40481  15.858  11.739  10.964
68057W        W40482  32.870  31.391  13.150
68058W        W40483  14.372  17.692  13.449
68059W        W40484  35.634  29.529   3.853
68060W        W40485  34.076  12.626   1.502
68061W        W40486   1.541  19.065   4.450
68062W        W40487  10.256  39.906   4.229
68063W        W40488  23.034  34.301  11.431
68064W        W40489  23.686  20.877   2.278
68065W        W40490  14.404  40.966   0.721
68066W        W40491  22.109   5.124   2.354
68067W        W40492  29.712  37.839  11.634
68068W        W40493  41.097  14.969  11.609
68069W        W40494  39.989  17.329   3.604
68070W        W40495  39.431  23.628   0.326
68071W        W40496  36.018  27.989  13.987
68072W        W40497  18.088  24.035  14.322
68073W        W40498  39.491  31.879   2.684
68074W        W40499  25.200  25.003   4.578
68075W        W40500  44.966  16.283  11.378
68076W        W40501  30.130  35.570   4.588
68077W        W40502  14.782  15.251  10.486
68078W        W40503  34.371  40.839   4.530
68079W        W40504  36.155  43.147  10.646
68080W        W40505  30.981   5.798  11.601
68081W        W40506  40.714  37.476  10.825
68082W        W40507  29.088  33.048  12.082
68083W        W40508  29.920  44.913   1.646
68084W        W40509   1.171   2.206   3.745
68085W        W40510  23.148   0.420   1.331
68086W        W40511  24.885  23.352  14.878
68087W        W40512  44.955  43.280   2.002
68088W        W40513   0.789  13.808   3.335
68089W        W40514  35.893  37.065  14.490
68090W        W40515  42.015  34.216  14.840
68091W        W40516  22.426  34.377   4.929
68092W        W40517  32.959  18.788  12.759
68093W        W40518  27.253  39.991  12.404
68094W        W40519  43.949  31.619  14.870
68095W        W40520  26.305  17.655  14.813
68096W        W40521  40.203  42.270   1.231
68097W        W40522   8.620   9.299   4.104
68098W        W40523  27.936  27.844   1.476
68099W        W40524  39.821   6.456   1.155
68100W        W40525  39.387   7.841   1.222
68101W        W40526  16.330   3.552   3.327
68102W        W40527  31.782   4.310  13.832
68103W        W40528  33.179  33.159   3.282
68104W        W40529  34.426  35.677  10.365
68105W        W40530   3.449  19.171   4.381
68106W        W40531  15.153   4.424   3.227
68107W        W40532  16.703   3.960   1.736
68108W        W40533  19.676  19.744  10.890
68109W        W40534  41.990  32.663  11.641
68110W        W40535  14.825   7.918  12.567
68111W        W40536  21.738  11.154   1.001
68112W        W40537  23.511  34.003   2.399
68113W        W40538  34.646   6.752  10.958
68114W        W40539   2.163  10.344   0.921
68115W        W40540  40.376   5.679   3.533
68116W        W40541  31.720   3.843   1.895
68117W        W40542  36.135  36.500  12.524
68118W        W40543  32.863  19.409   2.308
68119W        W40544  31.436  17.669   3.678
68120W        W40545   4.076  39.341  12.474
68121W        W40546  37.903  32.163  12.545
68122W        W40547  23.787  20.310   4.845
68123W        W40548  40.788   1.840   0.938
68124W        W40549  12.714  29.720  10.718
68125W        W40550  12.301   6.797  12.956
68126W        W40551  38.497  23.821  12.892
68127W        W40552  41.572  40.911   0.271
68128W        W40553  13.360  32.862  13.072
68129W        W40554  23.392  16.146   2.784
68130W        W40555  34.921  33.584   2.314
68131W        W40556   3.195  22.509  11.420
68132W        W40557  37.533   2.276  14.896
68133W        W40558  24.803  14.726   2.139
68134W        W40559  22.906  34.937   2.196
68135W        W40560  35.153  10.882   4.137
68136W        W40561  43.035   9.478  12.952
68137W        W40562   4.734  11.012  12.546
68138W        W40563  25.837  41.167   2.452
68139W        W40564  10.904  22.736   4.104
68140W        W40565  44.451  42.801   2.856
68141W        W40566   3.043  35.820   3.656
68142W        W40567  42.385  29.022   4.926
68143W        W40568  25.775  21.602   4.535
68144W        W40569  43.841   1.470   2.339
68145W        W40570  41.869   9.761   4.754
68146W        W40571  29.678  28.656  13.884
68147W        W40572  20.128  23.186   2.876
68148W        W40573  35.670  17.495  11.111
68149W        W40574  39.937  12.084  12.837
68150W        W40575  34.950   1.857  12.993
68151W        W40576   8.836   8.654   0.310
68152W        W40577  31.076  34.422   3.147
68153W        W40578  26.516  44.415  14.913
68154W        W40579  12.572   1.712   3.708
68155W        W40580   3.771   4.472   9.927
68156W        W40581  44.181  36.597   3.558
68157W        W40582   5.706  10.759   2.705
68158W        W40583  44.281  21.526   2.138
68159W        W40584   4.040  24.003  14.859
68160W        W40585   9.634  38.089   4.206
68161W        W40586  29.385  17.983  14.338
68162W        W40587  27.927  32.602   1.505
68163W        W40588  17.628   3.934   2.877
68164W        W40589  41.853  31.790   0.872
68165W        W40590  36.997  39.994  11.559
68166W        W40591   0.088  34.333   4.875
68167W        W40592  38.350  18.706  11.382
68168W        W40593  33.006  17.654   1.429
68169W        W40594  18.980  27.534  10.733
68170W        W40595   2.383  21.991  14.014
68171W        W40596  43.293  44.909  10.928
68172W        W40597   4.381  13.064  14.518
68173W        W40598  27.976  19.497   3.766
68174W        W40599  38.076   3.225   1.418
68175W        W40600  37.454  19.652  11.930
68176W        W40601  20.624  11.931   1.672
68177W        W40602  37.185   5.860  13.517
68178W        W40603  33.949  19.708  11.832
68179W        W40604  41.206   3.912  12.070
68180W        W40605  35.341  23.608  12.190
68181W        W40606  12.832  42.465  13.174
68182W        W40607  27.623   5.669   2.408
68183W        W40608   9.816  23.114  11.198
68184W        W40609  14.707  34.075   5.298
68185W        W40610  29.962  43.755  12.573
68186W        W40611  16.262  28.097   0.816
68187W        W40612  27.004  38.220   2.334
68188W        W40613  21.008  21.735   1.223
68189W        W40614  11.873   3.363  11.078
68190W        W40615  18.138   5.849   1.686
68191W        W40616  24.712  28.100  10.554
68192W        W40617  16.722  41.415   3.622
68193W        W40618   2.931  36.383   0.370
68194W        W40619  25.158   8.815  14.263
68195W        W40620  42.259  38.034   0.900
68196W        W40621   8.787   4.005  11.430
68197W        W40622  12.759  39.919   1.201
68198W        W40623  18.474  24.333   1.699
68199W        W40624  42.844  15.313  12.587
68200W        W40625  37.694  30.234  13.823
68201W        W40626  17.103  22.676   2.261
68202W        W40627   8.453  31.011  12.470
68203W        W40628   5.277  18.131   2.762
68204W        W40629  31.137  33.835   3.919
68205W        W40630  18.533  31.598   4.401
68206W        W40631  18.817  40.419  13.303
68207W        W40632  22.154  43.651  11.638
68208W        W40633  12.197  15.583  14.502
68209W        W40634  32.852  37.432  10.787
68210W        W40635  15.019   4.693  14.357
68211W        W40636  24.021  15.909  14.419
68212W        W40637  44.725  24.480   3.290
68213W        W40638  25.459  34.011   0.408
68214W        W40639  42.011  33.973  11.952
68215W        W40640  20.363  31.934  12.524
68216W        W40641  25.627  11.121  14.947
68217W        W40642  23.066   7.924   5.056
68218W        W40643  11.963  25.546   3.246
68219W        W40644  22.945  28.047  11.223
68220W        W40645  20.298  37.811   4.049
68221W        W40646   8.153   1.920  14.454
68222W        W40647  10.430  42.799  13.288
68223W        W40648  44.020   0.581   1.745
68224W        W40649  36.401  24.556   4.712
68225W        W40650  13.183  12.189  10.654
68226W        W40651  28.408  17.880  13.539
68227W        W40652  35.865   2.955  12.676
68228W        W40653   9.902  18.872   3.143
68229W        W40654  13.393  43.808  14.498
68230W        W40655   2.493  33.157  11.084
68231W        W40656   7.709  14.234  12.965
68232W        W40657  17.175   9.210  10.962
68233W        W40658  29.025  29.133  10.761
68234W        W40659  33.392  35.452  12.531
68235W        W40660  31.382  16.143   1.784
68236W        W40661  44.212  43.436  12.123
68237W        W40662  37.615  19.814   4.105
68238W        W40663  11.719  26.050   4.312
68239W        W40664  44.079  13.414   0.350
68240W        W40665  20.088   9.862  13.423
68241W        W40666  15.863   0.259  10.552
68242W        W40667  42.052  34.545   0.374
68243W        W40668   8.862  31.602   3.771
68244W        W40669  22.021  17.164  11.086
68245W        W40670  28.488  43.856   4.605
68246W        W40671  40.181  22.615   5.078
68247W        W40672  26.734  24.609  12.648
68248W        W40673  28.091  43.943  11.888
68249W        W40674  38.025  33.509  11.843
68250W        W40675  30.824   1.870  14.042
68251W        W40676  13.198   5.367  13.434
68252W        W40677  29.023  13.121  10.656
68253W        W40678  44.046   8.987   3.778
68254W        W40679  26.362  38.794  11.623
68255W        W40680  43.827   0.310   1.264
68256W        W40681  15.233  14.409  14.066
68257W        W40682   8.194  40.036   0.266
68258W        W40683  23.726  32.619   1.855
68259W        W40684  20.574  29.056  11.836
68260W        W40685   1.466  37.152  12.557
68261W        W40686  41.771  41.880  14.572
68262W        W40687  24.859  18.490   4.131
68263W        W40688  14.160  36.457  11.534
68264W        W40689   8.761  33.927  14.764
68265W        W40690   5.324   5.029   3.610
68266W        W40691   7.161  31.005  10.671
68267W        W40692  22.062   6.219  14.998
68268W        W40693  39.631   6.834  10.986
68269W        W40694  11.299  33.833  12.958
68270W        W40695  31.265  20.661  14.792
68271W        W40696  22.226  11.855   5.561
68272W        W40697  16.391  44.566  12.925
68273W        W40698  28.566  20.138  13.636
68274W        W40699  25.377  20.403   2.471
68275W        W40700  35.863  28.990   3.339
68276W        W40701  40.374  29.119   0.140
68277W        W40702  44.821   7.622   1.935
68278W        W40703  31.668   0.237  10.541
68279W        W40704  26.245  14.736  11.901
68280W        W40705  15.077   5.937   0.832
68281W        W40706  31.589  19.334   1.066
68282W        W40707  26.869  10.346   2.717
68283W        W40708  32.556  43.459  10.863
68284W        W40709  40.945  17.696   3.785
68285W        W40710  37.927   8.408   1.823
68286W        W40711  10.653  19.789   2.749
68287W        W40712  35.238  18.375  14.980
68288W        W40713  12.673  30.259  10.565
68289W        W40714  15.043  12.658  10.659
68290W        W40715  19.038  40.580  12.859
68291W        W40716  18.639  14.244  11.984
68292W        W40717  15.622  35.500   1.444
68293W        W40718  31.369  15.842  11.860
68294W        W40719  12.957  25.366   9.847
68295W        W40720  18.272   9.683   0.359
68296W        W40721  31.582  31.613   0.463
68297W        W40722  43.927  16.198   2.827
68298W        W40723   1.453  24.201   3.630
68299W        W40724  41.322  27.847  12.429
68300W        W40725  16.886  26.032   0.588
68301W        W40726  37.826   0.223  13.841
68302W        W40727  34.725  41.764  13.093
68303W        W40728  34.611  13.635   3.588
68304W        W40729  19.228  36.963   3.186
68305W        W40730  27.784  10.445   3.781
68306W        W40731  27.574   3.143   3.370
68307W        W40732  36.753   9.391  14.054
68308W        W40733  17.125  19.495  13.079
68309W        W40734   2.761  42.133  10.584
68310W        W40735  28.678  26.615   1.900
68311W        W40736   9.012  13.567  14.298
68312W        W40737  16.495  24.381  10.896
68313W        W40738   3.400  35.494  11.911
68314W        W40739  40.386  40.422   4.126
68315W        W40740  13.280  37.097  12.160
68316W        W40741  20.620  23.261  11.657
68317W        W40742  17.973  13.066  14.912
68318W        W40743  11.580  38.537   3.152
68319W        W40744  20.538  39.991   1.434
68320W        W40745  38.485   4.970   2.770
68321W        W40746  35.276  12.633  14.005
68322W        W40747  22.273   1.449   3.730
68323W        W40748  17.344  15.143   3.212
68324W        W40749  36.916  12.729   0.337
68325W        W40750   1.926  22.880  14.793
68326W        W40751   2.337  26.452   0.475
68327W        W40752  16.223  14.840   1.282
68328W        W40753   9.848  20.039   3.777
68329W        W40754  18.290  38.099  13.356
68330W        W40755  25.693   0.629   4.106
68331W        W40756  27.441  27.231  11.632
68332W        W40757   5.176  13.807  10.640
68333W        W40758   7.645  29.139   4.642
68334W        W40759  15.376  14.095   4.109
68335W        W40760  25.434  37.547  13.339
68336W        W40761  16.863  21.285   3.221
68337W        W40762  19.788  20.506  12.028
68338W        W40763  42.872   7.298  10.402
68339W        W40764  26.600  38.087   4.124
68340W        W40765  12.205  37.105   4.817
68341W        W40766  16.788   4.752  14.798
68342W        W40767  39.592  17.620   0.261
68343W        W40768  33.131  30.591   2.139
68344W        W40769  42.782  23.230  14.258
68345W        W40770   9.338   1.370   4.921
68346W        W40771   2.693  44.782  13.604
68347W        W40772  21.616  30.913  13.107
68348W        W40773  18.992   0.893  12.483
68349W        W40774  36.074   3.650   2.716
68350W        W40775  20.571  39.327  13.567
68351W        W40776  39.149  40.432  13.044
68352W        W40777   6.172  14.648   4.024
68353W        W40778  16.258  19.778  13.385
68354W        W40779  32.424  32.062   0.437
68355W        W40780  15.925   7.425  11.356
68356W        W40781  29.711  12.744  14.465
68357W        W40782   6.827  36.385   3.193
68358W        W40783  24.650  24.023   1.032
68359W        W40784  12.179   1.813   3.288
68360W        W40785  26.498  24.106   4.532
68361W        W40786  39.064  12.577   2.683
68362W        W40787  29.742  44.538   3.311
68363W        W40788  19.289  22.066   1.011
68364W        W40789  25.970  35.055  12.854
68365W        W40790  34.083  42.534  12.065
68366W        W40791   9.778  19.746   4.207
68367W        W40792  22.455   0.797  13.979
68368W        W40793  22.259  10.708   4.673
68369W        W40794   2.835  15.699   3.172
68370W        W40795  26.201   8.766  10.642
68371W        W40796  18.000   5.926   2.697
68372W        W40797  30.207  17.473  11.567
68373W        W40798  20.629   4.873  14.147
68374W        W40799  34.465  20.691  13.305
68375W        W40800  29.331   9.998   1.229
68376W        W40801  36.072  38.027   2.803
68377W        W40802  39.998   4.202   2.763
68378W        W40803   3.458   0.910   0.639
68379W        W40804  18.563  22.973  10.727
68380W        W40805  22.288  15.901  10.669
68381W        W40806  44.755  31.434   1.378
68382W        W40807   2.002  20.031   2.702
68383W        W40808  10.264  14.769   4.518
68384W        W40809   0.610  41.967  13.452
68385W        W40810  27.725  22.188  13.827
68386W        W40811  22.197  23.024   4.171
68387W        W40812  11.914  22.653   3.121
68388W        W40813  17.091  36.754  10.673
68389W        W40814  32.353  36.509   3.659
68390W        W40815  21.302   0.560   0.482
68391W        W40816   4.250  25.140  14.246
68392W        W40817   6.494   4.618   3.878
68393W        W40818  22.749  44.237  12.482
68394W        W40819  44.857   8.292  10.723
68395W        W40820  41.838   1.021  13.563
68396W        W40821  42.260  39.892  11.343
68397W        W40822   9.953  20.950  14.522
68398W        W40823  25.073   2.435  11.101
68399W        W40824  17.280  24.154  13.916
68400W        W40825  30.931  31.317   2.715
68401W        W40826  23.034  30.913   2.410
68402W        W40827  42.868  31.428  12.605
68403W        W40828  38.439   6.004   0.685
68404W        W40829   4.893  37.914   1.741
68405W        W40830  43.016   3.022   1.281
68406W        W40831   0.349  43.509   4.393
68407W        W40832   2.397  29.221  11.996
68408W        W40833   4.510  32.069  12.823
68409W        W40834   6.348  23.146  14.051
68410W        W40835  19.505   4.659  10.661
68411W        W40836  24.122  41.864   2.237
68412W        W40837   9.420  41.078  10.660
68413W        W40838  11.652  10.301  14.632
68414W        W40839  30.778  40.844  13.075
68415W        W40840  40.515   0.078   4.070
68416W        W40841   9.640  26.702  10.562
68417W        W40842  39.827  29.932   1.007
68418W        W40843  29.562  25.157  13.047
68419W        W40844  43.547  12.751   2.344
68420W        W40845   7.444   4.196  14.309
68421W        W40846  32.852  44.739   2.184
68422W        W40847   1.882  43.541  10.670
68423W        W40848  35.158  23.119   0.220
68424W        W40849  11.544   1.515  12.510
68425W        W40850  12.318  40.530   1.765
68426W        W40851  36.120  24.956  10.518
68427W        W40852  21.542   8.864   0.445
68428W        W40853  38.815   3.591  12.953
68429W        W40854  20.274   8.262  12.969
68430W        W40855   7.325  17.884  14.679
68431W        W40856  30.937  22.251   2.742
68432W        W40857  25.184   8.739   0.625
68433W        W40858  39.032  15.282  12.545
68434W        W40859  38.484  13.699  13.062
68435W        W40860  41.742   7.743   4.483
68436W        W40861  14.149   0.400  12.542
68437W        W40862  29.947  24.986  12.196
68438W        W40863  11.463  21.706  10.051
68439W        W40864  43.329  12.906  11.008
68440W        W40865  12.980   4.776  10.152
68441W        W40866   8.689  27.261  14.506
68442W        W40867   7.704  25.288  13.034
68443W        W40868  36.591   5.863  11.072
68444W        W40869  23.117  32.878  11.587
68445W        W40870  15.595  30.110  13.775
68446W        W40871  16.069  20.050   2.749
68447W        W40872  32.074  17.814   1.444
68448W        W40873  20.801  12.604  12.432
68449W        W40874   7.574  37.041   1.899
68450W        W40875  16.080  21.742   2.202
68451W        W40876  38.396  27.176  11.562
68452W        W40877   8.002   2.786   3.038
68453W        W40878  17.071  34.087   3.649
68454W        W40879  19.147  14.320  11.724
68455W        W40880  28.997  12.761  12.511
68456W        W40881  37.875  26.524   0.946
68457W        W40882  14.067   6.107  12.496
68458W        W40883  14.739  37.752   4.117
68459W        W40884  44.669  22.258  11.504
68460W        W40885  17.450  25.677   2.709
68461W        W40886  17.980  12.722   2.251
68462W        W40887  17.744   5.345   1.296
68463W        W40888  43.026  43.733  14.342
68464W        W40889   0.064  30.483   3.694
68465W        W40890   6.697  10.988  10.764
68466W        W40891  13.255  21.820  14.502
68467W        W40892  38.728   1.742   3.142
68468W        W40893  17.032   8.619   3.698
68469W        W40894  40.026   9.102   2.344
68470W        W40895  16.201   0.392   4.702
68471W        W40896  31.129  32.722  12.785
68472W        W40897   2.354   6.349  13.558
68473W        W40898  27.003  21.301   1.690
68474W        W40899  24.188   9.869  12.095
68475W        W40900  25.230   2.781  13.345
68476W        W40901   3.315  36.893   3.062
68477W        W40902   5.465   0.796  13.807
68478W        W40903   4.876  22.054  13.025
68479W        W40904  42.849  15.144   4.570
68480W        W40905   4.887  38.068   1.247
68481W        W40906  31.695  32.013  11.169
68482W        W40907  42.351   4.849   0.913
68483W        W40908  37.819  24.072   5.183
68484W        W40909   1.973  19.219   2.476
68485W        W40910  44.219  14.194  10.733
68486W        W40911  40.854   0.023   0.294
68487W        W40912  20.677   2.225   0.849
68488W        W40913  29.833   9.951  12.851
68489W        W40914   7.810  16.059  11.533
68490W        W40915  16.513  16.435   2.607
68491W        W40916  10.715  23.573  13.268
68492W        W40917  25.751  34.806  13.835
68493W        W40918  27.067  28.376   5.075
68494W        W40919  22.690  33.595  11.989
68495W        W40920  19.715  35.725  13.624
68496W        W40921  22.986  15.866   2.584
68497W        W40922  32.279  23.573  14.310
68498W        W40923  32.278  11.478   2.214
68499W        W40924  23.037  24.753   3.154
68500W        W40925   7.672  40.076  11.036
68501W        W40926   2.657  38.917   2.668
68502W        W40927   4.239  18.144   2.562
68503W        W40928  31.093   3.379  11.327
68504W        W40929  25.215  34.585  12.339
68505W        W40930  36.662   5.030  14.988
68506W        W40931   9.694  10.329   1.188
68507W        W40932  28.814  32.585   0.344
68508W        W40933   7.816  26.252   4.178
68509W        W40934  26.744  41.504   2.770
68510W        W40935  11.267  14.070  14.870
68511W        W40936  17.918  17.222   0.327
68512W        W40937  15.965  18.162  11.314
68513W        W40938  15.710  36.288   4.520
68514W        W40939  38.605   1.795  10.112
68515W        W40940  17.570  31.772  11.920
68516W        W40941  40.964  21.636   3.595
68517W        W40942  10.219  23.724  12.124
68518W        W40943  30.552   0.451   0.685
68519W        W40944   5.397  14.751   0.869
68520W        W40945   6.297  29.862   0.403
68521W        W40946  31.822  13.697  13.812
68522W        W40947   4.288   3.655  13.013
68523W        W40948  44.348  42.369  14.747
68524W        W40949  20.618  16.796   4.792
68525W        W40950   6.924  17.301  14.022
68526W        W40951   3.827   5.887  13.345
68527W        W40952  21.017  42.338   2.814
68528W        W40953  31.922   2.777  12.403
68529W        W40954  15.240  25.532   1.386
68530W        W40955  17.080  38.137   0.703
68531W        W40956  30.454  21.586   1.467
68532W        W40957  15.296   6.256  12.931
68533W        W40958  36.238   8.254  13.147
68534W        W40959  39.034   9.918   1.900
68535W        W40960  21.036  15.542   0.744
68536W        W40961  27.145  13.189  13.924
68537W        W40962  13.431   9.449   2.225
68538W        W40963  43.166   7.416  14.480
68539W        W40964  14.128   0.415  11.199
68540W        W40965  36.173  32.052   1.741
68541W        W40966  12.267  25.982   2.642
68542W        W40967  19.329  40.074   2.538
68543W        W40968  14.157  21.191  11.093
68544W        W40969  18.219   2.990   3.692
68545W        W40970  35.890   8.940   4.535
68546W        W40971  42.320   2.683  11.146
68547W        W40972  19.106  10.136  13.351
68548W        W40973  18.900  31.039  13.785
68549W        W40974  33.909  19.970  13.453
68550W        W40975  39.871  23.205  14.222
68551W        W40976  24.580  42.273  11.900
68552W        W40977  25.064   2.409  12.154
68553W        W40978  31.038   5.719   3.316
68554W        W40979  44.056  16.132  13.594
68555W        W40980  13.972  31.187  11.790
68556W        W40981  35.546  19.123   3.299
68557W        W40982  13.339  33.442   0.490
68558W        W40983  39.140   3.516  13.376
68559W        W40984  23.057  21.278  12.015
68560W        W40985   2.500  13.147  11.705
68561W        W40986  11.287  10.679  14.566
68562W        W40987  26.867  39.922   3.798
68563W        W40988  42.063  23.661  11.904
68564W        W40989  27.167  38.327  10.998
68565W        W40990  19.715   9.728  11.035
68566W        W40991  20.608  39.367   0.727
68567W        W40992  15.811  10.271   2.699
68568W        W40993  10.690  36.162   1.781
68569W        W40994  32.629  22.292  12.693
68570W        W40995  17.820  34.691   4.333
68571W        W40996  17.220  13.300  11.134
68572W        W40997   7.891  40.957  14.203
68573W        W40998  40.841  31.961   4.564
68574W        W40999  19.315   3.794  10.444
68575W        W41000  28.821  23.545  12.417
68576W        W41001   4.394  26.054  11.012
68577W        W41002  40.273  15.275   4.155
68578W        W41003  34.116  37.537   2.327
68579W        W41004  18.105  41.493  11.254
68580W        W41005  12.908  32.940   4.042
68581W        W41006  21.392  12.314  14.786
68582W        W41007   5.917   0.666   4.338
68583W        W41008  34.906  27.694  14.459
68584W        W41009  17.721  39.371   3.152
68585W        W41010  20.643   9.855   3.569
68586W        W41011  28.640   1.456  12.990
68587W        W41012   4.060   2.475   4.458
68588W        W41013  32.317  39.538   2.271
68589W        W41014  43.839  14.962  14.272
68590W        W41015  13.582  30.018  10.815
68591W        W41016  39.096  27.083   4.900
68592W        W41017   9.726  32.009   3.698
68593W        W41018   2.669  35.373  12.389
68594W        W41019  30.377  14.178   4.649
68595W        W41020  27.781  26.009   2.854
68596W        W41021  42.435  29.968   4.385
68597W        W41022  44.878  36.771   0.706
68598W        W41023  24.587  24.742  13.366
68599W        W41024  32.922  29.574   4.487
68600W        W41025  42.859  14.177   2.691
68601W        W41026  42.107  33.816  13.628
68602W        W41027  12.387   5.959  11.241
68603W        W41028  29.085  13.627   4.195
68604W        W41029  41.774  23.631   4.111
68605W        W41030   1.456  14.089   1.340
68606W        W41031  40.872  20.243   4.570
68607W        W41032   7.410  19.485  11.994
68608W        W41033  38.924   8.432   4.172
68609W        W41034  21.340  26.483  10.952
68610W        W41035  19.521  10.455  13.450
68611W        W41036  21.666  24.618   4.984
68612W        W41037  44.326  41.498   0.364
68613W        W41038  41.248   5.885   3.383
68614W        W41039  14.264  36.021  12.477
68615W        W41040   6.026   6.858   0.308
68616W        W41041   7.130  20.162  10.653
68617W        W41042   6.846  34.337   0.709
68618W        W41043   8.788  23.287   0.273
68619W        W41044  18.260   2.898   0.969
68620W        W41045  30.414  42.323  13.814
68621W        W41046  10.695  25.827   2.409
68622W        W41047  38.060   3.211   4.220
68623W        W41048   8.657  35.167   3.303
68624W        W41049  39.586  37.616   0.965
68625W        W41050  15.314  24.434   1.891
68626W        W41051   4.903  38.045   2.261
68627W        W41052   2.750   9.920  13.849
68628W        W41053  30.438  19.076   0.904
68629W        W41054   6.747  34.856  14.914
68630W        W41055   6.690   8.761  11.155
68631W        W41056  28.537  31.520  10.631
68632W        W41057   1.631  19.638  13.019
68633W        W41058  17.360   2.972   4.702
68634W        W41059   4.206  44.772  11.651
68635W        W41060  37.923  10.545   4.505
68636W        W41061  40.455  39.581   1.701
68637W        W41062  25.986  35.129   1.263
68638W        W41063  24.454  40.475  13.455
68639W        W41064  19.350   4.332  12.980
68640W        W41065   3.906  30.497   3.265
68641W        W41066  20.263  25.494  13.718
68642W        W41067  37.790  40.547  14.906
68643W        W41068  21.523  18.442   4.861
68644W        W41069  41.521   4.971  11.656
68645W        W41070  13.313  11.689   0.765
68646W        W41071  12.262  23.737   0.173
68647W        W41072  25.380  19.746  13.390
68648W        W41073  32.883  16.186   0.545
68649W        W41074   8.305  25.798   0.819
68650W        W41075   1.074  37.055   4.498
68651W        W41076  16.223  40.264  10.370
68652W        W41077  23.114  28.871   1.315
68653W        W41078  40.636  22.735  11.701
68654W        W41079  19.887   8.652  14.244
68655W        W41080  23.804  29.110   4.569
68656W        W41081  33.325   2.699  13.823
68657W        W41082  32.513   2.093   3.751
68658W        W41083  27.650  11.398   2.417
68659W        W41084  13.400  10.985  11.143
68660W        W41085  11.759   5.891  10.655
68661W        W41086  18.531  20.520   2.776
68662W        W41087  32.107  37.935  10.653
68663W        W41088  26.973  33.559  10.939
68664W        W41089   4.707  30.422   1.418
68665W        W41090   3.018   5.368  13.914
68666W        W41091  10.898   4.603  10.650
68667W        W41092   5.228  39.491   1.728
68668W        W41093   8.207  27.931   2.850
68669W        W41094   0.251  22.589  14.962
68670W        W41095   9.794  30.716  11.548
68671W        W41096  25.541   9.279  11.453
68672W        W41097   1.039   2.330   0.657
68673W        W41098   7.877  12.578   4.593
68674W        W41099  10.501   9.358   0.615
68675W        W41100  21.468   3.787  13.460
68676W        W41101  42.148   5.442   1.867
68677W        W41102  35.430  18.607  10.625
68678W        W41103  27.438   3.055  12.963
68679W        W41104   4.323  25.986  10.468
68680W        W41105  27.169  30.372   1.431
68681W        W41106  24.518  26.590   4.637
68682W        W41107  42.486  23.664   3.437
68683W        W41108  34.622  18.916   4.184
68684W        W41109   5.112  31.499  10.183
68685W        W41110   7.757  31.438   4.229
68686W        W41111  25.495  36.632  14.379
68687W        W41112  29.006   3.614   1.660
68688W        W41113  40.348   2.423  12.911
68689W        W41114  35.393  41.525   1.181
68690W        W41115  38.591  19.497   0.791
68691W        W41116   3.341   7.828   0.946
68692W        W41117  34.367  13.907  14.402
68693W        W41118   4.488  29.446   1.648
68694W        W41119  21.589  27.926   3.306
68695W        W41120  36.694  21.943  10.689
68696W        W41121  18.830  19.344   0.836
68697W        W41122  22.019  29.408   1.746
68698W        W41123  24.030  11.827   3.590
68699W        W41124  34.107  38.387  14.843
68700W        W41125  17.325  36.865  14.878
68701W        W41126  33.526  41.716   4.237
68702W        W41127   4.950  17.384   2.400
68703W        W41128  20.231   5.858   4.655
68704W        W41129  26.515  21.014   2.786
68705W        W41130  14.314   3.066  11.201
68706W        W41131  26.139  22.982   0.315
68707W        W41132   6.769  43.958   4.388
68708W        W41133  33.562  33.673   4.449
68709W        W41134  14.584  23.966   1.466
68710W        W41135  18.865  21.297  12.751
68711W        W41136  21.088  12.312   9.630
68712W        W41137  17.012  34.928  14.970
68713W        W41138  33.459  28.083   0.795
68714W        W41139  14.376  36.382   2.420
68715W        W41140  26.103  41.078   0.249
68716W        W41141  22.131  30.528   3.641
68717W        W41142   3.567  24.971  13.443
68718W        W41143  33.816  26.769   1.329
68719W        W41144  26.985  20.624  10.327
68720W        W41145  41.557  36.719  12.909
68721W        W41146  28.668  39.879   4.627
68722W        W41147  12.607  27.078  13.448
68723W        W41148  16.194  12.070   1.836
68724W        W41149   1.869  30.443  12.114
68725W        W41150  30.191   6.451  12.864
68726W        W41151  32.646   1.195   4.178
68727W        W41152  10.267   4.911   4.158
68728W        W41153  36.849   7.090  12.382
68729W        W41154  43.373  29.079   2.838
68730W        W41155  14.254  44.479  10.686
68731W        W41156   4.693  35.525  11.445
68732W        W41157  41.647   6.442  11.655
68733W        W41158  25.087  28.507   2.010
68734W        W41159   6.276  43.459  12.458
68735W        W41160  14.589  31.120   0.807
68736W        W41161  34.054  32.817  13.925
68737W        W41162  25.951   2.794  12.051
68738W        W41163  32.099   1.826  12.545
68739W        W41164  23.334  38.720  13.033
68740W        W41165  13.526  24.482  13.264
68741W        W41166   1.783  43.972  10.938
68742W        W41167   2.581  19.004   4.174
68743W        W41168   5.678  38.891  11.991
68744W        W41169   7.936  29.604  14.277
68745W        W41170   6.273  41.324   2.193
68746W        W41171  17.619   2.886   0.831
68747W        W41172  39.058  29.644  14.931
68748W        W41173   3.991  34.030  14.345
68749W        W41174  14.050  28.692   0.098
68750W        W41175  43.560  20.333   5.046
68751W        W41176  35.944  33.049   1.446
68752W        W41177  21.990  44.748  12.504
68753W        W41178   6.041  26.547   2.113
68754W        W41179  19.684  17.308  10.658
68755W        W41180  32.682  12.347   3.665
68756W        W41181  23.637   9.412   0.331
68757W        W41182   8.776  13.593   0.331
68758W        W41183   6.595  20.523   3.796
68759W        W41184  21.352  30.508   2.236
68760W        W41185   8.443   3.317  12.489
68761W        W41186  41.794   9.221   3.284
68762W        W41187   9.582  39.832  14.442
68763W        W41188  40.251  37.019   0.842
68764W        W41189   7.204  29.175  12.417
68765W        W41190  23.472  41.484   1.381
68766W        W41191  15.790   9.336   2.692
68767W        W41192  27.209  43.222   3.271
68768W        W41193  37.319  43.333  14.895
68769W        W41194   5.173  43.028  13.844
68770W        W41195  20.386  41.848   2.428
68771W        W41196   2.239  12.132  10.424
68772W        W41197  22.002  18.137  11.448
68773W        W41198  27.894   2.121  12.990
68774W        W41199  14.642   8.698  12.981
68775W        W41200  34.448   0.189   0.583
68776W        W41201  38.884  43.629  14.792
68777W        W41202  20.287  20.885   3.647
68778W        W41203  29.754  23.643   1.822
68779W        W41204   6.258   4.330   0.508
68780W        W41205  32.481  18.671   1.359
68781W        W41206  33.665  19.582  10.584
68782W        W41207  22.726  44.335   1.051
68783W        W41208  38.129  41.548  12.846
68784W        W41209  36.525   9.781   4.259
68785W        W41210  20.294   3.529   1.225
68786W        W41211  20.515  42.170  13.178
68787W        W41212   2.682  32.384  11.694
68788W        W41213   7.370  32.956   0.490
68789W        W41214   6.772  31.892  10.564
68790W        W41215  44.266  34.940   5.103
68791W        W41216  44.106   2.622   0.092
68792W        W41217  15.021  21.479   3.079
68793W        W41218  28.064   2.229  12.508
68794W        W41219  25.509  14.321   0.463
68795W        W41220  33.560  35.402   4.963
68796W        W41221   5.941  28.509  13.319
68797W        W41222  41.733  40.315   1.760
68798W        W41223  26.577  23.233   3.454
68799W        W41224   1.362  26.875   2.808
68800W        W41225  23.527   9.465  13.008
68801W        W41226  15.879  18.330   3.194
68802W        W41227  44.780  28.953  10.773
68803W        W41228  41.121   8.727  11.901
68804W        W41229  12.686  39.625  11.627
68805W        W41230  15.753  36.641   2.784
68806W        W41231  37.116   0.509   2.632
68807W        W41232  11.533  14.731   3.153
68808W        W41233   8.632  22.105  14.941
68809W        W41234  27.388  43.999  12.535
68810W        W41235  29.535  21.074   0.011
68811W        W41236   5.443  17.214  11.999
68812W        W41237  34.394  16.901  12.897
68813W        W41238  43.053   9.916  11.623
68814W        W41239  34.652   0.685   3.616
68815W        W41240  13.837  29.667  13.502
68816W        W41241  41.002  27.942   1.141
68817W        W41242  28.967  21.805   4.140
68818W        W41243  42.881  22.747  12.482
68819W        W41244  21.013   1.028   3.236
68820W        W41245  16.813  33.521   0.256
68821W        W41246  25.235  14.027   3.622
68822W        W41247  43.516  12.284  14.989
68823W        W41248  11.251   1.936  12.990
68824W        W41249  19.736   8.446   3.726
68825W        W41250  27.972  21.723  14.370
68826W        W41251  36.792  26.460   3.275
68827W        W41252  26.056  25.758  12.946
68828W        W41253  37.399  33.165  12.851
68829W        W41254  13.704  32.458  10.521
68830W        W41255  37.626  25.247   0.695
68831W        W41256   1.039   4.855  11.200
68832W        W41257  42.087  36.522   4.261
68833W        W41258  17.157   3.937   3.118
68834W        W41259  44.765  36.545   1.734
68835W        W41260  34.092  18.212  12.347
68836W        W41261  13.352  22.730   2.254
68837W        W41262  40.575  33.129   1.440
68838W        W41263  31.866  36.469   1.804
68839W        W41264  21.795  23.890  14.861
68840W        W41265  39.412   4.341  11.380
68841W        W41266  30.757   0.991   2.661
68842W        W41267  21.707  42.884  14.011
68843W        W41268   0.446   2.064  13.488
68844W        W41269  15.077   6.736  12.929
68845W        W41270  25.605  30.441   0.312
68846W        W41271  36.606  27.238  11.541
68847W        W41272  31.158  22.681  14.715
68848W        W41273  41.738  17.723  14.590
68849W        W41274   8.352  27.523   0.343
68850W        W41275  43.893   5.043   3.507
68851W        W41276  21.478  18.811  12.498
68852W        W41277  10.237  36.519   4.516
68853W        W41278  18.723   0.929   1.302
68854W        W41279  28.077   0.236  11.550
68855W        W41280  42.124  39.538   5.000
68856W        W41281  31.474   2.460   0.497
68857W        W41282   9.197   8.641  12.151
68858W        W41283  27.105   4.174   2.361
68859W        W41284  19.068  13.155  13.760
68860W        W41285  14.247  38.788  14.654
68861W        W41286  42.267   5.871  10.473
68862W        W41287  15.390  24.171  11.485
68863W        W41288  44.326   7.894   0.794
68864W        W41289  14.376   6.524  14.472
68865W        W41290  24.621  44.065  13.378
68866W        W41291  35.863  13.226   3.683
68867W        W41292  14.134  10.282   0.725
68868W        W41293  28.082   3.227  11.578
68869W        W41294  29.967   3.335  10.433
68870W        W41295   7.142  39.799   1.836
68871W        W41296  22.600   7.838   0.231
68872W        W41297  29.494  32.136  13.043
68873W        W41298  18.729  25.338   9.857
68874W        W41299  13.912  23.980   2.576
68875W        W41300  15.989  39.414   0.822
68876W        W41301   8.737   0.687   1.257
68877W        W41302  17.847  21.439   2.332
68878W        W41303  40.880  18.292  12.857
68879W        W41304  30.388  35.403  10.741
68880W        W41305  11.693  22.664  13.440
68881W        W41306   7.106   8.239  13.907
68882W        W41307  32.533  42.963  14.794
68883W        W41308  23.086  23.575  14.801
68884W        W41309   2.884  33.106  14.722
68885W        W41310   8.373  20.146   2.222
68886W        W41311   0.248  40.032   4.351
68887W        W41312  22.532  29.060  13.023
68888W        W41313   6.175  26.199   1.274
68889W        W41314  43.617  22.789  10.077
68890W        W41315   1.766  12.286  14.219
68891W        W41316  30.983   6.428  11.180
68892W        W41317  44.443  38.676  11.546
68893W        W41318   7.310   6.927  10.779
68894W        W41319   5.949   4.976  11.594
68895W        W41320   0.381  29.408  14.537
68896W        W41321   1.008  15.655   2.254
68897W        W41322  13.755  19.456  14.996
68898W        W41323  13.705  16.880  14.785
68899W        W41324   9.968   7.279   4.962
68900W        W41325   8.933   7.190   0.723
68901W        W41326  10.782  35.579   3.740
68902W        W41327  16.035   0.379  14.127
68903W        W41328  26.249  22.920   3.214
68904W        W41329  24.656  30.799   0.990
68905W        W41330  20.273  43.722  11.545
68906W        W41331  22.714  14.639  10.633
68907W        W41332  27.362  42.978   2.349
68908W        W41333  11.755  13.575   4.677
68909W        W41334  38.072   8.215   2.309
68910W        W41335   4.686  19.715   2.804
68911W        W41336  26.387   6.691   0.746
68912W        W41337  25.978  44.614  13.144
68913W        W41338   7.190  13.029  11.126
68914W        W41339  15.589  38.949  11.200
68915W        W41340  11.709  43.411   1.840
68916W        W41341  26.521  26.950   2.178
68917W        W41342  11.305  34.000   4.258
68918W        W41343  38.989  37.910   1.404
68919W        W41344   4.402  20.481  11.409
68920W        W41345  13.726  41.861  10.781
68921W        W41346  30.177  24.698   3.291
68922W        W41347  40.554   8.393   3.511
68923W        W41348   8.390  16.875   1.236
68924W        W41349  14.832  36.854   4.606
68925W        W41350   3.072  14.046  12.364
68926W        W41351  26.983  25.113  12.577
68927W        W41352  19.236  32.041  10.753
68928W        W41353  32.665  19.495  12.083
68929W        W41354   1.003  20.436  13.487
68930W        W41355   6.906   8.390   2.887
68931W        W41356  22.056   3.983   3.569
68932W        W41357  38.066  37.351  14.794
68933W        W41358  27.210  38.939  12.127
68934W        W41359  42.377  29.062  10.724
68935W        W41360  27.588  33.771   1.893
68936W        W41361   7.062  12.744  12.209
68937W        W41362  38.860  28.918   1.264
68938W        W41363  15.284  41.412  12.250
68939W        W41364  14.136  15.825   0.336
68940W        W41365   9.887  18.004  11.873
68941W        W41366  22.329  12.395  10.228
68942W        W41367  23.983   4.756  14.426
68943W        W41368  31.965  39.529  12.887
68944W        W41369  28.634  13.071  11.042
68945W        W41370   3.283  31.279   1.790
68946W        W41371  27.950  10.105  13.339
68947W        W41372   3.893   0.014   1.867
68948W        W41373  31.408  26.161   4.380
68949W        W41374  34.008  36.419  13.775
68950W        W41375  25.223  10.565  11.117
68951W        W41376  37.900  29.890   2.899
68952W        W41377  38.337  21.847  12.063
68953W        W41378  19.339  22.622   0.273
68954W        W41379  40.295  28.627  13.167
68955W        W41380  13.323  42.896   2.251
68956W        W41381  41.049  34.003   1.727
68957W        W41382  17.423  14.262  11.248
68958W        W41383  12.033   1.355  14.420
68959W        W41384  41.310  20.043  14.301
68960W        W41385  35.369  29.313  14.049
68961W        W41386  12.209   2.803  10.156
68962W        W41387   5.327   1.207  12.572
68963W        W41388  36.241  29.947   1.909
68964W        W41389  24.499   4.158  13.970
68965W        W41390  26.043  31.556   3.195
68966W        W41391  37.439  26.311   2.629
68967W        W41392   7.355  40.085  11.756
68968W        W41393   9.740  41.216  12.973
68969W        W41394  23.576  24.940   3.768
68970W        W41395   2.725  29.237  11.595
68971W        W41396   5.338  18.603  12.611
68972W        W41397  27.299   6.322  10.242
68973W        W41398  19.687  10.698   1.720
68974W        W41399   6.768  41.520  14.867
68975W        W41400   7.584  41.853   1.840
68976W        W41401   6.649  30.642  13.864
68977W        W41402  13.570   9.900   3.299
68978W        W41403  29.878   2.742   4.686
68979W        W41404   1.426  10.705   1.972
68980W        W41405  44.990  28.225   4.145
68981W        W41406  10.855  33.412   1.285
68982W        W41407  16.176  12.873  11.709
68983W        W41408  33.269   5.937  13.752
68984W        W41409  36.226   2.268   0.890
68985W        W41410   4.724  32.339   2.297
68986W        W41411  24.651  35.502   4.608
68987W        W41412   3.364  11.201   2.859
68988W        W41413  29.693  24.463   0.749
68989W        W41414  32.841  28.740   0.834
68990W        W41415  44.920   2.945  13.834
68991W        W41416  31.624   4.203  12.430
68992W        W41417   7.900  19.463  14.788
68993W        W41418   0.247  28.134   4.655
68994W        W41419   5.814   2.726   4.174
68995W        W41420  19.998  44.696  11.518
68996W        W41421  39.075   3.324  14.210
68997W        W41422   8.563  11.776   2.385
68998W        W41423  44.312  22.314  12.511
68999W        W41424  37.340  12.269   1.950
69000W        W41425  15.715  18.732   4.543
69001W        W41426  37.386  12.390  12.001
69002W        W41427  16.195  38.554  12.592
69003W        W41428  32.904  29.099  14.914
69004W        W41429  26.418  23.915  13.841
69005W        W41430  11.663  15.850   2.984
69006W        W41431  10.765  31.362  12.440
69007W        W41432  22.692   6.341   0.801
69008W        W41433  29.121  22.820   3.286
69009W        W41434  31.875  33.515   2.929
69010W        W41435   7.134   9.804  11.633
69011W        W41436  15.323   6.124   3.656
69012W        W41437  15.106   8.980   1.674
69013W        W41438   4.400  41.535  11.133
69014W        W41439  38.029  17.851   1.799
69015W        W41440  14.460  39.666  14.788
69016W        W41441  23.522  12.459  12.240
69017W        W41442   1.879  39.032  11.596
69018W        W41443  26.772  32.595   0.354
69019W        W41444  29.967  11.186   1.190
69020W        W41445  30.418  15.891   3.344
69021W        W41446  34.624  30.156   3.228
69022W        W41447  21.678  23.070   0.892
69023W        W41448   1.023  28.960   4.034
69024W        W41449  28.035   9.646  12.476
69025W        W41450   2.336   8.731   4.053
69026W        W41451  41.824  23.769   9.966
69027W        W41452  40.046  39.924   0.013
69028W        W41453  42.465  27.775   4.597
69029W        W41454  39.056  25.595  14.614
69030W        W41455  26.615  32.483  10.411
69031W        W41456  38.954   9.422   3.995
69032W        W41457  11.214  35.843   4.310
69033W        W41458  12.393  22.484  11.804
69034W        W41459   0.236  26.621  13.467
69035W        W41460  12.489  16.311  12.498
69036W        W41461  19.881   5.810  14.935
69037W        W41462   8.281  14.914  13.761
69038W        W41463  33.411  36.429  12.478
69039W        W41464   5.269  29.690   1.381
69040W        W41465  12.310  15.884   3.365
69041W        W41466  33.905  14.774  11.159
69042W        W41467   7.028  32.639   1.419
69043W        W41468  10.831  16.567  12.415
69044W        W41469  17.104  39.271  14.642
69045W        W41470  24.594  40.115  13.830
69046W        W41471   0.950  33.574  12.656
69047W        W41472  30.154  15.141  11.573
69048W        W41473  28.344   6.800  11.367
69049W        W41474  26.510  13.355  12.514
69050W        W41475  14.112  27.817   2.436
69051W        W41476  39.288  42.472  12.343
69052W        W41477  17.399  37.693  14.400
69053W        W41478  13.089   5.708   0.891
69054W        W41479  37.563  34.512   1.680
69055W        W41480   7.804   3.359  13.248
69056W        W41481   6.700  24.958   1.811
69057W        W41482  26.924  29.107   0.877
69058W        W41483   6.446  17.191  14.920
69059W        W41484  24.077   9.568  14.013
69060W        W41485  18.501  12.263   1.064
69061W        W41486   3.350  41.775   4.695
69062W        W41487   2.493  17.812  13.273
69063W        W41488   0.685  22.806   0.198
69064W        W41489  37.799  17.064   3.933
69065W        W41490  30.811   9.865   4.017
69066W        W41491   3.219  34.224  14.585
69067W        W41492  17.812   9.867   0.861
69068W        W41493   6.759  18.572   3.645
69069W        W41494  24.099  44.803  13.303
69070W        W41495   3.393  42.570  13.918
69071W        W41496  17.103   9.437   0.876
69072W        W41497  11.808  43.350  13.285
69073W        W41498  33.286   2.537   0.972
69074W        W41499  26.572  29.533  13.294
69075W        W41500  27.969  14.355  11.534
69076W        W41501  10.607  38.027  11.817
69077W        W41502  31.931  19.468  11.097
69078W        W41503   7.079  19.124  12.573
69079W        W41504  17.252  18.717  14.268
69080W        W41505  38.040  42.979   1.962
69081W        W41506  39.139   0.972   0.698
69082W        W41507  15.025  36.973  11.216
69083W        W41508  16.276  34.543  14.805
69084W        W41509  38.791   5.096  11.689
69085W        W41510  18.159  32.489   2.708
69086W        W41511   7.823   5.478   1.263
69087W        W41512   5.605   3.029  13.201
69088W        W41513  24.577  23.206   1.331
69089W        W41514  29.574   8.411   0.720
69090W        W41515  22.004  43.718   0.353
69091W        W41516  30.464  22.129  11.044
69092W        W41517  20.267  39.666   2.426
69093W        W41518  31.499  15.371   2.388
69094W        W41519   5.289  21.752   0.683
69095W        W41520   3.182   7.569  12.393
69096W        W41521  42.367  13.622  12.956
69097W        W41522  15.272  12.680  12.860
69098W        W41523  41.976  31.969  12.309
69099W        W41524  22.438  19.188   0.772
69100W        W41525  24.641  40.456   0.766
69101W        W41526  41.288  39.483   2.825
69102W        W41527   9.656   4.661   2.786
69103W        W41528  41.472  15.291   0.463
69104W        W41529  40.298  19.796  10.724
69105W        W41530   6.169   7.086   2.271
69106W        W41531  34.019   4.744  11.041
69107W        W41532   5.400  36.036  14.807
69108W        W41533  34.982  35.853   4.615
69109W        W41534  27.190  38.633  10.583
69110W        W41535   7.680   6.656   3.475
69111W        W41536   4.914  35.801  14.873
69112W        W41537  41.927   1.386  12.856
69113W        W41538   5.343  37.824   2.490
69114W        W41539   8.332  30.937  14.535
69115W        W41540  21.769  34.265  11.171
69116W        W41541  26.022   3.252   2.432
69117W        W41542  36.369   8.297  12.629
69118W        W41543  30.807  27.425   2.172
69119W        W41544  20.311  44.901   3.175
69120W        W41545  27.339  16.776  10.565
69121W        W41546   9.018  34.887  10.868
69122W        W41547  33.078  26.066   0.829
69123W        W41548  20.769  15.240  14.907
69124W        W41549  36.368   5.705   2.892
69125W        W41550  36.000  30.010   2.727
69126W        W41551  43.505  30.372   2.865
69127W        W41552  14.291  34.337   4.278
69128W        W41553  38.371  27.446  12.055
69129W        W41554  43.280  36.997   2.193
69130W        W41555  42.836  21.133  11.508
69131W        W41556  40.492  33.898   2.737
69132W        W41557   6.239  42.293  14.831
69133W        W41558   9.283  10.317   3.120
69134W        W41559   5.645  22.046   0.929
69135W        W41560  17.249  19.195   2.201
69136W        W41561  22.630  28.434   3.101
69137W        W41562   4.736  23.015   1.792
69138W        W41563   0.188   8.397   4.621
69139W        W41564  31.552   9.621   0.742
69140W        W41565  20.564  15.646   0.179
69141W        W41566  40.552  41.373   4.134
69142W        W41567  20.285  16.140   1.966
69143W        W41568  33.333  11.641   1.795
69144W        W41569  43.346   0.082   2.865
69145W        W41570  18.547  32.873   1.130
69146W        W41571  21.558  43.271  11.600
69147W        W41572   1.861  12.810  14.930
69148W        W41573  27.760   5.242  13.529
69149W        W41574   4.247  28.581  11.873
69150W        W41575  32.004   2.257   1.196
69151W        W41576  43.366  17.831  14.570
69152W        W41577   6.092   6.276   4.187
69153W        W41578  28.726  31.078   2.445
69154W        W41579  19.412  31.708  12.908
69155W        W41580  28.387  10.246  14.065
69156W        W41581  10.834  34.952   1.918
69157W        W41582   8.902  37.891   1.348
69158W        W41583  33.896  19.148   0.408
69159W        W41584  23.637  20.152  14.313
69160W        W41585  13.132  19.246  12.571
69161W        W41586  24.293  11.395   3.689
69162W        W41587  38.300  44.723   0.232
69163W        W41588  19.611  17.544  12.051
69164W        W41589   6.459  32.600   3.955
69165W        W41590  10.130   0.322   3.627
69166W        W41591  18.477   6.889  14.857
69167W        W41592  11.794  24.723  12.772
69168W        W41593  28.539  18.689   2.735
69169W        W41594  12.295  43.610   0.859
69170W        W41595  26.960  13.135  14.988
69171W        W41596  23.231  42.959   3.649
69172W        W41597  33.298  32.100  10.225
69173W        W41598   9.208  23.677  14.712
69174W        W41599   2.343  16.293   3.693
69175W        W41600  36.817   5.409   3.601
69176W        W41601  14.237   9.153   1.141
69177W        W41602  17.696  12.107  13.469
69178W        W41603  11.766  37.174  14.305
69179W        W41604  11.131   2.628   1.189
69180W        W41605   1.641   6.517  14.771
69181W        W41606  15.704   0.320   4.873
69182W        W41607  37.475  11.964   4.194
69183W        W41608  27.251  36.492   1.224
69184W        W41609  30.010  37.649  11.132
69185W        W41610   8.644  28.559   2.361
69186W        W41611  11.857   0.978   3.149
69187W        W41612  24.507   5.404   1.348
69188W        W41613  31.970   7.821   3.413
69189W        W41614  39.886  19.813   0.235
69190W        W41615   2.400  20.272  14.729
69191W        W41616   5.406  32.406  13.475
69192W        W41617  10.480  40.899  13.991
69193W        W41618  19.707   6.262   1.182
69194W        W41619  12.441  25.496   4.535
69195W        W41620   8.331   5.658   2.233
69196W        W41621  20.810  41.407  13.783
69197W        W41622  19.283   0.494  14.476
69198W        W41623  36.815  34.299  11.955
69199W        W41624  22.951  32.082  11.111
69200W        W41625  41.248   4.709   2.323
69201W        W41626  41.114  22.023  12.093
69202W        W41627  20.395  15.339   3.215
69203W        W41628  32.876  43.286   2.125
69204W        W41629  23.537  10.370   1.457
69205W        W41630  10.690  22.025  14.829
69206W        W41631  17.054  40.455   0.748
69207W        W41632  18.135  11.719  12.531
69208W        W41633  18.295  22.654   4.270
69209W        W41634   0.318  22.761  12.084
69210W        W41635   5.426  24.706   2.500
69211W        W41636  44.498  12.714  11.470
69212W        W41637  28.067  18.294  10.984
69213W        W41638  15.519  37.438   0.593
69214W        W41639   9.377  21.239   0.706
69215W        W41640   4.734  40.931   0.412
69216W        W41641  37.931  12.244   3.293
69217W        W41642  14.260  39.436  12.416
69218W        W41643  19.654  39.406  11.555
69219W        W41644   0.052  38.858  13.279
69220W        W41645  10.171  35.536  12.002
69221W        W41646  37.819  13.422   2.604
69222W        W41647  25.490   6.417  13.094
69223W        W41648  19.727   6.697   4.003
69224W        W41649  40.494  36.488  12.410
69225W        W41650  28.946  27.610  12.119
69226W        W41651  36.264  39.642   0.549
69227W        W41652  32.555  31.614   0.223
69228W        W41653  40.511   4.760  13.892
69229W        W41654  11.098  30.439   3.209
69230W        W41655  31.669   6.690  14.024
69231W        W41656   2.267  12.876  12.372
69232W        W41657   4.298  21.150  14.883
69233W        W41658  18.802  28.182  13.476
69234W        W41659  24.094  34.417   0.284
69235W        W41660   9.877  25.211  13.939
69236W        W41661  22.640  43.280   2.466
69237W        W41662  30.877  21.754  14.308
69238W        W41663  26.990  14.345  14.836
69239W        W41664  11.572  19.308  14.838
69240W        W41665   2.933  11.437  11.929
69241W        W41666  42.403  36.617  11.583
69242W        W41667  32.595  10.954   0.741
69243W        W41668  31.513  19.702   0.237
69244W        W41669   8.220  18.196  13.653
69245W        W41670  19.263   2.717   0.206
69246W        W41671   7.290  23.198   0.440
69247W        W41672  35.939  16.906   4.924
69248W        W41673  44.711  21.958   0.301
69249W        W41674   2.261   8.317  11.015
69250W        W41675  15.709  34.943  12.528
69251W        W41676  26.306  22.784   2.702
69252W        W41677  17.568   9.665   1.604
69253W        W41678  11.258  17.810   0.389
69254W        W41679  25.432  12.983  14.944
69255W        W41680   6.174  43.564   3.156
69256W        W41681  33.896  43.271  13.567
69257W        W41682   2.992  35.299   3.680
69258W        W41683  33.008  39.251   1.700
69259W        W41684   6.038  11.451   1.783
69260W        W41685  29.065   6.603  14.495
69261W        W41686  23.116  14.802   2.730
69262W        W41687   2.503  41.811  12.018
69263W        W41688   8.502  14.269  13.390
69264W        W41689  40.031   3.803  12.969
69265W        W41690   4.129  41.362  10.697
69266W        W41691   8.008  33.544  11.561
69267W        W41692   3.757   8.747  14.603
69268W        W41693  41.354  19.524   2.766
69269W        W41694  44.889  22.995  11.948
69270W        W41695  28.079  35.604   4.531
69271W        W41696   3.684  42.661  14.883
69272W        W41697  10.778   6.078  13.432
69273W        W41698  32.997   8.354   2.601
69274W        W41699  37.980  32.416   0.913
69275W        W41700  43.605  16.647   3.882
69276W        W41701   1.706   5.124   1.343
69277W        W41702  11.170  23.490  11.410
69278W        W41703  17.146  21.307   4.065
69279W        W41704  34.315  30.036   1.177
69280W        W41705  40.868   0.499   4.007
69281W        W41706  43.227   4.049  11.574
69282W        W41707  15.361  39.766  12.451
69283W        W41708  24.534  18.159   0.793
69284W        W41709  20.786   5.315   2.208
69285W        W41710  25.398  41.919   2.722
69286W        W41711  23.650  20.601  11.935
69287W        W41712  10.922   9.603   0.431
69288W        W41713  41.071  11.674  12.835
69289W        W41714  18.762  18.089   4.084
69290W        W41715  36.400  19.497  12.005
69291W        W41716  31.014  43.269  14.583
69292W        W41717  35.029   1.863   3.707
69293W        W41718  22.092  19.779   0.324
69294W        W41719  29.600   9.587   3.025
69295W        W41720  32.472  25.430  13.913
69296W        W41721  19.729  11.752  13.719
69297W        W41722  40.780  15.287   1.859
69298W        W41723   1.923   7.909   4.635
69299W        W41724  27.214  14.046   5.016
69300W        W41725  42.318  44.259   0.450
69301W        W41726  18.215  24.485   3.666
69302W        W41727  39.908  30.046  13.835
69303W        W41728  28.899  14.735   3.249
69304W        W41729  24.141  35.987  12.855
69305W        W41730  23.670  10.741   3.789
69306W        W41731  30.707  25.237  10.658
69307W        W41732  26.935   7.429   0.406
69308W        W41733   9.345  34.072   0.701
69309W        W41734  22.895  20.635   0.017
69310W        W41735  10.981  28.099   4.203
69311W        W41736   7.122  17.106   0.913
69312W        W41737  41.151  35.144  14.508
69313W        W41738  12.880  33.683   2.757
69314W        W41739  10.359  12.148  13.832
69315W        W41740  15.700  17.074  12.418
69316W        W41741  26.975   1.483  12.033
69317W        W41742   6.677  36.004  14.230
69318W        W41743   3.492  17.020   2.767
69319W        W41744  16.306   6.842   1.740
69320W        W41745  17.783  25.940  11.460
69321W        W41746   8.096   7.288   1.704
69322W        W41747   7.384  34.672   1.837
69323W        W41748  26.187   2.189   0.300
69324W        W41749  27.240  11.326  12.415
69325W        W41750   0.424  20.652  11.668
69326W        W41751   1.727  18.635   1.801
69327W        W41752   5.329   7.601   4.848
69328W        W41753  15.026  24.632  11.558
69329W        W41754  38.970  13.123   3.329
69330W        W41755   7.226   1.025  12.140
69331W        W41756  11.788  41.268   4.174
69332W        W41757  42.858  16.875  13.459
69333W        W41758  27.130  17.014   0.419
69334W        W41759   7.582  21.905   3.801
69335W        W41760  27.546  34.573  12.194
69336W        W41761   4.758   1.101  13.371
69337W        W41762  41.879   2.374   3.382
69338W        W41763  17.770  10.964   4.480
69339W        W41764  25.453  44.306  12.054
69340W        W41765  16.554  38.855   1.213
69341W        W41766  43.745  36.997   1.298
69342W        W41767  34.045  25.527  13.093
69343W        W41768   2.799  13.241   1.929
69344W        W41769  19.607   2.279   4.638
69345W        W41770  38.063  20.970  14.323
69346W        W41771  39.544  36.839   1.429
69347W        W41772  38.421  27.688  13.848
69348W        W41773  14.372  44.337   4.567
69349W        W41774  21.188   6.693   3.245
69350W        W41775  24.798  31.720   2.126
69351W        W41776  31.975  28.864  10.692
69352W        W41777  43.842   2.202  11.628
69353W        W41778   9.748  32.255  13.429
69354W        W41779   9.786   6.961  13.445
69355W        W41780   8.443  10.313  11.621
69356W        W41781  28.603  17.232   0.815
69357W        W41782  24.138   3.774   3.208
69358W        W41783  39.976  28.553   2.145
69359W        W41784   5.492  29.317  11.562
69360W        W41785  28.965  24.543   9.964
69361W        W41786  13.354  10.675   0.286
69362W        W41787   6.415  36.095   4.110
69363W        W41788  36.110  27.166  13.560
69364W        W41789  32.970   9.933   2.302
69365W        W41790   2.980  22.456  14.949
69366W        W41791  28.209  32.419   1.934
69367W        W41792  25.582   2.609   2.140
69368W        W41793  17.996  40.953  11.194
69369W        W41794  39.239  14.824  11.711
69370W        W41795  39.051  43.508  11.455
69371W        W41796  33.374  13.612   0.749
69372W        W41797   4.460  21.269  10.762
69373W        W41798  19.545  31.482  13.370
69374W        W41799  27.948   3.718   3.651
69375W        W41800  25.130  14.718  13.853
69376W        W41801   9.702  42.709   2.375
69377W        W41802  10.713  23.839   3.275
69378W        W41803  40.042  44.119  14.402
69379W        W41804   9.613  40.369   4.365
69380W        W41805  22.195  23.065   0.794
69381W        W41806  30.603  30.447   1.936
69382W        W41807   3.935  26.099  10.778
69383W        W41808  11.665  40.757   2.902
69384W        W41809  17.333  15.186   1.670
69385W        W41810  23.706   6.624   0.899
69386W        W41811  10.114  27.712   0.397
69387W        W41812  12.285  33.952   1.027
69388W        W41813  24.087  12.700   1.297
69389W        W41814  17.576   2.846   1.732
69390W        W41815  32.934   6.421   2.471
69391W        W41816  43.142   2.375   1.851
69392W        W41817  12.107  10.743   2.026
69393W        W41818  42.734   9.743   4.134
69394W        W41819   2.227  33.015   2.420
69395W        W41820  15.703  10.660  10.565
69396W        W41821  12.222  42.184  13.972
69397W        W41822  36.361  35.435   0.068
69398W        W41823  33.712  34.786   5.153
69399W        W41824  18.843   6.422  12.120
69400W        W41825  37.029  24.526  14.340
69401W        W41826  12.321  38.533  11.595
69402W        W41827  15.841   0.711  11.207
69403W        W41828  24.313  16.615  11.662
69404W        W41829   7.232   8.347  11.509
69405W        W41830  25.294  31.990   3.796
69406W        W41831  43.173   0.309  10.207
69407W        W41832  33.849   8.815   1.160
69408W        W41833  14.592  40.388  13.961
69409W        W41834  20.133  16.271   0.926
69410W        W41835   1.858   6.288   2.160
69411W        W41836  22.691  37.323   0.234
69412W        W41837  15.591  11.847  12.062
69413W        W41838  37.103   6.746  11.035
69414W        W41839   7.725   6.929   0.122
69415W        W41840  39.582  32.745   4.552
69416W        W41841  41.157   1.711  12.967
69417W        W41842   3.580  24.499   2.812
69418W        W41843  30.981  42.788   2.340
69419W        W41844   3.318  44.452  14.990
69420W        W41845  14.695  11.653  13.819
69421W        W41846   0.740  32.146   2.393
69422W        W41847  23.296  22.162   2.396
69423W        W41848   4.445  12.487   3.946
69424W        W41849  25.279   2.229  11.537
69425W        W41850   3.035   8.755   1.242
69426W        W41851  42.779  10.550  10.723
69427W        W41852  12.417  17.188   1.587
69428W        W41853  29.614  21.047   4.990
69429W        W41854  34.276   7.754  11.068
69430W        W41855  27.519  40.080  14.277
69431W        W41856   7.436  23.715  14.572
69432W        W41857  44.781  15.619   0.547
69433W        W41858  17.038  39.063  12.865
69434W        W41859  41.519  14.649  11.998
69435W        W41860  40.148  19.896   4.795
69436W        W41861  26.135   0.540   1.200
69437W        W41862  38.526  38.085   3.154
69438W        W41863  16.001   1.911  13.835
69439W        W41864  36.989  19.965  14.458
69440W        W41865  35.967  13.645   0.847
69441W        W41866  37.525  25.462   2.228
69442W        W41867  29.074  26.215  14.385
69443W        W41868  22.457   5.507   0.268
69444W        W41869  14.346   8.146   5.012
69445W        W41870  16.717  30.370   2.200
69446W        W41871  31.572  42.974  11.203
69447W        W41872  14.035  29.165  12.030
69448W        W41873  33.869  20.274  11.818
69449W        W41874  34.427  22.809   2.165
69450W        W41875   9.783  27.903   2.808
69451W        W41876  12.826  39.747  13.004
69452W        W41877  41.377  17.499  12.992
69453W        W41878   5.461   2.343   4.922
69454W        W41879   1.231  24.444   3.222
69455W        W41880  18.326  19.814  11.620
69456W        W41881  19.245  15.513   3.353
69457W        W41882  20.766  31.689  14.867
69458W        W41883  25.465  11.578  14.780
69459W        W41884  26.145   8.866  12.447
69460W        W41885   9.694  15.637  11.107
69461W        W41886  23.063   1.194  14.531
69462W        W41887  38.076  15.765   4.379
69463W        W41888  32.895  34.304   4.220
69464W        W41889   8.600  19.557   3.754
69465W        W41890  29.618  36.284  12.641
69466W        W41891  23.766  11.651  12.503
69467W        W41892  36.815  35.084  12.965
69468W        W41893   4.219  16.275   3.278
69469W        W41894   8.353  26.637  11.164
69470W        W41895  42.234  44.899   3.831
69471W        W41896  35.544  30.882   0.067
69472W        W41897   7.864   3.279   2.701
69473W        W41898  36.301  20.211   0.655
69474W        W41899  28.103   7.808  12.965
69475W        W41900  19.236  13.584  12.970
69476W        W41901  33.513  16.073   1.849
69477W        W41902  17.964  25.518  13.286
69478W        W41903  38.335   6.875   1.465
69479W        W41904  23.777  11.697   1.507
69480W        W41905   4.889  29.716   4.603
69481W        W41906  33.747  21.169   0.961
69482W        W41907  22.653   7.792   4.690
69483W        W41908  30.561  37.380  12.846
69484W        W41909  37.016  39.033  14.930
69485W        W41910   0.026  31.024   0.768
69486W        W41911  40.322  32.523  14.545
69487W        W41912   3.254  31.084   0.925
69488W        W41913  35.600   6.006   4.170
69489W        W41914  23.644  15.261  12.636
69490W        W41915  14.901  23.739   4.696
69491W        W41916  15.812   1.259  13.155
69492W        W41917   0.230  20.495  12.181
69493W        W41918  26.410  15.537   4.615
69494W        W41919   0.329  15.883  10.966
69495W        W41920  15.572  32.738  12.904
69496W        W41921   6.145  30.165   0.808
69497W        W41922  40.123   3.356  11.639
69498W        W41923   5.863   5.794   4.486
69499W        W41924  27.740  11.263  12.536
69500W        W41925  19.071  22.222   4.140
69501W        W41926  18.679  22.173   4.771
69502W        W41927  43.960  19.882   0.178
69503W        W41928   0.335   9.764  14.657
69504W        W41929  40.939  15.194  11.019
69505W        W41930  41.443  34.374   3.265
69506W        W41931  35.076  33.279   1.351
69507W        W41932   4.967   0.993  10.109
69508W        W41933   7.259  25.613   1.155
69509W        W41934  40.186  26.464   0.381
69510W        W41935  10.168  15.191  13.453
69511W        W41936  16.646  30.677  14.349
69512W        W41937  44.406  37.484  13.530
69513W        W41938   2.681  24.344  12.019
69514W        W41939  10.905  13.262  13.439
69515W        W41940  21.627   6.675   4.624
69516W        W41941  23.552  37.049   2.378
69517W        W41942  37.501  18.107   2.307
69518W        W41943  33.540  15.764  10.682
69519W        W41944  25.597  44.446  13.465
69520W        W41945  38.910  10.187  11.471
69521W        W41946  24.442  26.025   3.931
69522W        W41947  12.556  12.161   2.260
69523W        W41948  22.592   4.015   1.261
69524W        W41949  11.365  24.069  13.215
69525W        W41950  21.295  27.490   4.881
69526W        W41951   2.544  16.640   4.833
69527W        W41952  18.684  39.514   4.242
69528W        W41953  20.788  25.565   1.859
69529W        W41954  11.889  31.747  12.610
69530W        W41955   3.285   0.715  11.942
69531W        W41956  40.471  13.396  12.927
69532W        W41957  19.016  11.195  13.601
69533W        W41958  39.446   5.439  10.652
69534W        W41959  15.130  12.774  13.442
69535W        W41960   4.362  29.431  10.700
69536W        W41961  28.796  10.221   5.064
69537W        W41962   3.463  26.437  11.903
69538W        W41963  33.212  12.130  12.926
69539W        W41964  36.005  41.793  14.836
69540W        W41965   0.641  11.917  11.097
69541W        W41966  40.566  40.013   2.323
69542W        W41967  27.470  18.519   2.380
69543W        W41968  26.720  32.829  12.037
69544W        W41969  44.108   2.896   2.216
69545W        W41970  24.947   7.788   2.791
69546W        W41971  33.639  36.837   2.245
69547W        W41972  38.302   4.219   1.738
69548W        W41973  37.018  16.150   3.169
69549W        W41974  24.517  10.261   2.317
69550W        W41975  30.520  11.803   4.540
69551W        W41976  16.233  20.299  13.398
69552W        W41977  38.860  40.701   2.190
69553W        W41978  31.832  24.378  12.516
69554W        W41979  35.325  28.063  14.740
69555W        W41980  33.624   9.098   4.053
69556W        W41981  23.002   2.251  10.647
69557W        W41982  25.805  13.210   2.915
69558W        W41983  18.511  33.411  10.581
69559W        W41984  44.985  23.079   3.544
69560W        W41985  20.076  19.719   1.342
69561W        W41986  10.950  16.707   2.751
69562W        W41987  39.175  31.896  12.292
69563W        W41988  16.785  31.636   5.058
69564W        W41989  14.446   7.713   3.354
69565W        W41990   5.151   2.301  11.060
69566W        W41991  17.735  36.484  12.687
69567W        W41992   4.652  12.729  11.124
69568W        W41993  28.377  39.547   4.919
69569W        W41994   7.057   7.175  11.156
69570W        W41995  38.960  30.663  12.120
69571W        W41996  28.433  40.516  14.896
69572W        W41997   2.337  17.329   4.542
69573W        W41998  31.619   9.138  14.977
69574W        W41999  33.994  14.128   4.072
69575W        W42000  17.511  39.837   1.346
69576W        W42001  25.359  22.852  10.267
69577W        W42002  43.403  44.008   0.708
69578W        W42003  23.779  34.504   0.872
69579W        W42004  35.305   7.967  13.971
69580W        W42005   6.780  42.309   3.447
69581W        W42006  41.016  15.539   3.310
69582W        W42007  44.163  35.113  11.966
69583W        W42008  20.914  11.192  12.563
69584W        W42009  28.742  13.862  13.953
69585W        W42010   8.696  42.768   4.039
69586W        W42011   8.413   2.235  12.182
69587W        W42012  33.101  23.573   3.335
69588W        W42013  42.808  13.643   0.844
69589W        W42014  14.528  25.254  13.762
69590W        W42015  35.655   5.669   2.311
69591W        W42016  39.306  20.710   1.396
69592W        W42017   5.839   6.388   0.221
69593W        W42018  33.792  42.824   0.781
69594W        W42019  32.275  21.680  11.486
69595W        W42020  21.940   4.715   3.253
69596W        W42021  14.726   5.455   2.824
69597W        W42022  17.038  39.425  11.077
69598W        W42023   8.108  34.148   2.728
69599W        W42024  35.331  43.833   0.945
69600W        W42025  43.999  26.944  11.063
69601W        W42026  25.637  29.260  14.297
69602W        W42027  39.422   3.861  11.552
69603W        W42028  20.529  41.476   0.219
69604W        W42029  25.419  22.048   1.283
69605W        W42030  10.821  10.188  11.507
69606W        W42031  13.981   4.045   5.072
69607W        W42032   1.698  44.263   0.438
69608W        W42033  30.284  33.059   2.739
69609W        W42034  22.727   8.857  10.977
69610W        W42035   0.778  23.018  12.155
69611W        W42036  30.404  16.571   0.599
69612W        W42037  21.452  13.297   3.809
69613W        W42038  39.997   2.205  11.124
69614W        W42039   7.497  39.451   1.957
69615W        W42040   6.332  15.249  11.989
69616W        W42041  21.691  16.230  13.783
69617W        W42042  21.215  11.919   2.839
69618W        W42043  39.898  35.064   0.519
69619W        W42044  35.107  26.406   0.370
69620W        W42045  19.191   0.006   0.791
69621W        W42046  11.871  15.596   3.383
69622W        W42047  26.583   2.051   1.847
69623W        W42048  34.741  42.719  11.125
69624W        W42049  17.440  23.048   0.286
69625W        W42050  20.635  28.903  13.719
69626W        W42051  39.810   2.180  12.073
69627W        W42052  33.479   6.218   0.228
69628W        W42053  19.154  37.871  10.690
69629W        W42054   3.488   5.923   3.419
69630W        W42055  11.670  23.749  11.081
69631W        W42056  41.406  44.322   1.844
69632W        W42057  25.499   9.662  14.800
69633W        W42058  43.877  23.132   1.732
69634W        W42059  42.249   6.154   1.235
69635W        W42060  32.967  20.019   3.359
69636W        W42061  21.746   1.148   0.736
69637W        W42062   5.724  17.780  14.011
69638W        W42063  18.617  36.322  13.964
69639W        W42064   8.136  31.454  11.644
69640W        W42065  18.085  18.328   2.368
69641W        W42066   4.350  38.603   0.463
69642W        W42067   6.718  39.806  14.398
69643W        W42068  18.690  44.687  10.948
69644W        W42069  30.605  41.853  11.640
69645W        W42070  38.381  16.576  12.519
69646W        W42071  10.679  24.130  11.143
69647W        W42072  25.080   3.530  11.104
69648W        W42073  18.244  33.663   0.380
69649W        W42074  36.394  44.511   1.329
69650W        W42075  22.552  32.635  12.020
69651W        W42076  10.868  18.723   1.397
69652W        W42077  41.866  26.967  12.302
69653W        W42078  41.456   9.173  11.090
69654W        W42079  25.205  14.980  14.307
69655W        W42080  31.668  27.415   2.227
69656W        W42081  11.663  40.527  13.404
69657W        W42082   9.061   1.512   2.104
69658W        W42083   1.952  29.115   4.987
69659W        W42084  30.604  16.165   0.337
69660W        W42085  16.740   4.985  11.735
69661W        W42086  12.123  16.805   1.349
69662W        W42087  17.738   4.009   4.643
69663W        W42088   6.095   1.666   3.388
69664W        W42089  41.200  20.141  10.718
69665W        W42090  22.765  25.982   2.760
69666W        W42091  40.072  37.361  11.638
69667W        W42092  31.584  40.289  12.310
69668W        W42093   8.879  10.268  11.886
69669W        W42094  11.633  25.986   0.058
69670W        W42095  21.486  40.239   2.425
69671W        W42096   1.052  42.078   1.926
69672W        W42097  14.257   7.232   2.758
69673W        W42098  35.629  10.683   0.303
69674W        W42099  21.491   0.322   2.139
69675W        W42100   4.377   8.152   1.958
69676W        W42101   0.393   5.232  12.943
69677W        W42102  38.340   7.948  14.752
69678W        W42103  42.624  22.629   4.264
69679W        W42104   8.118  38.643  11.703
69680W        W42105  15.897  37.487   0.967
69681W        W42106  18.624  43.107  12.223
69682W        W42107   9.797  28.902  11.072
69683W        W42108  10.355  17.197  10.744
69684W        W42109   4.512   4.527  12.830
69685W        W42110  34.961  37.569   4.689
69686W        W42111  37.887  20.252   4.071
69687W        W42112   0.880  37.893  10.619
69688W        W42113   8.443  16.221   2.741
69689W        W42114  41.902   8.476   1.173
69690W        W42115  20.050  36.459   3.835
69691W        W42116  32.621   5.393  14.406
69692W        W42117  23.174  29.491  14.074
69693W        W42118  10.595  39.413   0.739
69694W        W42119  33.347  39.942  11.593
69695W        W42120  27.883  34.574   4.516
69696W        W42121   3.891   8.407   0.972
69697W        W42122  24.254  15.174   1.512
69698W        W42123  30.665   2.521  13.989
69699W        W42124   0.168  31.116   1.310
69700W        W42125  27.316  23.022   5.009
69701W        W42126  38.016  23.519  11.663
69702W        W42127  27.575  29.996   3.034
69703W        W42128  34.429  13.139  14.882
69704W        W42129  18.505  30.091  11.999
69705W        W42130  13.349  19.643   2.618
69706W        W42131   7.719  20.676   0.705
69707W        W42132  27.526   3.791   3.927
69708W        W42133  11.300  17.249  13.420
69709W        W42134  40.470  35.428  12.558
69710W        W42135  27.544  24.950  11.659
69711W        W42136   0.847  12.605   0.342
69712W        W42137  44.893  43.630   0.898
69713W        W42138   9.207  12.171  10.886
69714W        W42139   0.890  20.605   3.847
69715W        W42140  33.660  39.006   4.282
69716W        W42141  20.262  43.838  10.707
69717W        W42142  35.938  16.672   1.754
69718W        W42143  18.473  20.971  13.293
69719W        W42144   2.715  44.504  10.800
69720W        W42145  21.722  11.533  11.851
69721W        W42146  11.700  39.270  11.610
69722W        W42147  16.185  26.780   2.847
69723W        W42148  28.051  16.000  11.388
69724W        W42149  20.657  10.617   4.568
69725W        W42150  27.516  17.887  14.304
69726W        W42151  40.080  23.557   3.380
69727W        W42152  29.856  18.101  12.642
69728W        W42153  16.528  36.811  11.161
69729W        W42154   9.825  27.059  11.414
69730W        W42155  41.117  18.476  14.907
69731W        W42156  29.114   3.911   1.256
69732W        W42157  38.919  26.129  11.276
69733W        W42158  20.573  14.676   2.285
69734W        W42159  10.750  33.639  11.113
69735W        W42160  41.210  30.232  12.884
69736W        W42161  18.100  31.081  12.660
69737W        W42162   3.444  34.908   2.158
69738W        W42163  27.593  12.074  11.152
69739W        W42164   8.128  23.592   3.012
69740W        W42165   5.758  23.212   1.839
69741W        W42166   1.399  24.599   0.545
69742W        W42167  22.874   7.845  12.453
69743W        W42168  34.087   6.077  13.281
69744W        W42169  35.966  22.114  11.824
69745W        W42170  15.415   1.276  12.127
69746W        W42171  34.055  12.593   4.789
69747W        W42172  26.115  14.525  14.454
69748W        W42173  23.803   2.123   0.346
69749W        W42174  43.348  14.496  13.304
69750W        W42175   2.026  19.104   4.674
69751W        W42176   6.881  13.897   3.662
69752W        W42177  12.200  34.192   3.231
69753W        W42178  14.707  42.864  12.836
69754W        W42179  12.634  34.441  14.240
69755W        W42180  27.089  18.973   1.630
69756W        W42181  42.809  36.937   4.734
69757W        W42182  17.784  13.215   2.389
69758W        W42183  17.357  14.377  14.529
69759W        W42184  30.242  25.925   2.867
69760W        W42185  27.027  12.100   3.962
69761W        W42186  24.685  26.436   3.203
69762W        W42187  23.407  12.282  11.460
69763W        W42188  26.514  19.384   2.208
69764W        W42189  21.569  30.823   1.747
69765W        W42190  10.651  37.902   1.355
69766W        W42191  19.581   9.172   3.257
69767W        W42192  34.484  19.048   3.675
69768W        W42193  39.339   1.899  12.489
69769W        W42194  25.906  16.627   3.220
69770W        W42195  22.572   2.791   2.914
69771W        W42196  44.730  14.444  10.318
69772W        W42197  29.565  19.644   4.253
69773W        W42198   9.724   3.722  12.886
69774W        W42199   9.123  19.789  14.278
69775W        W42200  11.254  33.579   0.303
69776W        W42201  31.128  22.939   1.897
69777W        W42202  33.023  37.853   1.729
69778W        W42203  13.904   9.364  11.075
69779W        W42204  17.347  27.503   2.302
69780W        W42205  18.663   2.914   4.329
69781W        W42206  18.837  21.639   0.271
69782W        W42207   6.165   8.477  14.765
69783W        W42208   0.971  14.891  12.483
69784W        W42209  20.844  15.938   0.488
69785W        W42210   7.934  39.961   2.279
69786W        W42211   9.085  25.192  12.654
69787W        W42212  30.681  22.488  14.808
69788W        W42213  22.769  40.083  13.396
69789W        W42214  41.479  44.414  10.684
69790W        W42215  30.252   4.106  14.521
69791W        W42216  31.050  29.993   2.381
69792W        W42217  35.902   9.859   1.350
69793W        W42218  14.868  41.480  13.446
69794W        W42219  24.481   8.198   0.741
69795W        W42220  16.793  29.475   1.209
69796W        W42221  42.071  27.881   5.105
69797W        W42222   1.921  41.193  14.558
69798W        W42223  26.489  38.299   4.884
69799W        W42224   1.655  35.534  10.661
69800W        W42225  35.112  28.127  14.262
69801W        W42226  22.753   6.037  14.487
69802W        W42227  28.669  38.090  14.031
69803W        W42228   1.352  17.751  11.620
69804W        W42229  28.409   2.266  10.798
69805W        W42230  12.303  19.627   2.657
69806W        W42231  44.455   6.648  12.062
69807W        W42232  15.517  27.172   3.230
69808W        W42233  28.655  17.602   1.738
69809W        W42234  13.331   0.781   0.297
69810W        W42235  31.528  23.210  13.077
69811W        W42236  10.795   2.205   4.087
69812W        W42237  11.188  22.200   0.007
69813W        W42238   1.194  26.026  14.805
69814W        W42239   6.470   5.020  10.956
69815W        W42240  44.891  37.111   3.095
69816W        W42241  27.943  11.093   3.250
69817W        W42242  38.036  43.273  12.490
69818W        W42243  18.629  35.588  13.873
69819W        W42244  13.348  12.265  13.515
69820W        W42245  30.345  20.174   1.322
69821W        W42246  28.708  13.912  11.987
69822W        W42247  12.284  44.306  10.874
69823W        W42248   1.923  12.390  13.742
69824W        W42249  18.324  41.246   4.144
69825W        W42250  32.518   2.874   1.171
69826W        W42251   3.739  34.634   1.319
69827W        W42252  14.863  35.199   2.884
69828W        W42253  15.817  14.109   4.368
69829W        W42254  21.597  33.647  11.617
69830W        W42255  12.986  23.134   2.289
69831W        W42256  35.184  11.799   3.628
69832W        W42257   8.774  38.272  14.484
69833W        W42258  31.844  22.105  12.153
69834W        W42259  42.516  20.683   4.091
69835W        W42260  41.259  10.434  11.559
69836W        W42261  26.148  31.735   0.304
69837W        W42262  18.761  41.564   4.112
69838W        W42263  38.842  23.462   4.323
69839W        W42264   3.613  32.922   3.618
69840W        W42265  25.569   1.885   4.715
69841W        W42266  44.405  43.717   3.156
69842W        W42267  42.571  38.919  14.912
69843W        W42268  27.533  16.080  14.029
69844W        W42269  11.367  36.406   0.075
69845W        W42270  23.030  14.153  12.183
69846W        W42271   7.123  40.367   4.719
69847W        W42272  10.062   2.795  11.478
69848W        W42273  18.896  28.519   1.407
69849W        W42274  18.148  14.007   3.757
69850W        W42275  18.192  19.329  14.394
69851W        W42276   5.884  42.313  13.641
69852W        W42277  27.453  16.356   4.331
69853W        W42278  12.166  39.314   0.337
69854W        W42279  36.966   0.211   1.355
69855W        W42280  28.824   0.331   0.703
69856W        W42281  31.550  26.932  10.458
69857W        W42282  31.737   0.380  12.247
69858W        W42283  20.543  35.418   1.861
69859W        W42284   7.611  37.135   3.787
69860W        W42285  42.910   0.963   4.091
69861W        W42286  37.375  29.673   2.638
69862W        W42287  36.482  30.465  14.450
69863W        W42288   8.960  11.795   3.345
69864W        W42289  42.885   4.639   1.807
69865W        W42290   1.304  26.887   1.857
69866W        W42291   5.502   5.331  12.465
69867W        W42292  31.127   7.173   4.503
69868W        W42293  33.606  19.050   1.942
69869W        W42294   6.135  29.401   4.616
69870W        W42295   8.687   4.707   4.580
69871W        W42296   9.914  25.904  13.571
69872W        W42297  11.888   4.346   1.474
69873W        W42298  30.465   6.343  10.995
69874W        W42299  40.369  34.323  13.961
69875W        W42300   2.922  19.640   1.689
69876W        W42301  22.321  42.368  12.954
69877W        W42302   3.954  43.948   1.261
69878W        W42303  19.138  25.187  11.012
69879W        W42304   8.150   8.363  13.989
69880W        W42305  33.003   7.140   1.815
69881W        W42306  41.286   7.213   3.675
69882W        W42307  22.448   0.045  14.948
69883W        W42308  44.526  21.095  13.424
69884W        W42309  36.191  44.268   0.917
69885W        W42310   2.711   5.784   1.926
69886W        W42311   6.992  34.913  10.694
69887W        W42312  20.084  35.605   4.100
69888W        W42313  40.801  42.967   1.446
69889W        W42314  11.197  26.170   4.197
69890W        W42315  35.477  38.544  12.978
69891W        W42316  10.707  19.123  12.485
69892W        W42317  30.515  36.118   0.351
69893W        W42318  32.732  44.724  11.631
69894W        W42319  29.868  30.449   2.423
69895W        W42320  36.308  25.962   0.340
69896W        W42321  33.231   8.542  11.498
69897W        W42322   4.469  38.508  12.058
69898W        W42323  39.263  16.789  13.375
69899W        W42324  35.627  21.875  10.726
69900W        W42325  11.248  18.022  13.785
69901W        W42326  20.645   8.240  12.563
69902W        W42327  39.262   3.198  12.056
69903W        W42328  30.983  17.133   3.974
69904W        W42329   0.737  25.421   4.030
69905W        W42330  24.852  37.680   0.684
69906W        W42331  40.626  22.015  11.945
69907W        W42332   5.292   1.259  10.736
69908W        W42333  10.471  22.622   1.961
69909W        W42334  23.544  18.096  13.318
69910W        W42335  35.124   7.351  13.091
69911W        W42336  33.364   5.427  13.022
69912W        W42337  25.109  14.575   3.627
69913W        W42338  17.592  25.638   2.207
69914W        W42339  33.004  33.999  14.280
69915W        W42340  34.597  15.170   4.818
69916W        W42341  19.990   7.912   2.409
69917W        W42342   5.208  19.146   0.295
69918W        W42343   1.003   5.676  12.508
69919W        W42344  33.993  43.454   4.403
69920W        W42345  24.021  26.274  13.026
69921W        W42346  19.769  41.039   4.656
69922W        W42347  17.298  42.115  12.413
69923W        W42348  19.363   9.409  12.135
69924W        W42349  28.413  13.011  14.393
69925W        W42350  29.187  44.308  12.298
69926W        W42351  32.159   9.058  11.696
69927W        W42352  38.654  25.707   3.661
69928W        W42353  19.567  30.999  11.198
69929W        W42354   3.002  10.397  11.916
69930W        W42355  30.825   1.432  11.915
69931W        W42356  26.984  23.258  11.774
69932W        W42357  11.569  44.865   4.711
69933W        W42358  32.156  12.659  14.371
69934W        W42359  42.923   1.454  13.724
69935W        W42360  16.597  14.722   2.243
69936W        W42361  37.538   0.942  13.786
69937W        W42362  17.539   2.872  12.929
69938W        W42363  19.942  35.576  11.489
69939W        W42364  35.887   5.927  11.059
69940W        W42365  14.921   7.565   3.202
69941W        W42366  24.230   3.233  14.752
69942W        W42367  42.702  41.728  13.451
69943W        W42368  25.180  39.881  14.342
69944W        W42369  10.813  22.797   1.182
69945W        W42370  29.663  38.869   0.278
69946W        W42371  34.973  34.762   2.740
69947W        W42372   8.226   0.902   1.974
69948W        W42373  30.951  20.350   2.269
69949W        W42374  40.849  40.332  14.472
69950W        W42375  14.203  32.816   1.323
69951W        W42376  42.473  27.603  13.971
69952W        W42377  15.649  44.630   4.219
69953W        W42378   9.658  21.798   0.422
69954W        W42379   5.225  26.418   1.511
69955W        W42380  33.028   4.219  11.907
69956W        W42381  25.498  15.926   3.755
69957W        W42382  24.458   9.873   1.324
69958W        W42383  17.090  22.579   2.810
69959W        W42384  41.831  38.023   2.701
69960W        W42385  16.376  26.576  13.035
69961W        W42386  18.874  21.059  11.115
69962W        W42387  43.912  12.123   0.785
69963W        W42388  44.780  25.722   1.958
69964W        W42389   8.817  39.640   0.807
69965W        W42390  25.006  11.175  13.562
69966W        W42391  19.205  31.078  14.250
69967W        W42392   4.181  15.766  10.515
69968W        W42393  14.311  20.309  11.666
69969W        W42394   2.075  31.561  10.414
69970W        W42395   4.218  41.481   3.608
69971W        W42396   0.913  33.166  11.885
69972W        W42397  26.943  13.591  13.593
69973W        W42398  24.016  37.835  13.303
69974W        W42399  15.949  32.006   4.097
69975W        W42400   9.402  38.894   0.433
69976W        W42401  37.106   8.859   5.188
69977W        W42402  33.383  39.554  13.841
69978W        W42403  13.104  44.700  11.197
69979W        W42404  41.267  28.228   3.603
69980W        W42405  34.178  34.315   0.381
69981W        W42406  26.150   7.949   2.314
69982W        W42407  31.893  24.096  11.529
69983W        W42408  40.742   1.813  13.841
69984W        W42409  41.579   7.291   2.162
69985W        W42410  35.703  19.186  10.877
69986W        W42411  40.250  36.142  14.379
69987W        W42412  15.319   4.139  10.795
69988W        W42413  25.079  13.637  11.973
69989W        W42414  22.007   0.405  10.525
69990W        W42415  25.936  42.513  12.367
69991W        W42416  42.335  14.239   2.651
69992W        W42417  32.970  43.475   1.650
69993W        W42418  22.767   3.491   1.846
69994W        W42419   3.926  11.598   5.158
69995W        W42420  13.201  19.454   0.363
69996W        W42421  22.357  21.561   0.962
69997W        W42422  27.327  21.517   0.698
69998W        W42423  37.599   4.580   0.792
69999W        W42424  25.035  10.727   3.737
70000W        W42425  37.732   7.342   4.202
70001W        W42426   7.528  19.787   3.394
70002W        W42427  18.568  21.754   0.774
70003W        W42428  39.498  29.955  13.507
70004W        W42429  15.677  19.515   0.335
70005W        W42430  23.833  16.732  11.530
70006W        W42431  40.562   5.748  14.031
70007W        W42432   7.655  43.884   1.919
70008W        W42433  14.033  39.348  11.916
70009W        W42434   4.106  43.510  13.390
70010W        W42435   9.787  17.205  12.778
70011W        W42436  15.688   2.313   1.847
70012W        W42437  10.598  20.598   3.617
70013W        W42438  29.204  16.027   3.537
70014W        W42439  34.843   2.980  12.593
70015W        W42440   8.906  19.760   4.124
70016W        W42441  33.611  36.093   0.117
70017W        W42442  29.526  33.264   1.441
70018W        W42443  26.593   9.180   3.057
70019W        W42444  26.032  21.198   3.884
70020W        W42445  24.035  39.923   1.410
70021W        W42446   5.835  33.358  12.578
70022W        W42447   8.921   4.639   0.755
70023W        W42448   1.624  36.884   2.779
70024W        W42449  39.321   4.405  12.503
70025W        W42450  30.546  40.969  12.114
70026W        W42451  11.234  14.236   0.898
70027W        W42452  41.735  42.357   4.564
70028W        W42453  40.755  14.321   3.895
70029W        W42454  17.873  37.953   0.036
70030W        W42455  40.298   4.333   0.352
70031W        W42456  18.539  25.905  12.486
70032W        W42457  39.523   2.815   3.769
70033W        W42458   6.265  26.953  11.068
70034W        W42459  18.190  14.613  12.890
70035W        W42460  19.887  32.765   4.996
70036W        W42461   8.231  29.868   0.389
70037W        W42462  21.487  22.590  14.395
70038W        W42463  22.754  28.859   1.717
70039W        W42464  13.614  30.897   4.661
70040W        W42465  11.472  30.877  10.956
70041W        W42466  10.840   2.267  10.313
70042W        W42467   9.157  39.607   5.313
70043W        W42468   4.475   8.811   4.161
70044W        W42469  10.606  11.360  14.860
70045W        W42470  27.120  13.874  12.967
70046W        W42471   6.234  23.636  11.315
70047W        W42472  26.931  31.030  13.015
70048W        W42473  43.509  41.213   3.600
70049W        W42474  34.865  24.484   2.787
70050W        W42475  16.328  41.090   1.991
70051W        W42476  41.824  29.044  14.495
70052W        W42477  28.137  33.939  13.853
70053W        W42478  24.162   3.336  11.176
70054W        W42479  12.930   9.617   1.390
70055W        W42480  14.217  34.341   0.345
70056W        W42481   8.813  20.531  11.643
70057W        W42482  30.668  21.028  12.074
70058W        W42483   8.975  40.974   1.126
70059W        W42484   5.798  17.745   4.594
70060W        W42485  10.004  17.764   4.264
70061W        W42486  26.360  21.124  13.849
70062W        W42487  32.561  43.344   0.794
70063W        W42488  31.442   3.865   0.313
70064W        W42489  25.416  10.240  13.463
70065W        W42490   7.161  27.228   3.643
70066W        W42491  27.143  41.906  12.877
70067W        W42492  24.961  11.596  13.864
70068W        W42493   2.231  28.757   1.898
70069W        W42494  33.407  27.685  12.978
70070W        W42495  15.292  15.729  12.019
70071W        W42496  26.253  39.529  14.310
70072W        W42497  43.440  31.637  13.115
70073W        W42498   1.829   3.917  12.356
70074W        W42499   4.399  35.500  11.024
70075W        W42500  30.062  28.093  10.739
70076W        W42501  17.594  22.912   2.372
70077W        W42502  25.067  16.294  14.871
70078W        W42503  41.042  15.223   2.320
70079W        W42504  17.623  10.321  10.748
70080W        W42505  25.722  16.544   2.731
70081W        W42506  33.354  31.382  11.937
70082W        W42507  16.516  34.041   4.589
70083W        W42508   1.832   5.524  14.913
70084W        W42509  26.533  14.142  14.915
70085W        W42510  23.211  28.151  12.533
70086W        W42511  26.164  35.557  13.612
70087W        W42512  13.591  20.681   0.418
70088W        W42513  35.364   2.433  14.482
70089W        W42514  22.150   9.730   3.795
70090W        W42515  22.341  17.555   3.338
70091W        W42516  36.424   0.907  11.068
70092W        W42517   1.442  13.074  13.875
70093W        W42518  29.596  25.906   3.215
70094W        W42519  16.498  41.333  14.009
70095W        W42520  24.547  21.275  12.406
70096W        W42521  10.315  17.551   2.497
70097W        W42522  10.614  10.745   2.281
70098W        W42523  10.126  14.221  14.063
70099W        W42524   5.715  20.076  10.647
70100W        W42525  43.719  17.277  10.440
70101W        W42526  32.672  40.981   3.821
70102W        W42527  17.100  27.720   3.479
70103W        W42528   8.914  21.687  14.829
70104W        W42529  43.596  42.480   4.161
70105W        W42530   4.729  34.577  12.940
70106W        W42531  23.841  42.454   0.556
70107W        W42532  21.779   7.302   5.291
70108W        W42533   0.721  31.563  10.119
70109W        W42534   3.350  42.239  11.034
70110W        W42535  44.779  10.840   2.730
70111W        W42536   7.912  28.685   4.562
70112W        W42537  30.927   1.267  13.442
70113W        W42538  19.590  11.741  12.464
70114W        W42539  23.560  15.088  11.133
70115W        W42540  23.127   8.809   0.783
70116W        W42541  29.372  14.544   0.969
70117W        W42542  40.502   2.873  10.684
70118W        W42543  31.999  44.894   0.425
70119W        W42544  23.969   0.333  13.048
70120W        W42545  14.984  13.391  12.108
70121W        W42546  21.315  22.790   0.344
70122W        W42547  12.303  25.742   5.454
70123W        W42548  37.966  25.220   2.294
70124W        W42549  38.014  37.819  13.822
70125W        W42550  16.969  25.159  13.549
70126W        W42551   7.398  42.406   4.641
70127W        W42552  24.062  38.925  14.954
70128W        W42553  28.521  11.201  13.601
70129W        W42554  26.775  40.351   4.106
70130W        W42555  27.747  29.413   3.253
70131W        W42556  11.278   2.942   0.791
70132W        W42557   3.295  33.516  13.454
70133W        W42558  17.585  42.803   2.180
70134W        W42559  13.644  37.802   3.660
70135W        W42560   0.381  20.118  14.068
70136W        W42561   8.206  40.387  12.674
70137W        W42562  44.971  10.613   3.155
70138W        W42563  15.435   8.290  11.417
70139W        W42564  32.574  18.658  13.058
70140W        W42565  34.619  42.408   0.868
70141W        W42566  31.100  19.124  13.864
70142W        W42567  44.872   1.368   1.806
70143W        W42568  33.409  30.162   3.659
70144W        W42569  21.776  26.539  13.582
70145W        W42570  11.915  44.042   4.161
70146W        W42571  12.734   7.794   2.495
70147W        W42572  28.549   7.369  14.422
70148W        W42573  28.345  36.158   3.311
70149W        W42574  11.170   4.892   0.366
70150W        W42575  32.182   7.144   5.159
70151W        W42576   6.549  23.664   0.667
70152W        W42577   4.731  15.559  14.946
70153W        W42578   3.338  32.902   2.359
70154W        W42579  36.942  44.914   0.909
70155W        W42580  29.678  42.361  10.082
70156W        W42581   9.972  31.188  11.486
70157W        W42582  33.666  17.047   3.619
70158W        W42583  19.584  35.520   0.403
70159W        W42584   2.178  37.749   0.357
70160W        W42585  25.676  32.749  11.126
70161W        W42586  40.014  41.256  12.110
70162W        W42587  12.179   7.680   3.171
70163W        W42588   2.197   2.970   4.581
70164W        W42589   8.471  30.021  12.461
70165W        W42590  11.868  19.924   1.966
70166W        W42591  28.168   8.121  12.564
70167W        W42592  13.687  38.043  10.680
70168W        W42593  27.906   4.832  11.661
70169W        W42594  19.728  31.688   4.708
70170W        W42595   6.964  43.246   3.202
70171W        W42596  42.546  25.257   3.027
70172W        W42597  24.220   2.826  11.111
70173W        W42598  40.123  44.730   0.961
70174W        W42599  18.160   9.176   2.174
70175W        W42600  11.657  41.203   3.312
70176W        W42601  20.367  38.528  11.909
70177W        W42602   1.304  44.995  13.453
70178W        W42603  30.660  18.859  13.909
70179W        W42604  26.647   5.247  13.873
70180W        W42605  19.673  36.239  11.221
70181W        W42606  12.735  38.271   2.705
70182W        W42607  10.708  22.469   2.798
70183W        W42608  27.606  22.304  14.339
70184W        W42609  19.362  41.836   2.224
70185W        W42610   3.470  38.339   4.317
70186W        W42611  35.164   1.285   0.340
70187W        W42612   5.370   8.407   0.883
70188W        W42613  11.827  34.879   0.453
70189W        W42614  20.240  35.987  11.511
70190W        W42615  42.020  33.920   0.703
70191W        W42616  19.598  19.564   1.729
70192W        W42617   9.306  20.320  11.571
70193W        W42618  22.979  22.231   1.971
70194W        W42619   7.649  21.735  14.289
70195W        W42620  27.133  16.022   4.591
70196W        W42621  11.837  21.039  10.684
70197W        W42622  16.640   7.182  10.751
70198W        W42623  35.548  22.543   1.025
70199W        W42624   0.393  26.395   2.664
70200W        W42625  36.849   3.468   4.463
70201W        W42626  35.836  41.072   2.244
70202W        W42627  21.710   2.320  13.859
70203W        W42628  20.579  37.333   0.721
70204W        W42629  28.598   3.414  14.721
70205W        W42630  22.807  21.303   0.779
70206W        W42631   0.501  43.056  11.913
70207W        W42632  34.611  40.936   4.101
70208W        W42633  36.408  18.771  13.487
70209W        W42634  18.298  24.983  14.523
70210W        W42635  38.563  23.090  13.007
70211W        W42636   6.200   7.059   4.497
70212W        W42637  28.142  23.949  13.888
70213W        W42638  16.899  32.993  14.035
70214W        W42639   8.933  44.483   0.698
70215W        W42640   2.764  15.996  14.856
70216W        W42641  26.316  44.899   1.740
70217W        W42642  24.253  42.865  10.725
70218W        W42643  21.049  21.061   1.668
70219W        W42644  39.344  25.951  13.466
70220W        W42645  21.688  22.068  14.370
70221W        W42646  29.397  20.662  12.917
70222W        W42647  24.366   8.149   3.724
70223W        W42648  16.232  38.786   4.578
70224W        W42649  39.327  42.772   1.287
70225W        W42650  34.367  12.600  13.091
70226W        W42651  39.326  30.453   1.985
70227W        W42652  27.627  20.016  12.550
70228W        W42653  40.337  31.182  13.857
70229W        W42654  28.368  37.721  14.860
70230W        W42655   4.325  38.610   2.214
70231W        W42656   6.692  41.048  12.601
70232W        W42657   3.137  42.299  14.285
70233W        W42658  37.655   6.333   1.642
70234W        W42659  16.489   3.222  13.530
70235W        W42660   9.277  19.301   1.802
70236W        W42661  42.110   1.234   2.163
70237W        W42662  43.322  33.803   4.046
70238W        W42663  10.860   6.907  12.188
70239W        W42664  35.549  11.854  12.366
70240W        W42665  15.163  18.532   1.255
70241W        W42666  27.671  18.588  11.174
70242W        W42667  43.337  17.911  13.992
70243W        W42668   3.169  11.211   0.481
70244W        W42669  24.294  32.271   1.409
70245W        W42670  28.512   9.234  11.229
70246W        W42671  44.804  13.733  12.940
70247W        W42672  31.508   5.734   4.034
70248W        W42673  16.606  15.585   3.608
70249W        W42674  19.574   7.313   2.775
70250W        W42675  36.751  25.996   3.600
70251W        W42676  34.170  21.151   2.288
70252W        W42677  36.979  38.280  13.020
70253W        W42678  20.678  33.830   2.775
70254W        W42679   7.152  16.623  12.061
70255W        W42680   8.147  32.552   0.229
70256W        W42681  29.377  14.911  13.047
70257W        W42682  40.131  33.579  13.621
70258W        W42683  27.161  40.940  10.925
70259W        W42684  24.396  23.997  11.199
70260W        W42685  32.472  40.325  12.094
70261W        W42686  22.002  39.843   0.028
70262W        W42687  41.845   9.642   4.215
70263W        W42688  30.851  11.864  14.045
70264W        W42689  30.341  22.576   2.191
70265W        W42690   7.216  38.548   2.446
70266W        W42691  28.222  39.264   0.922
70267W        W42692  40.191  21.956   2.297
70268W        W42693  23.151   0.197  13.580
70269W        W42694   7.493  37.265  14.854
70270W        W42695   2.015  18.753   2.238
70271W        W42696   5.318  42.278   0.091
70272W        W42697  12.714   9.555  10.461
70273W        W42698  43.502  30.624   0.710
70274W        W42699   2.758  35.909   0.270
70275W        W42700  35.943  12.918   3.282
70276W        W42701  18.644  19.080  14.427
70277W        W42702  22.484   6.353   4.155
70278W        W42703  15.042  29.012  12.065
70279W        W42704   8.374  34.535  12.467
70280W        W42705  28.774  15.472  11.927
70281W        W42706  34.857  25.148   3.743
70282W        W42707   3.867   4.502   3.736
70283W        W42708  38.804  30.612  10.811
70284W        W42709  43.821  12.882   4.844
70285W        W42710  31.662  10.823  12.945
70286W        W42711   9.214  44.930   0.382
70287W        W42712  44.779  21.079   0.464
70288W        W42713  18.377  35.159   2.693
70289W        W42714  29.571   8.517   2.718
70290W        W42715  12.293   5.182   0.971
70291W        W42716  35.747  36.319  13.367
70292W        W42717  41.726   1.290  11.130
70293W        W42718  27.779  40.250  13.336
70294W        W42719  21.063  44.019   3.060
70295W        W42720  39.041  12.386  12.442
70296W        W42721  38.143  34.335   3.659
70297W        W42722  12.571  24.064  11.111
70298W        W42723   4.845  25.484   3.144
70299W        W42724  17.576   6.297  10.244
70300W        W42725   4.931  35.570   1.716
70301W        W42726  37.450  34.507  13.093
70302W        W42727  31.188   0.852   2.413
70303W        W42728  12.607  42.761  13.550
70304W        W42729  11.906  33.356  12.005
70305W        W42730  42.922  10.658  14.357
70306W        W42731   7.409   6.800   1.176
70307W        W42732  33.629  30.797   0.381
70308W        W42733  27.587  19.276  14.494
70309W        W42734   4.675  22.445  12.740
70310W        W42735  44.444  11.570   1.493
70311W        W42736   7.935  36.966  11.114
70312W        W42737  10.818   0.865   0.882
70313W        W42738  36.440   8.688   5.655
70314W        W42739   6.872   4.758  11.986
70315W        W42740   9.027  44.239   5.113
70316W        W42741  44.877  22.895  13.289
70317W        W42742   9.637  43.981  11.816
70318W        W42743  21.613   0.214  12.665
70319W        W42744   8.142   3.119   5.015
70320W        W42745  27.612  38.521  14.029
70321W        W42746  12.296  44.443  11.344
70322W        W42747  22.783  12.674   3.396
70323W        W42748  13.621  39.443   0.391
70324W        W42749  24.632  39.664   2.300
70325W        W42750   7.691   6.809   4.369
70326W        W42751  24.178  36.159   3.457
70327W        W42752  44.724   9.390  12.093
70328W        W42753  41.098  36.238   3.287
70329W        W42754   7.819  20.238   0.967
70330W        W42755  34.995  28.947  13.922
70331W        W42756  15.504   8.927   2.888
70332W        W42757  12.605  27.070  14.914
70333W        W42758  30.271  22.246   5.056
70334W        W42759  11.687   1.765  11.240
70335W        W42760  43.794  37.489   0.070
70336W        W42761  14.286   4.272   1.126
70337W        W42762  42.925   1.783   2.442
70338W        W42763  19.408   7.597   3.206
70339W        W42764   2.464  19.251  14.367
70340W        W42765  40.995   8.196   3.981
70341W        W42766  16.141  23.614   0.370
70342W        W42767  14.534  17.665  12.651
70343W        W42768  21.070  24.171  13.520
70344W        W42769  24.216  21.641   1.873
70345W        W42770  31.945  32.187   0.741
70346W        W42771  24.512  12.740  12.364
70347W        W42772  26.506  11.734  11.891
70348W        W42773  17.156   2.859  11.633
70349W        W42774  27.148  15.357   1.323
70350W        W42775  36.602  19.102  11.033
70351W        W42776   6.157  27.688  11.640
70352W        W42777  15.251  43.640  14.801
70353W        W42778  16.895  10.220  11.794
70354W        W42779  12.563  20.702   4.680
70355W        W42780  27.030   9.616   0.902
70356W        W42781  23.442  23.131   3.406
70357W        W42782   7.001  16.941  13.121
70358W        W42783  22.041  44.978   1.618
70359W        W42784  21.515  35.428  10.510
70360W        W42785  44.314  33.528   2.729
70361W        W42786  32.295  35.232  14.066
70362W        W42787  26.019  24.273  14.319
70363W        W42788  10.484  40.984   1.428
70364W        W42789  16.669  26.563   2.851
70365W        W42790  28.493  40.306  11.595
70366W        W42791  18.189   6.512  14.046
70367W        W42792  17.584  43.825   4.075
70368W        W42793  13.663  12.345  10.744
70369W        W42794  12.375  17.882  13.323
70370W        W42795  34.259   3.913  14.249
70371W        W42796  40.577  26.141   1.664
70372W        W42797  31.606  29.539  13.990
70373W        W42798  25.113  13.937  10.683
70374W        W42799  36.789   2.837   2.811
70375W        W42800  20.242  43.268   1.826
70376W        W42801   1.228   7.433   1.349
70377W        W42802  27.447   1.015  13.751
70378W        W42803  20.610  14.108   2.996
70379W        W42804  35.710  17.402   0.727
70380W        W42805  29.410  27.776   0.522
70381W        W42806  39.462  39.342   3.887
70382W        W42807  17.025  28.884  14.070
70383W        W42808   5.406  17.547   1.229
70384W        W42809  23.626  42.535   2.815
70385W        W42810  27.658  37.178  11.641
70386W        W42811  15.710  20.795  10.561
70387W        W42812  16.698  41.397  14.948
70388W        W42813  33.122  10.919   2.133
70389W        W42814  15.237  38.842   4.797
70390W        W42815  21.231  30.249   3.733
70391W        W42816  44.828  17.021   4.445
70392W        W42817  34.336  27.036   2.865
70393W        W42818  14.912  11.698   1.650
70394W        W42819  39.697  35.090   4.012
70395W        W42820  44.953  26.165  13.491
70396W        W42821  18.676  21.493  10.940
70397W        W42822  30.093  11.447   4.608
70398W        W42823  16.570   4.337  10.963
70399W        W42824   8.339  30.317  11.769
70400W        W42825  28.672  15.561  13.425
70401W        W42826   0.158  39.665  11.297
70402W        W42827  21.170  10.467  10.719
70403W        W42828   8.444  42.038  10.651
70404W        W42829  15.905  41.278   4.507
70405W        W42830   2.782  21.163  11.989
70406W        W42831  41.997  37.553  12.524
70407W        W42832  23.528  16.172   2.228
70408W        W42833  35.670  32.022  14.994
70409W        W42834  31.388  17.645  11.162
70410W        W42835  44.260  27.923   4.576
70411W        W42836  32.994   8.204   3.562
70412W        W42837  37.129  39.355  10.796
70413W        W42838  22.242   8.719  13.950
70414W        W42839   6.233  17.640   0.657
70415W        W42840   8.232   7.699   2.726
70416W        W42841   6.875  19.129   3.733
70417W        W42842   8.647  29.443  13.850
70418W        W42843  36.408   2.272   3.090
70419W        W42844   2.959  24.446  12.477
70420W        W42845  28.042  12.306  12.046
70421W        W42846  19.190  30.534  12.382
70422W        W42847  35.158  20.664   3.824
70423W        W42848   5.222  29.913  10.360
70424W        W42849  13.652  36.502  11.358
70425W        W42850  37.762   0.596  14.218
70426W        W42851  27.725  30.419   4.206
70427W        W42852   7.847  17.037   4.232
70428W        W42853  37.284   3.826   5.233
70429W        W42854  40.264  35.397   2.434
70430W        W42855  12.814   1.389   1.796
70431W        W42856  19.331  22.559  11.706
70432W        W42857  11.553  30.137  11.185
70433W        W42858   6.267  32.366  11.269
70434W        W42859  18.446   0.958   0.855
70435W        W42860  38.112  43.534  11.574
70436W        W42861   9.159  43.970  12.002
70437W        W42862  29.216  39.808  12.549
70438W        W42863  14.899  42.043   1.385
70439W        W42864   6.437  26.265   1.947
70440W        W42865  16.753  16.101  12.603
70441W        W42866   7.206   8.652  11.062
70442W        W42867  26.763   4.686   3.690
70443W        W42868   2.382   6.631   4.251
70444W        W42869  43.567  10.825   4.811
70445W        W42870   8.963  34.516  14.401
70446W        W42871   3.716   0.933  13.100
70447W        W42872  16.146  40.925  13.964
70448W        W42873  32.412  14.089   1.396
70449W        W42874  17.401  28.950   3.716
70450W        W42875  24.991  44.748  11.844
70451W        W42876   3.308  17.661  14.493
70452W        W42877  34.422  41.562  14.361
70453W        W42878  24.952  21.767   4.137
70454W        W42879  21.838  20.617  13.857
70455W        W42880   9.125  17.450   4.540
70456W        W42881   5.344  12.481   0.102
70457W        W42882  22.351  21.037   0.824
70458W        W42883   7.625  35.538   1.436
70459W        W42884  22.504   3.394  13.886
70460W        W42885  16.975  35.598   1.858
70461W        W42886  30.029  29.950  13.432
70462W        W42887   6.948  27.145   1.838
70463W        W42888   1.088  13.198   4.110
70464W        W42889  18.293  41.503  14.336
70465W        W42890  28.889  44.967  10.721
70466W        W42891  44.477   4.877   2.992
70467W        W42892  15.159  13.841  12.280
70468W        W42893  20.994  24.995   3.578
70469W        W42894  35.725  33.270  14.641
70470W        W42895   7.487  17.875   0.401
70471W        W42896  40.982  30.410   3.633
70472W        W42897  35.034  23.237  13.305
70473W        W42898  43.291  19.132  14.959
70474W        W42899   3.552  16.377   2.160
70475W        W42900   7.778  35.889  11.559
70476W        W42901   9.606  33.589   1.805
70477W        W42902  43.112  16.619   2.396
70478W        W42903  39.397  11.229  10.691
70479W        W42904  24.579  43.593  13.581
70480W        W42905  28.166  29.049  10.643
70481W        W42906   7.734  17.692  11.182
70482W        W42907  15.607  37.312   3.765
70483W        W42908  15.931  30.046   3.124
70484W        W42909   3.863  21.001  12.885
70485W        W42910  43.812   5.377   3.894
70486W        W42911  36.663  32.539   3.784
70487W        W42912  27.773  40.862   4.128
70488W        W42913   7.483  35.691  12.432
70489W        W42914  24.948  44.560   1.414
70490W        W42915  30.574  21.289   2.184
70491W        W42916  15.615  37.038   2.155
70492W        W42917  18.990  25.637   2.368
70493W        W42918  35.826   8.186   1.228
70494W        W42919   9.169  21.284   5.089
70495W        W42920   9.996  22.240  13.661
70496W        W42921  28.568  28.171   0.455
70497W        W42922  21.475  23.675  12.667
70498W        W42923  44.849   7.462   3.863
70499W        W42924  14.094  34.143  14.657
70500W        W42925  36.620  23.215  14.514
70501W        W42926  29.522   4.510  12.520
70502W        W42927  44.651   6.340   0.317
70503W        W42928  26.428  26.610  12.799
70504W        W42929  25.623  16.770   1.278
70505W        W42930   5.702  33.830  13.508
70506W        W42931   1.194  36.420  12.993
70507W        W42932  14.755   2.233  14.000
70508W        W42933  30.808  35.131   3.724
70509W        W42934  24.233   5.220   0.907
70510W        W42935  39.609  15.571   0.997
70511W        W42936  30.195  41.815  11.347
70512W        W42937  36.489  23.887  10.706
70513W        W42938  36.516  38.053  12.354
70514W        W42939  42.382  40.179   4.919
70515W        W42940   6.340   0.152  10.248
70516W        W42941   3.008  29.041   1.044
70517W        W42942  24.028  33.097   3.643
70518W        W42943  14.179  32.559  12.006
70519W        W42944  11.231  22.320  14.084
70520W        W42945  42.251  26.563   3.308
70521W        W42946   5.739  23.767   1.648
70522W        W42947   8.177   2.277  13.997
70523W        W42948  37.926  28.292  12.114
70524W        W42949   7.678  36.624   3.840
70525W        W42950  11.225   1.673  14.390
70526W        W42951  13.265   9.877   4.711
70527W        W42952   8.463  39.121  11.022
70528W        W42953  29.396  39.733   1.591
70529W        W42954  18.231  26.206  11.228
70530W        W42955  13.327  19.193  13.144
70531W        W42956  18.682  27.900  13.946
70532W        W42957  29.881   0.451  14.912
70533W        W42958  18.996  14.612  13.123
70534W        W42959  24.718  12.833   3.033
70535W        W42960  12.233  33.656  14.814
70536W        W42961  17.066  31.627   3.699
70537W        W42962  35.135  19.704   3.794
70538W        W42963   3.384  24.441   0.890
70539W        W42964   5.952  37.981   0.793
70540W        W42965   6.632  15.612   2.420
70541W        W42966  37.843   0.732   1.571
70542W        W42967  26.144  44.377   3.660
70543W        W42968  42.356  27.362  10.576
70544W        W42969  13.586  39.999  12.528
70545W        W42970  34.970  38.428  10.571
70546W        W42971  32.861  33.933   1.441
70547W        W42972  14.323  42.501  11.647
70548W        W42973   1.758  43.700   2.174
70549W        W42974  29.908  35.031   3.218
70550W        W42975   9.349   1.954   4.658
70551W        W42976  24.651   7.962   0.287
70552W        W42977  29.189  40.794   3.036
70553W        W42978  38.987  40.205   4.033
70554W        W42979   1.920  10.692  14.726
70555W        W42980   7.094  43.541  12.085
70556W        W42981  37.778  41.103   0.723
70557W        W42982  38.841  12.889  13.445
70558W        W42983   3.474  27.511  10.694
70559W        W42984   6.279  10.169  13.358
70560W        W42985  16.827   8.833   3.249
70561W        W42986  16.022  38.583   1.768
70562W        W42987  35.608  35.399  10.654
70563W        W42988  28.529  21.823   1.851
70564W        W42989   5.484   3.075   3.128
70565W        W42990   2.765  28.531   3.620
70566W        W42991  36.916  31.772   4.151
70567W        W42992  18.473  17.179  11.389
70568W        W42993  31.974  38.526   3.363
70569W        W42994  41.719  20.142   3.318
70570W        W42995  35.074  12.154   4.168
70571W        W42996  34.672  31.204   0.371
70572W        W42997  41.844  12.045   1.263
70573W        W42998  32.530  44.849  11.182
70574W        W42999   0.052   7.841  13.381
70575W        W43000  35.716  15.004  14.823
70576W        W43001  35.383  25.234  14.399
70577W        W43002  14.012  24.733   4.611
70578W        W43003  31.502  22.840  10.882
70579W        W43004  35.501  16.282   3.214
70580W        W43005  18.022  39.777   2.237
70581W        W43006   7.822  14.674  13.796
70582W        W43007  22.712  33.320   4.800
70583W        W43008  38.090  12.587  12.456
70584W        W43009  26.021  26.759  10.857
70585W        W43010  39.506  15.254  11.623
70586W        W43011  37.749   4.306   2.396
70587W        W43012  24.536  29.961  12.884
70588W        W43013   9.930  15.691  13.401
70589W        W43014  20.853  31.657  13.950
70590W        W43015   5.142  43.424   4.600
70591W        W43016  29.099  19.195   0.312
70592W        W43017  17.254   7.160  12.864
70593W        W43018  37.840  39.267  12.453
70594W        W43019   5.937  30.842   4.023
70595W        W43020   3.184   8.456  14.897
70596W        W43021  14.691  30.394  12.016
70597W        W43022  16.819  14.780  11.373
70598W        W43023  23.702   9.944   0.329
70599W        W43024  28.066  20.501   1.841
70600W        W43025  27.628  44.015   1.999
70601W        W43026   5.100  25.160  13.078
70602W        W43027  26.513   9.408   1.272
70603W        W43028  18.038  41.975   3.561
70604W        W43029  36.910  39.156  13.810
70605W        W43030   8.001  33.183  13.794
70606W        W43031  39.513  41.861  10.747
70607W        W43032  33.515  42.748   1.265
70608W        W43033  42.429  40.216  13.890
70609W        W43034  23.878  41.431   1.084
70610W        W43035  34.193  15.609  13.481
70611W        W43036  31.201  25.273  10.773
70612W        W43037  35.041  11.244   3.690
70613W        W43038   6.685  32.890   1.737
70614W        W43039  40.410  41.042  12.495
70615W        W43040  40.440   6.955   1.218
70616W        W43041  12.892  41.328   3.330
70617W        W43042  31.109  41.018   0.795
70618W        W43043   7.117  17.232  13.546
70619W        W43044   6.508  43.483   0.802
70620W        W43045  22.514  32.233   2.207
70621W        W43046  12.915   1.483   2.884
70622W        W43047  23.575  10.939   0.396
70623W        W43048  30.384  16.779   3.678
70624W        W43049  37.423  21.090   4.190
70625W        W43050   9.309  35.607  13.008
70626W        W43051  31.588  11.168  12.572
70627W        W43052  22.177  10.183  12.985
70628W        W43053  11.428  37.956   2.852
70629W        W43054  10.322  27.447  13.336
70630W        W43055   9.907  14.203  13.592
70631W        W43056  24.728   4.834  11.421
70632W        W43057   2.168  39.899  10.703
70633W        W43058  20.167  16.115  11.795
70634W        W43059   9.336  12.159   3.279
70635W        W43060  27.021   6.757  12.092
70636W        W43061  30.632  22.953  13.849
70637W        W43062  31.792  40.468   4.621
70638W        W43063  26.278  15.557  14.467
70639W        W43064  40.837  28.985   0.355
70640W        W43065  27.891  11.403  13.015
70641W        W43066  44.441   1.042   9.744
70642W        W43067  29.570  34.019   1.300
70643W        W43068  44.211  40.944  11.964
70644W        W43069   7.528  18.901  12.794
70645W        W43070   1.834   6.276  10.683
70646W        W43071  28.193  15.257  14.141
70647W        W43072  39.287   0.703  10.494
70648W        W43073  30.814   2.418   1.693
70649W        W43074  32.065  16.644   4.586
70650W        W43075  19.779  11.716   4.801
70651W        W43076  10.351  22.003   3.636
70652W        W43077  44.864   0.358   2.743
70653W        W43078  37.942  38.413   4.308
70654W        W43079  36.056   5.240  14.338
70655W        W43080  39.519  21.156   1.661
70656W        W43081  39.997   4.339  13.038
70657W        W43082  24.431  33.947   0.715
70658W        W43083   6.413  44.761   4.150
70659W        W43084   2.619  13.699  14.355
70660W        W43085  27.209  29.835  11.779
70661W        W43086  35.192   2.875  13.591
70662W        W43087  36.281   8.806   3.448
70663W        W43088  36.752  15.715  12.655
70664W        W43089  33.203  32.896  14.259
70665W        W43090  21.049  38.965   2.286
70666W        W43091  10.304  29.178   3.673
70667W        W43092  38.912  29.018  10.537
70668W        W43093  36.067  24.767   2.194
70669W        W43094  11.402  40.845  10.479
70670W        W43095   3.707  24.554   0.482
70671W        W43096  30.376  16.009  13.864
70672W        W43097  44.799  10.131  13.958
70673W        W43098  20.694  36.489  13.747
70674W        W43099   5.778   9.255   2.097
70675W        W43100  44.127  26.554  10.248
70676W        W43101  16.607   2.462   1.852
70677W        W43102   1.660  36.326  12.090
70678W        W43103  12.214   3.933  12.702
70679W        W43104  18.363   7.300   2.174
70680W        W43105   9.929   3.884   4.634
70681W        W43106  14.124  25.027  12.604
70682W        W43107  11.292  11.088  12.477
70683W        W43108  31.542   2.407  14.013
70684W        W43109   9.453   4.780   0.260
70685W        W43110  24.622  27.161   0.297
70686W        W43111   7.794  16.149   1.343
70687W        W43112   6.928  10.381   2.871
70688W        W43113  26.402   7.261  11.075
70689W        W43114  14.741  15.314  13.341
70690W        W43115  22.242  35.807   1.993
70691W        W43116   8.968   4.046   0.451
70692W        W43117   4.504   5.931  12.122
70693W        W43118  24.769  27.617   0.483
70694W        W43119  14.910  23.013   1.802
70695W        W43120  19.363  11.393  11.138
70696W        W43121  43.899   3.886  14.398
70697W        W43122   4.140   9.595   1.740
70698W        W43123   9.554   6.794  14.795
70699W        W43124  36.192  30.215   0.942
70700W        W43125  26.197   2.704  10.732
70701W        W43126  25.213  18.567   1.948
70702W        W43127  33.826  32.641   0.976
70703W        W43128  18.634   6.074   0.879
70704W        W43129  31.975  38.863   0.547
70705W        W43130  44.359   3.765  13.619
70706W        W43131  22.282  31.683  11.594
70707W        W43132  27.654  10.757  13.846
70708W        W43133  36.422  13.426   4.725
70709W        W43134  28.235  17.066  10.654
70710W        W43135  23.789  30.020   0.202
70711W        W43136  23.972  26.759  10.665
70712W        W43137   1.424  34.188   3.840
70713W        W43138  40.481  41.868   1.369
70714W        W43139  14.699  30.433   4.135
70715W        W43140  26.288  25.404   0.885
70716W        W43141  15.805  10.366   1.777
70717W        W43142  39.468  35.014   0.197
70718W        W43143  35.270  27.476  13.917
70719W        W43144  39.800  42.764   4.897
70720W        W43145  26.240  26.159   2.852
70721W        W43146  30.440  38.073  10.589
70722W        W43147  21.775  41.703   2.355
70723W        W43148  28.851  35.342  10.705
70724W        W43149  44.940   9.711  10.604
70725W        W43150  40.417  29.482   3.239
70726W        W43151  20.078  36.942   1.165
70727W        W43152  42.231  30.934   3.530
70728W        W43153  14.899   2.347   0.342
70729W        W43154  42.160   9.114  12.744
70730W        W43155  12.822  19.559   1.236
70731W        W43156   7.489  19.175   0.428
70732W        W43157   6.681  11.492  10.746
70733W        W43158  24.479  13.902  13.851
70734W        W43159  13.188  23.744   0.441
70735W        W43160  44.290  32.985   3.205
70736W        W43161  39.793  42.812   0.712
70737W        W43162  16.119  23.875  13.788
70738W        W43163  18.786  18.554  11.632
70739W        W43164  12.181  28.173   3.136
70740W        W43165  11.804  32.135  11.738
70741W        W43166  16.796   6.886  12.800
70742W        W43167  14.657  24.562   2.378
70743W        W43168   4.228  27.548   1.172
70744W        W43169  33.392  23.571  12.856
70745W        W43170  10.875  40.807  11.933
70746W        W43171   6.517   0.471  12.309
70747W        W43172   6.766  25.976   1.010
70748W        W43173   4.423  21.747   1.382
70749W        W43174   2.854  32.964  12.866
70750W        W43175  40.362  22.464  14.370
70751W        W43176  42.839   5.290  14.046
70752W        W43177  24.237  20.263  12.457
70753W        W43178  26.564  10.835  10.361
70754W        W43179  28.870   0.786  12.762
70755W        W43180  44.614  29.855   4.705
70756W        W43181  24.623  38.069  14.508
70757W        W43182  13.176   4.416  10.959
70758W        W43183  44.301  10.295  14.544
70759W        W43184  17.170   2.489  11.082
70760W        W43185  40.399  18.142  14.460
70761W        W43186  41.623  29.053   3.340
70762W        W43187  11.793  44.928   4.263
70763W        W43188  26.477  14.639  14.794
70764W        W43189  36.840  37.049  11.011
70765W        W43190  21.724  11.360  12.325
70766W        W43191  29.421  30.021   4.006
70767W        W43192   0.552  40.410   3.179
70768W        W43193  33.587   0.667   2.887
70769W        W43194  14.963  12.662  13.943
70770W        W43195  39.026   3.695   4.600
70771W        W43196  20.209   1.726   2.518
70772W        W43197  10.388  40.938  12.077
70773W        W43198  40.110   6.818  14.041
70774W        W43199  38.180   5.642   2.131
70775W        W43200  24.479  18.211  14.839
70776W        W43201  33.768   0.253   2.207
70777W        W43202   2.184  26.232   2.216
70778W        W43203  22.031  21.391  10.659
70779W        W43204  10.086   7.203   0.223
70780W        W43205  36.940  42.717  11.619
70781W        W43206  26.273  43.326  10.748
70782W        W43207  34.051  10.889   2.352
70783W        W43208   0.797  32.228   1.390
70784W        W43209   5.346  39.839  11.077
70785W        W43210   3.292   5.191   3.809
70786W        W43211  17.737  40.282  12.651
70787W        W43212  24.691  25.189   2.868
70788W        W43213  21.273   1.456   3.429
70789W        W43214  23.490  37.059  11.173
70790W        W43215  31.064  33.108  13.124
70791W        W43216  18.142  14.035   4.778
70792W        W43217  44.419   4.463   3.824
70793W        W43218   4.489  35.071  10.719
70794W        W43219  13.296  37.768  11.468
70795W        W43220   4.603   0.300   4.159
70796W        W43221  24.984  14.735  13.358
70797W        W43222  43.770  34.205   2.182
70798W        W43223   8.935  29.617  10.241
70799W        W43224  34.006   9.992   0.745
70800W        W43225  24.615   0.809  13.910
70801W        W43226  39.517  43.761   2.255
70802W        W43227  26.680  23.712  12.160
70803W        W43228   9.758   1.799  11.057
70804W        W43229  32.489   8.665   2.316
70805W        W43230  34.032  42.796   0.314
70806W        W43231  17.191  38.532   4.207
70807W        W43232   4.443  14.438   3.582
70808W        W43233  15.724  38.803  12.677
70809W        W43234  35.308  17.759  11.973
70810W        W43235   9.124  37.398   0.348
70811W        W43236  18.340  17.303  12.359
70812W        W43237  44.346  15.600   0.256
70813W        W43238   7.412   4.604  11.283
70814W        W43239  19.740  35.830  13.078
70815W        W43240  37.133  45.000   4.889
70816W        W43241  43.324  34.160   9.560
70817W        W43242   0.081  31.949  13.895
70818W        W43243  15.086  23.074  12.641
70819W        W43244   5.308   9.808   2.674
70820W        W43245   0.087  25.462   3.176
70821W        W43246  34.578  39.910  13.554
70822W        W43247  15.653  13.199   1.954
70823W        W43248  22.300  16.823  12.960
70824W        W43249  26.602  27.978   4.841
70825W        W43250  39.507  13.793   0.324
70826W        W43251  18.211  27.635  12.555
70827W        W43252  31.508  19.454  14.782
70828W        W43253  23.723  35.545  14.916
70829W        W43254  14.091  17.496   1.706
70830W        W43255  12.124  36.910  14.777
70831W        W43256  11.212  36.316   2.874
70832W        W43257  14.223  44.671   0.227
70833W        W43258   8.699  23.621  10.445
70834W        W43259  36.427  36.918   3.765
70835W        W43260   7.418   9.778   3.444
70836W        W43261  43.298   5.268   3.971
70837W        W43262  16.394   3.883  10.731
70838W        W43263  36.467   0.197  13.323
70839W        W43264   3.870  13.489   0.901
70840W        W43265  11.131   8.654  14.138
70841W        W43266  31.127  36.444   4.323
70842W        W43267  13.400  22.472  10.117
70843W        W43268  39.008   0.404   1.984
70844W        W43269  25.385  37.533  14.293
70845W        W43270   6.400  10.314   0.176
70846W        W43271  41.819  33.204  13.424
70847W        W43272  15.716  43.235  12.059
70848W        W43273  39.060  12.165  12.900
70849W        W43274  37.320  22.301   3.936
70850W        W43275  23.259  10.644   5.014
70851W        W43276  14.642  17.252   4.613
70852W        W43277  25.344  36.016   4.139
70853W        W43278  13.803  21.152   0.536
70854W        W43279  41.535   6.633  13.106
70855W        W43280  17.821   6.100  14.037
70856W        W43281  15.873  30.643   0.073
70857W        W43282  36.635   6.761  11.289
70858W        W43283  40.760   4.201  12.581
70859W        W43284  41.567  28.572   1.828
70860W        W43285  43.360  22.526   1.153
70861W        W43286   9.776   4.851  14.387
70862W        W43287  28.262  35.001   2.167
70863W        W43288  29.876  12.126  12.877
70864W        W43289  22.567  24.619  12.996
70865W        W43290   5.859  27.069  13.501
70866W        W43291   0.968  16.717   1.544
70867W        W43292   5.773  34.323  11.755
70868W        W43293  21.116  37.268   4.269
70869W        W43294  34.105   4.984  11.532
70870W        W43295  43.036  29.390  11.118
70871W        W43296  37.896  21.797  11.050
70872W        W43297  16.149  40.139   0.291
70873W        W43298  24.727  35.198   2.268
70874W        W43299   9.962  29.051  13.986
70875W        W43300  42.638  17.369   1.849
70876W        W43301   3.687   3.432  14.287
70877W        W43302   1.879  34.332   4.063
70878W        W43303  12.075  34.889  14.994
70879W        W43304  38.977  35.922  10.752
70880W        W43305  19.880  10.635  10.175
70881W        W43306  13.102  32.592   0.857
70882W        W43307   3.462  24.547  10.735
70883W        W43308   8.785  16.762  14.458
70884W        W43309  29.745  32.901   3.654
70885W        W43310  13.225  20.400  11.453
70886W        W43311  12.326  10.865  12.016
70887W        W43312  29.596   1.033  12.077
70888W        W43313  29.110   5.880   1.334
70889W        W43314  10.290   5.727   4.527
70890W        W43315  22.089  35.883   2.954
70891W        W43316   6.710   0.300   1.569
70892W        W43317  16.339   8.340   4.217
70893W        W43318  13.059  12.085   2.212
70894W        W43319  35.094  43.217   2.561
70895W        W43320  14.264  43.336   2.794
70896W        W43321  31.995  14.416   3.226
70897W        W43322  38.302  31.060  13.911
70898W        W43323  35.069  29.972  10.913
70899W        W43324  19.679  33.543   3.817
70900W        W43325  42.925   0.011  12.610
70901W        W43326  18.501   4.084  14.671
70902W        W43327   0.818   9.666  14.851
70903W        W43328  31.019  19.992   0.822
70904W        W43329  19.062   7.213   4.585
70905W        W43330  23.014  37.824   4.670
70906W        W43331  36.476  32.506   0.858
70907W        W43332  23.064  30.211  14.314
70908W        W43333  32.970  16.202   0.032
70909W        W43334  31.771  21.796  11.402
70910W        W43335  24.649  23.621   4.382
70911W        W43336  12.362  33.624   0.329
70912W        W43337  35.069  32.142  10.663
70913W        W43338   4.699   3.377  10.999
70914W        W43339  13.117  44.278   5.082
70915W        W43340  11.191   2.627   4.638
70916W        W43341   6.146  12.224   4.887
70917W        W43342  22.630  28.051  11.617
70918W        W43343  28.589   0.773   4.551
70919W        W43344  34.102  32.815  11.159
70920W        W43345  24.782  36.003   2.694
70921W        W43346  19.669  24.433   2.545
70922W        W43347  40.751   0.967  12.462
70923W        W43348  25.691   2.206  13.147
70924W        W43349   9.351  11.141  13.371
70925W        W43350  32.725  37.500   0.813
70926W        W43351   8.906  22.527   0.022
70927W        W43352  43.286   9.412   0.643
70928W        W43353  20.733  15.665  12.459
70929W        W43354  19.937   2.302   3.635
70930W        W43355  10.177   0.526  11.091
70931W        W43356  23.479  12.394   4.545
70932W        W43357   5.282  10.489  13.641
70933W        W43358  29.723  13.633   2.869
70934W        W43359  41.100   2.366  13.440
70935W        W43360   0.334   0.143  12.466
70936W        W43361  32.992   6.137   3.784
70937W        W43362  44.396  37.425   4.168
70938W        W43363  44.922  33.312  12.314
70939W        W43364  19.534  30.226   0.548
70940W        W43365   6.920  23.019  12.981
70941W        W43366  10.828  31.023   4.495
70942W        W43367  31.915   1.999  13.379
70943W        W43368  17.538  37.348  11.623
70944W        W43369  20.294  14.698  11.489
70945W        W43370  35.393  39.596   1.492
70946W        W43371  40.609  42.375   0.765
70947W        W43372  43.487   8.182  11.346
70948W        W43373  23.868  37.462  14.005
70949W        W43374   4.229   6.965   3.186
70950W        W43375  28.995  29.819   1.901
70951W        W43376  31.908  37.994   3.606
70952W        W43377  24.049   2.648  13.634
70953W        W43378  38.461   7.746  10.263
70954W        W43379  21.741  10.240  11.516
70955W        W43380  44.464  30.448   0.365
70956W        W43381  20.752  37.138   2.351
70957W        W43382  19.021  44.865   3.732
70958W        W43383  23.993  28.928  11.530
70959W        W43384  21.262  16.683  11.176
70960W        W43385  39.788  36.934  13.326
70961W        W43386   7.822  43.804  10.470
70962W        W43387   6.681  16.854   1.670
70963W        W43388  26.536  15.749   3.018
70964W        W43389  29.470  18.787  12.996
70965W        W43390  29.003  39.360  12.193
70966W        W43391  10.828  38.835   9.929
70967W        W43392  12.754  24.978   1.272
70968W        W43393  11.815   5.585   2.795
70969W        W43394  20.782  43.145  13.579
70970W        W43395   3.184  21.121  11.617
70971W        W43396  43.092  14.094  12.551
70972W        W43397  11.224   9.139  12.907
70973W        W43398  10.887  24.600   0.883
70974W        W43399  34.155  19.694  10.467
70975W        W43400  25.648  40.745   3.249
70976W        W43401  32.207  10.833   1.500
70977W        W43402   4.404  32.547   1.003
70978W        W43403  25.251  18.268   1.140
70979W        W43404  22.240  43.272   2.865
70980W        W43405  38.272   2.405   1.776
70981W        W43406  19.561  10.642  14.991
70982W        W43407  16.102  27.094  14.251
70983W        W43408  20.188   0.308  14.394
70984W        W43409  44.357  21.011  10.611
70985W        W43410   9.406  21.117   1.698
70986W        W43411  39.291  14.940   0.482
70987W        W43412  25.579   3.986  12.573
70988W        W43413  35.110  32.825   4.756
70989W        W43414  20.755  20.122   1.917
70990W        W43415  11.546  36.844  13.945
70991W        W43416  30.946  41.569  12.094
70992W        W43417  39.365  25.535  12.009
70993W        W43418  30.175  29.084   2.811
70994W        W43419  38.074  43.391   1.635
70995W        W43420  20.768  15.732   1.173
70996W        W43421   8.868  10.821  13.731
70997W        W43422  31.419  42.507   2.395
70998W        W43423   2.726  43.035   0.007
70999W        W43424  41.427  19.908   9.881
71000W        W43425  10.724  16.725  14.397
71001W        W43426  19.039   2.071  12.101
71002W        W43427  21.107  36.138   0.839
71003W        W43428  39.386   5.004   2.641
71004W        W43429   5.796  35.581  11.938
71005W        W43430  44.403  24.971  13.850
71006W        W43431   9.652  11.016  14.199
71007W        W43432  22.634  26.236  10.566
71008W        W43433  30.114  34.080   3.317
71009W        W43434  41.332  28.453   4.539
71010W        W43435   5.619  37.500   0.153
71011W        W43436  21.607  12.150  11.355
71012W        W43437   5.220   3.710   1.404
71013W        W43438  38.243  12.592   3.031
71014W        W43439  24.427  19.245   4.773
71015W        W43440  21.268  26.131  12.470
71016W        W43441  39.546  25.795   0.838
71017W        W43442   4.429  28.157   4.015
71018W        W43443   2.757   9.426  12.067
71019W        W43444  29.282  44.601  14.929
71020W        W43445  19.509   0.837   0.787
71021W        W43446  31.561  38.906   2.361
71022W        W43447  40.262   5.736  14.466
71023W        W43448  38.390  23.759  13.444
71024W        W43449   2.728  15.773  13.715
71025W        W43450  29.691   5.745   4.623
71026W        W43451  41.373  38.947  13.037
71027W        W43452  11.849  32.074   2.965
71028W        W43453  43.047  20.390  13.289
71029W        W43454  39.834  13.779   2.799
71030W        W43455  13.360  28.982   4.486
71031W        W43456  37.036  15.282  14.838
71032W        W43457   4.130  22.490   0.335
71033W        W43458  39.112  22.472   4.189
71034W        W43459  16.656   1.043  14.523
71035W        W43460  13.304   8.923  12.556
71036W        W43461  16.709  32.560   3.159
71037W        W43462  44.720  38.711   0.767
71038W        W43463  19.946  24.319  11.217
71039W        W43464  18.134  36.337  13.774
71040W        W43465  27.644  39.078  11.200
71041W        W43466  32.660  33.910  10.639
71042W        W43467  19.469  13.828   1.404
71043W        W43468  32.152  22.669  12.841
71044W        W43469   0.689  19.793  10.206
71045W        W43470   5.418  28.270   3.585
71046W        W43471  37.142  44.371   4.588
71047W        W43472  41.006  10.735   0.980
71048W        W43473  23.043  10.707  10.573
71049W        W43474  28.685  39.533   4.206
71050W        W43475  10.220   9.606  13.717
71051W        W43476  14.895   3.371  12.493
71052W        W43477   5.214  13.098   2.581
71053W        W43478   7.411   7.874   0.762
71054W        W43479  30.858  44.845   4.206
71055W        W43480  30.570  28.263   1.849
71056W        W43481   0.357  12.260   4.837
71057W        W43482  41.093  37.269   0.740
71058W        W43483  21.798  32.017   3.025
71059W        W43484  32.034  22.570  11.970
71060W        W43485  15.353  32.114  12.434
71061W        W43486  32.761  26.076   3.277
71062W        W43487   3.444  42.564   4.027
71063W        W43488  43.056  17.145   5.056
71064W        W43489  36.875  30.763   3.486
71065W        W43490   6.082  28.502  14.783
71066W        W43491  21.273  10.662   0.366
71067W        W43492  25.145  15.954   4.157
71068W        W43493  36.143  20.609   3.859
71069W        W43494  17.556  39.538  13.614
71070W        W43495  13.331  44.414  12.992
71071W        W43496  16.427  23.185   4.611
71072W        W43497  20.967  36.453   3.704
71073W        W43498   3.443  10.969   1.677
71074W        W43499  34.317  27.623   3.641
71075W        W43500   9.275  10.598  13.464
71076W        W43501  10.274  25.184   2.909
71077W        W43502  10.936  42.932   0.992
71078W        W43503  43.321  30.020   4.936
71079W        W43504  27.546  14.229   2.182
71080W        W43505   0.972  23.713  14.408
71081W        W43506   7.190  34.869  11.159
71082W        W43507  21.332  37.416   0.261
71083W        W43508  36.469  37.920   0.972
71084W        W43509  33.845   0.325  11.117
71085W        W43510  25.685   1.264   0.890
71086W        W43511   7.852  33.141  11.254
71087W        W43512   0.957  29.728   1.789
71088W        W43513  27.509  35.501  12.080
71089W        W43514  34.050  16.762   3.825
71090W        W43515  19.414  19.221  13.215
71091W        W43516  35.958  27.711   3.946
71092W        W43517  26.395  33.157   0.446
71093W        W43518  28.868  31.600   1.183
71094W        W43519  18.256   9.351  14.399
71095W        W43520  18.477  40.843   1.261
71096W        W43521  33.115   9.593  14.956
71097W        W43522  16.188  22.882  13.412
71098W        W43523  18.671   9.705  12.947
71099W        W43524  33.403  23.275   4.525
71100W        W43525   6.369   4.498   2.837
71101W        W43526   1.468   1.360  11.266
71102W        W43527  16.098  25.226  13.286
71103W        W43528  26.575  34.077   2.940
71104W        W43529   0.987  10.380   4.954
71105W        W43530  41.855  32.450   2.637
71106W        W43531  17.247  27.647  13.826
71107W        W43532  24.991   2.433   3.299
71108W        W43533   8.604  31.850  12.956
71109W        W43534  28.030  16.679  11.972
71110W        W43535  31.213  39.693   9.715
71111W        W43536  11.842  44.383  13.989
71112W        W43537  24.957  26.153   4.046
71113W        W43538   5.377  14.743  12.853
71114W        W43539  10.408  21.899  10.123
71115W        W43540   9.004  18.283  11.323
71116W        W43541  44.946   5.190   4.341
71117W        W43542  41.307  22.050  13.592
71118W        W43543  10.714  37.548  10.632
71119W        W43544  41.827  41.399   0.408
71120W        W43545  41.996  32.961  12.069
71121W        W43546  12.273  24.542  11.551
71122W        W43547   2.664  38.506   3.955
71123W        W43548  17.291  21.654  12.138
71124W        W43549  39.266  19.192   3.804
71125W        W43550  13.310  44.171  12.067
71126W        W43551  43.141  34.870  11.993
71127W        W43552  28.651  22.326   1.872
71128W        W43553   4.851  24.167   3.672
71129W        W43554   1.427   6.880  13.866
71130W        W43555  25.148  21.060   4.504
71131W        W43556  34.089   0.311   4.127
71132W        W43557  19.635   5.376  11.909
71133W        W43558  39.231  19.492  11.711
71134W        W43559   2.440  35.184   3.589
71135W        W43560   5.324  15.627   2.767
71136W        W43561  33.172  24.450  13.267
71137W        W43562  23.281  36.769   3.239
71138W        W43563  26.225  36.458  12.916
71139W        W43564  27.410   2.528  12.964
71140W        W43565  42.979  38.507  14.410
71141W        W43566  10.210  13.071   1.304
71142W        W43567  21.152   3.277   0.150
71143W        W43568   8.845  20.627   2.752
71144W        W43569  29.688  36.938   2.202
71145W        W43570  26.151  19.537  12.960
71146W        W43571  14.386  30.728   1.088
71147W        W43572  44.716  29.688  13.438
71148W        W43573   3.590  11.169  13.836
71149W        W43574  18.739   8.274  13.787
71150W        W43575  10.232  23.296  14.448
71151W        W43576   2.898  21.492   2.158
71152W        W43577  13.263   2.667   4.703
71153W        W43578  30.487  41.817   3.139
71154W        W43579  27.647  19.984  13.983
71155W        W43580   7.206   7.462   4.578
71156W        W43581   0.306  28.090  12.954
71157W        W43582  29.033   7.972   4.637
71158W        W43583  33.404  10.749   1.726
71159W        W43584  37.791  12.344  11.117
71160W        W43585   0.204   6.780   0.915
71161W        W43586  12.141  43.480  12.440
71162W        W43587  10.817  36.870  14.442
71163W        W43588  24.914  41.691   4.099
71164W        W43589  17.405   7.857   2.272
71165W        W43590  42.274  27.417   0.351
71166W        W43591   4.852  44.814  11.029
71167W        W43592   7.633  42.053  14.847
71168W        W43593  30.115   6.937  14.011
71169W        W43594  34.952  14.502   5.172
71170W        W43595  36.207  25.525   1.754
71171W        W43596  43.969  38.488  13.531
71172W        W43597  23.291  19.166   0.377
71173W        W43598  37.973   0.915   3.826
71174W        W43599  18.025   8.392  12.175
71175W        W43600  25.725  12.218  13.210
71176W        W43601  14.883  20.185   3.627
71177W        W43602  30.920  17.609   3.732
71178W        W43603  34.580  27.764  13.045
71179W        W43604   6.383  43.941  13.733
71180W        W43605  28.172  29.842  10.230
71181W        W43606  14.694   5.481  13.478
71182W        W43607  43.503  29.670   0.913
71183W        W43608  14.544   4.986   4.375
71184W        W43609  32.060  34.749   3.138
71185W        W43610   2.545   1.375  10.315
71186W        W43611   6.902  15.964  11.200
71187W        W43612  25.083   7.884   3.310
71188W        W43613  20.113  20.299   4.235
71189W        W43614  19.261  25.173  10.511
71190W        W43615   2.261  26.442   1.743
71191W        W43616  13.203  31.085   3.727
71192W        W43617  16.769   5.360  13.491
71193W        W43618  42.541  25.451   0.344
71194W        W43619  17.752  32.678   4.210
71195W        W43620  19.766  19.027   1.741
71196W        W43621   0.774   2.790  10.916
71197W        W43622   4.802  36.422  10.642
71198W        W43623   3.685  25.933  12.697
71199W        W43624  38.613  30.664  13.859
71200W        W43625  44.958  19.964  12.902
71201W        W43626  27.549  35.052  14.767
71202W        W43627  13.728  13.259  13.959
71203W        W43628   0.969   8.225  11.849
71204W        W43629  43.059  28.168   5.079
71205W        W43630   9.012  27.848  11.160
71206W        W43631   6.742  29.698   3.369
71207W        W43632  23.211  24.654   0.267
71208W        W43633  35.623  20.499  13.890
71209W        W43634  18.332  20.996  14.842
71210W        W43635  12.226  39.861   4.379
71211W        W43636  40.448   1.698  10.852
71212W        W43637  34.767   8.847   1.746
71213W        W43638  15.140  17.590  14.901
71214W        W43639  33.045  10.412   0.289
71215W        W43640  13.269  22.188   4.023
71216W        W43641  20.225  20.287   2.344
71217W        W43642  23.965  28.458   4.142
71218W        W43643   3.738  25.551   1.867
71219W        W43644   8.789   7.943  13.511
71220W        W43645  26.254  29.657  11.949
71221W        W43646  31.279  38.662   3.948
71222W        W43647  15.836   0.482  13.266
71223W        W43648  25.179  28.903   4.676
71224W        W43649  12.871  18.758   2.923
71225W        W43650  11.360  41.475   1.398
71226W        W43651  20.118  15.754   3.287
71227W        W43652  39.693   1.412  10.444
71228W        W43653   4.176   5.095   0.399
71229W        W43654   1.862  21.399  12.620
71230W        W43655  35.361  20.544   2.267
71231W        W43656   4.664   9.664  12.007
71232W        W43657   6.326   8.208  14.348
71233W        W43658  20.824  42.016   0.646
71234W        W43659  38.373  16.827  12.995
71235W        W43660  34.513  26.938  14.968
71236W        W43661  25.988  29.949   4.160
71237W        W43662  38.391  27.397  13.436
71238W        W43663  25.993  22.205   1.900
71239W        W43664   2.962  20.685   4.408
71240W        W43665   0.995  30.786   5.107
71241W        W43666  11.109   1.289   0.965
71242W        W43667  24.028  38.355  13.736
71243W        W43668   6.787   6.245  12.804
71244W        W43669  30.471   6.419   4.756
71245W        W43670  35.125  40.668  13.637
71246W        W43671  33.566  12.827  12.455
71247W        W43672  24.340  30.982   2.432
71248W        W43673   8.185  43.437   4.618
71249W        W43674  19.016   8.431   4.243
71250W        W43675  40.531  13.661   0.384
71251W        W43676  44.029  12.985  11.558
71252W        W43677  43.343  21.757   4.137
71253W        W43678  44.656  39.263   4.057
71254W        W43679   9.096  12.678  12.143
71255W        W43680  41.278  27.582   4.090
71256W        W43681  23.468  11.112   2.710
71257W        W43682   2.441  33.718  10.195
71258W        W43683  44.931  19.577   0.668
71259W        W43684  42.096  31.992   3.059
71260W        W43685   7.305  10.775  14.423
71261W        W43686   0.291  25.907  11.117
71262W        W43687  24.759  24.150   4.503
71263W        W43688  33.977  37.577   1.297
71264W        W43689   6.830  32.407  11.487
71265W        W43690  26.933  32.406   1.213
71266W        W43691  19.619  13.331  14.505
71267W        W43692  33.709  21.801  11.127
71268W        W43693  44.490  38.396  13.500
71269W        W43694   2.861  15.221  13.033
71270W        W43695  31.443  16.877   0.450
71271W        W43696  29.548  29.108   4.521
71272W        W43697  39.606   3.237   0.970
71273W        W43698  18.435  21.114   3.643
71274W        W43699  19.679  35.231  13.716
71275W        W43700  19.798  15.239  14.063
71276W        W43701  15.791   2.417   3.795
71277W        W43702  37.911  42.222   1.671
71278W        W43703  11.815   9.990  10.624
71279W        W43704  36.572  18.661  10.703
71280W        W43705  17.877   9.912   0.028
71281W        W43706  12.088  14.739  12.636
71282W        W43707   6.825   5.613   2.299
71283W        W43708   9.399   2.851   2.217
71284W        W43709  29.549  34.402   0.484
71285W        W43710  11.076  18.767   1.875
71286W        W43711  23.611  37.344  14.820
71287W        W43712  36.902  39.933  14.263
71288W        W43713  37.046  43.309   1.910
71289W        W43714  25.978  38.242   3.753
71290W        W43715  13.720   9.438   0.857
71291W        W43716  35.462  12.133   0.184
71292W        W43717  15.721  15.030  10.736
71293W        W43718  17.846   0.022   1.671
71294W        W43719  41.183  37.441   3.783
71295W        W43720  23.716  42.306   2.324
71296W        W43721  35.257  37.061   3.086
71297W        W43722   8.334  12.294  13.823
71298W        W43723  38.043   0.882   4.331
71299W        W43724  12.735  20.086   1.298
71300W        W43725  21.038  44.854  11.513
71301W        W43726  15.156  40.155  11.100
71302W        W43727  30.800   9.254  10.419
71303W        W43728   8.125   8.229   1.629
71304W        W43729  11.593  12.896  10.693
71305W        W43730  10.323  19.959   2.343
71306W        W43731  24.731  30.156   9.715
71307W        W43732  29.794  24.231  12.525
71308W        W43733  42.952  19.232  10.257
71309W        W43734  38.133  28.005   4.612
71310W        W43735  42.392  37.132  11.727
71311W        W43736  34.514   1.346   1.943
71312W        W43737  20.289  13.293   0.887
71313W        W43738   6.463   9.154   0.216
71314W        W43739  14.129  36.919  13.760
71315W        W43740  18.901  24.377  13.858
71316W        W43741  21.641  44.946   0.286
71317W        W43742  41.808  23.426   3.573
71318W        W43743  15.532  40.286  12.327
71319W        W43744  44.360   0.044   3.120
71320W        W43745   1.320  23.635   3.288
71321W        W43746   3.796  39.625   3.177
71322W        W43747  31.448  39.082  10.940
71323W        W43748  35.344  41.047  13.342
71324W        W43749  16.675  28.458  13.066
71325W        W43750  41.600  26.163  11.865
71326W        W43751  30.550  29.777   1.004
71327W        W43752  21.280  44.370  12.659
71328W        W43753   4.828  30.084   0.062
71329W        W43754   4.156  19.772   4.883
71330W        W43755  18.751  32.184  13.364
71331W        W43756   8.874   1.268   4.598
71332W        W43757  41.452  44.859  10.921
71333W        W43758  21.588  17.819  13.484
71334W        W43759  14.671  24.157  12.922
71335W        W43760  36.677  42.251   0.756
71336W        W43761  39.756  40.038   2.650
71337W        W43762  41.472   4.966   3.247
71338W        W43763  43.520  27.427   1.774
71339W        W43764   9.859  19.657  14.687
71340W        W43765  16.679  27.658  11.683
71341W        W43766   5.974   1.859  14.279
71342W        W43767   3.507  11.307   2.356
71343W        W43768  27.243  23.465  13.366
71344W        W43769   0.370  43.824  10.893
71345W        W43770  41.977   9.248   0.786
71346W        W43771  10.218   4.330  13.775
71347W        W43772  21.031  14.180   4.134
71348W        W43773  38.458   5.033  11.251
71349W        W43774  28.846   9.860   1.351
71350W        W43775   6.185  32.587   0.783
71351W        W43776  43.316  29.604   0.408
71352W        W43777  21.540   0.993  12.689
71353W        W43778  12.162  39.001   2.825
71354W        W43779  10.253   6.157   1.299
71355W        W43780   9.293  21.526   0.141
71356W        W43781   3.207  38.063  11.073
71357W        W43782   8.328  27.289  10.555
71358W        W43783  27.201  12.564   1.860
71359W        W43784   0.057  12.037  14.040
71360W        W43785  20.613  24.973  11.145
71361W        W43786  18.775   0.542  13.601
71362W        W43787   1.182  26.713   0.666
71363W        W43788  32.639  30.327  12.254
71364W        W43789  19.029  42.850  10.895
71365W        W43790  17.675  27.662  12.569
71366W        W43791  41.961  24.792   1.849
71367W        W43792  16.658  29.625  14.423
71368W        W43793  15.875   1.839  12.627
71369W        W43794   3.271  36.106   2.309
71370W        W43795  37.614   7.259   4.711
71371W        W43796  40.445  40.677   2.925
71372W        W43797  19.342  39.550  10.675
71373W        W43798  27.184  32.452   9.755
71374W        W43799  21.109   3.890   1.295
71375W        W43800  33.635  27.275   4.132
71376W        W43801  31.451  21.007  11.705
71377W        W43802  41.548   8.779  14.898
71378W        W43803   6.386  13.487   4.462
71379W        W43804  23.017   3.972  11.961
71380W        W43805  22.573  27.371  13.865
71381W        W43806  33.176   2.341  11.259
71382W        W43807  14.266  22.903   4.431
71383W        W43808  34.379  25.214  11.648
71384W        W43809  20.299   3.087  10.200
71385W        W43810  20.342  17.490  11.253
71386W        W43811   0.372  36.614  10.737
71387W        W43812  24.496   6.265   3.658
71388W        W43813   3.955   6.414  14.406
71389W        W43814  15.002  18.264   2.107
71390W        W43815  30.982  37.517   1.907
71391W        W43816   0.367  15.106   1.701
71392W        W43817   9.200  41.335  14.706
71393W        W43818  29.639   6.744  14.842
71394W        W43819   6.991  25.072   3.178
71395W        W43820  28.046  41.597   4.169
71396W        W43821  24.537  44.989  11.827
71397W        W43822  33.565  39.915   1.364
71398W        W43823   2.995  28.072   3.476
71399W        W43824  44.032   7.559   1.022
71400W        W43825  41.483  15.498  10.709
71401W        W43826  10.917  23.472   3.624
71402W        W43827  35.447  42.792  12.187
71403W        W43828   7.425   3.195  13.529
71404W        W43829  21.391  36.446  14.276
71405W        W43830  32.533  11.611   1.399
71406W        W43831   7.294   2.005  14.262
71407W        W43832  38.604   3.989  11.942
71408W        W43833  34.461  44.025   1.447
71409W        W43834  18.860   5.309  12.056
71410W        W43835   6.438  42.641  14.338
71411W        W43836  32.600   2.805   0.663
71412W        W43837  43.054  21.954   2.493
71413W        W43838   1.982  24.882   2.164
71414W        W43839   0.376  31.468  11.859
71415W        W43840  41.094  20.858  12.804
71416W        W43841   6.803  30.638   1.346
71417W        W43842  23.020   4.990  14.290
71418W        W43843  42.399  24.201  12.650
71419W        W43844  25.135   5.410   3.603
71420W        W43845   8.757  18.872   1.329
71421W        W43846  17.791   8.749   4.015
71422W        W43847  10.459  37.436   4.603
71423W        W43848   4.435   3.768   1.352
71424W        W43849   2.475   6.770   3.775
71425W        W43850  28.777  12.924   0.258
71426W        W43851  30.410  14.208  12.336
71427W        W43852   1.203  21.560   2.214
71428W        W43853  19.567  23.545   3.713
71429W        W43854  35.027   2.255  14.826
71430W        W43855  19.060  44.467  11.716
71431W        W43856  25.067  10.636   2.316
71432W        W43857  25.204  31.167   2.928
71433W        W43858  31.875  33.023  10.759
71434W        W43859  28.987  42.406  10.729
71435W        W43860  33.967  36.425  13.256
71436W        W43861  35.076  30.654  14.079
71437W        W43862  35.325   1.514   4.270
71438W        W43863  18.354   7.827   1.563
71439W        W43864  37.055  44.301  14.222
71440W        W43865  35.489   4.305   3.356
71441W        W43866  12.206  38.404   3.563
71442W        W43867  11.739  36.383   4.348
71443W        W43868  21.052  20.139  13.079
71444W        W43869  19.696   2.798  11.963
71445W        W43870  44.430  33.203  10.259
71446W        W43871  36.127  17.566   0.487
71447W        W43872  31.926  34.304   3.347
71448W        W43873  22.736  36.370   3.980
71449W        W43874  15.038  16.560   4.317
71450W        W43875   1.841  18.591   4.640
71451W        W43876  43.004  24.385  10.566
71452W        W43877  28.629  17.226   4.799
71453W        W43878  14.778   3.854  13.660
71454W        W43879  37.767  37.599   2.853
71455W        W43880  32.438  14.157   2.274
71456W        W43881  35.056  35.844  10.647
71457W        W43882   2.858   1.957  10.940
71458W        W43883  28.430  32.951   0.173
71459W        W43884  32.538  33.130  11.201
71460W        W43885  32.944  34.944   3.582
71461W        W43886  22.957  23.210  11.131
71462W        W43887  22.971  29.511  11.531
71463W        W43888   9.136   7.767   3.197
71464W        W43889  13.497   7.147  10.176
71465W        W43890  29.258  21.505  14.200
71466W        W43891  23.296   3.663   4.643
71467W        W43892   7.640  11.920   3.658
71468W        W43893  23.266  21.253  11.535
71469W        W43894  34.531  24.089   3.000
71470W        W43895   1.644   6.601  12.044
71471W        W43896  37.571   8.860   0.087
71472W        W43897  14.834  40.789  12.930
71473W        W43898  33.447  17.770  10.964
71474W        W43899  36.143  24.205   0.981
71475W        W43900  25.131  44.274   1.883
71476W        W43901   1.183  17.598   2.679
71477W        W43902   3.115  40.753  14.772
71478W        W43903  31.226  15.976   2.277
71479W        W43904  12.138  35.074  13.607
71480W        W43905  38.755  29.388  13.471
71481W        W43906  15.595  11.307  12.112
71482W        W43907  30.481  30.671  11.193
71483W        W43908  13.401  11.203   1.489
71484W        W43909   1.183  33.216  10.613
71485W        W43910  13.802  36.846  14.786
71486W        W43911  22.524  14.263  10.314
71487W        W43912   5.900  29.099   3.155
71488W        W43913   6.861   4.333   1.640
71489W        W43914  18.980   1.376   1.342
71490W        W43915  40.131  40.954  11.146
71491W        W43916  16.365   6.272   2.418
71492W        W43917  13.030  30.646   1.427
71493W        W43918  11.670  17.558  14.005
71494W        W43919  31.676  25.167  13.439
71495W        W43920  12.297  43.825   0.374
71496W        W43921   7.190  24.864   2.711
71497W        W43922  17.661  23.417  10.952
71498W        W43923   9.345  27.445  14.898
71499W        W43924  38.078  29.829   3.872
71500W        W43925  36.650  14.572  11.111
71501W        W43926   7.723  23.035   2.172
71502W        W43927  17.188  12.065  10.519
71503W        W43928  14.697  24.809   3.335
71504W        W43929  42.090  23.808   0.808
71505W        W43930  14.995  14.637  13.484
71506W        W43931  27.310  33.577   2.854
71507W        W43932   3.014  11.664   1.242
71508W        W43933  23.806  19.120   0.519
71509W        W43934  18.477  17.610  11.103
71510W        W43935  16.541  40.477   2.925
71511W        W43936  42.785  12.511  14.980
71512W        W43937   3.857   8.475  11.042
71513W        W43938  34.856  19.264  13.808
71514W        W43939  27.422  27.993   4.200
71515W        W43940  27.669  43.291  10.685
71516W        W43941  24.175  14.203  11.037
71517W        W43942  14.373   0.230   1.356
71518W        W43943   3.855  39.966  13.888
71519W        W43944   0.820  21.531  11.559
71520W        W43945  28.013  40.268   0.892
71521W        W43946  16.809  10.257   1.791
71522W        W43947  15.185   8.658  11.158
71523W        W43948  24.336  12.242  14.919
71524W        W43949  38.897  16.148  12.828
71525W        W43950   9.603  29.694   4.076
71526W        W43951  29.945  12.097  13.885
71527W        W43952  40.926  12.575  13.121
71528W        W43953   8.759  10.191   1.174
71529W        W43954  25.584  19.127  10.950
71530W        W43955   7.264  40.557   3.379
71531W        W43956  35.185  31.082   3.698
71532W        W43957  26.152   2.687   1.338
71533W        W43958  35.850  25.846   5.096
71534W        W43959  38.332  10.351   0.960
71535W        W43960   5.801  25.626  14.065
71536W        W43961  26.292  30.127  12.172
71537W        W43962  43.972  22.629  13.893
71538W        W43963  30.660  25.473  12.103
71539W        W43964  22.921  34.131  14.253
71540W        W43965  34.525  15.176  13.936
71541W        W43966   4.365  28.917   0.479
71542W        W43967  36.448   0.905  11.947
71543W        W43968  23.509   7.049  12.414
71544W        W43969  10.080  27.939  11.063
71545W        W43970   2.410  15.354  12.809
71546W        W43971  12.673  22.765   0.892
71547W        W43972  41.690  41.747   1.968
71548W        W43973  16.771  18.944   2.128
71549W        W43974  23.171  26.181   3.045
71550W        W43975  21.632  37.830  13.420
71551W        W43976   0.308   3.499  11.244
71552W        W43977  44.351  25.629  14.657
71553W        W43978   1.053  26.223  13.541
71554W        W43979  28.078  36.123   4.629
71555W        W43980  19.011  37.369  11.609
71556W        W43981   0.906  20.196   1.176
71557W        W43982  38.022  19.034  12.565
71558W        W43983  23.188  29.426  11.975
71559W        W43984  30.665  15.460  12.397
71560W        W43985  34.013   7.693   1.840
71561W        W43986  27.499  37.827   4.491
71562W        W43987  18.052  39.376  13.684
71563W        W43988   3.757  35.855   2.371
71564W        W43989  20.916  23.617  10.116
71565W        W43990   6.032  16.112  12.936
71566W        W43991   6.195  20.722  13.978
71567W        W43992   9.201  39.415   2.162
71568W        W43993  36.143  17.055   0.409
71569W        W43994  11.219  32.908   2.439
71570W        W43995  33.859  41.948   1.343
71571W        W43996  20.289  32.820   2.311
71572W        W43997  26.363  17.478  12.386
71573W        W43998  39.462   5.929  10.918
71574W        W43999   9.706  39.898  13.522
71575W        W44000  15.873  14.317  13.551
71576W        W44001  13.768   7.575   3.642
71577W        W44002  28.445  24.215   3.824
71578W        W44003  44.286  41.880  10.425
71579W        W44004  24.267  27.054  12.715
71580W        W44005  37.411  44.253   5.020
71581W        W44006  12.869  27.638   0.772
71582W        W44007   9.934  18.542  11.680
71583W        W44008   0.947  28.997   3.168
71584W        W44009  19.760  34.083   0.355
71585W        W44010  44.051  18.828  11.954
71586W        W44011  21.855  17.120  13.939
71587W        W44012  12.320  16.569  13.049
71588W        W44013   2.909  32.100  14.727
71589W        W44014  10.617  26.082   0.459
71590W        W44015   4.627  15.571   2.217
71591W        W44016   3.225  25.177   3.582
71592W        W44017  29.411  17.804  11.910
71593W        W44018   6.319  28.736  13.922
71594W        W44019  44.813  16.548  12.380
71595W        W44020  34.614  29.778  14.983
71596W        W44021   7.274   8.753   0.986
71597W        W44022  40.249  40.051  11.159
71598W        W44023  31.614   8.305  14.981
71599W        W44024  34.304   6.018   1.731
71600W        W44025  43.102  14.700  12.114
71601W        W44026  30.924  37.517   0.248
71602W        W44027   5.794   5.289  13.470
71603W        W44028  39.822  12.851   3.678
71604W        W44029  22.671  40.507  11.516
71605W        W44030  14.715  32.658   4.755
71606W        W44031  10.607  17.388   3.538
71607W        W44032   7.469  34.061   0.317
71608W        W44033  24.925   4.021  14.832
71609W        W44034  21.064   9.490  12.553
71610W        W44035  38.780  13.156  10.516
71611W        W44036  15.582  10.686  13.585
71612W        W44037  16.404  11.599   1.747
71613W        W44038  11.566  26.989  14.896
71614W        W44039  40.828   7.244  13.925
71615W        W44040  30.051  10.752  10.635
71616W        W44041  23.950  36.459  13.570
71617W        W44042   6.729  34.623  11.121
71618W        W44043  42.963  18.762   4.603
71619W        W44044  30.731  38.671  11.408
71620W        W44045  24.702  30.034   5.028
71621W        W44046   6.881  33.103   0.363
71622W        W44047  27.513   1.711  14.769
71623W        W44048  41.768  44.929  11.664
71624W        W44049  43.306  12.826   1.887
71625W        W44050  30.454  31.377   3.726
71626W        W44051   7.739  29.753  11.045
71627W        W44052  37.601  29.930   2.159
71628W        W44053  29.248   0.760   2.285
71629W        W44054  25.957  38.595   3.246
71630W        W44055  13.427   0.247  11.963
71631W        W44056   1.953  15.165   1.133
71632W        W44057  21.242  20.762   2.152
71633W        W44058  11.588  19.843  14.859
71634W        W44059   9.579  37.358   4.941
71635W        W44060  30.491  44.251  13.862
71636W        W44061  37.596  15.281  13.945
71637W        W44062  32.621   3.044  12.875
71638W        W44063  35.065  36.099  14.806
71639W        W44064   8.651  13.562  13.869
71640W        W44065  38.502   3.900  10.448
71641W        W44066  18.217  40.532   2.408
71642W        W44067   5.812  40.360  10.482
71643W        W44068  13.094   1.452   9.765
71644W        W44069   1.408  41.686  12.088
71645W        W44070  14.730  18.979  10.618
71646W        W44071  38.408  34.051   1.018
71647W        W44072  19.490  11.796   3.263
71648W        W44073  14.471  14.257  11.866
71649W        W44074  10.864  30.648   0.905
71650W        W44075  23.757   3.809   1.856
71651W        W44076  35.143  34.472  12.549
71652W        W44077  32.986  13.134   3.691
71653W        W44078  33.379   2.305  14.335
71654W        W44079  32.039  26.947  11.767
71655W        W44080  28.660  34.037  14.611
71656W        W44081  29.943  18.612   1.235
71657W        W44082  19.969   6.957   0.604
71658W        W44083  34.640  36.941   3.769
71659W        W44084  33.524   2.254   2.671
71660W        W44085   6.337  25.467  10.868
71661W        W44086  28.811  34.130  11.195
71662W        W44087  18.298   8.208   0.204
71663W        W44088  19.674  10.115   4.583
71664W        W44089  41.066  37.509   2.024
71665W        W44090  13.504  38.070   2.270
71666W        W44091  37.179  37.558  10.571
71667W        W44092  42.983   9.433   2.833
71668W        W44093   2.312  22.384  14.370
71669W        W44094  23.951  38.314  11.739
71670W        W44095  24.705  26.865  12.506
71671W        W44096  29.965  11.866   3.746
71672W        W44097  17.100   3.437  14.947
71673W        W44098  14.268  25.483   0.883
71674W        W44099  38.285  40.375  13.289
71675W        W44100  27.694   0.022  13.005
71676W        W44101  29.773   0.673   2.423
71677W        W44102  11.144  34.569   3.174
71678W        W44103  24.650  44.745   2.810
71679W        W44104  16.843  29.693   0.288
71680W        W44105  25.053  14.213   0.261
71681W        W44106  36.664  28.134  11.374
71682W        W44107   0.560   5.986  12.680
71683W        W44108  14.561  31.506  14.007
71684W        W44109  28.938  11.832  12.045
71685W        W44110   4.695  43.944   4.115
71686W        W44111   3.995  35.291  14.318
71687W        W44112  29.268  18.612  12.105
71688W        W44113  37.536  13.852   3.822
71689W        W44114  12.606  17.057   0.378
71690W        W44115   8.321  35.028   1.234
71691W        W44116  25.223  19.324   2.462
71692W        W44117  15.878  16.289   0.278
71693W        W44118  13.604   7.189   3.217
71694W        W44119  45.000   6.785  13.886
71695W        W44120  24.792  30.433   1.340
71696W        W44121  30.457  30.928  10.408
71697W        W44122  23.583  16.621   1.976
71698W        W44123  17.184  11.906  11.005
71699W        W44124  44.246  40.571  11.608
71700W        W44125  24.561  27.675   3.710
71701W        W44126  27.633   7.145  14.981
71702W        W44127  23.420  21.086  10.235
71703W        W44128   4.558  39.057   2.124
71704W        W44129   6.022   9.941   0.202
71705W        W44130   9.630  10.614  12.908
71706W        W44131   8.312  44.978  14.486
71707W        W44132  42.122  39.507  12.025
71708W        W44133  28.944  33.322  11.617
71709W        W44134   9.306  13.941   1.489
71710W        W44135  10.296  23.531   4.183
71711W        W44136   6.876   7.611   2.461
71712W        W44137  22.031  30.063   1.715
71713W        W44138   2.822  26.995  12.131
71714W        W44139  42.103  43.424  13.083
71715W        W44140  14.075  11.798   4.906
71716W        W44141  18.983  34.400  13.134
71717W        W44142   7.138  40.039   0.333
71718W        W44143  38.449  25.177   0.390
71719W        W44144  18.007  28.597  12.455
71720W        W44145  30.875  44.788  12.339
71721W        W44146  43.576  23.069  13.589
71722W        W44147  35.476   8.760   0.807
71723W        W44148   1.311  17.110   4.649
71724W        W44149  32.347  22.512   2.666
71725W        W44150  38.645  24.116   2.147
71726W        W44151  41.855  32.696  13.398
71727W        W44152  20.082  24.107   1.645
71728W        W44153  36.583  12.355  11.175
71729W        W44154  31.641   7.843   4.390
71730W        W44155  22.417  42.091   4.083
71731W        W44156  15.220  26.661  10.722
71732W        W44157  22.044  25.021   1.814
71733W        W44158  15.264  35.254   4.174
71734W        W44159   2.186  43.931   1.901
71735W        W44160  29.990  26.155   2.320
71736W        W44161  28.662   9.096   0.336
71737W        W44162  41.332  39.552  11.609
71738W        W44163  32.669  22.607   1.290
71739W        W44164   5.052  43.249   9.927
71740W        W44165  27.408  22.520  11.607
71741W        W44166  24.288  32.908  13.444
71742W        W44167  35.834  19.017  14.487
71743W        W44168   4.152  36.785  12.442
71744W        W44169  31.412  26.880  12.961
71745W        W44170   6.285  38.971   5.066
71746W        W44171  38.934  40.802   0.427
71747W        W44172  29.907  24.073   2.215
71748W        W44173  14.203   5.881  13.732
71749W        W44174  38.783  11.856  10.597
71750W        W44175  44.221   9.857  13.575
71751W        W44176  11.631  24.973  10.068
71752W        W44177  38.890  37.475   2.198
71753W        W44178   1.381  20.546   0.479
71754W        W44179  33.956  23.521   3.090
71755W        W44180  32.364  12.357  12.019
71756W        W44181  19.090  32.586   1.671
71757W        W44182  42.017  17.586   2.759
71758W        W44183   5.430  37.688   3.301
71759W        W44184  32.595  41.917  14.073
71760W        W44185  15.668  27.230   4.855
71761W        W44186  11.272  23.291   1.804
71762W        W44187  38.712  31.964  12.058
71763W        W44188  37.820  23.703  13.541
71764W        W44189  40.796  21.229   3.297
71765W        W44190  19.339  30.065   2.843
71766W        W44191  11.471  17.096  14.833
71767W        W44192  18.762  20.009   0.004
71768W        W44193   6.406   9.351  11.977
71769W        W44194  37.531  34.796  11.798
71770W        W44195  12.293  44.319   1.605
71771W        W44196   0.512  41.245  12.324
71772W        W44197  29.862  11.643   3.173
71773W        W44198  42.001  23.490  10.384
71774W        W44199  14.619  31.006   1.949
71775W        W44200  19.648  22.613   4.680
71776W        W44201  21.066  30.540   2.662
71777W        W44202  11.702   6.214  13.312
71778W        W44203  20.469  29.641   2.326
71779W        W44204  26.028  27.691   0.915
71780W        W44205  27.475  37.976  10.693
71781W        W44206  15.131  27.058   4.646
71782W        W44207  15.022  23.157  10.169
71783W        W44208  41.436  42.810   4.930
71784W        W44209  24.046  37.403   3.295
71785W        W44210  33.139  12.912  11.625
71786W        W44211  43.731  24.603   1.738
71787W        W44212   5.787  36.193  12.792
71788W        W44213   8.870   0.793   0.321
71789W        W44214  13.215  16.150  11.479
71790W        W44215  40.794  21.576   0.796
71791W        W44216  33.929  26.489   4.484
71792W        W44217  33.734   1.312   3.151
71793W        W44218  10.123  31.488   4.814
71794W        W44219  41.045  10.360   0.259
71795W        W44220  23.037  38.335   1.376
71796W        W44221  17.145   1.050   4.533
71797W        W44222  30.474  18.554   3.732
71798W        W44223  37.857   8.690  11.927
71799W        W44224  22.194  44.410   1.808
71800W        W44225  12.581  10.446  12.152
71801W        W44226   2.769  26.671  10.692
71802W        W44227  43.752  31.653   1.437
71803W        W44228   2.241   3.930  11.970
71804W        W44229  36.547  28.655   0.943
71805W        W44230  10.036   9.766   4.193
71806W        W44231  18.935  13.332   3.919
71807W        W44232   3.904  20.077  14.431
71808W        W44233  16.738   3.262   2.129
71809W        W44234  18.388  41.500  13.424
71810W        W44235  38.549  34.904   4.555
71811W        W44236  28.143  21.777   2.388
71812W        W44237  15.862  40.867   1.339
71813W        W44238  17.194   6.012  11.074
71814W        W44239  13.006  11.060   1.774
71815W        W44240  32.618   3.816   1.273
71816W        W44241  40.996   9.808   4.618
71817W        W44242  43.255  10.707  10.620
71818W        W44243  21.321   3.866  13.967
71819W        W44244   9.162  29.387  11.564
71820W        W44245   8.630  37.945  13.124
71821W        W44246  43.346   8.892   0.931
71822W        W44247  30.551  11.428   3.255
71823W        W44248  43.718  30.047   3.232
71824W        W44249  44.665  17.697   4.533
71825W        W44250  28.912  20.575   4.671
71826W        W44251  33.972   8.404   0.297
71827W        W44252  30.234  14.227  12.843
71828W        W44253  26.529  16.322  10.405
71829W        W44254  20.085  17.299   4.071
71830W        W44255  17.637  40.520   1.834
71831W        W44256  12.471  23.044   2.378
71832W        W44257  28.069  17.759   0.349
71833W        W44258  43.621  12.785  13.095
71834W        W44259  24.142  22.016  14.305
71835W        W44260  38.411   2.928  10.701
71836W        W44261  24.082  17.067  13.466
71837W        W44262  33.997  25.564  13.608
71838W        W44263  26.024  30.071  10.148
71839W        W44264  24.158  38.761   3.639
71840W        W44265   6.952  42.510   4.346
71841W        W44266  29.912  26.560   0.446
71842W        W44267  35.442   4.661  10.701
71843W        W44268   8.609   5.295   0.259
71844W        W44269  34.326  28.967   3.639
71845W        W44270   0.348  14.190   2.174
71846W        W44271  16.810   1.285   0.380
71847W        W44272  43.802   8.624   0.957
71848W        W44273  41.452   6.361  10.737
71849W        W44274  31.067  35.473   3.410
71850W        W44275  12.781  40.108   2.042
71851W        W44276  29.825  34.453   4.075
71852W        W44277  39.255  31.894  11.362
71853W        W44278  23.736  17.673  11.651
71854W        W44279  26.659  23.216   1.074
71855W        W44280   4.150  40.713  11.213
71856W        W44281  43.479  42.994   0.637
71857W        W44282  27.057  22.946   2.548
71858W        W44283  36.530   2.784  13.264
71859W        W44284  32.456   1.687  11.063
71860W        W44285   2.929  42.999   1.819
71861W        W44286  32.867  36.557   1.954
71862W        W44287   6.527  10.988   4.138
71863W        W44288   3.312   2.790   0.006
71864W        W44289  21.984  38.805  12.175
71865W        W44290  40.250  10.375   1.512
71866W        W44291  29.030  29.644   0.404
71867W        W44292  27.883   6.033   2.714
71868W        W44293  14.652  26.735  13.444
71869W        W44294   9.705   7.495   0.413
71870W        W44295  44.012  34.677   3.560
71871W        W44296  17.803  11.197   0.965
71872W        W44297  18.813  29.968   2.721
71873W        W44298  12.993  24.853  13.920
71874W        W44299   9.895  43.593   3.194
71875W        W44300  19.732  17.787  14.325
71876W        W44301  33.609   8.619  13.553
71877W        W44302  36.133   9.761  12.619
71878W        W44303  25.561  35.317  13.061
71879W        W44304   5.401  22.424   2.199
71880W        W44305  32.303  44.006   0.748
71881W        W44306  37.120  35.444   4.266
71882W        W44307  24.109  10.919  10.618
71883W        W44308   5.982  36.585   1.204
71884W        W44309  43.016  19.643  13.895
71885W        W44310   3.480   9.802   0.246
71886W        W44311   7.822   0.983  13.810
71887W        W44312  43.053  33.642   4.541
71888W        W44313  28.889   9.139   0.936
71889W        W44314   1.247  17.696   3.533
71890W        W44315  44.502   8.459   1.694
71891W        W44316   6.061  20.248  12.645
71892W        W44317   9.373   7.927  11.521
71893W        W44318  41.009  11.659  14.026
71894W        W44319   4.976  23.527  13.394
71895W        W44320  42.685  36.288  13.110
71896W        W44321  42.847   8.187  11.979
71897W        W44322  39.028  10.734   2.854
71898W        W44323  24.978  32.638   2.652
71899W        W44324   3.871  10.606   4.169
71900W        W44325  28.133  10.837   0.860
71901W        W44326   1.284  17.356   2.245
71902W        W44327  20.900  10.057  10.125
71903W        W44328  38.548  21.708  13.424
71904W        W44329  40.749   1.523   4.154
71905W        W44330   0.474  29.393  11.166
71906W        W44331  30.955   1.417  12.405
71907W        W44332  39.505  22.195  11.145
71908W        W44333  17.570  21.795   2.884
71909W        W44334  33.044  17.530  12.646
71910W        W44335  30.690  25.219  14.403
71911W        W44336  36.814  42.844   1.907
71912W        W44337   3.243  28.481  14.753
71913W        W44338  13.640  31.157   2.157
71914W        W44339  40.557  35.761   2.198
71915W        W44340  10.840  24.142   9.517
71916W        W44341  32.128   0.987  12.364
71917W        W44342  22.174  42.729   4.825
71918W        W44343  13.168  24.402  12.858
71919W        W44344  31.536  33.569  14.903
71920W        W44345   3.814  42.916   2.458
71921W        W44346  30.738   3.755   2.925
71922W        W44347  27.813  27.885  13.662
71923W        W44348   9.575   0.719  14.298
71924W        W44349  22.240  25.086   2.293
71925W        W44350   3.265  28.616   3.812
71926W        W44351  35.856  24.155   4.119
71927W        W44352  20.165  41.847   4.232
71928W        W44353   6.831  11.868  14.025
71929W        W44354   2.937  41.723  13.263
71930W        W44355  24.477  26.542  10.788
71931W        W44356  32.189  25.932  13.540
71932W        W44357  24.146  13.109  12.407
71933W        W44358  37.234  31.143   2.839
71934W        W44359  12.106  27.363   0.309
71935W        W44360  31.948  25.036   1.359
71936W        W44361   8.178  36.527   2.042
71937W        W44362  19.234  25.593   4.651
71938W        W44363  35.363  29.702   1.972
71939W        W44364   9.379  14.298   2.823
71940W        W44365   5.063  32.758  13.392
71941W        W44366  12.230  10.636   3.521
71942W        W44367  18.343   6.137   0.342
71943W        W44368  30.590   6.863   1.179
71944W        W44369  11.678   4.208  10.992
71945W        W44370  27.733  30.337   5.090
71946W        W44371  42.877  26.708  10.806
71947W        W44372   3.377  35.985  11.650
71948W        W44373  33.066  24.498   1.787
71949W        W44374  16.142  27.594  10.727
71950W        W44375   4.782  38.343   3.108
71951W        W44376  34.391  23.787   1.691
71952W        W44377  24.318  43.797   4.427
71953W        W44378  43.527  43.262  14.685
71954W        W44379  16.176  40.285   3.291
71955W        W44380  41.001   5.610  11.319
71956W        W44381  23.998  14.081  14.574
71957W        W44382   3.168  36.087  12.448
71958W        W44383  41.477   5.788   1.420
71959W        W44384  21.011  15.813   4.689
71960W        W44385  38.795  28.967  12.782
71961W        W44386  37.263  39.423  13.455
71962W        W44387   5.714  43.017  12.936
71963W        W44388  17.838  26.468  11.457
71964W        W44389  29.785   0.214   2.723
71965W        W44390  26.658  12.356   0.014
71966W        W44391  17.050  26.084  12.063
71967W        W44392   4.864  31.788   0.749
71968W        W44393  11.841   4.520   4.972
71969W        W44394   0.767   0.395  14.395
71970W        W44395  38.758  10.336   3.648
71971W        W44396  31.994  28.088  12.813
71972W        W44397  31.841  23.475   2.133
71973W        W44398  35.105  20.605  14.961
71974W        W44399  32.644  33.609  14.302
71975W        W44400   1.892  38.776  13.561
71976W        W44401  12.064  14.852  11.504
71977W        W44402  24.807  25.753  11.318
71978W        W44403  31.499   0.092   0.845
71979W        W44404  21.066  17.326   2.254
71980W        W44405  28.614  12.282  13.548
71981W        W44406  33.971   6.454   3.576
71982W        W44407  13.847  28.640   0.804
71983W        W44408   8.724  17.338  12.899
71984W        W44409  44.888  12.340  13.359
71985W        W44410  19.096  11.595   0.383
71986W        W44411  16.667  33.258  11.541
71987W        W44412  12.640  37.124   3.586
71988W        W44413  31.923  32.062   3.692
71989W        W44414  16.661  30.391   1.183
71990W        W44415  27.776   8.130   2.646
71991W        W44416  40.410  41.520   3.212
71992W        W44417  29.913  11.252  11.281
71993W        W44418  33.141  16.856   3.796
71994W        W44419   8.574  44.969   3.250
71995W        W44420  32.012  31.551   0.042
71996W        W44421   6.592   1.979  13.470
71997W        W44422  37.308  40.936  13.476
71998W        W44423  13.876  10.889  14.281
71999W        W44424   9.452  23.779  14.268
72000W        W44425  12.190  43.805  11.086
72001W        W44426  17.217  36.398   2.142
72002W        W44427  16.386   6.228  11.162
72003W        W44428  17.139  21.507  13.097
72004W        W44429  21.473   7.097  11.053
72005W        W44430  42.614  24.535  13.385
72006W        W44431  21.359  24.530   1.637
72007W        W44432  24.720  33.984   3.340
72008W        W44433  13.619   1.544   4.538
72009W        W44434  15.017  33.948   4.524
72010W        W44435  35.095  43.399   1.218
72011W        W44436   7.093  39.263   1.694
72012W        W44437  42.370  21.476  12.759
72013W        W44438  30.240  26.641   1.874
72014W        W44439  43.615  10.388  12.024
72015W        W44440  31.866  28.461   0.695
72016W        W44441  10.713   8.010   3.267
72017W        W44442  12.084  37.579  10.977
72018W        W44443  16.541  23.689   4.575
72019W        W44444  26.635   1.875   4.459
72020W        W44445   5.502  31.574   3.629
72021W        W44446  23.063  31.193  10.941
72022W        W44447  16.767  35.005   9.355
72023W        W44448  22.304  11.820   9.825
72024W        W44449   4.384   6.694  14.526
72025W        W44450  13.850  38.568  13.360
72026W        W44451   5.191  44.535   1.196
72027W        W44452  44.249   1.911   0.680
72028W        W44453  43.932   1.551  12.212
72029W        W44454  21.554  13.660  12.639
72030W        W44455  29.585  23.996  14.808
72031W        W44456  41.956  15.738  10.692
72032W        W44457  42.832  31.081  14.564
72033W        W44458  12.048   6.420  14.016
72034W        W44459  38.915   2.162   4.512
72035W        W44460  22.921  12.192  11.596
72036W        W44461   5.691  34.945  12.937
72037W        W44462  41.545  17.743   1.855
72038W        W44463  10.910  23.113  10.423
72039W        W44464  13.604  40.805  11.622
72040W        W44465  26.674  10.076  14.359
72041W        W44466  36.532  21.740  14.564
72042W        W44467  22.160  42.746   2.750
72043W        W44468  22.453   0.503  10.258
72044W        W44469  41.604   1.393  12.418
72045W        W44470  21.757  20.027  11.610
72046W        W44471   3.913  31.765  14.491
72047W        W44472  27.065  18.057   0.021
72048W        W44473   0.786  17.676   3.207
72049W        W44474  17.596   7.159  11.589
72050W        W44475  37.337  31.747   4.675
72051W        W44476  18.599   1.372  13.583
72052W        W44477   8.828  38.915   5.290
72053W        W44478  22.076  39.472   4.157
72054W        W44479  29.084  33.629   1.463
72055W        W44480  36.329  31.218   3.290
72056W        W44481   0.501  32.041   4.964
72057W        W44482   8.309   0.005  11.684
72058W        W44483  21.775  44.357  12.757
72059W        W44484  40.788   3.349  14.430
72060W        W44485   3.964  34.449   0.876
72061W        W44486  24.165   5.836   1.097
72062W        W44487   3.125  22.352   2.329
72063W        W44488  27.823  11.858   3.198
72064W        W44489  25.499  22.654  13.930
72065W        W44490  21.974   8.427   4.544
72066W        W44491  15.425  34.882   4.809
72067W        W44492  36.438  26.018  13.971
72068W        W44493   0.990  21.285  12.474
72069W        W44494   2.960  23.612   2.602
72070W        W44495   1.000  13.914  12.483
72071W        W44496  35.899  11.166   2.320
72072W        W44497  34.009  34.197  12.022
72073W        W44498  12.163   7.574  10.609
72074W        W44499  40.287  38.213  14.033
72075W        W44500  27.193  12.399  11.046
72076W        W44501  44.945  11.905  11.896
72077W        W44502  19.706   4.648  14.074
72078W        W44503  37.563  13.775   2.858
72079W        W44504   5.603  35.793  13.056
72080W        W44505   4.888   8.852   3.271
72081W        W44506  32.441  37.577  12.583
72082W        W44507  28.988  14.441  11.028
72083W        W44508  11.190  39.765  10.788
72084W        W44509  43.564  13.829  11.280
72085W        W44510   1.280  35.202  14.490
72086W        W44511  16.104   0.720   2.833
72087W        W44512  32.160  37.434  14.494
72088W        W44513  11.128   1.532   1.859
72089W        W44514  22.474  26.551   2.459
72090W        W44515   7.817  15.319   2.865
72091W        W44516   4.200  23.109  12.402
72092W        W44517  10.202   5.604  14.383
72093W        W44518   8.650  35.853   2.154
72094W        W44519  41.953  27.155   3.378
72095W        W44520  39.016  27.940   4.357
72096W        W44521  28.719  38.755   4.625
72097W        W44522  13.401   3.870   5.008
72098W        W44523  29.961  25.009  11.175
72099W        W44524   0.292  20.938   3.703
72100W        W44525   3.702  37.669   2.916
72101W        W44526  39.166  15.605  14.307
72102W        W44527   7.372  28.499  14.001
72103W        W44528  25.125   0.202   1.883
72104W        W44529  18.586  35.428  11.206
72105W        W44530  31.796  38.639   1.927
72106W        W44531  13.913  11.714   4.070
72107W        W44532  39.867  16.998  14.889
72108W        W44533   7.220  17.171   1.881
72109W        W44534  32.579   1.641  12.893
72110W        W44535  35.416  13.020   4.583
72111W        W44536  32.026  33.840   1.034
72112W        W44537   0.863   2.975   3.050
72113W        W44538  40.956  26.986   4.767
72114W        W44539  22.704  17.709   0.951
72115W        W44540  33.943  38.519  10.964
72116W        W44541   6.096  43.639  12.022
72117W        W44542  34.424  25.014  14.211
72118W        W44543  43.746  24.556  13.989
72119W        W44544  44.389  19.779  14.900
72120W        W44545  37.635   3.738   0.728
72121W        W44546  10.062  41.157  14.524
72122W        W44547  36.872  10.872   0.004
72123W        W44548  26.139  33.359   0.871
72124W        W44549  20.013  25.130   5.029
72125W        W44550  34.341  43.211   0.404
72126W        W44551  28.604  23.055  10.617
72127W        W44552   2.825   3.390  10.897
72128W        W44553  20.956  42.228  10.965
72129W        W44554  10.968  19.281  10.529
72130W        W44555  31.454  32.059  10.736
72131W        W44556  34.620  35.874  13.054
72132W        W44557  25.219  13.128  11.969
72133W        W44558  38.017  10.298  12.460
72134W        W44559  38.025  18.743  13.029
72135W        W44560  43.291  41.797   0.338
72136W        W44561   7.179  43.997   3.642
72137W        W44562   3.035   1.387  14.846
72138W        W44563  13.718  11.875   4.526
72139W        W44564   7.415   0.884   0.830
72140W        W44565  38.066  38.379   4.831
72141W        W44566  19.586  19.679  14.338
72142W        W44567  40.525   0.798  11.185
72143W        W44568  15.473  18.721  13.798
72144W        W44569  13.428  11.768  12.049
72145W        W44570  36.637   2.960  11.511
72146W        W44571  43.659   5.288  12.786
72147W        W44572  22.787   8.083  11.605
72148W        W44573  42.125   1.635  12.046
72149W        W44574   1.192   3.387   3.144
72150W        W44575   4.902   9.374   2.406
72151W        W44576  44.643  27.861  12.948
72152W        W44577  17.796  42.920  11.704
72153W        W44578  20.339  21.234  10.245
72154W        W44579  24.269  13.840   1.820
72155W        W44580  12.868  44.948   2.857
72156W        W44581  40.071  10.410   2.774
72157W        W44582  31.593  34.210  11.379
72158W        W44583  24.701  26.397   0.095
72159W        W44584  19.945  32.838   0.454
72160W        W44585   2.415   3.972   4.610
72161W        W44586   9.026  33.933  12.162
72162W        W44587  13.300  35.198   1.898
72163W        W44588  35.974  10.870   3.328
72164W        W44589  34.940  28.949   3.756
72165W        W44590   1.948   5.812   2.364
72166W        W44591   9.396   9.873   1.779
72167W        W44592  34.803  18.064   2.346
72168W        W44593  24.798  44.981  11.391
72169W        W44594  44.355  32.000   1.750
72170W        W44595   2.272   6.871  12.398
72171W        W44596   6.936  10.741  11.147
72172W        W44597  30.208  39.080   1.868
72173W        W44598  22.367   7.781  12.524
72174W        W44599  41.381  37.969  12.927
72175W        W44600  35.559  26.551   1.153
72176W        W44601  11.640  21.016  12.987
72177W        W44602  31.443  32.121   0.495
72178W        W44603  16.371  23.244  11.375
72179W        W44604   7.921  31.054  12.364
72180W        W44605   5.868   9.180  13.237
72181W        W44606  43.908   0.219   4.482
72182W        W44607  41.360  12.338  13.310
72183W        W44608  31.559  21.519   4.995
72184W        W44609  11.895   1.507  10.472
72185W        W44610  13.267  24.236   2.647
72186W        W44611  34.914  16.766   2.703
72187W        W44612  11.218  24.450   2.682
72188W        W44613  43.050   8.380  11.547
72189W        W44614  13.158  22.600  11.037
72190W        W44615   2.311  12.775   0.493
72191W        W44616  12.565   9.468   3.810
72192W        W44617  26.589   4.799   5.078
72193W        W44618  14.170  15.028  14.953
72194W        W44619  34.594  37.437   5.025
72195W        W44620  18.674  33.826   1.501
72196W        W44621   0.780  40.868   3.262
72197W        W44622  31.012   3.975  13.428
72198W        W44623  27.155  27.441   0.631
72199W        W44624  25.018  41.512  11.217
72200W        W44625   8.823   1.253  12.963
72201W        W44626  23.529   8.380   1.796
72202W        W44627  14.245  18.516  14.281
72203W        W44628  41.642  34.054  13.625
72204W        W44629  36.916  25.750  12.150
72205W        W44630  32.099  10.207   0.913
72206W        W44631  26.021   0.307   2.254
72207W        W44632  30.637  38.170  11.570
72208W        W44633   2.521  18.749   1.440
72209W        W44634  32.390   1.422  12.441
72210W        W44635  33.198  32.977   2.224
72211W        W44636  16.307  40.905  11.923
72212W        W44637  35.087  25.955  14.041
72213W        W44638  16.804  43.336   1.718
72214W        W44639  25.269  42.920   3.462
72215W        W44640  36.559  32.499  11.406
72216W        W44641  14.685  28.486   0.387
72217W        W44642  13.286  24.731  10.555
72218W        W44643   7.400  38.474   4.758
72219W        W44644  41.077  39.952   3.647
72220W        W44645  22.883  31.918   2.442
72221W        W44646  10.505  19.624   4.680
72222W        W44647  44.471  29.004  12.991
72223W        W44648  43.052  15.345   0.421
72224W        W44649  29.502  32.982   3.186
72225W        W44650   7.249   6.768  14.320
72226W        W44651  21.223   7.822   3.156
72227W        W44652  35.898  42.537  13.884
72228W        W44653  33.374  21.529   2.356
72229W        W44654   1.838  22.659   3.499
72230W        W44655  14.661  11.789  14.312
72231W        W44656  20.091  29.451  10.647
72232W        W44657  39.989  43.366   2.554
72233W        W44658  15.093  44.510  13.391
72234W        W44659   0.796  25.390  10.694
72235W        W44660  44.749   4.727   4.125
72236W        W44661  18.276  37.902  10.653
72237W        W44662  15.299  15.811  14.957
72238W        W44663  40.244  18.783  12.225
72239W        W44664  38.380   6.795  11.930
72240W        W44665   0.687  40.338  11.839
72241W        W44666  17.012  29.781   1.652
72242W        W44667  44.650  15.055   0.820
72243W        W44668  37.544  28.923   4.200
72244W        W44669  19.671  36.560  13.850
72245W        W44670  35.647  20.617   3.695
72246W        W44671  28.506  15.020   0.635
72247W        W44672  17.386   2.789   2.193
72248W        W44673  23.164   1.347   2.361
72249W        W44674   5.918  37.053  11.024
72250W        W44675  27.642  30.085  11.045
72251W        W44676  11.220  42.992  12.102
72252W        W44677   1.818   6.634  14.061
72253W        W44678  32.882  28.238  11.465
72254W        W44679  24.191  10.993   3.348
72255W        W44680  37.771  11.716  13.997
72256W        W44681  40.413  14.269  11.711
72257W        W44682   1.225  24.925  13.582
72258W        W44683  29.039  29.144   4.422
72259W        W44684   8.713  10.241   3.173
72260W        W44685  12.057  44.365  12.278
72261W        W44686   2.843  33.555  12.802
72262W        W44687  39.747  27.744   3.895
72263W        W44688   2.404  32.007  12.513
72264W        W44689  39.362   4.370   4.464
72265W        W44690  25.331  35.302   3.083
72266W        W44691  21.662  10.313  10.741
72267W        W44692  24.453  16.385   1.031
72268W        W44693   4.964  19.579   1.703
72269W        W44694   1.191  24.068  12.558
72270W        W44695  41.008  16.085  12.875
72271W        W44696  15.709   1.076   1.256
72272W        W44697  13.148  37.999   3.755
72273W        W44698  26.393   7.203  13.995
72274W        W44699  35.282  16.075   4.142
72275W        W44700   3.203  13.617  11.520
72276W        W44701   1.682  43.987   1.753
72277W        W44702  34.960  20.045  14.371
72278W        W44703  36.403  21.276  11.444
72279W        W44704  31.757  40.791  10.203
72280W        W44705   0.320  37.403  13.246
72281W        W44706  21.797  25.480   1.860
72282W        W44707  24.168  23.594   0.451
72283W        W44708   5.037   4.910   5.019
72284W        W44709  38.028   7.790   0.431
72285W        W44710   0.042   5.964   2.752
72286W        W44711  16.746  32.483   1.174
72287W        W44712   1.461  10.641  11.428
72288W        W44713  36.167  14.724   1.989
72289W        W44714  35.566   3.612  14.770
72290W        W44715  23.469   2.719   4.603
72291W        W44716  11.316   1.031  13.785
72292W        W44717   2.976  34.118   2.251
72293W        W44718  10.921  16.050  12.299
72294W        W44719  10.838  44.048   2.740
72295W        W44720  14.898   4.280  10.471
72296W        W44721  25.466  24.271   1.022
72297W        W44722  15.141  22.614   3.816
72298W        W44723  34.093  25.147   2.493
72299W        W44724  43.530  13.604   3.176
72300W        W44725  34.470  26.425  13.537
72301W        W44726  34.852  13.504  14.894
72302W        W44727  14.237  27.718  14.408
72303W        W44728  35.837  15.902  12.530
72304W        W44729  15.215  21.459   1.452
72305W        W44730   8.661  17.310  10.720
72306W        W44731  38.470  20.595  10.673
72307W        W44732  25.068  17.294   2.864
72308W        W44733  20.674  16.258   4.740
72309W        W44734  36.358  22.542   1.919
72310W        W44735   2.746  20.598   0.393
72311W        W44736  40.763  15.748  13.231
72312W        W44737  14.630  11.654  14.815
72313W        W44738   7.872  21.122   1.784
72314W        W44739  38.741  43.234  12.290
72315W        W44740  42.489  26.017  14.460
72316W        W44741  43.248  34.119   1.175
72317W        W44742  30.364   2.323   1.944
72318W        W44743  28.596  22.369   0.865
72319W        W44744  44.561  21.157  14.760
72320W        W44745  29.141  15.067   4.394
72321W        W44746  36.334  15.267   0.236
72322W        W44747   5.483  16.051  14.389
72323W        W44748  41.348  14.005  10.532
72324W        W44749   9.695  26.240  13.960
72325W        W44750  27.105  38.375  13.383
72326W        W44751  37.014  19.975  11.590
72327W        W44752  37.842  24.292  11.920
72328W        W44753  22.172  33.617   0.382
72329W        W44754  22.443  36.502   2.987
72330W        W44755  34.578   2.033  14.337
72331W        W44756  21.949  19.035   0.605
72332W        W44757   5.969   0.977   0.758
72333W        W44758  25.646  40.673  14.476
72334W        W44759  38.466   7.387   2.488
72335W        W44760  44.093  36.286   0.029
72336W        W44761   4.927  38.852  10.717
72337W        W44762  33.822   9.888   0.288
72338W        W44763  17.897  44.295   1.334
72339W        W44764  17.884  28.044   3.774
72340W        W44765  25.149  25.670  13.792
72341W        W44766  31.467  43.373  11.533
72342W        W44767  20.536  21.987  13.832
72343W        W44768  11.102   6.075  13.842
72344W        W44769  16.509  29.506   2.335
72345W        W44770  34.020  18.715   2.123
72346W        W44771  35.351  23.597  10.623
72347W        W44772  33.471  30.703  13.029
72348W        W44773  22.568  20.954   3.711
72349W        W44774  16.352  35.393   4.756
72350W        W44775  41.822  34.466   2.915
72351W        W44776  43.877  20.178   5.557
72352W        W44777  40.730  20.769  11.077
72353W        W44778  19.203  13.846   3.125
72354W        W44779  35.062  29.011  14.444
72355W        W44780  16.809  44.363   4.357
72356W        W44781  13.160  10.834  14.813
72357W        W44782   6.185  13.562  10.442
72358W        W44783  29.887  17.861  11.270
72359W        W44784  21.657  13.961   4.301
72360W        W44785  34.727  40.381   5.186
72361W        W44786  26.606  27.042   0.864
72362W        W44787  28.429   2.481  12.000
72363W        W44788  26.044  12.817   3.422
72364W        W44789  40.425  12.911   1.827
72365W        W44790  14.655  32.863   3.319
72366W        W44791   8.181   2.383   2.730
72367W        W44792  34.946   2.826   4.076
72368W        W44793   9.927  31.143   3.527
72369W        W44794   6.374   8.576   2.001
72370W        W44795   3.715  16.716  10.916
72371W        W44796   2.509  25.014  13.897
72372W        W44797   1.317  40.021  10.589
72373W        W44798  16.684   8.835  12.599
72374W        W44799  37.577  38.918  11.987
72375W        W44800  10.215   0.285   1.874
72376W        W44801   3.867  37.079  14.186
72377W        W44802  37.283   5.228   3.776
72378W        W44803  30.921  25.207   2.284
72379W        W44804   9.153  21.554   3.679
72380W        W44805  35.236  31.505   3.348
72381W        W44806  18.735  24.928   4.927
72382W        W44807   2.331   3.191  10.992
72383W        W44808  41.864   5.716  11.734
72384W        W44809  32.887  36.364   2.817
72385W        W44810   4.745  16.239  12.316
72386W        W44811  41.337  44.072   3.219
72387W        W44812  20.167  30.144   0.286
72388W        W44813  42.370  13.645  10.993
72389W        W44814  30.059  10.623  11.994
72390W        W44815  27.568   6.250  13.809
72391W        W44816  13.254  18.547  11.392
72392W        W44817  18.442  11.412  14.843
72393W        W44818   5.444   5.719  10.762
72394W        W44819  16.683  21.491  14.040
72395W        W44820  42.059  18.813  11.082
72396W        W44821  14.689  36.420   0.786
72397W        W44822   5.765  23.552   3.029
72398W        W44823  30.004   9.967  13.892
72399W        W44824   0.716  11.267  11.286
72400W        W44825   6.767  15.023   4.454
72401W        W44826  42.538  19.379  13.965
72402W        W44827  41.768  11.662  14.690
72403W        W44828   1.810  33.790   4.731
72404W        W44829  20.721  34.013  13.294
72405W        W44830  10.278  10.350  11.936
72406W        W44831  44.980  25.032   4.416
72407W        W44832   8.397  23.626   2.581
72408W        W44833   0.469   5.181  14.798
72409W        W44834  21.589  32.291  12.808
72410W        W44835   1.529   8.915   1.236
72411W        W44836   6.798  27.001   2.634
72412W        W44837  19.211  34.546   1.915
72413W        W44838   2.885  26.069  12.220
72414W        W44839  32.855   9.704   2.756
72415W        W44840  43.050  12.171   4.186
72416W        W44841  23.937  21.144  12.429
72417W        W44842  33.626  30.977   0.864
72418W        W44843   0.833  34.055  11.928
72419W        W44844  35.656  18.622  11.599
72420W        W44845  37.380  14.672   4.227
72421W        W44846  37.940   0.859   0.573
72422W        W44847  12.400  16.178   0.281
72423W        W44848  27.654  20.277   4.170
72424W        W44849  24.300  22.530  14.492
72425W        W44850  44.752  28.925  12.149
72426W        W44851  33.531  14.202  10.663
72427W        W44852   5.673   6.191  11.592
72428W        W44853  32.583  42.885   4.688
72429W        W44854  22.392  38.493  13.800
72430W        W44855  29.410  15.764  12.993
72431W        W44856   3.785  18.512  11.534
72432W        W44857   4.135  25.848  14.885
72433W        W44858  29.058  37.881  13.740
72434W        W44859  30.424  11.476  10.961
72435W        W44860   9.267  31.616  13.983
72436W        W44861  10.739  27.817   2.987
72437W        W44862  38.441   3.568   3.466
72438W        W44863   1.858  31.175  12.491
72439W        W44864  30.447  44.544  11.554
72440W        W44865  29.701  24.171   1.169
72441W        W44866  26.009  10.140   3.742
72442W        W44867  20.319  43.444   2.682
72443W        W44868  32.867  13.643   3.649
72444W        W44869  36.625  24.617   0.329
72445W        W44870  13.146  31.423   4.103
72446W        W44871  13.823   8.406  10.684
72447W        W44872  11.847  18.686   0.342
72448W        W44873  11.714  16.608  12.451
72449W        W44874  28.680  13.827   1.083
72450W        W44875   8.069  21.463  10.378
72451W        W44876   0.299  24.551  12.447
72452W        W44877  27.396   3.958  13.596
72453W        W44878  21.432   3.907  12.019
72454W        W44879  31.620  34.926   1.704
72455W        W44880   6.733  12.865  12.562
72456W        W44881   4.216  29.934  14.368
72457W        W44882  22.226  24.950  10.526
72458W        W44883  14.413  21.567   4.233
72459W        W44884  15.838  16.941  11.910
72460W        W44885  39.497  24.709   3.310
72461W        W44886  12.430   5.172  13.913
72462W        W44887  27.347  44.910   3.751
72463W        W44888   6.355  28.406  11.163
72464W        W44889  14.394  41.714   0.521
72465W        W44890  33.343   3.213  11.546
72466W        W44891  36.878   8.849  13.420
72467W        W44892   2.937   5.942   1.470
72468W        W44893  35.364   8.421   4.191
72469W        W44894  10.665  11.751   3.697
72470W        W44895  43.249   0.889   2.205
72471W        W44896  22.542  38.404   2.144
72472W        W44897  37.995  34.882  12.022
72473W        W44898  33.844  43.946  14.614
72474W        W44899  38.101  30.490   3.463
72475W        W44900  29.301  43.852   0.896
72476W        W44901  22.602  40.373   3.720
72477W        W44902  27.903  42.038  11.549
72478W        W44903  37.464  30.592  11.566
72479W        W44904  32.612  20.855  14.949
72480W        W44905  28.233  30.473   4.197
72481W        W44906  32.416  12.328  12.942
72482W        W44907  20.448   3.705  11.651
72483W        W44908  27.360  34.554  14.519
72484W        W44909  44.811  17.306  11.336
72485W        W44910   4.714  28.158  11.389
72486W        W44911  36.148  17.634  12.442
72487W        W44912  10.303  32.623  11.947
72488W        W44913  12.214  28.730   3.733
72489W        W44914  31.132  16.517   2.299
72490W        W44915   5.747   4.239  12.356
72491W        W44916  22.688  20.963   2.442
72492W        W44917  15.562  44.268  10.499
72493W        W44918  35.015  34.882  11.283
72494W        W44919  40.541  37.008  10.511
72495W        W44920  21.521  28.194  11.079
72496W        W44921  41.865   7.492   3.098
72497W        W44922  42.830   4.772   1.294
72498W        W44923  40.876   2.859  11.639
72499W        W44924  32.056  42.091  11.995
72500W        W44925  42.374   9.168  12.281
72501W        W44926  16.059  40.306   2.780
72502W        W44927   2.431  20.946  13.795
72503W        W44928  23.184   0.447   4.160
72504W        W44929  43.509  36.225   3.192
72505W        W44930  12.217  38.885  14.395
72506W        W44931  30.062  42.390   2.548
72507W        W44932   5.445   1.461  12.107
72508W        W44933   0.881  30.822  14.246
72509W        W44934   2.777  38.028   4.192
72510W        W44935  42.805  19.711  10.389
72511W        W44936   4.496  38.472  14.555
72512W        W44937  32.621   1.279   0.353
72513W        W44938  24.766  44.085  14.317
72514W        W44939  13.642   8.440  14.142
72515W        W44940  16.555  21.518   2.249
72516W        W44941  21.434  19.694   3.453
72517W        W44942   1.483   5.257   3.590
72518W        W44943   5.380  39.907   4.536
72519W        W44944  43.009  28.848   3.712
72520W        W44945  36.544  29.078   2.807
72521W        W44946  33.735   6.916   1.454
72522W        W44947  43.391  41.124   2.711
72523W        W44948  26.251  19.809   0.848
72524W        W44949  10.751  11.846   2.806
72525W        W44950  15.611  32.137   4.812
72526W        W44951  31.420  33.058   1.869
72527W        W44952   7.368  32.461   4.337
72528W        W44953  12.333   1.168   2.237
72529W        W44954  28.184  10.319  11.103
72530W        W44955  23.227  42.408   4.214
72531W        W44956  31.544   7.250  14.321
72532W        W44957   0.413  16.769   3.200
72533W        W44958  32.530  40.075   3.659
72534W        W44959   8.861   1.497   4.114
72535W        W44960  44.317  21.262   1.672
72536W        W44961  13.342  42.384  12.461
72537W        W44962  27.049  26.623   1.387
72538W        W44963  26.469  33.927   3.782
72539W        W44964   2.696  38.083  11.030
72540W        W44965  41.895  42.859  13.479
72541W        W44966  14.238  29.525   2.936
72542W        W44967  24.597  17.794  13.743
72543W        W44968   0.808  12.999   3.699
72544W        W44969  38.271  12.848  14.857
72545W        W44970  12.054  15.353  11.399
72546W        W44971  10.865  11.084   0.767
72547W        W44972  39.150  10.044  11.911
72548W        W44973   3.461  25.731   0.944
72549W        W44974  44.573  44.165   3.353
72550W        W44975  39.361  31.369   0.843
72551W        W44976  21.287  14.326  12.415
72552W        W44977   2.917  30.821  11.082
72553W        W44978  41.618  40.944   2.271
72554W        W44979  44.892  40.849  13.308
72555W        W44980  43.711  27.597   3.937
72556W        W44981   9.968  34.443   2.868
72557W        W44982  41.373  25.157   4.460
72558W        W44983  41.799  14.208  10.720
72559W        W44984   6.379  23.641  14.552
72560W        W44985   9.236  30.492  13.279
72561W        W44986  22.185  34.087  10.936
72562W        W44987  28.216  24.103  10.129
72563W        W44988  34.920   8.060  14.354
72564W        W44989  43.240  43.078  12.914
72565W        W44990  20.485  14.135  10.904
72566W        W44991  18.771  28.243  14.913
72567W        W44992   5.355  42.323  11.082
72568W        W44993  37.349  16.102  14.425
72569W        W44994  34.607  38.683  13.987
72570W        W44995  34.797  23.173  12.376
72571W        W44996  15.197  15.474   2.734
72572W        W44997   3.741  24.250   3.242
72573W        W44998  32.032  21.209   2.473
72574W        W44999  42.007   7.670  11.961
72575W        W45000  42.414  22.591  13.726
72576W        W45001  23.660  39.331  14.959
72577W        W45002  14.331  28.085  11.126
72578W        W45003  11.862  31.457   1.270
72579W        W45004  36.839  19.592  11.246
72580W        W45005  21.281  33.763  13.744
72581W        W45006  37.639  36.582   4.687
72582W        W45007   3.700  43.780   4.072
72583W        W45008  20.050  30.486  10.779
72584W        W45009  33.162   6.465   4.181
72585W        W45010   1.706  14.065  14.362
72586W        W45011  43.262  31.855  13.578
72587W        W45012  36.956  35.247  11.567
72588W        W45013  13.664  14.304   3.652
72589W        W45014  40.297  23.026  12.038
72590W        W45015  24.574  23.041  12.010
72591W        W45016  24.549  12.386  11.229
72592W        W45017  30.089   8.352  12.181
72593W        W45018  22.023  40.788   1.976
72594W        W45019  15.210  20.613   2.778
72595W        W45020   8.943  23.964  13.657
72596W        W45021   1.449  39.795  12.372
72597W        W45022  10.241  25.380   0.927
72598W        W45023  26.078  31.355   1.251
72599W        W45024  26.061  11.055   4.420
72600W        W45025  41.078  10.068  11.193
72601W        W45026  20.565   0.408   2.565
72602W        W45027  23.514   2.758  11.604
72603W        W45028  37.892  21.974  11.555
72604W        W45029  28.052  36.910  10.227
72605W        W45030  43.606  34.521  12.949
72606W        W45031  22.232  29.982  12.067
72607W        W45032  35.886  32.574  13.933
72608W        W45033  18.491  22.668   3.584
72609W        W45034   8.398   9.670   3.785
72610W        W45035  32.203  43.716   3.179
72611W        W45036  35.631  40.590   2.235
72612W        W45037  41.791  25.387  10.848
72613W        W45038  31.135  36.518   3.175
72614W        W45039  23.721  41.972  13.568
72615W        W45040  13.752  36.060   3.340
72616W        W45041  40.952   2.772   4.088
72617W        W45042  42.766  21.186   2.429
72618W        W45043  40.415  26.006   0.263
72619W        W45044  31.294   0.518  13.824
72620W        W45045  18.285  26.588  11.940
72621W        W45046   6.483  38.829  10.695
72622W        W45047   2.842  29.721   3.661
72623W        W45048  37.995  40.320  11.583
72624W        W45049  25.518   6.642   2.317
72625W        W45050  10.110   0.031   2.307
72626W        W45051  43.820   6.868  12.590
72627W        W45052   4.578  34.835  14.818
72628W        W45053  11.494  30.366   4.148
72629W        W45054  44.539   8.291  12.866
72630W        W45055   7.225   8.712   0.426
72631W        W45056  27.735  42.002  11.052
72632W        W45057   8.315   0.876  13.571
72633W        W45058  19.298  34.194   2.265
72634W        W45059  35.484  41.976  10.786
72635W        W45060  39.091   8.133  14.973
72636W        W45061   3.687  40.729  12.106
72637W        W45062  21.408  17.374   4.426
72638W        W45063  18.677   5.200   4.694
72639W        W45064  24.992   0.981  14.431
72640W        W45065  25.162  21.629  13.493
72641W        W45066  16.625  40.853  14.714
72642W        W45067  15.154  41.291  14.418
72643W        W45068  29.379   0.758  12.885
72644W        W45069  32.807  31.837   3.796
72645W        W45070  20.096  37.047  12.286
72646W        W45071  41.296  21.260   3.425
72647W        W45072  23.143  13.345   3.621
72648W        W45073   7.997  40.118  13.857
72649W        W45074  12.806   6.384  12.035
72650W        W45075  27.210   2.032  14.522
72651W        W45076  18.668  22.662  14.739
72652W        W45077  12.357  18.634   0.181
72653W        W45078   2.215  44.662  13.837
72654W        W45079  28.711  19.601   3.640
72655W        W45080  25.694  43.523   0.320
72656W        W45081  42.601  44.864   4.694
72657W        W45082  41.836  35.708  12.499
72658W        W45083  10.875  16.215  12.799
72659W        W45084  14.072  39.312   3.240
72660W        W45085  11.206  34.103   0.288
72661W        W45086   3.208  41.411  12.547
72662W        W45087  12.285  39.339  13.327
72663W        W45088  10.396  15.641  11.957
72664W        W45089  37.751  22.765  11.125
72665W        W45090  28.544  38.648  10.966
72666W        W45091   6.351   1.941  11.149
72667W        W45092  21.263  30.575  10.309
72668W        W45093   7.847  37.550  14.273
72669W        W45094  26.745  10.894  11.928
72670W        W45095  11.732  32.452  12.971
72671W        W45096   8.379  21.688   2.359
72672W        W45097  13.616   5.875  14.847
72673W        W45098  28.592  44.928   4.437
72674W        W45099  29.448   3.234  14.077
72675W        W45100  22.410   6.600  10.186
72676W        W45101  13.814   5.454   2.873
72677W        W45102   9.811  27.020   0.576
72678W        W45103  15.667  13.665   3.724
72679W        W45104  30.897  28.896  14.047
72680W        W45105  28.634  42.134   0.698
72681W        W45106  39.898  41.095  11.602
72682W        W45107   7.920  41.326   2.692
72683W        W45108  40.042  16.365  10.653
72684W        W45109  15.520  26.271   3.251
72685W        W45110  15.609  16.659  13.990
72686W        W45111  18.607  34.517  12.759
72687W        W45112   0.277  42.937  10.429
72688W        W45113  26.981  40.863   4.563
72689W        W45114  31.120  39.777   4.582
72690W        W45115  23.163   9.841   0.903
72691W        W45116  41.354  35.948  12.493
72692W        W45117  30.282   6.108   2.758
72693W        W45118  33.926  28.020  11.998
72694W        W45119  37.288   2.744  14.043
72695W        W45120  27.234  42.082  10.681
72696W        W45121  44.384  44.404  13.850
72697W        W45122  21.750  15.035  11.413
72698W        W45123  18.549  12.279  14.030
72699W        W45124  27.640   2.697   0.848
72700W        W45125  23.290   9.343  11.619
72701W        W45126  19.686  21.089   4.058
72702W        W45127   1.381  40.303  12.520
72703W        W45128  19.304  16.674   1.214
72704W        W45129  37.061  12.532  11.253
72705W        W45130  31.655  17.575  13.511
72706W        W45131   3.485  32.391  11.174
72707W        W45132  39.593  10.809  13.139
72708W        W45133  31.139  20.077   1.849
72709W        W45134  16.094  25.677  14.406
72710W        W45135   6.711  26.167  11.356
72711W        W45136  20.027  20.438   1.885
72712W        W45137  19.307  14.617   3.660
72713W        W45138  21.943  11.808  12.242
72714W        W45139  20.206   8.163   2.848
72715W        W45140   9.440  25.562  10.922
72716W        W45141  34.084   0.958   3.784
72717W        W45142  26.566  35.889   2.351
72718W        W45143  25.440   0.321  11.933
72719W        W45144  31.880  12.146  14.396
72720W        W45145  27.928   2.852   3.133
72721W        W45146  15.543   2.491   1.365
72722W        W45147  40.244  21.219   3.225
72723W        W45148  34.360  31.415   3.732
72724W        W45149   8.901  23.754   1.399
72725W        W45150  18.683  34.487  11.858
72726W        W45151  11.284  26.985  10.785
72727W        W45152  26.809  23.376  10.246
72728W        W45153  32.499   0.832   2.742
72729W        W45154  16.027   5.779  11.890
72730W        W45155  33.903  39.825   4.378
72731W        W45156  42.277  30.566  10.722
72732W        W45157  33.406  25.259   0.915
72733W        W45158  20.663  32.460  11.466
72734W        W45159  34.068  24.905   2.951
72735W        W45160  20.007   0.934  12.455
72736W        W45161  16.437  17.022  14.291
72737W        W45162  39.377  19.127  12.099
72738W        W45163  22.289  13.971  13.501
72739W        W45164   5.445  44.338  11.140
72740W        W45165  20.211   7.914  11.183
72741W        W45166  38.099  12.047  12.379
72742W        W45167  41.705  37.897   1.700
72743W        W45168  13.199   1.465   4.226
72744W        W45169  14.309  34.476  10.239
72745W        W45170   4.948  29.438   2.656
72746W        W45171  41.584  30.301   0.052
72747W        W45172  39.386   0.332   2.657
72748W        W45173  27.223  32.410   1.662
72749W        W45174  16.144  31.988   2.189
72750W        W45175  23.254   2.505  14.841
72751W        W45176  42.382  27.768   2.409
72752W        W45177  26.544  21.655   0.228
72753W        W45178   7.955   5.554  12.650
72754W        W45179  31.013  44.344   4.177
72755W        W45180  27.080   4.963  11.569
72756W        W45181   9.822  30.153   1.452
72757W        W45182   8.801  44.684   1.188
72758W        W45183  42.673  14.837   3.933
72759W        W45184  29.944  31.296   2.677
72760W        W45185   0.411  15.588  11.393
72761W        W45186  12.211  29.337   1.094
72762W        W45187  23.962   0.970  14.485
72763W        W45188  34.036  11.704   4.236
72764W        W45189  12.941   8.752  10.597
72765W        W45190  20.907  28.454   1.897
72766W        W45191  30.488  15.236   4.005
72767W        W45192  29.692  23.012  11.548
72768W        W45193   2.791  36.041  13.074
72769W        W45194   5.341  18.989   4.245
72770W        W45195   1.970  43.873   3.860
72771W        W45196   5.876  25.982   4.112
72772W        W45197  41.754  35.351  13.833
72773W        W45198   2.794  34.353   3.616
72774W        W45199  11.563  41.444   3.750
72775W        W45200  43.248  41.305   0.433
72776W        W45201  24.635  26.199   2.744
72777W        W45202  33.867   6.507   0.486
72778W        W45203  13.140  11.827  13.327
72779W        W45204  19.545   3.655   0.496
72780W        W45205   5.936  35.899   1.703
72781W        W45206  35.073  30.440   3.304
72782W        W45207   0.159  32.638   4.198
72783W        W45208  27.907   4.620   4.165
72784W        W45209  43.989  22.462   4.376
72785W        W45210  30.259  36.354  14.973
72786W        W45211   5.218   2.763   2.433
72787W        W45212  42.798  28.501   2.714
72788W        W45213  16.604  43.435   4.073
72789W        W45214  20.131  40.102   0.671
72790W        W45215  12.341  24.207   5.021
72791W        W45216  17.126  18.096  12.951
72792W        W45217  25.344  22.732  12.920
72793W        W45218  32.131  25.802   0.698
72794W        W45219  31.539  30.922  14.964
72795W        W45220  31.574  16.966  14.893
72796W        W45221  42.806  40.802  12.088
72797W        W45222  12.840  39.874   2.538
72798W        W45223  35.784  32.989   1.949
72799W        W45224  25.171  33.923  14.484
72800W        W45225   8.904   7.951   4.904
72801W        W45226  44.050   8.210   1.869
72802W        W45227  44.554  41.176   0.712
72803W        W45228  16.676  16.119  12.083
72804W        W45229  14.138  32.556  12.939
72805W        W45230  20.148   2.500  11.171
72806W        W45231  18.300  25.172   2.291
72807W        W45232  14.872  20.944  11.652
72808W        W45233  23.275  17.100   0.412
72809W        W45234  35.341   3.126   3.902
72810W        W45235  16.074  34.896   2.793
72811W        W45236  12.911  37.300   2.691
72812W        W45237  13.810  21.455  10.748
72813W        W45238  44.402  28.765  12.527
72814W        W45239  12.652  27.168   0.839
72815W        W45240  19.997  13.241  12.676
72816W        W45241  17.586  38.594  13.472
72817W        W45242  33.896  30.457   3.699
72818W        W45243  20.179  31.225  14.298
72819W        W45244  11.217  42.842  11.210
72820W        W45245  12.825  17.117  10.648
72821W        W45246  41.182   1.740  14.815
72822W        W45247  23.034  33.417  13.515
72823W        W45248   7.799  26.755  14.442
72824W        W45249  32.952  16.971   2.015
72825W        W45250   0.264   6.002   1.344
72826W        W45251   5.912  26.873   3.507
72827W        W45252   6.214  43.966   0.547
72828W        W45253  26.285  41.493  14.418
72829W        W45254  36.383  37.050   0.685
72830W        W45255  17.545  23.875  14.904
72831W        W45256  22.351  43.712  11.148
72832W        W45257  26.913  15.564   4.724
72833W        W45258  34.558   6.270  10.753
72834W        W45259  34.545  35.903   4.319
72835W        W45260  33.542  27.966  11.003
72836W        W45261  39.359  33.036   0.067
72837W        W45262  42.275  17.597  12.201
72838W        W45263  27.563   4.603  14.692
72839W        W45264  14.662  33.982  10.997
72840W        W45265  40.405  20.737   4.893
72841W        W45266  31.544  32.776   2.282
72842W        W45267  11.764   0.772  12.082
72843W        W45268  10.730  13.943   3.842
72844W        W45269  17.299  32.393  11.092
72845W        W45270  40.131   8.837  11.799
72846W        W45271  43.029  30.330  11.014
72847W        W45272  33.625  17.240  14.558
72848W        W45273   5.656  27.585  12.930
72849W        W45274  20.878  14.694  13.495
72850W        W45275  19.999  32.383  11.159
72851W        W45276   1.036   4.402   2.781
72852W        W45277  13.595  39.341  14.068
72853W        W45278  34.351   6.646  11.642
72854W        W45279  41.433  38.413   2.231
72855W        W45280  23.215  41.343  14.932
72856W        W45281   7.806  40.486  14.975
72857W        W45282  25.626  23.038   1.072
72858W        W45283  24.167  29.055  10.428
72859W        W45284  30.967   0.937  12.074
72860W        W45285  11.386  24.388   3.615
72861W        W45286  38.777  17.782  10.673
72862W        W45287  14.367  34.995  12.138
72863W        W45288  44.976  20.686   3.374
72864W        W45289  39.672  13.275   2.879
72865W        W45290  14.036  43.767   0.305
72866W        W45291  40.317  15.056   3.694
72867W        W45292  12.603  34.101   2.355
72868W        W45293  16.068  41.785  12.876
72869W        W45294   7.748  16.646  14.189
72870W        W45295  28.508  28.604   4.736
72871W        W45296  26.016  31.437   3.921
72872W        W45297   8.793  18.475   4.596
72873W        W45298  31.170  18.868  11.137
72874W        W45299  20.810  27.698  14.572
72875W        W45300  28.694  44.002  14.487
72876W        W45301  14.986  39.373   0.494
72877W        W45302  12.419   9.720  11.525
72878W        W45303  44.057  38.029  13.813
72879W        W45304  41.594   7.512  12.222
72880W        W45305  37.467   1.995   1.993
72881W        W45306  43.296   2.710  12.066
72882W        W45307  37.873   2.278  13.437
72883W        W45308  10.294  25.514  11.621
72884W        W45309  21.809  26.362  11.651
72885W        W45310  28.069  22.645   5.133
72886W        W45311  22.940  11.583   0.698
72887W        W45312  32.409  33.540   4.724
72888W        W45313  31.495  37.595  12.407
72889W        W45314   3.971  20.989   0.265
72890W        W45315  15.634  22.820   3.654
72891W        W45316  11.507   6.799  10.855
72892W        W45317  23.078  42.473   4.712
72893W        W45318  30.177  36.927   1.323
72894W        W45319  43.361  31.154  11.331
72895W        W45320  24.372   2.195  11.762
72896W        W45321  41.666  13.310  14.829
72897W        W45322  20.004  29.019  11.957
72898W        W45323   4.682  40.445  11.881
72899W        W45324  30.164  38.456  12.407
72900W        W45325  43.113  31.944  14.063
72901W        W45326   8.206  35.460  12.965
72902W        W45327  36.037   4.782  12.129
72903W        W45328  19.556  37.616  12.957
72904W        W45329  43.208  32.397   4.359
72905W        W45330   7.489  34.057  13.975
72906W        W45331  13.052  10.811   2.609
72907W        W45332  10.980  40.215  14.693
72908W        W45333  22.270  11.868   4.655
72909W        W45334  35.173  33.509  11.490
72910W        W45335   0.500  31.668   2.404
72911W        W45336  18.921  14.246   0.504
72912W        W45337  44.220   8.767  10.284
72913W        W45338  44.426  28.718   0.728
72914W        W45339  22.282  33.445  14.890
72915W        W45340  31.535  18.307  14.035
72916W        W45341  14.328  26.645  10.591
72917W        W45342  31.973  27.032   1.124
72918W        W45343  34.326  42.760  12.926
72919W        W45344  36.427  33.377  11.106
72920W        W45345  41.925  41.048  11.165
72921W        W45346  24.548  10.233  10.250
72922W        W45347  39.302  14.582  10.745
72923W        W45348  42.948  33.470   4.056
72924W        W45349  25.273  16.094  11.169
72925W        W45350  21.312  10.905  12.443
72926W        W45351  23.160  19.037  14.859
72927W        W45352  34.830  21.675  14.567
72928W        W45353  37.537   8.722   1.382
72929W        W45354  43.727  37.241  11.056
72930W        W45355  20.686  34.202  10.924
72931W        W45356  28.669  18.719  11.142
72932W        W45357  18.165  15.615  12.869
72933W        W45358  13.842  12.876   2.294
72934W        W45359  15.176  28.521   0.665
72935W        W45360  40.840   2.380   3.682
72936W        W45361  26.926  34.983   0.324
72937W        W45362  40.634  42.774   3.668
72938W        W45363  26.276  23.170   1.453
72939W        W45364  23.078   0.471  14.965
72940W        W45365  29.888  35.109  13.359
72941W        W45366  38.337  17.427   1.336
72942W        W45367  43.952  18.266  10.737
72943W        W45368   5.268  12.701   4.637
72944W        W45369   6.211   1.250  12.345
72945W        W45370  19.440  18.065   0.866
72946W        W45371   6.317   0.244  13.850
72947W        W45372   4.943  36.895   0.714
72948W        W45373   1.358  11.700  11.581
72949W        W45374  21.005  13.548   3.654
72950W        W45375  22.419  23.133  11.996
72951W        W45376  31.370  22.616   2.312
72952W        W45377   0.909  28.251  13.961
72953W        W45378  38.838  39.775   0.271
72954W        W45379  15.240  12.376  12.413
72955W        W45380  26.985  21.637   3.269
72956W        W45381  17.545   8.358   3.274
72957W        W45382  41.331  13.113   1.288
72958W        W45383  15.718  32.669   2.705
72959W        W45384   8.462  18.637  12.972
72960W        W45385  30.125   9.269   4.191
72961W        W45386   1.860  19.101   1.015
72962W        W45387   2.259  14.106   0.465
72963W        W45388  32.112  44.390   3.688
72964W        W45389  34.981  20.629  13.129
72965W        W45390  32.865  19.184  13.090
72966W        W45391  28.966   6.380   1.372
72967W        W45392  13.381  35.260  12.596
72968W        W45393  22.116  20.164  14.048
72969W        W45394  44.761  21.754  11.512
72970W        W45395  43.865  15.010  11.474
72971W        W45396   9.442  34.359   0.250
72972W        W45397  17.042   6.496  12.543
72973W        W45398  37.098  11.648   5.060
72974W        W45399  15.969  14.539   1.845
72975W        W45400  23.712   6.012  14.655
72976W        W45401   0.383  21.924  14.082
72977W        W45402   2.686  24.739   1.156
72978W        W45403  35.638  19.649   2.085
72979W        W45404  31.418  15.902   3.807
72980W        W45405  21.250  27.190  11.466
72981W        W45406  23.620  30.153   9.835
72982W        W45407  42.813   1.266   2.221
72983W        W45408  32.838   5.248   3.360
72984W        W45409  24.160  32.610  13.015
72985W        W45410  17.797  36.017  13.977
72986W        W45411  32.906  35.281   1.019
72987W        W45412  35.461  40.061  10.940
72988W        W45413   2.312  22.628   1.198
72989W        W45414  31.615  35.025   4.205
72990W        W45415  40.918  40.311   2.106
72991W        W45416  29.509   5.490  10.752
72992W        W45417   3.230   0.392  13.370
72993W        W45418  28.008  18.779  13.939
72994W        W45419  35.044  11.150  14.454
72995W        W45420  17.663  30.427   3.066
72996W        W45421   3.313   5.009   1.592
72997W        W45422   5.474  20.596   3.765
72998W        W45423  27.927   3.951  12.025
72999W        W45424   7.900  41.095  14.706
73000W        W45425   6.795  19.828   1.934
73001W        W45426   7.151  40.747   2.317
73002W        W45427  38.090  23.800   3.203
73003W        W45428  10.750   3.147  13.332
73004W        W45429  10.836   0.795  12.053
73005W        W45430  22.998   1.538  14.929
73006W        W45431   8.053  18.846  12.002
73007W        W45432  39.714  36.771   3.225
73008W        W45433  15.637  12.386  12.069
73009W        W45434  25.415  36.440   4.584
73010W        W45435  28.942   6.060   1.786
73011W        W45436   9.343  36.760  11.937
73012W        W45437  15.615  22.766  10.859
73013W        W45438  34.572  22.335  11.389
73014W        W45439   3.266  44.215   3.096
73015W        W45440  36.462   5.449   1.587
73016W        W45441  11.718  10.351  12.641
73017W        W45442   3.068  41.410   0.904
73018W        W45443  13.679  40.771  10.718
73019W        W45444  19.834   1.231  14.432
73020W        W45445  29.715  38.101   0.348
73021W        W45446  30.415  17.011  10.753
73022W        W45447   0.276   0.720  11.615
73023W        W45448  34.613  16.815   3.137
73024W        W45449  16.553   6.848  13.341
73025W        W45450  12.300  21.293  14.413
73026W        W45451  17.749  15.624  10.470
73027W        W45452   3.800   0.842   4.628
73028W        W45453  21.247   2.787   3.415
73029W        W45454  21.692  30.357   4.560
73030W        W45455   7.677   8.762   2.291
73031W        W45456   3.391  13.923  13.285
73032W        W45457  36.508  10.491   4.260
73033W        W45458  30.019  27.582   1.898
73034W        W45459  31.083   1.000  14.573
73035W        W45460  42.716  34.519   2.723
73036W        W45461  21.199   4.379   0.999
73037W        W45462   0.707  30.627   4.688
73038W        W45463  13.048   0.500  14.304
73039W        W45464  11.636  14.325  13.969
73040W        W45465  40.479  10.594   0.233
73041W        W45466   0.752  23.189   2.121
73042W        W45467  35.946  28.640  11.454
73043W        W45468   0.350   7.861  13.832
73044W        W45469   3.189   0.242   2.310
73045W        W45470  12.585  18.638   3.406
73046W        W45471  23.442   2.874   2.640
73047W        W45472  23.251  20.803   0.396
73048W        W45473   5.932  19.539   2.366
73049W        W45474  42.897  33.261  12.025
73050W        W45475  44.963  24.253  11.189
73051W        W45476  19.603  26.910  12.810
73052W        W45477  29.853  44.771   4.077
73053W        W45478  39.467  30.954   0.479
73054W        W45479   6.175  19.282  13.093
73055W        W45480  36.192  34.381   2.320
73056W        W45481  27.527  18.727   2.885
73057W        W45482  22.995  37.939  12.210
73058W        W45483  20.101  16.733   2.685
73059W        W45484  25.296  11.386   1.720
73060W        W45485  10.830  18.062  11.212
73061W        W45486  20.769  35.113  10.645
73062W        W45487   0.907  41.521   0.181
73063W        W45488   3.278  14.517  12.411
73064W        W45489   6.648  43.245  11.995
73065W        W45490   0.718  29.896   4.138
73066W        W45491  24.632   4.055   1.416
73067W        W45492  36.622  38.434   3.084
73068W        W45493  36.401  36.063   4.390
73069W        W45494  23.110   8.129   3.412
73070W        W45495  21.698  22.488  11.021
73071W        W45496  29.447  43.959   1.732
73072W        W45497  18.568  31.414   0.496
73073W        W45498  26.475  21.751  11.442
73074W        W45499  24.778   5.765  10.565
73075W        W45500  29.452  23.162   3.478
73076W        W45501  19.780  20.032   1.664
73077W        W45502   4.615  16.720  13.132
73078W        W45503   3.187  28.394   0.283
73079W        W45504   1.223  37.517  11.091
73080W        W45505  13.299  11.981   0.296
73081W        W45506  10.433  18.858  11.109
73082W        W45507   6.860  13.634   1.304
73083W        W45508   4.533   0.447  10.639
73084W        W45509  43.540  27.091   1.360
73085W        W45510  11.489   2.740   0.363
73086W        W45511  15.784  15.460   2.246
73087W        W45512  19.509   3.041  14.837
73088W        W45513   0.131  34.939  10.905
73089W        W45514   9.463  34.844  14.468
73090W        W45515  39.867  14.552  12.850
73091W        W45516   2.962  36.804   4.710
73092W        W45517  27.589  10.585  12.934
73093W        W45518   5.251   8.727  14.265
73094W        W45519   9.938  16.668   3.708
73095W        W45520  27.679  14.359  10.753
73096W        W45521  34.366   3.439  11.607
73097W        W45522  36.441  43.871   0.694
73098W        W45523  21.115  39.458   2.479
73099W        W45524  34.318  41.041  14.305
73100W        W45525  27.477   7.712   2.606
73101W        W45526  24.739  22.551   2.256
73102W        W45527  35.953  37.019   2.516
73103W        W45528  10.165  42.514   0.459
73104W        W45529   9.024  18.683  12.141
73105W        W45530  33.850  28.860  10.639
73106W        W45531  12.974  32.588  13.858
73107W        W45532   6.398   8.145   3.602
73108W        W45533  27.159  19.757   0.759
73109W        W45534  21.535  23.250  11.671
73110W        W45535  36.055  42.818   2.685
73111W        W45536  22.781   3.730  10.715
73112W        W45537  37.380  34.043  10.309
73113W        W45538  24.243  39.426   1.381
73114W        W45539  42.362  19.238  14.988
73115W        W45540  13.194  19.910  11.344
73116W        W45541  41.249  15.779   0.380
73117W        W45542  36.043   0.446   2.221
73118W        W45543   3.628  10.701   2.848
73119W        W45544  10.714  10.646  11.311
73120W        W45545   3.752  43.409   1.352
73121W        W45546   0.006  24.485  14.114
73122W        W45547   9.284   5.465  13.349
73123W        W45548  15.074   6.208   0.203
73124W        W45549  25.622  20.744   2.776
73125W        W45550  28.962  44.442   0.338
73126W        W45551  26.477  14.112   2.176
73127W        W45552   9.751  32.173   2.291
73128W        W45553   6.396  30.862   3.320
73129W        W45554  13.155   3.915   0.980
73130W        W45555   5.283   4.463   4.971
73131W        W45556   8.267  18.293   3.900
73132W        W45557  32.947  41.652  12.094
73133W        W45558   8.983  18.583  13.012
73134W        W45559  43.696  14.203  10.680
73135W        W45560  37.482  39.307   0.837
73136W        W45561   9.583  21.207   4.700
73137W        W45562  40.697   9.114  10.235
73138W        W45563   3.086  26.580   2.450
73139W        W45564  37.502  22.663  14.076
73140W        W45565  40.296  30.296  12.931
73141W        W45566  40.514  19.296  10.698
73142W        W45567   9.740  25.859  12.186
73143W        W45568  44.705   0.309   2.239
73144W        W45569   3.734  44.729   2.281
73145W        W45570  34.155  15.107   3.889
73146W        W45571  42.545   8.260  14.424
73147W        W45572  18.459  34.939  11.079
73148W        W45573  12.242  38.952   4.336
73149W        W45574  10.790  44.035   1.883
73150W        W45575  23.221  12.761   0.756
73151W        W45576  34.164  20.019  13.914
73152W        W45577  26.677  38.274   1.659
73153W        W45578  42.320  39.515   4.132
73154W        W45579  30.023   2.221  11.430
73155W        W45580  41.933  43.317  14.461
73156W        W45581   2.026  41.960   1.972
73157W        W45582  38.374  23.465  10.886
73158W        W45583  37.629  14.019   1.437
73159W        W45584  13.814  38.121   4.020
73160W        W45585  14.990  23.188   4.151
73161W        W45586  42.075  33.009  13.828
73162W        W45587  27.937  22.517   2.866
73163W        W45588  33.336  32.356  12.008
73164W        W45589  31.663   2.917   0.674
73165W        W45590  27.466  26.237   0.534
73166W        W45591  34.554  32.207  11.564
73167W        W45592  43.373  36.905  13.453
73168W        W45593  19.708   0.037   2.830
73169W        W45594   1.346   8.892  14.802
73170W        W45595  29.862   6.385   2.845
73171W        W45596  32.700  38.838   1.848
73172W        W45597  38.317  22.532   3.704
73173W        W45598   1.202  15.650   2.737
73174W        W45599  12.745  41.496   2.870
73175W        W45600   7.483  34.390  10.477
73176W        W45601  13.471   4.034  12.580
73177W        W45602  11.424  26.203  13.394
73178W        W45603  30.082  17.240   3.774
73179W        W45604  41.944  31.146   0.033
73180W        W45605   5.207  16.504   1.219
73181W        W45606  19.806  20.549  14.581
73182W        W45607  28.453  12.737  14.868
73183W        W45608  13.699  26.241  13.038
73184W        W45609   2.813  32.706   1.467
73185W        W45610  10.167  14.324   0.345
73186W        W45611  41.305  12.129  11.937
73187W        W45612  15.776  12.305  11.019
73188W        W45613   8.608  23.670  11.957
73189W        W45614  31.105  26.586  12.637
73190W        W45615  40.586  11.318  10.631
73191W        W45616  12.869  10.711  14.382
73192W        W45617  11.868  15.581   4.283
73193W        W45618  40.376   5.737   2.609
73194W        W45619  13.632   9.213  14.461
73195W        W45620  13.911  41.748  12.528
73196W        W45621  35.917  34.065  14.990
73197W        W45622  25.021  26.169   0.422
73198W        W45623  38.374  27.693  10.670
73199W        W45624   3.332  41.466   3.114
73200W        W45625  32.849  30.121   1.083
73201W        W45626  15.217  13.844  11.467
73202W        W45627  13.845  31.419   0.816
73203W        W45628   6.719  36.548  12.983
73204W        W45629  31.701  33.339  11.222
73205W        W45630  13.403  39.788   3.150
73206W        W45631  31.387  25.163   4.606
73207W        W45632  10.187  14.897   3.117
73208W        W45633  21.532  13.521  13.977
73209W        W45634  36.477   5.271  13.529
73210W        W45635   0.404   9.819  13.946
73211W        W45636   0.467  27.867  12.488
73212W        W45637   3.427  41.729  11.084
73213W        W45638  17.627   6.278   2.807
73214W        W45639  33.983  43.995   4.519
73215W        W45640   5.972  34.011   1.814
73216W        W45641   1.169   8.924  10.750
73217W        W45642  29.921  23.194   3.232
73218W        W45643  10.130  11.277   4.873
73219W        W45644  24.596  29.476  14.751
73220W        W45645   9.163   3.896   2.942
73221W        W45646   1.528  17.214   4.179
73222W        W45647  43.352  18.462   0.276
73223W        W45648  10.090  24.721  13.930
73224W        W45649   9.913   6.512   2.241
73225W        W45650  10.892  23.306   0.975
73226W        W45651  37.079  14.014  12.882
73227W        W45652   1.810  13.782  12.170
73228W        W45653  11.424  19.677  11.213
73229W        W45654  19.174  42.316   2.389
73230W        W45655  11.872   9.220   3.161
73231W        W45656  14.315  17.039   0.937
73232W        W45657  26.258   1.130   3.120
73233W        W45658   5.038  12.816  10.777
73234W        W45659  10.429  16.685   2.635
73235W        W45660   6.188  20.624  12.992
73236W        W45661  27.156   5.225   4.448
73237W        W45662   4.392  22.416  11.925
73238W        W45663  26.050  19.373   4.543
73239W        W45664   5.222  23.537  11.191
73240W        W45665  19.291  44.920   3.236
73241W        W45666  44.429  15.083   4.611
73242W        W45667  36.068  15.130  12.958
73243W        W45668  12.522  19.808  12.349
73244W        W45669  16.231   3.910  11.643
73245W        W45670  43.731  35.937   0.241
73246W        W45671  12.287  23.607  11.118
73247W        W45672   5.981  16.929  14.065
73248W        W45673  14.019  17.504   0.753
73249W        W45674  36.097  42.642  10.602
73250W        W45675  34.031   0.078   0.284
73251W        W45676  37.901  23.568  12.544
73252W        W45677  43.874  14.850   3.181
73253W        W45678   0.806  39.744   2.268
73254W        W45679  43.464   4.748  12.132
73255W        W45680   1.965  43.213   3.612
73256W        W45681  25.031   5.855  12.027
73257W        W45682  44.412  13.151   2.876
73258W        W45683   8.777  36.417  12.133
73259W        W45684  19.698  25.214  14.857
73260W        W45685  20.062  10.733  11.500
73261W        W45686  29.307  11.635   3.149
73262W        W45687  36.689  32.044   0.782
73263W        W45688  36.893  37.576  11.427
73264W        W45689  37.444  28.891  13.080
73265W        W45690  13.641  16.913  13.451
73266W        W45691  12.151  12.191  11.600
73267W        W45692  38.543   8.276  10.141
73268W        W45693  18.094  41.026  14.442
73269W        W45694   5.904  18.262   1.214
73270W        W45695  13.532   0.006  11.167
73271W        W45696  14.474  22.477   5.310
73272W        W45697  16.141  16.349   2.257
73273W        W45698  14.223  11.839  14.014
73274W        W45699  23.611  23.508   4.575
73275W        W45700  33.876  33.412   0.471
73276W        W45701   7.864  30.362  13.047
73277W        W45702  38.009  13.089  12.522
73278W        W45703  20.185  21.757   3.299
73279W        W45704  10.616  22.506   0.782
73280W        W45705  20.517   2.179  12.017
73281W        W45706  40.618  33.131  11.068
73282W        W45707   3.095  36.439  10.952
73283W        W45708  24.275  19.086   3.133
73284W        W45709  10.376   6.102   0.793
73285W        W45710  11.213  43.257   1.845
73286W        W45711  34.719  24.708  14.538
73287W        W45712  15.615   5.320   0.952
73288W        W45713  38.066  14.393   4.566
73289W        W45714  23.062  17.567   0.321
73290W        W45715  18.108  25.684   2.103
73291W        W45716  14.734  24.757  11.127
73292W        W45717  29.469  41.617   0.316
73293W        W45718  24.695   2.935   3.771
73294W        W45719  30.177   1.770  13.414
73295W        W45720  30.052  36.434   0.470
73296W        W45721  27.438   0.402  13.819
73297W        W45722  31.438   4.234   1.718
73298W        W45723  28.656  43.361  10.713
73299W        W45724  30.101  41.161  14.488
73300W        W45725  22.172  31.664  14.693
73301W        W45726   5.530  35.849   4.010
73302W        W45727   1.710  10.092   0.859
73303W        W45728  43.361  44.233   0.240
73304W        W45729   2.252  19.608   2.922
73305W        W45730  26.582  18.847  14.083
73306W        W45731  15.021  18.268  12.295
73307W        W45732  40.784  12.253   1.406
73308W        W45733  26.807  10.372  13.937
73309W        W45734  32.611  40.878   0.863
73310W        W45735  13.080  30.943  11.178
73311W        W45736  33.496  21.037   3.722
73312W        W45737  31.642  37.487   2.603
73313W        W45738   9.690  31.060  11.072
73314W        W45739  12.379  32.073   4.162
73315W        W45740  11.531  32.438   2.811
73316W        W45741  36.012  33.502   4.611
73317W        W45742  36.522  30.455   4.549
73318W        W45743  23.314   4.433  13.516
73319W        W45744  18.159  23.690  10.624
73320W        W45745  36.054  13.704  14.388
73321W        W45746  38.395  25.736  13.872
73322W        W45747  36.468   1.657  14.626
73323W        W45748  18.548   9.660  12.101
73324W        W45749  34.590  28.234  12.905
73325W        W45750  44.746  40.100   0.553
73326W        W45751   0.871   9.998  12.142
73327W        W45752   6.249  32.680  13.863
73328W        W45753  17.356   4.930   0.459
73329W        W45754  25.158  43.501  12.992
73330W        W45755   6.852  38.735  11.523
73331W        W45756  25.433  40.662  11.949
73332W        W45757  16.987  29.374  13.379
73333W        W45758  22.534  17.314  14.225
73334W        W45759  25.167  39.428  10.409
73335W        W45760  20.627  18.166  13.165
73336W        W45761  27.390   5.143  10.151
73337W        W45762  43.905  27.828  14.816
73338W        W45763  11.248  10.616  12.732
73339W        W45764  19.278  43.264  11.042
73340W        W45765   9.941   2.362  12.093
73341W        W45766  36.471   2.720   4.875
73342W        W45767  14.321   4.863  14.777
73343W        W45768  18.386  32.381   0.914
73344W        W45769  34.037  22.698  12.429
73345W        W45770  22.729   5.929   0.410
73346W        W45771  10.189  37.004  11.134
73347W        W45772   7.767   4.962   1.291
73348W        W45773   5.581  40.889  11.155
73349W        W45774  35.500  40.696  11.948
73350W        W45775  12.290   4.226  13.702
73351W        W45776  28.120  32.927  13.783
73352W        W45777  39.127  24.209  13.998
73353W        W45778  19.569  12.092  10.489
73354W        W45779  29.426  43.824   2.237
73355W        W45780  15.662   4.048  12.851
73356W        W45781   4.544  29.760   0.323
73357W        W45782  24.602  16.172   4.598
73358W        W45783  25.546  19.565   1.163
73359W        W45784  35.367   5.241   2.346
73360W        W45785  28.213  27.630  14.766
73361W        W45786  34.232  38.104  11.120
73362W        W45787  33.629  21.900  13.539
73363W        W45788   4.083  20.649  12.368
73364W        W45789  21.084  13.713   2.128
73365W        W45790  18.626  31.195   4.060
73366W        W45791  23.572  37.328  13.288
73367W        W45792  21.523  15.649   2.321
73368W        W45793   0.833  20.020  13.258
73369W        W45794   7.952   9.087  14.261
73370W        W45795  12.666  28.787   4.889
73371W        W45796  14.598  25.054   3.983
73372W        W45797  35.582  19.963  13.825
73373W        W45798  36.984  18.705  11.044
73374W        W45799  26.461   3.935  14.398
73375W        W45800  19.819   0.187  11.433
73376W        W45801   8.512  28.901  12.955
73377W        W45802   9.812  28.360  11.121
73378W        W45803  38.623  12.244   1.299
73379W        W45804   6.139  29.001  13.458
73380W        W45805  38.456  42.587   0.333
73381W        W45806  35.887  29.652   0.649
73382W        W45807  13.385  33.343  12.549
73383W        W45808  43.165  44.488  11.543
73384W        W45809  36.050  34.834  13.316
73385W        W45810   7.827  15.732   0.208
73386W        W45811  22.425  15.591  12.487
73387W        W45812   2.009  18.266   3.622
73388W        W45813   4.847  37.158   1.147
73389W        W45814  39.352  32.826  11.463
73390W        W45815   2.372  34.050   4.643
73391W        W45816  33.109   7.273  11.737
73392W        W45817  16.591   6.255   2.883
73393W        W45818  41.656  35.630   2.766
73394W        W45819  26.000  27.679  10.637
73395W        W45820  22.348  10.174   0.434
73396W        W45821  43.430   7.812  14.865
73397W        W45822  30.721  29.119  13.578
73398W        W45823   3.291  42.896   2.387
73399W        W45824   2.982  41.490   3.881
73400W        W45825  28.068  43.134  13.410
73401W        W45826  20.545  16.569   1.831
73402W        W45827  28.112   8.097  11.489
73403W        W45828   2.847   4.905   0.540
73404W        W45829  16.817  19.825   0.484
73405W        W45830  42.137  29.548   4.379
73406W        W45831  16.631  13.449  13.174
73407W        W45832  33.509  38.822  11.083
73408W        W45833  21.040  18.024  10.864
73409W        W45834  19.005  25.688  11.147
73410W        W45835  33.456  16.728  14.556
73411W        W45836  29.910  35.322   3.693
73412W        W45837  33.485  14.235   4.937
73413W        W45838  21.459  39.973  11.146
73414W        W45839  13.156   3.029   1.176
73415W        W45840   3.394  20.512   3.761
73416W        W45841   8.676  34.541   0.909
73417W        W45842  18.244  38.428  12.337
73418W        W45843  11.582  28.079   0.702
73419W        W45844  18.762  17.025   3.763
73420W        W45845  16.391  28.296  13.484
73421W        W45846  32.912   7.256  12.384
73422W        W45847  21.041  24.159  14.461
73423W        W45848  25.899  17.861  13.580
73424W        W45849  38.037   2.254   1.302
73425W        W45850   4.302  20.135   3.204
73426W        W45851   4.027   1.347  14.652
73427W        W45852  22.303  38.920   4.733
73428W        W45853  28.719   2.702   3.357
73429W        W45854  15.260  34.042  10.690
73430W        W45855  10.159  11.704   3.708
73431W        W45856  27.933  35.368  14.965
73432W        W45857   8.981  19.164  11.043
73433W        W45858   6.645  27.611   0.953
73434W        W45859  43.264  33.415   0.230
73435W        W45860  24.903   6.613  12.399
73436W        W45861  28.526  31.148   4.795
73437W        W45862  44.196   1.978  13.957
73438W        W45863  29.077  14.580  12.822
73439W        W45864  13.552   4.836  11.817
73440W        W45865  12.327  20.560  13.252
73441W        W45866  39.855   7.037   2.119
73442W        W45867   7.576  26.255  12.076
73443W        W45868  24.203   0.941   0.875
73444W        W45869  24.285  43.538  14.489
73445W        W45870  29.072  21.116  14.756
73446W        W45871  10.043  30.111   1.932
73447W        W45872  37.720  21.801  12.893
73448W        W45873  24.713  33.644   2.607
73449W        W45874  27.555  32.097  10.836
73450W        W45875  32.040  19.061  13.336
73451W        W45876   5.907  39.808   4.516
73452W        W45877  44.245  42.398  13.708
73453W        W45878   0.333  33.596  14.920
73454W        W45879  16.606  34.565   3.089
73455W        W45880  39.115  17.102  12.825
73456W        W45881  34.119   9.469   0.361
73457W        W45882   9.074  39.835  14.331
73458W        W45883  12.285  22.719   2.732
73459W        W45884  34.496   2.487  12.515
73460W        W45885  19.473  21.490  13.030
73461W        W45886  30.526  29.081  12.570
73462W        W45887  41.826   7.477   1.251
73463W        W45888  22.844   9.846  11.039
73464W        W45889  28.169  44.887  12.831
73465W        W45890  41.356  33.847  11.283
73466W        W45891  31.943  42.047  10.752
73467W        W45892  39.763  16.601  13.082
73468W        W45893   1.170  35.169   0.840
73469W        W45894   1.907   8.787  14.001
73470W        W45895  10.884  21.960   9.877
73471W        W45896  35.415  10.875   3.697
73472W        W45897  29.474  18.583  11.572
73473W        W45898  25.051  17.165  13.826
73474W        W45899  17.041  10.821  13.581
73475W        W45900  41.963  22.234  12.197
73476W        W45901   0.543   4.666  13.928
73477W        W45902   0.862   7.178   2.843
73478W        W45903  38.062  20.955  11.934
73479W        W45904  41.242   9.887  13.981
73480W        W45905  32.309  21.342   3.344
73481W        W45906   7.883  33.024  14.782
73482W        W45907  40.027  21.339  11.364
73483W        W45908   5.154  43.226  14.342
73484W        W45909  13.822  33.777  14.362
73485W        W45910  23.106  24.925   1.135
73486W        W45911   4.423   8.065  13.761
73487W        W45912  29.128  11.632   4.377
73488W        W45913  36.020  38.540  10.522
73489W        W45914  16.544  22.580   0.877
73490W        W45915  10.010  18.568  11.186
73491W        W45916  23.290  18.313  11.054
73492W        W45917  39.601  12.802   4.189
73493W        W45918   0.857  19.268  11.102
73494W        W45919  14.251  24.301   1.198
73495W        W45920   2.773   4.288  11.421
73496W        W45921  31.038  32.610   2.162
73497W        W45922   3.708  31.854  12.126
73498W        W45923  30.673  33.609   0.256
73499W        W45924  35.379  44.828  10.714
73500W        W45925  16.107  25.451   0.787
73501W        W45926   8.982   0.700  10.698
73502W        W45927   0.555  33.936  10.577
73503W        W45928  35.218  38.645  11.039
73504W        W45929  20.665   8.151   1.320
73505W        W45930  27.574  20.290  14.407
73506W        W45931  15.574   1.639  13.918
73507W        W45932   3.300   7.443  14.868
73508W        W45933  17.078   2.851  10.721
73509W        W45934  28.373  15.127  13.441
73510W        W45935  12.691  13.248   0.740
73511W        W45936  23.721   3.015  13.348
73512W        W45937   9.430  40.535  14.977
73513W        W45938   3.226  19.050   0.387
73514W        W45939  10.179  30.417   0.516
73515W        W45940  42.563  11.876  12.426
73516W        W45941   9.967  34.627  14.267
73517W        W45942  23.296   9.417  12.493
73518W        W45943  14.185   1.886  10.236
73519W        W45944   4.755   7.216  13.337
73520W        W45945  39.031  21.465   0.830
73521W        W45946  38.281  44.785   1.360
73522W        W45947  29.399  33.695  14.794
73523W        W45948  24.654  29.449   4.174
73524W        W45949   9.896   6.423   3.197
73525W        W45950  23.740  44.561   4.128
73526W        W45951  25.729  14.879  11.976
73527W        W45952   2.330  34.378   3.818
73528W        W45953  20.202   2.207  11.593
73529W        W45954   2.226   7.821  10.719
73530W        W45955   2.120  11.913  11.845
73531W        W45956  37.016  12.893   0.912
73532W        W45957  20.165  17.751  13.321
73533W        W45958  39.616   9.227   4.559
73534W        W45959  36.002  25.782   1.271
73535W        W45960  16.815  22.179   3.929
73536W        W45961  27.168  40.489  14.448
73537W        W45962  12.737  42.446  11.315
73538W        W45963  27.657  36.240   2.461
73539W        W45964  10.842  15.567   1.415
73540W        W45965  10.691  25.976   4.209
73541W        W45966   2.246  32.664  11.142
73542W        W45967  18.042  40.297   3.232
73543W        W45968  32.407  29.544   0.757
73544W        W45969  35.550  33.223   1.176
73545W        W45970  44.507  32.114   1.277
73546W        W45971  38.451  12.089   4.121
73547W        W45972  42.297   0.930  13.945
73548W        W45973  21.308  13.923  11.591
73549W        W45974  12.303  15.496   1.401
73550W        W45975  39.871  23.848  13.590
73551W        W45976  32.563  23.944   2.488
73552W        W45977   4.299   7.237   2.654
73553W        W45978  37.883  23.694  14.731
73554W        W45979   7.800  17.125  13.875
73555W        W45980  43.532  27.641   4.426
73556W        W45981  30.136  39.538   2.716
73557W        W45982  18.882  28.433  10.647
73558W        W45983  10.834   3.653   4.152
73559W        W45984   2.427  42.198  11.078
73560W        W45985  18.847   8.628   3.791
73561W        W45986  35.498   0.518  14.735
73562W        W45987  28.640  12.726  11.526
73563W        W45988  16.272   4.632  14.881
73564W        W45989  30.601  32.072  10.943
73565W        W45990  16.932  25.142   4.573
73566W        W45991  39.927  26.244  11.565
73567W        W45992  28.987  22.718  12.698
73568W        W45993   0.984  29.230   0.807
73569W        W45994  30.276  20.846   4.924
73570W        W45995  31.825   4.341  13.297
73571W        W45996  24.044   6.200  11.679
73572W        W45997  39.397  38.615  12.569
73573W        W45998   0.584  31.005  11.950
73574W        W45999  16.312  32.382   0.416
73575W        W46000  11.360  17.175  10.552
73576W        W46001  19.967  11.317  11.413
73577W        W46002  15.704  35.997   1.600
73578W        W46003  25.018  29.522   2.001
73579W        W46004  25.105  12.677   2.342
73580W        W46005  37.442   6.628  12.200
73581W        W46006  42.923  26.630   0.458
73582W        W46007   3.042  10.819  13.311
73583W        W46008  27.125  32.163   3.814
73584W        W46009   4.491  24.131   2.748
73585W        W46010  32.064  17.410  12.612
73586W        W46011  14.110   3.840   1.348
73587W        W46012  15.233  22.706   2.914
73588W        W46013  29.029  12.075  10.484
73589W        W46014  34.828  43.071   0.070
73590W        W46015  11.150  21.751   3.865
73591W        W46016  33.934   0.491  14.955
73592W        W46017  41.724   9.775  13.834
73593W        W46018  42.057  18.784   0.794
73594W        W46019  13.804  25.509  14.702
73595W        W46020  32.877  13.532   0.945
73596W        W46021   8.135   6.216   0.834
73597W        W46022  12.312  42.977  12.584
73598W        W46023  27.082  34.021  12.820
73599W        W46024   5.823  40.576   1.865
73600W        W46025   1.871   7.451   2.958
73601W        W46026   8.933  44.237  14.748
73602W        W46027  32.028  34.125   2.421
73603W        W46028  41.859   3.059  11.579
73604W        W46029  22.757  16.849   4.709
73605W        W46030  39.588  40.412   0.882
73606W        W46031   6.638  36.047  12.882
73607W        W46032  42.079   6.181  11.521
73608W        W46033  22.466  11.742  12.956
73609W        W46034  29.545  14.248  14.005
73610W        W46035  40.641  41.758  11.513
73611W        W46036  10.132  18.256   4.170
73612W        W46037  18.663   4.315   4.474
73613W        W46038  38.053  32.563   4.721
73614W        W46039  28.071  36.279   2.153
73615W        W46040   9.038   1.759   3.319
73616W        W46041  16.310  43.104   0.542
73617W        W46042  38.705  29.012  11.346
73618W        W46043  43.505  10.156  11.573
73619W        W46044  18.168   6.870   3.429
73620W        W46045  37.677  31.376  14.229
73621W        W46046  35.114  40.012  13.836
73622W        W46047   9.617  20.646   1.914
73623W        W46048  28.917  22.223   1.409
73624W        W46049  16.252  20.732  14.760
73625W        W46050  41.920  35.440  14.346
73626W        W46051  23.069  43.533   2.264
73627W        W46052   0.335  34.153   3.243
73628W        W46053  21.928  31.833   4.652
73629W        W46054   6.668   5.372   1.841
73630W        W46055  28.094  43.012  12.899
73631W        W46056   9.714  17.838   3.330
73632W        W46057   4.508  31.372  13.462
73633W        W46058  34.296   8.655  11.072
73634W        W46059   6.658  42.414  11.616
73635W        W46060  30.558   0.220   3.206
73636W        W46061  17.885  25.696  14.747
73637W        W46062   0.457  35.482  12.134
73638W        W46063  31.294  12.724  10.761
73639W        W46064  23.534  12.902   4.402
73640W        W46065  16.942   9.612  10.683
73641W        W46066  34.962  14.155   1.258
73642W        W46067   9.272  35.360   4.542
73643W        W46068  10.328  11.640  12.894
73644W        W46069  43.121  22.613   4.119
73645W        W46070  38.162  11.736   0.488
73646W        W46071  35.408  15.015  14.014
73647W        W46072   9.747  39.018  11.574
73648W        W46073  34.904  24.008  11.218
73649W        W46074  26.019   8.113   1.814
73650W        W46075   2.478   5.836  13.426
73651W        W46076  41.506  24.274   3.593
73652W        W46077   4.211  36.094   2.290
73653W        W46078  22.292  42.698  11.580
73654W        W46079  17.808  23.137   1.682
73655W        W46080  35.092   9.110  12.067
73656W        W46081   6.083  41.722  12.907
73657W        W46082  35.232  18.122   1.322
73658W        W46083  15.632  35.089   3.307
73659W        W46084  11.894  31.369   3.522
73660W        W46085  18.637  22.176  14.545
73661W        W46086  40.102  13.668   4.080
73662W        W46087  40.233  16.494   0.293
73663W        W46088  44.435  14.104   4.544
73664W        W46089  26.095  27.071  13.299
73665W        W46090  32.105  29.658   4.304
73666W        W46091  16.212  14.332   4.110
73667W        W46092  17.850  19.991  11.699
73668W        W46093  21.669  35.625   3.165
73669W        W46094  22.729  35.398   4.057
73670W        W46095  10.165  27.873   9.828
73671W        W46096   3.344   0.943  10.402
73672W        W46097  37.355  20.774   1.250
73673W        W46098  28.124  38.329  13.583
73674W        W46099  38.706  10.108  13.953
73675W        W46100  25.717  18.098  14.180
73676W        W46101  43.312  36.445  11.352
73677W        W46102  36.534   4.448   3.122
73678W        W46103  17.086  14.203   4.094
73679W        W46104   7.853   2.241  13.020
73680W        W46105  19.307  25.948  14.476
73681W        W46106   9.362   7.256  13.443
73682W        W46107  36.106  38.000  14.969
73683W        W46108  19.537  25.171   1.593
73684W        W46109  35.113  23.201  12.788
73685W        W46110  43.353  32.693  12.462
73686W        W46111  40.408  29.940  11.525
73687W        W46112  11.179  29.282  11.755
73688W        W46113  30.691  41.849   0.091
73689W        W46114  28.287  13.115   3.986
73690W        W46115  13.722   4.786   3.190
73691W        W46116   2.922   0.269  12.005
73692W        W46117   7.645   2.397  11.731
73693W        W46118  12.398   7.230  14.848
73694W        W46119  42.767   0.512  14.300
73695W        W46120   3.492  24.103   5.162
73696W        W46121  26.100  33.653  12.988
73697W        W46122  32.687  41.750   4.515
73698W        W46123  17.753  23.730   4.100
73699W        W46124  32.859  29.624  14.821
73700W        W46125  19.804  40.872  11.459
73701W        W46126  23.966  10.321  13.484
73702W        W46127  23.488  42.267  11.118
73703W        W46128  21.474  40.459   0.551
73704W        W46129  33.988  42.958   1.296
73705W        W46130  34.664  22.126  14.376
73706W        W46131   4.294  11.679   4.718
73707W        W46132  40.551  34.879  11.056
73708W        W46133  21.798  24.582   1.895
73709W        W46134  30.508  27.103   3.400
73710W        W46135  15.215  15.570   1.847
73711W        W46136   7.410   0.529   1.781
73712W        W46137   2.348  21.009   3.351
73713W        W46138  44.310  29.863  10.688
73714W        W46139   6.140   3.688  11.550
73715W        W46140  39.915  38.881   1.316
73716W        W46141  17.516  30.671  13.773
73717W        W46142  38.401  43.187   3.175
73718W        W46143  43.461  42.039  13.047
73719W        W46144  29.506  11.568  11.251
73720W        W46145  22.010  33.565  10.873
73721W        W46146  24.231  44.241  12.380
73722W        W46147  44.517  18.730   2.781
73723W        W46148  30.594  18.213  14.815
73724W        W46149  34.943  31.567   0.824
73725W        W46150  16.335  10.864   2.222
73726W        W46151  30.952  12.144  14.465
73727W        W46152   9.562  29.965   2.766
73728W        W46153  44.386  19.553   4.587
73729W        W46154  28.100  24.424  10.522
73730W        W46155  14.311   1.297  11.617
73731W        W46156  11.157  22.388   0.822
73732W        W46157  11.073  26.542  11.861
73733W        W46158  23.717  17.086  10.920
73734W        W46159  14.136   3.189  14.478
73735W        W46160  16.827  40.101  12.090
73736W        W46161   6.290  30.544  11.182
73737W        W46162  33.692  44.832  14.903
73738W        W46163   8.640  39.388   1.242
73739W        W46164   6.734  33.645   1.236
73740W        W46165  36.876  44.723   1.465
73741W        W46166  18.594  20.157  14.537
73742W        W46167  43.245  42.605   3.285
73743W        W46168  44.403  38.489   2.009
73744W        W46169  41.934   2.353  12.989
73745W        W46170  20.627   7.662   1.051
73746W        W46171  44.935  26.638   1.534
73747W        W46172  34.019  29.890  13.077
73748W        W46173  23.497  37.489  12.788
73749W        W46174  30.226  17.268  12.579
73750W        W46175   7.740  41.240   4.651
73751W        W46176  30.937  30.004  11.734
73752W        W46177  10.755  24.659  11.233
73753W        W46178  36.496  32.063   4.078
73754W        W46179  33.875  17.280   3.207
73755W        W46180  27.794  34.659  13.363
73756W        W46181  38.308   5.247  12.403
73757W        W46182  27.749  18.790  14.402
73758W        W46183  32.077  10.215  13.329
73759W        W46184   0.475  21.325   3.967
73760W        W46185  18.118  16.429   0.773
73761W        W46186  26.933  21.125  13.955
73762W        W46187  25.015  29.131  11.966
73763W        W46188  42.033  26.102   3.194
73764W        W46189  30.378  43.866  11.119
73765W        W46190  41.283  17.503   3.421
73766W        W46191   7.926  32.150   0.933
73767W        W46192  37.508   0.888  11.896
73768W        W46193  24.540   7.812  11.493
73769W        W46194  19.138  36.554  12.029
73770W        W46195  41.425  22.243   3.316
73771W        W46196  31.374  40.854   9.802
73772W        W46197  27.535  27.120   3.324
73773W        W46198  38.441   3.463   3.976
73774W        W46199   5.755  12.727  12.344
73775W        W46200  25.621  28.167   1.334
73776W        W46201  37.372   9.168   9.743
73777W        W46202  17.103   7.949   0.780
73778W        W46203  12.860  36.109   0.466
73779W        W46204  11.375  18.666   1.466
73780W        W46205  19.205  18.899   0.786
73781W        W46206  22.619   1.719   0.871
73782W        W46207  31.637  25.575  14.966
73783W        W46208  12.164  23.284  10.714
73784W        W46209  16.465  39.015   4.172
73785W        W46210  17.000  30.553  10.659
73786W        W46211  12.835  24.578   9.814
73787W        W46212  33.918   0.934  14.676
73788W        W46213  12.598  14.777   1.194
73789W        W46214  38.790  24.262   0.790
73790W        W46215  36.811  35.924   0.693
73791W        W46216   2.045   8.230  11.565
73792W        W46217  23.159   7.670  10.730
73793W        W46218  44.262  13.130  14.890
73794W        W46219  28.767  19.717  11.200
73795W        W46220  27.621  23.173   5.876
73796W        W46221  23.040  20.832   2.827
73797W        W46222  34.685  33.451  10.009
73798W        W46223  34.336  27.118   1.894
73799W        W46224  31.072  31.330  10.715
73800W        W46225  32.747  32.699   2.691
73801W        W46226   5.361   2.919  11.003
73802W        W46227  40.041   7.336   1.185
73803W        W46228  25.512  25.980   2.392
73804W        W46229  32.571   3.757  13.357
73805W        W46230  26.411  11.411  13.981
73806W        W46231   7.568  24.486  11.103
73807W        W46232  11.950  13.293  10.670
73808W        W46233  10.388  35.932  11.075
73809W        W46234  15.806  35.011   5.157
73810W        W46235  38.475   9.727   3.122
73811W        W46236   6.900  37.011  11.237
73812W        W46237  20.948  25.879  11.527
73813W        W46238   8.893  18.883  14.003
73814W        W46239  27.582  43.429  13.903
73815W        W46240  38.963  42.934   3.738
73816W        W46241  11.323  43.507   0.014
73817W        W46242  40.930  18.521   0.823
73818W        W46243  14.634   7.851   3.809
73819W        W46244  28.079  19.989   1.832
73820W        W46245  13.514  23.345  10.693
73821W        W46246   0.019  38.348  13.477
73822W        W46247  31.699   0.782   4.786
73823W        W46248   6.188  19.460  12.580
73824W        W46249  25.966  33.130   3.687
73825W        W46250  22.426  24.182   0.276
73826W        W46251  41.371  39.374   1.676
73827W        W46252  33.818  35.803  14.538
73828W        W46253  35.453  18.228  11.832
73829W        W46254  41.780  16.677   1.782
73830W        W46255  37.081   9.429   0.879
73831W        W46256  36.784  12.774  13.933
73832W        W46257  10.750  16.696  11.538
73833W        W46258  35.629  17.157  12.947
73834W        W46259  18.129  19.607  12.847
73835W        W46260  40.371  36.788  13.894
73836W        W46261   6.854  30.058  11.129
73837W        W46262  20.256  37.653   0.421
73838W        W46263   2.491   0.271  12.936
73839W        W46264   5.393   1.400   2.400
73840W        W46265   7.767  34.937   5.087
73841W        W46266  30.171  37.435  12.473
73842W        W46267   1.303   1.847  11.607
73843W        W46268  31.750   3.313  12.101
73844W        W46269  33.210   7.066  12.763
73845W        W46270  20.979  14.078   3.591
73846W        W46271  32.537  40.431  14.060
73847W        W46272  15.353   4.027  11.357
73848W        W46273  13.627  19.810  12.593
73849W        W46274  27.016  38.833  14.150
73850W        W46275   3.365   9.022  10.746
73851W        W46276  30.493   7.756  11.170
73852W        W46277  41.567   9.711  14.331
73853W        W46278  41.738  44.422  11.624
73854W        W46279  22.776  15.148  10.783
73855W        W46280  13.167   8.756  13.487
73856W        W46281  14.786   1.189  11.489
73857W        W46282  29.061  30.702   3.251
73858W        W46283  32.462  33.958  14.999
73859W        W46284  39.427  33.568  10.151
73860W        W46285  35.178   6.901   1.830
73861W        W46286  35.118  37.460  11.074
73862W        W46287  28.672   2.971  14.504
73863W        W46288  42.516  25.081   1.506
73864W        W46289  41.397  21.280   3.930
73865W        W46290  31.675  13.652   1.129
73866W        W46291  28.264  37.917  14.320
73867W        W46292  20.980  34.974   2.244
73868W        W46293  10.353   8.159   3.626
73869W        W46294  27.555  26.819   0.690
73870W        W46295  11.204  16.325  13.592
73871W        W46296  41.982  26.042  14.662
73872W        W46297  35.060  15.469   1.292
73873W        W46298  41.988   5.280  10.983
73874W        W46299  24.212  15.977   4.040
73875W        W46300  26.634   5.722  11.462
73876W        W46301  13.355  16.028   2.686
73877W        W46302   1.948   1.950  14.371
73878W        W46303   0.483  14.176   1.158
73879W        W46304  14.744  22.996  14.198
73880W        W46305   0.112  10.452  11.142
73881W        W46306  27.665  44.110  14.332
73882W        W46307  35.654  15.524  14.885
73883W        W46308   8.899  18.148  14.744
73884W        W46309  38.082  41.330   2.162
73885W        W46310  33.524   3.198  10.240
73886W        W46311   8.733  40.574   1.324
73887W        W46312  12.365  21.577   3.238
73888W        W46313  28.033  43.218   1.950
73889W        W46314   7.875  43.661   3.403
73890W        W46315  14.264   3.282   0.864
73891W        W46316  10.594  14.124  11.129
73892W        W46317   6.229   3.652  13.385
73893W        W46318  23.211  43.522   4.438
73894W        W46319  29.633   7.399  10.719
73895W        W46320  24.888  39.759  12.847
73896W        W46321  29.906  29.114  13.989
73897W        W46322  14.872  28.733  11.539
73898W        W46323  13.766  25.703  11.367
73899W        W46324  41.375  33.146  10.643
73900W        W46325  10.696   1.800  11.413
73901W        W46326  38.040  10.208   0.546
73902W        W46327  11.324   3.412   4.240
73903W        W46328  41.651  13.791   2.913
73904W        W46329  16.337  19.076   3.167
73905W        W46330  17.672  39.296  14.564
73906W        W46331   2.097  26.766   3.224
73907W        W46332  20.060  44.757  13.516
73908W        W46333  39.968  39.034  11.628
73909W        W46334  13.100  14.218   1.837
73910W        W46335   8.021  30.243  12.238
73911W        W46336  12.124  34.360  12.027
73912W        W46337  23.971  24.953  11.171
73913W        W46338   2.655  11.944   0.238
73914W        W46339  29.235   3.478  11.152
73915W        W46340   8.871  24.449   2.068
73916W        W46341  43.328  29.152  13.793
73917W        W46342  12.674  31.217  10.932
73918W        W46343   4.409  14.736   4.344
73919W        W46344  11.291  41.990   1.372
73920W        W46345  18.226  18.289  14.543
73921W        W46346  40.517   5.296  14.241
73922W        W46347   4.238   1.940  13.923
73923W        W46348  37.452  32.650  14.871
73924W        W46349  20.443  28.661  11.524
73925W        W46350  43.567   3.870   3.938
73926W        W46351  38.059   9.322  14.262
73927W        W46352  29.907  38.138  11.063
73928W        W46353  44.980  39.350   4.480
73929W        W46354  32.903  16.812  11.589
73930W        W46355  43.842  39.585  13.494
73931W        W46356  32.571   9.666  14.338
73932W        W46357  30.040  18.333  14.962
73933W        W46358  32.413  18.314  12.724
73934W        W46359  19.614   3.334  10.398
73935W        W46360  36.899  24.274  10.790
73936W        W46361  28.227   5.915  14.047
73937W        W46362  22.234  36.688  10.441
73938W        W46363  18.758   0.404  11.663
73939W        W46364  44.789   5.479   3.615
73940W        W46365  26.683  31.165   2.723
73941W        W46366  17.037   9.975  11.365
73942W        W46367  12.583  28.947  11.049
73943W        W46368  10.221  37.003   4.757
73944W        W46369   9.286   5.532  12.058
73945W        W46370  31.187  39.539   4.079
73946W        W46371   3.939  11.664  14.414
73947W        W46372  38.157   5.397   0.440
73948W        W46373   0.807  21.706  14.312
73949W        W46374  20.553  14.668  11.051
73950W        W46375  11.893   9.997   4.984
73951W        W46376  43.279  23.059   3.893
73952W        W46377  41.310  24.179  11.950
73953W        W46378  23.486  17.247  11.340
73954W        W46379  14.785   1.434   2.576
73955W        W46380  25.968   8.498  14.515
73956W        W46381  44.018  28.455  12.381
73957W        W46382  42.733  30.908   3.711
73958W        W46383  20.001   5.398  10.868
73959W        W46384  31.990  29.986   3.839
73960W        W46385   7.783   1.011   1.637
73961W        W46386  20.539  20.664   0.864
73962W        W46387  14.801   3.877   1.785
73963W        W46388  35.846  20.644   1.363
73964W        W46389  34.813  20.794   0.478
73965W        W46390  17.326   0.933  13.841
73966W        W46391   3.758  26.002   1.272
73967W        W46392  42.412  16.655  13.425
73968W        W46393  36.278   7.126   5.132
73969W        W46394  29.443  11.094  14.565
73970W        W46395  37.641   8.791  10.619
73971W        W46396  21.536  44.891  13.514
73972W        W46397  25.287  10.101  10.932
73973W        W46398   1.233  17.381   3.140
73974W        W46399   7.671  34.625   1.229
73975W        W46400   7.706   6.832  14.620
73976W        W46401  34.534  40.815  13.876
73977W        W46402  44.213  17.689  11.953
73978W        W46403  17.512   3.700   2.096
73979W        W46404  31.099   7.211   2.265
73980W        W46405   5.066  38.341   2.667
73981W        W46406   1.759  38.474  14.764
73982W        W46407  19.488  12.455   4.621
73983W        W46408  29.556  30.885   2.737
73984W        W46409  16.641  32.982   0.987
73985W        W46410  42.298  26.538   1.681
73986W        W46411  27.276   7.479   3.163
73987W        W46412  15.986  28.989   0.356
73988W        W46413  23.120  22.201  11.898
73989W        W46414  20.070  37.404  14.903
73990W        W46415  41.577  44.481  14.818
73991W        W46416   7.716   7.507   1.952
73992W        W46417  41.640   5.449   3.339
73993W        W46418  40.842  42.865   4.509
73994W        W46419  28.712  31.808   2.848
73995W        W46420  18.660  17.655  13.406
73996W        W46421  15.736  20.623   0.411
73997W        W46422  25.548  16.419   3.533
73998W        W46423   1.266  26.655   1.161
73999W        W46424  28.327  14.652   2.451
74000W        W46425   5.996   6.266   2.263
74001W        W46426  14.142  11.921  11.454
74002W        W46427  11.167   5.727   1.693
74003W        W46428  37.058  12.678   1.706
74004W        W46429  36.108   2.849   2.250
74005W        W46430  33.627  13.698  13.033
74006W        W46431  35.942  33.350   2.813
74007W        W46432  35.889  36.136  14.328
74008W        W46433  41.006  24.465   1.907
74009W        W46434  20.766  15.520  10.700
74010W        W46435   6.277  14.778   4.520
74011W        W46436  35.054   3.292  13.936
74012W        W46437  26.515  26.215  13.524
74013W        W46438   1.430  39.344   0.367
74014W        W46439  29.702   2.765   0.428
74015W        W46440  25.642  16.337  10.905
74016W        W46441   7.403   0.661  13.999
74017W        W46442  37.410   7.735  12.846
74018W        W46443  24.742   5.249  13.659
74019W        W46444  12.616  38.783   2.799
74020W        W46445  34.819  34.262   2.845
74021W        W46446  27.926  22.271   0.269
74022W        W46447  44.965  34.997   2.815
74023W        W46448   2.361  23.014   0.403
74024W        W46449  14.229  17.398  11.386
74025W        W46450  15.038  10.155  14.512
74026W        W46451  20.176  37.597  10.684
74027W        W46452  14.105  43.282   0.489
74028W        W46453   2.276  22.972   2.744
74029W        W46454  30.491  24.235   0.241
74030W        W46455  37.024   1.506   2.907
74031W        W46456  38.422  14.603   4.902
74032W        W46457  14.975  37.827  11.109
74033W        W46458  19.923  36.847   4.128
74034W        W46459  39.014  31.717   0.599
74035W        W46460  32.984  23.979   3.674
74036W        W46461  20.792  26.698  11.595
74037W        W46462  24.206  24.020   0.754
74038W        W46463  29.549  27.948   3.338
74039W        W46464  36.095  22.040   1.440
74040W        W46465  13.710  37.055   3.198
74041W        W46466   5.884  33.430  14.863
74042W        W46467  27.838  26.103  10.055
74043W        W46468   8.299   2.836  14.207
74044W        W46469  22.345  43.936  12.042
74045W        W46470  23.572   4.657   0.789
74046W        W46471   3.659  44.462  14.603
74047W        W46472  40.778  38.387   1.599
74048W        W46473   0.944  41.071  11.570
74049W        W46474   2.639   6.287   2.848
74050W        W46475  35.114  27.911  13.016
74051W        W46476  44.423  39.653   0.954
74052W        W46477  39.691  23.826  12.155
74053W        W46478   7.891  37.472  11.070
74054W        W46479  42.084  14.026   3.149
74055W        W46480  14.767  17.066   1.351
74056W        W46481  20.806   4.217   3.976
74057W        W46482  12.220  42.843  13.910
74058W        W46483  29.447  25.543  11.511
74059W        W46484  13.865  30.891  14.399
74060W        W46485  10.069  18.306  10.088
74061W        W46486  27.156  41.029  12.337
74062W        W46487  29.679   7.288  14.031
74063W        W46488  31.567  22.222  11.637
74064W        W46489  32.615  18.764   0.449
74065W        W46490  32.428   2.028   2.388
74066W        W46491  18.636  26.250   1.334
74067W        W46492   6.024  26.142  13.337
74068W        W46493  19.070   1.177  10.647
74069W        W46494  21.473  29.634   2.217
74070W        W46495   5.008  24.023   4.137
74071W        W46496  36.901  26.762  11.187
74072W        W46497   3.001  41.249  12.092
74073W        W46498  35.415   1.004  11.239
74074W        W46499  16.731   1.990  10.741
74075W        W46500  24.902   0.446  13.642
74076W        W46501   5.360  29.979   4.635
74077W        W46502  28.546  24.340  10.819
74078W        W46503  24.606  16.984   4.989
74079W        W46504  21.804  36.153  11.491
74080W        W46505  31.847  18.240   4.248
74081W        W46506   0.307  36.445   0.672
74082W        W46507   9.189  31.409  11.900
74083W        W46508   0.636  38.588   4.431
74084W        W46509  27.742   3.879  11.516
74085W        W46510  35.291  10.386   3.507
74086W        W46511   9.564  27.018   0.107
74087W        W46512  34.946  40.046   2.179
74088W        W46513  32.552  27.590  12.901
74089W        W46514   0.935   7.675   3.004
74090W        W46515  32.585  29.465   0.285
74091W        W46516  20.581   1.945  10.636
74092W        W46517  36.151   5.252   2.851
74093W        W46518  19.589  12.833  14.408
74094W        W46519   5.447   9.673   4.571
74095W        W46520  34.655  22.789   3.886
74096W        W46521  32.968   0.089  13.072
74097W        W46522   6.381  36.645  12.550
74098W        W46523  34.089  10.141  12.401
74099W        W46524  26.222  30.549  10.265
74100W        W46525  35.996  38.488   0.716
74101W        W46526  18.845   8.859   0.170
74102W        W46527   6.669  18.723   3.161
74103W        W46528   5.187  29.701   3.988
74104W        W46529  41.379  11.672   2.405
74105W        W46530  42.125  18.561  12.130
74106W        W46531   1.336  37.519   4.555
74107W        W46532  40.019  35.462  11.437
74108W        W46533  10.157   5.402  11.238
74109W        W46534  28.008  41.470   4.988
74110W        W46535  37.403  41.716   0.844
74111W        W46536  37.414  23.151  13.059
74112W        W46537  13.053  28.703  11.180
74113W        W46538  11.591  36.937   4.270
74114W        W46539  30.418  14.418   4.171
74115W        W46540  40.402  11.680   0.467
74116W        W46541  31.602  21.498   2.653
74117W        W46542   7.166  12.576   3.596
74118W        W46543  24.477   0.966  14.379
74119W        W46544  40.846  23.981  13.288
74120W        W46545  10.858   6.328  12.988
74121W        W46546  44.002  33.922   2.552
74122W        W46547  40.340  14.405  13.068
74123W        W46548  34.921  22.125  13.884
74124W        W46549  33.924  28.539  14.427
74125W        W46550  26.031  12.688   1.087
74126W        W46551  38.335  26.754   1.551
74127W        W46552  12.596   9.200  11.533
74128W        W46553  29.458  15.696  10.756
74129W        W46554  10.448  42.731   0.877
74130W        W46555  12.869  17.572  13.433
74131W        W46556  27.944  24.148  10.952
74132W        W46557   9.374  28.457  12.802
74133W        W46558  26.155  40.361  11.536
74134W        W46559  41.546  23.689  12.001
74135W        W46560   9.648  24.502  12.394
74136W        W46561   0.179  38.914   1.082
74137W        W46562  10.027  23.064  14.880
74138W        W46563  15.841  11.668  11.476
74139W        W46564  29.547   6.324  11.626
74140W        W46565  27.427  11.220   3.257
74141W        W46566  34.500  21.121   2.700
74142W        W46567  20.748  12.459  11.496
74143W        W46568   0.223  39.632  13.459
74144W        W46569  20.858   8.549  11.216
74145W        W46570  15.215  11.471   3.997
74146W        W46571  23.396  40.313   3.265
74147W        W46572  40.436   6.911   3.143
74148W        W46573   6.223  28.246   0.690
74149W        W46574  17.183  30.313   3.198
74150W        W46575  18.329  34.606  12.234
74151W        W46576   0.888  15.909   4.090
74152W        W46577  42.980  20.887  10.989
74153W        W46578  10.146  38.393   2.228
74154W        W46579  29.724  18.206  13.937
74155W        W46580  29.541  20.063  10.663
74156W        W46581  24.098  18.162  10.701
74157W        W46582  42.545  42.576   4.219
74158W        W46583   6.998  37.927  11.390
74159W        W46584  20.342  27.604  11.422
74160W        W46585  33.933  43.961  12.788
74161W        W46586  40.902  43.790   3.205
74162W        W46587  29.387  11.881  13.032
74163W        W46588  29.607   3.552   5.136
74164W        W46589   7.218  24.636   4.523
74165W        W46590   4.558  29.703   5.002
74166W        W46591  23.425  33.047   1.844
74167W        W46592  35.264  41.909   2.395
74168W        W46593  15.207  29.477   3.308
74169W        W46594  43.334  23.221   0.479
74170W        W46595  39.788  22.184   3.162
74171W        W46596  35.103   7.844  11.696
74172W        W46597  23.516  22.999  12.023
74173W        W46598  41.424   8.359  14.460
74174W        W46599  17.639   4.921  11.027
74175W        W46600  32.279  14.737  14.646
74176W        W46601   7.210  40.927  11.123
74177W        W46602  27.628  19.696   1.846
74178W        W46603  22.939  39.219  12.488
74179W        W46604   1.255  17.725  13.881
74180W        W46605  17.065  33.676   2.875
74181W        W46606  12.902   5.376  13.875
74182W        W46607  37.743   0.886  13.317
74183W        W46608   1.370  14.580  12.357
74184W        W46609  11.236  26.479   1.519
74185W        W46610  36.164  32.131  13.909
74186W        W46611  23.092  10.756   0.525
74187W        W46612   2.501  21.083  14.265
74188W        W46613  14.816  28.653  12.483
74189W        W46614  33.968  30.287  14.737
74190W        W46615  27.437  27.054  13.384
74191W        W46616   4.555  32.832  13.363
74192W        W46617   9.267  25.997  14.136
74193W        W46618  11.599  22.231   3.247
74194W        W46619  26.736   7.045   2.191
74195W        W46620   9.649  19.546  12.971
74196W        W46621  24.095  34.565   3.606
74197W        W46622   8.588   5.962   0.912
74198W        W46623  18.659  34.703   3.832
74199W        W46624  16.117  33.831   2.333
74200W        W46625  33.523   0.820   0.044
74201W        W46626   8.236  14.829   0.307
74202W        W46627  38.283  37.486  10.667
74203W        W46628   3.257   3.292   0.224
74204W        W46629  43.917   9.803   0.269
74205W        W46630  12.413  33.417  11.085
74206W        W46631  21.791  17.320   1.758
74207W        W46632  31.058  33.006   3.223
74208W        W46633  14.372  29.026  13.716
74209W        W46634   8.392  14.182   4.042
74210W        W46635  19.643  37.230   4.641
74211W        W46636  39.831  41.037   4.532
74212W        W46637  27.168   9.288   4.863
74213W        W46638  17.924  23.613   0.369
74214W        W46639  40.494  32.042  11.179
74215W        W46640  15.679  26.668  10.505
74216W        W46641  22.415  13.697  13.946
74217W        W46642  40.062  22.055  10.712
74218W        W46643  22.282  16.085   2.494
74219W        W46644   7.309  26.166  11.056
74220W        W46645  24.372   2.331   4.162
74221W        W46646  44.474  13.229  11.634
74222W        W46647  36.134  11.866  14.057
74223W        W46648  12.413  29.177  12.499
74224W        W46649  40.865  18.787   1.288
74225W        W46650  11.138  40.504   4.423
74226W        W46651  13.671  26.019   4.365
74227W        W46652  28.720   6.191   3.710
74228W        W46653   1.014  35.102  10.786
74229W        W46654   5.375   4.537   0.039
74230W        W46655   8.920  29.415  14.792
74231W        W46656  20.706   9.514  10.081
74232W        W46657  19.638  33.123   2.793
74233W        W46658  19.095  37.526   1.763
74234W        W46659  37.807  18.582  14.453
74235W        W46660  22.235  10.620   1.852
74236W        W46661   7.259  16.239   4.198
74237W        W46662   5.984   7.553   1.990
74238W        W46663   9.317  26.830   3.382
74239W        W46664  36.832  39.422  11.229
74240W        W46665   8.228  32.328  12.002
74241W        W46666  44.413  22.721  12.080
74242W        W46667  33.409   3.438   3.755
74243W        W46668   8.164   6.655   3.672
74244W        W46669  28.038   6.700  12.982
74245W        W46670   1.343  20.048  13.651
74246W        W46671  10.421  23.003  14.035
74247W        W46672  38.957  40.337  12.097
74248W        W46673  43.349  41.867  10.896
74249W        W46674   5.986  34.869   1.958
74250W        W46675  12.394  20.740  12.433
74251W        W46676   2.977  18.756   1.699
74252W        W46677  17.769  29.484   1.155
74253W        W46678  13.040  31.772   0.832
74254W        W46679  29.065  24.452   3.879
74255W        W46680  18.624  38.275  14.513
74256W        W46681   8.149   5.181   2.279
74257W        W46682  41.732  33.002   0.629
74258W        W46683  40.473  26.726   0.811
74259W        W46684   5.143  32.843  14.421
74260W        W46685  13.400  32.967   0.674
74261W        W46686  28.457  34.281  11.549
74262W        W46687  23.315  35.946   2.283
74263W        W46688  21.129  39.390   3.482
74264W        W46689  21.336  44.919  11.089
74265W        W46690  44.025  26.148  10.562
74266W        W46691  36.860  11.355   1.930
74267W        W46692  32.951   6.869  13.188
74268W        W46693  33.088  39.037   2.163
74269W        W46694  32.508   0.779  12.631
74270W        W46695   4.795  11.344   4.529
74271W        W46696  20.560  16.016   3.227
74272W        W46697   4.965  34.809   1.355
74273W        W46698   3.723  24.257   2.370
74274W        W46699  36.209  15.796  10.536
74275W        W46700  41.017  14.681  13.577
74276W        W46701  13.424  37.505  10.697
74277W        W46702   6.085   5.220   4.686
74278W        W46703  41.501  37.993  10.929
74279W        W46704  29.426  26.987   1.633
74280W        W46705   2.019  43.059  10.951
74281W        W46706  36.049   9.687   2.189
74282W        W46707  25.865  38.755   0.797
74283W        W46708   2.049  20.591   2.126
74284W        W46709   0.948  14.699   2.693
74285W        W46710   3.068  15.749  13.313
74286W        W46711  43.915   0.585  13.770
74287W        W46712  34.146  11.927   0.345
74288W        W46713  40.732  34.870   0.420
74289W        W46714  21.581  11.115   3.014
74290W        W46715   3.391  39.840  12.654
74291W        W46716  15.463  20.766   1.881
74292W        W46717  16.252  24.640  14.553
74293W        W46718  41.361  20.646  11.983
74294W        W46719  12.821  43.370   4.522
74295W        W46720   1.707  29.939  14.322
74296W        W46721   1.321  29.263  11.619
74297W        W46722   5.739  38.568  12.803
74298W        W46723  32.619   9.912   0.894
74299W        W46724   6.394  27.874   2.118
74300W        W46725  43.715  41.842  13.732
74301W        W46726  35.397  34.995  12.351
74302W        W46727  14.534  12.655  10.678
74303W        W46728  18.681   6.114   2.238
74304W        W46729  36.558  30.599  12.501
74305W        W46730   3.737   7.308  13.395
74306W        W46731  35.532  40.821  12.885
74307W        W46732   6.819  12.407   2.836
74308W        W46733  15.049  22.937  11.060
74309W        W46734  25.955   3.755   2.362
74310W        W46735  42.581  22.074   5.171
74311W        W46736   4.284  33.963   0.790
74312W        W46737  12.374  30.562   2.834
74313W        W46738  36.289  12.765  14.063
74314W        W46739  21.704  33.370  13.936
74315W        W46740  23.282  36.650  14.897
74316W        W46741  16.816  40.063  13.739
74317W        W46742   1.639  15.136   1.568
74318W        W46743  21.348  29.788   0.759
74319W        W46744  29.433   5.542   2.350
74320W        W46745  33.902  27.917   3.629
74321W        W46746   6.742  30.963   2.529
74322W        W46747  26.148   4.517   4.870
74323W        W46748  30.026  24.179   0.010
74324W        W46749  30.739  15.833   1.464
74325W        W46750   4.365  39.046   9.986
74326W        W46751  34.520  39.958   1.454
74327W        W46752  22.207  19.506  12.573
74328W        W46753  24.755   0.500  14.281
74329W        W46754  18.636  37.518  13.087
74330W        W46755  39.543  32.870  14.052
74331W        W46756  33.636  22.263  14.427
74332W        W46757  43.793  30.694  12.942
74333W        W46758  28.494  40.578   1.605
74334W        W46759  43.730  16.647  13.006
74335W        W46760  36.449  30.184  12.194
74336W        W46761  27.929  11.840   5.021
74337W        W46762  13.406   7.699   4.285
74338W        W46763   5.825   6.763   4.280
74339W        W46764   3.092  39.076  14.521
74340W        W46765   6.385   4.764  10.113
74341W        W46766  32.982  20.803   3.660
74342W        W46767  10.775  29.059  13.567
74343W        W46768  23.720  25.415   2.740
74344W        W46769  35.502  25.007   4.948
74345W        W46770   3.768  21.529   3.595
74346W        W46771   0.693   5.491   0.527
74347W        W46772  20.312  27.965   1.630
74348W        W46773  19.786  28.195   4.553
74349W        W46774   4.070  20.285   0.859
74350W        W46775  37.014   8.583   1.061
74351W        W46776  33.485   0.756  12.439
74352W        W46777  29.507  24.593  14.260
74353W        W46778  38.962  30.823   3.811
74354W        W46779  41.927  34.972   4.643
74355W        W46780  20.221   2.358  13.809
74356W        W46781  19.131  31.509   3.152
74357W        W46782  29.335  19.175  10.571
74358W        W46783  41.064  35.817  13.029
74359W        W46784  10.237  35.921  12.581
74360W        W46785  11.633  31.557  14.359
74361W        W46786  37.325  43.370   4.858
74362W        W46787   0.787   7.287   3.871
74363W        W46788  28.194  26.986  10.561
74364W        W46789  24.655   8.149  13.004
74365W        W46790  10.685  23.505  12.289
74366W        W46791   1.252  31.300  14.971
74367W        W46792  25.716  43.835  11.111
74368W        W46793  42.977   7.777   0.421
74369W        W46794  28.305  34.558   2.422
74370W        W46795  12.776   3.143  12.977
74371W        W46796  41.891  32.573   0.879
74372W        W46797  34.017  36.879  14.031
74373W        W46798   1.459  35.025   3.199
74374W        W46799  23.908  34.933   2.550
74375W        W46800  43.808   3.339  11.567
74376W        W46801  21.723  34.968   3.673
74377W        W46802   7.390  39.414  12.525
74378W        W46803   2.200   7.946   0.439
74379W        W46804   0.515   6.498  14.069
74380W        W46805  20.578  31.168  10.637
74381W        W46806  37.293  26.175  10.625
74382W        W46807  40.512  42.350   1.707
74383W        W46808  19.271  23.624  14.254
74384W        W46809   1.746  33.194   3.736
74385W        W46810  40.533  20.323   0.787
74386W        W46811   3.435  11.763  14.541
74387W        W46812  42.512  35.748   4.634
74388W        W46813  29.089  15.227   1.514
74389W        W46814  24.116  37.155   1.215
74390W        W46815   3.647  38.261   0.862
74391W        W46816  22.519  33.014  12.372
74392W        W46817   1.374  22.926   0.416
74393W        W46818  42.564  21.245  11.094
74394W        W46819  30.572   4.661   1.675
74395W        W46820  43.898   1.627   0.269
74396W        W46821  18.934  36.151  13.003
74397W        W46822  33.332  29.591   3.060
74398W        W46823  38.344  17.170   4.168
74399W        W46824  37.594  36.981   2.472
74400W        W46825  33.744  30.675  11.356
74401W        W46826  37.491   4.699  12.894
74402W        W46827  37.343  27.633  14.555
74403W        W46828   3.388  42.997   4.791
74404W        W46829  40.798  32.381   2.667
74405W        W46830  30.069  26.158   4.206
74406W        W46831   5.821   5.962   1.698
74407W        W46832   2.350  10.296  11.515
74408W        W46833  33.500  42.418  14.893
74409W        W46834  20.840  32.991   3.636
74410W        W46835  42.795  27.297  13.152
74411W        W46836  23.864  16.789  10.178
74412W        W46837  23.783  26.558  12.555
74413W        W46838  27.167  28.179   4.616
74414W        W46839   4.432  23.154   0.455
74415W        W46840   2.725   3.936   3.619
74416W        W46841   3.850  39.211  13.391
74417W        W46842  33.003  21.341  11.908
74418W        W46843  40.416  22.871  10.241
74419W        W46844   2.799  42.846  11.600
74420W        W46845  43.746   8.594  11.123
74421W        W46846  23.914  38.015   2.072
74422W        W46847  22.738  25.632  13.377
74423W        W46848  10.767  39.631  12.891
74424W        W46849  29.878  17.567  13.283
74425W        W46850   6.351  21.830  14.735
74426W        W46851  35.326   4.755  13.101
74427W        W46852  13.993  22.397   5.520
74428W        W46853  35.054  40.733   2.857
74429W        W46854  44.971  40.581  10.552
74430W        W46855  12.631   6.917   0.894
74431W        W46856   1.886  18.813  12.019
74432W        W46857  15.647  21.307   3.645
74433W        W46858  22.061  23.352   2.267
74434W        W46859   8.224  22.038   1.457
74435W        W46860  34.611  12.167   3.250
74436W        W46861  21.242  38.593   4.450
74437W        W46862  34.955  26.366  10.685
74438W        W46863  37.429  11.728   4.672
74439W        W46864  37.572   6.167   0.770
74440W        W46865  25.509  15.130   2.271
74441W        W46866  10.823  29.646  14.462
74442W        W46867   3.306   2.364   3.214
74443W        W46868   6.360  19.529  12.096
74444W        W46869  32.186   6.211   0.712
74445W        W46870  33.569  32.975  13.881
74446W        W46871  27.492   5.462   1.975
74447W        W46872  37.921   7.768  14.023
74448W        W46873  22.974   9.813   2.848
74449W        W46874   1.654   8.173   4.247
74450W        W46875  14.049  32.824  11.124
74451W        W46876   2.846  28.932  11.986
74452W        W46877  44.794   4.904  12.379
74453W        W46878  42.060  23.761  13.730
74454W        W46879  13.651  24.212  12.833
74455W        W46880  23.292  24.047  14.879
74456W        W46881  42.866  40.499  13.791
74457W        W46882  17.153  37.644   5.152
74458W        W46883  25.615  42.433   2.730
74459W        W46884  29.874  29.121  11.342
74460W        W46885  29.359  28.807   3.210
74461W        W46886  37.616  20.282   3.624
74462W        W46887  32.506   4.408   4.942
74463W        W46888  44.310   8.481  10.745
74464W        W46889  23.977  29.464  10.732
74465W        W46890  43.475  13.748   4.149
74466W        W46891  12.924   4.860  13.995
74467W        W46892  30.491   1.833  11.872
74468W        W46893  12.260  38.254   0.222
74469W        W46894  19.690  12.544   2.088
74470W        W46895  34.010  29.062  14.336
74471W        W46896  31.469  31.609  13.288
74472W        W46897   1.795  32.695  10.337
74473W        W46898  10.768  41.369  12.517
74474W        W46899  25.912   6.321   3.944
74475W        W46900  30.621  32.615   1.817
74476W        W46901   2.236  29.400  11.539
74477W        W46902  11.580  23.605  13.815
74478W        W46903  14.196  26.898  12.690
74479W        W46904  21.724  22.068  10.708
74480W        W46905  29.896  41.746   1.241
74481W        W46906  16.196  34.190  10.657
74482W        W46907  12.375  36.619  12.474
74483W        W46908   0.993  27.492   3.316
74484W        W46909  44.954  16.695  11.079
74485W        W46910  31.815  37.830  12.024
74486W        W46911  30.943  12.083  13.566
74487W        W46912  41.969   0.447   1.187
74488W        W46913  24.368  34.910  11.081
74489W        W46914   7.559  17.993   0.936
74490W        W46915  18.098  27.949   4.234
74491W        W46916  18.337  16.790   4.067
74492W        W46917  16.399   8.110   4.678
74493W        W46918   6.411   0.407  11.809
74494W        W46919  39.462  26.929  14.394
74495W        W46920  15.792   9.733  12.108
74496W        W46921  18.559  42.928   3.671
74497W        W46922  19.401  27.188   4.445
74498W        W46923  21.927  39.435   3.096
74499W        W46924  42.720   4.700   0.428
74500W        W46925  42.698  27.872  11.371
74501W        W46926  10.786  25.566   4.574
74502W        W46927   0.346   4.091   4.585
74503W        W46928   0.505  41.544  11.037
74504W        W46929  41.867  17.987   4.156
74505W        W46930  44.937   1.919  12.705
74506W        W46931  40.819  44.865   2.336
74507W        W46932  26.085   0.980   4.762
74508W        W46933   2.917  40.374  14.487
74509W        W46934   6.272  36.217   1.971
74510W        W46935  24.654  40.578  11.559
74511W        W46936  36.553  37.570  12.151
74512W        W46937  39.447  24.991   3.738
74513W        W46938  26.956   0.341  11.935
74514W        W46939  43.985  10.711   1.873
74515W        W46940  14.778  40.488  14.438
74516W        W46941   9.950  42.909  13.363
74517W        W46942  22.547  10.936  12.830
74518W        W46943   5.336  39.245   0.341
74519W        W46944  12.317  34.405  13.418
74520W        W46945  38.231  10.447   2.762
74521W        W46946   7.759  30.107   3.865
74522W        W46947  24.443  37.099  11.481
74523W        W46948  19.153  19.716   3.710
74524W        W46949  10.084   9.348   0.281
74525W        W46950  39.365  44.241  11.657
74526W        W46951   9.775   6.227  14.833
74527W        W46952  28.104  11.687   1.513
74528W        W46953  13.328  44.835  10.726
74529W        W46954  42.785  36.561   1.340
74530W        W46955  12.669  24.948  10.948
74531W        W46956  39.865  11.926   0.096
74532W        W46957  43.746  15.743   2.684
74533W        W46958  10.408  34.335  13.286
74534W        W46959  12.104  21.854   5.386
74535W        W46960  43.432  43.775  14.718
74536W        W46961  39.955  23.903  11.261
74537W        W46962  27.902  28.610   4.691
74538W        W46963  34.609  43.080  10.755
74539W        W46964  24.570   4.697   4.230
74540W        W46965  33.883   5.711  11.089
74541W        W46966  35.704  11.833  11.080
74542W        W46967   7.118  21.822  14.342
74543W        W46968  35.005  31.996   4.026
74544W        W46969  20.577  34.116   2.343
74545W        W46970  12.193  28.341  12.043
74546W        W46971  12.652   0.290  12.519
74547W        W46972  13.809  21.949  10.874
74548W        W46973  34.883  37.089   4.216
74549W        W46974  19.590  22.100  11.668
74550W        W46975  20.188  39.422   4.447
74551W        W46976  21.240  34.645  13.622
74552W        W46977  39.471  15.189   2.710
74553W        W46978   3.993  17.772   4.602
74554W        W46979  36.602  19.952   2.791
74555W        W46980   9.414  28.648   1.280
74556W        W46981  41.480  39.731  12.396
74557W        W46982  38.982  25.436   4.692
74558W        W46983  36.695  25.615  10.456
74559W        W46984  42.032  39.257   2.392
74560W        W46985  28.197  23.947   1.262
74561W        W46986  20.080  34.517  14.372
74562W        W46987  39.877  39.159  12.991
74563W        W46988  13.691   4.287   9.654
74564W        W46989  38.981  28.685   1.854
74565W        W46990  14.348  43.037   3.780
74566W        W46991   9.331   1.543  12.530
74567W        W46992  43.066   7.670  11.221
74568W        W46993  33.619   5.649  10.660
74569W        W46994  12.673  25.123   3.552
74570W        W46995   9.087  15.203   2.375
74571W        W46996  33.306  31.578  14.700
74572W        W46997  18.277  14.591   1.397
74573W        W46998  32.622  11.298   3.541
74574W        W46999  42.391  23.062   3.762
74575W        W47000  12.597  21.713   4.664
74576W        W47001  29.845  42.552   4.228
74577W        W47002  43.722  41.845   4.232
74578W        W47003  38.916  38.515  12.039
74579W        W47004  23.181  15.611  11.914
74580W        W47005  27.227  27.987  15.000
74581W        W47006   9.300   3.456  10.601
74582W        W47007  26.199  14.267  12.165
74583W        W47008  35.711  28.401  13.800
74584W        W47009  44.854  36.836   2.188
74585W        W47010  24.006  44.985  14.114
74586W        W47011   0.869  33.943  14.415
74587W        W47012  32.705  30.926  11.032
74588W        W47013  13.703  32.039   1.790
74589W        W47014  22.654  23.974  10.568
74590W        W47015  19.786  22.587   2.332
74591W        W47016  13.613  32.001  14.944
74592W        W47017  32.805  26.984  12.960
74593W        W47018  40.368  44.396  13.311
74594W        W47019  38.857  30.195   0.782
74595W        W47020  12.033  29.545   3.506
74596W        W47021   2.321  37.604   2.936
74597W        W47022  31.893  43.066   1.840
74598W        W47023  38.988  25.924   0.020
74599W        W47024  36.468  21.811   3.227
74600W        W47025   6.748  31.972   3.556
74601W        W47026   6.340  15.798   3.618
74602W        W47027   3.498   5.546  13.778
74603W        W47028  25.928   8.453   3.234
74604W        W47029  30.383  28.963  14.960
74605W        W47030  22.626  11.824   2.259
74606W        W47031  17.160  28.839  10.256
74607W        W47032  23.586   4.254  13.970
74608W        W47033  44.582  12.408  10.238
74609W        W47034  11.589  29.586   1.228
74610W        W47035  12.869  44.454  12.052
74611W        W47036  34.978  44.281  14.243
74612W        W47037  19.178  42.358   4.287
74613W        W47038  43.529  34.407   0.439
74614W        W47039   5.012  11.845  11.590
74615W        W47040  19.679  20.544   4.061
74616W        W47041   5.307  17.020   1.238
74617W        W47042   3.072  26.165   2.736
74618W        W47043  33.312  37.460   1.838
74619W        W47044  10.601   5.774  12.150
74620W        W47045  27.653  22.801  13.038
74621W        W47046  22.372  12.106  14.831
74622W        W47047  39.118  44.959   0.877
74623W        W47048   2.521   6.149   0.723
74624W        W47049  19.616  33.169  13.463
74625W        W47050  33.529  33.975   4.877
74626W        W47051  42.176  26.477   5.162
74627W        W47052   0.774  29.580   9.930
74628W        W47053  27.477  39.599   1.396
74629W        W47054  41.016  39.783   2.156
74630W        W47055  32.874  22.646   3.295
74631W        W47056  29.465  41.022  10.333
74632W        W47057  30.018  38.514   0.412
74633W        W47058  39.478  34.313  10.682
74634W        W47059   0.824  18.515  11.595
74635W        W47060  17.687  18.676   2.386
74636W        W47061  38.718  38.850   3.806
74637W        W47062  14.817  33.189   2.644
74638W        W47063  10.598   1.431   1.925
74639W        W47064  43.210  39.938  13.972
74640W        W47065  18.148  20.440   0.736
74641W        W47066   7.366  13.606   1.605
74642W        W47067   5.711   2.876  13.697
74643W        W47068  22.043  35.707  13.636
74644W        W47069  41.794  14.315  11.670
74645W        W47070  31.318  33.682   1.200
74646W        W47071   7.291  31.160   3.725
74647W        W47072  24.757  11.165   3.763
74648W        W47073  38.497  41.896   2.676
74649W        W47074  25.924  26.513   1.287
74650W        W47075  22.543  20.595  11.591
74651W        W47076   1.264  21.929   1.187
74652W        W47077  30.115  10.315   0.783
74653W        W47078  36.067  41.122   4.164
74654W        W47079  14.368  23.391  13.940
74655W        W47080  16.198  16.640  11.440
74656W        W47081  10.850  37.809   2.232
74657W        W47082  22.498  11.919  10.285
74658W        W47083  22.211  36.084   4.656
74659W        W47084  41.948   9.300  10.448
74660W        W47085   5.424  40.880   4.839
74661W        W47086  41.595  37.227   0.864
74662W        W47087  12.492  36.099   2.241
74663W        W47088  23.816  22.138   3.261
74664W        W47089  43.788  29.283   1.399
74665W        W47090   7.314  40.527  11.448
74666W        W47091  19.517  42.834   3.582
74667W        W47092  27.146  34.033   0.955
74668W        W47093  17.683  11.833  10.790
74669W        W47094  19.490  44.194  11.596
74670W        W47095  25.038  38.949  11.161
74671W        W47096  21.224  37.406  11.522
74672W        W47097  11.637  33.930  12.351
74673W        W47098  32.840  16.469  13.436
74674W        W47099   5.818  37.300   2.906
74675W        W47100  20.884  22.449  12.685
74676W        W47101   2.366   9.673   2.884
74677W        W47102  20.851   0.403   4.679
74678W        W47103  11.267   4.404   0.136
74679W        W47104  28.930   6.147   4.179
74680W        W47105   8.147  25.608   1.746
74681W        W47106   3.063  30.705   3.570
74682W        W47107   4.825  11.530  10.678
74683W        W47108  29.558  10.692  12.620
74684W        W47109  19.801  41.556   4.764
74685W        W47110  34.965  14.893   2.223
74686W        W47111   9.621   4.161   2.813
74687W        W47112  15.229  15.102  13.570
74688W        W47113   1.769   5.169  12.816
74689W        W47114  36.879  21.159   4.282
74690W        W47115   9.604  32.972  12.923
74691W        W47116   8.180  18.666  12.542
74692W        W47117   5.346  32.773   4.744
74693W        W47118  42.831  11.373  12.259
74694W        W47119  29.051  33.083   1.439
74695W        W47120  33.221   1.929   4.614
74696W        W47121  31.065   2.892  11.153
74697W        W47122  29.952  32.440  13.923
74698W        W47123  21.143   9.749  14.444
74699W        W47124  14.320  27.687  14.925
74700W        W47125  20.306  17.294   2.096
74701W        W47126  25.571  41.371  11.179
74702W        W47127   2.761  21.063   0.109
74703W        W47128   6.980   2.718   0.421
74704W        W47129  13.570  37.462  12.949
74705W        W47130  12.530  29.902   2.172
74706W        W47131  39.731   4.688   4.166
74707W        W47132  12.765  15.154   0.753
74708W        W47133  36.823  38.527   2.622
74709W        W47134  31.916  25.924   1.188
74710W        W47135  41.945  39.312  11.318
74711W        W47136  23.917  27.009  12.347
74712W        W47137  30.192  34.299  11.362
74713W        W47138  35.289   8.187   4.660
74714W        W47139  14.854  25.895  13.360
74715W        W47140   6.897  15.750  14.365
74716W        W47141  18.864  10.549  11.570
74717W        W47142  32.003   4.350   3.729
74718W        W47143  21.308  17.073   1.862
74719W        W47144  10.154  22.065   4.372
74720W        W47145  26.676  30.904   0.848
74721W        W47146   9.344  40.874  14.049
74722W        W47147  22.747  16.260  10.684
74723W        W47148  34.144  10.638  13.112
74724W        W47149  38.991   4.908  12.529
74725W        W47150  34.195   6.237  11.927
74726W        W47151  42.205  32.402  11.222
74727W        W47152  24.744  11.923  12.571
74728W        W47153  33.571  34.723  13.294
74729W        W47154  31.955  13.906   3.213
74730W        W47155   7.900  37.083  12.455
74731W        W47156  38.611  37.139   4.202
74732W        W47157   2.186  37.475   1.181
74733W        W47158  34.447  41.293   1.899
74734W        W47159  18.334  11.945   0.102
74735W        W47160  32.552   2.679  11.149
74736W        W47161  41.808  24.908  11.049
74737W        W47162  35.522   6.915   4.051
74738W        W47163  31.405  24.093   4.518
74739W        W47164  14.688  36.692  14.865
74740W        W47165  20.468  40.470  12.752
74741W        W47166  14.415  22.489   3.180
74742W        W47167  14.720  19.708  14.911
74743W        W47168  34.439  13.825   4.125
74744W        W47169  21.543  42.451  11.945
74745W        W47170  15.549   2.718   0.480
74746W        W47171  15.242   7.407  11.959
74747W        W47172  14.207  31.998   2.020
74748W        W47173   9.264   7.769  10.762
74749W        W47174  44.043   7.241   5.041
74750W        W47175   8.882  35.006   0.636
74751W        W47176  26.707  15.191   0.452
74752W        W47177  23.009   8.100  13.817
74753W        W47178  41.068  16.016   4.488
74754W        W47179  15.309  16.630  11.501
74755W        W47180  30.438  29.092   4.206
74756W        W47181  10.270  44.609  12.413
74757W        W47182  14.631  27.460   3.862
74758W        W47183  39.407   9.610  11.933
74759W        W47184  13.656  27.014   2.466
74760W        W47185  18.612  13.806  14.335
74761W        W47186  42.123   6.321   4.286
74762W        W47187  23.629   5.758   3.291
74763W        W47188  28.055  43.724   1.982
74764W        W47189  17.890   9.446   2.929
74765W        W47190   6.410  19.838  14.862
74766W        W47191   7.374  29.576  13.411
74767W        W47192  40.424  37.912   2.825
74768W        W47193  43.341  35.976   1.850
74769W        W47194  34.450   4.195   2.576
74770W        W47195  31.008   0.843  10.701
74771W        W47196   2.705   7.594   2.742
74772W        W47197   8.412  19.661  10.592
74773W        W47198  40.395  27.701   2.732
74774W        W47199  20.009  22.355   0.702
74775W        W47200   2.870  20.218   4.615
74776W        W47201  43.656  10.306   2.440
74777W        W47202  25.734  32.421  12.123
74778W        W47203  15.150  37.960   3.657
74779W        W47204   0.239  26.281   3.501
74780W        W47205   9.306  30.523   3.219
74781W        W47206  21.630  29.003  11.985
74782W        W47207  40.364  27.425   4.588
74783W        W47208  23.144  40.728   1.482
74784W        W47209  30.793  41.854   5.781
74785W        W47210  23.989  16.829   1.729
74786W        W47211  40.361  12.321  12.104
74787W        W47212  26.480  21.956   1.107
74788W        W47213  24.651  25.820   0.311
74789W        W47214   9.502   7.858  13.879
74790W        W47215  44.721  38.411  11.144
74791W        W47216  42.828   0.843   3.080
74792W        W47217   9.140  10.830  13.024
74793W        W47218  25.174   6.487   4.312
74794W        W47219  24.085   7.828   0.657
74795W        W47220   0.125   2.340   0.985
74796W        W47221  22.928  34.512   1.888
74797W        W47222  22.717  22.459   3.660
74798W        W47223  35.865  17.530  14.254
74799W        W47224   4.483   3.859   0.834
74800W        W47225  40.509  17.022  12.838
74801W        W47226  28.164   3.489  12.030
74802W        W47227  41.338  15.026  14.501
74803W        W47228   0.375  44.511   1.844
74804W        W47229  28.396  30.129   4.868
74805W        W47230   0.002  20.327   1.619
74806W        W47231  33.075  14.275  14.847
74807W        W47232   9.686  11.212   2.619
74808W        W47233  22.448  18.179   0.825
74809W        W47234  20.479  30.066   4.182
74810W        W47235  34.086   6.480   1.383
74811W        W47236  12.041  13.635   1.013
74812W        W47237  30.868   6.780   4.762
74813W        W47238  20.754   9.821   4.979
74814W        W47239   4.663  25.012  10.483
74815W        W47240  30.757  11.370  10.251
74816W        W47241  23.060   0.180  14.489
74817W        W47242  18.200  14.251   2.918
74818W        W47243  13.350  15.803   3.157
74819W        W47244  35.664  26.634   2.636
74820W        W47245  24.456   3.857  13.542
74821W        W47246  38.497  14.749  13.092
74822W        W47247  32.329  42.860  14.306
74823W        W47248   5.862  40.057   1.999
74824W        W47249  22.254  29.943   0.662
74825W        W47250  30.933   5.223   2.109
74826W        W47251  34.163  19.997   0.288
74827W        W47252  33.106  44.883   4.643
74828W        W47253   4.975  32.582   5.057
74829W        W47254  17.838  22.167   1.242
74830W        W47255   6.381  21.077  14.335
74831W        W47256   2.633  20.785   1.420
74832W        W47257  22.405  12.067   2.698
74833W        W47258  25.036   9.485   0.295
74834W        W47259  38.055  19.569   0.792
74835W        W47260  16.397   7.809   4.181
74836W        W47261  21.590   9.064  13.536
74837W        W47262   1.041  25.104  14.426
74838W        W47263  32.451  29.574  14.362
74839W        W47264  37.166  29.186   1.866
74840W        W47265  32.910   7.467   4.210
74841W        W47266   1.697  28.056  12.026
74842W        W47267  22.743  31.094   1.691
74843W        W47268  21.102  38.015   2.921
74844W        W47269  39.960  32.989  12.336
74845W        W47270  12.564  38.912  13.696
74846W        W47271  19.532  29.148   5.045
74847W        W47272  27.192   9.155  13.593
74848W        W47273  11.726  38.711  11.905
74849W        W47274  26.557  25.716  10.886
74850W        W47275   3.714   7.029   1.355
74851W        W47276   3.791   9.832  10.554
74852W        W47277  16.401  21.546   3.171
74853W        W47278  38.335  20.232  14.792
74854W        W47279  25.922  44.267   2.320
74855W        W47280  22.234  17.622  11.259
74856W        W47281  14.634  36.975  12.061
74857W        W47282   2.742   9.831   3.209
74858W        W47283  38.129  17.792   4.356
74859W        W47284  33.187  21.435  10.679
74860W        W47285  15.671  22.732   0.729
74861W        W47286  12.868  41.857  13.331
74862W        W47287  26.235  18.535  14.930
74863W        W47288  43.866  29.180   2.813
74864W        W47289  24.477  37.244  12.980
74865W        W47290  34.121  38.480  12.535
74866W        W47291  26.016  23.414   4.831
74867W        W47292   3.353   4.411   3.310
74868W        W47293  16.352   9.807  12.116
74869W        W47294  30.867  23.556  10.228
74870W        W47295  20.872  31.920  12.652
74871W        W47296  11.775   4.487  14.950
74872W        W47297   5.339  35.573  13.568
74873W        W47298  39.055  13.242  11.460
74874W        W47299  32.406  13.497   0.548
74875W        W47300  44.407  42.031  11.913
74876W        W47301  17.764   2.913   3.059
74877W        W47302  31.034  15.982  11.242
74878W        W47303  38.110  43.739  14.677
74879W        W47304  41.875  28.447   1.418
74880W        W47305  38.390  24.110  14.235
74881W        W47306   7.960   9.567   4.026
74882W        W47307  20.518  11.576   0.763
74883W        W47308   4.352   9.224  14.329
74884W        W47309  25.311  29.889  14.800
74885W        W47310   7.274  25.667   4.625
74886W        W47311   2.916   8.095   0.808
74887W        W47312  42.944  17.541   3.671
74888W        W47313  20.037   1.368   0.281
74889W        W47314  42.759   1.875   0.920
74890W        W47315  18.290  41.798   4.071
74891W        W47316   8.200  35.887   3.415
74892W        W47317  39.554  14.115  14.465
74893W        W47318  34.738  39.341  12.440
74894W        W47319  11.365  30.057   3.752
74895W        W47320   9.120  23.088  12.560
74896W        W47321  13.648  35.645  13.938
74897W        W47322   2.700  17.777   2.919
74898W        W47323   8.342  21.414   4.779
74899W        W47324  20.305  14.133  12.633
74900W        W47325  10.059   8.620   2.776
74901W        W47326  28.755  14.152  10.634
74902W        W47327   5.853  38.693   1.337
74903W        W47328  26.078  38.482   4.600
74904W        W47329  29.823  17.564   3.174
74905W        W47330  30.606  29.589   4.156
74906W        W47331  21.656  21.607   3.849
74907W        W47332  23.496  22.639   2.340
74908W        W47333   8.824  25.116   3.225
74909W        W47334  32.389  11.599   3.874
74910W        W47335  27.549  23.532  13.768
74911W        W47336  39.938  34.624   4.055
74912W        W47337  42.867  30.177   1.808
74913W        W47338  38.327   8.363   2.836
74914W        W47339   6.096  30.201   1.673
74915W        W47340   4.237   1.767   1.203
74916W        W47341  32.026  21.505   4.715
74917W        W47342   4.562  10.863  14.336
74918W        W47343  23.097  26.394  12.105
74919W        W47344  42.566   0.752  12.111
74920W        W47345   9.755  17.189  13.737
74921W        W47346  13.209  36.820  11.431
74922W        W47347  17.767  12.095   2.696
74923W        W47348  40.548  16.855   2.297
74924W        W47349  29.893  35.536   1.442
74925W        W47350  29.661  32.865  14.688
74926W        W47351  40.913  31.677   4.139
74927W        W47352  31.335  32.059  13.993
74928W        W47353  26.334  13.104  12.940
74929W        W47354  10.766  34.785   4.726
74930W        W47355  21.477  28.148  12.898
74931W        W47356  10.715  39.559  10.682
74932W        W47357  13.278  12.851  12.846
74933W        W47358  44.856   9.473  11.073
74934W        W47359  11.746  34.446   3.594
74935W        W47360  30.489   4.048   2.561
74936W        W47361  29.112   2.434  13.988
74937W        W47362  23.612  41.575  12.619
74938W        W47363  34.074  28.643  12.558
74939W        W47364  36.121   2.775   4.026
74940W        W47365  10.705  38.082  13.105
74941W        W47366   3.461  43.850   1.364
74942W        W47367   6.532  12.372  10.549
74943W        W47368  21.622  41.577   4.540
74944W        W47369  25.238   4.164  10.655
74945W        W47370  33.801   3.266   2.242
74946W        W47371   2.734  34.904   4.889
74947W        W47372  11.655  43.085  11.036
74948W        W47373  40.786  21.089   4.757
74949W        W47374   0.338  21.676   0.020
74950W        W47375  24.551  34.301  12.083
74951W        W47376  44.023  17.012   2.092
74952W        W47377   0.997  41.241  12.075
74953W        W47378  42.937  35.268  10.719
74954W        W47379  25.614  41.747   4.545
74955W        W47380  30.601  25.060   2.883
74956W        W47381  43.332   3.318   1.626
74957W        W47382  39.014  10.404  14.277
74958W        W47383  22.038  36.522   0.662
74959W        W47384  39.611  11.131   0.275
74960W        W47385  40.113  10.258  11.949
74961W        W47386  25.940   0.169   3.228
74962W        W47387  16.328  21.133  12.804
74963W        W47388  28.252  41.863  14.013
74964W        W47389  32.914   8.433   0.442
74965W        W47390  22.771  13.137   3.182
74966W        W47391  33.885   5.532  13.972
74967W        W47392   6.103  13.103   4.661
74968W        W47393   0.067  13.697  13.396
74969W        W47394  12.195  33.310   2.325
74970W        W47395  42.739  20.633  11.373
74971W        W47396   6.591  17.313  11.576
74972W        W47397   4.024  18.860  12.489
74973W        W47398  35.070  39.930  11.249
74974W        W47399  15.600   1.595   1.307
74975W        W47400  28.973  17.808  13.522
74976W        W47401  43.709  40.810  14.967
74977W        W47402   6.447  15.909   0.242
74978W        W47403  43.373   2.480  11.584
74979W        W47404  42.616   9.299   0.065
74980W        W47405  12.931  27.464  11.033
74981W        W47406  19.061  41.820   1.315
74982W        W47407  32.676  21.936   0.706
74983W        W47408  23.262  32.694   4.552
74984W        W47409  23.181  13.683  14.768
74985W        W47410  37.385  32.734   4.478
74986W        W47411  12.579  35.452   3.300
74987W        W47412  20.005  34.424   4.509
74988W        W47413  30.473  26.036   3.868
74989W        W47414  44.030  29.267  13.025
74990W        W47415  36.611  10.165   4.647
74991W        W47416  39.385   7.892  10.489
74992W        W47417  19.644   3.707   1.415
74993W        W47418  15.113  41.579   3.212
74994W        W47419   1.546  25.184  14.411
74995W        W47420  13.587   7.872  10.664
74996W        W47421  10.619  15.444   3.300
74997W        W47422   4.072  27.666  12.317
74998W        W47423  24.627   8.675  13.043
74999W        W47424   5.753  28.065   0.837
75000W        W47425  12.726  44.513  14.266
75001W        W47426  32.323  40.440   4.579
75002W        W47427  36.389  16.451   2.182
75003W        W47428  27.336  16.386   0.838
75004W        W47429  40.464  39.398  13.895
75005W        W47430  13.846  41.284  12.319
75006W        W47431  18.359  19.181   0.921
75007W        W47432  26.567  37.457   4.661
75008W        W47433   8.285  41.907   0.869
75009W        W47434  12.796  35.883  14.088
75010W        W47435   8.830   1.921   1.801
75011W        W47436   3.302  38.910   3.152
75012W        W47437  38.049  42.477   2.142
75013W        W47438  33.403  39.963   5.304
75014W        W47439  12.702  29.069  12.963
75015W        W47440  29.808  18.222  11.673
75016W        W47441  37.198   5.259   4.570
75017W        W47442   7.930  11.982  12.172
75018W        W47443  16.642  23.290  12.588
75019W        W47444  27.974  19.772   0.406
75020W        W47445  21.611  24.921   0.079
75021W        W47446  10.730  37.575  11.612
75022W        W47447  15.598  19.534  10.750
75023W        W47448  20.716   0.733  11.278
75024W        W47449  15.552  27.431   1.808
75025W        W47450  35.373  40.205   2.851
75026W        W47451   2.283  42.470   1.262
75027W        W47452  24.129   1.543  13.793
75028W        W47453  21.143   0.059   0.433
75029W        W47454   8.856  35.392  14.283
75030W        W47455   9.391  36.354  13.516
75031W        W47456  44.228  19.675  10.520
75032W        W47457  36.332  24.923   5.093
75033W        W47458   3.501   4.798  13.413
75034W        W47459  25.243  20.234   4.838
75035W        W47460   9.899   6.154  11.720
75036W        W47461  39.267  35.855  12.504
75037W        W47462  13.694   7.784  11.492
75038W        W47463  13.230   2.076   0.488
75039W        W47464  24.285  26.582  12.500
75040W        W47465   9.154  31.177   0.055
75041W        W47466  11.623   0.234  10.232
75042W        W47467  38.762  35.995   9.960
75043W        W47468  23.702   6.329  12.660
75044W        W47469   6.697  34.929   1.657
75045W        W47470   3.294  17.706  12.054
75046W        W47471  13.382  40.969  12.068
75047W        W47472  14.831  43.791   2.604
75048W        W47473  43.986   1.463   2.855
75049W        W47474  18.612  44.611   2.847
75050W        W47475  26.049  21.542  14.151
75051W        W47476  11.017   3.753   4.617
75052W        W47477  33.412  25.035   9.957
75053W        W47478  36.845   5.808   5.026
75054W        W47479  28.158  28.230  11.170
75055W        W47480  17.807  19.186   4.252
75056W        W47481  29.835   2.916  13.898
75057W        W47482   3.367  26.112   3.177
75058W        W47483  11.325  14.267  11.925
75059W        W47484  27.504  18.509   3.748
75060W        W47485  15.879  15.943  13.487
75061W        W47486  19.293  33.486  12.154
75062W        W47487   6.427  18.236   3.354
75063W        W47488   2.399  19.155   2.765
75064W        W47489   4.369   5.875   0.924
75065W        W47490  43.731  12.831  14.009
75066W        W47491  18.363  38.501   4.141
75067W        W47492  31.396  41.484  11.873
75068W        W47493  36.468  34.172  12.344
75069W        W47494   5.387  37.027  10.989
75070W        W47495  28.764  12.426   4.140
75071W        W47496  37.615   3.527   3.207
75072W        W47497  40.929  18.674   4.252
75073W        W47498  15.003  10.471   0.750
75074W        W47499  36.292  14.835  11.886
75075W        W47500   6.280  31.282  12.757
75076W        W47501  42.214  16.907   3.454
75077W        W47502  18.690  37.663   4.238
75078W        W47503   2.235  42.773   2.343
75079W        W47504  29.674  23.233  12.415
75080W        W47505  43.447  39.496  13.872
75081W        W47506  31.184  23.987  13.578
75082W        W47507  10.542  36.386   0.375
75083W        W47508   9.133  36.560   2.251
75084W        W47509  40.240  15.715  13.053
75085W        W47510  36.870  35.925  12.461
75086W        W47511   2.693  11.918  13.468
75087W        W47512  30.889  30.047  10.743
75088W        W47513  38.297  39.344  14.559
75089W        W47514   6.482   7.320   2.623
75090W        W47515  12.641   0.819  13.094
75091W        W47516  18.199   7.169  13.480
75092W        W47517  32.640  19.665  12.950
75093W        W47518  30.041  27.687   4.323
75094W        W47519  27.052  24.923   1.255
75095W        W47520  17.587  13.218  10.717
75096W        W47521  22.683  30.519  14.915
75097W        W47522   8.344  24.998   3.681
75098W        W47523  28.637  26.507   5.415
75099W        W47524   6.213  11.202  10.906
75100W        W47525  34.856  16.704  12.997
75101W        W47526  33.135  29.527   1.015
75102W        W47527  41.232   9.169   0.450
75103W        W47528  10.684   7.685   4.348
75104W        W47529   9.245  22.236   0.803
75105W        W47530  22.277  37.126   3.787
75106W        W47531  40.994  20.319  11.168
75107W        W47532  36.575   6.313  12.559
75108W        W47533  18.058  38.560   1.785
75109W        W47534   4.301  13.581   3.160
75110W        W47535  15.866   2.321   0.595
75111W        W47536   5.751  19.054  13.333
75112W        W47537  38.938   7.301  12.970
75113W        W47538  19.879  11.820  12.054
75114W        W47539   5.478  44.101   1.343
75115W        W47540  26.024  39.545  12.422
75116W        W47541  39.425  28.516  11.896
75117W        W47542  13.155  15.519   0.715
75118W        W47543   4.248  24.192  13.438
75119W        W47544  30.896  10.727   3.279
75120W        W47545   4.166  11.568   1.811
75121W        W47546   2.234  41.998   1.503
75122W        W47547   0.204  19.061  12.878
75123W        W47548  13.301  10.824   4.068
75124W        W47549   9.282   7.931  12.545
75125W        W47550   4.198  31.322  11.576
75126W        W47551  37.460  23.725  11.455
75127W        W47552  26.586   0.833   4.621
75128W        W47553  40.999  32.959  12.562
75129W        W47554  30.063   0.454  11.561
75130W        W47555  36.111  33.446  12.888
75131W        W47556  32.710   4.411   1.895
75132W        W47557  14.303  22.282  13.564
75133W        W47558  24.892  20.513   2.330
75134W        W47559  10.345   9.601   1.263
75135W        W47560   1.375  21.263   1.730
75136W        W47561   3.261   8.558  11.930
75137W        W47562  28.100  30.625  10.514
75138W        W47563  29.658  30.035  12.455
75139W        W47564  28.228  31.381  14.049
75140W        W47565  33.701  37.542  14.530
75141W        W47566  27.102  20.295  11.475
75142W        W47567  15.346  30.035  13.323
75143W        W47568   3.147  24.599  13.860
75144W        W47569  23.713  43.741   1.760
75145W        W47570  19.311  40.557   5.099
75146W        W47571  13.125   5.922   4.655
75147W        W47572  37.061  30.441   0.639
75148W        W47573   4.375  26.662   1.174
75149W        W47574  15.075  35.142   1.307
75150W        W47575   2.501   3.752  13.365
75151W        W47576  37.001  29.042  12.556
75152W        W47577  44.473  20.763   3.691
75153W        W47578  37.494   8.388   2.685
75154W        W47579  29.525  33.649   1.756
75155W        W47580  22.566   4.805   0.784
75156W        W47581   0.376  36.753   1.874
75157W        W47582  37.520  23.423  10.421
75158W        W47583  21.699   3.825   2.723
75159W        W47584  23.781   9.938   3.370
75160W        W47585   2.878  20.739  12.340
75161W        W47586  22.093  35.384   0.628
75162W        W47587  11.200  44.402  10.236
75163W        W47588  20.324   7.392   4.955
75164W        W47589  20.672  40.227  10.884
75165W        W47590   0.944  38.464   1.857
75166W        W47591  36.917  22.245   1.682
75167W        W47592  40.412  36.648   4.589
75168W        W47593   1.965   0.505  13.893
75169W        W47594  28.917  14.303   2.353
75170W        W47595   5.736  20.487   2.393
75171W        W47596  15.023   2.770   5.074
75172W        W47597  42.892   6.118   1.750
75173W        W47598  17.022  28.095   0.329
75174W        W47599  17.603  10.380   3.139
75175W        W47600  12.694  28.537  13.624
75176W        W47601  35.587  23.669   3.344
75177W        W47602   2.225  12.885  12.892
75178W        W47603  29.550  38.417   3.440
75179W        W47604  39.795   8.224   4.663
75180W        W47605  22.150  36.656   4.570
75181W        W47606  33.640  17.559   3.604
75182W        W47607   6.083  37.528  12.612
75183W        W47608   0.549  22.506   1.502
75184W        W47609  19.762   3.746  10.698
75185W        W47610  31.971  20.697   2.814
75186W        W47611   5.905  41.221  13.052
75187W        W47612  12.144  16.903  13.431
75188W        W47613  10.434  37.597  14.947
75189W        W47614  18.369   8.709   1.454
75190W        W47615  42.389  36.974  11.222
75191W        W47616   2.396  15.873   3.380
75192W        W47617   9.561  42.573   1.230
75193W        W47618  44.476  23.695   0.204
75194W        W47619   3.877  41.437  12.898
75195W        W47620  30.214  34.093  10.789
75196W        W47621  10.451   0.692  10.685
75197W        W47622  26.473  25.084  12.616
75198W        W47623  38.838  17.793  12.106
75199W        W47624  25.412  34.120  12.154
75200W        W47625   8.702  13.048   4.490
75201W        W47626  11.656  10.756  13.049
75202W        W47627  10.359   6.620  14.572
75203W        W47628  43.692  31.873  11.039
75204W        W47629  40.554  35.309   4.662
75205W        W47630  25.703  31.123   2.205
75206W        W47631  38.635   5.448  12.082
75207W        W47632  29.836  40.160   3.307
75208W        W47633  44.414  22.155   4.354
75209W        W47634  30.542  44.196   3.108
75210W        W47635  44.290  19.370   0.950
75211W        W47636  38.176   9.368   3.559
75212W        W47637  24.038   1.178   3.745
75213W        W47638  37.746  27.545   4.073
75214W        W47639  10.872  36.955   3.458
75215W        W47640  39.965   5.914   3.760
75216W        W47641   1.868  18.776   0.620
75217W        W47642  22.082  17.637   0.325
75218W        W47643   2.333  21.542  11.256
75219W        W47644  40.438  28.678   1.381
75220W        W47645  43.743  21.117   2.666
75221W        W47646  32.929   5.212   3.927
75222W        W47647  23.109   9.170  12.928
75223W        W47648  43.475  43.924  11.957
75224W        W47649  42.933  19.512  12.552
75225W        W47650  34.963  13.370   4.556
75226W        W47651   8.435  13.330   4.160
75227W        W47652  30.337  21.826   0.503
75228W        W47653  22.090   4.195   1.443
75229W        W47654  17.224  11.488  11.617
75230W        W47655  43.752   6.397   3.272
75231W        W47656   6.086  30.076  13.406
75232W        W47657  24.194  34.064  14.886
75233W        W47658  43.362   1.127   1.375
75234W        W47659  33.710  24.497   3.768
75235W        W47660  41.783   1.008  10.715
75236W        W47661   6.727  19.938  11.489
75237W        W47662  17.586   8.186  11.179
75238W        W47663   4.517   4.840  11.061
75239W        W47664  42.222  37.994   1.865
75240W        W47665  14.903  34.024   4.045
75241W        W47666   4.333  27.130   2.487
75242W        W47667   9.777   5.851   4.537
75243W        W47668  14.752  43.386  13.094
75244W        W47669  22.073  29.447   0.376
75245W        W47670  12.267  33.581  11.602
75246W        W47671  14.440   7.692   4.249
75247W        W47672  35.008  36.482  11.115
75248W        W47673  15.193  33.425   0.555
75249W        W47674   7.171  41.442   0.227
75250W        W47675   5.403  44.289   0.209
75251W        W47676  37.927  26.410  14.760
75252W        W47677  27.663  15.289  14.319
75253W        W47678  41.511  31.622   0.061
75254W        W47679  33.529  32.898   4.045
75255W        W47680   3.236  41.067   4.051
75256W        W47681   9.900  42.008  13.356
75257W        W47682  32.137  12.329  11.564
75258W        W47683  25.870  20.300   2.604
75259W        W47684  41.860  31.565   3.260
75260W        W47685  33.467  38.450   1.915
75261W        W47686  32.623  11.736   4.871
75262W        W47687  26.156  23.986   5.004
75263W        W47688  21.003  15.863  13.774
75264W        W47689  31.604  26.870   1.457
75265W        W47690   9.641  39.386   0.396
75266W        W47691  11.140   8.652   0.218
75267W        W47692  32.455  23.298  14.912
75268W        W47693  18.065  13.791  14.386
75269W        W47694  29.675  35.935  10.619
75270W        W47695  36.994  38.519   3.415
75271W        W47696  20.612  26.631  14.419
75272W        W47697  22.817  30.488   5.227
75273W        W47698  32.574  18.117   2.756
75274W        W47699  10.315  42.739  14.980
75275W        W47700  28.201   4.593   0.489
75276W        W47701  10.859  12.133  13.517
75277W        W47702  17.205  20.014  11.077
75278W        W47703   0.808  16.542   0.052
75279W        W47704   3.362  42.006   0.543
75280W        W47705  28.714  32.371  13.852
75281W        W47706  28.430  18.368   1.941
75282W        W47707  28.863  39.356  11.644
75283W        W47708  28.940  27.002   3.619
75284W        W47709  17.612  31.211  12.548
75285W        W47710   4.523  10.211  12.539
75286W        W47711  28.441  39.913   2.190
75287W        W47712  31.974  10.442  13.817
75288W        W47713   6.267  27.612   3.330
75289W        W47714  10.911  36.446  12.635
75290W        W47715  26.682  38.933  12.089
75291W        W47716   2.541  19.680   3.355
75292W        W47717   7.195  35.988   0.305
75293W        W47718   5.729  26.349  10.621
75294W        W47719  42.504  19.760   1.787
75295W        W47720  22.079  27.962   1.018
75296W        W47721   8.709  22.469   0.888
75297W        W47722  20.259  40.415   1.264
75298W        W47723   2.525   5.878   0.274
75299W        W47724  40.811  35.986   0.674
75300W        W47725  37.612  19.707  12.918
75301W        W47726   7.750  10.358   3.646
75302W        W47727  20.849  39.022   3.702
75303W        W47728  37.111  13.588  14.125
75304W        W47729  23.770  25.326  11.981
75305W        W47730   1.521  14.246  14.810
75306W        W47731  36.574   7.432  12.065
75307W        W47732  14.552  11.807  12.919
75308W        W47733  29.284  13.080   3.757
75309W        W47734  21.976  18.076  10.529
75310W        W47735   6.620  26.130   1.490
75311W        W47736  33.982  41.039  13.055
75312W        W47737  29.541  25.713   1.855
75313W        W47738  10.760  17.463   0.958
75314W        W47739   1.563  27.535   4.557
75315W        W47740  16.280  37.841   2.821
75316W        W47741  14.730  23.268   2.228
75317W        W47742  33.929  11.125   3.682
75318W        W47743   0.406  36.908  13.282
75319W        W47744  40.676  25.258   2.837
75320W        W47745  31.308   1.553   0.759
75321W        W47746  14.874  43.473  11.541
75322W        W47747  40.754  30.546   1.251
75323W        W47748  21.625  11.551   0.044
75324W        W47749  11.150  17.674  11.420
75325W        W47750  14.621   7.697  14.545
75326W        W47751  42.319  19.853   2.746
75327W        W47752  36.254  10.703   1.418
75328W        W47753  14.131  10.903  14.988
75329W        W47754   4.166  30.933  12.751
75330W        W47755  32.872  33.060   1.144
75331W        W47756   6.433  43.208  11.226
75332W        W47757  20.130  29.545   4.147
75333W        W47758   2.992   6.856  11.907
75334W        W47759  10.431  40.186  11.130
75335W        W47760  42.579   5.266   0.336
75336W        W47761  43.795  28.090   3.659
75337W        W47762   1.552  36.995  11.703
75338W        W47763  29.373  17.087   2.335
75339W        W47764  26.423  27.471   0.158
75340W        W47765   7.024  32.434   0.929
75341W        W47766  23.742  25.710   0.997
75342W        W47767  27.127  10.131   4.521
75343W        W47768  12.730  40.830   3.294
75344W        W47769  35.785  28.608  12.338
75345W        W47770  23.525  23.639   2.710
75346W        W47771  35.092  16.166  14.725
75347W        W47772  30.597  35.451   4.788
75348W        W47773   7.231  17.809   3.948
75349W        W47774  41.469   6.130   0.469
75350W        W47775  16.011  43.517   3.359
75351W        W47776  16.038  25.260  13.789
75352W        W47777  41.784   4.535   0.329
75353W        W47778  24.018  39.036   2.245
75354W        W47779  14.727  26.545  10.900
75355W        W47780  17.059  15.595  11.513
75356W        W47781  28.579  19.413   2.115
75357W        W47782  38.970  20.119   4.133
75358W        W47783  12.859  43.214  11.937
75359W        W47784   8.805  12.043   1.298
75360W        W47785  15.681  20.361   3.992
75361W        W47786   3.691   5.803  10.648
75362W        W47787  23.621  17.410   3.680
75363W        W47788  31.900   0.173  14.505
75364W        W47789  31.343   8.696  11.585
75365W        W47790   3.887  35.046  11.718
75366W        W47791  39.780  27.742   3.128
75367W        W47792  24.871  17.233  10.956
75368W        W47793  15.101  34.525  14.364
75369W        W47794  39.355   6.142  14.277
75370W        W47795  44.872  14.793   4.232
75371W        W47796   3.767   7.218   2.651
75372W        W47797  44.523   7.694   2.763
75373W        W47798  38.589   4.255   5.073
75374W        W47799  10.308   1.403   3.763
75375W        W47800  35.742  43.536   2.382
75376W        W47801  36.147   1.948  14.297
75377W        W47802  39.361  27.543  11.076
75378W        W47803  26.692   2.763   3.725
75379W        W47804   7.330  30.394   3.682
75380W        W47805  19.189  16.085   1.864
75381W        W47806  36.833   3.893  14.383
75382W        W47807  31.938  39.307  14.110
75383W        W47808  36.378   0.319  11.198
75384W        W47809  43.485  13.093   3.230
75385W        W47810  26.737  44.855   4.622
75386W        W47811  29.384  17.818   3.639
75387W        W47812  36.819  26.730   2.738
75388W        W47813  42.419   3.649   4.605
75389W        W47814  35.421   3.671  13.901
75390W        W47815  29.049  21.723  12.404
75391W        W47816  37.382  17.596  14.763
75392W        W47817   4.948  39.052  12.836
75393W        W47818  33.677  28.445  13.990
75394W        W47819  32.608  17.249   2.957
75395W        W47820  34.585  29.415   3.837
75396W        W47821  13.113  27.942   3.296
75397W        W47822  21.152  18.336   4.228
75398W        W47823  13.836  26.002   3.876
75399W        W47824  18.225  11.874  11.660
75400W        W47825  13.245  29.234  13.002
75401W        W47826  19.698  36.229   4.555
75402W        W47827  14.923  23.294  14.666
75403W        W47828  26.425  40.470  11.092
75404W        W47829  30.380   0.682  10.760
75405W        W47830  20.290  33.953  10.637
75406W        W47831  36.448  18.271  13.293
75407W        W47832  13.813  17.718   0.303
75408W        W47833  18.692   4.000  11.046
75409W        W47834  40.078  44.582   1.456
75410W        W47835  25.686  19.143   1.697
75411W        W47836   9.823  11.637  11.953
75412W        W47837  25.187  30.202   3.773
75413W        W47838  11.682   0.562  10.698
75414W        W47839   9.585  10.344  10.618
75415W        W47840  16.187   4.866   0.326
75416W        W47841  31.467  40.486   1.222
75417W        W47842  29.068  31.254   4.840
75418W        W47843  21.668  24.411  12.164
75419W        W47844   1.800  33.664  13.539
75420W        W47845   8.649  44.593  12.451
75421W        W47846  32.963  42.440  14.893
75422W        W47847  37.555  27.064  13.755
75423W        W47848  14.715   1.571   1.920
75424W        W47849  11.606  40.354  10.197
75425W        W47850   5.995  37.889  11.656
75426W        W47851  31.454  10.771   1.341
75427W        W47852  32.344  26.085   3.895
75428W        W47853  11.741   0.661   2.748
75429W        W47854  28.611  24.701   3.863
75430W        W47855  14.804   1.366  14.472
75431W        W47856  14.148   1.359  12.465
75432W        W47857  23.639  39.499  13.905
75433W        W47858  21.460  40.034   0.893
75434W        W47859  25.974  41.051  14.355
75435W        W47860  31.234  22.445   1.833
75436W        W47861  34.165   6.672   1.853
75437W        W47862  37.549  18.845  12.828
75438W        W47863  41.812  35.494  10.559
75439W        W47864  13.826  17.094   4.240
75440W        W47865   5.343  20.024   3.918
75441W        W47866  44.518  40.985  12.376
75442W        W47867  32.527  11.628   4.368
75443W        W47868   5.725   3.293   4.605
75444W        W47869  22.585  27.240  10.624
75445W        W47870   6.351  22.629   0.736
75446W        W47871   3.457   7.875  13.886
75447W        W47872  40.259  38.983  11.178
75448W        W47873  40.736  16.163   1.189
75449W        W47874  30.379   6.650   0.754
75450W        W47875   8.238  25.135  12.837
75451W        W47876   7.426  11.929   4.140
75452W        W47877   2.868  39.604   3.139
75453W        W47878  26.513   3.411  13.551
75454W        W47879   9.049  15.688   3.479
75455W        W47880  13.065   3.734   4.632
75456W        W47881  37.394   0.871  10.380
75457W        W47882  24.194  25.100  14.867
75458W        W47883  26.522  11.165   0.277
75459W        W47884  24.277  14.899  14.414
75460W        W47885  24.127  11.879  12.874
75461W        W47886   1.367  28.734  11.653
75462W        W47887  33.702   5.035  13.933
75463W        W47888   8.241  44.032  10.688
75464W        W47889  26.281   4.060   4.059
75465W        W47890  38.042   5.897  10.906
75466W        W47891  10.589  37.062  11.518
75467W        W47892  35.340  23.654  11.684
75468W        W47893   0.241  36.620  12.462
75469W        W47894  30.995  31.125  14.966
75470W        W47895  27.804  44.862  14.915
75471W        W47896  35.774   4.535  13.289
75472W        W47897   9.437  30.398  10.564
75473W        W47898  25.493  18.194   4.183
75474W        W47899  24.902  31.539   3.099
75475W        W47900   4.488  17.256  12.988
75476W        W47901  15.263  32.152  11.449
75477W        W47902   7.210  30.458  12.107
75478W        W47903  21.064   3.522  13.288
75479W        W47904   9.741  40.418  13.560
75480W        W47905   6.270  19.819  10.719
75481W        W47906  43.371  41.737  11.383
75482W        W47907  23.200  44.690  13.571
75483W        W47908  14.629  24.172  11.936
75484W        W47909  32.242  13.273  12.592
75485W        W47910  13.208   6.253   3.910
75486W        W47911  34.146  33.562   0.873
75487W        W47912  27.096   1.790   3.427
75488W        W47913  36.344  32.400  10.416
75489W        W47914  15.278  19.573   1.658
75490W        W47915   3.363  21.867   3.687
75491W        W47916  32.515  38.517   2.313
75492W        W47917  32.124  19.982   2.030
75493W        W47918  38.367   2.158   3.974
75494W        W47919  23.321  37.567   0.997
75495W        W47920  27.515  13.900   3.455
75496W        W47921  39.524  31.486  14.478
75497W        W47922  40.860  35.755  11.135
75498W        W47923  20.776  32.668  10.655
75499W        W47924  12.578   4.206  11.976
75500W        W47925   1.788  21.202   0.422
75501W        W47926  22.696  22.116  10.599
75502W        W47927  35.879  23.705  10.615
75503W        W47928  41.358  17.184  14.932
75504W        W47929  25.170  13.364  11.523
75505W        W47930  22.718  44.775   2.824
75506W        W47931  32.468  25.597   0.336
75507W        W47932  22.653   3.298   4.743
75508W        W47933  29.632  26.083  10.619
75509W        W47934  13.176   3.929  14.867
75510W        W47935  18.052  33.801  12.372
75511W        W47936  25.712  39.563   4.018
75512W        W47937  31.346  20.153   0.454
75513W        W47938  40.588  30.363   9.569
75514W        W47939   3.761  19.500   4.615
75515W        W47940  30.252   8.609   2.627
75516W        W47941  22.441  14.227   1.359
75517W        W47942  44.864  42.771  11.143
75518W        W47943  33.831  10.283  12.839
75519W        W47944   2.034  32.183  11.050
75520W        W47945  22.018  41.748  14.440
75521W        W47946  42.964  25.111   2.755
75522W        W47947  22.812   4.508   3.271
75523W        W47948  42.327  14.248  13.969
75524W        W47949   7.567   1.369  13.479
75525W        W47950  20.104  36.895   2.636
75526W        W47951   3.970  17.468   1.270
75527W        W47952  33.964  34.005   2.285
75528W        W47953  35.516  44.351   1.672
75529W        W47954  24.775  23.522   2.390
75530W        W47955  43.525  38.815  10.578
75531W        W47956  24.581  12.136   4.782
75532W        W47957  14.268  15.616   3.610
75533W        W47958  26.376  26.196   3.795
75534W        W47959  21.991   1.846  13.516
75535W        W47960  15.642  32.233   5.328
75536W        W47961  16.449  14.106  11.113
75537W        W47962   3.528  41.241   2.264
75538W        W47963   2.199   5.763   4.163
75539W        W47964  43.255  23.583   2.784
75540W        W47965   0.980   0.770  11.073
75541W        W47966  43.964   1.298  14.891
75542W        W47967  27.630   8.635   2.685
75543W        W47968  31.474   0.959  12.065
75544W        W47969  30.457  39.014   3.954
75545W        W47970  11.886  33.910   2.894
75546W        W47971  35.940  27.159  11.998
75547W        W47972  38.054   4.227  13.001
75548W        W47973  16.609   3.729  14.838
75549W        W47974  10.408  16.300  12.572
75550W        W47975  16.704  13.598  11.882
75551W        W47976   8.389  24.980   1.331
75552W        W47977  25.108  10.506   3.254
75553W        W47978  29.697  28.139   2.193
75554W        W47979   4.353  23.726   1.655
75555W        W47980   4.663  13.002  13.713
75556W        W47981  44.529  26.594   4.925
75557W        W47982  24.307  20.823   3.134
75558W        W47983  14.154   7.212  13.939
75559W        W47984  19.051  16.122  14.936
75560W        W47985  38.597  24.549   2.416
75561W        W47986  15.311  39.666   3.594
75562W        W47987  43.763   9.247  14.238
75563W        W47988  36.944   5.916   0.970
75564W        W47989  32.813  38.526   3.672
75565W        W47990  13.098   9.905   3.512
75566W        W47991  30.280   7.922  14.366
75567W        W47992  28.241   3.937   4.677
75568W        W47993  32.193  18.232   4.623
75569W        W47994  21.796  31.078  13.587
75570W        W47995  24.354  28.187  14.493
75571W        W47996  11.383  43.006  13.479
75572W        W47997  31.367  15.236   0.391
75573W        W47998   0.065  34.097   2.782
75574W        W47999  32.358  24.234  12.097
75575W        W48000  12.247  43.732   2.381
75576W        W48001   4.651  30.177   4.664
75577W        W48002  27.510  34.997   2.659
75578W        W48003   4.419   3.285  14.381
75579W        W48004  42.046  38.448   2.927
75580W        W48005  15.130  35.487   4.611
75581W        W48006   7.156   5.247  12.032
75582W        W48007  31.387  25.158  12.464
75583W        W48008  36.558  17.343  14.135
75584W        W48009  36.520  30.534  10.712
75585W        W48010  25.466  23.375  10.337
75586W        W48011   9.358  17.062   4.856
75587W        W48012  28.134  12.148  11.085
75588W        W48013   3.989   0.163  11.231
75589W        W48014  35.710  30.140   0.800
75590W        W48015  38.590  10.809  13.378
75591W        W48016  21.561   7.390  13.703
75592W        W48017  41.450  42.055  12.586
75593W        W48018  38.167  42.539   0.752
75594W        W48019  24.277  16.700   4.671
75595W        W48020   8.433  35.906  12.762
75596W        W48021  18.550  31.099  14.689
75597W        W48022  14.032  24.649  11.104
75598W        W48023  40.293  11.243  12.966
75599W        W48024  42.412  27.921   0.418
75600W        W48025   5.532   7.826   0.180
75601W        W48026  39.375  11.408  12.009
75602W        W48027  37.337  28.656  12.594
75603W        W48028   1.066  19.691  14.676
75604W        W48029  14.762  40.249   0.391
75605W        W48030  24.465  38.163   3.250
75606W        W48031  28.742  26.954   4.124
75607W        W48032  43.286  43.291  12.378
75608W        W48033  22.127  10.601  13.311
75609W        W48034  27.207  43.455   0.476
75610W        W48035  33.132  35.863   2.726
75611W        W48036   1.516   7.678  12.746
75612W        W48037  17.252  38.547  13.010
75613W        W48038  10.370  35.675   3.374
75614W        W48039  29.485  38.902   3.664
75615W        W48040  43.735  40.091   0.353
75616W        W48041  38.069  37.564   3.725
75617W        W48042  29.074  23.719  13.518
75618W        W48043  31.765  35.958  12.202
75619W        W48044   7.404   2.934  10.542
75620W        W48045  15.588  36.540   3.266
75621W        W48046  36.264  34.371   1.435
75622W        W48047  20.536  18.627  13.451
75623W        W48048  12.939   0.211  12.088
75624W        W48049  42.952  28.534  13.123
75625W        W48050   3.655  19.728   3.738
75626W        W48051  31.202  33.569  12.948
75627W        W48052  25.899  35.962   4.003
75628W        W48053  26.622  29.618  11.152
75629W        W48054  36.451  12.080  11.582
75630W        W48055   3.445  44.013  14.720
75631W        W48056  16.753  38.340  14.722
75632W        W48057  38.241  27.622   4.025
75633W        W48058  20.406  14.761   1.340
75634W        W48059   1.854  24.973   3.585
75635W        W48060   5.203  23.129  12.453
75636W        W48061  28.527  31.051  10.874
75637W        W48062   4.867  37.469  10.481
75638W        W48063   7.715  34.473   0.716
75639W        W48064   3.007  31.357   1.295
75640W        W48065   2.324   3.152  12.528
75641W        W48066  41.859  34.951   0.631
75642W        W48067  36.322  14.071   2.357
75643W        W48068  21.807  27.438   4.989
75644W        W48069   4.214  13.885  13.498
75645W        W48070  10.086  38.930  11.994
75646W        W48071  20.016  12.252   3.290
75647W        W48072  40.934  24.051   1.199
75648W        W48073  24.618  10.164  12.022
75649W        W48074  42.720  12.119  11.082
75650W        W48075  22.784  44.271   4.250
75651W        W48076  38.908   5.448   4.118
75652W        W48077  43.143  11.912  14.060
75653W        W48078   9.104  43.570  11.077
75654W        W48079  14.400  43.332   5.169
75655W        W48080   8.964  15.134   4.173
75656W        W48081  36.428   1.060  13.958
75657W        W48082   5.994   5.709   3.155
75658W        W48083  17.339  28.170   0.791
75659W        W48084  17.377   8.799   1.277
75660W        W48085  10.581  16.571   3.137
75661W        W48086   3.398  24.164  14.896
75662W        W48087  11.380   1.495  10.486
75663W        W48088  30.318  24.506   5.126
75664W        W48089  12.127   0.260  12.423
75665W        W48090  32.938  10.897  14.232
75666W        W48091  33.048   4.202   4.339
75667W        W48092  23.358  24.238   4.300
75668W        W48093   2.379  35.825   5.075
75669W        W48094  28.990  44.654  12.977
75670W        W48095  21.075  38.069   2.410
75671W        W48096   0.662  15.170   0.768
75672W        W48097   7.445   0.272  11.732
75673W        W48098  18.620  42.122   4.631
75674W        W48099   5.206  12.137   3.321
75675W        W48100  37.457  33.160   3.647
75676W        W48101  41.334  42.495   3.191
75677W        W48102  42.320   6.926   0.181
75678W        W48103  19.814  20.124  14.919
75679W        W48104   6.698  24.655   3.276
75680W        W48105  10.652  14.896   2.681
75681W        W48106  24.941  13.298  12.875
75682W        W48107  10.859  24.616  12.582
75683W        W48108  20.608  27.134  14.520
75684W        W48109  36.605  36.578  11.044
75685W        W48110   2.257  14.591   3.654
75686W        W48111   0.751  32.899   0.869
75687W        W48112  33.053  26.554  10.605
75688W        W48113  31.558  43.952  10.276
75689W        W48114  22.377  14.342   3.693
75690W        W48115   7.292  33.180  13.395
75691W        W48116  20.048  40.077  13.492
75692W        W48117  16.671  16.200   3.071
75693W        W48118  14.868  13.700  12.932
75694W        W48119  25.133  43.551   1.599
75695W        W48120  19.461  15.683   1.688
75696W        W48121  15.749  12.064  10.572
75697W        W48122   3.334   1.427   0.710
75698W        W48123   7.314  43.673  14.729
75699W        W48124  11.376  39.863   0.628
75700W        W48125  39.282  39.110   0.779
75701W        W48126  28.334  32.417  11.147
75702W        W48127   8.367  31.491  11.191
75703W        W48128  22.029  10.903   2.277
75704W        W48129  25.612  43.433   4.621
75705W        W48130  42.252  33.420   4.696
75706W        W48131   0.739  18.027   4.994
75707W        W48132  20.242  34.357   1.068
75708W        W48133  17.194  13.645   3.732
75709W        W48134  42.328  17.506   4.616
75710W        W48135   9.649  40.439  14.066
75711W        W48136  39.610  17.109  11.178
75712W        W48137  39.738  32.704  14.897
75713W        W48138  25.141  29.956  10.656
75714W        W48139  31.014  30.385   3.169
75715W        W48140  20.179   3.181  14.201
75716W        W48141  30.919  39.575   2.161
75717W        W48142   4.795   0.551   1.822
75718W        W48143  41.612  38.061   0.378
75719W        W48144   1.247  42.393   2.692
75720W        W48145  14.859   2.283   2.694
75721W        W48146   7.563  44.199   4.460
75722W        W48147  42.145  19.838   4.577
75723W        W48148  32.027  20.123   5.172
75724W        W48149  43.959  40.974   4.170
75725W        W48150  31.976  19.980  11.074
75726W        W48151  24.102  36.430   2.930
75727W        W48152  14.801  22.026   0.284
75728W        W48153  29.071  24.143  11.092
75729W        W48154  33.987  24.325   0.225
75730W        W48155  28.729   3.995   3.433
75731W        W48156  26.555  42.578  13.272
75732W        W48157  31.521  43.998   2.350
75733W        W48158  10.413  37.990   0.889
75734W        W48159  23.804  12.894   0.482
75735W        W48160   4.408  31.666  10.830
75736W        W48161  28.151  10.862  13.743
75737W        W48162  37.842  20.541  12.177
75738W        W48163  22.791  11.984   4.992
75739W        W48164  43.835  24.965   1.006
75740W        W48165   4.213  27.386  12.958
75741W        W48166   1.011   5.167  10.186
75742W        W48167   7.901  34.906  11.561
75743W        W48168   9.625  14.036   0.323
75744W        W48169  14.028  29.958   0.980
75745W        W48170  39.930   5.895  14.898
75746W        W48171  18.103  10.661   0.487
75747W        W48172   7.857   6.445   4.014
75748W        W48173   8.244  43.787  14.835
75749W        W48174   7.201   2.304   0.678
75750W        W48175  14.918  27.025   4.119
75751W        W48176   2.192  32.209  12.030
75752W        W48177  31.152  10.782  14.714
75753W        W48178   5.686  11.346   4.394
75754W        W48179  41.724  34.814   3.324
75755W        W48180  37.877   2.308   3.272
75756W        W48181   0.477  23.034  14.767
75757W        W48182  37.943  40.628   1.630
75758W        W48183  40.553  39.929  13.965
75759W        W48184  24.470  23.078  11.128
75760W        W48185  28.513   0.312   2.244
75761W        W48186  33.400  20.729  11.203
75762W        W48187   9.169  11.371   2.696
75763W        W48188  13.524  13.614  14.823
75764W        W48189  41.552  35.877  10.795
75765W        W48190  10.183   1.995  12.859
75766W        W48191  25.446  33.789  12.949
75767W        W48192  37.955  31.166  11.006
75768W        W48193  42.045   4.755  12.052
75769W        W48194  23.104   2.903   3.072
75770W        W48195  29.027  24.681  14.996
75771W        W48196  13.382  31.488  12.413
75772W        W48197   3.163   9.585  13.329
75773W        W48198  22.013  25.678   4.473
75774W        W48199  14.263  22.467   0.805
75775W        W48200  39.497  42.428  11.326
75776W        W48201  36.171  12.768   3.711
75777W        W48202  17.669  12.319   2.228
75778W        W48203  10.174  16.848   1.176
75779W        W48204  23.701   0.990   4.102
75780W        W48205  11.929  31.854  14.978
75781W        W48206  20.800  19.783   0.360
75782W        W48207  42.940  22.207   0.760
75783W        W48208   7.873  15.537   0.676
75784W        W48209  34.820  40.916  14.330
75785W        W48210  18.086  32.225  13.745
75786W        W48211  38.097   3.799   4.226
75787W        W48212  28.420   6.352  11.088
75788W        W48213  42.813  13.801   3.387
75789W        W48214   1.257  12.233   0.507
75790W        W48215   3.462  39.318  11.552
75791W        W48216  12.578   0.487  13.461
75792W        W48217  27.563  39.321  12.448
75793W        W48218  13.829  42.643  12.439
75794W        W48219  30.228  15.099   1.774
75795W        W48220  22.784  22.417  10.196
75796W        W48221  43.316  25.593  14.366
75797W        W48222  14.654  34.610   3.684
75798W        W48223   5.368   9.373   4.168
75799W        W48224  43.900  18.985  14.791
75800W        W48225   3.968  28.032  13.532
75801W        W48226  36.761  29.156   0.247
75802W        W48227  35.071   0.860  11.979
75803W        W48228  43.911  23.732  11.524
75804W        W48229  15.741  33.868  10.848
75805W        W48230  11.872  44.364   0.770
75806W        W48231  29.394  21.816   3.260
75807W        W48232  34.691  19.229   2.613
75808W        W48233  33.103  12.622   3.754
75809W        W48234  15.705   3.097  14.258
75810W        W48235  42.563   9.763  11.570
75811W        W48236  34.933  33.855  12.331
75812W        W48237  24.670   7.239  13.454
75813W        W48238  18.488   1.247   0.418
75814W        W48239   6.908   0.224  14.108
75815W        W48240  21.509  10.282  11.994
75816W        W48241  30.218  39.797  10.514
75817W        W48242  43.736  26.704  11.886
75818W        W48243   3.348  13.838  11.955
75819W        W48244   8.923  23.214   0.785
75820W        W48245  21.480  15.089   1.206
75821W        W48246  43.430  34.984  14.279
75822W        W48247  29.646  12.875   1.864
75823W        W48248   5.400  10.623  14.137
75824W        W48249  33.813  14.903  13.819
75825W        W48250  12.761  13.070   0.265
75826W        W48251  14.858  24.071  13.406
75827W        W48252  23.194  14.553  13.215
75828W        W48253  15.245  30.879  14.441
75829W        W48254   7.246  36.422  13.783
75830W        W48255  44.844   1.712   2.208
75831W        W48256  32.618  43.402  12.386
75832W        W48257  15.296  35.370   0.276
75833W        W48258  15.089  19.002  13.978
75834W        W48259  14.965  41.516   2.293
75835W        W48260  18.922  20.645  13.049
75836W        W48261  40.426  42.976  12.184
75837W        W48262   0.168  25.983   2.905
75838W        W48263  41.494  25.923   3.776
75839W        W48264  32.467   1.788   0.365
75840W        W48265   1.291  39.343   4.679
75841W        W48266   7.752  27.567   3.770
75842W        W48267  26.450   4.780   0.963
75843W        W48268   1.362  23.664  13.321
75844W        W48269  22.803  31.928  12.442
75845W        W48270   7.969   7.913  13.126
75846W        W48271  20.951   4.595   3.642
75847W        W48272  14.158  37.557   3.315
75848W        W48273  43.540  40.671  13.298
75849W        W48274   5.728   8.130  14.805
75850W        W48275  38.044  28.599  11.730
75851W        W48276  43.900   6.857  11.116
75852W        W48277  36.322  11.979  14.538
75853W        W48278   4.752  30.953   0.049
75854W        W48279  35.891  20.664  11.798
75855W        W48280  33.941  10.958  14.530
75856W        W48281  13.260  32.570   3.348
75857W        W48282  25.099  19.169  11.656
75858W        W48283  18.302  20.769   2.383
75859W        W48284  30.617  16.076   4.628
75860W        W48285  20.199  14.727   0.434
75861W        W48286  19.657  18.747  13.065
75862W        W48287   5.792  40.852   4.437
75863W        W48288  21.988  31.610   3.284
75864W        W48289  10.554   0.302  10.315
75865W        W48290  37.438   5.070   0.670
75866W        W48291  42.062   9.196  13.241
75867W        W48292  11.804   0.507  11.647
75868W        W48293   8.823  31.862  13.851
75869W        W48294  35.943  12.903  11.589
75870W        W48295   7.921  34.510  13.358
75871W        W48296   2.856  37.222   3.797
75872W        W48297  13.321   1.872  14.463
75873W        W48298  18.083  22.372  14.439
75874W        W48299  22.017  41.684   2.795
75875W        W48300  19.572  33.078  12.024
75876W        W48301  26.977   0.719  10.229
75877W        W48302  32.489  39.288   9.965
75878W        W48303  21.184   5.274  12.475
75879W        W48304  31.116  22.973   0.474
75880W        W48305  19.001  36.134   1.063
75881W        W48306   1.832  15.895  12.638
75882W        W48307   4.955  33.871  13.667
75883W        W48308  25.126  40.080   4.492
75884W        W48309  28.165   8.622   0.540
75885W        W48310  11.302  23.009  11.177
75886W        W48311  19.453  37.037   4.175
75887W        W48312  14.938  34.680  13.023
75888W        W48313  16.289  35.997   5.134
75889W        W48314  13.585  39.842   0.713
75890W        W48315  40.338  31.655  14.074
75891W        W48316  29.983  33.379   3.587
75892W        W48317  26.432  30.907  13.826
75893W        W48318   6.174  41.423  12.462
75894W        W48319  20.502  17.686  11.739
75895W        W48320  28.736   5.312   3.620
75896W        W48321   1.179  41.938   1.425
75897W        W48322  38.292  20.987   3.390
75898W        W48323  28.785  39.084  14.870
75899W        W48324   9.606   5.708   1.875
75900W        W48325  32.078  23.084   0.458
75901W        W48326  40.538   0.971   4.970
75902W        W48327  37.089  22.815   2.665
75903W        W48328  43.065   3.725   3.799
75904W        W48329  14.831   1.700  11.536
75905W        W48330  12.430   4.815   3.220
75906W        W48331   8.698  39.380   3.391
75907W        W48332  21.568  22.790  11.414
75908W        W48333   4.185  30.660  11.868
75909W        W48334  39.613  44.810   1.857
75910W        W48335  19.793   0.941   1.244
75911W        W48336   4.100   9.639  13.507
75912W        W48337  21.632  29.245   3.613
75913W        W48338  14.110  37.583   4.695
75914W        W48339  27.532  22.557   0.464
75915W        W48340  25.321   9.877  12.896
75916W        W48341  20.877  44.449  12.961
75917W        W48342   2.285  13.707  12.378
75918W        W48343  44.029   5.222   0.668
75919W        W48344  23.242  17.641  13.314
75920W        W48345  16.156   1.880  14.786
75921W        W48346  22.628  42.707  12.537
75922W        W48347   7.222  11.114   2.209
75923W        W48348  39.020  17.499  13.614
75924W        W48349  21.594  27.908   4.090
75925W        W48350  34.588  34.454  10.562
75926W        W48351  36.622  17.422   0.459
75927W        W48352  34.602   2.851   5.053
75928W        W48353  36.822  20.216   0.506
75929W        W48354   1.900  18.294  11.984
75930W        W48355  18.489  16.995  12.741
75931W        W48356  11.798  24.739   0.883
75932W        W48357   5.678   8.615  14.961
75933W        W48358  11.825  29.871   2.712
75934W        W48359  25.267   1.143  10.706
75935W        W48360  40.652  16.256  13.900
75936W        W48361  36.963  35.021  10.838
75937W        W48362  32.917  26.717  14.243
75938W        W48363  31.167   8.848   0.264
75939W        W48364  16.640  24.775   2.968
75940W        W48365  34.491   3.747   0.903
75941W        W48366   2.694  19.032   1.054
75942W        W48367   5.675  17.665  12.044
75943W        W48368  24.251   2.789   4.355
75944W        W48369  16.216  43.006  14.083
75945W        W48370   1.050  13.710   2.176
75946W        W48371  18.038  24.346   2.015
75947W        W48372  18.615   2.119   4.605
75948W        W48373  14.219   8.575   1.959
75949W        W48374   3.275  42.208   3.064
75950W        W48375  26.121  43.482  12.572
75951W        W48376  25.395  30.996  13.888
75952W        W48377   1.855   7.911  12.448
75953W        W48378  41.567  10.664  14.747
75954W        W48379  20.587  13.804   2.207
75955W        W48380  36.919  10.834   1.973
75956W        W48381   9.593   0.012   3.272
75957W        W48382   2.418   0.025   0.190
75958W        W48383   4.395  30.626   4.611
75959W        W48384  24.105  23.434   1.331
75960W        W48385  37.820  27.530   2.344
75961W        W48386   8.205  39.526   0.277
75962W        W48387  11.811   1.226  13.052
75963W        W48388  19.916  22.485  14.293
75964W        W48389  29.857  35.433  12.960
75965W        W48390   1.727  23.251   0.744
75966W        W48391  38.560   8.680  14.330
75967W        W48392  42.639  22.743  10.077
75968W        W48393  23.665  17.702   4.147
75969W        W48394   8.404  19.556  14.836
75970W        W48395  41.724  41.550  11.990
75971W        W48396  33.428   6.831  11.603
75972W        W48397  40.021   4.945  13.942
75973W        W48398  25.953   9.770  12.303
75974W        W48399  34.488  27.372  12.419
75975W        W48400  24.479  35.431   4.111
75976W        W48401   4.001   8.342  14.418
75977W        W48402  36.176  38.925   1.873
75978W        W48403  40.461   2.931   1.106
75979W        W48404  16.247   8.404  13.553
75980W        W48405  37.068  41.264  14.351
75981W        W48406   4.332  41.843  10.722
75982W        W48407  34.927  44.493  10.723
75983W        W48408  11.292  11.611  14.225
75984W        W48409   1.828  39.471  12.528
75985W        W48410  32.987  21.668   4.798
75986W        W48411  41.233  30.590   2.612
75987W        W48412   6.860  30.443  13.431
75988W        W48413  41.959   7.804  14.286
75989W        W48414  17.064   0.724   1.758
75990W        W48415  38.896  35.620  10.325
75991W        W48416   0.393  13.701   3.920
75992W        W48417  30.267  13.423   2.207
75993W        W48418  42.046  13.475  11.357
75994W        W48419  41.630  35.297  10.991
75995W        W48420  31.102  11.616  14.446
75996W        W48421  12.952  19.480  11.242
75997W        W48422  37.866  12.373   4.210
75998W        W48423   7.394   3.281   2.938
75999W        W48424  33.118  42.477   3.225
76000W        W48425  23.031  34.923   2.691
76001W        W48426  29.125   6.175   0.881
76002W        W48427  10.739  25.162   0.412
76003W        W48428  35.025  19.695   4.304
76004W        W48429  43.870  41.092  11.023
76005W        W48430  14.552  30.109  12.985
76006W        W48431   3.185  35.921  14.485
76007W        W48432  17.961   3.294   0.819
76008W        W48433  28.027   5.897   2.215
76009W        W48434  32.377  31.398  13.023
76010W        W48435   0.894  35.155  12.146
76011W        W48436   2.474  33.366  14.114
76012W        W48437  18.617  31.601   1.900
76013W        W48438  32.390  34.352   3.137
76014W        W48439   5.681  33.557   3.682
76015W        W48440  26.138  19.081  13.962
76016W        W48441  20.988  24.268   2.682
76017W        W48442   7.023   6.094   2.305
76018W        W48443  16.716  23.122  14.604
76019W        W48444  20.988  30.019   4.135
76020W        W48445  40.992  39.962  12.235
76021W        W48446  32.438   7.858   3.193
76022W        W48447  17.395  24.206   4.608
76023W        W48448  14.193   5.248   4.684
76024W        W48449  25.176  42.659  12.965
76025W        W48450  19.545  37.563   4.268
76026W        W48451  42.898  16.256  12.142
76027W        W48452  35.881  40.562  12.551
76028W        W48453  16.056  12.505  10.645
76029W        W48454  38.744  34.842   5.015
76030W        W48455  15.651  44.880  11.173
76031W        W48456  20.375   4.375  11.188
76032W        W48457   5.904  28.689   1.777
76033W        W48458  44.033  23.706   3.352
76034W        W48459  14.498   9.376   3.737
76035W        W48460   9.622  34.004   2.737
76036W        W48461  10.267   1.463  12.877
76037W        W48462  18.646  30.432   3.789
76038W        W48463  42.023   0.027   2.821
76039W        W48464  38.140  17.032  12.474
76040W        W48465  20.989  11.687   3.651
76041W        W48466  22.423  28.829  11.628
76042W        W48467  21.519  42.965  12.064
76043W        W48468  35.863  16.493   2.231
76044W        W48469  44.938  41.563   2.329
76045W        W48470  29.434  42.759   4.517
76046W        W48471  35.504   2.319  11.626
76047W        W48472  35.625  25.230  12.564
76048W        W48473  26.660  40.049  10.904
76049W        W48474  36.007  17.732   3.601
76050W        W48475  26.160  42.852  10.588
76051W        W48476  33.274  26.196   1.875
76052W        W48477  21.711  43.345   4.183
76053W        W48478  32.398  36.167   4.586
76054W        W48479   0.747  19.374  14.404
76055W        W48480  24.558  43.416   3.715
76056W        W48481   4.735  30.490   3.985
76057W        W48482   7.685  25.168  12.137
76058W        W48483  29.852  17.841   0.148
76059W        W48484  42.530  24.446  14.764
76060W        W48485  44.273  44.665  10.668
76061W        W48486  11.665  25.037  14.397
76062W        W48487  38.913  41.938   3.046
76063W        W48488  22.081   2.971   2.873
76064W        W48489  13.259  18.705  13.956
76065W        W48490  36.599  22.789   2.836
76066W        W48491  33.537  22.694  13.268
76067W        W48492  19.242  27.246  14.256
76068W        W48493  33.014  21.734  14.976
76069W        W48494  38.386  31.899  13.455
76070W        W48495  31.127  42.446   0.584
76071W        W48496  42.844  23.410   1.300
76072W        W48497   0.729  27.482  10.711
76073W        W48498  43.520  14.090   4.589
76074W        W48499   8.535  36.146  10.296
76075W        W48500   9.194  18.574  14.812
76076W        W48501  41.267  30.032   3.319
76077W        W48502  12.875  43.367   0.936
76078W        W48503  33.610  18.380   2.819
76079W        W48504   9.777  22.686  13.761
76080W        W48505  19.183   5.473  11.669
76081W        W48506   3.039  22.641  10.735
76082W        W48507   4.261  21.641   3.348
76083W        W48508   4.370  16.754   2.737
76084W        W48509   8.771  34.650  11.636
76085W        W48510  41.552  26.184  14.344
76086W        W48511  13.545  39.276  12.083
76087W        W48512   5.081  37.000   3.893
76088W        W48513   0.905  17.448  14.495
76089W        W48514  21.358  15.097   4.350
76090W        W48515  36.856  20.064   3.821
76091W        W48516  23.432  40.967  10.769
76092W        W48517  21.131  16.974  13.443
76093W        W48518  41.303  25.304   0.796
76094W        W48519  19.839  22.282  11.270
76095W        W48520  19.036   7.457   2.015
76096W        W48521   6.637  17.676   4.631
76097W        W48522  17.618  29.223   2.669
76098W        W48523  16.530   5.690   1.644
76099W        W48524  26.011  25.826  14.068
76100W        W48525  34.389  10.554  13.729
76101W        W48526  33.823  29.446   3.140
76102W        W48527   0.067  11.247  10.696
76103W        W48528  27.724   8.639  14.947
76104W        W48529   3.432  16.242  11.584
76105W        W48530  14.749  10.348  13.798
76106W        W48531  33.972   6.416   2.257
76107W        W48532  16.706   1.406  13.002
76108W        W48533  40.411  31.641   3.422
76109W        W48534  15.648   1.358   1.794
76110W        W48535  14.292  16.698   2.141
76111W        W48536  18.078  31.213   1.335
76112W        W48537  26.595  43.189  11.962
76113W        W48538  36.947  35.598  11.975
76114W        W48539  33.091   1.506   0.877
76115W        W48540   5.270   7.283  12.237
76116W        W48541  26.142   1.924  12.449
76117W        W48542  21.232   7.401   0.577
76118W        W48543  31.164   3.951  12.376
76119W        W48544  15.179  42.619   3.269
76120W        W48545   9.176  39.363   3.682
76121W        W48546  34.097   4.428  10.643
76122W        W48547  25.732  18.341  13.718
76123W        W48548  19.132   1.654  10.829
76124W        W48549  15.765   4.918  12.888
76125W        W48550  13.643  35.614   2.430
76126W        W48551  25.375   3.303   4.664
76127W        W48552  18.767   9.831   3.295
76128W        W48553  43.783  41.067  14.507
76129W        W48554  31.650  30.636   1.450
76130W        W48555   1.382   9.414  10.760
76131W        W48556  32.851  31.819  10.260
76132W        W48557  21.975   4.780  10.641
76133W        W48558   2.892   1.521  10.673
76134W        W48559  21.574  24.277  13.556
76135W        W48560  23.123  44.234  10.321
76136W        W48561  33.593  29.944  10.754
76137W        W48562  41.043  17.040   2.103
76138W        W48563  26.500  26.156  13.033
76139W        W48564  30.956  41.485   4.155
76140W        W48565  23.873   4.087  14.961
76141W        W48566   7.343  12.606  10.870
76142W        W48567  10.408  33.880   1.789
76143W        W48568  16.769  14.090  11.994
76144W        W48569   5.901  20.860   1.496
76145W        W48570  16.075  17.341   2.343
76146W        W48571  43.942  43.200   0.785
76147W        W48572  44.869  18.621  10.571
76148W        W48573  41.262  39.020   1.277
76149W        W48574   6.168   7.918   0.721
76150W        W48575  23.812  36.636   3.494
76151W        W48576   9.602  19.209  14.272
76152W        W48577  38.340  38.757   0.869
76153W        W48578  28.601  22.657   1.323
76154W        W48579   5.440  34.999  14.296
76155W        W48580  39.960  18.321   1.945
76156W        W48581   8.127  37.202  14.039
76157W        W48582  29.503  17.428  10.675
76158W        W48583   6.587  43.461  14.868
76159W        W48584  15.157   1.472   2.191
76160W        W48585   5.226  22.747  11.159
76161W        W48586   6.825   0.599  13.200
76162W        W48587  27.607  41.250  12.186
76163W        W48588  41.429  38.405  12.660
76164W        W48589  32.158  26.015  14.420
76165W        W48590  20.360  42.311   0.789
76166W        W48591  37.243   7.427   3.820
76167W        W48592  30.221  33.175  14.318
76168W        W48593   4.841  30.970  11.121
76169W        W48594  19.172  25.288  12.915
76170W        W48595  22.068  24.476  13.321
76171W        W48596  25.270   4.211   4.364
76172W        W48597  27.706  44.095  13.356
76173W        W48598  29.715  33.151  12.123
76174W        W48599  14.388   5.143  10.723
76175W        W48600  12.341   4.203  14.235
76176W        W48601  15.155  35.559   1.656
76177W        W48602  18.845  34.993   2.833
76178W        W48603  12.329  43.212  12.018
76179W        W48604  30.224  36.505  11.544
76180W        W48605  11.886   8.410   3.704
76181W        W48606   3.287  14.188  12.828
76182W        W48607  33.621  37.353   2.225
76183W        W48608  12.198  10.378  14.853
76184W        W48609  32.979  11.399  14.412
76185W        W48610  23.040  21.702  11.651
76186W        W48611  20.251  32.638  14.594
76187W        W48612  28.981  14.147  14.851
76188W        W48613  26.036  41.247  11.001
76189W        W48614  20.881  12.169   4.239
76190W        W48615  22.016  19.672   1.691
76191W        W48616  34.358  10.778   0.180
76192W        W48617  29.510   6.797   4.396
76193W        W48618  14.361  11.257  13.804
76194W        W48619  44.087   9.357   0.478
76195W        W48620  27.052  24.864   1.777
76196W        W48621  10.911  30.878  12.613
76197W        W48622  21.689  41.842  11.342
76198W        W48623  28.568  10.576  11.922
76199W        W48624  24.141  42.350  14.349
76200W        W48625  25.912  38.023  10.727
76201W        W48626  17.156  27.711  10.594
76202W        W48627  18.282   0.160  14.511
76203W        W48628  37.671  18.311   1.846
76204W        W48629  21.078  27.132   3.919
76205W        W48630  15.832   9.700   3.796
76206W        W48631  16.054  39.279   4.623
76207W        W48632   1.221  20.239  10.978
76208W        W48633   4.317   6.837  11.243
76209W        W48634  18.640  16.761   0.952
76210W        W48635  36.897   6.027  13.924
76211W        W48636  29.069  24.971  12.894
76212W        W48637   2.765  21.893   4.860
76213W        W48638   1.021   6.681  12.086
76214W        W48639  41.096  22.951   2.703
76215W        W48640  25.768  14.255   1.459
76216W        W48641  10.384   2.394  13.734
76217W        W48642  34.959  39.959   4.674
76218W        W48643  43.306  27.596  10.779
76219W        W48644  17.252  22.591   4.611
76220W        W48645  30.421   6.744  10.676
76221W        W48646   1.400  43.033   4.581
76222W        W48647  13.204  24.901  11.602
76223W        W48648  37.959  10.319  11.598
76224W        W48649  25.051  17.585   4.643
76225W        W48650   5.205  13.738   2.268
76226W        W48651   1.564  15.234  10.621
76227W        W48652  39.877  39.529  11.523
76228W        W48653   2.297  37.176   2.080
76229W        W48654  29.006  21.068  12.879
76230W        W48655  19.835  14.608  11.639
76231W        W48656  12.601  19.018  14.919
76232W        W48657  14.316  41.769  11.422
76233W        W48658  34.355  26.172   2.584
76234W        W48659  37.035   2.273  14.669
76235W        W48660  34.545  15.189   2.163
76236W        W48661  20.981  41.574  10.715
76237W        W48662  19.740  37.656   3.351
76238W        W48663  20.701   1.424  12.561
76239W        W48664  36.002   6.354  10.783
76240W        W48665  39.883   7.809   0.475
76241W        W48666  42.628  39.088  10.823
76242W        W48667  35.747   1.402   3.354
76243W        W48668  44.459  35.119   2.792
76244W        W48669  37.374  40.103  14.098
76245W        W48670   6.914  16.714   3.229
76246W        W48671  22.557  42.076  13.584
76247W        W48672  32.041  38.254   2.210
76248W        W48673  23.912  43.625  13.967
76249W        W48674  18.751  15.386  10.719
76250W        W48675  35.541   1.307  10.823
76251W        W48676  34.552  21.376  10.662
76252W        W48677  12.345  10.771   0.266
76253W        W48678  26.947  35.387  13.358
76254W        W48679  18.716  35.318   1.703
76255W        W48680  27.344  30.197  11.441
76256W        W48681  31.084  22.055  13.962
76257W        W48682  18.138  12.337  14.353
76258W        W48683  28.352  13.617  13.415
76259W        W48684  44.284   2.763   2.688
76260W        W48685  19.696  12.059   1.947
76261W        W48686  44.280   6.314  11.102
76262W        W48687   0.268  34.124  13.912
76263W        W48688  12.217  36.453   1.945
76264W        W48689   0.629  12.463   0.908
76265W        W48690  29.232  22.695  11.699
76266W        W48691  24.701  13.544  11.513
76267W        W48692  35.371  16.710  13.000
76268W        W48693  15.627  27.043  12.867
76269W        W48694   4.496  13.257  11.372
76270W        W48695  11.360   8.649  12.805
76271W        W48696  42.341  23.905   2.530
76272W        W48697  26.241  25.759   3.254
76273W        W48698   3.902  11.326   4.686
76274W        W48699  40.507  13.294   1.124
76275W        W48700  44.715  30.360   4.672
76276W        W48701  10.291  26.121  12.655
76277W        W48702  28.040  29.256   2.675
76278W        W48703   1.724   6.017  14.853
76279W        W48704  11.595   7.253  13.125
76280W        W48705  39.605  17.811   2.717
76281W        W48706   9.154  16.678   3.147
76282W        W48707  22.773  19.054   2.635
76283W        W48708  27.934  16.353  11.035
76284W        W48709  27.502  37.990  14.737
76285W        W48710  37.467  29.132  12.308
76286W        W48711  40.431  25.150   3.304
76287W        W48712   5.858  29.849   3.864
76288W        W48713   2.194  12.703   3.673
76289W        W48714  36.320  39.684  11.943
76290W        W48715  26.709  10.927   0.869
76291W        W48716  23.157  23.731   0.305
76292W        W48717  42.877  26.456  11.243
76293W        W48718  42.683  26.669  12.339
76294W        W48719   1.924  41.122  11.712
76295W        W48720  36.008  20.192  13.985
76296W        W48721  20.144  25.595  14.935
76297W        W48722  33.996  24.188   0.730
76298W        W48723  17.726  33.054   0.755
76299W        W48724  34.479  24.127  10.961
76300W        W48725  36.881  20.700  12.974
76301W        W48726  17.145  33.740  12.073
76302W        W48727  25.857  35.385   0.783
76303W        W48728   3.714  41.619  11.517
76304W        W48729  22.228   0.433   1.431
76305W        W48730  44.891  29.398  14.788
76306W        W48731  41.851  22.805   4.600
76307W        W48732  29.600  11.301  11.681
76308W        W48733   9.177  33.834   3.731
76309W        W48734  29.379   2.357  14.453
76310W        W48735  33.404  30.607   2.617
76311W        W48736   1.825  17.660  12.667
76312W        W48737   1.996  14.525  12.555
76313W        W48738   1.240  13.066  12.474
76314W        W48739  14.913  10.763  11.139
76315W        W48740  17.803  35.177  12.574
76316W        W48741   0.003  34.359   0.385
76317W        W48742  35.548  33.007   2.966
76318W        W48743  20.651  38.134   2.712
76319W        W48744  15.658  15.788   2.745
76320W        W48745  40.061   0.800   1.872
76321W        W48746  10.770  25.714   3.742
76322W        W48747  39.569  29.582  11.061
76323W        W48748  26.964   2.328   3.777
76324W        W48749  29.872  43.813   4.626
76325W        W48750   5.980  24.821  14.357
76326W        W48751  20.817  37.659   1.148
76327W        W48752  31.584   8.942   1.777
76328W        W48753  10.866   9.645   1.270
76329W        W48754  36.547  24.713  14.417
76330W        W48755  12.150  27.391  13.969
76331W        W48756  27.709  32.898  11.872
76332W        W48757  31.641   2.833  14.275
76333W        W48758  25.572  25.203   3.338
76334W        W48759  25.091   9.751  13.904
76335W        W48760  42.283  21.680  10.485
76336W        W48761  10.393  11.141  13.902
76337W        W48762  14.074  13.273  13.014
76338W        W48763  29.675  41.885  14.943
76339W        W48764  15.714  33.365  11.599
76340W        W48765   9.505  33.501  10.662
76341W        W48766  29.566  14.660   1.931
76342W        W48767  37.552  13.554   0.436
76343W        W48768   9.172  38.494   1.232
76344W        W48769  10.923  25.420  12.782
76345W        W48770  20.736  31.915  14.396
76346W        W48771   9.670  44.250   2.250
76347W        W48772  28.977   1.350   0.167
76348W        W48773  30.408   7.290   1.391
76349W        W48774  29.029  31.654  14.420
76350W        W48775   1.900  41.481  12.100
76351W        W48776   1.938   2.386  13.513
76352W        W48777  28.031  33.999  11.605
76353W        W48778  13.748  27.588  14.948
76354W        W48779  24.058  15.079  13.976
76355W        W48780  35.502  12.134   3.259
76356W        W48781   6.403   4.772   1.478
76357W        W48782  42.501  25.680   3.724
76358W        W48783  26.780  20.174  12.872
76359W        W48784  44.794   1.072  10.747
76360W        W48785  22.550   5.353  12.461
76361W        W48786  20.095  18.254   2.598
76362W        W48787  42.754  26.436   1.443
76363W        W48788  16.749  21.776   0.368
76364W        W48789  32.519  11.449   0.678
76365W        W48790  26.473  14.924   3.712
76366W        W48791  35.910  16.555  11.468
76367W        W48792  35.671  21.648   2.848
76368W        W48793  29.144   5.242   0.912
76369W        W48794  29.541  20.553   3.156
76370W        W48795  41.077  41.935   3.640
76371W        W48796  17.315  24.693  10.666
76372W        W48797   1.801  17.488   1.055
76373W        W48798  35.955  37.332  11.091
76374W        W48799  38.393  35.372  13.453
76375W        W48800  18.147  27.169  11.478
76376W        W48801  24.537  44.575  13.477
76377W        W48802  42.600  37.532   2.748
76378W        W48803   2.337  44.450  13.406
76379W        W48804  43.729  41.308  12.694
76380W        W48805  42.603  14.706  13.871
76381W        W48806  25.393   7.230   3.843
76382W        W48807  26.600  37.487  10.744
76383W        W48808   9.119  12.627   3.305
76384W        W48809  40.816   7.280  14.724
76385W        W48810   4.137  36.062  13.183
76386W        W48811  17.131   8.228  13.513
76387W        W48812  30.174  25.001   5.001
76388W        W48813  26.114  14.206  13.206
76389W        W48814   4.298   0.994  13.805
76390W        W48815  39.516  23.318   2.158
76391W        W48816   3.306  14.133  10.982
76392W        W48817  19.581   9.019  11.505
76393W        W48818   7.641   9.287   2.283
76394W        W48819  19.137   3.928   1.372
76395W        W48820  20.542  15.847  12.031
76396W        W48821  22.166  17.223   0.984
76397W        W48822   8.593  40.036   9.735
76398W        W48823   1.783  31.602  11.338
76399W        W48824  25.931  15.630  14.011
76400W        W48825  15.707  14.080  10.720
76401W        W48826   7.253  44.162  14.848
76402W        W48827  14.522  30.879  11.990
76403W        W48828  39.307  24.307   0.779
76404W        W48829  27.477  12.151  13.035
76405W        W48830  15.837  12.636   0.806
76406W        W48831  32.398  17.311  14.980
76407W        W48832  19.698  44.529   1.946
76408W        W48833  31.170  12.190   3.045
76409W        W48834   4.743  12.343   1.809
76410W        W48835  34.736  44.964   1.431
76411W        W48836  29.534  15.942   3.916
76412W        W48837  40.413  43.170   4.401
76413W        W48838  10.795  35.385   1.652
76414W        W48839   6.946  27.668   0.308
76415W        W48840  34.129   1.340   1.601
76416W        W48841  41.012   3.607   0.790
76417W        W48842   3.166  38.317  11.530
76418W        W48843  27.415  20.112   2.781
76419W        W48844   1.477  42.141   3.270
76420W        W48845  37.376  24.452  11.995
76421W        W48846  31.158  11.875  10.840
76422W        W48847  34.122   8.772  12.866
76423W        W48848  11.054  12.302  13.076
76424W        W48849  18.251  26.218  10.721
76425W        W48850  15.571  31.811  14.356
76426W        W48851   0.574  10.101   1.409
76427W        W48852  42.997  11.428  13.871
76428W        W48853  32.663  39.657  13.489
76429W        W48854  39.249  14.280   2.632
76430W        W48855   9.978  40.920   3.701
76431W        W48856  25.009  20.180   1.369
76432W        W48857  27.395  44.292   9.707
76433W        W48858  17.087  37.332  14.981
76434W        W48859   0.338  10.831  13.898
76435W        W48860  44.937  44.091  11.067
76436W        W48861  31.610  18.235  12.157
76437W        W48862  22.850  24.207  12.890
76438W        W48863   6.694  38.659   3.245
76439W        W48864   9.880  41.763   0.546
76440W        W48865   8.624  25.603  14.412
76441W        W48866  28.514  30.708   1.300
76442W        W48867  16.716  43.049   1.295
76443W        W48868  19.651  11.096  14.414
76444W        W48869  15.604  33.908  12.446
76445W        W48870   4.771  18.207   3.978
76446W        W48871  12.128   8.912   2.828
76447W        W48872   3.703  18.133   0.185
76448W        W48873  19.061  37.382  14.845
76449W        W48874  14.643  10.813  13.013
76450W        W48875  17.087   9.722  10.128
76451W        W48876  18.727  28.689   0.878
76452W        W48877  34.156  40.492   2.026
76453W        W48878  31.961  23.470  12.317
76454W        W48879  22.607  27.368  11.523
76455W        W48880  11.125   7.924   4.554
76456W        W48881   8.757  18.324  11.854
76457W        W48882   5.997  29.656   0.823
76458W        W48883  19.687   3.612  13.600
76459W        W48884  34.778   2.177   0.286
76460W        W48885  29.175   7.230  12.375
76461W        W48886  16.170   9.708   2.613
76462W        W48887  27.461  32.593  10.611
76463W        W48888  27.039   1.239   1.430
76464W        W48889  10.795  18.239   0.412
76465W        W48890   3.409  38.314  13.292
76466W        W48891  23.018  42.525  12.791
76467W        W48892  42.543  32.635  12.120
76468W        W48893  20.750  44.170  14.479
76469W        W48894  38.783  43.688  13.149
76470W        W48895   4.857  35.066   0.485
76471W        W48896  12.751  20.538  11.145
76472W        W48897  34.837   4.725  11.947
76473W        W48898  20.736   6.682   1.924
76474W        W48899  12.844   9.319  13.878
76475W        W48900   1.705   7.856  11.588
76476W        W48901  28.479   2.711   4.966
76477W        W48902  34.593  37.455   2.615
76478W        W48903  24.632  38.230   1.349
76479W        W48904  33.074  23.256  13.960
76480W        W48905  38.433   1.941  14.021
76481W        W48906  34.980  34.822  12.068
76482W        W48907  41.314  24.508   4.006
76483W        W48908  24.350  34.106   1.209
76484W        W48909  25.108  16.242  11.602
76485W        W48910   7.293  20.813   3.291
76486W        W48911  40.909   0.877  13.758
76487W        W48912   8.340  40.935  11.097
76488W        W48913  28.117  11.652  10.961
76489W        W48914   4.432  22.668   0.742
76490W        W48915   7.751  18.709   1.415
76491W        W48916  35.836  39.423   1.756
76492W        W48917  14.581  28.534   2.315
76493W        W48918   2.690  14.665  11.234
76494W        W48919  37.615  22.286  12.712
76495W        W48920  36.521  25.205  12.572
76496W        W48921  10.924  10.639   4.699
76497W        W48922  13.101  41.524   0.797
76498W        W48923   0.012  27.083  13.444
76499W        W48924   3.230  17.802   2.998
76500W        W48925  15.816  32.449   1.847
76501W        W48926  25.690  34.557  12.662
76502W        W48927  10.870  10.247  10.993
76503W        W48928  29.986  14.418   2.468
76504W        W48929  29.264  10.043  11.092
76505W        W48930  21.659  42.564  10.664
76506W        W48931  37.879  43.232   4.097
76507W        W48932  10.284   8.588   4.230
76508W        W48933  11.801  30.048  14.393
76509W        W48934  31.435  27.706   0.793
76510W        W48935  28.038  26.006   0.717
76511W        W48936  22.078  40.909  14.921
76512W        W48937  12.652  26.752   2.821
76513W        W48938  30.588  28.986   3.268
76514W        W48939  40.641   2.394   2.542
76515W        W48940  16.211  14.892  10.800
76516W        W48941  14.113   7.328  13.429
76517W        W48942  40.366   0.792   2.332
76518W        W48943  37.885  29.119   3.318
76519W        W48944  15.084  38.307  12.349
76520W        W48945  12.904   0.175   1.251
76521W        W48946  23.187  33.489  12.026
76522W        W48947  18.405  38.341   2.731
76523W        W48948  17.245   7.806  10.682
76524W        W48949  14.204   4.803   3.422
76525W        W48950  23.029  14.106   0.035
76526W        W48951  13.661   0.392   0.987
76527W        W48952  43.547  20.550   4.129
76528W        W48953  27.237  40.872  13.184
76529W        W48954  30.880  16.042   1.911
76530W        W48955   4.450  28.130  14.783
76531W        W48956  22.545  39.268  13.119
76532W        W48957   1.712  25.654   0.893
76533W        W48958  28.385  21.128   0.315
76534W        W48959  25.275  20.546   1.967
76535W        W48960  41.406  10.557   4.902
76536W        W48961  37.171  31.477  14.287
76537W        W48962   4.988  22.670  13.090
76538W        W48963  29.487  30.383   1.432
76539W        W48964  17.760  30.576  14.730
76540W        W48965  40.664   3.855  14.377
76541W        W48966  28.128  22.033   2.926
76542W        W48967  23.140   8.227  12.010
76543W        W48968  14.033  16.175   1.941
76544W        W48969  36.155  28.679   3.645
76545W        W48970  20.245  20.454  11.090
76546W        W48971  34.448  26.091  11.504
76547W        W48972  44.756  44.450  10.755
76548W        W48973  13.536  16.128  13.808
76549W        W48974  19.668  24.103   1.330
76550W        W48975  43.121  33.286   3.154
76551W        W48976  15.688  27.412  11.421
76552W        W48977  37.155  33.225   2.195
76553W        W48978  27.105  25.002   0.241
76554W        W48979  32.650  30.520   4.229
76555W        W48980  34.424   4.675  13.509
76556W        W48981   9.144   0.991   2.169
76557W        W48982  15.455  34.892  11.678
76558W        W48983  40.343  14.090   4.685
76559W        W48984  41.815  19.874  12.030
76560W        W48985  32.615  43.814  13.183
76561W        W48986  28.688  37.390  10.644
76562W        W48987  10.008  39.160   3.380
76563W        W48988   4.925  40.751  14.300
76564W        W48989  27.937  28.992   1.216
76565W        W48990   6.444  28.859  14.868
76566W        W48991   3.369  24.040   1.697
76567W        W48992  10.540  18.748   3.705
76568W        W48993  14.184  34.479   3.809
76569W        W48994  37.484   6.934  14.483
76570W        W48995  17.707   1.712   0.320
76571W        W48996   1.035  21.636  13.845
76572W        W48997  17.624   5.200  14.741
76573W        W48998  15.671  43.223  13.412
76574W        W48999  34.515   1.858   2.284
76575W        W49000   0.938  10.188  11.131
76576W        W49001  27.382   2.000  13.036
76577W        W49002  22.050  11.796  14.510
76578W        W49003  32.511  41.842  10.624
76579W        W49004  19.179  37.909   4.220
76580W        W49005  30.498   0.524   3.645
76581W        W49006   1.170  19.638   0.177
76582W        W49007  29.360  19.356  14.359
76583W        W49008  32.403  37.391  13.922
76584W        W49009  42.737  37.598  10.878
76585W        W49010  38.567  11.205  14.454
76586W        W49011  40.068  21.315   4.119
76587W        W49012  28.414  31.969   3.250
76588W        W49013  27.510  11.767  12.477
76589W        W49014   2.902   9.373  11.540
76590W        W49015  22.378  23.162  14.454
76591W        W49016  20.126  13.110  11.729
76592W        W49017  11.092  16.585  14.030
76593W        W49018  18.038  18.618  13.560
76594W        W49019  14.325  40.243  14.402
76595W        W49020   6.833  21.203   0.360
76596W        W49021  41.002  13.366  12.528
76597W        W49022  26.692   2.859  10.667
76598W        W49023  37.396  37.561  11.997
76599W        W49024   4.922  36.113  11.811
76600W        W49025  22.860   7.809   3.107
76601W        W49026  21.730   4.889  14.831
76602W        W49027  15.372  13.198   3.080
76603W        W49028  25.304   7.262   4.702
76604W        W49029  16.724  16.673  12.867
76605W        W49030  10.672  10.675  11.833
76606W        W49031  36.143   7.406  14.408
76607W        W49032  15.863   2.307   2.901
76608W        W49033   4.103   0.432   1.440
76609W        W49034  36.773   9.251  10.210
76610W        W49035   2.795   6.778  12.381
76611W        W49036  32.054   2.197   1.708
76612W        W49037  16.549  13.134   3.474
76613W        W49038  44.117  31.574  11.351
76614W        W49039   8.960   9.225  14.356
76615W        W49040   9.242  30.915   4.842
76616W        W49041  36.402  25.223  11.465
76617W        W49042  39.798  18.314   3.783
76618W        W49043  39.416  38.818   1.198
76619W        W49044  31.448  32.148  11.995
76620W        W49045  43.334   8.194   1.331
76621W        W49046  39.877  22.697   2.267
76622W        W49047  14.859  37.388   1.777
76623W        W49048  33.605  40.129  13.377
76624W        W49049  30.109  44.320  11.203
76625W        W49050  23.425  37.044   4.979
76626W        W49051  38.319  17.715   2.238
76627W        W49052  20.618  31.488  12.623
76628W        W49053  26.561   1.931  10.778
76629W        W49054  37.461  43.583   3.216
76630W        W49055  39.379  39.436   3.399
76631W        W49056  14.212  26.006  13.951
76632W        W49057  13.659  10.327   1.351
76633W        W49058  30.856  20.005   0.335
76634W        W49059  27.541  10.519  11.192
76635W        W49060  42.526  25.873  13.440
76636W        W49061  10.800  31.718  11.516
76637W        W49062  12.091   5.355   3.990
76638W        W49063  32.092  21.460  14.898
76639W        W49064  29.016  36.917   1.798
76640W        W49065  30.538   4.808   4.188
76641W        W49066  37.501  43.553   1.248
76642W        W49067   8.881  34.030   1.765
76643W        W49068   8.760  42.292   4.243
76644W        W49069  25.037  16.319   2.871
76645W        W49070  19.113  38.531  12.847
76646W        W49071  27.907  10.309  13.883
76647W        W49072   6.765   8.720   0.807
76648W        W49073  19.540   1.171   0.276
76649W        W49074  29.581   9.836   2.571
76650W        W49075  26.620  22.682  13.475
76651W        W49076  14.562  42.989   3.060
76652W        W49077   4.256  12.287  13.470
76653W        W49078  41.864  13.327   4.657
76654W        W49079  26.441  24.803   2.146
76655W        W49080  26.487   8.226  13.089
76656W        W49081   6.283  13.968   4.768
76657W        W49082  26.982   1.811  14.962
76658W        W49083  26.635   4.170  12.980
76659W        W49084  11.116   5.764  14.700
76660W        W49085  11.055  35.807   1.745
76661W        W49086  44.040  15.601  14.819
76662W        W49087  22.284   4.825   1.855
76663W        W49088  33.416  11.167  11.696
76664W        W49089  43.091  11.973  14.979
76665W        W49090   9.352  43.918  14.207
76666W        W49091  19.480  24.479   3.025
76667W        W49092  44.542  14.423  13.881
76668W        W49093  35.854  30.479  14.734
76669W        W49094  18.618  33.497   3.166
76670W        W49095   7.758  23.208   1.244
76671W        W49096  17.138  28.943  14.568
76672W        W49097  17.489  31.444   0.623
76673W        W49098  19.338  25.237   2.073
76674W        W49099  15.985  38.273   3.572
76675W        W49100  14.311  27.592  10.967
76676W        W49101  12.626  34.513   1.709
76677W        W49102  31.811   6.960   0.363
76678W        W49103  28.847  26.381   1.464
76679W        W49104  41.767  30.952   0.468
76680W        W49105  33.948  13.618   4.212
76681W        W49106  30.444   1.480   3.740
76682W        W49107  39.242  36.935  13.280
76683W        W49108   3.158   7.225   4.100
76684W        W49109   8.092  17.536   1.788
76685W        W49110   8.296  28.421   1.311
76686W        W49111  34.134   7.391  12.685
76687W        W49112  30.577  21.703  12.146
76688W        W49113  34.095   2.077  14.521
76689W        W49114   6.227  30.571  13.533
76690W        W49115  13.294  40.711   2.720
76691W        W49116  35.935  41.863  12.056
76692W        W49117  20.927  35.710   1.645
76693W        W49118   5.938  20.701   0.040
76694W        W49119  16.647  10.718  11.589
76695W        W49120  39.043  14.204  13.349
76696W        W49121  30.172  44.030  12.970
76697W        W49122  35.469  18.739   3.619
76698W        W49123  43.395  42.896  13.381
76699W        W49124  14.850   5.870   4.836
76700W        W49125  21.116  30.567   1.739
76701W        W49126  19.001   3.894   4.387
76702W        W49127   2.219  22.594   2.122
76703W        W49128  12.374   8.761   3.295
76704W        W49129   3.601  29.604   4.724
76705W        W49130  40.764  33.377   3.750
76706W        W49131  30.622  15.920  13.376
76707W        W49132  26.824  43.930  11.006
76708W        W49133  23.710  10.563  11.860
76709W        W49134  27.459  20.757   4.132
76710W        W49135  42.489  28.526   1.714
76711W        W49136  27.104  10.360  14.433
76712W        W49137  13.296  33.908  14.402
76713W        W49138  28.622  32.212  14.344
76714W        W49139   6.998  17.289   2.354
76715W        W49140  18.735  18.035  10.199
76716W        W49141  42.454  32.967   4.826
76717W        W49142   5.850  32.728   2.612
76718W        W49143   9.815  44.812  13.337
76719W        W49144  23.058  34.064   2.142
76720W        W49145  33.838  18.324   0.961
76721W        W49146  16.837   0.680  13.637
76722W        W49147  40.897  40.328   3.078
76723W        W49148  36.007  26.299   1.297
76724W        W49149  12.287  33.997  13.089
76725W        W49150   4.991  40.154   2.139
76726W        W49151  41.828  21.238  11.583
76727W        W49152  42.800  44.762  10.693
76728W        W49153   4.122   7.910  11.892
76729W        W49154   7.329  10.314   0.251
76730W        W49155  22.625   0.903   1.864
76731W        W49156   9.181  23.766   3.084
76732W        W49157  36.756  40.979  10.762
76733W        W49158  39.991  44.976  12.375
76734W        W49159  41.933   7.114  14.857
76735W        W49160  25.052  15.898   1.406
76736W        W49161   7.162  19.446   2.662
76737W        W49162  20.105  38.457  12.366
76738W        W49163  25.625  33.460  10.599
76739W        W49164   5.785  38.090   2.643
76740W        W49165  44.006  43.606   0.467
76741W        W49166  27.111  27.951   0.512
76742W        W49167  15.553  28.156  13.671
76743W        W49168  22.260  26.612  13.401
76744W        W49169  13.104  34.297   5.188
76745W        W49170  43.995  21.234   4.635
76746W        W49171   0.288   0.330  12.928
76747W        W49172  29.146   1.601  14.727
76748W        W49173  31.968  18.824  13.812
76749W        W49174  25.355  40.052   1.867
76750W        W49175   5.178   8.642   3.631
76751W        W49176  27.387   7.168  13.593
76752W        W49177  20.318  36.949   3.195
76753W        W49178  35.532  33.332  12.844
76754W        W49179  43.429  37.013   1.707
76755W        W49180  27.246  26.066  12.578
76756W        W49181  22.377   7.408  11.144
76757W        W49182   9.287  14.774  12.481
76758W        W49183  30.299   8.735  11.577
76759W        W49184  12.186  44.450   3.128
76760W        W49185  14.833  40.642   5.109
76761W        W49186  30.809   2.446   3.774
76762W        W49187  36.325  17.119   3.893
76763W        W49188  44.809   7.942   2.395
76764W        W49189  41.332  10.455   3.310
76765W        W49190  26.236  40.828  10.786
76766W        W49191   5.830  11.185   1.378
76767W        W49192  24.334  13.165  11.490
76768W        W49193  44.945  24.958   2.912
76769W        W49194  33.200  29.974   0.290
76770W        W49195  35.400  36.156  11.084
76771W        W49196  32.398  27.167  10.964
76772W        W49197  22.977  15.277   4.568
76773W        W49198  28.553  21.274   1.806
76774W        W49199  43.362  31.597  11.959
76775W        W49200  27.993  11.699  14.303
76776W        W49201  36.188  12.525  12.448
76777W        W49202   6.716   7.455  12.260
76778W        W49203   3.464  15.336  11.965
76779W        W49204  41.550  22.777   3.856
76780W        W49205  24.249   0.004  10.822
76781W        W49206   1.320   3.407  14.935
76782W        W49207  38.781  36.810  13.603
76783W        W49208  28.975  10.856   1.396
76784W        W49209  36.078  44.990  10.463
76785W        W49210  26.600  28.770  12.398
76786W        W49211  27.583   1.719  10.683
76787W        W49212   9.850  24.562   3.890
76788W        W49213  18.285  38.378   2.222
76789W        W49214  34.668   2.852  13.503
76790W        W49215   4.949  37.523  13.815
76791W        W49216  30.993   1.418  14.268
76792W        W49217  38.117  26.076   0.880
76793W        W49218  30.989  37.273   3.693
76794W        W49219  22.219   4.363  12.513
76795W        W49220  10.704  42.637   3.797
76796W        W49221  38.570  10.425  12.457
76797W        W49222  32.230  35.938  11.981
76798W        W49223   2.944  40.773   3.713
76799W        W49224  37.832  24.026   3.618
76800W        W49225   6.746  40.309  10.613
76801W        W49226  39.265  38.125   1.784
76802W        W49227   5.697   6.711   3.199
76803W        W49228   6.878  33.146  12.048
76804W        W49229  40.530  41.854  10.635
76805W        W49230   3.177  31.188   4.048
76806W        W49231  41.730  43.235  11.011
76807W        W49232  38.334  29.850  11.527
76808W        W49233  15.780  42.565   1.433
76809W        W49234  37.752  22.275  11.163
76810W        W49235   8.996  30.682  10.600
76811W        W49236  24.820  26.650  11.547
76812W        W49237   0.850  26.568   3.406
76813W        W49238  11.580  15.170  11.531
76814W        W49239   7.851  15.281  10.513
76815W        W49240   4.772   9.102   2.844
76816W        W49241  32.649   4.349   2.398
76817W        W49242  36.042   0.742  13.478
76818W        W49243  23.755  20.772  11.056
76819W        W49244  32.905   6.741   4.582
76820W        W49245  44.366  38.436   1.472
76821W        W49246  21.314  20.058   4.568
76822W        W49247  31.322   4.996  12.469
76823W        W49248  16.203  24.943   0.639
76824W        W49249   9.188  39.333   0.629
76825W        W49250  29.513   1.499  12.991
76826W        W49251  28.545  17.521   0.354
76827W        W49252  10.565  31.629   0.734
76828W        W49253  37.551  14.430  14.916
76829W        W49254  24.234  30.704   4.532
76830W        W49255  12.599   8.847   0.330
76831W        W49256  14.290   2.205  13.090
76832W        W49257   7.739   5.356  10.326
76833W        W49258  21.743  30.148   0.741
76834W        W49259  14.744  27.142   2.318
76835W        W49260  30.913  10.857   1.769
76836W        W49261  15.686  36.827  11.626
76837W        W49262  41.354   8.681  12.629
76838W        W49263  34.013  43.584   1.369
76839W        W49264   0.870  33.222   1.268
76840W        W49265  19.973  26.802   1.539
76841W        W49266  26.057   3.821   3.171
76842W        W49267   7.199   9.907   2.997
76843W        W49268  19.996  11.204  12.987
76844W        W49269   7.670  28.999  10.739
76845W        W49270   4.719  24.651  13.961
76846W        W49271   0.440  23.750  11.992
76847W        W49272  21.789  18.646  13.759
76848W        W49273   1.558  26.166   4.758
76849W        W49274  36.881  29.894   3.209
76850W        W49275   8.115  12.115   3.661
76851W        W49276  21.656  28.996  14.810
76852W        W49277  30.994  14.121  11.713
76853W        W49278  34.979   6.759   0.904
76854W        W49279  22.538   5.963   3.251
76855W        W49280  37.364  28.570  13.475
76856W        W49281  42.447  22.123   1.871
76857W        W49282  31.421  25.107  14.928
76858W        W49283  30.136  39.283  10.432
76859W        W49284  20.994  25.010   1.843
76860W        W49285  38.362  40.819   4.472
76861W        W49286   6.592  26.981  11.920
76862W        W49287  40.940  27.623  10.359
76863W        W49288  41.261  38.337   4.693
76864W        W49289  24.493  38.120   2.324
76865W        W49290  34.234  30.449  11.225
76866W        W49291   7.083  23.531   4.571
76867W        W49292  21.327   1.802  11.133
76868W        W49293  23.012  13.831   4.411
76869W        W49294  44.343  34.580   2.758
76870W        W49295   2.742  30.351  11.971
76871W        W49296   2.863  26.218   3.254
76872W        W49297  23.732  35.128  12.985
76873W        W49298   1.816  34.821  11.867
76874W        W49299  12.808  36.824   1.866
76875W        W49300  14.043  21.786  10.415
76876W        W49301  34.053  43.503  12.568
76877W        W49302  14.787  36.482  13.027
76878W        W49303  14.291  32.032  13.763
76879W        W49304  35.449  34.648   3.872
76880W        W49305  11.259  17.757  14.261
76881W        W49306  37.536  21.119   1.936
76882W        W49307  33.910  40.232   4.040
76883W        W49308  24.624  26.522   4.142
76884W        W49309  44.687   5.607   1.992
76885W        W49310  28.074  26.111   0.205
76886W        W49311  11.869   5.357  13.088
76887W        W49312  32.106   3.214  13.820
76888W        W49313  10.517   0.843   2.220
76889W        W49314  40.401  10.910  14.837
76890W        W49315  36.421  15.132  11.069
76891W        W49316  42.451  40.736   4.272
76892W        W49317   3.099  21.877  12.864
76893W        W49318  14.296  28.397   0.950
76894W        W49319  22.409  11.237   1.230
76895W        W49320   0.588  30.115   4.608
76896W        W49321  44.353  13.421  13.894
76897W        W49322  10.722  22.993  12.062
76898W        W49323  36.417  34.301  13.813
76899W        W49324  18.139  12.381   1.901
76900W        W49325  14.005   3.851  11.210
76901W        W49326   7.768  10.106   4.158
76902W        W49327  14.159  20.417  12.150
76903W        W49328  15.630  18.939   0.571
76904W        W49329  40.295   5.154  11.664
76905W        W49330  25.537  21.043  10.659
76906W        W49331  40.419  10.099   0.867
76907W        W49332   6.307  13.629  14.304
76908W        W49333  15.977  20.756  13.410
76909W        W49334  11.679   5.444   1.007
76910W        W49335  29.335  35.532  10.667
76911W        W49336  38.019  11.180  14.664
76912W        W49337  40.362   1.057   4.084
76913W        W49338  24.900  29.877   1.634
76914W        W49339   0.018  35.518  13.067
76915W        W49340   0.906  38.644   3.616
76916W        W49341   6.121   7.704   3.826
76917W        W49342   8.102   0.404  13.504
76918W        W49343  30.761   2.497  12.344
76919W        W49344  29.700  23.394   1.360
76920W        W49345   3.381  44.954  13.028
76921W        W49346  21.368  13.530   1.756
76922W        W49347  40.099  10.186   0.249
76923W        W49348   4.960  24.266  12.120
76924W        W49349  43.319  19.295   2.782
76925W        W49350   3.292   1.428  13.323
76926W        W49351   6.779  33.335  13.416
76927W        W49352  18.974  17.068  12.890
76928W        W49353  23.537  43.308  11.061
76929W        W49354   5.155  27.590  10.816
76930W        W49355   8.179   8.672  14.418
76931W        W49356   9.651  14.790  11.748
76932W        W49357  30.942  29.888  13.541
76933W        W49358  42.807  40.903  11.588
76934W        W49359   6.065  41.050   1.692
76935W        W49360   6.333  10.674  13.582
76936W        W49361  43.441  24.968  14.033
76937W        W49362  14.186  39.878   2.045
76938W        W49363   8.897  14.219   4.263
76939W        W49364  38.903   9.303  11.409
76940W        W49365  37.928   4.254  11.434
76941W        W49366  41.995  13.615  13.469
76942W        W49367  37.312  30.453  13.128
76943W        W49368  38.127  20.120   0.254
76944W        W49369  30.073  31.582   3.091
76945W        W49370  32.038  39.486  14.999
76946W        W49371  35.623  29.792   2.404
76947W        W49372  32.874  32.107   1.296
76948W        W49373  40.711   6.048  11.261
76949W        W49374  44.372  24.971   1.667
76950W        W49375  32.064  43.464  10.689
76951W        W49376  35.121   9.791  10.435
76952W        W49377  22.167  41.418  13.971
76953W        W49378  42.800  41.997   1.141
76954W        W49379  22.708  20.580   0.514
76955W        W49380  24.159   9.231  11.382
76956W        W49381  32.170  35.875   4.190
76957W        W49382   3.760  12.319   3.336
76958W        W49383  27.954  28.047  10.701
76959W        W49384  30.074  21.136  13.744
76960W        W49385  17.680   5.194   0.767
76961W        W49386  18.257  37.536   4.567
76962W        W49387   4.794  44.315   0.946
76963W        W49388  13.240  31.164  13.860
76964W        W49389  27.417  38.416   3.869
76965W        W49390   0.037   8.248  13.033
76966W        W49391   8.936  37.321  14.438
76967W        W49392  29.457   1.426  13.554
76968W        W49393  30.363  23.989  12.449
76969W        W49394  35.750  28.715   1.449
76970W        W49395  28.525  23.334   0.716
76971W        W49396  21.163   5.613  12.957
76972W        W49397  32.307  34.671  12.018
76973W        W49398  43.583   2.784   2.169
76974W        W49399   7.173  32.637  12.621
76975W        W49400   8.998   0.544  12.588
76976W        W49401  37.515  10.680  11.061
76977W        W49402   4.810  13.028   2.866
76978W        W49403  32.973  12.166  11.201
76979W        W49404  33.677  34.860   1.128
76980W        W49405   6.111  13.181   3.702
76981W        W49406  40.762   0.156   1.830
76982W        W49407  40.537  22.717  13.908
76983W        W49408  41.873   3.047  14.301
76984W        W49409   7.073  20.633  13.851
76985W        W49410   0.450   8.602   1.213
76986W        W49411   8.498  40.881  13.459
76987W        W49412  29.209   9.274   3.172
76988W        W49413  39.235   5.303  12.827
76989W        W49414  17.999  26.168  14.931
76990W        W49415  29.166  37.154  10.657
76991W        W49416  40.050   6.301  12.928
76992W        W49417  40.527  43.858  14.469
76993W        W49418  41.968   5.899   2.067
76994W        W49419  17.556  16.510  13.882
76995W        W49420  16.091  20.071   1.237
76996W        W49421  24.909   3.742  10.657
76997W        W49422   6.852  23.197  11.596
76998W        W49423  28.311   4.403  11.049
76999W        W49424   9.211   1.605   0.183
77000W        W49425  22.256  23.737   1.252
77001W        W49426  36.361  44.250   3.250
77002W        W49427  10.994  40.919  14.117
77003W        W49428  29.047   4.200   2.873
77004W        W49429  12.387  21.811  14.499
77005W        W49430  38.052  12.891   4.191
77006W        W49431  26.242   2.456  11.645
77007W        W49432  26.013  25.348   3.042
77008W        W49433  36.918   9.196   1.819
77009W        W49434   6.318  23.091  12.132
77010W        W49435  17.342  27.617  12.955
77011W        W49436  22.979  34.374  13.005
77012W        W49437  24.749  27.148  12.921
77013W        W49438  11.617  41.847  11.489
77014W        W49439  18.720  24.689   0.773
77015W        W49440  24.955  42.807  12.460
77016W        W49441   2.520  24.374   0.841
77017W        W49442   3.327  11.185  13.030
77018W        W49443  23.133  19.523  11.639
77019W        W49444  43.971  43.863   2.873
77020W        W49445  33.865  40.552  14.349
77021W        W49446  13.745  37.621  13.823
77022W        W49447   4.874  39.732   3.062
77023W        W49448  41.360  31.410   4.116
77024W        W49449  44.915  13.684   4.145
77025W        W49450  12.876  44.351   3.352
77026W        W49451  11.339  34.482  13.561
77027W        W49452  43.549  12.887   3.695
77028W        W49453  44.332   1.521   2.118
77029W        W49454  37.373  20.822  13.066
77030W        W49455  43.034  44.512  13.691
77031W        W49456  33.796  27.968  11.519
77032W        W49457  21.188   3.347   2.266
77033W        W49458  40.235  26.430   4.584
77034W        W49459  40.509   9.349   2.356
77035W        W49460  13.653  21.773   3.248
77036W        W49461   4.504  25.119   1.255
77037W        W49462  38.886  31.101   1.731
77038W        W49463  42.438  10.268   3.705
77039W        W49464  33.897  22.074   4.152
77040W        W49465  27.260  10.312   3.063
77041W        W49466  32.007  36.824   2.184
77042W        W49467  17.602  23.631  12.022
77043W        W49468  35.996  10.691   2.837
77044W        W49469  10.839   8.514   3.224
77045W        W49470  15.135  11.564  12.078
77046W        W49471  32.448  20.350   2.161
77047W        W49472  35.179   0.968   2.094
77048W        W49473  37.361  38.610  14.880
77049W        W49474  27.950  13.309  11.622
77050W        W49475  10.482  15.733   3.692
77051W        W49476  21.635   9.847  14.531
77052W        W49477  31.018  11.691  13.104
77053W        W49478  10.187   2.475   3.272
77054W        W49479   3.669  15.600   2.612
77055W        W49480  42.385  29.111   1.387
77056W        W49481  27.575  17.702   2.823
77057W        W49482  44.340  22.315   3.356
77058W        W49483  40.395   6.449   3.377
77059W        W49484  20.607  10.770  10.117
77060W        W49485   5.252  20.667  11.580
77061W        W49486  13.128   8.636  11.064
77062W        W49487  13.722   9.085  13.522
77063W        W49488   9.983  41.467   2.155
77064W        W49489   0.501   0.858   3.060
77065W        W49490  27.204  12.184  11.490
77066W        W49491   0.476  33.114   1.927
77067W        W49492  32.157  33.399  10.998
77068W        W49493  16.740   3.786  13.909
77069W        W49494   5.892  36.374  13.740
77070W        W49495  28.914  38.884  12.409
77071W        W49496  40.921  32.186  14.638
77072W        W49497  31.276  33.045   3.694
77073W        W49498   4.342  39.426  12.012
77074W        W49499   0.484  21.444  12.531
77075W        W49500  19.538   4.759  12.541
77076W        W49501  44.384  28.346   4.328
77077W        W49502  21.902   5.282  11.568
77078W        W49503  22.799  16.760  13.531
77079W        W49504   6.369  42.340   3.140
77080W        W49505  37.062   7.848  11.583
77081W        W49506   5.903  41.314  11.144
77082W        W49507  22.177   2.518  13.989
77083W        W49508  33.605   2.847   3.458
77084W        W49509   2.404  10.760  14.515
77085W        W49510  17.063  43.939   2.239
77086W        W49511  24.254   3.033  13.376
77087W        W49512  44.773  18.070   3.254
77088W        W49513   4.227  21.432  11.697
77089W        W49514  24.639  40.431   0.214
77090W        W49515  20.661  11.367  14.319
77091W        W49516   5.289   3.352   4.933
77092W        W49517  33.832   1.657  11.221
77093W        W49518   1.333   1.512  13.617
77094W        W49519  28.773  27.818  14.005
77095W        W49520   5.703   5.795  13.556
77096W        W49521  39.257  28.519   3.841
77097W        W49522  27.411  31.542   5.191
77098W        W49523  43.348  29.194   0.729
77099W        W49524   2.523  23.412   2.868
77100W        W49525  24.117  34.562   1.258
77101W        W49526  11.934  19.276   3.880
77102W        W49527  20.022  21.728  13.890
77103W        W49528  37.866   4.983   0.265
77104W        W49529  19.415   8.682  14.479
77105W        W49530   9.220  19.163   1.298
77106W        W49531  20.554   9.573   3.124
77107W        W49532   5.666  33.702   4.611
77108W        W49533  41.619  11.392  13.290
77109W        W49534  35.657   3.735   2.373
77110W        W49535  31.924   0.417  10.983
77111W        W49536  31.575  18.136  12.658
77112W        W49537  16.965  24.487  11.027
77113W        W49538  23.198   6.154  14.848
77114W        W49539  25.352  12.024   3.563
77115W        W49540   7.777  32.085  12.013
77116W        W49541  15.876  26.588  12.996
77117W        W49542  26.757  33.912  14.490
77118W        W49543  26.706  27.039  10.657
77119W        W49544  35.353  28.101   3.143
77120W        W49545   7.601   8.327  11.176
77121W        W49546  29.606  20.109   4.482
77122W        W49547  40.653  44.395  14.768
77123W        W49548  18.341  24.811  12.774
77124W        W49549  33.620  28.614   4.076
77125W        W49550   6.966   1.728   0.346
77126W        W49551  30.251  16.207   2.357
77127W        W49552  33.018   3.809   3.644
77128W        W49553  30.657   2.701   2.561
77129W        W49554  27.962   6.707  11.962
77130W        W49555   3.264  42.728   3.191
77131W        W49556  28.718  32.581  12.945
77132W        W49557  37.912  18.202   4.110
77133W        W49558  18.530  25.341   1.684
77134W        W49559  28.519   9.257   3.696
77135W        W49560  32.241  28.650  12.590
77136W        W49561  17.327  42.603  14.979
77137W        W49562  26.735  25.439  14.525
77138W        W49563  19.161  35.351   2.334
77139W        W49564  21.065   2.829   4.390
77140W        W49565  39.054  44.495   0.422
77141W        W49566   3.765  32.350   4.477
77142W        W49567  33.099   1.358  13.597
77143W        W49568  10.689  31.407   1.771
77144W        W49569  18.092  36.933   2.245
77145W        W49570  39.492   0.287   3.611
77146W        W49571   3.439  12.852  11.948
77147W        W49572  28.628  10.682  13.811
77148W        W49573  29.750   8.271   3.137
77149W        W49574  14.838   3.304   0.376
77150W        W49575   7.267  36.140   1.865
77151W        W49576  38.561  29.153  13.898
77152W        W49577   2.576  23.660  11.558
77153W        W49578  41.561  24.745  14.813
77154W        W49579  25.698   2.931   1.232
77155W        W49580   0.920  31.766  12.487
77156W        W49581   9.306   5.813   2.306
77157W        W49582  13.578  16.751   0.439
77158W        W49583  43.991  21.154   3.118
77159W        W49584  31.011  19.678   1.543
77160W        W49585  36.923  15.178  10.956
77161W        W49586  38.968  16.439  11.363
77162W        W49587  34.639  21.644   4.567
77163W        W49588  35.060  37.928  10.866
77164W        W49589   1.956  11.280   2.567
77165W        W49590  44.973  38.073   2.929
77166W        W49591  44.968   5.861  11.369
77167W        W49592  17.040  15.773  13.868
77168W        W49593   4.254   1.171  11.474
77169W        W49594  15.612  16.309   2.787
77170W        W49595  10.322   7.541  11.566
77171W        W49596   2.520   5.292   1.793
77172W        W49597  28.933  30.115   4.163
77173W        W49598   8.315  17.068   1.716
77174W        W49599  10.664   5.843   2.320
77175W        W49600  19.128  27.619  13.921
77176W        W49601  28.804  17.582   3.171
77177W        W49602   8.494  13.643  14.426
77178W        W49603  38.439  15.208   2.665
77179W        W49604   9.643  30.208  11.517
77180W        W49605  13.852  17.264   0.060
77181W        W49606  40.628  30.280  12.453
77182W        W49607  11.372  22.639  14.789
77183W        W49608   8.703  42.928  13.428
77184W        W49609  35.860  30.933  14.377
77185W        W49610  27.639  21.058  13.874
77186W        W49611  10.639  23.803   4.516
77187W        W49612  13.613  10.706  10.768
77188W        W49613  15.940  11.252  11.130
77189W        W49614   7.684  21.261   2.741
77190W        W49615   1.365  13.316   3.688
77191W        W49616  42.365  32.660  13.592
77192W        W49617   3.187  18.151   0.234
77193W        W49618  22.918  34.472   3.336
77194W        W49619  24.267  24.212  11.682
77195W        W49620  20.102   8.188  11.648
77196W        W49621  14.856  15.663   0.922
77197W        W49622  20.316  35.146   0.554
77198W        W49623  19.529   6.463   1.685
77199W        W49624   1.258   2.670   4.694
77200W        W49625   6.070  42.218   0.789
77201W        W49626   1.395  39.987  14.689
77202W        W49627  17.832   8.765   3.143
77203W        W49628  20.610   0.359  10.959
77204W        W49629  27.260  37.898  13.335
77205W        W49630  35.042  18.510   2.284
77206W        W49631  35.853  42.328  11.182
77207W        W49632  30.680  43.295  12.948
77208W        W49633   2.791  38.536   4.903
77209W        W49634  37.008  22.145  13.900
77210W        W49635  28.132  38.391  14.116
77211W        W49636   3.353  39.553   0.249
77212W        W49637  28.972  37.485  11.844
77213W        W49638  26.227   3.422   2.875
77214W        W49639  40.749  34.525  13.648
77215W        W49640  15.287  39.240  11.562
77216W        W49641  42.763  21.983   1.495
77217W        W49642  28.630  39.068  10.132
77218W        W49643  23.432  44.677   3.726
77219W        W49644  42.413   2.950   4.008
77220W        W49645  42.348  21.714  14.785
77221W        W49646  16.331  28.425   2.392
77222W        W49647  24.953   5.199   4.057
77223W        W49648  13.987  24.321  11.513
77224W        W49649  13.653  30.974   1.105
77225W        W49650  20.128  13.230  10.729
77226W        W49651  19.146  11.494   1.909
77227W        W49652  36.011  11.881   0.828
77228W        W49653  30.763  38.764   1.826
77229W        W49654  16.263  30.115  11.634
77230W        W49655   4.490  24.445  14.387
77231W        W49656   0.358  30.573  10.439
77232W        W49657  15.170   0.293  13.452
77233W        W49658   1.870  32.161   4.280
77234W        W49659  44.600  11.702  14.888
77235W        W49660  23.198   3.019  13.318
77236W        W49661  11.948  38.037  14.280
77237W        W49662  39.526  33.559   3.226
77238W        W49663  34.014  24.514   2.003
77239W        W49664  43.536  37.413  12.911
77240W        W49665  29.069  33.631  14.312
77241W        W49666   8.767  41.763  13.038
77242W        W49667  37.581  38.872   2.147
77243W        W49668  41.964   6.825   3.586
77244W        W49669   4.958  18.431  11.163
77245W        W49670  13.062  32.953  12.660
77246W        W49671  32.508  28.625  10.589
77247W        W49672  44.185  26.272   0.421
77248W        W49673  44.399   8.829   4.827
77249W        W49674  19.476  29.867   3.301
77250W        W49675  20.932  41.191   3.948
77251W        W49676  40.539  32.503   0.222
77252W        W49677  15.123  27.939  11.437
77253W        W49678  30.893  30.002  14.350
77254W        W49679  24.263  14.271   3.857
77255W        W49680  28.383  33.506   3.600
77256W        W49681  33.896  21.814   4.594
77257W        W49682  36.051  39.414   3.754
77258W        W49683   9.146  44.825  11.711
77259W        W49684  17.520  10.155  11.213
77260W        W49685   8.136  38.743  11.180
77261W        W49686   7.902  40.754   1.841
77262W        W49687  11.237  40.485   3.402
77263W        W49688  23.578  17.973  12.423
77264W        W49689  30.101   7.397   0.038
77265W        W49690  31.974  38.978   1.466
77266W        W49691   4.338  24.599  11.646
77267W        W49692  24.484  35.000  12.500
77268W        W49693  17.523  25.353   3.999
77269W        W49694   9.911  11.414  12.623
77270W        W49695  24.965  15.750  11.679
77271W        W49696  34.920  37.916  10.364
77272W        W49697   3.885  21.195   2.266
77273W        W49698  28.240  21.181  12.417
77274W        W49699  14.759  31.898  13.571
77275W        W49700   1.610  33.301  14.461
77276W        W49701  38.663  23.182  13.524
77277W        W49702  20.085   2.817   3.306
77278W        W49703  41.831  44.832   0.117
77279W        W49704  24.670  23.787   0.581
77280W        W49705   2.492  40.497  14.235
77281W        W49706  25.450   6.767  13.495
77282W        W49707  31.118  17.700   0.588
77283W        W49708  37.333  23.003   0.465
77284W        W49709  38.848  19.717   1.215
77285W        W49710  19.803  24.943  14.430
77286W        W49711  18.704  25.053   3.109
77287W        W49712   1.231  33.657   1.447
77288W        W49713  12.315   8.923   4.297
77289W        W49714  27.227  38.589   4.357
77290W        W49715  35.192  38.629   1.834
77291W        W49716  27.537  35.360  14.340
77292W        W49717  43.789  19.061   3.577
77293W        W49718  11.206  11.591  12.375
77294W        W49719  23.757   6.401   1.769
77295W        W49720   4.809  39.012   3.777
77296W        W49721  24.525  27.680  11.571
77297W        W49722   9.346  36.640  12.837
77298W        W49723  41.302  11.312   4.143
77299W        W49724  32.106  25.464   3.124
77300W        W49725  28.569  40.866  10.777
77301W        W49726  42.775   1.931  13.041
77302W        W49727  15.706  28.650  12.049
77303W        W49728  25.682  20.843   1.789
77304W        W49729  34.782  20.226  11.611
77305W        W49730  31.984   5.783  11.567
77306W        W49731   9.225  36.357   4.196
77307W        W49732  26.265  39.518   3.234
77308W        W49733   6.730  22.691   3.572
77309W        W49734  38.480  33.998  14.598
77310W        W49735   3.646  42.539   4.867
77311W        W49736  33.337  17.584   1.986
77312W        W49737  23.214   5.749  11.607
77313W        W49738  35.347  28.717  10.689
77314W        W49739  19.016  16.091  12.860
77315W        W49740   1.464  25.397   1.350
77316W        W49741  32.422  37.980   0.954
77317W        W49742  10.412  16.707  12.165
77318W        W49743   6.866  17.250   0.488
77319W        W49744  15.423  35.732   0.642
77320W        W49745  38.326   6.917   5.184
77321W        W49746  42.897   9.718   0.446
77322W        W49747  17.552  38.566   1.824
77323W        W49748  13.966   9.432  12.004
77324W        W49749  30.570  32.037  11.918
77325W        W49750  19.741  24.702  14.902
77326W        W49751   4.226   3.308   0.225
77327W        W49752   6.496  25.238   1.398
77328W        W49753   8.891  14.748   2.260
77329W        W49754  29.013  41.854  10.008
77330W        W49755  27.584  30.166  11.930
77331W        W49756  24.037  30.219   1.773
77332W        W49757  32.886  10.681   4.098
77333W        W49758   3.770  33.615  11.082
77334W        W49759   3.023  30.832   2.904
77335W        W49760  15.158  24.004  11.923
77336W        W49761   7.319   2.878   1.382
77337W        W49762  12.399   8.525  14.618
77338W        W49763  32.585  35.626  13.619
77339W        W49764  35.959  21.510  11.410
77340W        W49765  15.050  39.594   1.461
77341W        W49766  42.980  11.049  14.948
77342W        W49767   0.469  40.016   1.753
77343W        W49768  14.027  33.110   0.765
77344W        W49769  29.252   7.811   2.512
77345W        W49770   6.737  21.707   3.891
77346W        W49771  40.153  28.862   0.977
77347W        W49772  17.206  23.193   2.153
77348W        W49773  20.975  31.384   1.304
77349W        W49774  33.873  25.761  14.435
77350W        W49775  22.525  19.537  14.265
77351W        W49776   6.703  10.054   5.033
77352W        W49777  10.102  18.338  14.831
77353W        W49778  34.573  10.806   0.661
77354W        W49779  33.811  36.620   3.853
77355W        W49780   4.028   3.441  14.741
77356W        W49781   5.905  33.096   3.524
77357W        W49782  39.425  31.978   1.677
77358W        W49783  18.604  40.072   3.195
77359W        W49784  19.724  42.348  10.639
77360W        W49785  12.338   2.833  13.440
77361W        W49786  18.147   9.701   4.013
77362W        W49787  12.131  14.915   4.640
77363W        W49788  26.423  28.395  13.458
77364W        W49789   2.276  37.089   0.705
77365W        W49790  37.932  35.421  10.617
77366W        W49791  10.831  13.634   1.061
77367W        W49792  36.794  29.511   1.656
77368W        W49793  35.912   2.888  14.119
77369W        W49794   7.818   8.760  11.044
77370W        W49795  30.309   2.254  12.569
77371W        W49796  20.912  19.060  14.036
77372W        W49797  10.439  22.257  14.422
77373W        W49798  17.577   4.734  11.500
77374W        W49799  21.310  33.653   3.223
77375W        W49800  12.223  30.148   3.696
77376W        W49801  17.658  33.689  10.278
77377W        W49802  25.120  14.728  14.765
77378W        W49803  40.595  20.491   3.139
77379W        W49804  11.736  34.970   4.977
77380W        W49805  20.353  34.515  10.086
77381W        W49806  20.907  36.374  14.470
77382W        W49807   1.770  41.122   4.083
77383W        W49808   7.139  28.985  10.735
77384W        W49809  34.358  18.355   2.299
77385W        W49810  44.303  25.251  13.362
77386W        W49811   9.697  33.423  13.166
77387W        W49812  16.366   9.305  12.586
77388W        W49813  27.099  43.036  14.757
77389W        W49814   8.805  25.304   1.215
77390W        W49815  33.852   3.335  11.502
77391W        W49816  12.412  18.663   2.140
77392W        W49817  44.117  32.013  14.057
77393W        W49818  13.216  20.909   3.930
77394W        W49819  23.638  27.946  11.585
77395W        W49820  29.054   9.695   0.884
77396W        W49821   3.317  21.495   1.865
77397W        W49822  27.745  39.206  13.503
77398W        W49823  40.341  34.021  10.971
77399W        W49824  16.667  13.239   1.984
77400W        W49825  39.370  21.175   1.135
77401W        W49826  43.528  22.835   0.770
77402W        W49827  30.048  23.227   2.710
77403W        W49828   0.694  18.239   2.918
77404W        W49829  41.235  26.968  12.450
77405W        W49830   3.504  43.072   2.867
77406W        W49831  41.629  41.228   3.692
77407W        W49832  36.961  25.469  13.428
77408W        W49833  18.116   6.936   4.748
77409W        W49834  41.315  15.872  11.548
77410W        W49835  44.254  22.944   4.944
77411W        W49836  30.683  42.147   4.499
77412W        W49837   6.738  41.222   1.046
77413W        W49838  42.334  39.943  11.836
77414W        W49839  37.581  39.861  10.803
77415W        W49840   0.773   8.694   4.075
77416W        W49841  40.813  17.546  11.249
77417W        W49842  29.154  18.694  13.622
77418W        W49843  44.756  20.558  12.014
77419W        W49844  14.391  38.023  10.567
77420W        W49845  22.110  40.801   0.431
77421W        W49846  24.809  24.720  12.856
77422W        W49847   8.939  35.220   2.499
77423W        W49848  39.483  37.400   2.296
77424W        W49849  12.296  25.938   0.317
77425W        W49850  26.384  40.102   3.726
77426W        W49851  18.581  43.510   3.898
77427W        W49852  16.597  18.446  12.428
77428W        W49853  25.760  22.504  13.395
77429W        W49854  15.339  26.997   1.590
77430W        W49855  20.147  28.492  12.119
77431W        W49856  14.374  24.523   0.747
77432W        W49857  23.110   4.948   4.283
77433W        W49858  29.530  35.773  12.519
77434W        W49859  13.037  39.063   3.676
77435W        W49860  38.769  40.928   1.697
77436W        W49861  20.756  32.418   0.825
77437W        W49862   4.331  11.669  10.718
77438W        W49863  23.176  18.032  11.943
77439W        W49864  26.241  36.846   0.414
77440W        W49865  16.553   9.768   2.966
77441W        W49866  11.572  23.940   3.356
77442W        W49867  22.453  33.404  12.707
77443W        W49868  37.385   6.730  14.945
77444W        W49869   6.200  23.973  12.510
77445W        W49870  17.699  32.906   0.259
77446W        W49871  14.187  33.021  14.852
77447W        W49872  39.568   7.415   0.973
77448W        W49873  22.255  19.251   0.257
77449W        W49874   9.185  12.945   0.267
77450W        W49875  13.724  36.598  13.862
77451W        W49876  38.465   2.724  13.031
77452W        W49877  23.862  23.625   0.908
77453W        W49878  35.309   9.436  12.650
77454W        W49879  21.333  40.949  14.309
77455W        W49880  40.100  11.944   1.827
77456W        W49881  32.191  18.227   2.273
77457W        W49882   4.848  32.703  12.151
77458W        W49883  29.579   0.287  12.834
77459W        W49884  36.895  38.077  13.501
77460W        W49885  43.342   0.340   0.891
77461W        W49886  30.941  24.510   0.394
77462W        W49887  33.632   1.863   3.240
77463W        W49888  22.114  22.049   0.947
77464W        W49889  14.197   0.193   0.832
77465W        W49890   3.906  11.165  12.016
77466W        W49891   1.934  33.169  14.921
77467W        W49892  41.848  18.561  10.518
77468W        W49893   8.647   8.128  11.833
77469W        W49894   5.637   2.414  11.119
77470W        W49895   9.042  31.173   0.587
77471W        W49896  40.236  18.534   4.713
77472W        W49897  39.410   8.229  12.142
77473W        W49898  14.374   4.179   1.637
77474W        W49899  26.164   7.763  12.592
77475W        W49900  29.095  33.969  13.471
77476W        W49901  28.602  18.231   3.863
77477W        W49902  22.267  16.307  12.951
77478W        W49903  31.879  10.623   3.295
77479W        W49904  37.352  30.017  12.380
77480W        W49905  28.100  42.351  14.088
77481W        W49906  13.820  19.590  11.967
77482W        W49907  24.128  31.081   3.783
77483W        W49908  10.024  39.385   1.976
77484W        W49909  23.406  38.053   1.964
77485W        W49910  22.663  37.538  13.845
77486W        W49911  21.467  27.073   5.173
77487W        W49912  24.582  13.912   4.083
77488W        W49913  23.357  10.246  11.687
77489W        W49914  23.783  10.728   1.782
77490W        W49915   8.596  22.748   4.212
77491W        W49916   2.828  33.308  11.472
77492W        W49917   6.934  21.103   3.714
77493W        W49918  37.070  35.883   0.240
77494W        W49919  30.623  30.154  12.101
77495W        W49920  30.183  16.988  14.634
77496W        W49921  43.254   4.999  12.585
77497W        W49922   9.668  38.859  10.266
77498W        W49923   0.300  15.091   4.168
77499W        W49924  27.203  14.433  12.088
77500W        W49925   7.891   0.048   4.374
77501W        W49926  18.704  18.843   0.711
77502W        W49927   9.786  34.844  12.234
77503W        W49928  13.214  42.298  13.457
77504W        W49929  33.955   3.050   1.373
77505W        W49930  36.804  14.795  11.964
77506W        W49931  25.808  41.407  13.008
77507W        W49932  35.912  42.380   1.300
77508W        W49933  36.320  43.767  11.025
77509W        W49934   0.288   8.133   2.319
77510W        W49935  38.950  35.693  11.738
77511W        W49936   7.759  15.075   0.484
77512W        W49937  34.951   4.156   4.094
77513W        W49938   0.520  27.680   3.373
77514W        W49939  32.233  19.266  13.768
77515W        W49940   0.740  22.669  12.955
77516W        W49941  32.508  13.342   3.816
77517W        W49942  43.732  30.761  12.031
77518W        W49943  24.232  28.551  11.273
77519W        W49944  18.054  15.903   3.812
77520W        W49945  43.378  29.825   3.912
77521W        W49946   1.368  27.375   2.775
77522W        W49947  12.600  42.873   4.525
77523W        W49948  18.539   4.286  14.176
77524W        W49949  37.802   3.323   1.907
77525W        W49950  19.072  14.146  13.850
77526W        W49951  44.517  34.578  10.031
77527W        W49952  24.153   8.936  10.529
77528W        W49953  42.982   9.399  10.699
77529W        W49954  26.354  34.182   1.476
77530W        W49955  13.790  22.266   3.257
77531W        W49956  37.082  33.432  12.391
77532W        W49957  39.287   4.395  10.358
77533W        W49958   6.478   3.613  11.146
77534W        W49959   7.468  44.727   4.340
77535W        W49960  27.271   2.508   2.780
77536W        W49961  33.733  35.576  13.888
77537W        W49962  18.042   4.048  10.652
77538W        W49963   6.902  13.761   0.010
77539W        W49964  37.068  14.272  14.949
77540W        W49965   8.268  33.763   4.080
77541W        W49966  37.940  42.366   3.248
77542W        W49967  12.324  29.140  11.576
77543W        W49968   0.409  21.582   2.040
77544W        W49969  40.446  26.510  10.977
77545W        W49970  18.170  14.764   0.443
77546W        W49971  33.882  38.978  10.718
77547W        W49972  40.747   7.055  13.425
77548W        W49973  24.572  20.797  13.712
77549W        W49974   7.506  25.414   5.068
77550W        W49975  41.511  29.291  12.870
77551W        W49976  15.817  17.805  14.465
77552W        W49977   6.392  44.456   5.122
77553W        W49978  17.684   9.442  14.917
77554W        W49979   4.943  15.770   3.620
77555W        W49980  39.866  14.514  14.360
77556W        W49981   0.213  15.258  10.742
77557W        W49982  26.088  37.581   3.160
77558W        W49983  36.431  40.267  13.736
77559W        W49984  22.622   4.278   0.811
77560W        W49985  26.128  27.948   4.613
77561W        W49986  28.957   6.730   2.779
77562W        W49987  43.889  38.007  11.423
77563W        W49988  10.369  26.086  11.701
77564W        W49989  41.594   4.442   4.133
77565W        W49990  21.679  22.047   0.459
77566W        W49991   4.932  28.553  11.117
77567W        W49992  15.029  25.561  14.429
77568W        W49993  19.689  15.264  12.105
77569W        W49994  37.535  37.612  13.988
77570W        W49995   6.149  37.938   3.963
77571W        W49996   1.933   5.625   1.465
77572W        W49997   9.915   2.170   2.945
77573W        W49998   5.743  31.933   0.008
77574W        W49999  41.985   9.701  12.358
77575W        W50000  22.976  29.482   2.245
77576W        W50001   3.936  10.298   3.045
77577W        W50002  13.375  42.784   4.903
77578W        W50003  32.786  20.424   1.335
77579W        W50004  11.432   8.278   0.455
77580W        W50005  24.962   7.402   3.501
77581W        W50006  15.023   6.446  12.507
77582W        W50007  32.533  40.859   4.892
77583W        W50008  27.399  17.682   4.862
77584W        W50009   7.528  17.572   4.968
77585W        W50010  23.456  12.307   5.531
77586W        W50011  16.092  22.153  14.851
77587W        W50012  30.805  38.557   1.094
77588W        W50013  37.663  33.345   2.172
77589W        W50014  20.509   9.058   3.328
77590W        W50015   5.345  13.615  13.975
77591W        W50016  35.890   6.363   3.405
77592W        W50017  25.214  41.114   2.361
77593W        W50018  13.832  44.306  10.932
77594W        W50019  23.136  20.198  12.878
77595W        W50020  26.528  20.234   0.724
77596W        W50021  44.550  23.352   4.896
77597W        W50022  21.269  38.087  12.622
77598W        W50023  32.331  29.946  13.456
77599W        W50024  21.062  39.585  11.583
77600W        W50025  30.829  10.162   4.629
77601W        W50026  16.235  13.069   2.697
77602W        W50027  38.573  36.155   4.050
77603W        W50028  41.996  21.694  12.477
77604W        W50029  26.912  31.005  14.020
77605W        W50030  40.476  20.656   9.766
77606W        W50031  22.802  35.334   3.530
77607W        W50032  28.706  30.080  11.061
77608W        W50033  25.501  39.699  11.127
77609W        W50034  30.816  17.120   1.349
77610W        W50035  30.963  41.491  11.581
77611W        W50036  25.224   4.297  13.309
77612W        W50037  16.824  27.028   2.645
77613W        W50038  32.964  39.812   0.472
77614W        W50039  33.293   6.389  14.770
77615W        W50040   5.614   8.864  12.920
77616W        W50041   2.773  20.639   4.923
77617W        W50042   9.658  42.475  13.435
77618W        W50043   1.866   8.272   0.246
77619W        W50044   4.731  29.271   0.374
77620W        W50045  14.406  27.489   0.397
77621W        W50046  30.227  33.920   2.857
77622W        W50047   8.691  44.813  10.401
77623W        W50048  10.750   2.848  11.620
77624W        W50049  14.234  43.079  12.871
77625W        W50050   0.454  28.613   4.656
77626W        W50051  10.606  42.624  10.788
77627W        W50052  34.499  34.749   3.372
77628W        W50053   1.080  43.436  12.421
77629W        W50054  38.670  37.121  10.640
77630W        W50055  10.699   1.396   4.745
77631W        W50056  34.198   1.139  14.248
77632W        W50057  22.156  20.069   4.598
77633W        W50058  33.338  35.351   2.410
77634W        W50059  12.374   4.936   2.190
77635W        W50060  29.455  39.847   2.637
77636W        W50061   4.572  41.523   1.111
77637W        W50062   8.811   7.396   1.182
77638W        W50063  24.053  44.490  11.443
77639W        W50064  32.341  15.258  13.094
77640W        W50065  32.388   6.783   4.782
77641W        W50066  44.911   2.967   0.411
77642W        W50067  21.195   5.560   3.692
77643W        W50068  21.186   5.182   1.601
77644W        W50069   4.937  33.123   3.357
77645W        W50070   6.699   3.338  12.036
77646W        W50071  14.868  37.986  11.990
77647W        W50072  12.391  32.630  13.935
77648W        W50073   0.664   0.394   4.209
77649W        W50074  43.762  33.467   0.037
77650W        W50075  24.235  31.925   3.626
77651W        W50076  22.743  25.062  10.399
77652W        W50077  11.867  28.482   0.855
77653W        W50078   6.147  41.812  11.166
77654W        W50079  30.131  25.187  14.343
77655W        W50080   0.748   1.888   3.835
77656W        W50081  42.884  21.635   3.799
77657W        W50082  41.080  11.767   2.839
77658W        W50083  42.967   4.952   0.824
77659W        W50084  38.230   3.273  11.073
77660W        W50085  21.228  25.328  12.175
77661W        W50086  24.616  20.547  10.666
77662W        W50087  37.835  28.881   3.771
77663W        W50088   5.282  30.072  12.319
77664W        W50089  44.108   7.255   2.163
77665W        W50090   4.979  31.174  10.647
77666W        W50091  37.590  35.601   4.501
77667W        W50092  43.292  14.524  12.765
77668W        W50093  42.868  21.661  14.043
77669W        W50094  44.255  38.338   3.337
77670W        W50095  20.035  30.341   0.750
77671W        W50096  10.663  28.147   3.815
77672W        W50097  27.559  16.177  12.989
77673W        W50098  31.410  11.146  13.488
77674W        W50099  12.443   6.721  13.484
77675W        W50100  21.801  43.428  13.280
77676W        W50101  24.450  33.199   1.907
77677W        W50102  18.229   1.828  11.917
77678W        W50103  16.312  18.701  10.755
77679W        W50104  37.548  35.413  10.965
77680W        W50105  16.180  30.070   1.694
77681W        W50106  39.878   3.837   4.859
77682W        W50107  37.008  18.067  13.787
77683W        W50108  38.874   7.663  12.585
77684W        W50109  16.163   4.549  11.190
77685W        W50110  13.882  25.604   0.209
77686W        W50111  40.294  32.176   1.183
77687W        W50112  34.856  27.472  11.826
77688W        W50113   6.381  23.761   2.336
77689W        W50114  25.212  34.854   4.273
77690W        W50115  42.805  32.637   1.732
77691W        W50116  17.755  42.761   2.699
77692W        W50117  32.984   7.771  12.522
77693W        W50118   1.637  35.097  12.442
77694W        W50119  36.896  30.064  13.444
77695W        W50120  28.069  22.606   0.614
77696W        W50121   1.249  26.588  11.925
77697W        W50122  12.098  14.068   3.634
77698W        W50123   2.808   4.681   2.239
77699W        W50124  11.450  22.353  10.639
77700W        W50125  25.524  40.817  13.955
77701W        W50126  18.282  29.176   3.716
77702W        W50127  36.124  42.293   1.784
77703W        W50128  21.096  26.687   3.612
77704W        W50129  11.551  39.647   2.149
77705W        W50130   0.454  39.394  13.903
77706W        W50131  29.607  40.327   4.155
77707W        W50132   6.411  23.125  10.606
77708W        W50133  29.271  32.580   4.978
77709W        W50134  40.872  19.669  11.662
77710W        W50135   5.973  36.088   3.859
77711W        W50136   1.367  24.666   1.047
77712W        W50137   4.447  43.605  10.411
77713W        W50138  15.389  28.871   2.604
77714W        W50139   7.716  36.580  10.871
77715W        W50140  17.532   3.343  12.620
77716W        W50141  22.524  17.705   2.878
77717W        W50142  29.022  12.719   1.194
77718W        W50143  27.084  27.221  11.242
77719W        W50144   8.939  37.522  12.957
77720W        W50145   5.886  38.265  14.447
77721W        W50146  42.461  13.402   1.838
77722W        W50147  15.254  26.748   2.374
77723W        W50148  26.543  29.456  13.804
77724W        W50149  28.369  39.278  11.607
77725W        W50150  17.996  37.005   3.556
77726W        W50151  37.866  33.407   2.639
77727W        W50152  31.561  38.996   4.670
77728W        W50153   1.302  40.265   1.855
77729W        W50154  22.211  21.259  12.864
77730W        W50155  20.491  43.506  12.887
77731W        W50156  44.540  13.264   1.227
77732W        W50157  41.175  13.653   2.776
77733W        W50158  19.063  34.825  11.916
77734W        W50159  43.977  14.323   4.493
77735W        W50160   6.972   7.018  12.364
77736W        W50161  21.190  18.185  14.372
77737W        W50162  40.869   3.820   1.274
77738W        W50163  25.695  15.697   2.799
77739W        W50164  19.258  43.004  13.826
77740W        W50165  26.547   6.562   2.321
77741W        W50166   4.010  10.787   1.018
77742W        W50167   6.960  10.636   1.480
77743W        W50168  10.449   3.284  13.771
77744W        W50169  28.091   8.871  13.094
77745W        W50170  11.266  14.380  12.951
77746W        W50171  44.027  43.925  12.210
77747W        W50172  25.196  44.320  14.482
77748W        W50173  38.821  19.810  10.318
77749W        W50174  40.354  44.206   1.730
77750W        W50175   9.184  42.516  11.157
77751W        W50176  35.371  18.813  14.695
77752W        W50177  12.209  20.075  11.163
77753W        W50178   3.362  41.535   1.872
77754W        W50179  13.234  38.365  12.557
77755W        W50180   1.071  35.642   2.489
77756W        W50181   2.127  18.264  14.406
77757W        W50182  17.807  15.335   3.097
77758W        W50183  41.066   4.810   1.491
77759W        W50184   3.570  13.970  12.438
77760W        W50185  22.251   0.771  11.612
77761W        W50186  15.121   5.430   0.848
77762W        W50187  19.269   1.352   0.889
77763W        W50188  30.197   3.164   2.801
77764W        W50189  40.257  16.963   2.761
77765W        W50190  14.451  42.149   2.820
77766W        W50191  33.647  35.255   4.151
77767W        W50192  22.723  13.480  11.930
77768W        W50193   1.270  28.895   2.802
77769W        W50194  41.897  12.305  10.722
77770W        W50195  40.014  42.352   3.049
77771W        W50196  37.485  13.739  12.646
77772W        W50197  30.599   1.484  11.023
77773W        W50198  37.054  42.020  12.658
77774W        W50199  14.782  13.306   3.840
77775W        W50200   6.438   8.080   2.122
77776W        W50201   3.508  36.894   0.376
77777W        W50202   9.995  17.862  14.234
77778W        W50203  24.587  23.398   1.863
77779W        W50204  14.716  43.944  11.432
77780W        W50205   4.520   6.663   1.791
77781W        W50206  40.381  38.351  11.865
77782W        W50207  43.839   4.229  10.612
77783W        W50208  20.700  17.454  10.827
77784W        W50209  28.725  30.600   4.095
77785W        W50210   1.258  13.340   1.839
77786W        W50211  40.795  27.606   4.850
77787W        W50212  30.761   9.270  10.921
77788W        W50213   7.699  12.295  11.078
77789W        W50214  23.872   6.387  13.932
77790W        W50215  30.943  41.991   4.083
77791W        W50216  14.510  38.354   1.827
77792W        W50217  26.557  16.767   3.932
77793W        W50218  39.314  18.649  11.364
77794W        W50219   0.875  25.534  14.188
77795W        W50220  40.271  27.149   4.143
77796W        W50221  14.124  38.800   2.723
77797W        W50222   5.357  19.571   2.521
77798W        W50223  33.074  23.436  11.926
77799W        W50224   5.636   3.687  14.985
77800W        W50225  27.668  42.752  13.109
77801W        W50226  16.770   2.192   0.781
77802W        W50227  16.313  41.629  13.307
77803W        W50228  34.780  42.993  11.612
77804W        W50229  24.206  33.919   4.295
77805W        W50230  40.726  29.091   4.281
77806W        W50231   2.584  29.626  12.346
77807W        W50232  26.795   8.248  14.950
77808W        W50233  16.233   5.599  13.824
77809W        W50234  17.691  17.387  10.653
77810W        W50235  42.285  35.920  11.187
77811W        W50236  31.878   0.522   0.792
77812W        W50237  27.714   9.342  14.431
77813W        W50238   4.176   4.308  12.490
77814W        W50239  40.118  16.194  13.900
77815W        W50240  38.116   3.267  12.265
77816W        W50241  31.557  32.915   0.888
77817W        W50242  23.583  40.333  13.663
77818W        W50243  44.216  38.388  11.186
77819W        W50244  20.694  17.564   0.932
77820W        W50245  11.789  24.044   1.520
77821W        W50246  42.483  26.951  14.567
77822W        W50247  44.353  22.908  13.123
77823W        W50248  23.085  35.904   1.833
77824W        W50249  22.079   1.181   0.302
77825W        W50250  15.141  34.353  10.285
77826W        W50251  36.811  14.340   3.673
77827W        W50252  18.385   3.700  12.408
77828W        W50253   9.894   4.259  12.840
77829W        W50254   3.368   2.326  13.831
77830W        W50255  25.261  38.409  10.373
77831W        W50256   0.011  37.019  11.061
77832W        W50257  27.020  14.961  12.105
77833W        W50258   0.449   8.586   0.398
77834W        W50259  44.761  31.662   2.832
77835W        W50260  34.010  14.340  11.413
77836W        W50261  40.118  30.187  11.113
77837W        W50262  25.427   6.227   0.473
77838W        W50263  17.476  33.819  11.120
77839W        W50264  18.679  29.694  13.077
77840W        W50265  28.412  28.616  12.526
77841W        W50266  41.553  23.235  13.429
77842W        W50267  31.138   6.690  14.997
77843W        W50268  11.263  22.124  11.078
77844W        W50269  14.238   2.472   4.909
77845W        W50270  37.178  40.724  14.777
77846W        W50271  16.595  23.746  13.926
77847W        W50272  12.627  29.556  13.110
77848W        W50273  24.919  31.893  13.901
77849W        W50274  18.696   1.527   3.199
77850W        W50275  20.472  24.961  10.112
77851W        W50276  44.115  26.790  14.802
77852W        W50277  44.258  22.125  10.191
77853W        W50278  18.243   3.485   3.820
77854W        W50279  10.966  37.229   2.578
77855W        W50280  29.731  39.059   4.617
77856W        W50281  23.865  15.199   0.364
77857W        W50282  29.532  24.159  10.563
77858W        W50283  22.141  43.910  13.385
77859W        W50284  30.096  32.657  11.475
77860W        W50285  35.616  22.036   1.189
77861W        W50286  44.225  10.641   0.504
77862W        W50287  31.976  34.035   0.498
77863W        W50288  32.857   9.978  13.984
77864W        W50289  14.834  26.551   2.612
77865W        W50290  44.513  10.732   0.041
77866W        W50291  43.607  22.768   4.155
77867W        W50292  16.175  30.990   3.344
77868W        W50293   0.414  26.463  12.548
77869W        W50294   5.428  37.179   3.249
77870W        W50295   1.373   5.783   3.289
77871W        W50296  29.850  40.775  10.612
77872W        W50297  29.404  15.677   0.464
77873W        W50298  36.596   6.964   9.844
77874W        W50299   7.691   5.900  10.125
77875W        W50300  15.547   1.774  10.165
77876W        W50301  22.576  28.574  14.473
77877W        W50302   2.761  36.324  12.291
77878W        W50303  41.022  16.840   4.202
77879W        W50304  30.283  44.698   0.196
77880W        W50305  11.656  31.074   0.996
77881W        W50306  13.289  13.256   0.864
77882W        W50307  20.898   2.924  13.815
77883W        W50308  11.636  16.656  11.432
77884W        W50309  30.543  40.812   3.344
77885W        W50310  24.215   5.822   3.535
77886W        W50311   9.357  18.362   1.869
77887W        W50312   6.863  28.132   1.856
77888W        W50313  20.152  10.715  13.840
77889W        W50314  21.057   0.566   2.348
77890W        W50315  25.893  13.049  13.256
77891W        W50316  12.150   4.823  13.562
77892W        W50317   3.816  26.892  12.673
77893W        W50318  11.702  27.558   4.125
77894W        W50319  43.326  12.375  13.150
77895W        W50320  22.037   2.399   3.701
77896W        W50321   7.838  17.695  13.799
77897W        W50322  43.297  14.837   1.303
77898W        W50323   0.667  23.124   3.369
77899W        W50324  37.657  32.110   4.884
77900W        W50325  44.847  43.994   1.277
77901W        W50326   0.868  16.044   2.697
77902W        W50327  21.459  31.525  13.130
77903W        W50328  31.581  21.323   4.517
77904W        W50329  42.286  44.872  10.427
77905W        W50330   1.443  31.409  13.721
77906W        W50331  21.377  23.163  14.486
77907W        W50332  14.289   3.164   1.741
77908W        W50333  38.237  26.041   1.931
77909W        W50334  23.461  23.037  11.186
77910W        W50335  37.752  18.585   2.277
77911W        W50336   8.180  34.905   3.274
77912W        W50337  17.202  31.995  10.780
77913W        W50338  29.780  21.407   9.981
77914W        W50339  32.710  34.571  13.447
77915W        W50340  28.158  31.880  10.190
77916W        W50341  41.883  39.606  14.983
77917W        W50342  43.047  21.547   1.206
77918W        W50343  30.105  41.944  10.877
77919W        W50344  20.641  33.316   2.692
77920W        W50345  25.201  16.287   1.741
77921W        W50346   9.001  33.508  10.652
77922W        W50347  35.578  40.691   2.760
77923W        W50348   5.112   0.247  12.389
77924W        W50349  13.116  30.933   0.970
77925W        W50350   4.474  24.110  13.927
77926W        W50351  22.238  35.085   1.916
77927W        W50352  44.796  37.421  12.518
77928W        W50353  43.922  24.111   1.774
77929W        W50354  43.444   1.722  11.078
77930W        W50355  12.472  19.067  13.327
77931W        W50356  22.952  42.994   1.639
77932W        W50357  16.411  22.161  14.435
77933W        W50358  44.600  13.509  14.979
77934W        W50359  33.623  13.827   3.860
77935W        W50360  14.281  32.560   3.533
77936W        W50361  14.277  33.224   2.638
77937W        W50362   1.477   5.670  12.770
77938W        W50363   3.596  30.715   1.019
77939W        W50364  11.179  43.870   0.761
77940W        W50365  28.195  33.047  14.295
77941W        W50366  42.895  34.844   0.758
77942W        W50367  12.819   7.726  11.337
77943W        W50368  31.403  12.421  12.014
77944W        W50369   1.194  43.730  14.883
77945W        W50370   2.534   8.270  11.493
77946W        W50371  30.436   5.264  11.806
77947W        W50372  10.175   0.533   1.411
77948W        W50373   6.269  28.099   3.501
77949W        W50374  44.810  29.705   2.331
77950W        W50375  43.141  40.920  13.524
77951W        W50376  23.731  15.052   4.314
77952W        W50377   9.477  15.110   4.146
77953W        W50378  15.022  28.457   2.576
77954W        W50379  42.555   8.343  14.946
77955W        W50380   4.940  26.676   3.766
77956W        W50381  32.973  24.640   4.487
77957W        W50382   2.557  18.268   1.245
77958W        W50383  16.137  28.930  14.295
77959W        W50384  43.200  10.378   4.808
77960W        W50385  21.732  20.094   4.250
77961W        W50386  20.912  38.078   3.749
77962W        W50387  25.556   3.085  11.470
77963W        W50388  21.660  10.582  14.043
77964W        W50389  44.802  25.393  14.840
77965W        W50390  32.152   1.929   0.829
77966W        W50391  42.245  40.604   3.409
77967W        W50392   6.270  40.341  14.043
77968W        W50393   9.380  44.806   2.842
77969W        W50394  40.198  28.749   4.840
77970W        W50395  37.641  26.171   3.915
77971W        W50396  43.965  19.105  12.396
77972W        W50397  33.347  38.572  13.099
77973W        W50398  36.638   7.926  11.282
77974W        W50399  37.056  32.709   2.219
77975W        W50400  25.777   9.413  14.452
77976W        W50401  10.807  38.837  10.958
77977W        W50402  22.939  42.843  10.414
77978W        W50403  44.876  23.599   1.188
77979W        W50404  36.880   6.372   1.222
77980W        W50405   1.651  34.442  11.052
77981W        W50406  14.049   4.750  10.782
77982W        W50407  20.202  22.136   1.150
77983W        W50408  22.677   7.583  11.631
77984W        W50409  35.059  23.755  14.077
77985W        W50410  26.001  24.576  13.471
77986W        W50411  23.802  35.488   3.225
77987W        W50412  26.072  13.773   2.300
77988W        W50413  36.962  40.511  10.712
77989W        W50414   2.784   5.901   2.437
77990W        W50415  44.329   2.445   1.364
77991W        W50416   6.915   0.500   4.677
77992W        W50417  16.735  33.794  11.635
77993W        W50418  11.617   8.999  10.673
77994W        W50419  15.424  37.971  13.087
77995W        W50420   9.779  41.798  12.501
77996W        W50421  21.539  27.397   3.975
77997W        W50422  36.726   1.545   3.772
77998W        W50423  32.868   2.315   1.195
77999W        W50424   8.438   7.633  10.665
78000W        W50425  41.418   6.788   3.374
78001W        W50426  11.880  17.761  13.135
78002W        W50427  23.651  33.390  14.196
78003W        W50428   8.852  38.358   2.630
78004W        W50429  31.609  21.211   1.122
78005W        W50430  20.270  29.343   0.658
78006W        W50431   7.182   8.103  11.025
78007W        W50432  34.999  25.388   4.171
78008W        W50433  14.538  20.019   3.259
78009W        W50434   8.288  15.149  14.847
78010W        W50435  23.111  14.786   0.828
78011W        W50436  23.842  17.707   4.632
78012W        W50437   0.499  15.295  13.331
78013W        W50438  13.303   1.248   0.515
78014W        W50439  27.966  44.187  13.924
78015W        W50440  19.680   9.415  10.621
78016W        W50441  14.366  15.598  11.877
78017W        W50442  20.210   0.779   3.123
78018W        W50443   8.823  36.277   3.170
78019W        W50444  29.950  31.453  13.001
78020W        W50445   3.859  31.985   4.933
78021W        W50446   6.749  23.414   1.083
78022W        W50447   1.621   9.781  13.360
78023W        W50448  11.324   9.403   4.549
78024W        W50449  22.792  39.573  13.474
78025W        W50450   4.839  32.940  13.834
78026W        W50451  37.307   0.853  14.785
78027W        W50452  37.987  39.398  12.956
78028W        W50453  43.383  14.645   3.262
78029W        W50454  24.253   3.654   1.785
78030W        W50455  40.567   7.137   2.240
78031W        W50456   6.141  43.523  14.232
78032W        W50457  22.574  38.021  13.710
78033W        W50458  22.254  31.779  12.971
78034W        W50459   9.241   1.850  10.179
78035W        W50460  11.810   2.444   3.260
78036W        W50461  21.123  37.647   1.642
78037W        W50462  19.943  22.993  14.240
78038W        W50463  24.329   4.510  10.619
78039W        W50464  25.988  28.663  13.485
78040W        W50465  43.984  13.319   3.129
78041W        W50466  38.119  14.400  13.867
78042W        W50467  21.713  15.165   0.740
78043W        W50468   6.766  20.451  11.599
78044W        W50469  12.265  11.331   4.665
78045W        W50470  10.594  23.703   0.789
78046W        W50471  37.551  23.265  14.409
78047W        W50472  27.280  12.896  11.129
78048W        W50473  16.799  38.144  12.871
78049W        W50474   6.131  29.900  10.870
78050W        W50475  12.239  15.081   2.877
78051W        W50476  40.292  22.279   2.746
78052W        W50477  28.278  14.144   1.001
78053W        W50478   2.662  22.907   0.909
78054W        W50479  39.704  12.776  13.269
78055W        W50480  31.034  15.081  11.770
78056W        W50481  43.767  38.659  13.972
78057W        W50482  38.755   1.156   1.777
78058W        W50483  42.878  40.924  12.590
78059W        W50484   0.085  31.102  12.144
78060W        W50485  38.600  31.659   3.708
78061W        W50486  28.859   6.149   2.747
78062W        W50487  30.645   5.597   2.670
78063W        W50488  30.436  25.531  14.732
78064W        W50489  24.453  37.066   4.086
78065W        W50490  12.045   3.219  13.311
78066W        W50491   0.923   1.152   2.169
78067W        W50492  12.084   2.301  10.067
78068W        W50493  21.974   3.659   2.144
78069W        W50494  37.532  14.631  10.201
78070W        W50495  39.668  13.620  14.436
78071W        W50496  22.515  11.211  13.922
78072W        W50497  39.873   0.229   2.869
78073W        W50498  25.046  25.379  11.045
78074W        W50499  22.061  16.179  11.510
78075W        W50500  24.469  22.105   1.502
78076W        W50501  29.403  38.945   1.239
78077W        W50502  11.357  44.061  12.863
78078W        W50503   0.685  39.047   3.346
78079W        W50504  11.309  20.295  10.578
78080W        W50505  24.333  27.098  13.225
78081W        W50506  23.070  28.919  12.934
78082W        W50507  30.655  16.369   1.432
78083W        W50508  19.636  44.647  10.595
78084W        W50509  38.746  17.005   4.485
78085W        W50510  18.764  26.539   3.063
78086W        W50511  18.607  41.908  14.413
78087W        W50512  40.828  17.705   3.289
78088W        W50513  26.204  22.338   4.248
78089W        W50514  29.963   3.975   3.125
78090W        W50515   1.454  17.268  12.961
78091W        W50516   7.308  17.738  13.465
78092W        W50517   0.529  43.250   2.185
78093W        W50518  29.114   9.752   5.001
78094W        W50519  30.707   9.790  12.200
78095W        W50520  19.197  44.869   1.311
78096W        W50521  18.493  35.513   1.258
78097W        W50522  15.880   8.886  12.705
78098W        W50523  13.088  10.773  12.854
78099W        W50524  25.143  25.560  12.304
78100W        W50525  11.759   6.162   3.655
78101W        W50526  33.666  29.520  11.054
78102W        W50527  20.790   0.748   3.920
78103W        W50528  19.620  17.014   3.854
78104W        W50529  10.394  32.468   4.275
78105W        W50530  19.600  31.422   1.354
78106W        W50531  32.065   3.720   5.097
78107W        W50532  20.710  23.566  11.152
78108W        W50533  35.829   1.868  11.633
78109W        W50534  42.859  11.499  10.478
78110W        W50535  18.213  41.785   2.721
78111W        W50536  16.101  20.146   1.770
78112W        W50537   6.374  17.326  10.969
78113W        W50538  41.308  28.078  14.466
78114W        W50539  19.271  32.837   2.513
78115W        W50540  14.668  19.391   2.655
78116W        W50541  24.268   9.588   4.757
78117W        W50542  27.652  42.806  14.561
78118W        W50543  16.109  35.283   1.290
78119W        W50544  32.239  12.064   3.681
78120W        W50545  25.739  40.882  12.418
78121W        W50546  18.723   6.827  10.627
78122W        W50547  23.115  17.830  11.038
78123W        W50548  16.559  28.520   0.932
78124W        W50549  39.523  44.837   2.798
78125W        W50550  14.335   1.757  14.284
78126W        W50551  44.376  17.817  12.851
78127W        W50552  39.100   1.304  14.325
78128W        W50553  25.364  30.577  14.204
78129W        W50554  40.768  24.600  14.449
78130W        W50555  17.569  21.235  13.249
78131W        W50556  17.803  31.980  14.079
78132W        W50557  41.303  19.795  10.364
78133W        W50558  36.416  43.435  13.039
78134W        W50559  35.387  43.554  10.800
78135W        W50560  21.144  42.502  10.549
78136W        W50561  18.088   8.365   1.735
78137W        W50562  35.281  13.308  12.031
78138W        W50563  24.820   8.662  11.128
78139W        W50564  15.932   7.684   2.509
78140W        W50565   2.425  27.034   4.322
78141W        W50566  26.001  31.835   4.236
78142W        W50567  25.873  26.366   1.994
78143W        W50568  13.694  22.243   1.311
78144W        W50569   2.780  43.586  11.045
78145W        W50570  17.777  44.499  14.394
78146W        W50571  27.033   2.840  14.744
78147W        W50572  28.187  15.980  10.052
78148W        W50573  37.545   7.802   4.010
78149W        W50574  36.625   5.763  13.432
78150W        W50575  41.559  41.748  10.679
78151W        W50576  29.987  38.443   1.465
78152W        W50577  41.295  12.743   0.925
78153W        W50578  10.112  37.056   1.496
78154W        W50579  35.470  34.080  12.424
78155W        W50580  25.288  23.088  11.511
78156W        W50581   5.393  23.132  11.951
78157W        W50582  30.734  36.588  10.783
78158W        W50583   1.241  19.181   3.065
78159W        W50584  27.787  31.797   9.402
78160W        W50585  31.081  32.937  14.618
78161W        W50586  37.464  17.293   0.761
78162W        W50587  31.921   1.126  14.335
78163W        W50588   1.800  23.159  14.388
78164W        W50589  13.310   3.282  11.180
78165W        W50590  11.324  29.161   0.209
78166W        W50591  32.018   9.693   1.702
78167W        W50592  18.491  40.362  12.911
78168W        W50593  13.728   4.756  10.376
78169W        W50594  19.561  20.077  13.976
78170W        W50595  34.417   0.362   2.738
78171W        W50596   7.395  20.648  14.971
78172W        W50597  43.609  31.482  13.595
78173W        W50598  41.930  10.843  11.898
78174W        W50599  38.780  13.337  12.301
78175W        W50600  24.972  24.395  13.473
78176W        W50601  35.269   8.512  10.169
78177W        W50602  10.869  38.994   3.542
78178W        W50603  30.809  44.183  11.625
78179W        W50604   6.743   2.730   3.678
78180W        W50605  16.084  10.970   4.274
78181W        W50606  30.698   3.120   4.940
78182W        W50607   1.309  36.473   2.823
78183W        W50608  31.116  23.652  11.855
78184W        W50609  41.895  14.126   0.974
78185W        W50610   9.641   3.289  10.950
78186W        W50611   4.708  27.646   2.927
78187W        W50612  38.379  31.451  13.194
78188W        W50613   7.418  39.915   2.264
78189W        W50614   9.822  41.881   5.008
78190W        W50615  17.645  34.917   1.034
78191W        W50616  10.746   7.184   2.359
78192W        W50617  15.141  14.248   0.673
78193W        W50618   0.453   9.875  12.588
78194W        W50619  25.439  27.636   2.080
78195W        W50620  15.909  24.000   1.379
78196W        W50621   7.488  44.341  14.390
78197W        W50622  22.143   3.218  13.415
78198W        W50623   2.910  26.090  13.896
78199W        W50624  14.316  36.668   4.702
78200W        W50625  33.344  12.823   2.277
78201W        W50626  41.400   3.640  14.962
78202W        W50627  15.860  19.220   4.440
78203W        W50628   2.656  23.139  11.606
78204W        W50629   7.393   8.914  14.898
78205W        W50630  18.657   6.943   1.389
78206W        W50631   4.828  32.489  12.652
78207W        W50632  16.621  23.659   2.714
78208W        W50633  44.700  42.568  13.954
78209W        W50634  21.113  22.295   2.145
78210W        W50635  41.850   7.740   2.153
78211W        W50636  13.329   1.270  13.045
78212W        W50637  34.258  12.788  11.138
78213W        W50638   9.830  11.635   3.331
78214W        W50639  22.013  35.836   4.215
78215W        W50640  32.361  14.131  12.541
78216W        W50641   8.937  35.486   0.878
78217W        W50642   2.757   7.743  10.743
78218W        W50643  39.012  35.840   2.282
78219W        W50644  38.073   7.243  11.998
78220W        W50645   4.841  30.021   4.202
78221W        W50646  13.905  29.671   4.210
78222W        W50647   9.038   4.235  14.535
78223W        W50648  34.897  10.091   0.693
78224W        W50649   7.598  29.085   3.770
78225W        W50650  17.665  17.986   0.220
78226W        W50651   0.022  36.600   0.218
78227W        W50652  20.981  26.468   4.607
78228W        W50653   0.591  26.121   0.532
78229W        W50654  27.087   8.160  13.504
78230W        W50655  14.236   7.806  13.287
78231W        W50656  34.627  30.642  14.379
78232W        W50657  13.682  41.380   0.357
78233W        W50658  17.181   0.357   9.949
78234W        W50659  34.936  30.314  13.072
78235W        W50660  21.159   0.782  10.494
78236W        W50661   2.993  12.478  11.137
78237W        W50662  16.339  35.868  11.606
78238W        W50663   3.305   8.219  13.092
78239W        W50664  31.524  29.689   4.617
78240W        W50665   0.414  10.580   2.297
78241W        W50666  14.050  23.151   0.530
78242W        W50667  30.872  25.699  14.327
78243W        W50668  38.530  39.776  10.966
78244W        W50669  42.838  12.655   4.161
78245W        W50670   4.327  30.656  14.983
78246W        W50671  20.262   2.833   0.490
78247W        W50672  32.489  39.008   1.420
78248W        W50673   3.295  22.606  14.540
78249W        W50674   0.969  11.317   3.761
78250W        W50675   0.608  20.649   3.416
78251W        W50676  33.343  11.740  10.052
78252W        W50677  42.707  23.435   0.417
78253W        W50678  18.038  39.381   0.875
78254W        W50679  19.270  10.251   1.453
78255W        W50680  20.640   2.679   2.704
78256W        W50681  36.286  28.035   1.841
78257W        W50682  22.446   0.637   3.287
78258W        W50683  16.271   0.427   0.345
78259W        W50684  30.436  10.311  13.914
78260W        W50685  32.643   0.616  14.544
78261W        W50686  31.950   1.925   0.330
78262W        W50687  43.713  23.688   0.839
78263W        W50688   0.116  21.803  12.962
78264W        W50689   6.400  17.841  14.782
78265W        W50690  44.397  23.746   3.891
78266W        W50691  10.253  30.452  10.436
78267W        W50692  21.221   5.006  11.983
78268W        W50693  29.976  23.142   0.028
78269W        W50694  32.297  32.515  13.800
78270W        W50695   5.621  15.669  14.817
78271W        W50696  22.627   1.527  12.856
78272W        W50697  13.765  24.641   0.009
78273W        W50698  10.237  24.251  13.211
78274W        W50699   9.580  32.040   3.188
78275W        W50700  16.808  10.210   2.828
78276W        W50701  11.857  22.142   0.372
78277W        W50702   3.621   6.022  10.156
78278W        W50703  10.100  15.407   0.261
78279W        W50704   6.465  34.235  13.131
78280W        W50705  15.748  19.685   4.668
78281W        W50706  36.794  33.865  12.626
78282W        W50707   6.759  23.697  11.981
78283W        W50708  18.156  36.570  14.240
78284W        W50709  15.175  33.146  14.487
78285W        W50710  32.967  34.931  12.510
78286W        W50711  25.530  20.587  10.378
78287W        W50712  12.615  22.176  14.787
78288W        W50713  11.067  42.982   2.271
78289W        W50714  22.542  15.048   2.745
78290W        W50715  27.516   4.153   3.534
78291W        W50716   8.903  44.382   4.599
78292W        W50717  40.788  13.687   3.303
78293W        W50718  42.367  27.727  13.449
78294W        W50719  35.956  12.780  13.668
78295W        W50720  22.304  13.384   3.309
78296W        W50721   8.288  42.133  11.925
78297W        W50722  37.940  25.619   1.906
78298W        W50723  37.603  10.647   2.293
78299W        W50724  14.554  26.466   0.668
78300W        W50725  28.554  21.851   0.944
78301W        W50726  11.640  38.369   1.932
78302W        W50727  34.438   3.962  11.122
78303W        W50728  18.324  27.433  13.030
78304W        W50729  43.071   5.838  11.501
78305W        W50730  26.264  37.082  10.728
78306W        W50731  35.930  18.777   1.840
78307W        W50732  27.438  34.834   4.412
78308W        W50733  29.476   9.766  14.550
78309W        W50734  23.631  37.003  10.686
78310W        W50735  25.786   4.862  13.992
78311W        W50736   0.167  37.547  10.991
78312W        W50737  38.459  21.919   0.658
78313W        W50738  38.740  41.862  14.920
78314W        W50739  14.372  20.450  12.609
78315W        W50740  27.607  38.284   2.672
78316W        W50741  31.868  42.813   1.400
78317W        W50742   1.998  37.071  12.454
78318W        W50743  22.810  19.356  13.767
78319W        W50744   0.337  18.788  11.605
78320W        W50745  30.456   4.216   3.032
78321W        W50746  17.291  24.081   0.588
78322W        W50747   0.300  44.743  12.790
78323W        W50748  10.635  38.899  14.787
78324W        W50749  20.718  13.186   3.351
78325W        W50750  14.348  43.854   0.718
78326W        W50751  38.930   5.800   2.828
78327W        W50752  33.946  37.980   2.613
78328W        W50753  29.252  13.812  13.844
78329W        W50754  41.412  43.444  12.794
78330W        W50755  34.637  33.724   1.886
78331W        W50756   1.842  29.375   3.585
78332W        W50757  13.222  40.034  13.941
78333W        W50758   1.298   4.304   0.212
78334W        W50759  26.987  17.274   3.354
78335W        W50760   0.212  24.839  13.441
78336W        W50761  22.673  30.848  11.128
78337W        W50762  38.305  41.743  11.136
78338W        W50763  43.789  29.426  12.552
78339W        W50764  18.634   8.222  11.856
78340W        W50765  25.474  33.219  11.066
78341W        W50766  37.520   3.965  11.157
78342W        W50767   5.151  20.448   1.922
78343W        W50768  30.834  20.779   1.307
78344W        W50769  10.186  43.490   1.435
78345W        W50770  42.763  22.485  12.067
78346W        W50771  40.662   5.782   1.779
78347W        W50772  33.481  24.655   4.590
78348W        W50773   4.677  11.793  13.332
78349W        W50774  39.047  18.210   2.279
78350W        W50775  11.123  40.452   4.969
78351W        W50776   6.048  34.540   3.170
78352W        W50777  13.295  31.866  10.419
78353W        W50778  36.540   6.683  14.362
78354W        W50779  43.372  39.151  11.268
78355W        W50780  20.758   3.388  12.491
78356W        W50781  39.339  25.156   0.289
78357W        W50782  30.336  28.474  14.413
78358W        W50783  11.758  41.884   4.586
78359W        W50784  14.395  36.945  14.215
78360W        W50785  22.899   9.114   5.004
78361W        W50786  33.174  21.031  12.886
78362W        W50787  29.531  41.873   2.159
78363W        W50788  36.284   3.235  10.673
78364W        W50789   8.734  21.058   4.930
78365W        W50790  12.827  31.855   0.366
78366W        W50791   3.285  16.671  13.592
78367W        W50792   0.431  19.247  13.295
78368W        W50793  22.191   3.408  14.813
78369W        W50794  10.231   6.383  11.018
78370W        W50795  17.162  17.193   4.603
78371W        W50796  39.393  44.356  13.688
78372W        W50797  23.445  12.592   2.282
78373W        W50798  27.689  42.182   4.542
78374W        W50799   8.880   7.880   0.980
78375W        W50800   7.631  13.792   4.201
78376W        W50801  21.245  44.569   0.270
78377W        W50802  17.779  20.843  12.298
78378W        W50803   7.469   5.039   4.189
78379W        W50804   6.089  44.025   0.026
78380W        W50805  20.720  35.874   2.850
78381W        W50806  29.481  21.529   0.439
78382W        W50807  32.370  18.747  14.978
78383W        W50808  42.488  25.139  10.639
78384W        W50809  43.031  31.638   3.929
78385W        W50810   6.787  41.083  14.564
78386W        W50811  34.338  33.596  13.591
78387W        W50812   0.726  18.222  12.431
78388W        W50813  10.646  22.773   4.585
78389W        W50814  24.639  21.790   3.289
78390W        W50815  17.739  40.029  12.062
78391W        W50816   6.910  14.075  11.671
78392W        W50817  29.466  13.786   1.895
78393W        W50818   2.802  14.663  11.733
78394W        W50819   4.825  31.731   0.067
78395W        W50820   7.861  31.411  11.216
78396W        W50821  12.025  19.319  13.406
78397W        W50822   3.742  30.440   2.794
78398W        W50823   4.629   9.738   1.802
78399W        W50824   4.194  35.919  11.253
78400W        W50825  32.893  30.110   1.602
78401W        W50826  35.037  22.918   4.249
78402W        W50827  42.437  11.813  14.477
78403W        W50828  15.983   2.715  12.930
78404W        W50829   8.896  33.174   3.260
78405W        W50830  37.103   7.109   4.772
78406W        W50831  26.671  17.844   5.108
78407W        W50832  39.025   0.804  12.125
78408W        W50833  28.664  24.686   0.386
78409W        W50834  35.132  16.132   1.854
78410W        W50835   7.192  23.735   1.925
78411W        W50836   1.962   0.737   3.336
78412W        W50837  20.042   3.675   0.458
78413W        W50838   0.550  10.569   0.005
78414W        W50839  36.427   9.074   1.719
78415W        W50840  15.857  20.825  12.531
78416W        W50841   8.255  29.953  11.408
78417W        W50842  39.272  27.141   3.210
78418W        W50843  38.854  19.953   0.716
78419W        W50844  31.627   2.969   1.681
78420W        W50845  21.565  29.966  12.905
78421W        W50846  19.814  21.900   1.892
78422W        W50847  10.606   7.383  12.981
78423W        W50848  22.609  35.845  13.563
78424W        W50849  13.648  41.284   0.992
78425W        W50850  15.410  18.304  14.874
78426W        W50851   6.525  33.124  13.845
78427W        W50852  41.510  40.786  10.998
78428W        W50853  26.549   4.023   1.271
78429W        W50854   7.409  39.578  11.108
78430W        W50855  40.935  41.393  12.490
78431W        W50856  16.703   6.743   3.737
78432W        W50857   6.411   9.650  12.435
78433W        W50858  18.208  20.685  12.041
78434W        W50859  14.239  12.260   1.905
78435W        W50860  13.565  33.207  12.056
78436W        W50861  42.294  32.925  14.809
78437W        W50862   0.917  10.810  13.511
78438W        W50863   7.393  32.081   0.874
78439W        W50864  34.784  16.189   4.143
78440W        W50865  19.573  36.952   1.419
78441W        W50866   0.495  17.292   4.110
78442W        W50867  11.940  27.727  11.108
78443W        W50868  37.496  43.057  12.381
78444W        W50869  37.333  36.141  12.391
78445W        W50870  22.566  34.578  11.545
78446W        W50871  31.051   3.383   3.115
78447W        W50872  12.812  25.522   1.698
78448W        W50873  34.531  16.438   0.989
78449W        W50874   8.892  21.767  13.469
78450W        W50875  13.107  28.821   3.132
78451W        W50876  32.100  15.594   1.956
78452W        W50877   7.242  29.716  11.147
78453W        W50878  12.867  24.467   2.849
78454W        W50879  14.876  30.580   3.668
78455W        W50880   0.368  20.008   2.302
78456W        W50881  17.617  21.729  13.090
78457W        W50882  28.555   6.326  14.126
78458W        W50883  32.822  12.256  13.254
78459W        W50884  15.057   2.334  14.435
78460W        W50885  11.661   5.423  11.035
78461W        W50886  35.453  10.225   1.955
78462W        W50887  25.763   0.946  10.713
78463W        W50888   7.801  17.959   1.890
78464W        W50889  27.885  27.336  10.119
78465W        W50890  10.287  35.660   4.696
78466W        W50891  40.514  29.928  14.364
78467W        W50892  32.662  12.356  11.581
78468W        W50893  11.904  18.617   2.368
78469W        W50894  13.535  10.625  12.365
78470W        W50895   3.862  23.976   4.209
78471W        W50896  19.195  14.277   2.331
78472W        W50897  21.512  15.192  10.573
78473W        W50898  29.794  34.822   3.697
78474W        W50899   7.947   8.765   1.826
78475W        W50900  31.523  41.254   3.603
78476W        W50901  35.693  11.919   3.687
78477W        W50902   9.946  38.424  10.598
78478W        W50903  44.193  29.637  13.392
78479W        W50904  34.220  18.692   3.172
78480W        W50905  21.533  32.005   5.188
78481W        W50906  18.645  27.162   1.841
78482W        W50907   0.243  24.099  12.664
78483W        W50908  40.856  27.575  10.880
78484W        W50909  41.470   4.841   0.068
78485W        W50910  33.815  20.112  14.928
78486W        W50911  32.604  40.436   4.129
78487W        W50912  33.903  19.201  13.342
78488W        W50913   5.249  13.731  12.494
78489W        W50914  22.540  34.520  10.652
78490W        W50915   1.179  44.089   1.836
78491W        W50916   9.393  22.495  14.893
78492W        W50917  12.786  11.651   2.286
78493W        W50918  35.188  13.139  11.152
78494W        W50919  28.832  12.802   3.110
78495W        W50920  34.315  43.027  14.494
78496W        W50921  29.074  38.534   0.820
78497W        W50922  15.709  43.825   3.071
78498W        W50923  25.936   5.295   1.509
78499W        W50924  22.619  24.473  11.261
78500W        W50925  32.377  38.060   1.475
78501W        W50926  42.995  24.529  11.530
78502W        W50927  27.027  34.026   3.862
78503W        W50928  35.302  36.425   3.557
78504W        W50929  25.036  22.267  14.809
78505W        W50930  20.635  27.961   0.460
78506W        W50931  17.643   8.958  13.555
78507W        W50932  24.995  26.612  12.861
78508W        W50933  30.914  21.969   3.858
78509W        W50934   9.745   8.854  10.553
78510W        W50935  37.951  25.069  12.493
78511W        W50936  39.791  36.964  14.540
78512W        W50937  22.913  23.898  14.432
78513W        W50938  35.021  36.996  10.799
78514W        W50939  23.975  36.094   1.269
78515W        W50940  37.753  39.541  13.417
78516W        W50941  24.145  25.700   0.378
78517W        W50942  15.233  40.616  12.592
78518W        W50943   0.107   0.542   3.154
78519W        W50944  11.718  31.327   4.037
78520W        W50945  32.678  44.334  12.424
78521W        W50946   5.473  28.069   0.388
78522W        W50947  30.321  23.683  14.395
78523W        W50948  42.139   4.231  11.081
78524W        W50949  43.894  12.408  12.482
78525W        W50950  10.247   3.303   2.268
78526W        W50951  37.010  41.431   1.356
78527W        W50952  13.597  22.937  10.997
78528W        W50953  20.127   3.274   4.165
78529W        W50954   6.689  25.513  14.483
78530W        W50955  37.082   2.293   0.194
78531W        W50956  29.679  36.121   3.240
78532W        W50957  16.367  42.969  10.582
78533W        W50958  14.382   1.909   4.210
78534W        W50959  30.350  35.765  13.899
78535W        W50960  16.679  39.306   2.297
78536W        W50961  13.751  28.133  12.495
78537W        W50962  39.557   5.437   2.353
78538W        W50963   5.274   4.197  10.675
78539W        W50964  13.634  44.079  12.764
78540W        W50965  33.817   7.673  14.982
78541W        W50966  11.097  22.743  13.798
78542W        W50967   4.807   5.431   4.277
78543W        W50968  20.145  16.290  13.592
78544W        W50969   2.185   9.206  14.120
78545W        W50970  19.216  23.558  13.478
78546W        W50971  19.855   8.290  11.223
78547W        W50972  17.993  19.218   3.761
78548W        W50973  43.040  43.673   1.771
78549W        W50974  32.099  10.592   3.784
78550W        W50975  23.715  12.723   3.525
78551W        W50976   4.097  29.452  14.524
78552W        W50977  35.099   9.801  14.258
78553W        W50978  15.800  43.404   4.787
78554W        W50979  37.444  26.552   5.136
78555W        W50980  18.684  16.816  10.706
78556W        W50981  34.047  29.682  12.597
78557W        W50982  26.394  16.629  13.912
78558W        W50983   8.183  23.900   9.711
78559W        W50984  34.098  35.802   1.970
78560W        W50985  15.531  29.342   1.220
78561W        W50986  10.429  37.898   2.537
78562W        W50987  21.126  18.003  13.344
78563W        W50988  34.930  37.354   3.728
78564W        W50989  25.051   8.965  12.955
78565W        W50990  33.053   9.392   0.429
78566W        W50991   2.537  13.544  10.961
78567W        W50992  16.684  11.981   4.673
78568W        W50993   6.590  37.193   3.447
78569W        W50994  20.198   2.777  11.615
78570W        W50995  40.471  33.148   4.961
78571W        W50996   5.687  36.347   2.127
78572W        W50997  16.095  23.918   1.856
78573W        W50998  35.884  32.759   3.301
78574W        W50999  16.323   8.649  11.877
78575W        W51000  31.854  31.438   3.964
78576W        W51001  20.534  26.497   0.305
78577W        W51002  21.797  15.088   2.418
78578W        W51003  31.534  31.987  12.922
78579W        W51004  14.019  35.963  13.535
78580W        W51005  27.145  31.380  14.784
78581W        W51006  44.937   0.981   2.902
78582W        W51007  13.709   8.295   1.025
78583W        W51008  37.928  24.003  11.508
78584W        W51009  16.190   8.351   5.085
78585W        W51010  32.701  39.513   1.328
78586W        W51011  26.513   9.282   0.215
78587W        W51012  38.331   5.698  10.519
78588W        W51013  13.111  30.245  13.017
78589W        W51014  18.093  38.899  10.709
78590W        W51015   3.866  37.354   4.665
78591W        W51016  37.902  10.338  13.358
78592W        W51017  30.529   8.189   0.342
78593W        W51018  43.562  14.741  14.950
78594W        W51019  24.687  25.613  12.969
78595W        W51020  35.144  19.283  11.536
78596W        W51021  14.354   9.887  12.046
78597W        W51022  40.876  31.621   3.233
78598W        W51023  39.668   3.754   1.013
78599W        W51024  21.283  32.388  10.663
78600W        W51025  23.577  22.337  14.895
78601W        W51026  39.461  22.095  13.342
78602W        W51027  43.254   4.867   4.270
78603W        W51028  22.516  23.501   5.117
78604W        W51029  43.287  28.552   4.217
78605W        W51030  41.240  15.610  13.464
78606W        W51031   9.584  20.044   2.652
78607W        W51032   7.894  25.711   3.332
78608W        W51033   8.250  42.956   1.360
78609W        W51034  28.882  29.554  12.587
78610W        W51035  21.574  12.110   1.367
78611W        W51036  32.263  15.100   4.528
78612W        W51037  37.385  24.401   4.281
78613W        W51038  44.501  25.292   3.746
78614W        W51039  20.512   8.779  12.537
78615W        W51040   6.913  19.109  13.398
78616W        W51041  34.195  19.330   2.742
78617W        W51042  26.138  23.029  12.754
78618W        W51043  32.627  22.639  14.604
78619W        W51044  16.115   8.132   2.885
78620W        W51045  24.182  43.937   2.689
78621W        W51046   0.126   0.914   4.544
78622W        W51047   0.496   0.207   4.672
78623W        W51048   2.010  40.702   3.277
78624W        W51049  33.532  28.356  11.336
78625W        W51050  27.218   7.415  11.398
78626W        W51051  10.848  27.575   0.910
78627W        W51052  43.928  15.614   4.790
78628W        W51053  27.396  41.254   4.683
78629W        W51054  44.595  35.331   4.572
78630W        W51055  17.016  33.980  14.978
78631W        W51056  39.529  11.006   4.528
78632W        W51057  30.017  20.166   3.215
78633W        W51058  11.110  25.666   0.523
78634W        W51059   5.805  24.514   3.100
78635W        W51060   9.454  17.695   2.805
78636W        W51061   8.729  29.141   0.295
78637W        W51062   8.215  29.580   1.387
78638W        W51063   2.889  21.685   1.677
78639W        W51064  29.602   8.691   4.528
78640W        W51065  37.958   4.782   4.028
78641W        W51066  23.264  16.771  14.991
78642W        W51067  24.210   0.398   4.396
78643W        W51068  10.437  36.508   3.582
78644W        W51069  22.225  20.696  14.237
78645W        W51070   3.454  14.706  12.887
78646W        W51071  19.678   8.424  13.799
78647W        W51072   6.727   2.003  12.544
78648W        W51073   6.032   5.594  13.913
78649W        W51074  25.330  11.893   0.178
78650W        W51075   0.471  26.654  13.957
78651W        W51076   0.049  21.584   1.282
78652W        W51077  12.920  30.479   0.927
78653W        W51078  39.460   1.773   0.286
78654W        W51079  19.327  14.345  14.411
78655W        W51080  17.179   3.386  10.864
78656W        W51081   2.516  30.100   1.750
78657W        W51082   6.197  15.699  13.487
78658W        W51083   0.430  33.099  13.004
78659W        W51084  12.006  19.679   3.077
78660W        W51085  37.490  13.596   2.231
78661W        W51086  41.448  40.676  13.791
78662W        W51087  38.395  25.993  14.327
78663W        W51088  12.297  10.382  10.356
78664W        W51089  28.946   9.854  10.743
78665W        W51090  41.080  11.532   2.013
78666W        W51091  29.115  28.679   1.227
78667W        W51092   9.296  17.304  10.134
78668W        W51093  11.811  11.251  12.737
78669W        W51094  37.272  39.997   2.639
78670W        W51095  18.769  41.604  14.953
78671W        W51096  21.861  36.375   2.888
78672W        W51097  10.967  19.307  13.497
78673W        W51098  23.336  10.842  12.576
78674W        W51099  16.823  23.486  10.726
78675W        W51100   4.717   2.392   0.276
78676W        W51101  17.613  34.537   0.273
78677W        W51102   4.037   6.202  12.366
78678W        W51103  36.994   6.577  12.452
78679W        W51104  26.022  44.982  10.907
78680W        W51105   5.443  29.493   2.859
78681W        W51106   4.977  39.948   0.910
78682W        W51107   0.955   5.922   4.613
78683W        W51108  35.586  37.326  13.487
78684W        W51109   8.098  25.549  14.511
78685W        W51110  14.328   1.873   3.678
78686W        W51111   3.236  23.147  14.721
78687W        W51112  14.040   5.698  14.504
78688W        W51113  40.297   1.260  11.105
78689W        W51114  42.598   1.276   3.604
78690W        W51115  11.188  39.731  14.684
78691W        W51116  18.129  25.257  11.915
78692W        W51117  38.378  24.793  12.606
78693W        W51118  30.058   9.338   3.075
78694W        W51119  12.159  22.185   1.818
78695W        W51120  44.420   6.393  10.610
78696W        W51121  26.878  32.059   0.202
78697W        W51122   8.119  41.375   4.966
78698W        W51123  18.498  12.898  14.861
78699W        W51124  21.036  29.027   2.773
78700W        W51125   9.775  39.944   1.868
78701W        W51126  33.173  34.859   1.226
78702W        W51127  33.176  44.334  12.484
78703W        W51128  15.975   0.458  14.895
78704W        W51129  31.654  41.078  12.068
78705W        W51130  37.943   9.204   4.999
78706W        W51131   3.304  38.949   1.774
78707W        W51132  25.533  16.972   2.234
78708W        W51133  12.573   2.161   2.241
78709W        W51134  21.975  15.199  14.184
78710W        W51135  39.802   6.648   1.769
78711W        W51136  31.622   9.396   1.491
78712W        W51137   8.122   3.722   3.783
78713W        W51138   2.900  25.801  13.477
78714W        W51139  29.607   8.250  14.010
78715W        W51140  40.026  36.345   3.305
78716W        W51141   4.209   1.211   4.602
78717W        W51142  10.793  38.477  11.670
78718W        W51143  40.315  42.923  14.459
78719W        W51144  26.046  17.546  12.773
78720W        W51145   2.034  33.873   1.414
78721W        W51146  38.341  11.381   0.875
78722W        W51147  21.610  37.949   0.619
78723W        W51148  20.864  41.799  12.478
78724W        W51149  10.131   4.207   4.993
78725W        W51150   3.515  40.286  10.716
78726W        W51151  43.765  33.409  12.825
78727W        W51152  33.509  38.479  10.701
78728W        W51153  18.233  16.601  12.550
78729W        W51154  40.376  33.025   2.240
78730W        W51155  13.926  20.491   3.708
78731W        W51156   0.968  17.150   1.864
78732W        W51157   5.908   5.148   1.044
78733W        W51158  34.920  30.096   3.705
78734W        W51159   4.696   2.940  12.154
78735W        W51160   7.948  44.552   4.527
78736W        W51161  25.108  10.225   0.846
78737W        W51162  25.947  13.129  14.956
78738W        W51163  33.687  15.837   3.231
78739W        W51164  28.105  41.297   2.837
78740W        W51165  29.917  36.941   2.657
78741W        W51166   7.188  19.908   1.312
78742W        W51167  23.140   9.409   3.680
78743W        W51168  29.390   8.340  14.467
78744W        W51169  38.434  19.111   1.446
78745W        W51170  41.820  12.548  13.472
78746W        W51171  43.459  30.169   2.204
78747W        W51172  26.753   2.920  13.522
78748W        W51173  10.326  25.128  10.779
78749W        W51174  12.661  30.555   4.795
78750W        W51175  44.546  16.053  14.547
78751W        W51176  26.093  28.391  11.183
78752W        W51177  29.138  26.701  14.513
78753W        W51178  42.457  19.085  10.924
78754W        W51179  24.640  41.268  11.991
78755W        W51180  17.699   6.135  11.250
78756W        W51181  25.366  23.949   3.866
78757W        W51182  27.538  39.593  13.942
78758W        W51183  23.758  12.784   1.844
78759W        W51184  16.194  39.347  13.084
78760W        W51185  40.999  44.362  10.820
78761W        W51186   3.961  36.151  14.499
78762W        W51187  30.460  19.023   4.531
78763W        W51188  34.985  32.498   0.916
78764W        W51189  43.056  10.738  11.139
78765W        W51190  27.493  28.944  12.630
78766W        W51191  41.012  40.054   4.140
78767W        W51192  26.399  13.322   0.877
78768W        W51193   9.759   0.426   0.022
78769W        W51194  22.711  41.025   1.649
78770W        W51195  30.096  34.598  13.290
78771W        W51196  18.569  28.092  12.863
78772W        W51197  23.245  33.628  13.960
78773W        W51198  33.987  22.738  11.895
78774W        W51199  29.592  42.439   3.257
78775W        W51200   0.858  22.444   2.647
78776W        W51201  16.014  13.666   4.551
78777W        W51202  16.003  31.847   4.607
78778W        W51203  33.049  31.591   3.386
78779W        W51204  27.888  29.136  11.737
78780W        W51205  37.515  14.809  14.557
78781W        W51206  16.969  41.440   4.596
78782W        W51207  14.506   5.254   1.688
78783W        W51208  32.900   7.402  14.433
78784W        W51209   7.741  44.221  10.773
78785W        W51210  30.613   6.839  13.523
78786W        W51211   6.837  34.895   3.278
78787W        W51212   2.628  24.170  11.551
78788W        W51213  14.289   3.523  10.937
78789W        W51214  15.121  42.060  12.990
78790W        W51215  37.781   9.302   5.782
78791W        W51216  11.255  10.487   2.622
78792W        W51217  35.592  12.065   1.439
78793W        W51218  33.703  22.284   1.482
78794W        W51219   3.557  36.415   3.137
78795W        W51220   0.883  10.847  14.710
78796W        W51221   7.836  43.682  14.070
78797W        W51222  34.567  44.792   4.656
78798W        W51223   9.436  15.808  13.514
78799W        W51224   8.833  12.115  14.726
78800W        W51225  30.575   3.442   1.424
78801W        W51226  35.040  22.713  10.711
78802W        W51227  31.690  28.090   3.060
78803W        W51228  32.988  17.168   0.600
78804W        W51229   2.767  22.417   0.774
78805W        W51230   8.369  26.888  11.945
78806W        W51231  26.477  20.659   1.003
78807W        W51232   6.268   9.912   2.476
78808W        W51233  32.520  41.665   4.996
78809W        W51234   3.467  26.555  14.997
78810W        W51235  40.550  31.283  12.480
78811W        W51236  20.613  34.617   3.216
78812W        W51237  27.959  35.119   3.168
78813W        W51238  18.856   1.825  13.566
78814W        W51239  34.116  41.279  10.695
78815W        W51240  14.759   9.733  12.980
78816W        W51241  21.223   4.493  11.201
78817W        W51242  43.353  10.161  12.427
78818W        W51243   1.425  10.922  13.400
78819W        W51244  25.029  41.755   0.038
78820W        W51245  30.994  23.957   1.806
78821W        W51246   7.581  31.792   1.261
78822W        W51247  35.416  24.607   1.174
78823W        W51248  11.909  23.578   0.951
78824W        W51249  39.285  21.349  13.751
78825W        W51250   7.723  35.593  13.311
78826W        W51251  22.651   1.059  11.046
78827W        W51252  11.790   0.989  13.559
78828W        W51253  44.217  35.499  14.924
78829W        W51254  38.068  16.288  11.526
78830W        W51255  43.644  43.428   3.605
78831W        W51256  36.924  34.896   1.042
78832W        W51257  39.187  13.593   3.337
78833W        W51258   6.069  21.619  12.400
78834W        W51259  29.657  32.193   4.952
78835W        W51260  10.730  42.349  11.201
78836W        W51261  21.036  11.774   1.948
78837W        W51262  28.417   7.325  12.047
78838W        W51263  10.539  42.471  12.576
78839W        W51264  27.623  43.236   4.652
78840W        W51265  28.170  34.553   1.922
78841W        W51266  17.292  21.104  12.101
78842W        W51267  24.711  42.592   4.066
78843W        W51268  40.992  12.367  10.666
78844W        W51269  44.752  23.648  11.060
78845W        W51270  33.490  16.339   4.078
78846W        W51271  33.279  29.852   1.391
78847W        W51272   1.314  24.206  11.172
78848W        W51273   9.917   5.311  10.778
78849W        W51274  42.387  33.783  11.214
78850W        W51275   8.318   5.296  11.135
78851W        W51276  39.917  32.871  12.833
78852W        W51277  39.379  20.064   2.283
78853W        W51278  21.576  29.990   1.218
78854W        W51279  35.195  22.541   2.759
78855W        W51280  19.223  44.234   0.306
78856W        W51281  27.504  34.371   3.337
78857W        W51282   2.798  29.975  14.488
78858W        W51283  32.426  30.459  12.828
78859W        W51284   1.989  34.085   0.881
78860W        W51285   5.801  38.315  10.518
78861W        W51286   3.225   2.907  13.352
78862W        W51287  16.076  41.280  12.990
78863W        W51288  34.596  26.087   2.130
78864W        W51289  27.640   0.309   4.579
78865W        W51290  20.002  12.373  14.858
78866W        W51291   6.979  22.967   0.803
78867W        W51292  33.614   4.002   0.433
78868W        W51293  28.570   8.322   2.365
78869W        W51294  22.658  36.446   3.472
78870W        W51295   9.772  21.721   2.612
78871W        W51296  43.667  10.266  12.945
78872W        W51297  21.302  15.040  13.488
78873W        W51298  40.763   0.461   0.028
78874W        W51299  24.556  43.088  13.455
78875W        W51300   5.200  21.072  11.958
78876W        W51301  29.606  10.787   1.963
78877W        W51302   7.351  36.474  11.776
78878W        W51303  19.152  40.089   3.846
78879W        W51304  28.242  40.704  14.442
78880W        W51305   5.482   1.912   4.625
78881W        W51306  15.371  34.676   0.875
78882W        W51307  44.784  10.206   0.892
78883W        W51308  15.537  24.454  13.481
78884W        W51309  21.107   5.909  12.060
78885W        W51310  43.893  14.782  11.019
78886W        W51311  41.524  44.706  12.060
78887W        W51312   1.786  38.478  14.257
78888W        W51313  33.201  20.195   4.257
78889W        W51314  26.457  27.630   1.193
78890W        W51315  25.884  19.785  13.360
78891W        W51316  44.835  27.100   4.685
78892W        W51317  17.547  39.402  13.080
78893W        W51318  36.858  44.404   1.070
78894W        W51319   3.046  29.985  13.923
78895W        W51320  22.635   9.395  12.972
78896W        W51321  25.004  38.981  10.644
78897W        W51322  28.537  40.333  10.631
78898W        W51323  17.997   9.941   3.070
78899W        W51324  34.090  34.079   0.865
78900W        W51325   3.403   3.756   0.943
78901W        W51326  22.650  13.089   1.398
78902W        W51327  18.284  14.752  14.933
78903W        W51328   3.799  11.826   4.668
78904W        W51329  30.077  26.640  11.821
78905W        W51330  31.951   5.896   3.464
78906W        W51331  38.529  27.946   2.091
78907W        W51332  13.740  33.843  11.045
78908W        W51333  23.723  37.937  12.900
78909W        W51334  20.463   9.594  14.971
78910W        W51335  12.185  21.645  14.054
78911W        W51336  32.628  22.490  14.129
78912W        W51337  28.299  23.953   4.280
78913W        W51338  44.775  33.472  10.575
78914W        W51339  30.833  39.531   0.215
78915W        W51340   5.198  23.054  13.394
78916W        W51341  39.466  10.150   1.721
78917W        W51342  11.762  28.093   1.735
78918W        W51343   4.708   1.861   4.831
78919W        W51344   2.744  26.189   2.237
78920W        W51345  40.241  38.391   0.750
78921W        W51346  29.551   1.833  14.471
78922W        W51347  11.256  22.044   5.665
78923W        W51348   3.671   1.023  11.657
78924W        W51349  20.700  26.646   4.986
78925W        W51350  44.284  33.658  14.387
78926W        W51351  25.041   3.478  13.085
78927W        W51352  21.706   2.422  12.877
78928W        W51353  15.239  17.256   4.124
78929W        W51354   0.910  30.474   3.389
78930W        W51355  20.302  20.277  12.517
78931W        W51356  10.352  16.546  13.526
78932W        W51357  20.909   1.641  10.364
78933W        W51358  27.673   7.477  14.574
78934W        W51359  37.046  38.993   0.911
78935W        W51360  30.692  12.964   0.381
78936W        W51361  29.394  22.745  13.463
78937W        W51362   3.334   3.445  13.891
78938W        W51363  26.125  10.775   0.997
78939W        W51364  35.400  25.528   3.395
78940W        W51365  38.382  16.540  13.459
78941W        W51366  25.666  40.816   0.347
78942W        W51367   3.834  32.192   2.677
78943W        W51368   3.214   9.551   0.632
78944W        W51369  27.485  28.936  14.897
78945W        W51370  20.803  20.751   3.686
78946W        W51371  11.270  16.610   2.297
78947W        W51372   5.819   5.185  14.850
78948W        W51373  12.187   7.333  11.081
78949W        W51374  30.199   5.256   4.877
78950W        W51375  10.554  25.921  10.220
78951W        W51376  10.360   0.565  12.399
78952W        W51377  29.899  21.588  13.927
78953W        W51378  26.644  15.642  14.843
78954W        W51379  40.084  14.069  10.408
78955W        W51380  26.116  36.151   2.359
78956W        W51381  26.523  16.645   1.082
78957W        W51382  13.783  23.736   1.634
78958W        W51383  30.091   0.370   1.264
78959W        W51384   5.478   6.998  10.536
78960W        W51385   6.705  17.535  12.019
78961W        W51386  18.953  20.117   2.584
78962W        W51387   5.386  25.907  11.184
78963W        W51388  30.780   1.508   2.633
78964W        W51389  26.495  40.844   0.496
78965W        W51390  19.285   5.231   2.885
78966W        W51391  25.630  43.370   2.182
78967W        W51392  19.780  30.229  11.618
78968W        W51393  11.293   2.994   2.091
78969W        W51394   8.991  19.327  12.386
78970W        W51395  42.665  36.122   4.291
78971W        W51396  43.363  16.814   1.047
78972W        W51397  29.104  17.341   0.971
78973W        W51398  23.703  33.997   1.918
78974W        W51399  18.138  35.434  10.900
78975W        W51400   5.234  27.709  14.781
78976W        W51401  35.388  26.142  11.549
78977W        W51402  43.151   6.616   4.104
78978W        W51403   6.267  32.712  13.052
78979W        W51404  44.838  22.720  12.407
78980W        W51405   7.282  24.060  11.160
78981W        W51406   9.680   1.164  14.554
78982W        W51407  36.676   0.558   2.891
78983W        W51408  43.088  17.670   0.480
78984W        W51409  18.581  22.215   4.264
78985W        W51410  32.002  38.058   3.095
78986W        W51411  29.613  27.766   4.642
78987W        W51412  11.857  12.836  11.609
78988W        W51413  26.368  10.312   1.951
78989W        W51414  14.403  20.145  13.872
78990W        W51415   7.574  24.660   0.309
78991W        W51416  12.567  11.695   1.380
78992W        W51417  25.026  10.091   1.412
78993W        W51418  24.221  19.174  12.943
78994W        W51419  17.598   7.019   4.078
78995W        W51420  30.352  18.756  14.884
78996W        W51421   0.803  35.971  14.352
78997W        W51422  35.019  12.308   2.346
78998W        W51423  28.153  19.858  13.983
78999W        W51424   8.230  35.426   3.185
79000W        W51425  20.367  20.823   1.371
79001W        W51426  26.570  27.160   1.374
79002W        W51427  11.540  12.915  12.438
79003W        W51428  13.517  16.153   1.844
79004W        W51429  23.563  30.950   0.250
79005W        W51430  16.533  39.788   2.332
79006W        W51431  29.021  31.614   0.672
79007W        W51432  27.897  44.579   0.352
79008W        W51433  11.667   6.501   0.932
79009W        W51434  25.674   1.462  10.685
79010W        W51435  23.998  31.932   4.978
79011W        W51436  19.802  39.838   2.649
79012W        W51437  44.780   6.431   0.874
79013W        W51438  27.717   0.009   1.939
79014W        W51439   4.838   0.360  14.366
79015W        W51440   2.822  25.176   1.898
79016W        W51441  34.620   8.778   4.893
79017W        W51442  31.014  27.973   4.404
79018W        W51443  31.474  17.413   2.335
79019W        W51444  24.446   6.293   5.033
79020W        W51445  12.153  13.789   4.434
79021W        W51446  17.164  18.566  10.729
79022W        W51447   3.189  42.366   1.508
79023W        W51448  33.317  11.270   0.249
79024W        W51449   6.921  30.460  11.441
79025W        W51450  10.031  40.632   2.432
79026W        W51451  15.330  42.781  12.548
79027W        W51452  37.005  40.778  11.172
79028W        W51453   2.400  19.600  11.990
79029W        W51454  40.493   7.570  11.224
79030W        W51455  29.948   6.664  14.414
79031W        W51456  16.013   1.406  14.933
79032W        W51457  39.748   3.718  13.405
79033W        W51458  21.642  32.077   2.150
79034W        W51459  29.713  16.969  14.915
79035W        W51460  32.639  29.992  12.679
79036W        W51461  35.349   0.049   3.175
79037W        W51462   2.185  41.572  11.700
79038W        W51463  11.858  25.750   3.693
79039W        W51464   0.790  13.096  14.490
79040W        W51465  36.369  22.281  11.558
79041W        W51466  13.729  36.473  11.868
79042W        W51467  15.482  30.810  12.476
79043W        W51468  34.373  23.870   0.894
79044W        W51469  14.984  38.977  13.877
79045W        W51470  41.522  32.191   0.900
79046W        W51471  21.666  28.078   0.229
79047W        W51472  36.440   3.720  10.615
79048W        W51473  42.814  44.681   5.099
79049W        W51474   7.119  36.338   3.657
79050W        W51475  11.901  25.175  13.009
79051W        W51476  21.466   5.224  10.540
79052W        W51477  44.223  16.558  12.897
79053W        W51478  15.328  41.251  11.780
79054W        W51479  25.102  30.016   0.645
79055W        W51480  38.330   6.246  12.630
79056W        W51481  43.470  42.975  10.740
79057W        W51482  18.269  30.856  11.471
79058W        W51483   0.894  35.461  13.423
79059W        W51484   6.843  35.570  12.903
79060W        W51485  16.729  40.388  14.465
79061W        W51486  36.874  12.627  10.783
79062W        W51487   9.431  15.761  12.083
79063W        W51488  27.427  35.341   3.059
79064W        W51489  18.027  37.771   3.238
79065W        W51490  15.246   3.981   5.663
79066W        W51491  36.289  27.000  12.355
79067W        W51492   1.967  38.527   1.989
79068W        W51493   1.221  33.523   4.306
79069W        W51494   6.779  35.858   3.275
79070W        W51495  39.307  13.025   1.983
79071W        W51496   1.050  34.064   1.854
79072W        W51497  29.914  38.920   2.744
79073W        W51498   2.681  30.497   1.426
79074W        W51499  11.889   8.810   1.487
79075W        W51500  39.141  18.369   4.997
79076W        W51501  14.569  43.027  10.401
79077W        W51502  28.156  11.628   2.509
79078W        W51503  15.807   4.000   2.773
79079W        W51504   8.688  32.373  14.776
79080W        W51505  17.412   0.550  11.672
79081W        W51506  34.589   2.886   2.260
79082W        W51507  22.291  20.004  14.913
79083W        W51508  25.899  39.270   0.892
79084W        W51509  44.555  31.227   0.746
79085W        W51510  18.118  16.515  14.421
79086W        W51511  22.640  24.603   2.826
79087W        W51512  44.587  34.103   5.357
79088W        W51513  13.619  43.803  11.148
79089W        W51514  10.300  44.243  11.459
79090W        W51515   0.962  26.505  13.969
79091W        W51516  13.676   7.198   0.520
79092W        W51517  35.832  27.873   1.693
79093W        W51518  24.461  31.135   0.238
79094W        W51519   3.447  17.037   3.803
79095W        W51520  44.631  20.715   0.902
79096W        W51521  26.755  26.008   0.014
79097W        W51522  17.638  34.217  12.374
79098W        W51523   3.751  39.399  11.147
79099W        W51524  12.228   0.263  14.317
79100W        W51525  26.250  31.069   3.098
79101W        W51526  24.727   4.372  13.145
79102W        W51527  28.749   3.759  11.611
79103W        W51528  11.392   5.399  13.352
79104W        W51529  31.254  16.992   3.118
79105W        W51530  34.531   0.866   2.652
79106W        W51531  10.962  18.861  13.800
79107W        W51532  30.262  20.153  14.550
79108W        W51533   6.443  42.297   2.623
79109W        W51534  11.825  33.936  14.714
79110W        W51535  12.077   2.215   3.628
79111W        W51536  26.435  37.790  11.605
79112W        W51537  20.041   8.860   3.229
79113W        W51538  26.798  18.274   4.872
79114W        W51539  32.033  30.410   0.675
79115W        W51540  36.861  31.694  10.950
79116W        W51541   3.691  19.963  13.082
79117W        W51542  15.573  38.467  12.325
79118W        W51543  21.506  27.129   1.807
79119W        W51544   6.796   9.616   3.250
79120W        W51545  24.331  28.040   1.481
79121W        W51546  11.839  28.434  13.364
79122W        W51547  37.172  14.136   1.262
79123W        W51548   4.281   5.819   1.435
79124W        W51549  19.582  25.165  12.237
79125W        W51550  42.555  39.972   4.163
79126W        W51551  39.967  19.480  14.839
79127W        W51552   7.167  39.319  12.055
79128W        W51553  29.575  10.379   0.818
79129W        W51554  43.809  11.369  12.612
79130W        W51555   5.978  24.124   1.259
79131W        W51556  40.425  21.745   1.865
79132W        W51557  21.738  19.162   3.148
79133W        W51558  19.963   6.386  11.241
79134W        W51559   2.833   2.895   2.617
79135W        W51560  26.044  13.585  12.406
79136W        W51561  20.083  11.873  13.370
79137W        W51562  27.132  30.015   1.057
79138W        W51563  26.149   1.998  12.993
79139W        W51564  22.056  24.906   4.191
79140W        W51565   2.702  36.591  11.281
79141W        W51566  41.239  44.086   1.393
79142W        W51567  24.246  18.384  11.197
79143W        W51568   4.576  39.105   4.701
79144W        W51569  43.256  33.488   3.622
79145W        W51570  20.464  31.131   0.244
79146W        W51571  27.968  20.065   3.701
79147W        W51572  42.507  32.464  14.029
79148W        W51573   2.256  30.301  11.749
79149W        W51574   6.367  16.981  12.088
79150W        W51575  19.244  32.409   3.242
79151W        W51576  11.527   2.985   4.476
79152W        W51577  15.507   0.278  11.887
79153W        W51578   0.873  36.849  14.764
79154W        W51579   3.357  23.956  14.295
79155W        W51580   0.252  32.445   2.740
79156W        W51581  30.473  27.652   0.411
79157W        W51582  43.050  40.462  13.293
79158W        W51583  17.125  39.991   4.949
79159W        W51584   2.342  21.992   4.528
79160W        W51585  31.986   7.703  11.584
79161W        W51586   6.695  27.943   3.822
79162W        W51587  29.262  11.092  12.479
79163W        W51588  29.012   0.571   4.846
79164W        W51589  25.978  23.222  10.964
79165W        W51590  44.757  34.492   1.593
79166W        W51591  39.070   6.666  12.422
79167W        W51592  28.151  18.563   0.797
79168W        W51593  41.026  12.696   1.370
79169W        W51594  21.524  11.112  10.624
79170W        W51595  16.320  34.201   5.032
79171W        W51596  24.614  30.970  13.255
79172W        W51597  39.900  12.717  10.690
79173W        W51598  14.135   1.611   9.795
79174W        W51599  42.305  39.795   4.577
79175W        W51600  16.748   5.320  10.869
79176W        W51601  35.660  27.308  13.368
79177W        W51602   9.251  10.316  14.319
79178W        W51603  40.459  18.579  13.041
79179W        W51604  22.623  15.615   3.247
79180W        W51605  11.584  11.196  14.406
79181W        W51606   9.555   3.787   1.973
79182W        W51607  39.470  40.614  13.994
79183W        W51608  30.071  15.036   1.302
79184W        W51609  16.252  18.451   4.676
79185W        W51610  43.357  17.406  13.922
79186W        W51611  19.244  10.018   3.258
79187W        W51612   4.028   1.314   3.755
79188W        W51613  14.752  25.868   4.237
79189W        W51614  42.867  35.816   3.335
79190W        W51615   1.718  17.194  12.510
79191W        W51616  37.986   4.854   3.068
79192W        W51617   0.754   9.427  13.992
79193W        W51618  36.943  36.439  12.176
79194W        W51619  26.471   6.237  11.672
79195W        W51620  33.319  19.110   3.721
79196W        W51621  41.416  24.371  13.868
79197W        W51622  33.012  14.639   1.799
79198W        W51623  44.969   1.380  12.825
79199W        W51624  35.061  30.417  13.602
79200W        W51625  29.623  43.877  11.885
79201W        W51626  24.114  31.156  12.466
79202W        W51627  37.913  44.395   2.363
79203W        W51628  34.554   2.417   1.204
79204W        W51629  12.510  33.204   1.055
79205W        W51630   6.772  37.781   2.924
79206W        W51631  16.503   0.190  11.192
79207W        W51632  12.053  40.939   2.574
79208W        W51633   4.900  20.721   2.710
79209W        W51634  31.516  19.540  11.790
79210W        W51635  27.753  27.169  14.344
79211W        W51636  31.412  44.914   2.687
79212W        W51637  32.643   5.387   1.870
79213W        W51638  26.468   7.851   1.885
79214W        W51639  17.446  13.346   4.139
79215W        W51640  24.542   7.330  11.268
79216W        W51641  42.951  37.625   4.878
79217W        W51642  11.791  23.721  14.924
79218W        W51643  23.521  13.020  11.021
79219W        W51644  16.183  37.788   4.525
79220W        W51645  17.461  15.706   1.667
79221W        W51646  44.329  35.525   0.903
79222W        W51647  16.286  25.804   0.393
79223W        W51648   6.904  22.978  10.750
79224W        W51649  22.272  19.867  11.775
79225W        W51650  26.134   2.047  13.940
79226W        W51651   3.226  32.626   1.845
79227W        W51652  44.447   7.174  12.001
79228W        W51653  36.260  13.045  12.090
79229W        W51654   3.717  11.836  11.962
79230W        W51655  10.686  14.286  11.629
79231W        W51656  18.640  21.947  10.718
79232W        W51657  23.073  18.095  13.564
79233W        W51658   5.897  13.308  11.575
79234W        W51659  13.902  20.016  13.906
79235W        W51660  30.313  27.495   1.436
79236W        W51661  33.367   5.753   5.374
79237W        W51662  26.576  22.093  12.507
79238W        W51663  28.791  15.260  12.459
79239W        W51664  32.695  15.162  10.817
79240W        W51665  13.809  33.071  11.594
79241W        W51666  18.550  15.720  13.536
79242W        W51667  10.542   3.897  14.885
79243W        W51668  21.403   5.563   4.183
79244W        W51669  20.016  33.076   3.162
79245W        W51670   9.394   9.075   1.373
79246W        W51671   9.741  31.996  12.006
79247W        W51672  37.877  36.052  12.128
79248W        W51673  37.990  28.178   3.215
79249W        W51674  36.851  33.984   0.867
79250W        W51675  30.866  11.680   2.286
79251W        W51676  36.350  13.567   2.274
79252W        W51677  13.102  22.015  10.211
79253W        W51678  14.734  21.065   0.800
79254W        W51679   8.737  33.769   4.342
79255W        W51680  29.045   3.689   3.101
79256W        W51681  16.005  29.886   3.606
79257W        W51682  17.076  36.871   2.305
79258W        W51683   5.868   9.878  12.870
79259W        W51684   1.144  25.600   1.750
79260W        W51685  28.496   3.335   0.223
79261W        W51686   8.769  11.892  12.333
79262W        W51687  20.131  32.167  12.919
79263W        W51688  36.089  20.774  13.932
79264W        W51689  23.281  27.545   0.417
79265W        W51690   3.490  29.162   4.099
79266W        W51691  31.192  13.198   3.811
79267W        W51692  18.056  35.850   0.357
79268W        W51693  20.970  33.409   2.197
79269W        W51694   7.075   9.545   0.861
79270W        W51695  44.519  31.759   3.321
79271W        W51696  20.442  12.137   4.525
79272W        W51697  14.849  36.503   2.758
79273W        W51698  37.345  42.967  11.453
79274W        W51699  37.572  36.057   0.086
79275W        W51700   7.847   0.336   2.189
79276W        W51701   0.778  16.905  10.829
79277W        W51702  40.506  29.508   2.357
79278W        W51703  38.793  22.616  12.989
79279W        W51704   3.848  25.002  14.841
79280W        W51705  30.615  31.413   1.397
79281W        W51706  17.248  40.657   9.766
79282W        W51707  44.600  41.807  13.544
79283W        W51708  11.374  29.521  10.841
79284W        W51709  41.683  12.663   3.559
79285W        W51710  43.569  22.183   3.237
79286W        W51711  36.651   3.239  13.471
79287W        W51712   4.324  33.003   4.604
79288W        W51713   0.419  17.467  14.695
79289W        W51714   2.755   7.277  12.308
79290W        W51715  24.102  44.178  10.119
79291W        W51716   1.428  40.393   2.829
79292W        W51717  36.317  29.260   5.158
79293W        W51718   8.733  34.040   3.899
79294W        W51719  42.266   6.235  13.013
79295W        W51720  17.499  37.635   3.784
79296W        W51721  13.132  22.224  14.851
79297W        W51722  39.759  40.052   0.471
79298W        W51723  29.250  20.668   5.103
79299W        W51724  35.932  11.403  13.029
79300W        W51725   8.648  14.782  13.299
79301W        W51726  14.114  30.048  14.979
79302W        W51727  16.066  32.497  10.374
79303W        W51728  24.589  42.078   4.069
79304W        W51729   2.385  23.929  11.990
79305W        W51730  18.325  22.680   0.381
79306W        W51731  13.397   2.860  14.408
79307W        W51732  26.627  39.745   1.975
79308W        W51733  28.079  15.724   4.971
79309W        W51734  16.590  36.404  11.659
79310W        W51735  15.752   4.447  14.827
79311W        W51736  43.836  15.053  12.453
79312W        W51737  40.425  28.960   3.303
79313W        W51738  30.384   6.166   0.424
79314W        W51739  18.003  34.402  13.301
79315W        W51740  39.178  20.529   2.412
79316W        W51741  22.993  29.437  10.680
79317W        W51742  37.527   0.509  11.549
79318W        W51743   7.741  40.529   3.161
79319W        W51744   1.825  16.688  11.043
79320W        W51745  14.122   5.770  14.999
79321W        W51746   2.969   7.134   0.752
79322W        W51747  31.820  41.340   4.621
79323W        W51748  22.624  27.646  14.293
79324W        W51749  38.880  25.548  12.174
79325W        W51750  33.637  32.818   1.849
79326W        W51751  25.783  29.942   5.083
79327W        W51752  29.503   0.954  13.341
79328W        W51753  31.392   0.922  11.497
79329W        W51754   7.161  17.510  12.558
79330W        W51755  28.185  20.091  14.469
79331W        W51756  12.336  14.472   1.537
79332W        W51757   7.157   0.063   1.748
79333W        W51758  26.579   3.793  10.572
79334W        W51759  19.126  22.286   3.160
79335W        W51760   8.816  26.547   4.236
79336W        W51761  39.772  21.097   4.591
79337W        W51762  20.015  22.430  10.807
79338W        W51763   8.866  32.660   4.100
79339W        W51764  24.535   6.118   4.162
79340W        W51765  13.574  27.569   2.469
79341W        W51766   0.081  35.464   4.605
79342W        W51767  22.474  16.252  11.145
79343W        W51768   0.886  20.891  13.320
79344W        W51769  29.586  12.618   3.660
79345W        W51770   6.854   4.026  11.619
79346W        W51771   9.253  42.030   2.596
79347W        W51772  25.431   8.292  12.142
79348W        W51773  30.513  41.942  13.496
79349W        W51774  22.585   3.770  12.657
79350W        W51775  34.978  36.842  12.037
79351W        W51776  28.143   7.132  11.670
79352W        W51777  22.084  19.236  14.332
79353W        W51778  22.980  42.472   1.631
79354W        W51779  39.066  12.851  14.366
79355W        W51780  19.281  37.596  11.982
79356W        W51781  31.765  18.695   1.783
79357W        W51782  27.660   5.347   4.482
79358W        W51783   2.246   9.978   3.949
79359W        W51784   9.137  31.908   3.438
79360W        W51785   7.690   9.073  10.068
79361W        W51786  29.708  38.154   5.841
79362W        W51787  11.467   1.394   2.225
79363W        W51788  22.985   3.760  14.897
79364W        W51789  42.968  35.953   2.808
79365W        W51790  37.685   8.966   5.378
79366W        W51791  27.500  27.924  11.687
79367W        W51792  17.031   3.532  11.866
79368W        W51793  32.065  10.513  12.898
79369W        W51794  15.850  19.551  14.291
79370W        W51795   5.372  33.895   3.409
79371W        W51796  13.580  13.806   3.433
79372W        W51797  26.575  16.114  11.419
79373W        W51798  29.032  23.534   1.349
79374W        W51799  16.403  30.684  12.400
79375W        W51800  31.651  35.225  13.069
79376W        W51801  20.074  29.127   1.144
79377W        W51802  14.951  20.556   0.835
79378W        W51803  25.421  44.277  13.973
79379W        W51804  20.529  43.282   1.372
79380W        W51805   7.955  43.445   1.900
79381W        W51806   4.876  28.781   5.038
79382W        W51807   7.777  33.666  11.122
79383W        W51808   4.640  43.526   0.034
79384W        W51809  23.241  22.997  10.728
79385W        W51810  21.170   1.103   2.326
79386W        W51811  16.819  28.096   0.802
79387W        W51812  29.184  21.321  13.315
79388W        W51813  16.192  31.999  11.077
79389W        W51814  26.579  32.516  11.653
79390W        W51815  15.828  12.534   5.205
79391W        W51816  14.198   8.439   1.072
79392W        W51817  23.365   7.297   0.408
79393W        W51818   8.222  34.437   0.577
79394W        W51819  21.522   2.637   4.564
79395W        W51820  41.286   6.316  13.413
79396W        W51821  26.850   0.987  10.687
79397W        W51822  10.835  44.439   3.556
79398W        W51823  31.982  13.806   0.693
79399W        W51824  13.256  30.566  10.844
79400W        W51825  43.404  31.952   1.758
79401W        W51826   2.548   3.729  10.126
79402W        W51827  21.821  43.554  11.223
79403W        W51828  42.390   6.168  12.025
79404W        W51829  22.116   2.308   1.139
79405W        W51830  24.391  33.673  11.589
79406W        W51831   2.860  21.997   2.081
79407W        W51832   4.741  30.304   2.926
79408W        W51833   2.360   0.078   2.824
79409W        W51834  33.227  30.498   0.232
79410W        W51835  31.828   5.263  13.799
79411W        W51836  29.331  13.200  11.965
79412W        W51837  44.263  11.814  13.905
79413W        W51838   1.357  11.438  13.312
79414W        W51839  42.009  31.461   1.240
79415W        W51840  13.172  40.556   3.277
79416W        W51841  27.108  20.580  14.233
79417W        W51842   3.241   0.769  12.855
79418W        W51843  30.856  10.066  10.266
79419W        W51844  17.762  44.019  12.077
79420W        W51845  10.175  15.720   2.665
79421W        W51846   1.575  34.810  14.747
79422W        W51847  16.007  20.513  11.289
79423W        W51848  15.254  41.765  12.590
79424W        W51849  27.493  28.074  14.550
79425W        W51850  29.213  37.613   3.758
79426W        W51851  14.127  24.801   9.775
79427W        W51852   4.845  19.605   0.209
79428W        W51853  33.824  43.015  11.207
79429W        W51854  30.031  33.959  14.823
79430W        W51855  31.407  13.814   4.743
79431W        W51856  21.700   8.844  14.444
79432W        W51857  23.040  26.030  12.511
79433W        W51858  28.122  24.372   1.833
79434W        W51859  27.039  37.333   0.694
79435W        W51860  41.124   6.354  11.613
79436W        W51861  17.608  18.776  10.892
79437W        W51862  36.373  44.522  12.476
79438W        W51863  42.512  12.683   4.864
79439W        W51864  14.641  29.202   0.736
79440W        W51865  43.256  31.598   0.525
79441W        W51866  12.111   6.415   0.248
79442W        W51867  14.745  44.516   3.319
79443W        W51868  18.509   1.925  14.886
79444W        W51869  33.870  32.444  12.093
79445W        W51870  41.377   3.917   0.419
79446W        W51871  34.401  38.461   0.300
79447W        W51872  15.494  32.112   4.315
79448W        W51873   7.766  14.259   3.329
79449W        W51874  19.165   0.739   3.794
79450W        W51875  27.680  44.273   4.551
79451W        W51876   6.273   6.660  14.522
79452W        W51877  36.544   5.445  10.549
79453W        W51878  11.192   1.893   4.146
79454W        W51879  23.077  22.111   3.551
79455W        W51880  34.860   3.980  14.059
79456W        W51881   5.961  22.722   0.354
79457W        W51882  21.471  38.446   1.304
79458W        W51883  18.828  41.626   3.198
79459W        W51884  15.891  42.563  13.377
79460W        W51885  16.329  18.613   0.297
79461W        W51886  43.314  11.727   0.390
79462W        W51887  27.876  42.999   2.501
79463W        W51888  38.174  18.364  13.987
79464W        W51889  33.353   9.803  13.125
79465W        W51890   3.153  24.273   4.083
79466W        W51891  23.024  19.698   1.620
79467W        W51892   7.665  44.790  11.948
79468W        W51893   2.165  17.565  11.037
79469W        W51894  20.992  34.449   1.441
79470W        W51895   1.997  38.261  13.311
79471W        W51896  43.026  16.553   1.334
79472W        W51897  44.911  20.576   0.356
79473W        W51898  38.838   9.090  13.921
79474W        W51899   7.437  27.592  10.407
79475W        W51900  37.001  29.688  12.888
79476W        W51901  43.042   8.728   3.642
79477W        W51902  25.804  29.964  12.110
79478W        W51903  16.792  26.504   0.394
79479W        W51904   4.938  32.437  10.983
79480W        W51905   1.761  15.058   4.309
79481W        W51906  27.700  19.230   0.018
79482W        W51907  35.811  20.058   0.509
79483W        W51908  18.797  20.028   3.921
79484W        W51909  32.901   4.106  13.890
79485W        W51910   8.397  16.069   1.902
79486W        W51911   2.089  13.193   3.232
79487W        W51912  27.583  41.901   1.812
79488W        W51913  13.847  40.843   2.312
79489W        W51914  21.670  39.812   4.104
79490W        W51915  42.618  11.745  11.486
79491W        W51916   7.271  24.656   1.180
79492W        W51917  26.563  31.099   2.238
79493W        W51918  38.895   4.941   3.117
79494W        W51919  28.524  44.792   2.217
79495W        W51920  12.361  21.602   0.960
79496W        W51921  36.228  38.894   0.476
79497W        W51922   8.154   4.158  12.075
79498W        W51923  11.698  15.173   1.623
79499W        W51924  26.261  22.779  14.310
79500W        W51925  41.891  32.528   3.704
79501W        W51926  14.475  44.397   2.332
79502W        W51927  43.553  37.228  11.536
79503W        W51928   2.846   7.294  13.808
79504W        W51929  35.437   0.433  13.812
79505W        W51930   3.746   2.785  11.214
79506W        W51931  17.196  26.686  13.480
79507W        W51932  16.270  18.201  13.486
79508W        W51933   0.780  25.217   0.387
79509W        W51934   5.167  20.177  10.770
79510W        W51935  42.513   4.969   3.203
79511W        W51936  25.656  44.349   1.884
79512W        W51937  19.535  27.654  14.974
79513W        W51938  42.810  13.252  13.058
79514W        W51939  14.102  17.091  14.533
79515W        W51940  13.555  20.737   1.311
79516W        W51941  12.431   7.697   0.257
79517W        W51942   1.240  15.879   1.281
79518W        W51943  33.558  44.434   3.318
79519W        W51944  41.363   0.033  14.476
79520W        W51945   3.485  16.584   0.332
79521W        W51946  44.500  14.998   1.327
79522W        W51947  21.056  33.490   3.654
79523W        W51948  27.502  11.815  10.698
79524W        W51949   2.773  27.164   3.677
79525W        W51950  32.972  30.522  12.905
79526W        W51951   2.850  28.073   4.461
79527W        W51952  17.325  37.671   0.836
79528W        W51953  28.631  36.449  12.461
79529W        W51954  30.055  19.604  13.822
79530W        W51955  35.331  31.108   1.195
79531W        W51956  14.862  21.116   0.302
79532W        W51957   4.567  32.546   4.697
79533W        W51958   6.609  23.717   4.475
79534W        W51959  42.949  35.413   0.008
79535W        W51960  40.927   9.878   2.625
79536W        W51961  31.606   1.886  12.392
79537W        W51962   5.448  41.862  14.269
79538W        W51963  25.930   6.312   3.423
79539W        W51964  14.011  16.244  13.985
79540W        W51965   3.688  39.495  12.972
79541W        W51966  20.334  13.703   1.769
79542W        W51967  10.569   7.261   0.377
79543W        W51968  43.568  20.146  12.689
79544W        W51969  33.891  30.467  12.220
79545W        W51970  16.476  24.259   4.284
79546W        W51971  17.951  12.882   1.231
79547W        W51972  27.124  35.042   3.429
79548W        W51973  33.382  35.901  10.751
79549W        W51974   6.750  19.086   2.783
79550W        W51975   7.186   9.224   2.616
79551W        W51976  40.254  16.020   3.553
79552W        W51977  33.584  22.117   0.372
79553W        W51978  37.916  13.192  14.720
79554W        W51979  24.981  40.981   0.960
79555W        W51980  29.200  18.854   2.538
79556W        W51981  42.315  21.774   9.987
79557W        W51982  22.475   0.695   4.139
79558W        W51983  23.161  42.288  12.358
79559W        W51984  32.323  36.060  11.439
79560W        W51985  32.510  10.164   2.225
79561W        W51986  43.822  25.603   3.920
79562W        W51987  20.181   1.240   2.331
79563W        W51988   3.842  35.530  13.878
79564W        W51989  29.049  10.642  11.646
79565W        W51990  32.407   4.821   0.861
79566W        W51991  33.928  30.458   4.564
79567W        W51992  35.653  39.632  11.726
79568W        W51993   3.580  23.265   2.206
79569W        W51994   0.954   5.108   0.769
79570W        W51995  34.844  27.156  11.074
79571W        W51996  34.256  41.777   2.096
79572W        W51997  15.085   4.389   1.680
79573W        W51998   8.139   9.338  14.699
79574W        W51999  41.635  19.744   4.606
79575W        W52000  18.516   5.177  10.027
79576W        W52001  44.602  30.327   1.659
79577W        W52002  38.432  28.977  13.348
79578W        W52003   5.266  42.543  11.539
79579W        W52004  18.655  24.272  11.579
79580W        W52005   9.587  38.596   0.960
79581W        W52006   6.265   2.158  12.359
79582W        W52007  24.129   7.629   2.920
79583W        W52008  32.058  18.639   0.400
79584W        W52009   7.657  19.222   1.431
79585W        W52010  36.319   4.720  12.563
79586W        W52011   7.812   3.596   0.914
79587W        W52012  10.134  20.827  11.133
79588W        W52013  16.237  13.341   2.241
79589W        W52014   6.325  42.505  13.344
79590W        W52015  19.630  33.419  14.844
79591W        W52016   1.981  27.844   4.484
79592W        W52017  23.689  40.315  13.138
79593W        W52018  40.778   4.553   0.549
79594W        W52019  12.132  34.321   2.699
79595W        W52020  25.669   5.368   2.716
79596W        W52021  25.943   9.223  10.632
79597W        W52022  12.934  27.889   0.319
79598W        W52023   9.785  38.594  13.222
79599W        W52024  32.913   7.446   0.497
79600W        W52025   5.353  36.430  13.016
79601W        W52026  19.014  29.108  11.252
79602W        W52027  21.767   1.672   4.576
79603W        W52028  10.370   8.682   3.663
79604W        W52029  11.377  30.121   4.608
79605W        W52030  22.176  27.537  12.122
79606W        W52031  26.024   3.983  14.811
79607W        W52032  39.516   7.843  10.990
79608W        W52033  26.048  10.257   3.186
79609W        W52034   8.596  26.836  14.840
79610W        W52035  14.104  27.279   0.758
79611W        W52036  35.457  27.546  14.846
79612W        W52037  42.128   7.191   2.701
79613W        W52038  39.921  11.133   1.343
79614W        W52039   8.623   4.126  14.924
79615W        W52040   6.968   8.469  12.135
79616W        W52041   0.929  41.017   4.356
79617W        W52042  17.548  41.101   9.752
79618W        W52043  11.314  24.675   5.636
79619W        W52044  16.605   5.785   0.383
79620W        W52045  38.059   0.996   0.099
79621W        W52046   3.370  23.453  14.296
79622W        W52047   7.727  11.396   3.600
79623W        W52048  13.714  41.944   2.360
79624W        W52049  23.805   2.219  12.933
79625W        W52050   6.289  44.450   3.206
79626W        W52051  13.887  26.903   0.404
79627W        W52052   6.797  43.456   2.366
79628W        W52053  35.092  33.289   2.836
79629W        W52054   1.465  21.180  14.777
79630W        W52055  31.441   1.791  13.398
79631W        W52056   0.556  11.711  14.742
79632W        W52057   6.009  41.800   2.045
79633W        W52058   7.357  36.402   3.210
79634W        W52059  37.026  18.016   4.776
79635W        W52060  34.438   6.750  14.081
79636W        W52061  39.219  37.956  11.748
79637W        W52062  39.973  23.520   2.033
79638W        W52063  37.773  29.036  11.813
79639W        W52064  43.679   2.066  13.941
79640W        W52065  22.471  32.146  11.887
79641W        W52066   7.818   3.297   4.657
79642W        W52067  39.045  23.754  14.600
79643W        W52068  21.232  20.454  10.969
79644W        W52069  34.448  24.226   3.533
79645W        W52070  38.602   9.196  12.083
79646W        W52071  36.352  17.606  11.577
79647W        W52072  12.708  20.350   0.463
79648W        W52073  41.901  42.445  13.175
79649W        W52074  15.649  24.836   5.033
79650W        W52075  30.367  38.804   2.964
79651W        W52076  12.130  41.691  11.111
79652W        W52077  43.682  31.313  14.459
79653W        W52078   8.478  24.749  13.138
79654W        W52079  17.510  33.462  13.509
79655W        W52080  14.081  24.134  11.043
79656W        W52081  14.854  25.772  11.114
79657W        W52082   0.215  24.614   4.199
79658W        W52083  34.373  33.107  13.059
79659W        W52084  10.802  26.364   2.434
79660W        W52085  41.356  42.065   2.212
79661W        W52086  18.846  18.089   2.209
79662W        W52087  17.252  10.985  11.510
79663W        W52088  17.883   5.676   4.585
79664W        W52089  32.476   4.828  14.726
79665W        W52090  26.210  17.650   4.022
79666W        W52091  42.015  29.605   3.879
79667W        W52092  27.505   1.119  12.887
79668W        W52093   2.765   2.765  11.561
79669W        W52094   7.813  33.961  14.887
79670W        W52095  30.965   8.941  13.908
79671W        W52096  39.325  26.222  10.966
79672W        W52097  26.625  43.030  10.975
79673W        W52098  22.151  37.482   1.792
79674W        W52099  21.677  26.420  14.886
79675W        W52100   1.173  20.121  14.972
79676W        W52101   6.237  41.365   4.665
79677W        W52102   2.783  40.351   4.165
79678W        W52103  15.513  37.412   3.263
79679W        W52104  35.335  22.270  12.510
79680W        W52105  33.401  16.567   2.739
79681W        W52106  12.255  27.032   2.600
79682W        W52107  31.546  44.859  12.852
79683W        W52108  30.529  23.159  10.223
79684W        W52109  37.655  41.432   4.232
79685W        W52110  16.174   1.436  12.821
79686W        W52111  41.649   7.382  14.421
79687W        W52112  41.254  19.790   2.297
79688W        W52113  29.273  17.600   2.289
79689W        W52114  17.665   8.274  11.688
79690W        W52115  13.769  22.774   4.589
79691W        W52116  11.856  28.573   1.394
79692W        W52117  27.646   5.467  10.490
79693W        W52118  23.956  14.741  11.814
79694W        W52119   4.268  27.560   1.706
79695W        W52120  42.939  27.503  11.120
79696W        W52121   8.621  41.030   3.356
79697W        W52122   2.658  26.032  11.239
79698W        W52123   3.811   5.268  10.740
79699W        W52124  19.098  15.357  12.410
79700W        W52125   5.618  36.398  11.959
79701W        W52126  37.720   7.279   2.746
79702W        W52127  42.980   8.019   4.171
79703W        W52128   7.790   4.006  12.412
79704W        W52129  15.954   4.979  11.045
79705W        W52130  24.655  32.566   4.238
79706W        W52131   0.740  17.698  12.537
79707W        W52132  15.851  28.334  11.625
79708W        W52133  30.973  19.374  11.197
79709W        W52134  22.281  16.539   1.110
79710W        W52135  42.588  43.997  14.483
79711W        W52136  16.369  36.550   1.564
79712W        W52137  21.022  35.497  10.362
79713W        W52138  13.703  19.545  13.938
79714W        W52139  24.696  33.941  14.776
79715W        W52140  20.328   1.241   3.293
79716W        W52141  14.127   9.442  12.849
79717W        W52142  37.531  38.085  12.483
79718W        W52143  41.345   2.853  13.516
79719W        W52144  24.568  18.979  10.761
79720W        W52145  40.343  39.746  13.517
79721W        W52146   2.206  43.750  11.135
79722W        W52147  37.145  11.695   0.295
79723W        W52148   9.516  26.594   4.879
79724W        W52149  26.458  12.574   4.656
79725W        W52150  37.543  41.388  10.667
79726W        W52151  21.277  15.603  10.751
79727W        W52152  23.209  39.624  14.226
79728W        W52153  24.779  42.323   0.712
79729W        W52154  44.182  41.791   1.343
79730W        W52155  35.437  39.699  14.637
79731W        W52156  14.963   3.183  11.624
79732W        W52157  13.754   2.488   3.691
79733W        W52158  27.549  16.310  10.695
79734W        W52159  35.981  19.698  12.980
79735W        W52160  37.969   9.650   1.418
79736W        W52161  42.851  37.570   1.320
79737W        W52162   9.877   9.988  13.843
79738W        W52163  24.733  19.516   0.076
79739W        W52164  31.711  21.337  12.081
79740W        W52165  10.396  10.863   2.725
79741W        W52166  24.060   3.494   2.236
79742W        W52167  36.495  19.671   2.313
79743W        W52168  16.062  14.400  11.518
79744W        W52169   1.444  38.812   0.371
79745W        W52170  38.462  23.239   2.154
79746W        W52171   8.157   7.170   3.674
79747W        W52172  31.892   6.680  13.011
79748W        W52173  20.480  29.980  14.022
79749W        W52174  36.474  37.443   4.522
79750W        W52175  17.195  37.260  13.504
79751W        W52176  22.600   3.706   0.847
79752W        W52177  18.948   2.445   0.536
79753W        W52178  18.801   2.684   1.409
79754W        W52179  26.549   8.479  11.408
79755W        W52180   1.237  34.644  14.405
79756W        W52181  27.221   4.993   3.675
79757W        W52182  15.794  13.228  11.745
79758W        W52183  19.622  14.318  14.843
79759W        W52184  39.342   2.455   4.630
79760W        W52185   0.390  30.136  12.012
79761W        W52186  19.523  12.973   4.589
79762W        W52187   7.410  33.875   1.339
79763W        W52188   9.220   9.321  13.916
79764W        W52189   2.459   3.378  13.725
79765W        W52190   4.240  34.558  12.695
79766W        W52191  38.201   5.563   4.619
79767W        W52192  31.618  31.182   1.373
79768W        W52193  14.689   4.958   2.691
79769W        W52194   6.580  18.062  10.433
79770W        W52195  21.000  34.390   0.510
79771W        W52196  20.108  43.897  14.473
79772W        W52197  21.165  10.057   2.397
79773W        W52198  19.572  14.090  13.993
79774W        W52199  19.195  33.623   1.391
79775W        W52200   7.677  38.798  11.487
79776W        W52201  33.173  11.841  12.485
79777W        W52202  22.054  26.398   1.736
79778W        W52203  38.492  40.524  12.348
79779W        W52204   9.173  37.469   2.151
79780W        W52205  12.808  36.957  14.455
79781W        W52206  20.174  18.182   1.254
79782W        W52207   6.745  21.311  11.188
79783W        W52208  22.610  32.313   1.168
79784W        W52209   4.212  11.735  12.053
79785W        W52210  41.497  31.392   2.226
79786W        W52211   8.140  29.412  13.839
79787W        W52212  17.588  39.906  14.424
79788W        W52213  23.670   5.178  14.881
79789W        W52214  34.494  18.150  11.558
79790W        W52215  43.486  24.571  12.851
79791W        W52216   0.400  14.958  13.728
79792W        W52217   1.279  40.437   4.389
79793W        W52218  25.546  28.637  14.942
79794W        W52219  17.821  11.241  14.005
79795W        W52220  43.332  34.537  10.947
79796W        W52221  28.133   4.022  14.087
79797W        W52222  26.528  35.053   2.779
79798W        W52223  23.146  43.786   1.347
79799W        W52224  34.248  29.131   3.143
79800W        W52225   2.934   2.160  13.108
79801W        W52226  10.817  24.260  11.614
79802W        W52227  23.633  31.504   4.257
79803W        W52228   3.621  27.705   3.796
79804W        W52229   8.885  43.716   3.075
79805W        W52230  36.814  17.040  13.803
79806W        W52231  42.151  27.803   4.119
79807W        W52232  21.222  41.291  13.474
79808W        W52233  31.134  15.016   2.941
79809W        W52234  18.346   7.338   4.167
79810W        W52235  32.128  21.703  10.540
79811W        W52236   2.057   8.636   1.225
79812W        W52237  34.566  41.920   4.120
79813W        W52238  32.582  38.782  10.972
79814W        W52239  13.331   7.213  14.695
79815W        W52240  32.571  23.532   1.696
79816W        W52241  15.211  36.993  11.685
79817W        W52242   8.505  30.437  14.617
79818W        W52243  16.903   5.135   2.336
79819W        W52244  13.073  38.570   2.926
79820W        W52245   0.373  13.144   4.648
79821W        W52246  13.598  35.511  11.759
79822W        W52247  38.962  14.339   0.812
79823W        W52248  11.655  14.190   1.718
79824W        W52249  26.020  28.184   0.785
79825W        W52250  21.974   9.435  14.606
79826W        W52251  12.958   7.294   1.186
79827W        W52252  37.908   1.869   4.612
79828W        W52253  12.823  36.553  11.212
79829W        W52254   6.606  20.386  13.899
79830W        W52255  13.161   2.340   1.709
79831W        W52256  12.326  30.537  11.193
79832W        W52257  34.652  11.578   1.761
79833W        W52258  36.036  33.557  11.376
79834W        W52259  23.160   3.385  14.561
79835W        W52260  11.286  11.719  10.676
79836W        W52261  39.830  19.300   0.500
79837W        W52262  38.845  30.092  10.664
79838W        W52263  38.326  42.676   3.130
79839W        W52264   0.753  42.936   3.357
79840W        W52265   5.785  33.021   0.158
79841W        W52266  15.327  17.713  13.509
79842W        W52267   5.436  20.012  12.086
79843W        W52268  24.594  44.384   4.180
79844W        W52269  19.691  13.331   0.010
79845W        W52270  30.591  23.215  11.143
79846W        W52271  19.043  43.040   3.592
79847W        W52272  25.951  43.188  14.819
79848W        W52273  20.974   2.466  12.038
79849W        W52274  30.956   9.649   4.463
79850W        W52275  20.419   3.646   5.090
79851W        W52276  42.037   0.182  12.488
79852W        W52277  33.132  37.099  14.021
79853W        W52278   0.606  18.205   4.471
79854W        W52279  35.781  37.117   2.995
79855W        W52280  39.968  40.984  12.990
79856W        W52281   7.690   6.969   3.864
79857W        W52282  25.511  12.922   2.575
79858W        W52283  37.589   4.903   1.652
79859W        W52284  34.913   7.893  12.701
79860W        W52285   0.782   0.347   0.512
79861W        W52286   8.922  21.868   2.341
79862W        W52287  36.393   8.212  14.835
79863W        W52288  30.057  37.516   0.846
79864W        W52289  15.595  33.262  12.859
79865W        W52290  42.394  17.060  12.183
79866W        W52291  36.356  32.976   3.177
79867W        W52292  40.844  21.779  12.909
79868W        W52293  32.401  31.980   0.988
79869W        W52294  22.688  19.579  12.423
79870W        W52295  26.084   1.443   3.912
79871W        W52296  35.148  29.170   0.881
79872W        W52297  23.144  29.680   2.705
79873W        W52298  21.434  19.094  12.068
79874W        W52299   0.764  13.173  12.280
79875W        W52300  25.745  22.733   4.183
79876W        W52301  36.002   7.273   3.354
79877W        W52302   1.332  22.653   4.264
79878W        W52303  10.925  30.659   4.086
79879W        W52304  11.389  42.259   3.433
79880W        W52305  34.788   9.064   2.579
79881W        W52306   3.992  26.924   1.624
79882W        W52307  12.895   5.496   4.338
79883W        W52308  27.051   1.067   4.574
79884W        W52309  14.543   2.216  14.504
79885W        W52310   5.663  42.364  11.805
79886W        W52311  19.851  14.662  12.625
79887W        W52312  13.565  15.166   4.103
79888W        W52313  18.131  35.424  10.373
79889W        W52314  44.637   3.200  10.176
79890W        W52315  40.450  34.928   2.645
79891W        W52316  12.157  40.862  10.634
79892W        W52317   0.038  31.866  11.083
79893W        W52318  39.560  33.516   1.903
79894W        W52319  33.352  13.507   3.562
79895W        W52320  39.470  27.479   0.308
79896W        W52321  17.998  40.720   0.417
79897W        W52322  40.886  32.369   3.566
79898W        W52323  11.144  33.901  10.925
79899W        W52324   0.918  22.916  13.387
79900W        W52325  22.202  20.754  11.990
79901W        W52326  25.925  30.297   0.816
79902W        W52327   7.298  12.888   0.388
79903W        W52328   5.659  26.229   2.279
79904W        W52329  43.489   1.368  12.461
79905W        W52330  16.035  38.091  13.971
79906W        W52331  43.996  41.220  13.109
79907W        W52332   9.441  28.911   2.421
79908W        W52333   5.470  44.224  14.393
79909W        W52334  15.213  32.146   2.273
79910W        W52335  15.032   3.817  12.255
79911W        W52336  28.103  11.222  14.985
79912W        W52337   8.215  15.344   0.330
79913W        W52338   6.739   6.872   2.746
79914W        W52339  13.727   6.633   0.872
79915W        W52340   0.412  39.541   4.245
79916W        W52341   6.364   6.530  11.126
79917W        W52342   3.489  42.039   3.889
79918W        W52343  27.292   3.324  12.387
79919W        W52344  27.374  28.501   1.672
79920W        W52345  43.087  27.714   1.808
79921W        W52346   0.371  14.726   4.560
79922W        W52347  21.014  41.556   0.417
79923W        W52348  12.531  40.388   2.408
79924W        W52349   9.083  21.292   4.560
79925W        W52350   8.451  20.307   3.260
79926W        W52351  29.501   8.750  14.759
79927W        W52352   1.731  35.657   0.265
79928W        W52353  16.309  32.008  13.929
79929W        W52354  14.609  25.106   0.268
79930W        W52355  16.098  40.077  11.235
79931W        W52356  28.599  12.767  10.624
79932W        W52357  19.683  40.800  14.641
79933W        W52358  12.721  11.572   4.587
79934W        W52359  44.845  37.247  14.356
79935W        W52360   8.825  10.456  10.956
79936W        W52361  44.205  19.776   2.768
79937W        W52362   5.147  11.182   0.410
79938W        W52363  13.871  30.464   3.783
79939W        W52364  13.665  19.773  11.513
79940W        W52365  38.952  32.971  14.733
79941W        W52366   1.759  18.890  10.749
79942W        W52367  37.960  34.521  10.887
79943W        W52368   5.721  33.054   1.642
79944W        W52369  15.692  22.975  14.893
79945W        W52370  18.147  20.933  11.574
79946W        W52371  26.753  15.816  12.100
79947W        W52372  32.603  40.768   1.902
79948W        W52373   1.407  17.879   3.071
79949W        W52374   3.821  27.723   1.935
79950W        W52375  44.291  35.146  13.972
79951W        W52376  14.273  37.900   1.845
79952W        W52377  23.627  20.530   0.732
79953W        W52378  16.214  17.071   1.687
79954W        W52379  14.756  21.654   0.793
79955W        W52380  25.537  23.899   1.386
79956W        W52381   4.945  11.726  14.306
79957W        W52382  10.193  12.241  10.271
79958W        W52383   3.836   8.141   2.792
79959W        W52384  14.156  37.283   3.772
79960W        W52385  25.648  42.057   1.408
79961W        W52386  17.221  16.751  12.964
79962W        W52387   5.959  29.520   2.794
79963W        W52388  44.745  38.540   3.342
79964W        W52389  39.437  23.716   2.935
79965W        W52390   8.853  36.906  14.074
79966W        W52391   0.347   2.738   0.220
79967W        W52392  19.451  10.962  13.496
79968W        W52393  40.434  33.451  12.112
79969W        W52394  18.937  16.395  11.573
79970W        W52395  39.825   5.927   2.336
79971W        W52396  26.084  40.442  13.051
79972W        W52397  16.774  28.188  12.604
79973W        W52398  26.039  17.045  14.039
79974W        W52399  37.009   2.276   1.154
79975W        W52400   5.444   4.676   3.983
79976W        W52401  12.922   2.302  11.523
79977W        W52402  42.907  33.466  12.497
79978W        W52403   1.742  24.491  11.045
79979W        W52404   6.169  42.068   1.642
79980W        W52405  20.709  16.706  13.406
79981W        W52406  15.283   4.145   2.669
79982W        W52407  15.260  12.830   3.920
79983W        W52408  30.219  30.851   5.035
79984W        W52409   7.728  19.627   1.804
79985W        W52410  13.361  19.657  12.177
79986W        W52411  21.893  21.672  12.919
79987W        W52412  27.418   1.993  13.756
79988W        W52413   2.941  19.866  11.819
79989W        W52414  28.528  33.609  14.942
79990W        W52415  42.695  32.854  14.454
79991W        W52416  27.123  28.445   0.281
79992W        W52417   9.746   3.839  11.401
79993W        W52418  19.996   4.006  13.477
79994W        W52419  34.533  13.265  12.559
79995W        W52420  42.529  12.737   3.715
79996W        W52421  31.979  17.610   0.425
79997W        W52422  32.137   4.348  12.312
79998W        W52423   2.907  33.463   4.262
79999W        W52424  37.854   6.658  14.759
80000W        W52425  13.610  44.468  10.497
80001W        W52426  39.079  17.839   2.690
80002W        W52427  43.994   3.223   1.812
80003W        W52428  32.369  33.061   2.711
80004W        W52429  17.269  27.854   4.391
80005W        W52430  16.741  28.587  14.451
80006W        W52431  23.816   4.122   4.513
80007W        W52432  13.307   4.393   1.279
80008W        W52433   6.325   1.121   2.430
80009W        W52434  11.418  31.373  10.746
80010W        W52435   6.682  22.584   1.632
80011W        W52436  23.955  35.898  13.827
80012W        W52437  10.131  13.160  10.309
80013W        W52438   9.812  18.279  12.987
80014W        W52439  30.136  35.503   0.024
80015W        W52440   8.873   4.333   3.154
80016W        W52441  41.508  27.044  12.890
80017W        W52442  10.963  17.759   1.324
80018W        W52443  22.169  11.656  14.998
80019W        W52444  28.983  22.671   1.648
80020W        W52445  44.502   4.190  11.044
80021W        W52446  44.247  32.581  11.064
80022W        W52447  25.185  25.895   4.424
80023W        W52448  19.848  38.243   0.731
80024W        W52449  27.621  29.178  14.331
80025W        W52450  30.684  41.020   5.124
80026W        W52451   2.684   1.581   4.178
80027W        W52452  28.464  32.450   4.133
80028W        W52453  16.344  28.404  11.400
80029W        W52454  30.132  23.026  13.820
80030W        W52455   4.775  15.348   3.308
80031W        W52456   9.388   4.921   0.764
80032W        W52457  12.905  39.758   1.691
80033W        W52458  34.849   2.816  13.986
80034W        W52459  31.178   5.800   0.335
80035W        W52460   3.732  17.124  12.101
80036W        W52461  27.652   2.726  10.794
80037W        W52462  19.332   3.321   4.467
80038W        W52463   8.166  32.350   3.715
80039W        W52464  27.308  42.030  12.377
80040W        W52465  23.555  16.532  14.046
80041W        W52466  22.071  37.465  11.855
80042W        W52467  25.975  40.000   4.081
80043W        W52468   6.976  14.240  12.615
80044W        W52469   7.345  26.538  14.483
80045W        W52470  43.379  33.594  13.750
80046W        W52471  24.246  43.496   2.947
80047W        W52472  20.692  37.516  11.605
80048W        W52473   3.429  14.592  13.901
80049W        W52474  34.840  23.336  11.864
80050W        W52475  37.237  35.337  14.573
80051W        W52476  40.614  23.144   2.684
80052W        W52477   8.729  23.771  10.943
80053W        W52478  39.093  43.171  14.789
80054W        W52479  16.726  19.954   2.355
80055W        W52480  27.006  43.444  12.107
80056W        W52481  32.110  34.357   0.100
80057W        W52482  14.049  17.691  11.748
80058W        W52483   5.990   7.315   3.110
80059W        W52484  21.416  43.745   3.968
80060W        W52485  26.551  41.102   3.734
80061W        W52486   4.743   1.934  14.842
80062W        W52487  41.500   6.380   1.658
80063W        W52488  43.889  26.209  11.802
80064W        W52489  32.015   8.302   3.895
80065W        W52490  33.217  10.727   2.631
80066W        W52491  18.686  40.790   3.682
80067W        W52492   6.451  13.934   0.254
80068W        W52493  27.158  10.741  14.035
80069W        W52494  24.874  15.307   3.673
80070W        W52495  26.354  21.636  12.662
80071W        W52496   2.151  10.536   2.656
80072W        W52497   4.046  17.177  11.670
80073W        W52498  38.111  35.938  10.706
80074W        W52499   9.627  27.468  14.375
80075W        W52500  39.790  17.785  14.245
80076W        W52501  29.626   3.749  13.325
80077W        W52502  15.372   4.817   4.658
80078W        W52503  39.262   2.139   3.201
80079W        W52504  40.541  10.665   2.831
80080W        W52505  43.269  33.550   2.706
80081W        W52506  43.312  21.728   3.237
80082W        W52507  42.474  19.530   3.126
80083W        W52508  30.185  15.197   3.240
80084W        W52509   5.455  32.449  11.964
80085W        W52510  19.228  12.994  12.090
80086W        W52511  32.838   9.481  13.882
80087W        W52512  40.597  13.761   1.347
80088W        W52513   8.609   4.275  12.425
80089W        W52514  32.060  29.982   4.720
80090W        W52515  14.084  42.875   0.156
80091W        W52516   7.047  36.548  11.365
80092W        W52517  13.164  13.767  11.130
80093W        W52518  16.260  31.673   5.039
80094W        W52519  27.589  29.340   0.940
80095W        W52520  10.635  17.682  11.513
80096W        W52521   5.258  27.065  12.626
80097W        W52522  26.863  40.110  13.363
80098W        W52523  31.858  12.873   0.921
80099W        W52524  30.391   8.445  13.533
80100W        W52525  24.551   1.228   0.312
80101W        W52526  22.640  28.178  12.104
80102W        W52527  42.451  24.127  11.172
80103W        W52528  30.780  38.107  12.997
80104W        W52529  13.160  35.590  10.521
80105W        W52530  42.946   3.392  12.923
80106W        W52531  28.897  39.245  13.960
80107W        W52532  35.833  14.775   4.258
80108W        W52533  43.896   9.456   1.275
80109W        W52534  12.372  17.231  13.829
80110W        W52535  39.817  15.136  12.904
80111W        W52536  44.363  37.812  11.217
80112W        W52537   0.609  23.130   4.906
80113W        W52538  36.327  27.685  13.659
80114W        W52539   0.583  14.425  12.977
80115W        W52540  28.336   5.268   1.760
80116W        W52541  34.987   5.911  14.972
80117W        W52542  23.554  43.585   4.038
80118W        W52543  26.096  11.916   2.839
80119W        W52544  27.417  21.040   0.337
80120W        W52545  44.837   3.548  11.482
80121W        W52546  44.423  31.146   1.681
80122W        W52547  31.546  15.653   3.352
80123W        W52548  34.818  17.206  14.912
80124W        W52549  11.137  31.673   4.688
80125W        W52550  40.800  28.459  10.768
80126W        W52551  43.374  30.197   1.686
80127W        W52552  32.099  24.196   4.305
80128W        W52553  19.778  14.152  13.496
80129W        W52554  27.651  13.609  12.121
80130W        W52555  21.635  18.112   3.974
80131W        W52556   0.310  37.080   2.276
80132W        W52557  42.738  44.980  14.385
80133W        W52558  27.711  20.550   2.838
80134W        W52559  31.936  38.289  13.894
80135W        W52560  40.814  34.038  10.564
80136W        W52561  21.691  35.083  13.027
80137W        W52562  10.705  34.835  12.010
80138W        W52563  33.115  35.448  10.711
80139W        W52564  31.367  21.771   0.816
80140W        W52565  44.439  42.338   3.196
80141W        W52566  36.957   1.584  12.393
80142W        W52567  32.014   8.340   0.344
80143W        W52568   9.733   9.134   1.788
80144W        W52569   0.043  38.356  10.717
80145W        W52570  28.155  36.645   3.404
80146W        W52571  14.637  24.479   1.489
80147W        W52572  33.033  17.626  11.221
80148W        W52573  18.293  19.063  11.132
80149W        W52574  27.913  31.093   3.636
80150W        W52575  18.371  41.942  14.880
80151W        W52576  42.772  38.003   2.631
80152W        W52577   3.785  35.133  11.246
80153W        W52578  27.551  22.844   2.286
80154W        W52579  10.371   1.296  10.666
80155W        W52580  14.181  15.005   1.919
80156W        W52581   4.512  14.914  13.974
80157W        W52582  10.581  32.578  11.429
80158W        W52583  11.510   3.927   0.833
80159W        W52584   4.313  17.626  14.372
80160W        W52585  40.039  44.720   2.823
80161W        W52586  14.627   1.336   5.069
80162W        W52587   3.882  11.920  14.857
80163W        W52588  22.580  42.501   1.250
80164W        W52589  40.980  21.824   0.367
80165W        W52590  31.071   2.311  14.757
80166W        W52591  11.413  24.442   0.703
80167W        W52592  19.955   5.922   0.815
80168W        W52593   7.204  32.894   2.403
80169W        W52594   4.793  24.501   3.280
80170W        W52595  29.169   8.522   3.776
80171W        W52596  42.393  13.360   1.025
80172W        W52597  31.137  27.173  10.666
80173W        W52598  20.293  14.555  14.311
80174W        W52599   5.514  30.194   3.634
80175W        W52600  41.069  44.466   0.071
80176W        W52601  14.358  12.604  12.455
80177W        W52602  42.116  39.498  12.891
80178W        W52603   7.157  18.355  13.004
80179W        W52604  37.634  25.589   0.275
80180W        W52605  19.557  25.127  13.978
80181W        W52606  25.578  42.815   0.650
80182W        W52607  32.608  19.014  14.594
80183W        W52608  27.672  27.583  10.843
80184W        W52609  28.709  16.829  12.520
80185W        W52610  29.760  38.348  11.532
80186W        W52611  44.207  15.055  12.944
80187W        W52612  24.530  11.871   2.181
80188W        W52613  40.233  26.085  11.182
80189W        W52614  42.764   5.774  14.409
80190W        W52615  33.293  30.032   0.839
80191W        W52616  30.646  35.748   3.218
80192W        W52617  44.328  16.284  12.473
80193W        W52618  28.554  37.177  14.877
80194W        W52619  21.101  29.629   0.229
80195W        W52620   4.933  33.888   2.159
80196W        W52621  27.360   3.672   0.088
80197W        W52622   5.631  32.946  14.297
80198W        W52623  39.061   9.205  11.886
80199W        W52624  37.326   8.290  11.623
80200W        W52625  10.616  18.968   0.081
80201W        W52626  22.032  30.108  10.672
80202W        W52627  11.075   2.944  12.003
80203W        W52628  17.650  33.822  12.725
80204W        W52629  43.561  42.378   1.390
80205W        W52630   0.543  14.749   3.646
80206W        W52631  30.678  17.548   2.385
80207W        W52632   5.923  13.266   2.453
80208W        W52633  13.030  40.503  13.903
80209W        W52634  37.153  16.716   3.676
80210W        W52635  10.894  36.576  10.638
80211W        W52636   0.665  37.296  14.936
80212W        W52637  17.241  26.715   1.729
80213W        W52638   5.592  41.329   1.286
80214W        W52639  15.480  35.391   5.036
80215W        W52640  37.295  30.543   1.955
80216W        W52641  22.750  25.251  14.482
80217W        W52642  44.370   5.326   0.301
80218W        W52643  27.662  36.452   1.507
80219W        W52644  20.654  41.095   4.376
80220W        W52645   5.958  10.781   3.218
80221W        W52646  29.145  35.735  14.266
80222W        W52647  37.235   4.977  10.961
80223W        W52648  44.147  31.321   3.918
80224W        W52649  40.876  13.004  14.591
80225W        W52650  20.573  29.621  10.695
80226W        W52651  27.520  31.531  11.568
80227W        W52652  22.711  36.811   0.302
80228W        W52653   0.758  31.049  10.225
80229W        W52654  33.400  24.178  10.424
80230W        W52655  39.490   0.521   3.132
80231W        W52656   0.248  18.251   1.245
80232W        W52657   8.237   2.699  13.700
80233W        W52658  17.059   6.681   1.340
80234W        W52659  37.426  20.765   2.828
80235W        W52660  39.682  34.965   1.349
80236W        W52661  13.330  17.527  11.480
80237W        W52662  17.754  36.009  11.355
80238W        W52663  10.546  41.425  12.050
80239W        W52664   6.018  43.858   2.751
80240W        W52665  14.083   7.357   3.276
80241W        W52666  22.496  13.377   1.824
80242W        W52667  32.467  25.932  14.005
80243W        W52668   2.761  26.095  13.067
80244W        W52669   1.824  29.013  10.418
80245W        W52670  37.985  24.033   1.403
80246W        W52671  31.169   7.266   3.404
80247W        W52672  20.975  31.952   0.814
80248W        W52673  42.823  12.310   5.063
80249W        W52674  40.307  14.121  13.496
80250W        W52675  21.763  10.825   4.626
80251W        W52676  23.765  24.250  11.647
80252W        W52677  41.734  31.911   2.697
80253W        W52678   1.896  28.239  13.907
80254W        W52679  35.000   8.140  10.420
80255W        W52680  14.265   9.378   0.683
80256W        W52681  27.579  38.544   1.250
80257W        W52682  10.392  39.388  11.999
80258W        W52683  41.254  16.119   1.177
80259W        W52684  18.589  26.563  11.052
80260W        W52685   7.111  16.086   0.718
80261W        W52686  21.753  34.084   4.607
80262W        W52687  25.608   4.500  13.567
80263W        W52688  29.241   4.953  12.580
80264W        W52689  32.150  21.652   3.774
80265W        W52690  17.037  30.680  14.008
80266W        W52691  41.218  35.926  11.616
80267W        W52692  33.449  36.006   0.601
80268W        W52693  12.089  22.423  11.234
80269W        W52694  25.762   9.186   1.769
80270W        W52695  25.107  44.267   4.173
80271W        W52696  20.161  27.806  12.897
80272W        W52697   4.777   1.914  13.902
80273W        W52698   8.909  40.295   2.322
80274W        W52699   9.435  28.249  13.524
80275W        W52700  19.873  23.484   0.481
80276W        W52701  42.786  11.102   2.831
80277W        W52702  14.044  17.735   3.654
80278W        W52703  22.225  38.519   3.126
80279W        W52704  25.533  19.042   0.191
80280W        W52705  16.574  36.982   1.765
80281W        W52706   5.063  44.287  10.169
80282W        W52707  18.796  13.088   2.174
80283W        W52708  27.777  17.243  12.647
80284W        W52709   1.826  25.051  13.894
80285W        W52710  41.652  20.634   4.664
80286W        W52711  32.465  36.670   4.466
80287W        W52712  44.227  40.891  12.795
80288W        W52713  39.721   0.407  11.183
80289W        W52714  27.494  31.809   2.484
80290W        W52715   0.308  42.748  14.813
80291W        W52716  31.376  11.158  14.390
80292W        W52717  15.593   6.739  13.505
80293W        W52718  17.472  13.428   0.974
80294W        W52719   1.169  37.573   0.848
80295W        W52720  12.774   5.241  11.975
80296W        W52721   1.890  32.047  12.594
80297W        W52722  31.269  21.253   2.989
80298W        W52723  21.081  23.017  11.559
80299W        W52724  42.069  19.051   1.472
80300W        W52725  29.193  17.705   0.018
80301W        W52726   0.985  14.294  11.638
80302W        W52727  24.706   9.086   1.724
80303W        W52728  28.014  38.093  14.741
80304W        W52729  12.376  30.848  10.675
80305W        W52730  21.711   9.727   0.825
80306W        W52731  39.725  30.433   4.515
80307W        W52732  18.658  33.566  13.963
80308W        W52733  34.112  28.692   2.291
80309W        W52734  43.808  33.482   1.597
80310W        W52735  35.191   8.783   5.042
80311W        W52736  11.344  22.155  12.494
80312W        W52737   4.859  12.395  14.911
80313W        W52738   5.737  14.810   4.289
80314W        W52739  29.900  22.937   1.318
80315W        W52740  19.230   0.328  13.467
80316W        W52741  12.834  21.973   4.250
80317W        W52742  35.029  22.449   4.028
80318W        W52743   0.209  28.991  11.899
80319W        W52744   6.847  34.372  12.592
80320W        W52745  40.890  43.501  12.058
80321W        W52746  44.981  17.108   0.376
80322W        W52747  31.938  17.941   1.926
80323W        W52748   9.288  19.438  13.342
80324W        W52749   7.303  15.142   0.745
80325W        W52750  22.577   1.877  14.884
80326W        W52751  30.081  22.141   2.404
80327W        W52752   1.508   4.188   2.786
80328W        W52753  19.960  29.513   2.303
80329W        W52754  28.450  38.863   3.762
80330W        W52755  42.829  16.599  10.440
80331W        W52756  24.505  13.784   4.576
80332W        W52757  22.535  25.334  11.515
80333W        W52758  20.722  25.120   2.315
80334W        W52759  42.342  21.697   4.116
80335W        W52760  30.981  18.591  11.534
80336W        W52761   1.540   1.943   1.390
80337W        W52762  21.252   8.773  13.782
80338W        W52763  43.878  40.335  14.783
80339W        W52764   3.787  37.231  13.321
80340W        W52765  17.758  14.897  12.904
80341W        W52766  22.631  24.225  13.353
80342W        W52767  20.638  38.151   1.057
80343W        W52768   0.729  38.436  11.175
80344W        W52769  42.551  29.227  11.170
80345W        W52770  26.230   8.350  12.424
80346W        W52771   5.371  10.792  12.833
80347W        W52772  17.846  34.837   2.885
80348W        W52773  15.847  35.988  10.630
80349W        W52774  22.915   8.966   3.839
80350W        W52775  39.541  18.589  13.770
80351W        W52776  26.185   0.497  10.392
80352W        W52777  31.581  36.490   4.565
80353W        W52778  36.838  40.403  13.079
80354W        W52779  25.860  27.955  11.039
80355W        W52780   4.816  20.195  14.554
80356W        W52781  22.411  40.528   4.174
80357W        W52782   3.939  23.476   1.462
80358W        W52783  24.431  21.782  11.692
80359W        W52784  23.734  41.949  10.746
80360W        W52785   7.725  37.434  13.775
80361W        W52786   2.359   2.816   0.350
80362W        W52787   8.844  44.714  14.317
80363W        W52788  30.838   3.004  13.851
80364W        W52789  23.327  10.144   5.110
80365W        W52790  25.100  33.586  11.149
80366W        W52791  10.870  10.295   3.363
80367W        W52792  37.025  26.635   1.771
80368W        W52793  41.838  22.648  12.501
80369W        W52794  38.780  19.871  13.422
80370W        W52795  30.563   6.527   3.782
80371W        W52796   3.771  29.852   1.998
80372W        W52797  26.006   6.407   1.036
80373W        W52798  11.180   6.359  10.769
80374W        W52799  15.611  16.592  12.628
80375W        W52800  31.473  18.313   0.377
80376W        W52801  13.956  42.090   2.973
80377W        W52802  11.653  21.726  12.457
80378W        W52803   7.646   8.388   1.437
80379W        W52804  39.720  10.073   3.612
80380W        W52805   7.839   3.107   0.704
80381W        W52806  30.626   5.480   3.518
80382W        W52807   5.608  31.349   2.750
80383W        W52808  21.138  15.375  13.897
80384W        W52809  41.884  40.500  14.013
80385W        W52810  19.127  20.813  12.566
80386W        W52811   0.713  35.353  12.594
80387W        W52812  25.764  12.286   2.660
80388W        W52813  38.747   4.664  14.399
80389W        W52814  29.000  30.898  14.861
80390W        W52815   3.458   3.289   0.718
80391W        W52816  25.455  20.002  11.085
80392W        W52817  39.961  41.217   2.258
80393W        W52818  24.034   0.259  13.572
80394W        W52819   7.634  44.946   4.819
80395W        W52820  18.575   6.478  11.089
80396W        W52821   6.470   0.387  12.837
80397W        W52822  38.331  43.906  13.030
80398W        W52823  26.336   9.906   1.398
80399W        W52824  44.510  17.189  14.071
80400W        W52825  27.036  31.821  12.129
80401W        W52826  23.489  26.109  13.569
80402W        W52827   7.634  13.297   0.386
80403W        W52828  43.437   3.296   2.725
80404W        W52829  12.876  43.814  14.550
80405W        W52830  29.709  37.862  14.900
80406W        W52831  23.068  31.982  13.337
80407W        W52832  42.428  23.186   1.562
80408W        W52833  14.316  11.248   2.465
80409W        W52834   0.241  22.118   2.852
80410W        W52835  23.623  43.024  14.849
80411W        W52836   9.094   6.198   2.603
80412W        W52837   2.381  28.456  13.556
80413W        W52838  31.456  37.364   0.050
80414W        W52839  13.117   4.454  11.921
80415W        W52840  27.077  12.329   0.397
80416W        W52841  40.455  14.116  13.999
80417W        W52842  23.603  30.501   1.541
80418W        W52843  38.477  43.552   1.908
80419W        W52844  44.627  20.306  11.568
80420W        W52845  24.474  40.771  12.105
80421W        W52846  14.181  28.875   2.386
80422W        W52847  40.877  29.200   3.378
80423W        W52848  10.188  10.769  11.111
80424W        W52849   6.907   8.127   2.416
80425W        W52850  41.365   8.741   2.221
80426W        W52851  21.845  21.663  14.716
80427W        W52852  42.150  28.540  13.084
80428W        W52853   6.366   1.620  14.521
80429W        W52854  29.611  25.671  12.859
80430W        W52855   5.810  13.305   2.967
80431W        W52856  16.593  41.979   1.911
80432W        W52857  39.630  13.090   1.594
80433W        W52858  31.175   8.025  14.841
80434W        W52859  22.575  30.795  12.960
80435W        W52860  22.296  38.988  14.906
80436W        W52861  25.692   2.533  10.723
80437W        W52862  15.140  21.376   4.089
80438W        W52863  15.673  25.520  10.135
80439W        W52864  31.092   5.543  13.566
80440W        W52865  40.608  44.378  13.796
80441W        W52866   5.338   9.669  14.465
80442W        W52867  43.418  29.267  10.548
80443W        W52868  21.478  26.427   4.422
80444W        W52869  32.562  44.281  12.939
80445W        W52870  43.281   4.638  10.762
80446W        W52871  22.579  38.148   0.549
80447W        W52872   6.839  36.833   2.131
80448W        W52873  15.148  30.979  10.700
80449W        W52874  38.195  30.832   2.776
80450W        W52875  39.357   0.391   4.506
80451W        W52876  14.982  44.219   2.357
80452W        W52877  31.916  21.215   2.973
80453W        W52878  26.457   4.886   1.839
80454W        W52879  16.689  19.743   4.868
80455W        W52880   7.874  30.942   4.293
80456W        W52881  27.047   5.482   3.568
80457W        W52882  32.935   1.970  11.521
80458W        W52883  27.544  39.217   0.520
80459W        W52884   4.410  39.471   3.163
80460W        W52885  38.611  13.222  11.748
80461W        W52886   0.503  32.464   0.965
80462W        W52887   7.865  42.026  13.537
80463W        W52888  24.483  13.728  12.487
80464W        W52889  17.630   7.623  11.037
80465W        W52890  26.751  16.644  11.643
80466W        W52891  40.348  30.696   2.748
80467W        W52892   6.820  21.673   2.485
80468W        W52893  44.331  21.814   3.532
80469W        W52894  14.267  34.387   1.221
80470W        W52895  43.788  42.084  11.162
80471W        W52896   0.837  23.434   4.147
80472W        W52897   5.267   9.229  13.102
80473W        W52898  36.322  42.409  11.009
80474W        W52899  15.424  34.855  13.016
80475W        W52900   7.783  39.667   1.109
80476W        W52901  15.111   6.814  11.188
80477W        W52902  38.746   5.959   1.994
80478W        W52903  36.277  12.772  12.918
80479W        W52904  14.671  16.292  10.670
80480W        W52905   9.380  40.617   3.604
80481W        W52906  34.791  18.035   3.653
80482W        W52907  13.220  43.602   2.732
80483W        W52908  17.345  18.338   0.027
80484W        W52909   5.377  28.175  13.717
80485W        W52910  10.848  13.823   2.520
80486W        W52911   6.697  18.155  14.215
80487W        W52912   5.904  43.595   4.241
80488W        W52913  37.918  39.574   0.776
80489W        W52914   6.864  32.699   2.738
80490W        W52915  35.469  13.967  14.827
80491W        W52916  35.627  17.787   0.403
80492W        W52917  16.177  40.635   0.438
80493W        W52918   4.481  34.111   3.200
80494W        W52919  15.244  27.508  11.681
80495W        W52920  39.307   2.203  12.057
80496W        W52921  10.098  16.726  12.583
80497W        W52922   5.300  38.284   0.354
80498W        W52923  12.483  38.031   2.333
80499W        W52924  12.283  36.797  10.561
80500W        W52925  43.324  22.317  14.323
80501W        W52926  39.775  39.409  14.362
80502W        W52927  18.299  28.771   4.469
80503W        W52928  32.748   1.142   0.847
80504W        W52929  12.388  18.066   1.424
80505W        W52930  23.622  28.607   4.600
80506W        W52931  27.065  36.025  13.992
80507W        W52932  41.885  22.760   1.491
80508W        W52933  28.811  27.715   1.245
80509W        W52934  34.046  13.115   1.358
80510W        W52935  11.126  12.750  13.376
80511W        W52936  31.352  33.973   1.691
80512W        W52937  34.353  35.186  13.923
80513W        W52938  37.050  28.407  14.940
80514W        W52939   1.482   5.142  15.000
80515W        W52940  31.978   2.742  11.537
80516W        W52941  40.409  21.352  10.675
80517W        W52942  17.884  13.630   1.880
80518W        W52943  11.844   4.173  13.023
80519W        W52944  27.000  35.410  12.052
80520W        W52945  26.740   4.211  11.890
80521W        W52946  30.114  10.082  14.882
80522W        W52947  33.252  33.342   0.928
80523W        W52948  41.799  17.787  13.111
80524W        W52949  42.549   1.670   1.337
80525W        W52950  33.343  12.108   2.715
80526W        W52951  24.698  43.506   3.200
80527W        W52952   7.009  36.076  11.186
80528W        W52953  10.666  39.858  13.556
80529W        W52954  41.911  35.746   1.327
80530W        W52955  15.377  13.685   1.828
80531W        W52956  30.462  27.001  14.290
80532W        W52957  26.927  16.762  10.892
80533W        W52958  35.285  37.889  11.327
80534W        W52959  39.465  19.095  13.081
80535W        W52960  38.097   3.693   3.075
80536W        W52961  25.577  38.827   2.955
80537W        W52962  37.950  19.546  12.595
80538W        W52963   6.178  39.855   0.261
80539W        W52964  23.990  11.826  10.242
80540W        W52965  32.458  15.492   0.280
80541W        W52966  29.779  34.959  12.361
80542W        W52967  16.205  12.250   0.365
80543W        W52968  14.773  42.847  13.976
80544W        W52969  27.705   0.966   0.231
80545W        W52970   6.135  27.400   0.480
80546W        W52971  35.270   9.136   2.775
80547W        W52972   3.961  23.287  12.825
80548W        W52973   3.976  16.266   0.372
80549W        W52974   4.295  31.193   4.571
80550W        W52975   9.244  39.224  13.203
80551W        W52976   8.343   4.827  12.303
80552W        W52977   0.087  35.065  14.949
80553W        W52978   4.718  12.998   4.910
80554W        W52979  30.156  39.980  11.043
80555W        W52980   3.811  18.568   1.956
80556W        W52981  30.882  25.014   1.446
80557W        W52982  17.406  35.016   0.391
80558W        W52983  38.452   6.876   2.418
80559W        W52984  32.232   6.650   0.425
80560W        W52985  11.463   4.245  11.485
80561W        W52986  12.071  24.395   5.469
80562W        W52987  17.001  43.405  14.375
80563W        W52988  29.500  12.543  11.152
80564W        W52989  39.238  32.564  14.865
80565W        W52990  29.434  10.214   4.152
80566W        W52991  39.068  26.430   1.858
80567W        W52992  41.916  44.312  12.111
80568W        W52993  19.036  22.690  12.136
80569W        W52994   0.549   9.239   4.530
80570W        W52995  11.340  36.914   1.739
80571W        W52996  10.601  22.978   2.786
80572W        W52997  28.976  13.274   3.302
80573W        W52998  39.910  13.643   1.676
80574W        W52999  28.365  33.842  11.253
80575W        W53000  15.086  37.865  14.404
80576W        W53001  29.728  31.907  11.544
80577W        W53002  32.429  14.475   2.938
80578W        W53003   1.299   3.651  10.719
80579W        W53004  20.535  32.395  12.653
80580W        W53005   1.193  19.541   4.534
80581W        W53006  28.576  28.748  10.636
80582W        W53007  23.935  42.992   3.406
80583W        W53008   6.818  38.903   1.952
80584W        W53009  14.078   1.049  13.782
80585W        W53010  28.395  37.406   0.858
80586W        W53011  32.064  22.121  11.693
80587W        W53012  19.179  10.404   4.556
80588W        W53013  31.921  44.871   1.893
80589W        W53014  15.182  10.077   3.196
80590W        W53015   4.339  22.666  14.465
80591W        W53016  23.596  30.149  12.993
80592W        W53017  32.748  42.338   4.531
80593W        W53018  39.015  26.922  10.529
80594W        W53019  29.283  39.244  14.786
80595W        W53020  36.372  12.056   0.452
80596W        W53021  12.321  34.837  12.132
80597W        W53022  33.142  23.793   0.322
80598W        W53023   2.287  30.513   3.247
80599W        W53024  21.287   1.646  13.162
80600W        W53025  42.818  31.545   4.938
80601W        W53026  25.530  32.671   0.893
80602W        W53027  34.855  42.460  13.903
80603W        W53028  12.633  29.432  11.169
80604W        W53029  35.338  35.969  12.429
80605W        W53030  25.949   3.283   3.816
80606W        W53031  42.229  43.310   3.646
80607W        W53032  40.403  25.725  13.826
80608W        W53033  38.847   1.652  14.050
80609W        W53034  22.078  32.507  13.828
80610W        W53035  28.000  12.134  14.577
80611W        W53036   9.621  21.606  11.124
80612W        W53037  41.592   3.149  12.572
80613W        W53038  41.748  15.679   0.275
80614W        W53039  25.624  18.473  12.563
80615W        W53040   0.935  41.915   0.537
80616W        W53041  35.711  14.714   1.670
80617W        W53042  44.058  33.831   0.834
80618W        W53043  17.979   3.382   0.299
80619W        W53044  22.149  27.772  14.492
80620W        W53045  42.022   2.086  14.332
80621W        W53046  23.469   3.330   5.265
80622W        W53047  35.177  22.428   3.516
80623W        W53048  36.788  10.135   2.565
80624W        W53049  38.451  14.207  11.224
80625W        W53050  18.500  40.272  14.181
80626W        W53051  20.566  12.264   2.305
80627W        W53052  11.245   2.343   5.413
80628W        W53053  37.031   8.239  11.115
80629W        W53054  29.710  34.182  12.474
80630W        W53055   6.189  14.289  13.025
80631W        W53056  44.348  30.013   1.303
80632W        W53057  25.713  11.694  12.505
80633W        W53058   5.469  38.906  10.714
80634W        W53059   2.761  28.592   3.097
80635W        W53060  11.300  17.960  14.731
80636W        W53061   4.454  13.370   2.703
80637W        W53062  37.829  34.133  12.521
80638W        W53063  36.304   8.368  11.640
80639W        W53064  43.259  24.177  14.509
80640W        W53065  20.155  11.345  10.570
80641W        W53066  16.576  29.916   1.377
80642W        W53067  36.140  29.989  11.313
80643W        W53068   7.001  25.195   1.426
80644W        W53069  26.931  24.148   3.662
80645W        W53070  29.161   4.612  13.452
80646W        W53071  29.823  39.386   0.316
80647W        W53072  17.268  33.008   1.818
80648W        W53073   8.108   1.223   4.615
80649W        W53074   7.691  18.502   0.059
80650W        W53075  43.736  19.290   4.024
80651W        W53076   7.392  19.127   3.560
80652W        W53077   3.566  10.965  10.775
80653W        W53078  36.421  27.374  12.008
80654W        W53079   2.794  23.427  14.752
80655W        W53080  32.024   0.996  10.643
80656W        W53081  31.663  22.420   9.683
80657W        W53082  11.526  22.566  10.149
80658W        W53083  19.346   5.055   0.863
80659W        W53084  20.943   6.371  11.179
80660W        W53085  37.244   6.246  11.914
80661W        W53086   1.767  18.204  13.393
80662W        W53087  42.514  16.514   4.630
80663W        W53088  44.369  43.427  14.276
80664W        W53089  43.815  11.719  13.011
80665W        W53090  30.908  22.029   4.382
80666W        W53091   7.463   2.751   0.901
80667W        W53092  17.240  26.571  12.077
80668W        W53093  18.615   8.274   1.480
80669W        W53094  16.772  24.583   3.898
80670W        W53095   0.005  31.889  12.565
80671W        W53096  24.313  20.178   1.837
80672W        W53097  25.257   8.588   0.135
80673W        W53098  19.333  35.458  14.032
80674W        W53099  43.959  37.318   0.926
80675W        W53100  23.575  27.848   0.714
80676W        W53101  40.639  31.925   5.243
80677W        W53102  27.489  31.859  14.046
80678W        W53103  23.281  30.256   4.084
80679W        W53104  18.529  18.288   5.070
80680W        W53105   8.061  44.533  13.819
80681W        W53106  36.369  18.903  13.009
80682W        W53107  38.123  29.123   4.697
80683W        W53108   0.022  37.907  14.830
80684W        W53109  15.821  20.595   2.211
80685W        W53110  10.860  12.319  11.142
80686W        W53111   8.091  27.955   3.657
80687W        W53112  39.264  42.305  13.013
80688W        W53113  22.092  31.414   1.182
80689W        W53114  12.051  35.257  12.045
80690W        W53115   3.946  42.062   2.314
80691W        W53116   0.277   8.527  11.641
80692W        W53117  18.726  36.063  11.926
80693W        W53118  17.957  28.859   2.826
80694W        W53119  29.449  26.810   0.310
80695W        W53120  41.226  14.117   0.004
80696W        W53121  22.189  10.685   0.396
80697W        W53122   7.146  39.487  14.250
80698W        W53123  26.950  24.126   1.000
80699W        W53124   3.213  36.047   1.345
80700W        W53125   6.324  16.018  14.754
80701W        W53126  10.389  23.186   5.386
80702W        W53127  34.328  39.869  10.723
80703W        W53128  19.108  29.115  10.754
80704W        W53129  13.128  33.382   2.404
80705W        W53130  16.260  22.112   2.629
80706W        W53131  34.811   7.816  13.920
80707W        W53132  15.965   8.569  11.481
80708W        W53133  24.271   3.220  12.506
80709W        W53134  22.755  29.961   2.342
80710W        W53135  44.869   2.873  11.945
80711W        W53136  10.218  35.428  14.399
80712W        W53137  12.902   8.479  14.429
80713W        W53138  39.587   5.413  11.143
80714W        W53139  17.674  32.320   1.240
80715W        W53140   5.000   6.214  14.393
80716W        W53141  11.686  13.779  10.606
80717W        W53142  22.393  31.310   2.946
80718W        W53143   2.408  31.079  13.971
80719W        W53144  31.542  18.206   1.723
80720W        W53145   8.626   3.709   1.360
80721W        W53146  39.012  22.732   3.232
80722W        W53147  11.467  21.024   4.539
80723W        W53148   2.718  14.185   0.998
80724W        W53149   9.727   6.897   1.158
80725W        W53150  11.387  38.726  14.360
80726W        W53151  20.856  42.756  11.010
80727W        W53152  14.347   7.620  12.467
80728W        W53153  31.168  34.136   4.480
80729W        W53154  24.250  12.141   0.939
80730W        W53155   2.430  42.889   5.009
80731W        W53156  38.412  17.804  14.827
80732W        W53157  39.393  22.854   2.384
80733W        W53158  33.713   7.235  12.424
80734W        W53159  12.114  34.410   0.790
80735W        W53160  25.061  19.708  14.718
80736W        W53161  39.657  15.532   1.651
80737W        W53162  14.583  14.600  14.876
80738W        W53163  28.908  11.200  10.713
80739W        W53164  26.025  23.222   2.856
80740W        W53165  19.115   8.924  14.100
80741W        W53166  19.077  21.618  10.633
80742W        W53167  15.132  12.051   0.479
80743W        W53168   4.914  39.566   1.287
80744W        W53169  23.927  25.964   4.137
80745W        W53170   3.890  44.246   2.241
80746W        W53171  20.256  27.238   2.935
80747W        W53172  25.698  34.601  12.150
80748W        W53173  31.674   5.374   4.848
80749W        W53174  14.257  17.213  11.874
80750W        W53175  32.599  28.946  14.489
80751W        W53176  34.488  14.852  12.997
80752W        W53177  12.731  16.626   0.063
80753W        W53178  19.268  26.577   3.283
80754W        W53179  27.892  19.301   1.069
80755W        W53180   8.624  22.093  14.420
80756W        W53181  32.599  30.168   3.325
80757W        W53182  12.312   6.104   4.893
80758W        W53183  18.213  32.532   3.249
80759W        W53184  16.312   1.904   0.784
80760W        W53185  32.641  36.042   0.939
80761W        W53186   0.364  33.905   3.712
80762W        W53187  37.577  31.883  14.299
80763W        W53188  26.252   5.878  13.833
80764W        W53189  29.743  37.306   4.597
80765W        W53190  14.245  24.385  13.762
80766W        W53191  27.925  44.444  11.972
80767W        W53192  20.046  20.790  14.974
80768W        W53193   8.742   4.708   2.798
80769W        W53194  34.807   5.946   1.798
80770W        W53195  43.011  34.484  13.636
80771W        W53196  35.034   6.490  10.722
80772W        W53197  24.427  43.088   3.315
80773W        W53198  34.051  26.956   4.278
80774W        W53199  15.115  24.699   1.486
80775W        W53200  32.508  41.059  11.600
80776W        W53201  30.385  26.769   0.326
80777W        W53202   0.218   9.897  12.143
80778W        W53203   2.887  32.953  11.905
80779W        W53204   9.423  36.859  13.336
80780W        W53205  38.025   2.259  14.292
80781W        W53206   5.427   6.855  13.906
80782W        W53207   0.456  29.227   0.907
80783W        W53208  40.498  27.413  10.519
80784W        W53209  22.991   1.970  13.127
80785W        W53210  10.189  31.950   5.062
80786W        W53211  29.180  13.322   2.102
80787W        W53212  31.140  23.774   9.837
80788W        W53213  27.150  19.685   2.707
80789W        W53214  33.936  23.462  14.876
80790W        W53215   9.731  23.081  12.606
80791W        W53216  36.340  11.044  13.881
80792W        W53217  13.196  30.917   2.350
80793W        W53218  10.684  42.066   3.804
80794W        W53219  31.185  19.789  12.087
80795W        W53220  10.871  11.621   3.245
80796W        W53221  16.548  25.474  13.502
80797W        W53222  30.424  22.936   4.260
80798W        W53223  19.232  44.710   2.211
80799W        W53224  14.214  10.716   1.641
80800W        W53225  42.559  20.194   3.265
80801W        W53226  30.972  40.294  10.540
80802W        W53227   5.522  39.409  13.595
80803W        W53228  32.385  36.515   1.747
80804W        W53229  13.318   0.341  12.895
80805W        W53230  20.023   2.212   0.315
80806W        W53231   0.901  25.148   3.600
80807W        W53232  28.901  38.533   1.842
80808W        W53233  34.066  32.486   1.442
80809W        W53234   2.270  21.723  12.544
80810W        W53235   6.223  22.081   1.579
80811W        W53236  32.917   2.565   1.920
80812W        W53237  22.449   9.513   4.161
80813W        W53238   3.447  23.650  10.662
80814W        W53239  19.746  18.352  11.502
80815W        W53240  14.775   9.135   3.362
80816W        W53241  26.913  38.399  12.895
80817W        W53242  26.902  31.166   0.428
80818W        W53243  40.904   9.664   3.167
80819W        W53244  28.049   2.906  13.735
80820W        W53245  10.917  11.937   4.666
80821W        W53246  11.714  20.068  11.362
80822W        W53247  20.021  32.382  13.373
80823W        W53248  42.906  36.507  12.666
80824W        W53249  31.589  18.876  13.165
80825W        W53250  43.314  42.245  13.908
80826W        W53251  34.676  38.605   1.238
80827W        W53252  24.531  28.446   3.374
80828W        W53253  39.020   0.513  12.556
80829W        W53254  16.710  16.748   0.378
80830W        W53255   7.113  37.970   3.674
80831W        W53256  39.429  38.311  13.017
80832W        W53257  20.096  42.335   0.330
80833W        W53258   4.118  31.204  13.195
80834W        W53259  39.054  14.794   2.668
80835W        W53260  39.371   4.759   1.668
80836W        W53261  40.512  28.532  12.701
80837W        W53262  36.361  15.644  12.980
80838W        W53263  30.020  14.848   0.459
80839W        W53264  42.894   9.915   3.684
80840W        W53265   4.362  30.768   3.198
80841W        W53266   0.239   7.385   1.762
80842W        W53267  12.068  39.575   2.200
80843W        W53268  28.392  20.592  13.786
80844W        W53269   1.474  28.574  13.065
80845W        W53270   6.395   9.865  12.920
80846W        W53271  34.535   8.425   3.090
80847W        W53272   3.644   3.234   4.657
80848W        W53273  42.041  13.634   3.848
80849W        W53274   1.331  28.932   1.964
80850W        W53275  15.291  33.452   3.743
80851W        W53276  34.854   6.696   2.229
80852W        W53277   9.722  34.702  14.940
80853W        W53278  15.394  39.798   1.027
80854W        W53279  12.780  18.563   0.492
80855W        W53280  13.873  31.818  11.154
80856W        W53281  10.728   9.204   4.531
80857W        W53282  33.520  43.315   4.199
80858W        W53283  36.855  25.088   0.299
80859W        W53284  17.612   9.917  12.967
80860W        W53285  25.680  44.503   3.813
80861W        W53286  39.727  37.616   1.874
80862W        W53287  39.805  40.931   0.854
80863W        W53288  15.275  40.682  13.551
80864W        W53289  40.363  20.382   4.134
80865W        W53290  43.615  39.726   5.090
80866W        W53291  15.094  13.338   2.095
80867W        W53292  25.858  34.116  12.871
80868W        W53293   2.932  28.152   2.285
80869W        W53294  33.638  19.513   3.692
80870W        W53295   3.972  27.595  11.811
80871W        W53296  10.808  33.471  13.974
80872W        W53297   6.701  34.465  10.641
80873W        W53298  26.388  23.126  13.576
80874W        W53299  15.367   4.448  12.178
80875W        W53300  42.485   5.510  12.473
80876W        W53301  17.297  39.432   4.031
80877W        W53302  14.130  38.535  13.788
80878W        W53303   7.138  41.444  14.374
80879W        W53304  12.855   9.726  14.820
80880W        W53305  43.751  19.703  13.669
80881W        W53306   8.954   5.594   1.003
80882W        W53307  13.346  37.953   3.241
80883W        W53308   8.148  28.729   0.880
80884W        W53309  26.943  32.531  13.458
80885W        W53310  31.892  36.854  12.449
80886W        W53311  11.667  14.810  14.310
80887W        W53312  16.738   1.298  13.566
80888W        W53313  41.138  14.634   0.778
80889W        W53314  32.609   2.181  11.148
80890W        W53315   5.139  16.238   4.522
80891W        W53316  38.090  44.910  13.485
80892W        W53317   0.857  11.572  10.702
80893W        W53318  25.222  34.375  14.220
80894W        W53319   5.760  22.041   3.132
80895W        W53320  42.517  28.486  12.353
80896W        W53321  41.516   1.965  14.437
80897W        W53322  14.628   7.763  11.686
80898W        W53323   7.283  37.987   1.729
80899W        W53324   7.666  10.124   1.825
80900W        W53325  29.994  10.573  14.835
80901W        W53326  40.598   2.359  13.493
80902W        W53327  26.234  20.921   4.284
80903W        W53328  19.846  33.578   0.413
80904W        W53329  43.008  39.828   3.087
80905W        W53330  43.531  34.628  11.426
80906W        W53331  30.406  24.345   4.140
80907W        W53332  25.074  22.668   4.438
80908W        W53333   4.687   0.254   2.248
80909W        W53334  30.383  43.751   0.481
80910W        W53335  24.513  11.646   4.962
80911W        W53336  24.459  29.166  12.979
80912W        W53337   8.767  31.606  12.116
80913W        W53338  38.449  13.710   2.342
80914W        W53339   9.352  28.102   3.653
80915W        W53340   9.439  21.681   4.915
80916W        W53341  38.912   6.629   2.417
80917W        W53342  29.458  22.514  12.608
80918W        W53343   4.319  30.038   4.303
80919W        W53344  40.993   0.270  11.604
80920W        W53345  38.377  39.867  14.462
80921W        W53346  43.900  41.739  11.549
80922W        W53347  10.436   3.798  12.089
80923W        W53348  44.013   7.261  14.719
80924W        W53349  10.031   3.369  11.293
80925W        W53350  35.554  12.770   1.954
80926W        W53351  37.698  11.103  11.308
80927W        W53352  25.687  24.671   2.859
80928W        W53353  39.253  19.245   1.887
80929W        W53354  34.143  19.212  14.951
80930W        W53355  23.453  14.989  14.013
80931W        W53356  10.711   0.229  10.795
80932W        W53357  22.700  26.327  11.656
80933W        W53358   1.318  26.644  10.936
80934W        W53359  28.420  28.031   1.476
80935W        W53360  23.655  17.219  10.427
80936W        W53361   2.315   8.096  14.411
80937W        W53362   6.785  30.976   3.026
80938W        W53363  15.783  17.565   4.343
80939W        W53364  41.961  39.605  10.892
80940W        W53365   2.421   4.788  11.997
80941W        W53366  27.434  11.155   4.458
80942W        W53367  36.625  19.153  10.514
80943W        W53368  43.593  43.798   1.459
80944W        W53369  38.073   9.725  12.381
80945W        W53370  44.719  11.448  11.927
80946W        W53371   4.864  11.156   2.645
80947W        W53372  13.087  43.122  10.338
80948W        W53373  37.220  23.112   3.301
80949W        W53374   1.236   4.683  14.821
80950W        W53375  21.815  17.702  11.639
80951W        W53376  44.432   1.469   4.380
80952W        W53377  25.078  44.690  10.539
80953W        W53378  21.633   6.300   1.572
80954W        W53379  24.557  44.945   3.786
80955W        W53380  17.312  26.871  14.471
80956W        W53381  21.225  25.077  13.528
80957W        W53382  14.665  39.973   4.483
80958W        W53383  41.710  27.990   3.811
80959W        W53384  35.615  23.567   3.858
80960W        W53385  34.162  26.236  11.072
80961W        W53386  14.451  27.688   4.366
80962W        W53387  10.703  39.762   3.263
80963W        W53388  25.944  44.108  13.250
80964W        W53389  43.555   1.023   3.756
80965W        W53390  25.641  17.539  10.261
80966W        W53391  26.854  44.119   3.282
80967W        W53392  12.546  37.132   2.254
80968W        W53393  12.259   5.839  10.771
80969W        W53394  27.913   4.396   1.763
80970W        W53395  26.469  39.870   4.170
80971W        W53396  16.046  17.611  13.994
80972W        W53397  23.478  25.526  11.605
80973W        W53398  13.721  26.040   0.418
80974W        W53399  10.599   3.296   0.281
80975W        W53400  16.120  24.489  12.654
80976W        W53401   7.318  20.108   0.834
80977W        W53402  13.022  24.248   1.669
80978W        W53403  38.903   3.185  10.671
80979W        W53404  18.310  37.847  12.881
80980W        W53405  40.414   5.659  11.120
80981W        W53406   1.755  37.507   3.819
80982W        W53407   0.772  11.078   4.164
80983W        W53408  24.653  24.643   4.458
80984W        W53409  15.520  42.823   1.801
80985W        W53410  15.097  41.928   0.061
80986W        W53411  24.155  11.583   2.772
80987W        W53412   5.065  34.301   1.197
80988W        W53413  10.155   9.652  14.857
80989W        W53414   4.933  40.878  12.506
80990W        W53415  25.450  32.633  14.982
80991W        W53416  28.863   2.992   2.653
80992W        W53417  28.130  39.550   2.880
80993W        W53418  19.071  11.704  12.480
80994W        W53419   1.434   3.558  11.820
80995W        W53420  18.285   6.463   2.097
80996W        W53421  35.811  36.571  12.925
80997W        W53422  15.533   8.849  11.629
80998W        W53423  12.212  19.308  11.842
80999W        W53424  28.132  22.216  14.367
81000W        W53425  11.216   6.265  14.828
81001W        W53426  41.354  25.522   4.062
81002W        W53427  21.277   1.338   1.489
81003W        W53428  17.617   3.523   2.568
81004W        W53429   6.800  19.091   1.153
81005W        W53430  22.228  31.173  11.486
81006W        W53431  43.763  29.021  14.071
81007W        W53432  43.843  14.392   1.598
81008W        W53433   7.371   9.248   1.213
81009W        W53434  11.594   0.990   4.757
81010W        W53435   9.681  35.953   2.723
81011W        W53436   2.890   4.517   0.893
81012W        W53437   8.087  33.968  13.306
81013W        W53438  38.490  19.271   4.902
81014W        W53439  19.017  16.215   3.621
81015W        W53440  44.987  10.605  14.205
81016W        W53441  15.618  21.741  10.463
81017W        W53442   4.941  24.791  12.216
81018W        W53443  42.854  28.388  14.022
81019W        W53444  30.088  44.410   2.937
81020W        W53445  23.635  10.919   3.254
81021W        W53446  28.860  36.075   3.809
81022W        W53447   0.585   2.296  11.020
81023W        W53448  20.147  37.498  11.994
81024W        W53449   1.788   8.599  13.134
81025W        W53450  20.619   9.703   4.066
81026W        W53451  30.459  20.416  11.517
81027W        W53452   2.373  33.955   2.841
81028W        W53453  11.320  29.282   2.351
81029W        W53454  39.027   1.480  12.485
81030W        W53455  14.030  44.452  12.669
81031W        W53456   5.845  25.008  14.862
81032W        W53457  11.576  27.036  13.016
81033W        W53458  16.794  38.294   1.472
81034W        W53459  31.535  26.454   2.323
81035W        W53460  31.383  15.133  13.990
81036W        W53461  18.576   5.024   1.089
81037W        W53462  15.644  31.684  12.954
81038W        W53463  27.506  16.058   2.348
81039W        W53464  30.981   5.739   2.292
81040W        W53465  33.163  17.569  14.335
81041W        W53466  25.630   9.967   3.064
81042W        W53467  12.165  37.814   1.971
81043W        W53468   9.096  18.001  13.454
81044W        W53469  24.040  39.493   4.543
81045W        W53470  11.913   2.407   0.534
81046W        W53471  10.540   8.305   1.247
81047W        W53472  17.330  26.340   1.341
81048W        W53473  23.650  14.968   0.932
81049W        W53474  42.888  19.924  13.477
81050W        W53475  11.694  26.497  14.872
81051W        W53476  26.073  19.295   3.695
81052W        W53477  27.911  12.672   2.235
81053W        W53478   4.218  26.230   3.649
81054W        W53479   9.538  20.689  12.751
81055W        W53480  23.768  32.969  13.338
81056W        W53481  15.742  24.538   3.811
81057W        W53482  43.142   3.385  11.228
81058W        W53483  29.910   0.345  13.495
81059W        W53484  13.089  14.988   4.237
81060W        W53485  43.308  40.412  10.619
81061W        W53486  35.256  14.602  10.941
81062W        W53487   4.429  22.071  12.323
81063W        W53488  15.826  22.542  14.639
81064W        W53489  22.968  23.941  10.091
81065W        W53490  18.196  35.913   3.049
81066W        W53491  28.079  14.818  11.238
81067W        W53492  31.873  36.108   0.465
81068W        W53493  31.808  36.311   2.740
81069W        W53494  26.790  42.064  12.383
81070W        W53495  44.798  43.719  11.389
81071W        W53496  35.154  29.467  12.361
81072W        W53497  18.476  42.891   2.221
81073W        W53498  30.960  31.832   2.702
81074W        W53499  12.258   7.391   1.770
81075W        W53500  32.414  15.583   3.764
81076W        W53501  22.203  22.581   0.059
81077W        W53502  41.061   2.411  12.532
81078W        W53503   5.878  15.515  12.063
81079W        W53504  34.476  19.694   2.478
81080W        W53505  16.714  32.386   1.663
81081W        W53506  17.608  18.200  11.983
81082W        W53507  30.122  27.502   2.791
81083W        W53508  23.918  19.531  14.389
81084W        W53509  19.297  20.027  14.977
81085W        W53510  27.769  30.251   2.629
81086W        W53511   5.279   9.396   0.471
81087W        W53512  27.330  38.881   3.642
81088W        W53513   3.371  22.565  12.401
81089W        W53514  15.308   9.131   1.210
81090W        W53515  18.346  30.003  14.578
81091W        W53516  32.348  28.998   0.837
81092W        W53517  38.846  33.059  13.744
81093W        W53518  43.506  21.291  12.559
81094W        W53519  43.949  31.625  13.243
81095W        W53520   1.116  34.518   0.261
81096W        W53521  20.738  12.644  13.555
81097W        W53522  23.232  44.804  11.469
81098W        W53523  22.479  24.949  11.196
81099W        W53524  40.495  21.827  10.522
81100W        W53525  24.669  18.665  12.723
81101W        W53526   1.857  34.953  13.748
81102W        W53527  19.016  28.081  11.705
81103W        W53528  29.330  43.050   5.015
81104W        W53529  18.017  18.581  12.007
81105W        W53530  39.461  25.731   3.264
81106W        W53531  28.014  22.773   0.129
81107W        W53532  23.040  31.574  11.276
81108W        W53533  36.293  22.939  12.111
81109W        W53534  36.575  32.528  12.709
81110W        W53535  24.316  23.421  14.590
81111W        W53536   4.756  19.509   4.620
81112W        W53537  39.269   0.190  10.423
81113W        W53538   0.502  38.137  13.532
81114W        W53539  24.789  35.981   0.212
81115W        W53540  33.817   7.160  14.930
81116W        W53541   7.339  13.689   3.571
81117W        W53542  13.717  22.066   0.769
81118W        W53543  43.476  17.563   3.838
81119W        W53544  37.687  27.652  14.941
81120W        W53545   3.968  20.772  14.773
81121W        W53546  31.927  19.563   0.552
81122W        W53547   6.709  40.157   2.696
81123W        W53548  24.178   4.405  14.724
81124W        W53549  29.001  23.782   9.711
81125W        W53550  23.513  21.284   2.017
81126W        W53551  22.132  32.403   1.346
81127W        W53552  24.388  18.220  13.959
81128W        W53553  35.519  26.801  13.442
81129W        W53554  35.078   2.014  13.475
81130W        W53555   2.899  13.275   0.898
81131W        W53556  13.085  32.673  11.004
81132W        W53557  23.924  21.509  13.072
81133W        W53558   2.412  22.156   1.909
81134W        W53559  34.072   0.432  10.674
81135W        W53560   6.685  31.008   2.024
81136W        W53561  32.087  13.184   0.314
81137W        W53562   3.678   5.724  14.274
81138W        W53563   8.626  28.495   0.915
81139W        W53564  39.352  11.264  13.090
81140W        W53565  11.113  44.320  14.415
81141W        W53566   9.160  25.723   4.317
81142W        W53567  28.615  32.014  10.401
81143W        W53568   1.209  29.368  13.570
81144W        W53569  36.481   7.439   3.267
81145W        W53570  15.343  37.514  12.363
81146W        W53571  40.811   0.086   1.312
81147W        W53572   8.771  15.594   2.237
81148W        W53573   5.888  32.523   0.309
81149W        W53574  42.718   9.158  12.682
81150W        W53575  11.082  14.624   2.835
81151W        W53576   9.598  10.302   4.677
81152W        W53577  24.669   1.269   2.979
81153W        W53578  34.022   3.679  11.155
81154W        W53579   6.472  11.819  12.936
81155W        W53580  28.083  27.954   0.446
81156W        W53581  20.277  12.370  13.411
81157W        W53582   9.952  23.116   4.254
81158W        W53583  37.421  29.978  12.892
81159W        W53584  26.083  41.074  12.089
81160W        W53585  20.378  29.967  11.566
81161W        W53586  24.515  33.797  12.069
81162W        W53587  11.869   6.817   0.528
81163W        W53588  35.257  15.697   0.844
81164W        W53589   7.321  18.669  11.447
81165W        W53590  40.730  25.699  13.124
81166W        W53591  22.737   7.169  10.838
81167W        W53592  19.854  26.844  11.376
81168W        W53593  27.761  12.305   4.377
81169W        W53594  20.069  23.689  14.541
81170W        W53595  44.346   2.382   3.311
81171W        W53596  17.620  12.282  13.961
81172W        W53597  13.783  37.618   2.301
81173W        W53598  22.674  34.392   2.329
81174W        W53599  27.034  33.408   2.447
81175W        W53600   3.945  39.829  10.922
81176W        W53601  23.158   7.943   0.367
81177W        W53602  37.316   2.485   1.986
81178W        W53603   3.322  14.723  14.909
81179W        W53604  24.169  14.599  12.678
81180W        W53605  37.055  40.878   0.254
81181W        W53606   4.748  21.504  13.948
81182W        W53607  18.052  19.596   1.055
81183W        W53608   9.876   1.863  11.973
81184W        W53609  30.950  31.085  12.709
81185W        W53610  22.450   4.960   4.994
81186W        W53611  19.946   2.729  14.086
81187W        W53612  27.645  41.886   0.668
81188W        W53613  21.128   3.999  11.075
81189W        W53614  28.831  39.380   0.302
81190W        W53615   4.176  12.534  10.987
81191W        W53616  32.049  28.105   1.867
81192W        W53617   5.397  22.069   4.538
81193W        W53618   0.442  12.689  14.391
81194W        W53619  33.707  32.511   2.811
81195W        W53620  11.402  27.653   0.950
81196W        W53621  11.351   7.890   2.241
81197W        W53622  20.394  27.392  10.931
81198W        W53623   4.213   5.944   2.437
81199W        W53624  23.451  33.513  11.545
81200W        W53625  40.388  44.812   4.489
81201W        W53626  21.067  24.641   4.496
81202W        W53627   3.398  17.141  14.421
81203W        W53628  24.537   0.802   4.435
81204W        W53629  11.782   0.794   0.559
81205W        W53630   3.538  26.955   1.326
81206W        W53631  20.452  29.130  12.818
81207W        W53632  40.636  16.166  12.455
81208W        W53633  23.683  17.674  13.588
81209W        W53634  26.441  10.814  13.990
81210W        W53635  21.186  12.610   3.735
81211W        W53636   9.752   5.740  13.857
81212W        W53637  20.721   8.541  12.998
81213W        W53638  38.968  23.098  13.980
81214W        W53639  34.523  40.471   0.929
81215W        W53640   6.211  32.874   1.394
81216W        W53641  40.320  24.515   0.490
81217W        W53642  27.474  30.251   0.214
81218W        W53643   0.700   1.424   2.555
81219W        W53644  44.856   1.782  11.083
81220W        W53645  31.109   5.260   3.568
81221W        W53646  15.024  28.098   0.405
81222W        W53647  28.466  24.151  12.979
81223W        W53648  14.809  44.731  11.867
81224W        W53649   7.564  37.498   4.623
81225W        W53650  18.278  15.516  14.433
81226W        W53651  27.171   9.006  12.648
81227W        W53652  26.009  34.205   3.666
81228W        W53653  30.082   5.062   4.287
81229W        W53654   4.888   8.761  12.434
81230W        W53655  10.265   7.760  13.274
81231W        W53656  24.282   8.576   3.261
81232W        W53657  14.357   5.680   4.935
81233W        W53658  11.713  15.675  11.599
81234W        W53659  34.563  32.518  11.144
81235W        W53660  13.318   0.207  13.399
81236W        W53661  13.693  24.637   1.383
81237W        W53662  27.611  32.126   1.464
81238W        W53663  36.488   5.232  14.049
81239W        W53664  33.338  30.948   3.162
81240W        W53665  39.963  25.143  13.389
81241W        W53666  25.198  33.683  12.491
81242W        W53667  26.584   4.394   4.613
81243W        W53668  37.080  14.498  11.592
81244W        W53669  15.526   3.986  12.340
81245W        W53670  29.589  44.055  13.453
81246W        W53671  39.822  22.594  12.409
81247W        W53672  44.970  12.517  13.842
81248W        W53673  43.478  26.804   3.627
81249W        W53674  38.032  42.861  11.130
81250W        W53675  21.058   3.185  12.899
81251W        W53676  31.420   5.252  14.289
81252W        W53677  36.627  26.440   3.810
81253W        W53678  20.247  10.167   3.736
81254W        W53679   1.483  19.872  11.192
81255W        W53680  17.862   7.889   1.419
81256W        W53681  28.371   8.892   4.038
81257W        W53682   7.602   1.340   0.924
81258W        W53683  30.420   4.227   4.015
81259W        W53684   2.325  13.226   3.684
81260W        W53685  26.973  36.958  12.948
81261W        W53686  20.728  38.545   4.512
81262W        W53687  28.192   2.029  14.190
81263W        W53688  12.125  10.890  14.820
81264W        W53689   6.650  21.276   4.150
81265W        W53690  43.063  44.005  11.668
81266W        W53691  31.623  29.556   5.352
81267W        W53692   6.888  29.487   2.357
81268W        W53693  23.155   9.766  13.828
81269W        W53694  22.828   6.857   0.844
81270W        W53695  34.367  24.306   2.572
81271W        W53696  26.168  40.959   1.610
81272W        W53697   2.764  37.740  14.143
81273W        W53698  36.413   6.146   0.209
81274W        W53699  21.227  15.519  14.685
81275W        W53700  33.545  32.820   3.184
81276W        W53701   6.983  44.305  13.456
81277W        W53702  34.543  41.475   4.931
81278W        W53703  31.617   1.418   2.537
81279W        W53704   2.235  31.532   4.867
81280W        W53705   5.384  18.220  13.567
81281W        W53706   6.220  35.905  10.749
81282W        W53707  35.497  40.841  14.937
81283W        W53708   9.183  39.779   3.384
81284W        W53709  23.113  18.783  12.384
81285W        W53710  20.007  40.969  13.989
81286W        W53711  36.124  19.134   1.484
81287W        W53712  12.883  27.677  14.279
81288W        W53713  40.861   2.772   1.372
81289W        W53714  37.688  43.423   3.666
81290W        W53715  17.331  23.373   4.118
81291W        W53716  30.968  36.066  14.026
81292W        W53717  40.319  37.025  13.422
81293W        W53718   7.834   5.942  11.712
81294W        W53719   2.191   5.776   1.006
81295W        W53720   4.627   4.114   5.013
81296W        W53721  40.786  14.253  13.344
81297W        W53722  35.431  30.202   3.597
81298W        W53723   4.789  39.963  12.613
81299W        W53724  24.052   9.898   2.354
81300W        W53725  44.402  17.793  13.377
81301W        W53726  25.659  44.001   1.094
81302W        W53727  18.660  30.244  14.956
81303W        W53728  28.054   9.612  13.347
81304W        W53729   7.625  43.715  12.075
81305W        W53730   7.708   4.653   0.900
81306W        W53731  39.622  12.874  11.106
81307W        W53732  13.114  25.988   4.243
81308W        W53733   9.959  37.547   4.662
81309W        W53734  28.030   9.134  12.534
81310W        W53735  19.253  41.516  11.494
81311W        W53736  42.337  43.757   0.338
81312W        W53737   9.696   1.277   1.397
81313W        W53738  10.236  35.660  10.082
81314W        W53739  40.817  33.839   0.371
81315W        W53740  25.664  31.426  13.966
81316W        W53741   6.776  25.757   0.531
81317W        W53742   2.032  13.550   1.973
81318W        W53743  16.245  36.081   1.735
81319W        W53744   1.209  32.989   2.453
81320W        W53745   8.235  17.667  10.968
81321W        W53746  16.227   8.739  12.367
81322W        W53747  14.180  42.431  12.130
81323W        W53748   4.946  18.718   1.781
81324W        W53749  35.809  26.984   1.837
81325W        W53750  21.073  33.745  11.619
81326W        W53751  39.637  31.670   4.044
81327W        W53752  33.478  18.730  12.920
81328W        W53753  37.929  36.512  14.458
81329W        W53754  11.207  15.333   0.397
81330W        W53755  24.490  19.797  11.137
81331W        W53756  38.994  37.938   3.315
81332W        W53757   3.328  29.038   2.512
81333W        W53758  30.185  34.587   3.150
81334W        W53759  26.906  34.015  11.945
81335W        W53760   5.688   5.392  10.425
81336W        W53761  28.528  37.842  11.508
81337W        W53762  41.498  10.688   1.159
81338W        W53763  13.709  24.146  14.902
81339W        W53764  40.465  12.506   2.742
81340W        W53765  19.064  21.577   3.599
81341W        W53766  21.313  40.179  12.971
81342W        W53767   7.380  42.945   0.252
81343W        W53768  27.253  13.520   4.164
81344W        W53769   1.444  35.315   4.180
81345W        W53770  34.364  17.797  12.905
81346W        W53771  26.148   4.517   4.343
81347W        W53772  36.990  12.794  13.454
81348W        W53773  28.387   1.393  11.188
81349W        W53774  27.269   0.743   0.006
81350W        W53775  35.942  37.939  11.695
81351W        W53776  29.649  28.195   4.991
81352W        W53777  27.372   7.969  10.787
81353W        W53778   9.875  21.317  10.675
81354W        W53779  43.115  27.109   0.353
81355W        W53780   9.192   8.965   2.845
81356W        W53781   5.291  12.245   1.219
81357W        W53782  32.351  37.830  11.098
81358W        W53783   1.731  31.906   1.331
81359W        W53784   0.391  35.352  13.380
81360W        W53785  34.783  10.531  11.931
81361W        W53786  35.457  31.792   0.411
81362W        W53787  24.616  19.488  12.889
81363W        W53788  32.993   0.873  13.788
81364W        W53789  11.057  33.452  14.831
81365W        W53790  32.478  39.274  14.827
81366W        W53791  19.095   8.414  14.119
81367W        W53792   4.183   0.809  13.310
81368W        W53793  23.522  12.472   0.425
81369W        W53794  38.734   0.482   3.808
81370W        W53795  12.265  37.546   4.445
81371W        W53796  26.943  17.745   0.694
81372W        W53797   2.854  19.354  11.208
81373W        W53798  12.660  38.163   3.648
81374W        W53799  34.145  29.334   0.677
81375W        W53800  23.581  29.424   2.851
81376W        W53801  30.044   4.493   0.401
81377W        W53802  12.453  12.276  14.315
81378W        W53803   0.948  36.110   1.227
81379W        W53804  30.660   6.028   3.584
81380W        W53805  38.416  39.606   0.498
81381W        W53806   8.799  44.970   0.703
81382W        W53807  11.931  40.922   2.003
81383W        W53808   4.483  38.884  10.473
81384W        W53809  40.313  41.695   2.713
81385W        W53810  20.667  38.848   0.813
81386W        W53811  31.238  23.562   4.677
81387W        W53812  40.547  40.880   4.301
81388W        W53813   4.946  23.112   2.698
81389W        W53814   4.284  17.901  12.098
81390W        W53815  38.634  10.186  10.987
81391W        W53816  24.972  41.865  11.611
81392W        W53817   3.562  38.887  14.490
81393W        W53818  39.702  33.908  10.955
81394W        W53819  37.906  24.193   0.927
81395W        W53820  30.704  11.755  10.615
81396W        W53821  21.555  10.978   3.760
81397W        W53822  38.012   1.672   1.188
81398W        W53823  28.986   0.847   1.825
81399W        W53824  35.064  20.179  12.055
81400W        W53825  15.366   4.688   3.638
81401W        W53826   5.497  12.212  13.788
81402W        W53827  23.332  32.886  12.880
81403W        W53828   1.423  30.964  13.968
81404W        W53829  42.364   6.739   4.512
81405W        W53830   4.616   7.125   5.021
81406W        W53831  21.217  35.977   2.972
81407W        W53832  12.124  15.911  12.403
81408W        W53833  25.133  11.965  12.177
81409W        W53834  38.956  42.445  14.096
81410W        W53835  43.240   2.843  13.962
81411W        W53836  20.935  44.853   0.865
81412W        W53837  30.435  15.742   2.455
81413W        W53838  22.708  37.638   3.434
81414W        W53839  37.027   0.479  10.565
81415W        W53840  31.650  19.135   2.917
81416W        W53841  41.272  13.195   3.992
81417W        W53842  14.197  14.262  11.365
81418W        W53843  19.301  24.986  14.462
81419W        W53844   5.151   6.098  10.542
81420W        W53845  44.954   4.617  14.559
81421W        W53846  20.750  27.617  12.089
81422W        W53847  24.971  36.470  13.529
81423W        W53848   4.688  13.666   0.412
81424W        W53849  42.786  17.044  12.576
81425W        W53850  44.915  15.807   0.064
81426W        W53851  23.176   2.581   2.279
81427W        W53852  26.297  11.623  13.514
81428W        W53853  22.671  36.906   2.187
81429W        W53854  23.968  33.131  13.823
81430W        W53855  39.481   0.952  14.865
81431W        W53856  33.887  23.135   1.315
81432W        W53857  23.892  20.041   2.658
81433W        W53858  27.552  12.046  12.037
81434W        W53859  16.698  24.229   1.180
81435W        W53860  27.210  15.016  14.287
81436W        W53861  10.430   9.913  11.685
81437W        W53862  14.271   5.634  10.879
81438W        W53863   8.530  35.944  12.236
81439W        W53864   9.663  38.564   3.653
81440W        W53865  13.889  35.840   4.956
81441W        W53866  24.172  27.630   2.789
81442W        W53867   9.670  43.117   3.197
81443W        W53868  37.145   6.455   0.751
81444W        W53869   9.253   0.003   1.458
81445W        W53870  26.471  12.580   3.635
81446W        W53871  33.964  17.127  13.073
81447W        W53872   4.084  34.801  14.477
81448W        W53873  30.677   9.260   4.247
81449W        W53874  28.126   1.451  13.527
81450W        W53875   6.697  30.990  12.748
81451W        W53876   5.538  37.913  10.731
81452W        W53877  38.518  21.086  11.081
81453W        W53878   6.602  24.213   2.425
81454W        W53879   9.630   4.390  11.947
81455W        W53880  44.249  38.081   2.500
81456W        W53881  39.092  11.651  12.882
81457W        W53882   3.847   6.986  11.463
81458W        W53883  39.298   1.240  12.117
81459W        W53884  14.644   8.406  12.521
81460W        W53885  10.146  18.840  14.903
81461W        W53886  27.171  15.108  10.637
81462W        W53887  41.419  19.236  11.047
81463W        W53888  31.741  38.659  11.018
81464W        W53889   9.824  24.945   2.242
81465W        W53890   8.379  35.660  10.778
81466W        W53891  44.479  18.396   0.844
81467W        W53892  34.660  38.362   4.091
81468W        W53893   4.690  26.946  13.895
81469W        W53894  22.799  11.769   9.655
81470W        W53895  21.248  35.957   4.884
81471W        W53896  34.150  26.522   3.099
81472W        W53897  20.649  38.192  14.297
81473W        W53898  30.030  40.278   3.834
81474W        W53899   5.845  35.498  11.421
81475W        W53900  41.420  28.725   1.355
81476W        W53901  43.290  26.770  10.521
81477W        W53902  30.633  33.119   0.005
81478W        W53903  20.617   6.402  12.847
81479W        W53904   3.532  17.110  11.624
81480W        W53905   4.728   3.596  11.469
81481W        W53906  35.288  19.307   5.194
81482W        W53907   5.682  40.085  13.769
81483W        W53908   0.264   1.296   1.156
81484W        W53909   6.090   2.854   2.647
81485W        W53910  38.073  41.813   1.393
81486W        W53911  19.043  18.218  12.901
81487W        W53912  14.091  38.443  11.421
81488W        W53913   0.219  30.498   4.609
81489W        W53914  17.741  22.672   1.407
81490W        W53915   9.446  18.825  11.876
81491W        W53916  33.437  44.502  12.057
81492W        W53917   5.322  27.750   3.104
81493W        W53918  16.596  14.386  12.387
81494W        W53919  39.824  20.843   4.140
81495W        W53920  33.079   5.440  13.469
81496W        W53921   1.767  36.802  10.906
81497W        W53922   9.741  19.255   2.152
81498W        W53923  33.964  24.684  11.575
81499W        W53924   4.371  29.840   1.243
81500W        W53925  27.186  22.554   2.038
81501W        W53926  35.948  36.088  11.552
81502W        W53927  33.039  28.410   2.842
81503W        W53928  20.673  31.623   4.769
81504W        W53929  38.194   8.541   9.854
81505W        W53930  13.610   4.890  12.333
81506W        W53931  40.281  13.107   3.701
81507W        W53932  11.211  27.230  11.220
81508W        W53933   1.181  32.940  10.182
81509W        W53934  16.505   5.267   0.331
81510W        W53935  27.779   9.795   2.232
81511W        W53936  34.365  39.384   2.347
81512W        W53937  10.587  38.358  11.222
81513W        W53938  24.629  31.466  13.788
81514W        W53939  23.032  44.761  10.407
81515W        W53940   4.471  23.203  12.842
81516W        W53941  31.043  26.239  10.504
81517W        W53942   4.828  40.547   3.515
81518W        W53943  26.635  22.032  10.095
81519W        W53944   8.959  24.725   4.066
81520W        W53945  20.706  13.327   2.389
81521W        W53946  41.857  10.356   3.233
81522W        W53947  27.222  31.433  13.867
81523W        W53948  20.529   9.962  11.341
81524W        W53949  15.214  16.251   2.223
81525W        W53950  21.709  35.859  14.031
81526W        W53951   8.793  42.760   4.528
81527W        W53952  24.555  35.051  14.714
81528W        W53953  37.000   4.320   0.810
81529W        W53954  19.754  12.235   0.797
81530W        W53955   4.185  28.507  13.365
81531W        W53956   4.216   2.251   0.471
81532W        W53957  21.848  19.152  13.814
81533W        W53958  18.591  17.823   0.473
81534W        W53959   1.741  15.594   2.737
81535W        W53960  41.297   2.628  10.968
81536W        W53961  33.455  12.902  10.382
81537W        W53962  34.815  27.896   4.640
81538W        W53963   5.814  19.493   1.078
81539W        W53964  13.665  42.510   2.821
81540W        W53965  24.228  11.602   5.444
81541W        W53966  14.323   4.249   4.754
81542W        W53967  13.289  19.887  13.956
81543W        W53968  24.521  20.481   0.661
81544W        W53969  43.125  29.149   3.293
81545W        W53970  14.011   6.089  10.947
81546W        W53971  19.612   2.345  13.476
81547W        W53972  43.357  14.959  13.064
81548W        W53973  34.117  40.092  14.214
81549W        W53974  13.743   9.395   4.101
81550W        W53975  17.910  44.805  13.485
81551W        W53976  38.544  10.704  12.020
81552W        W53977  15.916  17.533   4.857
81553W        W53978   7.726  31.712  13.361
81554W        W53979  19.050   1.834  14.966
81555W        W53980  21.637  35.928  14.536
81556W        W53981   3.667  38.437  14.803
81557W        W53982  25.850  16.806  11.622
81558W        W53983  29.857   6.829  13.010
81559W        W53984  22.609  32.533  12.575
81560W        W53985   1.477  30.666  11.490
81561W        W53986   6.753   1.746   3.163
81562W        W53987   5.408  10.316   2.685
81563W        W53988  23.964  32.436   9.617
81564W        W53989  44.645  41.084   0.214
81565W        W53990   5.149  38.847  11.894
81566W        W53991  10.303  10.053   5.069
81567W        W53992   5.387  43.361  13.503
81568W        W53993  26.415   4.363   1.885
81569W        W53994  44.163  23.160   2.296
81570W        W53995   1.773   2.479  14.383
81571W        W53996  19.670   2.966   2.360
81572W        W53997  23.544  16.443   4.469
81573W        W53998  44.142  18.030   2.263
81574W        W53999  36.322  43.272  11.116
81575W        W54000  15.485   0.911   5.095
81576W        W54001  11.760  18.051  13.844
81577W        W54002   8.209   4.035   4.229
81578W        W54003  28.123  27.976  12.015
81579W        W54004  42.054  19.081  12.297
81580W        W54005   9.641  33.397  12.570
81581W        W54006  27.437  26.697   4.044
81582W        W54007  21.445  18.442   0.229
81583W        W54008  22.236  26.725   1.388
81584W        W54009  20.390  20.208   2.857
81585W        W54010  14.194  17.002   4.585
81586W        W54011   6.785  18.564  12.208
81587W        W54012  13.752  33.115   0.320
81588W        W54013  42.428   4.317  10.652
81589W        W54014   2.739  10.956  13.784
81590W        W54015  23.030  16.999   2.316
81591W        W54016  34.340  24.965   4.754
81592W        W54017  17.491   5.481   0.389
81593W        W54018   5.760  16.887   0.451
81594W        W54019  41.511  30.865   2.268
81595W        W54020  25.229  31.392   2.163
81596W        W54021  17.916   6.436   0.382
81597W        W54022   3.572  19.296   1.337
81598W        W54023  16.075  30.896   5.020
81599W        W54024  43.561  23.418   3.658
81600W        W54025  19.051  32.111   1.455
81601W        W54026  32.071  27.966  13.354
81602W        W54027  26.052  22.985  11.847
81603W        W54028   6.907   0.967   0.765
81604W        W54029   5.334   3.649   4.435
81605W        W54030  24.419  36.488  12.560
81606W        W54031   9.133  30.672   0.623
81607W        W54032  44.040  10.684   1.000
81608W        W54033  36.775   7.015   2.630
81609W        W54034   4.219  14.625   3.163
81610W        W54035   2.814  16.509  14.700
81611W        W54036  16.992  11.886  12.414
81612W        W54037   4.283  20.554  10.597
81613W        W54038  26.461  20.203  14.723
81614W        W54039  35.849  35.907  12.431
81615W        W54040  14.594  24.153  10.536
81616W        W54041   7.870  27.677   1.530
81617W        W54042  32.465  34.854   2.273
81618W        W54043  38.599  27.222  10.606
81619W        W54044  26.617  16.588  12.672
81620W        W54045   1.969  21.544   1.409
81621W        W54046   7.328  23.204   1.643
81622W        W54047  41.332   6.630   0.390
81623W        W54048  17.208   4.684   1.349
81624W        W54049  31.959  13.718  11.552
81625W        W54050   2.023  17.541   1.553
81626W        W54051  32.276  29.417  13.547
81627W        W54052  36.639   5.910   1.412
81628W        W54053  21.217  35.098   2.694
81629W        W54054  29.603   3.338   2.278
81630W        W54055  34.386  10.151  11.501
81631W        W54056  24.151  42.391   0.141
81632W        W54057  24.803  25.874  14.419
81633W        W54058  28.082   9.324  10.663
81634W        W54059   2.045  25.247  14.389
81635W        W54060  28.364  17.062  11.482
81636W        W54061  30.276  11.840  11.904
81637W        W54062  33.889  27.013  13.908
81638W        W54063  14.379  36.808   3.655
81639W        W54064  30.986  26.449   1.006
81640W        W54065  23.120  21.476  13.398
81641W        W54066   1.465  16.980  12.043
81642W        W54067   6.345   4.713  11.375
81643W        W54068  20.589  42.980   0.916
81644W        W54069  30.127  18.303   4.884
81645W        W54070  10.631   9.816   0.831
81646W        W54071  18.148  25.570  11.513
81647W        W54072  12.719  22.665  14.871
81648W        W54073   9.850  10.934   3.822
81649W        W54074  19.440  14.336   1.458
81650W        W54075  10.856  20.605  10.577
81651W        W54076  43.803   2.987   4.801
81652W        W54077   8.300  15.070   2.862
81653W        W54078  21.196  41.594   4.849
81654W        W54079   1.518  30.849   4.978
81655W        W54080   7.715  28.582   1.880
81656W        W54081  34.890   6.527  11.612
81657W        W54082  24.036  25.186   3.656
81658W        W54083  15.004  25.106   3.613
81659W        W54084  28.923  15.568   3.642
81660W        W54085  31.074  33.643   2.002
81661W        W54086  21.726  28.923   3.214
81662W        W54087  10.603  24.758  14.043
81663W        W54088  36.511  41.125  11.881
81664W        W54089  41.305  24.484  14.390
81665W        W54090  43.266   1.654   2.881
81666W        W54091  25.031  36.424  10.731
81667W        W54092  41.225  38.521  13.784
81668W        W54093  39.842  33.024  11.443
81669W        W54094  12.626  43.684   2.918
81670W        W54095  41.397  34.059  13.148
81671W        W54096  12.925  33.518  10.996
81672W        W54097  38.308  26.190  10.726
81673W        W54098  28.571  26.862   3.258
81674W        W54099   6.392   6.148  14.447
81675W        W54100  15.488   2.823  10.420
81676W        W54101  19.233  39.570   3.931
81677W        W54102  40.856  11.767   4.699
81678W        W54103  24.118  24.141  12.946
81679W        W54104  15.808   6.834   3.674
81680W        W54105  19.758   0.707  14.486
81681W        W54106  32.239  16.819   0.031
81682W        W54107  41.581   2.133   0.275
81683W        W54108  37.079   3.606  10.478
81684W        W54109  16.337  25.654  13.950
81685W        W54110  10.814  15.382  14.857
81686W        W54111  44.532  38.909  13.361
81687W        W54112  23.263  38.796  14.749
81688W        W54113  11.608  25.126  10.948
81689W        W54114  37.951  26.586   0.452
81690W        W54115  24.021  25.822   4.629
81691W        W54116  15.217  24.013   2.189
81692W        W54117  30.212  22.115   3.258
81693W        W54118  21.773   2.006  11.272
81694W        W54119  14.834   6.723  14.282
81695W        W54120  43.423  33.131  13.536
81696W        W54121  31.027   6.875  12.613
81697W        W54122   6.319   6.487   0.016
81698W        W54123   0.276  23.517  11.530
81699W        W54124   5.224   2.777   3.465
81700W        W54125   8.703   0.973  13.930
81701W        W54126  41.539   7.720  13.882
81702W        W54127   0.478  29.928  11.068
81703W        W54128  34.406  37.151   0.466
81704W        W54129   4.489  23.650  10.622
81705W        W54130  27.455  16.226  11.200
81706W        W54131  33.640  29.955   3.222
81707W        W54132   8.308  44.544   1.377
81708W        W54133  28.330   4.905  11.949
81709W        W54134  43.822  28.395   1.910
81710W        W54135  31.874  29.430   3.377
81711W        W54136  20.734  20.075  13.477
81712W        W54137  43.943   8.171  12.799
81713W        W54138  18.178  10.154   4.333
81714W        W54139  34.998   3.246   4.369
81715W        W54140  43.750  30.661   4.599
81716W        W54141  29.684   5.904  14.001
81717W        W54142   6.252  40.113  13.579
81718W        W54143  38.561  24.625   0.477
81719W        W54144  24.659  24.422   3.954
81720W        W54145  29.689  33.671  12.180
81721W        W54146  31.572  24.888  13.870
81722W        W54147   8.253   4.676  13.384
81723W        W54148  17.318  12.349  12.488
81724W        W54149  28.925  34.499  14.736
81725W        W54150  11.704   9.398   3.624
81726W        W54151   3.308  39.257   3.836
81727W        W54152   2.265  32.951   4.835
81728W        W54153  11.557  42.805  14.492
81729W        W54154  27.417  23.603  14.770
81730W        W54155  30.213  26.958   1.441
81731W        W54156   0.033  42.500  12.382
81732W        W54157  30.659  36.086  10.694
81733W        W54158  31.011  28.959  10.961
81734W        W54159  36.976  20.607   3.130
81735W        W54160  28.875  13.240  12.286
81736W        W54161  17.041  32.531  11.931
81737W        W54162  12.819   0.311  13.867
81738W        W54163  30.727  40.904   2.887
81739W        W54164  11.836  26.967   3.303
81740W        W54165   0.419  24.582   0.959
81741W        W54166   5.644  36.944   3.692
81742W        W54167  11.421  44.893   3.864
81743W        W54168  39.017  19.496  14.765
81744W        W54169  40.438  42.467  14.770
81745W        W54170  35.576  23.089   0.541
81746W        W54171  42.738  41.125  10.581
81747W        W54172   4.874  21.164  12.993
81748W        W54173  21.891  13.713   3.233
81749W        W54174  35.437  18.830   0.247
81750W        W54175  11.076  39.166   0.655
81751W        W54176  40.398  16.035  13.482
81752W        W54177  15.956   7.218   1.721
81753W        W54178  16.425   7.710   2.353
81754W        W54179  39.361   5.224   1.403
81755W        W54180   1.433  32.626   2.143
81756W        W54181  10.175  44.421  13.878
81757W        W54182  20.626  17.348   2.886
81758W        W54183   7.677  42.991  12.014
81759W        W54184   2.387   8.394   0.774
81760W        W54185  31.906  26.168   2.672
81761W        W54186  39.296  29.107   2.807
81762W        W54187   2.692  23.150   3.292
81763W        W54188  40.837  12.156  12.762
81764W        W54189  34.361   9.615   1.458
81765W        W54190   5.710   5.420   1.785
81766W        W54191  35.005   6.614   4.532
81767W        W54192  10.177  43.002   2.331
81768W        W54193   4.267  30.188   0.207
81769W        W54194  41.919   3.237  12.966
81770W        W54195   5.230  18.987  12.087
81771W        W54196  27.263  22.772  10.647
81772W        W54197  30.147  37.438  13.957
81773W        W54198  38.095  37.775   3.224
81774W        W54199  25.277   1.349   4.301
81775W        W54200   8.604   0.412  13.419
81776W        W54201  31.267  14.666  13.349
81777W        W54202  36.468  44.264   0.352
81778W        W54203  40.761   8.897   2.697
81779W        W54204  34.327   8.217   0.725
81780W        W54205   9.837  34.648  11.380
81781W        W54206  39.056  30.909   2.808
81782W        W54207   4.929  43.393   1.795
81783W        W54208  33.875  22.534   3.249
81784W        W54209   2.145  25.976  11.181
81785W        W54210  18.851   2.979   0.401
81786W        W54211  33.783   7.012   0.418
81787W        W54212  38.056  31.139  12.526
81788W        W54213   2.925   9.342  12.925
81789W        W54214  18.020  39.816   1.343
81790W        W54215   8.371   4.320  11.458
81791W        W54216  23.518  26.990   2.868
81792W        W54217  38.484   5.137  14.392
81793W        W54218  36.061  28.871   1.056
81794W        W54219  21.813  36.923  13.082
81795W        W54220  44.401   6.859  12.944
81796W        W54221  14.788  21.476  11.618
81797W        W54222  40.079  38.251  14.745
81798W        W54223  25.670   4.683   4.992
81799W        W54224  30.136  38.776  10.299
81800W        W54225   1.940  32.612  13.798
81801W        W54226  14.776   8.982  11.111
81802W        W54227  22.977  43.394  11.747
81803W        W54228  37.329  26.796   2.638
81804W        W54229  27.767  21.172   4.151
81805W        W54230   0.895  38.795   0.832
81806W        W54231   1.875   8.150  13.512
81807W        W54232  30.059  41.245  10.561
81808W        W54233  21.770  40.547   1.527
81809W        W54234  13.798  29.522   1.294
81810W        W54235  16.322  23.471  14.622
81811W        W54236   0.966  15.597   0.920
81812W        W54237  37.122  26.528  14.322
81813W        W54238   2.976  30.207   3.642
81814W        W54239  34.374  21.680   2.378
81815W        W54240   8.418  14.679  10.595
81816W        W54241  34.421  22.630  13.752
81817W        W54242  24.538  10.328   4.418
81818W        W54243   7.694  37.892  12.990
81819W        W54244  28.398  23.869  12.465
81820W        W54245  29.442  13.052  11.115
81821W        W54246  12.253   0.912  11.884
81822W        W54247  38.815  20.709  11.270
81823W        W54248  44.321   7.191   1.269
81824W        W54249  29.195  22.437  13.068
81825W        W54250   6.492  31.795   4.908
81826W        W54251  11.303  18.271   4.592
81827W        W54252   4.584  33.680  13.347
81828W        W54253  19.007  21.716  13.068
81829W        W54254  38.792  12.761  14.817
81830W        W54255  32.054   8.973   9.984
81831W        W54256   0.836  13.714   4.231
81832W        W54257  40.794   5.059  11.906
81833W        W54258   4.757   0.513   5.041
81834W        W54259  23.944  27.208   3.021
81835W        W54260  20.850   0.465  12.225
81836W        W54261  34.075  25.658  11.603
81837W        W54262   9.889  31.523  13.206
81838W        W54263  43.847   5.940  13.297
81839W        W54264  31.512  14.121  14.410
81840W        W54265   8.622  18.101   2.313
81841W        W54266  13.396  35.590   4.162
81842W        W54267  37.749  19.937  13.375
81843W        W54268  29.209   9.385  14.232
81844W        W54269  21.227  41.374  14.562
81845W        W54270  29.651   4.847   1.497
81846W        W54271  42.864  26.549   4.134
81847W        W54272  27.632  28.082   3.731
81848W        W54273  30.578  13.283  14.969
81849W        W54274  35.394  35.303  14.091
81850W        W54275  39.564  12.682   0.278
81851W        W54276  31.169  14.282  14.048
81852W        W54277   6.862  40.701   1.073
81853W        W54278   2.834  37.108   1.892
81854W        W54279   5.482  30.615   2.307
81855W        W54280  15.174   2.146   9.701
81856W        W54281  15.863  26.903   4.121
81857W        W54282  12.608  32.524  13.472
81858W        W54283  16.943  34.607  10.194
81859W        W54284  34.902  14.166  10.869
81860W        W54285  38.995  37.220   4.548
81861W        W54286  11.677   4.276   2.338
81862W        W54287   7.963  44.276   0.742
81863W        W54288  37.502   1.905  13.543
81864W        W54289  21.689  12.747  12.039
81865W        W54290   0.613   1.780   2.985
81866W        W54291  15.818  10.220  12.698
81867W        W54292  24.486   0.364  10.525
81868W        W54293   7.671  34.901   3.956
81869W        W54294  32.472  28.973   2.666
81870W        W54295   1.714   7.200   3.386
81871W        W54296   0.480   6.886  11.197
81872W        W54297  27.976  41.619   0.386
81873W        W54298  23.220  30.938  13.552
81874W        W54299  16.377  24.561  13.112
81875W        W54300  36.903  42.989  12.095
81876W        W54301  44.813  23.646  13.842
81877W        W54302  10.212   7.186   4.533
81878W        W54303  11.660  20.821  14.900
81879W        W54304  24.178  20.984  14.379
81880W        W54305  12.213  25.007   0.697
81881W        W54306  26.588  27.522   2.619
81882W        W54307  32.365  22.592   3.188
81883W        W54308  42.067  24.190  13.039
81884W        W54309  39.013   2.886   3.952
81885W        W54310  19.612  38.767   0.745
81886W        W54311   6.769   2.511   2.739
81887W        W54312  27.648  15.256   4.177
81888W        W54313   4.239   7.091  11.771
81889W        W54314  32.340  42.721   0.215
81890W        W54315  44.859   2.913   1.784
81891W        W54316  41.013  18.496   1.710
81892W        W54317   6.590  20.603  14.364
81893W        W54318   8.658  23.639   2.149
81894W        W54319   0.903  10.302  10.640
81895W        W54320  40.101  39.630  12.973
81896W        W54321  20.513  30.394  12.069
81897W        W54322  14.906  14.250   4.247
81898W        W54323  12.320  35.113   3.630
81899W        W54324   5.496  24.957   4.233
81900W        W54325  35.127   8.476   5.513
81901W        W54326  19.629  33.514  10.530
81902W        W54327  11.302  30.045  10.703
81903W        W54328  40.360  38.508   4.222
81904W        W54329  41.022   8.672  14.901
81905W        W54330  14.247  26.924   2.316
81906W        W54331  29.033  37.936  12.284
81907W        W54332  36.547  34.022  13.406
81908W        W54333   7.932  40.251  13.088
81909W        W54334  19.715  10.969  11.125
81910W        W54335  33.590   1.858  11.964
81911W        W54336  39.894  20.573  13.881
81912W        W54337  41.170  14.332   4.774
81913W        W54338  43.456  35.080   4.548
81914W        W54339   1.341  28.381   2.835
81915W        W54340  10.612  26.482  12.099
81916W        W54341  14.251  41.028   3.815
81917W        W54342  10.458  11.183  10.031
81918W        W54343  35.202  11.599   1.758
81919W        W54344  26.859   6.800   0.928
81920W        W54345  22.014  36.632  11.550
81921W        W54346  10.202  19.011  12.533
81922W        W54347  21.015  15.965  13.280
81923W        W54348  24.494  42.703   0.396
81924W        W54349  43.034  44.985   0.662
81925W        W54350  43.908  44.411  10.931
81926W        W54351  22.661  39.375   3.046
81927W        W54352  38.895   6.226   0.972
81928W        W54353   8.885  25.683   2.595
81929W        W54354  30.475  24.963   2.386
81930W        W54355  42.556  10.627  11.164
81931W        W54356  44.504  17.675   2.122
81932W        W54357  14.346  38.593  11.007
81933W        W54358  22.714  28.600  13.138
81934W        W54359  24.585   2.501   4.665
81935W        W54360   5.399  33.620  12.515
81936W        W54361   7.175  11.223   3.012
81937W        W54362  25.412   4.423  12.375
81938W        W54363  28.584  26.183  12.064
81939W        W54364  17.206  39.112   0.454
81940W        W54365  42.570  39.920   1.859
81941W        W54366  27.362  29.632  14.404
81942W        W54367  42.703  40.219  12.052
81943W        W54368  35.029  18.643  12.969
81944W        W54369  38.786   9.827   0.278
81945W        W54370  18.894  24.490   4.694
81946W        W54371   4.521  42.006   3.698
81947W        W54372  27.853   9.891   1.356
81948W        W54373  29.189  31.996   2.799
81949W        W54374  28.345  15.064   2.100
81950W        W54375   4.931  15.358   4.754
81951W        W54376  43.344  25.093  13.034
81952W        W54377  11.797  34.051  11.009
81953W        W54378  30.649   1.376  13.879
81954W        W54379  36.508  44.650   0.732
81955W        W54380  43.856   8.746  14.344
81956W        W54381  18.487  33.657   0.843
81957W        W54382  14.337  21.602  11.892
81958W        W54383  42.518   6.322  10.622
81959W        W54384   7.736   6.784  14.092
81960W        W54385  13.094   5.468   3.291
81961W        W54386  26.024  30.576   3.744
81962W        W54387  27.153  17.105   1.903
81963W        W54388  24.069  22.458  11.075
81964W        W54389  17.358  15.625  10.043
81965W        W54390  25.719  44.756   4.663
81966W        W54391  26.927  25.016   0.746
81967W        W54392  28.637  15.341   1.762
81968W        W54393  41.108  32.970   1.480
81969W        W54394  39.913   0.273   1.895
81970W        W54395  29.204   1.206  10.912
81971W        W54396  24.185  18.907  12.085
81972W        W54397  17.601   5.696  11.965
81973W        W54398  42.657  27.713   4.123
81974W        W54399  24.076  15.612  11.559
81975W        W54400  44.972  24.038   3.164
81976W        W54401  15.305  11.076   3.170
81977W        W54402  33.087  18.919  11.529
81978W        W54403  38.557  19.155  11.469
81979W        W54404  19.964  18.662  11.132
81980W        W54405  30.542  26.977  11.917
81981W        W54406  16.367  24.165  11.656
81982W        W54407  30.770   7.682  12.311
81983W        W54408  36.102  28.233   0.231
81984W        W54409   5.658  11.643   2.676
81985W        W54410  28.091  21.556   4.016
81986W        W54411   3.383  27.396  13.483
81987W        W54412   4.227  39.558   0.489
81988W        W54413  28.670   0.299  13.924
81989W        W54414  22.249  34.833  14.446
81990W        W54415  16.308  40.834  13.145
81991W        W54416  10.933  26.916   2.958
81992W        W54417   2.494  43.233  11.717
81993W        W54418  29.178  14.677  12.141
81994W        W54419  42.655   6.427   4.143
81995W        W54420  36.411  10.140   2.220
81996W        W54421  16.878  34.661   1.854
81997W        W54422  14.896   4.211   5.355
81998W        W54423  27.252  30.639  12.922
81999W        W54424   9.647   7.092  12.941
82000W        W54425  12.639  22.141   2.195
82001W        W54426  12.185  26.248   4.186
82002W        W54427  33.015   6.686   3.734
82003W        W54428  41.967  30.565  13.416
82004W        W54429  18.207  33.198   0.910
82005W        W54430  27.433  15.585   4.597
82006W        W54431   6.842   5.492  12.365
82007W        W54432  28.621   5.166   2.740
82008W        W54433  39.004   1.891   5.047
82009W        W54434  21.737   1.510  14.405
82010W        W54435   1.835  24.969   4.097
82011W        W54436  32.114   4.553  14.459
82012W        W54437   0.866  23.984  13.412
82013W        W54438   0.853  14.197   2.421
82014W        W54439  41.973  26.160  12.605
82015W        W54440   8.148  29.596  13.017
82016W        W54441  31.038  42.267  13.041
82017W        W54442  38.992  29.983  14.173
82018W        W54443  40.003  31.102   2.766
82019W        W54444   0.928  39.615  14.806
82020W        W54445  19.046  23.880   2.403
82021W        W54446  35.899  24.647  10.861
82022W        W54447  19.750   7.439  11.996
82023W        W54448  24.945  29.594   5.150
82024W        W54449  26.414  16.750  10.090
82025W        W54450  13.258   7.900   2.343
82026W        W54451  42.436  19.061   0.519
82027W        W54452  20.020   4.906   3.354
82028W        W54453  11.065  22.292   3.176
82029W        W54454  31.772  42.563  10.952
82030W        W54455  13.621  17.973  13.860
82031W        W54456  11.379  32.502  14.849
82032W        W54457  28.937   7.521   3.727
82033W        W54458  35.629  34.472  11.608
82034W        W54459  22.412   8.914   3.737
82035W        W54460  44.226   8.927  13.344
82036W        W54461  20.618   2.706  11.277
82037W        W54462   8.877  36.954  13.034
82038W        W54463  33.639  12.320  12.577
82039W        W54464   8.919   5.737   2.869
82040W        W54465  41.899  40.697  13.525
82041W        W54466  19.161  33.222   1.016
82042W        W54467   1.180  31.459  10.364
82043W        W54468   0.715  33.529   4.139
82044W        W54469   4.917  16.577  10.496
82045W        W54470  32.457   7.773   0.871
82046W        W54471  26.652   3.886   4.404
82047W        W54472  25.724   3.451   1.253
82048W        W54473  30.409  33.273  12.554
82049W        W54474  23.893  29.805   3.666
82050W        W54475   4.108  10.857   4.578
82051W        W54476  24.648  21.766  13.565
82052W        W54477   8.368  40.801  11.964
82053W        W54478  23.185  36.351  14.064
82054W        W54479  15.534  18.286  12.088
82055W        W54480   3.873  39.870   3.689
82056W        W54481  13.760   8.452   0.012
82057W        W54482  35.986  28.989  14.077
82058W        W54483  20.557   6.248   1.723
82059W        W54484  43.621  26.539   1.868
82060W        W54485  27.088  37.343   0.181
82061W        W54486   4.811  38.735  11.509
82062W        W54487   8.284  34.610   0.062
82063W        W54488  42.338  29.365  12.344
82064W        W54489  24.553   7.709  14.795
82065W        W54490  43.515   8.288  11.920
82066W        W54491   0.718  31.008  13.799
82067W        W54492   5.130  44.355   4.283
82068W        W54493   7.399  36.868  11.160
82069W        W54494   5.621  27.928  14.523
82070W        W54495  17.407  11.817  11.997
82071W        W54496  44.458  26.028  14.317
82072W        W54497  13.183  10.657   0.814
82073W        W54498  39.779   3.897  12.527
82074W        W54499  32.834   2.119   1.668
82075W        W54500  14.693  12.171  14.758
82076W        W54501  24.192  35.443   1.406
82077W        W54502  13.360  36.296  12.321
82078W        W54503  10.814   7.977   1.674
82079W        W54504  15.924  36.378  13.435
82080W        W54505  40.401   3.140   2.102
82081W        W54506  42.810  30.095   0.476
82082W        W54507  44.000   7.819   1.487
82083W        W54508  35.090  14.679   1.760
82084W        W54509  42.885  32.997  10.582
82085W        W54510  36.972  25.543   1.541
82086W        W54511  33.165  19.629  10.696
82087W        W54512   3.284  34.064   4.858
82088W        W54513  18.996   2.951  13.790
82089W        W54514  24.998  37.918   0.130
82090W        W54515  28.203  27.246   2.838
82091W        W54516  27.622  23.239   3.154
82092W        W54517  20.366  26.416  12.088
82093W        W54518  26.716   0.748  13.731
82094W        W54519  30.126  20.676   3.475
82095W        W54520  19.966  13.601  11.659
82096W        W54521  19.245  43.878   4.509
82097W        W54522   3.068  32.241   3.075
82098W        W54523   9.357  39.898  13.898
82099W        W54524  34.981   4.502   2.681
82100W        W54525  42.241  43.471   4.188
82101W        W54526   2.306  18.117  10.683
82102W        W54527  40.257  34.769   0.251
82103W        W54528  22.808  19.273  11.996
82104W        W54529  22.818  38.405  10.184
82105W        W54530   8.943   6.899   3.286
82106W        W54531   2.833  24.648  11.538
82107W        W54532  20.548   6.926   3.851
82108W        W54533   0.981  19.358  12.052
82109W        W54534   2.928   0.314   1.799
82110W        W54535  30.387   8.851   4.070
82111W        W54536  33.478  27.839   4.966
82112W        W54537   3.570  12.618  14.054
82113W        W54538   5.889   0.441   2.056
82114W        W54539  17.089   6.724  14.017
82115W        W54540  20.834  29.312   1.027
82116W        W54541  32.157   9.884  11.979
82117W        W54542  33.540   7.197   0.824
82118W        W54543  39.050  14.054  12.841
82119W        W54544  36.287   6.148  10.317
82120W        W54545   8.098  44.084   0.284
82121W        W54546  36.400  14.314  10.660
82122W        W54547  13.088  42.355  10.966
82123W        W54548  40.513  32.062  14.909
82124W        W54549  43.991  32.054   0.290
82125W        W54550  33.678  14.174  13.383
82126W        W54551   1.415  43.315  14.663
82127W        W54552  18.638  26.263  11.518
82128W        W54553  42.390  32.205   4.082
82129W        W54554   8.314   7.723   1.914
82130W        W54555  12.573  31.757  11.593
82131W        W54556  33.976  39.328  11.611
82132W        W54557  10.641  21.323  11.099
82133W        W54558  10.672  24.792   0.009
82134W        W54559  30.424   2.845  12.479
82135W        W54560  25.189   7.524   2.128
82136W        W54561  34.507  18.701  12.963
82137W        W54562   9.692  23.511  10.791
82138W        W54563  13.394  35.629   1.644
82139W        W54564  29.385   0.534  14.991
82140W        W54565  12.624  40.711   4.091
82141W        W54566  39.141  42.699  14.973
82142W        W54567   6.421   9.809   4.170
82143W        W54568  25.162  41.254   0.052
82144W        W54569  21.617  29.702  13.340
82145W        W54570  25.269  37.654  11.165
82146W        W54571  32.701  18.532  14.442
82147W        W54572  27.052  33.829  14.970
82148W        W54573  37.829  19.174  13.920
82149W        W54574  44.023  34.119   3.612
82150W        W54575  34.520  41.804   3.610
82151W        W54576   5.852  14.936   1.642
82152W        W54577  11.823  10.960  11.960
82153W        W54578  29.981  42.977  13.970
82154W        W54579  34.599   0.375  13.546
82155W        W54580  37.722   0.223   0.838
82156W        W54581  35.273  43.948   1.864
82157W        W54582  22.213  44.899   2.637
82158W        W54583  41.190  12.796   3.687
82159W        W54584  20.689   8.159   0.782
82160W        W54585  13.968  37.573   0.359
82161W        W54586  35.128  36.542  12.444
82162W        W54587  40.111   7.790   1.453
82163W        W54588  35.599  40.820  13.808
82164W        W54589  21.995  36.483  12.430
82165W        W54590  20.748   9.115  14.976
82166W        W54591  44.813  31.086  10.369
82167W        W54592  14.686  40.310   3.257
82168W        W54593   8.039  13.497  12.337
82169W        W54594   6.813  39.813  11.535
82170W        W54595  35.143  14.315   0.459
82171W        W54596  32.975   6.696   2.892
82172W        W54597  44.703  30.957   1.169
82173W        W54598  25.677  28.412  12.614
82174W        W54599  23.789  29.676  12.974
82175W        W54600  36.271   9.227  13.907
82176W        W54601  30.668  36.844   2.275
82177W        W54602  25.695  31.633  14.835
82178W        W54603   6.203   6.937   2.820
82179W        W54604  10.796  33.312   4.412
82180W        W54605  31.434   5.653  13.961
82181W        W54606  19.053  16.463   0.812
82182W        W54607   6.941  15.425  12.923
82183W        W54608  27.132  30.682  11.482
82184W        W54609  23.189   7.135  11.079
82185W        W54610   9.430   7.366   4.108
82186W        W54611  32.968   1.805   1.285
82187W        W54612  17.065  37.952   1.186
82188W        W54613  16.343  27.195   4.073
82189W        W54614  44.636   5.537  13.522
82190W        W54615  26.647  34.541   1.222
82191W        W54616  28.965  30.944  14.086
82192W        W54617   6.765  16.860   2.181
82193W        W54618  19.726  42.755  13.285
82194W        W54619  35.774  29.948   4.547
82195W        W54620  43.334  25.456   2.707
82196W        W54621  17.216  34.873   1.345
82197W        W54622   2.621   0.619   4.094
82198W        W54623   7.747   0.781  12.824
82199W        W54624  24.203  15.197  12.495
82200W        W54625  28.280  42.176   2.853
82201W        W54626  34.372  36.181  12.513
82202W        W54627   8.914  41.407   1.400
82203W        W54628  15.348   5.786  10.487
82204W        W54629  14.027   6.369  13.820
82205W        W54630  15.806  34.043   5.104
82206W        W54631   7.784  19.018   0.023
82207W        W54632  18.357  14.287   0.546
82208W        W54633  14.529   5.325   2.327
82209W        W54634  19.125  24.832   2.862
82210W        W54635  35.398  39.122  11.148
82211W        W54636  28.986  39.944   2.369
82212W        W54637  36.274  23.267  11.688
82213W        W54638  36.018  33.649  14.486
82214W        W54639  43.833  18.331  13.490
82215W        W54640  30.915  17.363   3.224
82216W        W54641   8.881  35.958   1.110
82217W        W54642  26.966  19.182   2.073
82218W        W54643  28.141  30.904  11.197
82219W        W54644  16.152  28.082   4.654
82220W        W54645  33.149  19.548  12.850
82221W        W54646  18.657  32.548  14.899
82222W        W54647  36.825  39.533  14.965
82223W        W54648  24.572   3.417   2.345
82224W        W54649   8.084   1.989  12.581
82225W        W54650  34.609   3.763   2.318
82226W        W54651  20.883  28.512   2.787
82227W        W54652  39.888  19.590  14.322
82228W        W54653  20.699  27.453  14.134
82229W        W54654  23.811  19.441  13.885
82230W        W54655   0.260  19.241  14.307
82231W        W54656  16.636   9.310   0.687
82232W        W54657  25.621  39.731  12.996
82233W        W54658  22.598  31.014   2.172
82234W        W54659   6.749  44.283  12.033
82235W        W54660  27.017  16.880  12.957
82236W        W54661  30.157  18.068  12.243
82237W        W54662  44.927  41.466   3.288
82238W        W54663  24.510  21.215   1.852
82239W        W54664  16.188  40.574  13.570
82240W        W54665  32.965   2.643   2.839
82241W        W54666   5.323  20.802  13.720
82242W        W54667  33.133  33.858   0.990
82243W        W54668  32.670  23.859  10.327
82244W        W54669  39.823   7.622  10.607
82245W        W54670  42.531  36.011  13.878
82246W        W54671  21.453  26.850  13.988
82247W        W54672  30.517  30.434   4.753
82248W        W54673  20.305  10.899   0.241
82249W        W54674   8.496  17.676  14.463
82250W        W54675  16.180  24.077   4.667
82251W        W54676   2.109  11.624   1.368
82252W        W54677   0.010   2.050  12.201
82253W        W54678  40.034   5.516  10.720
82254W        W54679  25.705   2.582  11.632
82255W        W54680   5.507  16.812   4.874
82256W        W54681  34.007  20.604   3.221
82257W        W54682  44.684  11.170  12.357
82258W        W54683  16.044   6.027  10.081
82259W        W54684  29.995  38.046   0.901
82260W        W54685   4.299   7.649   1.952
82261W        W54686  32.914   7.972   2.248
82262W        W54687   0.926  35.673  12.039
82263W        W54688  27.071   5.684   4.693
82264W        W54689  24.543  32.800   3.781
82265W        W54690  41.539  43.282   3.664
82266W        W54691  40.452  37.944   0.932
82267W        W54692  34.553  21.203   4.307
82268W        W54693   7.846   4.937  12.098
82269W        W54694  44.198   8.007   3.657
82270W        W54695  10.824  27.067  13.791
82271W        W54696  40.287  36.476   1.559
82272W        W54697  29.928   5.132  10.694
82273W        W54698  26.774  13.688   2.120
82274W        W54699  34.158  23.303   0.318
82275W        W54700  18.179  37.539   1.908
82276W        W54701  42.436   9.784   3.498
82277W        W54702  39.517  19.052  11.598
82278W        W54703  19.511  40.554   2.420
82279W        W54704  17.201  40.741  13.564
82280W        W54705  26.396  32.213  11.258
82281W        W54706   1.342   1.226   4.251
82282W        W54707  35.309  17.252  12.554
82283W        W54708  21.507  29.026  12.849
82284W        W54709  35.623  42.348   4.578
82285W        W54710  21.289  19.035  10.741
82286W        W54711  35.068   1.855   3.192
82287W        W54712  40.639   0.750   4.492
82288W        W54713   9.785   2.497   2.125
82289W        W54714   3.582  35.951  12.125
82290W        W54715   7.940  20.361   2.416
82291W        W54716   9.043  43.673   3.642
82292W        W54717   9.126  26.488  14.221
82293W        W54718  38.296  21.991   4.134
82294W        W54719  33.293   1.458  11.962
82295W        W54720   5.358  40.429   1.644
82296W        W54721  27.070  28.656   2.245
82297W        W54722  11.430  20.186  14.054
82298W        W54723  24.905  37.427   1.119
82299W        W54724   6.175   2.235   1.953
82300W        W54725  31.817  14.186   4.084
82301W        W54726  22.109  10.882   4.199
82302W        W54727  15.886  35.124  11.004
82303W        W54728  35.315  34.201   1.478
82304W        W54729  38.549  13.032  13.903
82305W        W54730   7.025  21.604   0.060
82306W        W54731  30.223  23.398   1.212
82307W        W54732  44.836   2.559   1.386
82308W        W54733  41.804  44.225  11.047
82309W        W54734  36.438   6.460  13.016
82310W        W54735  19.324  14.536  12.719
82311W        W54736  25.212  19.761   2.772
82312W        W54737  14.776  22.902  10.587
82313W        W54738  17.732  21.811   1.972
82314W        W54739  39.363  30.623   3.263
82315W        W54740  26.154  13.560   0.469
82316W        W54741  40.718   1.007  11.618
82317W        W54742   7.173  22.824  11.733
82318W        W54743   1.011  13.362   0.948
82319W        W54744  23.774  11.124   2.245
82320W        W54745  25.259   6.360  11.107
82321W        W54746  36.823  32.029   4.588
82322W        W54747  32.414  25.423  10.961
82323W        W54748  27.103  38.890   0.472
82324W        W54749  10.362  32.895   2.400
82325W        W54750  24.382  34.866   3.941
82326W        W54751  30.508  14.251  11.811
82327W        W54752   6.178  21.570   1.675
82328W        W54753   2.061  12.638  13.323
82329W        W54754   8.753  17.613   0.919
82330W        W54755  34.216   5.622  12.990
82331W        W54756  29.834  13.309   0.427
82332W        W54757  18.549  17.191  13.202
82333W        W54758  37.095  18.653  12.720
82334W        W54759   1.053  31.724   3.950
82335W        W54760  41.387  35.384   1.776
82336W        W54761  15.558   3.735   9.906
82337W        W54762  27.990  23.161   2.298
82338W        W54763  19.209  23.430   0.855
82339W        W54764  21.047  37.259  14.135
82340W        W54765  36.348   3.483   2.318
82341W        W54766  28.862   7.374  11.094
82342W        W54767  10.683  27.655  10.593
82343W        W54768  19.662  14.767  14.244
82344W        W54769  16.595  32.439   5.510
82345W        W54770  30.820  36.542   2.724
82346W        W54771  22.512  17.185   1.657
82347W        W54772  23.069  26.429   5.041
82348W        W54773  26.679   5.966   0.413
82349W        W54774  12.050  24.105  11.017
82350W        W54775  41.451  32.003   0.405
82351W        W54776   5.981   6.459   3.700
82352W        W54777   6.874  15.243  14.477
82353W        W54778  34.661  30.980   3.700
82354W        W54779  30.157  12.318   1.553
82355W        W54780   1.000   6.420   2.851
82356W        W54781  19.544  29.022  13.921
82357W        W54782   4.677  32.136   5.040
82358W        W54783  35.561  30.117  13.503
82359W        W54784  30.179  26.870  10.810
82360W        W54785   6.158  18.684   4.794
82361W        W54786   6.468  16.951   4.517
82362W        W54787  31.499  16.588  12.525
82363W        W54788  36.862  12.669   3.154
82364W        W54789  38.774  16.221  12.323
82365W        W54790  42.764  25.516  12.431
82366W        W54791  33.449  33.993   2.287
82367W        W54792  35.834   7.326  11.371
82368W        W54793  19.376  14.306   9.874
82369W        W54794  25.895  15.913  14.469
82370W        W54795  37.446  25.211  10.331
82371W        W54796   8.826  38.367   3.160
82372W        W54797  10.744  32.981  14.165
82373W        W54798   4.391  21.043  13.062
82374W        W54799  30.981  32.889   4.101
82375W        W54800  25.662  18.060  12.015
82376W        W54801  34.962  25.846  10.670
82377W        W54802   1.392  41.308   0.287
82378W        W54803  33.459  37.597  11.539
82379W        W54804  39.227  21.787  12.043
82380W        W54805  13.667  24.745  10.017
82381W        W54806  31.416  21.796   5.414
82382W        W54807  13.562  22.472  14.655
82383W        W54808  15.232  24.703  14.676
82384W        W54809  18.607  16.543   2.820
82385W        W54810  30.707   9.649   1.211
82386W        W54811   4.484  12.328   2.290
82387W        W54812  24.732  37.703  12.873
82388W        W54813  16.157  29.487  13.440
82389W        W54814  14.571   3.771   0.397
82390W        W54815   8.658  16.813   2.999
82391W        W54816  41.114  20.110   4.998
82392W        W54817  15.872  28.930  11.629
82393W        W54818  35.525  39.824  14.136
82394W        W54819  37.977   4.553  10.473
82395W        W54820  38.030   5.003   4.496
82396W        W54821  33.940  38.808  11.687
82397W        W54822  18.606  43.072   4.669
82398W        W54823   8.949   9.892   0.502
82399W        W54824  15.874  37.448   1.919
82400W        W54825   3.345  31.097   2.257
82401W        W54826  43.955  43.374   4.577
82402W        W54827   1.853   2.852   1.785
82403W        W54828  21.536  22.268   3.443
82404W        W54829  25.247  20.153  11.535
82405W        W54830   5.695   0.772   3.132
82406W        W54831  32.922   2.985  12.380
82407W        W54832  38.524  33.971   2.966
82408W        W54833  17.659  22.574  10.343
82409W        W54834  33.070  43.349  12.175
82410W        W54835  11.924  22.444   5.008
82411W        W54836  21.848  28.872   1.699
82412W        W54837  32.482  10.829  14.861
82413W        W54838  31.749  15.626  14.959
82414W        W54839  34.001   4.317  13.275
82415W        W54840   1.295  34.568  12.458
82416W        W54841   9.323  37.206   0.802
82417W        W54842  23.613   8.197   3.242
82418W        W54843   5.915   5.632  12.241
82419W        W54844  34.883  25.113  13.820
82420W        W54845  24.462  44.801  13.931
82421W        W54846  34.283   9.265  11.752
82422W        W54847  25.115  21.728   0.826
82423W        W54848  14.874  38.622  13.056
82424W        W54849  40.053   2.832   3.715
82425W        W54850  40.298  39.608  14.346
82426W        W54851  22.708  30.394   4.705
82427W        W54852  26.514  40.244  11.900
82428W        W54853  22.068  29.419  13.299
82429W        W54854  25.543  35.124   2.642
82430W        W54855  34.175  44.517  12.437
82431W        W54856   3.687   0.464   0.704
82432W        W54857  29.764   8.174   3.646
82433W        W54858  42.988  19.612   9.894
82434W        W54859  10.342  27.958  13.287
82435W        W54860   0.006  38.257  14.427
82436W        W54861  21.248  42.112   4.978
82437W        W54862  15.391   6.573   0.401
82438W        W54863   6.143  37.553  11.258
82439W        W54864  30.307  19.064  14.217
82440W        W54865   9.148   4.157   4.443
82441W        W54866  17.505  28.062  10.747
82442W        W54867   3.341  14.367   2.312
82443W        W54868   5.311  33.411   0.636
82444W        W54869  12.674  19.160   3.209
82445W        W54870  18.626   0.495   0.009
82446W        W54871  35.119  19.779   3.292
82447W        W54872  17.359  23.659  12.858
82448W        W54873  32.062  15.666   4.658
82449W        W54874  15.353  30.702  11.665
82450W        W54875   3.666  20.169  11.729
82451W        W54876  33.001   4.814  12.610
82452W        W54877   7.273  23.687  14.080
82453W        W54878   3.727   2.353  10.813
82454W        W54879  17.438  44.722   1.564
82455W        W54880  28.402  20.029   3.020
82456W        W54881  27.531  41.820   0.161
82457W        W54882   9.779  19.293   1.638
82458W        W54883  40.760  30.305   1.876
82459W        W54884   1.520  19.038  14.274
82460W        W54885  12.204   2.343  13.334
82461W        W54886  35.547  20.995   4.739
82462W        W54887  11.309  26.660  14.552
82463W        W54888  32.939  25.010   1.815
82464W        W54889   6.696  28.289  10.405
82465W        W54890  23.482  18.617  13.424
82466W        W54891  33.994  21.205   0.508
82467W        W54892  13.591  31.110   2.672
82468W        W54893  23.704  30.666   4.568
82469W        W54894  41.720  24.914   3.682
82470W        W54895   3.355  28.212   4.250
82471W        W54896  12.697  12.303  13.812
82472W        W54897  29.269  40.337   2.682
82473W        W54898  12.301   2.209   1.403
82474W        W54899  37.286  14.157  13.356
82475W        W54900  12.820  10.680   4.224
82476W        W54901  28.038   9.312   2.294
82477W        W54902  18.583  23.175   1.015
82478W        W54903  32.508  27.462   1.745
82479W        W54904  14.924  39.048  13.352
82480W        W54905  12.936  20.806  11.576
82481W        W54906  16.802  10.745   1.992
82482W        W54907  22.571   5.407   3.248
82483W        W54908  24.527  35.038   4.844
82484W        W54909  10.811  19.611   2.299
82485W        W54910  32.404  30.528  13.420
82486W        W54911  16.296  29.405  10.449
82487W        W54912  15.590  18.204   1.275
82488W        W54913  28.885  18.739   0.049
82489W        W54914   9.313  18.684  13.797
82490W        W54915  35.499  16.479  12.085
82491W        W54916   6.609  36.249   3.640
82492W        W54917  20.785  13.672  13.546
82493W        W54918  25.390  27.264   2.730
82494W        W54919  23.182  16.008   4.461
82495W        W54920  25.116  18.322   2.424
82496W        W54921  22.083   6.169   3.401
82497W        W54922  44.551   9.147   0.429
82498W        W54923  27.664  24.054  13.713
82499W        W54924  44.442  40.011  14.611
82500W        W54925  21.236  43.865  13.254
82501W        W54926  40.508  23.767  10.692
82502W        W54927  27.938  37.689   1.047
82503W        W54928  40.976   6.877  12.310
82504W        W54929  36.862   0.780  13.767
82505W        W54930  40.377  13.907   1.813
82506W        W54931  20.760  44.698   0.312
82507W        W54932  17.282   9.330  13.422
82508W        W54933   4.476  15.167  11.957
82509W        W54934  23.484  22.841  14.946
82510W        W54935   7.471  10.156  13.800
82511W        W54936  13.717  14.769   2.731
82512W        W54937   9.460  43.211   0.218
82513W        W54938   5.527   3.581   0.466
82514W        W54939  11.740  18.054   0.795
82515W        W54940  40.091  36.972   2.747
82516W        W54941  35.833  36.981  13.909
82517W        W54942   7.682  41.800  11.279
82518W        W54943   5.675  39.422  13.095
82519W        W54944  38.915  15.357  12.039
82520W        W54945  12.359  24.013   4.551
82521W        W54946  14.363  34.981   3.875
82522W        W54947   2.913  39.864  12.940
82523W        W54948   6.857  35.428  10.678
82524W        W54949  35.901  26.665  10.320
82525W        W54950  40.270  42.951   2.378
82526W        W54951  36.378  22.419  10.638
82527W        W54952   2.742  22.367   4.576
82528W        W54953  25.657  31.093  13.467
82529W        W54954  31.037  30.467  11.989
82530W        W54955  44.875  25.771  11.419
82531W        W54956   6.893  41.993  14.079
82532W        W54957   3.735  30.509  12.117
82533W        W54958  42.754  44.840   3.821
82534W        W54959  43.067  13.886   3.824
82535W        W54960  12.872  28.474  11.623
82536W        W54961  35.306   8.729   3.699
82537W        W54962  14.797  10.470   2.945
82538W        W54963  17.040  18.235  11.124
82539W        W54964   0.328  31.000  13.451
82540W        W54965  44.779  17.258  11.842
82541W        W54966  32.602   4.782  13.369
82542W        W54967  14.883  33.519  13.373
82543W        W54968  18.503   0.182  10.919
82544W        W54969  20.042  25.564  13.267
82545W        W54970   1.815  19.893  12.528
82546W        W54971  12.890  27.230  13.023
82547W        W54972  35.810   9.375  12.540
82548W        W54973  32.353  18.295   3.201
82549W        W54974  41.690   7.424   0.213
82550W        W54975  28.108   1.178  13.082
82551W        W54976  13.442   0.843   1.766
82552W        W54977  28.718  20.836   0.021
82553W        W54978  21.626  12.456   4.048
82554W        W54979  34.349   5.979   4.268
82555W        W54980  35.491  11.768  13.277
82556W        W54981  18.837  40.575   3.222
82557W        W54982  28.077  26.424   1.040
82558W        W54983  20.191  27.596   0.852
82559W        W54984  11.644  27.911   0.203
82560W        W54985  17.160  16.334   0.880
82561W        W54986  34.405  31.388   4.589
82562W        W54987  28.889  37.470   4.126
82563W        W54988  23.710  30.486   0.415
82564W        W54989   4.907  25.246   2.156
82565W        W54990   3.796   1.710   0.834
82566W        W54991  12.636  26.967  10.992
82567W        W54992   9.323  38.982  14.402
82568W        W54993   4.047  15.300   2.782
82569W        W54994   3.393  18.675   4.538
82570W        W54995  33.319   4.290  11.007
82571W        W54996  36.425  39.088  11.262
82572W        W54997  27.033   2.986   0.714
82573W        W54998  33.125  24.443  14.540
82574W        W54999   7.404  10.416  12.430
82575W        W55000  17.992   8.857  13.193
82576W        W55001  27.863  20.218  14.841
82577W        W55002  42.954   8.148  11.113
82578W        W55003   9.432  14.153  12.425
82579W        W55004  34.135  30.944   3.739
82580W        W55005  35.292  35.314  12.871
82581W        W55006  21.634  11.656   4.320
82582W        W55007  43.187  14.035  13.465
82583W        W55008  41.956   2.423   2.706
82584W        W55009  37.063   8.271   2.409
82585W        W55010  32.116  16.060   2.615
82586W        W55011  30.876  43.788  10.991
82587W        W55012   2.351  33.590   3.224
82588W        W55013  33.568  14.185  11.188
82589W        W55014  23.740  33.022   1.384
82590W        W55015  32.056   5.757   3.969
82591W        W55016  26.137  44.013   1.633
82592W        W55017   7.834  43.748  10.983
82593W        W55018   8.123  18.850   1.856
82594W        W55019  23.633  42.545   0.067
82595W        W55020   6.906   3.580  10.727
82596W        W55021   2.987  21.365   2.645
82597W        W55022  11.213  20.925   2.248
82598W        W55023  11.316  12.178  12.297
82599W        W55024  42.607   3.864   0.921
82600W        W55025  18.063   4.883  14.734
82601W        W55026   4.673  18.835  14.947
82602W        W55027   6.897  13.455   1.785
82603W        W55028  16.251  13.637  11.192
82604W        W55029  18.229  23.131   4.078
82605W        W55030  31.018  28.479   1.708
82606W        W55031   4.850  20.086   3.771
82607W        W55032   6.433   1.854   1.129
82608W        W55033   3.833  33.188  13.845
82609W        W55034   8.319  42.518   4.664
82610W        W55035  27.179  34.925  12.127
82611W        W55036   3.941  40.243  11.268
82612W        W55037  11.635  16.127   1.663
82613W        W55038   3.807  26.112   2.180
82614W        W55039  18.250  37.282  12.815
82615W        W55040  35.085  42.928  13.996
82616W        W55041  17.783   8.709   0.350
82617W        W55042  10.415  42.294  14.004
82618W        W55043  19.748  28.595   1.251
82619W        W55044  13.789  33.171  13.392
82620W        W55045   0.312  34.535   2.212
82621W        W55046  14.089  30.879   2.169
82622W        W55047  23.254  32.008  11.513
82623W        W55048   3.313  31.276  13.973
82624W        W55049   8.438  28.720   4.558
82625W        W55050  39.994   5.217   0.826
82626W        W55051  26.734  20.198   4.519
82627W        W55052   8.450  21.663  12.305
82628W        W55053  24.939  19.254   4.651
82629W        W55054  10.440  13.026   3.246
82630W        W55055   1.907   9.202   1.043
82631W        W55056   1.445   0.236   2.653
82632W        W55057  31.006  27.268   3.254
82633W        W55058  42.330   6.800   2.303
82634W        W55059  40.355  21.921   5.398
82635W        W55060   6.465  13.755   1.648
82636W        W55061   1.310  18.535  10.798
82637W        W55062   7.190  26.720   3.654
82638W        W55063  37.879  29.711  13.550
82639W        W55064  16.327   9.579  14.311
82640W        W55065  31.506   2.933   1.175
82641W        W55066   0.595  35.884  13.449
82642W        W55067   8.780  14.846  12.366
82643W        W55068  24.273  29.676  13.228
82644W        W55069  17.835   8.780   2.216
82645W        W55070  21.164   3.340   0.722
82646W        W55071   6.868  43.100   1.410
82647W        W55072  27.658   1.075   3.256
82648W        W55073   0.888   8.064   3.365
82649W        W55074  14.055  12.091   2.361
82650W        W55075  41.375  44.075   2.302
82651W        W55076  44.408  27.174   0.038
82652W        W55077   6.094  26.975  12.973
82653W        W55078   7.894  20.062  12.636
82654W        W55079  25.728   6.909  12.890
82655W        W55080  32.900   4.642  11.610
82656W        W55081  32.642  13.580   1.427
82657W        W55082  16.236  29.495   3.346
82658W        W55083   0.814  42.857  11.573
82659W        W55084  44.719  29.604  12.515
82660W        W55085  19.119   4.459   4.124
82661W        W55086  12.631  16.636  10.810
82662W        W55087  26.582  37.970   2.102
82663W        W55088  17.043  28.987   3.341
82664W        W55089  28.930  43.957   3.605
82665W        W55090  28.690   1.847   1.895
82666W        W55091  38.830  41.840  12.366
82667W        W55092   5.768  24.487   4.173
82668W        W55093  34.878  38.543  14.397
82669W        W55094  17.518  30.545  11.119
82670W        W55095  12.324  31.909   0.343
82671W        W55096  41.914  41.957  14.064
82672W        W55097  35.911  21.039  12.705
82673W        W55098  32.516  12.181   4.546
82674W        W55099  19.715  38.767  12.157
82675W        W55100  38.978  11.277  13.437
82676W        W55101  26.575   7.452  12.432
82677W        W55102  29.906  17.176   2.312
82678W        W55103  25.720   3.927   2.774
82679W        W55104  13.202   7.199   0.203
82680W        W55105  14.497   2.754   4.246
82681W        W55106  13.673  19.276  12.768
82682W        W55107  15.042   6.244  13.855
82683W        W55108  32.875  30.318   0.579
82684W        W55109  25.763   1.655  10.206
82685W        W55110   3.814  14.930   3.039
82686W        W55111  14.347   4.216  12.954
82687W        W55112  25.134  23.466  14.440
82688W        W55113  11.222  43.766   1.745
82689W        W55114   9.139  36.385   0.471
82690W        W55115  39.752   1.469   2.414
82691W        W55116  38.609   4.892  14.849
82692W        W55117  42.603   7.838   0.047
82693W        W55118  38.438  15.166  11.337
82694W        W55119  42.972  35.406  12.216
82695W        W55120  13.580  24.046  10.532
82696W        W55121  10.268  40.049   3.314
82697W        W55122  31.316  19.583   1.978
82698W        W55123  16.339  32.602   5.019
82699W        W55124  16.348  22.319   4.093
82700W        W55125  30.117  44.813   2.586
82701W        W55126  12.665  12.319   4.113
82702W        W55127  23.909  10.673   1.258
82703W        W55128  25.096  39.914  13.763
82704W        W55129  26.024  18.060  14.853
82705W        W55130   5.484  36.624   1.329
82706W        W55131  21.978   6.401   4.205
82707W        W55132  33.286  14.169  10.197
82708W        W55133  14.986  39.334   1.889
82709W        W55134   9.923  37.479   1.742
82710W        W55135  41.963  35.375   0.978
82711W        W55136  12.356  29.894   1.261
82712W        W55137  23.408  32.939  14.205
82713W        W55138   9.076  22.158  14.672
82714W        W55139  36.502   7.866  13.844
82715W        W55140   5.481   7.432  11.791
82716W        W55141  14.806  25.567   0.108
82717W        W55142  37.547  14.016   3.311
82718W        W55143  43.587  29.040   2.362
82719W        W55144  27.661  36.663  11.469
82720W        W55145  10.141  34.771   1.812
82721W        W55146  14.725  23.165  11.421
82722W        W55147   8.306   8.158  12.349
82723W        W55148  24.533  18.842  13.554
82724W        W55149  18.539  20.899  12.799
82725W        W55150  17.671  36.531  13.950
82726W        W55151  37.574   2.349  13.862
82727W        W55152  37.068  14.767   2.063
82728W        W55153  40.299   2.828  12.457
82729W        W55154  44.827  28.773   1.927
82730W        W55155   3.450  28.475   1.815
82731W        W55156  28.933  20.551  10.584
82732W        W55157   4.230   5.282  12.071
82733W        W55158  17.139   9.970  14.707
82734W        W55159   0.256   8.231   3.664
82735W        W55160  39.739   8.554  13.881
82736W        W55161  18.213   9.170   1.273
82737W        W55162  38.815   4.419  12.594
82738W        W55163  21.751  35.401   4.420
82739W        W55164  35.855  36.575  11.666
82740W        W55165  18.140   9.221  10.702
82741W        W55166  34.593  26.276  11.989
82742W        W55167   4.303  24.663  12.567
82743W        W55168  16.804   1.501  14.327
82744W        W55169   6.622  21.181   5.081
82745W        W55170  29.907  21.709   0.820
82746W        W55171  23.449   9.807   2.696
82747W        W55172  22.716  15.059   3.232
82748W        W55173  22.928   0.077   2.412
82749W        W55174   7.260   4.177  13.504
82750W        W55175  28.186  24.546   3.548
82751W        W55176  21.454  38.058   1.645
82752W        W55177  36.735  33.390  10.158
82753W        W55178  31.525  34.140   3.102
82754W        W55179   4.122  31.524   2.122
82755W        W55180   6.352   8.008  11.756
82756W        W55181  30.107  37.271  14.955
82757W        W55182  34.188  11.837  11.487
82758W        W55183   8.864  19.129   0.890
82759W        W55184  19.299   0.763  11.251
82760W        W55185  32.484  44.725   0.304
82761W        W55186  32.552  41.837  13.078
82762W        W55187  35.031   9.607  11.394
82763W        W55188   3.603  31.548   2.195
82764W        W55189  18.563  44.043   2.866
82765W        W55190   0.060   7.359   0.817
82766W        W55191  10.166  39.495   4.613
82767W        W55192   4.188   5.682  14.287
82768W        W55193  16.133   5.287   0.898
82769W        W55194   6.956  28.485  14.315
82770W        W55195   3.479   4.388   1.537
82771W        W55196  28.565  29.946   0.582
82772W        W55197  18.526  23.720   1.134
82773W        W55198   9.843   7.261   2.906
82774W        W55199  38.910   6.944  14.289
82775W        W55200  17.090  19.790   1.371
82776W        W55201  36.152   6.436   0.830
82777W        W55202  41.087  38.023   0.335
82778W        W55203  34.433  27.864   3.096
82779W        W55204  16.667  44.861  10.850
82780W        W55205  41.831  23.330   0.771
82781W        W55206  26.566  33.447  11.874
82782W        W55207   6.389  43.316   4.161
82783W        W55208   9.034  26.918  12.463
82784W        W55209  30.982  35.324   2.906
82785W        W55210  35.641   4.380  12.108
82786W        W55211  19.004  34.133  14.827
82787W        W55212  13.261  30.521  12.582
82788W        W55213  26.003  19.281   2.871
82789W        W55214  34.764  39.834   0.389
82790W        W55215   0.368  27.994   3.785
82791W        W55216  39.074  16.839   0.057
82792W        W55217  13.384  17.706   4.199
82793W        W55218   4.475  34.879   3.757
82794W        W55219  31.002  44.292   0.408
82795W        W55220  28.111  26.066  10.502
82796W        W55221  10.876   0.559  12.522
82797W        W55222  17.823   4.673  13.807
82798W        W55223  37.841  32.456   2.926
82799W        W55224  35.028  41.286  11.195
82800W        W55225   5.905  25.764   1.403
82801W        W55226  37.640  37.657  14.817
82802W        W55227  14.006  11.406  11.536
82803W        W55228  33.339  29.897  11.212
82804W        W55229  22.873  23.348  14.383
82805W        W55230  41.596  33.071  11.104
82806W        W55231   7.724   0.871   4.607
82807W        W55232   0.564   5.740   2.115
82808W        W55233  42.047  34.951  11.060
82809W        W55234   1.299  43.809   0.853
82810W        W55235   4.750   8.279  12.619
82811W        W55236  26.104  33.611  14.040
82812W        W55237   1.417  41.006  13.784
82813W        W55238  28.073  28.158   4.991
82814W        W55239  37.005  25.228  13.903
82815W        W55240  35.544  37.110   2.190
82816W        W55241  21.312  39.839   2.120
82817W        W55242   5.329  12.063  11.927
82818W        W55243  33.278  25.226   0.427
82819W        W55244   5.772   3.251   2.745
82820W        W55245   1.549  16.224  11.086
82821W        W55246  29.974  30.171   1.472
82822W        W55247  34.920  21.111   1.743
82823W        W55248  18.412   3.997   3.112
82824W        W55249  43.171  35.425   4.278
82825W        W55250  36.023  19.506   2.443
82826W        W55251  23.799   8.826   3.366
82827W        W55252  36.531  11.430  12.348
82828W        W55253   4.465  18.883  12.221
82829W        W55254   0.404  33.170  11.651
82830W        W55255   6.920  36.575   2.708
82831W        W55256  36.781   5.679  10.157
82832W        W55257  17.605   2.418  11.771
82833W        W55258  33.534  10.113   0.911
82834W        W55259   1.303  16.572  12.440
82835W        W55260  32.326  25.136   5.034
82836W        W55261  24.323  43.262  13.907
82837W        W55262   3.513  24.257  11.193
82838W        W55263  43.922  20.326  14.354
82839W        W55264  15.401  24.379   0.112
82840W        W55265   0.248   8.332   2.799
82841W        W55266   2.918  27.551   4.301
82842W        W55267  11.131  19.613  14.867
82843W        W55268  32.906   5.373   2.341
82844W        W55269  39.805  11.389   2.819
82845W        W55270  33.672  33.698   2.667
82846W        W55271  38.086   2.434  12.561
82847W        W55272  29.189  42.255   3.580
82848W        W55273  38.976  21.888  14.750
82849W        W55274  10.293   5.378  12.090
82850W        W55275  37.284  44.160   1.902
82851W        W55276   3.972   9.774   2.871
82852W        W55277  20.583  34.799   0.839
82853W        W55278  18.079   0.503   0.833
82854W        W55279  22.383   9.287   3.159
82855W        W55280  14.115  20.250  11.186
82856W        W55281  26.976  10.127  10.795
82857W        W55282  16.118  14.775   3.824
82858W        W55283   8.359  43.040   3.166
82859W        W55284  41.807  24.509   2.249
82860W        W55285   4.889   6.728   4.738
82861W        W55286  40.365  12.562  12.542
82862W        W55287  43.967  11.090   0.720
82863W        W55288  43.739  35.206   1.688
82864W        W55289  29.039  31.798   4.035
82865W        W55290  14.681   4.350   2.012
82866W        W55291  20.063  40.697   2.842
82867W        W55292   3.271   1.835  14.937
82868W        W55293  23.319  43.003  11.926
82869W        W55294   0.336  33.464   0.963
82870W        W55295  13.187  18.260   3.600
82871W        W55296   5.458   0.787   2.663
82872W        W55297  39.240   5.756  13.093
82873W        W55298  13.689  27.447   1.023
82874W        W55299  37.665  43.696   4.187
82875W        W55300  44.346  19.127   0.013
82876W        W55301  16.261  14.352   3.597
82877W        W55302  36.795  25.537   3.338
82878W        W55303  32.839  40.546   1.234
82879W        W55304  33.669  38.428   1.415
82880W        W55305  14.232  29.648  12.874
82881W        W55306  31.075   6.809   1.361
82882W        W55307  26.309   0.402   2.944
82883W        W55308  15.074  37.086   1.416
82884W        W55309  18.841   4.732  11.929
82885W        W55310  37.896   9.826  14.175
82886W        W55311   3.776  26.473   1.809
82887W        W55312   5.367   4.951  14.176
82888W        W55313  42.908  39.855   0.890
82889W        W55314  32.084  42.052   0.907
82890W        W55315  26.937   8.814   2.419
82891W        W55316   6.243  39.025   3.280
82892W        W55317  25.721  22.823  12.457
82893W        W55318  15.923  41.473  10.216
82894W        W55319  36.164  44.483  11.148
82895W        W55320  20.117  28.481  14.998
82896W        W55321  23.281  28.124   1.040
82897W        W55322  29.681   1.582  12.124
82898W        W55323  27.855  13.054  13.474
82899W        W55324  18.068   5.736   3.601
82900W        W55325  22.134  39.590   1.253
82901W        W55326  19.326   8.693   0.014
82902W        W55327   8.575  28.140   1.625
82903W        W55328   3.513  27.211   0.891
82904W        W55329   0.007  38.317   3.736
82905W        W55330  36.945  27.107   0.421
82906W        W55331  24.082  32.421   0.453
82907W        W55332  39.189  11.747  11.597
82908W        W55333  40.340  30.641   1.831
82909W        W55334  20.622   4.846  13.117
82910W        W55335  33.852  38.337   4.538
82911W        W55336  27.073  16.209   2.094
82912W        W55337  25.626   6.880   1.818
82913W        W55338  34.063   0.022   4.566
82914W        W55339  43.885  37.232  14.088
82915W        W55340  24.313  18.733   0.969
82916W        W55341  19.050  14.538   1.181
82917W        W55342  27.257  42.812   4.092
82918W        W55343  36.301   6.178  13.417
82919W        W55344  43.152  21.015  13.867
82920W        W55345  15.610  44.985   2.851
82921W        W55346  16.004  26.892  12.479
82922W        W55347  28.675   0.056   2.796
82923W        W55348  29.407  27.202   2.306
82924W        W55349  12.895  44.373  13.803
82925W        W55350   5.514  25.426  12.426
82926W        W55351  38.415  15.762  13.010
82927W        W55352  39.302  30.485  10.721
82928W        W55353   0.232  39.189  11.127
82929W        W55354  15.301   7.806  10.658
82930W        W55355  28.020  43.994   4.856
82931W        W55356   9.240  16.144  11.757
82932W        W55357  15.628  35.316  12.895
82933W        W55358  41.607  27.641   1.765
82934W        W55359  14.947  26.155  12.938
82935W        W55360  35.133  34.067   3.228
82936W        W55361  26.056  29.377  13.995
82937W        W55362  39.281  39.340  11.246
82938W        W55363  44.916  18.490  11.677
82939W        W55364  22.993   8.297   0.905
82940W        W55365  30.158  26.436   2.769
82941W        W55366   1.963   5.862  13.487
82942W        W55367   4.273  21.912   0.381
82943W        W55368  19.600  31.685  10.602
82944W        W55369  21.324  26.547  11.472
82945W        W55370  34.572  39.986  11.161
82946W        W55371  43.298  20.079   9.667
82947W        W55372  28.048   7.660  11.887
82948W        W55373  34.357  17.591  10.729
82949W        W55374  23.474   3.250  12.898
82950W        W55375  43.521  42.981  14.256
82951W        W55376  17.713  24.167  11.208
82952W        W55377  21.153  12.707   4.767
82953W        W55378  31.505  11.466  12.154
82954W        W55379   9.759  39.946   3.228
82955W        W55380  24.855  19.589  11.491
82956W        W55381  18.541  29.219   1.807
82957W        W55382   6.006  15.237  12.966
82958W        W55383  27.588  34.752  11.089
82959W        W55384  35.898  13.375   0.397
82960W        W55385   9.241  22.153  13.450
82961W        W55386  30.898  15.682   2.678
82962W        W55387  17.143  32.887  10.953
82963W        W55388  28.748  23.590   1.785
82964W        W55389  34.914   0.974   4.120
82965W        W55390  20.387  22.603  12.630
82966W        W55391   9.534  36.192   3.186
82967W        W55392  43.928   6.117   1.935
82968W        W55393   3.743  15.347  11.130
82969W        W55394   4.687  14.776   3.887
82970W        W55395  38.058  21.478  13.409
82971W        W55396  33.090  32.899  13.747
82972W        W55397   1.911   4.311  11.032
82973W        W55398  29.201  16.547  12.547
82974W        W55399   5.403  38.080  14.527
82975W        W55400  18.370  39.321  12.591
82976W        W55401   4.447  11.437  13.633
82977W        W55402  40.734  26.889  13.409
82978W        W55403  40.850  37.312   3.372
82979W        W55404  23.045  40.165  14.954
82980W        W55405  44.923  11.625  12.361
82981W        W55406  26.615  21.571   0.752
82982W        W55407  28.188   9.713  11.148
82983W        W55408  30.229  17.356  13.596
82984W        W55409   4.547  37.335   1.978
82985W        W55410  17.773   5.770   3.155
82986W        W55411   4.750   8.808   4.600
82987W        W55412  32.290   8.761   4.537
82988W        W55413  26.736  32.750   3.158
82989W        W55414  15.091  39.800  13.200
82990W        W55415  37.277  20.068   0.701
82991W        W55416  15.779  26.083  14.393
82992W        W55417  44.709  33.408   0.210
82993W        W55418  11.713  29.648  11.996
82994W        W55419  42.963   3.456   4.714
82995W        W55420  10.796  14.123  12.527
82996W        W55421  23.525  19.022   1.385
82997W        W55422  32.051  11.401  12.682
82998W        W55423  22.114  40.276  10.926
82999W        W55424  41.873  11.770   2.504
83000W        W55425   2.513  24.994   3.165
83001W        W55426  20.542  34.520  14.609
83002W        W55427  12.185  18.272   0.988
83003W        W55428  22.706  17.631   1.496
83004W        W55429   9.437  19.526  12.509
83005W        W55430  12.385  12.764   4.240
83006W        W55431  32.786   3.999   2.774
83007W        W55432   1.151  27.907  11.463
83008W        W55433  29.452  23.038  11.999
83009W        W55434  19.537   2.539   2.685
83010W        W55435   1.741  41.813   2.363
83011W        W55436  28.718  18.167   4.845
83012W        W55437  36.442  38.405   0.364
83013W        W55438  15.898   5.981  14.867
83014W        W55439  25.258  12.266   0.859
83015W        W55440  12.756  44.043   0.526
83016W        W55441  13.551  29.270   4.052
83017W        W55442   4.801  11.913   2.232
83018W        W55443  17.231  18.154   0.507
83019W        W55444   7.841   9.998   2.714
83020W        W55445  31.965  16.760  14.576
83021W        W55446  16.004  29.067   3.174
83022W        W55447  17.363  29.419   0.248
83023W        W55448  40.095  44.386  13.918
83024W        W55449   0.860   5.203  12.668
83025W        W55450  40.767  41.976  11.070
83026W        W55451  13.097   7.132   0.709
83027W        W55452  44.486  30.399  13.566
83028W        W55453  17.601  25.296  14.973
83029W        W55454  44.153   4.904   3.923
83030W        W55455  37.071  39.793   2.189
83031W        W55456  25.431  30.186  12.452
83032W        W55457   0.383  28.966  10.884
83033W        W55458  31.499   9.367  13.451
83034W        W55459  36.021  20.433   0.229
83035W        W55460  42.418  36.557   3.875
83036W        W55461  12.816  21.783   0.760
83037W        W55462  32.472  40.609  12.540
83038W        W55463  22.166  33.918   2.756
83039W        W55464  41.431  42.843   0.459
83040W        W55465  33.556  44.418  13.109
83041W        W55466   5.275  14.690  10.422
83042W        W55467  23.557  26.972  12.751
83043W        W55468  29.540  10.351  13.031
83044W        W55469  21.043  18.570   2.948
83045W        W55470  22.533  36.590  14.862
83046W        W55471  11.089  17.646  10.514
83047W        W55472  42.481   4.358  13.602
83048W        W55473  29.563  26.216   1.931
83049W        W55474  40.916   3.425  10.966
83050W        W55475  28.386  37.874  10.550
83051W        W55476  32.640   8.766  11.772
83052W        W55477  27.495  41.817  13.280
83053W        W55478  25.681  12.685   3.014
83054W        W55479  14.146   3.969  13.801
83055W        W55480  38.247  13.565  11.703
83056W        W55481  42.530  13.605  11.494
83057W        W55482  17.672  26.564   2.941
83058W        W55483   1.006   8.921   1.251
83059W        W55484  36.036   3.865  11.702
83060W        W55485   1.451   3.435   4.221
83061W        W55486  25.837   4.880   3.652
83062W        W55487  34.641  19.951   3.307
83063W        W55488   1.793  22.541   4.006
83064W        W55489  20.556  33.015  12.059
83065W        W55490  40.854  30.860  11.248
83066W        W55491   2.921  11.856  10.662
83067W        W55492  39.345  36.671   1.886
83068W        W55493  23.503  18.118  11.498
83069W        W55494  44.844  22.086  13.926
83070W        W55495  34.032  28.172  14.896
83071W        W55496  28.438   9.598  11.606
83072W        W55497   4.433  13.123  12.454
83073W        W55498  43.926  43.237  14.050
83074W        W55499   2.681  29.266  14.659
83075W        W55500  23.491   5.606  13.429
83076W        W55501  44.889  41.906  12.081
83077W        W55502   4.804  42.541  13.893
83078W        W55503  30.028   1.772  14.292
83079W        W55504   5.846  18.266   3.249
83080W        W55505   9.368  43.570   3.189
83081W        W55506  26.212  44.003   2.648
83082W        W55507   0.858  43.774   1.595
83083W        W55508  35.883  36.896  10.771
83084W        W55509  37.536  14.071   2.430
83085W        W55510  12.503  15.642  10.562
83086W        W55511   1.866  10.430  10.226
83087W        W55512  38.581   2.937   1.728
83088W        W55513  43.733  19.011  11.518
83089W        W55514  23.526  37.990   3.951
83090W        W55515   1.200  26.183  14.302
83091W        W55516  26.197  31.056  14.316
83092W        W55517   6.404  41.848  13.940
83093W        W55518  33.529  33.378  12.019
83094W        W55519  23.932  17.251  14.795
83095W        W55520  19.238  16.379  12.411
83096W        W55521  17.003  42.482  14.024
83097W        W55522  27.192  11.252   0.488
83098W        W55523  17.659  12.324  12.967
83099W        W55524  40.417  30.051   3.920
83100W        W55525  36.935   7.217   3.076
83101W        W55526  42.481  29.831  12.197
83102W        W55527  27.855   0.756  10.567
83103W        W55528  44.644  37.526  14.741
83104W        W55529  42.066  43.767  12.314
83105W        W55530   0.439  18.662   2.115
83106W        W55531  39.755   9.040   3.659
83107W        W55532  43.062  42.568  10.427
83108W        W55533  38.816  39.947   0.977
83109W        W55534  29.975  13.723   1.891
83110W        W55535   6.864   0.715   3.053
83111W        W55536   5.449  10.102   2.223
83112W        W55537  35.566  37.998  13.891
83113W        W55538  44.197  31.930   4.620
83114W        W55539  40.581  22.012  14.527
83115W        W55540  21.119   3.262   4.118
83116W        W55541   3.998   5.379   2.708
83117W        W55542  38.476   9.816  12.945
83118W        W55543  26.472  41.550   5.154
83119W        W55544  34.529  44.107  13.390
83120W        W55545  29.098  27.647   4.470
83121W        W55546  27.378   4.452   1.712
83122W        W55547  27.454  39.275   1.852
83123W        W55548  36.120  33.935   1.735
83124W        W55549   6.535  42.052   1.991
83125W        W55550   7.011  25.379  13.592
83126W        W55551  18.282   0.417   4.634
83127W        W55552   7.171  17.137   2.799
83128W        W55553  34.490  32.524   0.763
83129W        W55554  12.857  38.812   0.243
83130W        W55555  33.483  14.634  10.380
83131W        W55556  22.298  44.557   1.283
83132W        W55557  18.016  16.731  13.954
83133W        W55558  15.952  33.925   1.856
83134W        W55559   6.902  18.136   4.596
83135W        W55560  31.160  15.652   1.708
83136W        W55561   9.627  39.008  13.987
83137W        W55562  12.690  39.320   0.456
83138W        W55563   0.469  19.613  13.987
83139W        W55564  39.453  27.705  12.783
83140W        W55565  16.754  18.854   0.421
83141W        W55566  42.879  27.931   3.713
83142W        W55567  32.987  33.606  12.960
83143W        W55568  22.945  14.816  12.835
83144W        W55569  19.177  32.029   4.318
83145W        W55570  15.581   3.022  12.938
83146W        W55571   1.814  22.246   0.509
83147W        W55572  20.478   1.979   9.888
83148W        W55573  43.537  33.845   0.838
83149W        W55574  12.168  14.549   1.034
83150W        W55575  38.958  15.336   3.933
83151W        W55576   3.701   4.482   0.280
83152W        W55577  32.530  26.570   2.245
83153W        W55578  30.529  37.053  10.691
83154W        W55579   6.311  13.157   0.907
83155W        W55580  42.925  30.629  14.324
83156W        W55581  37.576  26.524  12.359
83157W        W55582  32.529  40.191  10.383
83158W        W55583  42.737  44.382   4.142
83159W        W55584  25.693  34.945  14.771
83160W        W55585  11.249   9.573  12.637
83161W        W55586  13.773  25.595   0.696
83162W        W55587   5.901   4.363  13.165
83163W        W55588  31.157  41.020   4.219
83164W        W55589  30.524   5.313  12.312
83165W        W55590  22.648  22.770   4.047
83166W        W55591  41.823   2.878   1.257
83167W        W55592  32.963  28.103  13.540
83168W        W55593  34.526  11.324   4.522
83169W        W55594  27.084  19.113  12.437
83170W        W55595  38.313  44.482  14.785
83171W        W55596  31.676  13.337   3.645
83172W        W55597   4.702   4.272  12.416
83173W        W55598  38.815  30.980   4.627
83174W        W55599  34.671  18.153  13.783
83175W        W55600  24.971   3.272   4.357
83176W        W55601  16.569  30.131   4.278
83177W        W55602  25.015  25.438  10.536
83178W        W55603  19.063  10.294   0.986
83179W        W55604  33.961  36.441  12.740
83180W        W55605  27.049   6.390  13.957
83181W        W55606   0.065  16.619   3.623
83182W        W55607   2.673  41.447  11.652
83183W        W55608  38.978  44.349  12.440
83184W        W55609  17.692  16.774  11.483
83185W        W55610   4.608   2.909   3.359
83186W        W55611   7.653  23.243  11.735
83187W        W55612   9.359  13.071  11.537
83188W        W55613  31.939   4.424   0.225
83189W        W55614   8.372   2.155  12.986
83190W        W55615  21.582  20.658  12.399
83191W        W55616  43.987  21.242  10.325
83192W        W55617  30.615   5.300   3.999
83193W        W55618  25.728  28.590   0.427
83194W        W55619  34.905  15.783  12.950
83195W        W55620  30.522  18.710  13.015
83196W        W55621  44.256  39.963  12.592
83197W        W55622  16.360   2.389   0.500
83198W        W55623   3.033  32.140   1.746
83199W        W55624   8.666  21.568   1.935
83200W        W55625   1.723  27.785   0.125
83201W        W55626  35.134  28.605   0.035
83202W        W55627   7.715   8.593   0.248
83203W        W55628   4.300  31.366  14.407
83204W        W55629   6.962  21.075   4.625
83205W        W55630  16.295  35.669  12.180
83206W        W55631   0.270  13.573   4.941
83207W        W55632  14.058  25.132   1.851
83208W        W55633  17.387  36.534  11.940
83209W        W55634   9.869  29.915  11.173
83210W        W55635   6.208  14.721   1.984
83211W        W55636  37.778  22.145   4.144
83212W        W55637  40.434  26.680  14.915
83213W        W55638  33.098   3.755  13.554
83214W        W55639  34.356  28.853   2.719
83215W        W55640  27.933   0.738   3.635
83216W        W55641  12.564  21.125   1.197
83217W        W55642  39.248  23.509  10.054
83218W        W55643  32.376  19.072  12.114
83219W        W55644  42.098  14.851  11.422
83220W        W55645   4.294   4.990  12.946
83221W        W55646  33.924  26.002  12.925
83222W        W55647  13.289  27.096  12.334
83223W        W55648  16.324  24.918   1.149
83224W        W55649  12.954  22.689   3.012
83225W        W55650  16.279  30.254  10.758
83226W        W55651   5.993   2.257   5.116
83227W        W55652  34.126   0.594   0.433
83228W        W55653  38.505   4.530  11.092
83229W        W55654  35.280  24.063   3.176
83230W        W55655   2.709   3.479  14.553
83231W        W55656   7.411  35.963   3.872
83232W        W55657  29.971  12.684  10.966
83233W        W55658   7.278  38.456  11.486
83234W        W55659  23.913  15.162   3.862
83235W        W55660   4.457  36.470   1.705
83236W        W55661  38.771   2.456   1.810
83237W        W55662  24.177  32.706   4.946
83238W        W55663  40.373  27.586  12.770
83239W        W55664   8.772   4.489   1.246
83240W        W55665  18.983  32.655  13.783
83241W        W55666   8.255   7.891  13.572
83242W        W55667  42.399  30.354   4.719
83243W        W55668  12.576   4.136   0.301
83244W        W55669  38.760   5.444  11.284
83245W        W55670  43.536  32.641  14.604
83246W        W55671  16.761  10.965   0.309
83247W        W55672   3.476  18.445  13.946
83248W        W55673  23.096   0.445  14.034
83249W        W55674   5.359  34.177  14.859
83250W        W55675  24.085  27.436  14.891
83251W        W55676  32.386  18.275  11.694
83252W        W55677  31.490  24.373   3.643
83253W        W55678   7.436  43.424   1.835
83254W        W55679  12.841  23.213  13.924
83255W        W55680  29.188  44.360   0.832
83256W        W55681  18.249  12.832   0.308
83257W        W55682  35.581  27.947   3.612
83258W        W55683  38.079  10.820   3.855
83259W        W55684  12.686  16.923   0.888
83260W        W55685  19.362  26.546  13.945
83261W        W55686   3.734  15.242   0.991
83262W        W55687   8.471  43.057   2.269
83263W        W55688  21.126  27.179   3.409
83264W        W55689  12.671  43.789  11.293
83265W        W55690  25.574  43.116  11.324
83266W        W55691   6.567  41.115   1.805
83267W        W55692  20.185  36.799  11.313
83268W        W55693  33.509  12.756  14.217
83269W        W55694  20.326  44.969   4.310
83270W        W55695  34.138   4.211   3.019
83271W        W55696  22.412  40.408   0.258
83272W        W55697  27.439  13.341  10.844
83273W        W55698   7.829  19.769  11.702
83274W        W55699  38.058  41.005   3.383
83275W        W55700  36.010  20.894  14.765
83276W        W55701  40.632   5.255   3.440
83277W        W55702  14.193  30.115   4.972
83278W        W55703   8.163  14.777  11.148
83279W        W55704   8.175  26.199  13.814
83280W        W55705  11.540   1.671   3.870
83281W        W55706  35.853  29.192  11.587
83282W        W55707  33.226  11.669   4.905
83283W        W55708   1.754  23.485   4.082
83284W        W55709  16.196  42.614   0.588
83285W        W55710  32.854  20.330   0.435
83286W        W55711  25.163   9.771  13.395
83287W        W55712  26.245  10.946   2.674
83288W        W55713  11.379  10.265  10.811
83289W        W55714  34.050  31.719   1.025
83290W        W55715  23.487  24.496   3.072
83291W        W55716   6.841  18.207  12.626
83292W        W55717   6.828  41.781   0.985
83293W        W55718  44.033  36.876   4.670
83294W        W55719  13.344  40.754  11.169
83295W        W55720  30.887   4.437   4.071
83296W        W55721  41.425  18.247   1.947
83297W        W55722  36.095   4.302  12.352
83298W        W55723  28.623  26.059   1.856
83299W        W55724  41.484  33.921  12.655
83300W        W55725   1.369  41.117   0.805
83301W        W55726   8.638   5.190  12.105
83302W        W55727  25.266  33.479   1.834
83303W        W55728  22.202   2.411  14.852
83304W        W55729  37.802  19.241  13.023
83305W        W55730  40.033  30.621   0.829
83306W        W55731  43.129  36.082  12.914
83307W        W55732  14.064  26.379   4.526
83308W        W55733  44.972  31.968   1.188
83309W        W55734  16.343  34.429   2.664
83310W        W55735  39.930  25.701  13.597
83311W        W55736  15.315  43.816  12.352
83312W        W55737  17.718  36.618   2.622
83313W        W55738   4.176  33.221   1.305
83314W        W55739  40.997  29.137  11.068
83315W        W55740  32.573   5.766   2.270
83316W        W55741  18.103  38.559  14.227
83317W        W55742  33.530   8.653   0.804
83318W        W55743  34.622   6.501   3.164
83319W        W55744  40.998   7.636   3.221
83320W        W55745  33.449  37.687   4.579
83321W        W55746  20.153  15.146  12.798
83322W        W55747  42.556   4.341  13.084
83323W        W55748   8.873   5.439   4.211
83324W        W55749  37.145   2.861  11.457
83325W        W55750  42.225  21.716   0.827
83326W        W55751  27.613  12.625  13.281
83327W        W55752   9.295  25.691   0.025
83328W        W55753   3.582   0.413  12.947
83329W        W55754  44.339  43.964   3.759
83330W        W55755  17.215  21.607  11.178
83331W        W55756  12.434  25.336   4.040
83332W        W55757  42.218  19.581  12.191
83333W        W55758   0.242  23.027   2.185
83334W        W55759  31.973  23.990   2.225
83335W        W55760  34.474  11.143  14.820
83336W        W55761   7.288   6.106  11.138
83337W        W55762  12.305  36.648   4.530
83338W        W55763  42.032   5.906  13.323
83339W        W55764  37.777  38.320   2.330
83340W        W55765  28.462   7.790  12.249
83341W        W55766  22.486  30.168   1.518
83342W        W55767  44.058  23.400   4.735
83343W        W55768  36.069  43.275   3.689
83344W        W55769  20.706   6.459  13.720
83345W        W55770  24.154   1.852  12.912
83346W        W55771  10.795  14.617   4.403
83347W        W55772  40.073  22.982  13.389
83348W        W55773  36.466  40.511  14.737
83349W        W55774  13.610  11.276  12.111
83350W        W55775   7.961  37.907  13.875
83351W        W55776  15.967  40.107  13.487
83352W        W55777  36.712  10.169  10.180
83353W        W55778  22.981  36.038  12.155
83354W        W55779  15.071  30.373  12.991
83355W        W55780  10.849  40.847   1.883
83356W        W55781   8.615  20.804  10.254
83357W        W55782  44.332   9.223   1.485
83358W        W55783  10.152   8.856   3.222
83359W        W55784  41.082  17.262   4.512
83360W        W55785  13.309  15.918   4.876
83361W        W55786  35.181  23.423   4.246
83362W        W55787  11.791  43.547   3.495
83363W        W55788  13.465  19.042   0.154
83364W        W55789  17.867  21.532  14.480
83365W        W55790  11.858  22.186  12.555
83366W        W55791   1.386  18.835  14.855
83367W        W55792  37.428  32.328   2.167
83368W        W55793  20.586   8.925  11.516
83369W        W55794   0.725  10.330  14.105
83370W        W55795   2.691  34.616   2.078
83371W        W55796  31.931  35.111  14.430
83372W        W55797  14.748   2.711   1.080
83373W        W55798   6.735  19.528  12.454
83374W        W55799  33.461  13.628   1.817
83375W        W55800  12.786  22.458   3.835
83376W        W55801  38.147  37.499   0.878
83377W        W55802   8.413  25.525  11.074
83378W        W55803  33.099  11.304  12.234
83379W        W55804  29.168   2.791   0.393
83380W        W55805  25.807  27.155   4.056
83381W        W55806  27.045  18.751  14.303
83382W        W55807  17.068  25.054   2.858
83383W        W55808  12.910  44.203   4.331
83384W        W55809  29.915   7.822   4.297
83385W        W55810  17.344  25.047  14.477
83386W        W55811   4.585  40.805  14.897
83387W        W55812  35.658  20.511  14.798
83388W        W55813  28.374   2.377  12.909
83389W        W55814  10.899  14.104   4.299
83390W        W55815  43.565   6.642  12.044
83391W        W55816  33.863  28.975   2.844
83392W        W55817  38.835  21.248  10.671
83393W        W55818  14.363  11.123  12.441
83394W        W55819  16.065  17.139  13.320
83395W        W55820  29.229  18.740   0.482
83396W        W55821  22.090  28.819  14.519
83397W        W55822  39.752   7.371  14.698
83398W        W55823  20.473  43.941   4.260
83399W        W55824  40.275  15.793   2.316
83400W        W55825   0.850   9.803  10.779
83401W        W55826  35.375   3.627  10.661
83402W        W55827  17.701  31.689  12.839
83403W        W55828  17.056  14.751  14.301
83404W        W55829  20.556   2.313  12.986
83405W        W55830  31.637   5.679  11.206
83406W        W55831  23.180  34.577   0.466
83407W        W55832  28.463   8.905  12.691
83408W        W55833  10.422  14.684   2.278
83409W        W55834  41.935  39.461  13.969
83410W        W55835   1.423  13.810  13.510
83411W        W55836  43.996   5.421  14.785
83412W        W55837  13.131  35.657   0.859
83413W        W55838  34.087  16.080   1.947
83414W        W55839  11.090   5.275  14.526
83415W        W55840   9.649  23.676  12.041
83416W        W55841  38.826  22.468   4.619
83417W        W55842  27.724  31.959   5.120
83418W        W55843  20.031  31.608   1.580
83419W        W55844  29.593  15.834   4.413
83420W        W55845  42.509  12.269  14.161
83421W        W55846  28.042  14.947   3.053
83422W        W55847  14.134  22.616  12.603
83423W        W55848  13.616   4.477  14.517
83424W        W55849  28.917  19.768   1.932
83425W        W55850  27.106  10.083   1.734
83426W        W55851   5.302  40.483   3.306
83427W        W55852   2.390   3.470   1.587
83428W        W55853  25.145   6.665  13.919
83429W        W55854  22.954  42.480  13.688
83430W        W55855  32.738  35.577  13.142
83431W        W55856  24.625  33.387  11.184
83432W        W55857  39.908  15.723  13.796
83433W        W55858  37.998   7.893   1.875
83434W        W55859  38.925  11.664   3.054
83435W        W55860  33.057  22.653  13.858
83436W        W55861  11.291   1.058  11.866
83437W        W55862  13.398   3.815   4.263
83438W        W55863  26.432  25.151  13.442
83439W        W55864  28.955  43.044   3.674
83440W        W55865  28.160  26.078  11.023
83441W        W55866  28.511   7.518  14.922
83442W        W55867  28.292  36.519  13.800
83443W        W55868  38.299  38.816  11.225
83444W        W55869  31.981  17.013   4.917
83445W        W55870   5.257  27.927   1.767
83446W        W55871  35.898  32.960  14.996
83447W        W55872   1.528  21.691  12.001
83448W        W55873   9.825   2.051   4.284
83449W        W55874  26.545  34.583   0.698
83450W        W55875  13.742  42.506   1.396
83451W        W55876   4.640   8.768  13.503
83452W        W55877   6.596  30.603  14.941
83453W        W55878  37.861  38.584  11.128
83454W        W55879  17.820  14.555  11.061
83455W        W55880   0.349  19.412  10.379
83456W        W55881  30.812  23.561  14.339
83457W        W55882  11.343  14.760  12.130
83458W        W55883  17.770  18.501  14.254
83459W        W55884  31.353  15.780   2.885
83460W        W55885  26.061  23.772  14.255
83461W        W55886  20.200  34.669   4.054
83462W        W55887  34.614  39.517  13.161
83463W        W55888   0.784   8.325   4.444
83464W        W55889  35.563  26.022  14.734
83465W        W55890  22.963  12.511  13.899
83466W        W55891   1.768  32.412  14.559
83467W        W55892  22.469  25.113   5.094
83468W        W55893  15.526   7.195   4.669
83469W        W55894  42.242  28.565  10.706
83470W        W55895  44.660  41.482   5.085
83471W        W55896  16.263  39.347  13.599
83472W        W55897  24.798  40.157   2.370
83473W        W55898  18.053  32.673  11.569
83474W        W55899  41.299  24.188   3.110
83475W        W55900  33.394  28.635   4.534
83476W        W55901   7.773  37.985  10.240
83477W        W55902   3.945  20.211  12.657
83478W        W55903  43.984  31.865  12.492
83479W        W55904  18.658  25.254  12.816
83480W        W55905  21.683  33.535   0.578
83481W        W55906  15.185  44.698   2.805
83482W        W55907  22.333  42.093  10.769
83483W        W55908   0.453   5.003  12.372
83484W        W55909  16.649   4.765   2.095
83485W        W55910  44.770  40.949   1.153
83486W        W55911  21.569  36.041  11.042
83487W        W55912  24.194   8.159  14.268
83488W        W55913   0.956  24.901  10.784
83489W        W55914   8.162   2.441  11.726
83490W        W55915   1.108  10.858  12.991
83491W        W55916  14.287  40.955   1.384
83492W        W55917  27.005  41.878   4.087
83493W        W55918  34.573  22.079  13.434
83494W        W55919   6.930  10.104  14.305
83495W        W55920  42.961   3.074  14.401
83496W        W55921  35.368  31.071  14.201
83497W        W55922  16.053  32.355   4.572
83498W        W55923  35.738  39.849   2.732
83499W        W55924  26.515  24.971  11.572
83500W        W55925   8.359  44.510  14.259
83501W        W55926  44.310  44.417  12.913
83502W        W55927   2.830  41.052  12.554
83503W        W55928  36.839  19.127   2.841
83504W        W55929  32.149  13.613  11.099
83505W        W55930   8.154  24.270  14.907
83506W        W55931  17.267  30.413  13.399
83507W        W55932  14.315  19.628   9.698
83508W        W55933  13.306   5.293  11.915
83509W        W55934  15.290  19.854   4.491
83510W        W55935  15.116  33.932  13.149
83511W        W55936  11.660  25.339   2.906
83512W        W55937  43.949  27.037   4.260
83513W        W55938   0.428   3.600   4.662
83514W        W55939  17.986  14.057   4.254
83515W        W55940   2.480  15.509  11.024
83516W        W55941  25.579  19.615  10.759
83517W        W55942  10.029  13.575  12.840
83518W        W55943  42.211  43.524  13.828
83519W        W55944   7.003   7.830  12.534
83520W        W55945  35.402   6.313  14.043
83521W        W55946  27.634   2.558  11.656
83522W        W55947  12.362  28.613  14.550
83523W        W55948  11.035  38.674   0.861
83524W        W55949  42.280  25.747  13.888
83525W        W55950  13.807   5.255  12.019
83526W        W55951  22.536  12.679  14.133
83527W        W55952  35.675  33.972  13.932
83528W        W55953  15.736  28.543   0.444
83529W        W55954  36.802  37.822  14.534
83530W        W55955   3.784  39.365   3.645
83531W        W55956  35.444   9.233   9.363
83532W        W55957  29.599   6.888  12.538
83533W        W55958  17.201   6.908   1.778
83534W        W55959  30.697  19.846   1.186
83535W        W55960  38.238  33.051   4.857
83536W        W55961  41.285  17.872   1.095
83537W        W55962  11.903  13.712  12.276
83538W        W55963  14.791  17.858   1.846
83539W        W55964   5.173  33.905  11.130
83540W        W55965  25.325  26.875  14.573
83541W        W55966  27.939   4.031  11.042
83542W        W55967  10.464  39.935   2.829
83543W        W55968  28.906  13.616   4.685
83544W        W55969  21.121  24.910  11.284
83545W        W55970  32.097  12.326   4.117
83546W        W55971   3.057  26.200  12.656
83547W        W55972  32.140  27.480   1.391
83548W        W55973  44.011  16.125  14.813
83549W        W55974  34.830   1.547  14.276
83550W        W55975  31.540  33.223   1.318
83551W        W55976  41.451  34.932   3.757
83552W        W55977  13.378  26.439  14.776
83553W        W55978  14.275  34.591  14.880
83554W        W55979  42.307  26.351  12.001
83555W        W55980   1.979  44.512  12.587
83556W        W55981  42.549   7.712   4.152
83557W        W55982  22.937   9.688  10.548
83558W        W55983  21.405  22.223   4.671
83559W        W55984  37.586   2.358  11.441
83560W        W55985   2.263  36.156  12.336
83561W        W55986   1.178  35.594  12.478
83562W        W55987  13.254  18.080  12.169
83563W        W55988  21.907  30.984   3.779
83564W        W55989  12.042  20.676   4.800
83565W        W55990  43.529  20.143   4.458
83566W        W55991   9.227  41.799   3.214
83567W        W55992  28.488  18.562   0.400
83568W        W55993  20.513  17.880   3.844
83569W        W55994  32.379  44.873   2.836
83570W        W55995  25.040   0.158  12.230
83571W        W55996   5.246  21.990   1.853
83572W        W55997  12.610  19.074  12.058
83573W        W55998  27.051  34.476   0.681
83574W        W55999  20.101  11.878  14.828
83575W        W56000  39.906  29.671   1.868
83576W        W56001   5.895  35.875  14.663
83577W        W56002   8.907   2.469  12.185
83578W        W56003  42.671  12.684  11.522
83579W        W56004  38.418  12.928   1.711
83580W        W56005  42.836  15.065   1.204
83581W        W56006  33.024  22.038   2.344
83582W        W56007  12.323  29.081  14.782
83583W        W56008  14.113   3.954  10.702
83584W        W56009  34.939  23.203  10.558
83585W        W56010  20.438   4.715   3.116
83586W        W56011  24.502  36.424   2.536
83587W        W56012  44.355  28.234   2.256
83588W        W56013  10.194  19.512   1.344
83589W        W56014   1.895  44.471   2.654
83590W        W56015  15.182  17.072   2.666
83591W        W56016  39.531  36.522  12.430
83592W        W56017  40.724  20.796  12.436
83593W        W56018  31.057  14.792   0.314
83594W        W56019  21.792  37.208   3.333
83595W        W56020  20.122  30.838   3.895
83596W        W56021  22.325  37.255   1.357
83597W        W56022  22.447  34.945  12.505
83598W        W56023  32.006  42.540   4.095
83599W        W56024  26.529  39.277  11.651
83600W        W56025  44.022   5.439  12.414
83601W        W56026  29.544  26.511   0.865
83602W        W56027  20.593  36.069   3.739
83603W        W56028   3.045  28.900  11.053
83604W        W56029  16.684   0.897   4.071
83605W        W56030   7.909  41.317  13.864
83606W        W56031   5.815  17.811  11.561
83607W        W56032  19.348  38.122   0.872
83608W        W56033   9.167  33.315   3.672
83609W        W56034   9.850   4.062   2.351
83610W        W56035  30.357  41.767   2.143
83611W        W56036  14.885  39.046   2.296
83612W        W56037  44.971  18.097  14.036
83613W        W56038  30.385  36.607  14.268
83614W        W56039  22.316   0.365  12.086
83615W        W56040  31.061  20.532   3.241
83616W        W56041  21.711  19.245  11.071
83617W        W56042  18.823  25.765  12.978
83618W        W56043  42.487   9.480   0.824
83619W        W56044  27.795  37.421  13.030
83620W        W56045  31.328  24.704   4.020
83621W        W56046   0.329  28.927   1.855
83622W        W56047  33.555  38.225   0.923
83623W        W56048   8.754  40.679   4.105
83624W        W56049  24.215  30.737  14.934
83625W        W56050  43.047  11.143   1.030
83626W        W56051  18.355  31.082  11.930
83627W        W56052  16.593  18.038   3.795
83628W        W56053   9.299  22.802   3.111
83629W        W56054  43.034   0.501  12.466
83630W        W56055  14.401  26.062  12.032
83631W        W56056  30.980  40.534   4.181
83632W        W56057  33.767  39.126  12.057
83633W        W56058   5.335  21.305   3.107
83634W        W56059  23.456  32.185  14.686
83635W        W56060  36.581  13.149   1.225
83636W        W56061  33.300   3.332  14.880
83637W        W56062   0.001  40.968   0.607
83638W        W56063  15.046  39.442  11.960
83639W        W56064  10.761   1.714   2.373
83640W        W56065  27.973  32.295   4.195
83641W        W56066  15.430  23.869   1.277
83642W        W56067  38.704  29.511  11.443
83643W        W56068  12.153  13.078  14.905
83644W        W56069  41.866  31.850  12.831
83645W        W56070  11.345   5.832  10.947
83646W        W56071  37.083   8.336   1.890
83647W        W56072  12.400  25.407  12.956
83648W        W56073  32.828  16.082   3.180
83649W        W56074  23.975  13.655   1.436
83650W        W56075  30.565   4.346   4.492
83651W        W56076  24.553  25.568   2.174
83652W        W56077  24.265  43.983   3.594
83653W        W56078  20.722  34.380  12.209
83654W        W56079  17.050  36.580   0.861
83655W        W56080  20.632  15.201  11.102
83656W        W56081  23.465  21.608  11.892
83657W        W56082  11.760  38.087   1.208
83658W        W56083  26.759   3.636   9.787
83659W        W56084  31.946  12.510   3.651
83660W        W56085  12.226  43.961   4.571
83661W        W56086  21.290  14.276   4.581
83662W        W56087  28.082  41.789   1.907
83663W        W56088  20.778  28.717   4.143
83664W        W56089  19.146  14.018  10.721
83665W        W56090   5.051   5.919  13.937
83666W        W56091  18.058  39.565  11.296
83667W        W56092  20.653  32.570   3.895
83668W        W56093  29.972  39.017   4.161
83669W        W56094  27.596  10.226   1.022
83670W        W56095  36.936  21.949   3.962
83671W        W56096  20.470  23.551  14.826
83672W        W56097  20.077  15.635   0.303
83673W        W56098  12.230  20.256  10.681
83674W        W56099  43.558  31.519  10.578
83675W        W56100  33.308  25.068  10.841
83676W        W56101  18.476   8.835   5.243
83677W        W56102  29.371   1.978  14.007
83678W        W56103   1.914  35.784  13.953
83679W        W56104  20.746  35.593   3.291
83680W        W56105  32.103   7.896  14.493
83681W        W56106   3.497   0.922   4.062
83682W        W56107  11.609  23.571   1.376
83683W        W56108  12.299  44.795   0.166
83684W        W56109  33.665   2.818  13.453
83685W        W56110  30.618  25.529   1.243
83686W        W56111  13.294  32.092   4.629
83687W        W56112  18.604  22.030  12.990
83688W        W56113  13.120  11.420  10.439
83689W        W56114  21.185  35.572  14.899
83690W        W56115  22.336  14.984  14.505
83691W        W56116  21.067  14.220   2.237
83692W        W56117  16.958  31.102   3.858
83693W        W56118  19.684  35.604   2.710
83694W        W56119   8.753  33.798  12.857
83695W        W56120   3.225  22.405   3.685
83696W        W56121  27.745  36.394  12.933
83697W        W56122   6.661  29.064  13.604
83698W        W56123  33.035  26.628   4.140
83699W        W56124  42.059  41.555  11.202
83700W        W56125  23.311  37.467  10.557
83701W        W56126  28.552  10.634  14.344
83702W        W56127   4.358  14.297   4.082
83703W        W56128   9.081   6.873  10.866
83704W        W56129   3.870  42.081  11.798
83705W        W56130  23.170  40.762  11.614
83706W        W56131  36.570  44.457   1.824
83707W        W56132  20.549  40.563   2.671
83708W        W56133   4.758  39.316  10.236
83709W        W56134  20.215  39.907   5.418
83710W        W56135  14.863  23.531   3.685
83711W        W56136  38.974  32.032   1.435
83712W        W56137  39.790  36.356   4.586
83713W        W56138  24.607  41.565  12.399
83714W        W56139   7.175  34.445  10.880
83715W        W56140  17.778  24.936  10.739
83716W        W56141   7.723  30.590  11.205
83717W        W56142  44.061  14.830   2.660
83718W        W56143  12.600   2.314  14.556
83719W        W56144   3.833   0.537  11.583
83720W        W56145  20.815  25.586  14.350
83721W        W56146  10.238  28.131   3.538
83722W        W56147  29.653  20.559  12.479
83723W        W56148  34.958  11.257   2.621
83724W        W56149  30.594  10.857  14.032
83725W        W56150  24.556  43.779   4.895
83726W        W56151  16.254  41.073   0.000
83727W        W56152  28.372   7.265  11.090
83728W        W56153  25.372  21.221  13.712
83729W        W56154  12.601   0.722   2.235
83730W        W56155  16.300  27.868   4.103
83731W        W56156  10.831  12.275  14.848
83732W        W56157  30.194  39.314   4.598
83733W        W56158  38.247  18.630   2.371
83734W        W56159   8.335  44.445   4.903
83735W        W56160   3.901   2.994  14.480
83736W        W56161  15.499   5.328  11.368
83737W        W56162   6.877  27.154   4.358
83738W        W56163  13.257   9.289  13.544
83739W        W56164  36.634  36.503   1.770
83740W        W56165   2.329  35.881   4.191
83741W        W56166  44.053  17.660   3.873
83742W        W56167  11.859  21.489  12.879
83743W        W56168  18.836   8.711  12.630
83744W        W56169  28.087  21.502  12.005
83745W        W56170  17.633  21.733  12.576
83746W        W56171  10.858  25.134   0.929
83747W        W56172  25.164   6.614   1.769
83748W        W56173  35.505   7.950   3.289
83749W        W56174  31.562   5.119  11.988
83750W        W56175   1.836  16.104   4.231
83751W        W56176   9.872  38.527  11.721
83752W        W56177  41.095  44.483  12.258
83753W        W56178   0.889  15.189   1.759
83754W        W56179   3.356  40.785   4.505
83755W        W56180   6.382  19.813   4.154
83756W        W56181  39.495   4.874  12.661
83757W        W56182  33.382   7.718   2.214
83758W        W56183  12.396  18.162   3.162
83759W        W56184  22.568   5.285   2.147
83760W        W56185  35.626  25.067   1.042
83761W        W56186  43.037  44.854  11.880
83762W        W56187   0.964  20.086   1.668
83763W        W56188  25.064   3.747   4.563
83764W        W56189   2.066  19.709  10.549
83765W        W56190  25.106  24.043  10.672
83766W        W56191  22.729  16.053   4.173
83767W        W56192   7.968  32.745   0.694
83768W        W56193  43.795  26.042  12.893
83769W        W56194  33.861   5.895   0.701
83770W        W56195   1.864   6.524   4.811
83771W        W56196  41.677  22.466   4.255
83772W        W56197   0.385   8.843   1.688
83773W        W56198  16.195   2.886  11.682
83774W        W56199  15.783  15.491   5.022
83775W        W56200  36.517  13.087   3.154
83776W        W56201  29.065  40.057   1.827
83777W        W56202  11.561  39.075  12.809
83778W        W56203  13.168  11.756  12.836
83779W        W56204  23.493  30.292   3.620
83780W        W56205  17.524  26.604  11.055
83781W        W56206  19.765   3.959   0.106
83782W        W56207   8.070  12.570   3.901
83783W        W56208   0.999  17.276   4.283
83784W        W56209   7.254  13.316  12.946
83785W        W56210   1.223  39.221  11.132
83786W        W56211  26.738  22.110  11.137
83787W        W56212  23.929  25.423   3.209
83788W        W56213  27.917  39.816   4.943
83789W        W56214  27.509  24.226   2.765
83790W        W56215   1.125  44.242   5.069
83791W        W56216   0.265  27.178   3.534
83792W        W56217  24.180  31.224  11.497
83793W        W56218   4.821  35.967  10.379
83794W        W56219   1.715  17.453   3.744
83795W        W56220  38.819  17.376   2.707
83796W        W56221  42.299  28.058  14.293
83797W        W56222  27.512   4.363   2.640
83798W        W56223  20.661  29.375   1.893
83799W        W56224  36.722  35.054  14.753
83800W        W56225  17.188  22.578   3.327
83801W        W56226   6.307  37.544   3.673
83802W        W56227  21.105   3.011  10.611
83803W        W56228  26.150  30.428   0.366
83804W        W56229  42.086  35.565  11.536
83805W        W56230  19.124  32.957   2.021
83806W        W56231  19.189   9.783   3.717
83807W        W56232  38.438  30.132   3.670
83808W        W56233  28.557  25.231  11.010
83809W        W56234  32.905   3.265   1.373
83810W        W56235  22.604  11.244  11.433
83811W        W56236  22.141  11.186   0.230
83812W        W56237  29.682  16.568   3.086
83813W        W56238  42.756  36.454   2.738
83814W        W56239  31.627  21.520  10.540
83815W        W56240   7.737  43.687   4.363
83816W        W56241  17.269   6.461   3.159
83817W        W56242  18.101  12.776  11.183
83818W        W56243  32.478  38.581   3.284
83819W        W56244  39.472  22.993  11.384
83820W        W56245  23.192   0.349  12.311
83821W        W56246   2.817   4.875   1.754
83822W        W56247  38.647  39.015  10.178
83823W        W56248   0.225  11.895   0.318
83824W        W56249  20.187  15.209   0.838
83825W        W56250  21.396  44.461   1.260
83826W        W56251  43.163  31.733   2.776
83827W        W56252   0.813  40.416  13.739
83828W        W56253  26.560  21.599  10.949
83829W        W56254  13.304   7.220  12.883
83830W        W56255   9.873  33.912   4.516
83831W        W56256  33.379   0.696   4.632
83832W        W56257  27.030  21.814   0.994
83833W        W56258  27.040  35.874   1.835
83834W        W56259  21.221  21.823  14.399
83835W        W56260  36.535  12.388   3.755
83836W        W56261  18.602  37.441   1.610
83837W        W56262  28.091  26.675   4.536
83838W        W56263  21.390  30.062  14.314
83839W        W56264  42.255  42.444   2.319
83840W        W56265  29.574  18.980   1.233
83841W        W56266  40.548  18.610  14.997
83842W        W56267  17.217  21.089   0.707
83843W        W56268   2.902  41.898   0.739
83844W        W56269  26.079   8.975   2.130
83845W        W56270   6.615   7.488  11.054
83846W        W56271  11.722   4.529  13.571
83847W        W56272  31.478  11.887   4.798
83848W        W56273   8.120   3.891   1.909
83849W        W56274  12.353  11.167   2.293
83850W        W56275  17.068   7.156   2.710
83851W        W56276  28.624   8.758   1.199
83852W        W56277  34.272  44.193   4.097
83853W        W56278  17.555   5.264  11.579
83854W        W56279  30.145  30.447  11.533
83855W        W56280  25.043  38.801   2.296
83856W        W56281   8.573  30.587  10.281
83857W        W56282  11.666  32.943  12.784
83858W        W56283  13.801  33.484   2.678
83859W        W56284  21.543  33.613   3.717
83860W        W56285  42.279  17.680   1.356
83861W        W56286  17.188  27.801   2.780
83862W        W56287  22.109  19.522   4.319
83863W        W56288  43.376  28.085  13.842
83864W        W56289  33.546  36.657   2.760
83865W        W56290  15.543  37.093  11.191
83866W        W56291  16.791   8.158   4.031
83867W        W56292  37.478  16.142  10.937
83868W        W56293   5.158   8.136   4.188
83869W        W56294  29.327  32.393  12.342
83870W        W56295  29.878   1.001   2.853
83871W        W56296   4.849  41.167  13.947
83872W        W56297  34.922  34.409   1.907
83873W        W56298  43.097  19.310  13.056
83874W        W56299  15.374  11.161  13.811
83875W        W56300  33.878  24.126   2.333
83876W        W56301  33.932  26.083  14.045
83877W        W56302  26.213  30.634  11.937
83878W        W56303  22.603  20.309  11.117
83879W        W56304  33.080  36.249  11.535
83880W        W56305   0.430  11.101   2.360
83881W        W56306  22.055  43.834  13.921
83882W        W56307  30.198  36.130   2.201
83883W        W56308  16.479  15.614  13.517
83884W        W56309   8.365  42.121  12.958
83885W        W56310  40.024  23.981  12.521
83886W        W56311  24.084  17.594   1.270
83887W        W56312  44.756  23.303  11.453
83888W        W56313  28.111  21.386  13.987
83889W        W56314  21.002  18.301  12.012
83890W        W56315  34.161  28.940   1.817
83891W        W56316  36.908   9.665   2.745
83892W        W56317  28.350   3.301   1.256
83893W        W56318   3.502  41.729   0.962
83894W        W56319   0.258  13.199  13.466
83895W        W56320  29.880  36.983   0.907
83896W        W56321  28.998  32.547   1.423
83897W        W56322  32.594   9.414  10.934
83898W        W56323  40.825  17.688   1.288
83899W        W56324   1.503  27.140  13.593
83900W        W56325  23.770  42.952  14.344
83901W        W56326  42.050  15.620  12.000
83902W        W56327  39.565  14.612  12.059
83903W        W56328  26.701   6.794  13.946
83904W        W56329  43.258  38.455   0.903
83905W        W56330  42.366  42.300  13.001
83906W        W56331  40.419  35.376   1.897
83907W        W56332   4.295  43.899  11.644
83908W        W56333  14.345  40.893  10.977
83909W        W56334  26.740  33.338   4.587
83910W        W56335  38.217   8.958   4.598
83911W        W56336   4.279  10.244   0.467
83912W        W56337  43.429  33.922  10.397
83913W        W56338  39.339  23.268   1.686
83914W        W56339  35.087  15.874   2.493
83915W        W56340   5.188   9.614  11.569
83916W        W56341  27.185  15.953  11.867
83917W        W56342  20.066  11.593   1.330
83918W        W56343  22.491  36.035   3.234
83919W        W56344  28.613  11.066  14.599
83920W        W56345  32.145  12.621   1.859
83921W        W56346   2.820  35.401   4.695
83922W        W56347  10.901  23.276   4.120
83923W        W56348  35.924  25.513   3.375
83924W        W56349  33.558   1.016  11.939
83925W        W56350  14.200  37.706  13.593
83926W        W56351  20.531  36.575   4.626
83927W        W56352  39.324  33.633   1.457
83928W        W56353   2.391  38.849  10.602
83929W        W56354  16.714   9.311   1.711
83930W        W56355  30.141   7.119  12.484
83931W        W56356  11.863  30.883   1.946
83932W        W56357  30.392   0.524   1.701
83933W        W56358   6.177  39.580  14.387
83934W        W56359  20.567  10.136   0.825
83935W        W56360  43.497  14.170  13.857
83936W        W56361  18.913  30.732   4.164
83937W        W56362  33.045  36.735  11.418
83938W        W56363  43.960  31.593  11.831
83939W        W56364  30.988  33.670   4.393
83940W        W56365  11.080  10.413   1.274
83941W        W56366  34.757  44.753   3.771
83942W        W56367  42.385  33.620   0.432
83943W        W56368  28.921  34.920  13.435
83944W        W56369  15.000  29.873  12.944
83945W        W56370   2.105  29.866  10.690
83946W        W56371  36.370  31.875  10.246
83947W        W56372   5.240  31.955  14.880
83948W        W56373  34.683  15.099  13.423
83949W        W56374  32.145  34.846   1.224
83950W        W56375  20.642  28.879   1.231
83951W        W56376  22.381  31.283  12.916
83952W        W56377  24.183  16.826  13.005
83953W        W56378   1.833   5.936  12.426
83954W        W56379   7.328  13.845   1.160
83955W        W56380   2.875  44.010  10.717
83956W        W56381  21.700   8.015   3.240
83957W        W56382  24.618   7.214  11.773
83958W        W56383  29.083  37.961   4.135
83959W        W56384  36.099  43.914  13.832
83960W        W56385  19.683  16.207   4.380
83961W        W56386  29.865  19.318  14.277
83962W        W56387  10.529  43.435  10.913
83963W        W56388  10.382   1.927   3.048
83964W        W56389  24.672  36.318   3.554
83965W        W56390  22.488  42.941  10.648
83966W        W56391  33.982  41.479   4.169
83967W        W56392  38.526  38.547   3.397
83968W        W56393  23.256   9.864   5.538
83969W        W56394  28.845  38.065  10.157
83970W        W56395  14.378  33.978   3.915
83971W        W56396  33.501  43.774   1.831
83972W        W56397  39.973  11.193   2.301
83973W        W56398  29.016  14.583   4.250
83974W        W56399  22.573  31.995   1.728
83975W        W56400  30.877  14.657  10.998
83976W        W56401  29.349  19.595  12.329
83977W        W56402  30.369  14.749  13.101
83978W        W56403  29.783  17.095  13.517
83979W        W56404   7.310  34.400  12.850
83980W        W56405  31.972   2.514  13.284
83981W        W56406  15.942  35.424  12.479
83982W        W56407  17.831  44.450  13.005
83983W        W56408  31.437  36.089  11.360
83984W        W56409  29.536  42.148   1.255
83985W        W56410  17.136  30.713   3.558
83986W        W56411  17.463  12.160   0.316
83987W        W56412  40.892  10.541  11.097
83988W        W56413  37.549  25.646  12.795
83989W        W56414  38.892  14.369   4.931
83990W        W56415   4.754  21.604  14.963
83991W        W56416  44.361   6.235   2.237
83992W        W56417  10.690  36.056  14.916
83993W        W56418  36.777  16.721   3.278
83994W        W56419  22.399  38.916  11.862
83995W        W56420   2.171  43.230  13.995
83996W        W56421  14.781  25.762  13.846
83997W        W56422  37.546   5.927   1.314
83998W        W56423   2.912   2.224   1.386
83999W        W56424  29.008   2.140   0.915
84000W        W56425  35.773  31.605  10.613
84001W        W56426  12.390  29.292  10.695
84002W        W56427  18.159  23.503   4.925
84003W        W56428  32.335  35.176  11.271
84004W        W56429  16.123   1.837   2.890
84005W        W56430  32.455   4.939  10.796
84006W        W56431   7.421   3.904  13.890
84007W        W56432  42.739  39.762  14.515
84008W        W56433  31.900   4.858   0.884
84009W        W56434  42.427  26.403  13.352
84010W        W56435  33.199   7.380   3.411
84011W        W56436  34.352   6.781   2.339
84012W        W56437  34.969  13.243   0.885
84013W        W56438  27.486   2.726  14.936
84014W        W56439  22.110  23.485  13.384
84015W        W56440  37.004   4.368  14.259
84016W        W56441  11.937  12.180  14.318
84017W        W56442  14.380  23.712   3.893
84018W        W56443  44.562   8.899   3.788
84019W        W56444  26.674  28.086   1.365
84020W        W56445  42.690  23.731   0.862
84021W        W56446  12.226   2.678  12.405
84022W        W56447   3.676  35.932   4.836
84023W        W56448  23.212  17.498   4.029
84024W        W56449  10.234  12.307   0.221
84025W        W56450  43.933  38.544   1.729
84026W        W56451  13.293  34.211   0.784
84027W        W56452  23.320   1.343  11.724
84028W        W56453  39.655   5.880  12.178
84029W        W56454  10.690  26.478   4.164
84030W        W56455  35.950  32.026  11.987
84031W        W56456   8.675  40.581  13.864
84032W        W56457  36.918   7.860  12.954
84033W        W56458  23.673  36.857   1.133
84034W        W56459  41.973  29.695  13.702
84035W        W56460   1.899  14.892  13.904
84036W        W56461  12.164   1.697  14.001
84037W        W56462  43.770  23.926   2.260
84038W        W56463  34.940  36.335   2.672
84039W        W56464  18.040  28.248  12.867
84040W        W56465   7.194  10.637  12.022
84041W        W56466   4.679  28.484   1.336
84042W        W56467  25.476  22.525  14.958
84043W        W56468  29.448  33.467   4.453
84044W        W56469  15.282   8.080  12.791
84045W        W56470  30.489  23.096  12.941
84046W        W56471  22.764  21.442   3.677
84047W        W56472  41.477   7.825   3.301
84048W        W56473   5.378  28.680  14.041
84049W        W56474  18.785  11.834  14.035
84050W        W56475  13.325   3.976  11.764
84051W        W56476  43.739  19.312  13.310
84052W        W56477  40.759   9.640  14.706
84053W        W56478   3.776  15.539   1.801
84054W        W56479  11.851   7.833  12.508
84055W        W56480  22.194  27.698  11.606
84056W        W56481  27.308  32.953  11.258
84057W        W56482  40.406  25.109  12.993
84058W        W56483  43.908  28.905  12.659
84059W        W56484  23.563  11.839  10.542
84060W        W56485  32.259  37.258   9.877
84061W        W56486  22.455  31.950  11.156
84062W        W56487  19.683  19.083  11.156
84063W        W56488  17.360  15.156  13.492
84064W        W56489  27.048  29.873   2.933
84065W        W56490   1.835  19.680   0.889
84066W        W56491  29.976  26.214   0.880
84067W        W56492  16.330  20.558   0.717
84068W        W56493  19.160   1.960  11.621
84069W        W56494   1.162  39.668  10.923
84070W        W56495   3.902   9.536  14.324
84071W        W56496   4.347  40.440  10.437
84072W        W56497  38.247  31.081  12.030
84073W        W56498  38.060   1.783  11.046
84074W        W56499  24.403   7.308   1.515
84075W        W56500  13.123   5.248  14.350
84076W        W56501   1.391  41.299  11.146
84077W        W56502  14.028  38.059   2.279
84078W        W56503   9.169  24.599   2.710
84079W        W56504   4.412  31.139  12.006
84080W        W56505  44.580  40.298  10.248
84081W        W56506  43.277   9.823  10.685
84082W        W56507  28.498  30.974  14.904
84083W        W56508  14.363   1.577  12.049
84084W        W56509  15.823   2.777  14.655
84085W        W56510   0.165  10.775  10.503
84086W        W56511  15.826   3.263   4.199
84087W        W56512  32.124  43.796   4.513
84088W        W56513   6.714  31.826  13.316
84089W        W56514   7.124  44.998   4.631
84090W        W56515  18.302   3.400  13.018
84091W        W56516  40.783   4.345  10.561
84092W        W56517  21.554   7.764  12.112
84093W        W56518   8.523  29.027   2.182
84094W        W56519  25.677  12.151   1.802
84095W        W56520  36.573  28.494   1.808
84096W        W56521  24.606  19.841  13.290
84097W        W56522  29.696  41.029   3.758
84098W        W56523  24.730  10.575   0.875
84099W        W56524  20.629  25.346  14.778
84100W        W56525   0.247   6.671   2.403
84101W        W56526  34.553   6.671  12.618
84102W        W56527  15.577   5.892  10.950
84103W        W56528  34.588   4.482   0.541
84104W        W56529   1.829   2.152   2.270
84105W        W56530  33.344  26.490   0.705
84106W        W56531  29.440  24.231  13.366
84107W        W56532  22.546  26.104   0.822
84108W        W56533   6.785  30.488  14.364
84109W        W56534  38.485  10.253   3.224
84110W        W56535  34.327   5.740   0.887
84111W        W56536  13.523  28.078  11.632
84112W        W56537  21.036  30.558  13.472
84113W        W56538  40.385   9.300  12.960
84114W        W56539   0.016  22.276  13.142
84115W        W56540  26.434  13.329  11.641
84116W        W56541   4.827   9.625  10.703
84117W        W56542   9.179  20.452   3.813
84118W        W56543  28.697  23.109  11.487
84119W        W56544   7.272  36.462  12.280
84120W        W56545  17.287  29.087   4.617
84121W        W56546  36.504  44.198  13.415
84122W        W56547  36.925  35.663   1.466
84123W        W56548  24.504  41.498  14.299
84124W        W56549  42.840  29.872   3.723
84125W        W56550  16.846  18.233  13.886
84126W        W56551  14.571  38.170  12.387
84127W        W56552  30.004  15.575   1.724
84128W        W56553   7.682  40.848   0.693
84129W        W56554  31.337  11.769   3.289
84130W        W56555  26.543  19.174   2.931
84131W        W56556  29.564   5.760  14.482
84132W        W56557  38.613  27.923   0.168
84133W        W56558  36.617  11.804   1.972
84134W        W56559  33.298   8.186   0.892
84135W        W56560  35.091  13.789   3.661
84136W        W56561  14.999  14.264   1.190
84137W        W56562  31.617   6.325  11.414
84138W        W56563   6.426  14.413  10.691
84139W        W56564  12.333  25.289   1.142
84140W        W56565  38.009  39.268   3.280
84141W        W56566  29.936  22.214  12.942
84142W        W56567  29.739  43.272  10.440
84143W        W56568  44.907  12.216   1.877
84144W        W56569  38.580  38.391  12.979
84145W        W56570   2.215  14.495  11.124
84146W        W56571  36.382  25.557   4.315
84147W        W56572   6.754  42.736  13.511
84148W        W56573  21.740  31.330   2.452
84149W        W56574  22.693  39.761  14.022
84150W        W56575   4.730  18.233  12.987
84151W        W56576   9.263   6.451  11.113
84152W        W56577  22.073  14.718  14.010
84153W        W56578  22.850   2.079  13.594
84154W        W56579  42.816  44.311   1.029
84155W        W56580  31.021   8.760   0.840
84156W        W56581   8.639  30.908  12.951
84157W        W56582  38.888  35.245  10.677
84158W        W56583  19.799  42.971   1.901
84159W        W56584   6.916  43.455   1.848
84160W        W56585  41.954  35.831   3.157
84161W        W56586  32.505  39.029  11.527
84162W        W56587  14.686  25.136   2.915
84163W        W56588  39.884  43.834  14.848
84164W        W56589  44.770  37.363   3.708
84165W        W56590   2.633  38.026   0.843
84166W        W56591   3.027  30.773   4.473
84167W        W56592  37.911  30.669  12.397
84168W        W56593  26.666  34.924  14.841
84169W        W56594  19.334  19.071  14.985
84170W        W56595   3.248  37.937  13.622
84171W        W56596   1.221  11.261  10.425
84172W        W56597  37.626  37.332  11.557
84173W        W56598  14.207   7.455  12.005
84174W        W56599  42.841  16.209   0.350
84175W        W56600  14.632  42.608   1.888
84176W        W56601  18.546   7.152   3.699
84177W        W56602  40.076  32.334  14.963
84178W        W56603  19.564  39.938   4.114
84179W        W56604  42.088  14.712  14.960
84180W        W56605  42.597  33.125   3.973
84181W        W56606  26.899   3.522   4.727
84182W        W56607  17.108  40.045   2.962
84183W        W56608  33.369  17.719  10.452
84184W        W56609  21.962  38.073   4.753
84185W        W56610  40.840  24.112  11.535
84186W        W56611  43.377  40.179  12.033
84187W        W56612  43.387  39.417   0.204
84188W        W56613  40.225  43.462  12.879
84189W        W56614  18.518  26.648  12.970
84190W        W56615  31.986  17.270   4.110
84191W        W56616  14.150  33.945   3.318
84192W        W56617   4.430  35.000  11.667
84193W        W56618  37.764  11.581  12.501
84194W        W56619  19.560  26.465   4.269
84195W        W56620  44.644  28.523  13.402
84196W        W56621  10.561  32.245   3.100
84197W        W56622  31.503  30.419  12.881
84198W        W56623  15.040  42.056  11.104
84199W        W56624  13.305  20.660   0.853
84200W        W56625  15.684  10.678  11.558
84201W        W56626  15.152  24.139  14.722
84202W        W56627  37.579  15.089  11.396
84203W        W56628  15.498  26.261   4.614
84204W        W56629   5.702  42.225   0.436
84205W        W56630  20.082  27.570   3.321
84206W        W56631  33.211  37.637   0.964
84207W        W56632   7.635  12.210   0.827
84208W        W56633   9.306  38.857   4.440
84209W        W56634  18.340  27.502   0.229
84210W        W56635  19.190   4.918  12.870
84211W        W56636  29.474  15.326   2.445
84212W        W56637  13.423  23.273  13.987
84213W        W56638  25.164  29.464   0.484
84214W        W56639   9.286   0.720   1.729
84215W        W56640   4.872  19.552   2.334
84216W        W56641   4.643  42.950  11.243
84217W        W56642  18.874   0.909  11.486
84218W        W56643  26.199  38.682   1.393
84219W        W56644  43.463   9.399  14.716
84220W        W56645  10.697   2.627   3.254
84221W        W56646  44.352   1.281   1.218
84222W        W56647   2.442  15.676   2.087
84223W        W56648  39.945  27.114  14.298
84224W        W56649  41.991  36.632  14.086
84225W        W56650  19.291  38.763  14.405
84226W        W56651  10.937  13.643  12.388
84227W        W56652  15.223  40.838   3.738
84228W        W56653   6.354  24.439  11.593
84229W        W56654  16.693  41.321  11.956
84230W        W56655   6.793   6.005  13.392
84231W        W56656  14.668  28.066  13.621
84232W        W56657   7.130   7.166   1.400
84233W        W56658  24.224  40.543   2.842
84234W        W56659  18.385   3.140  13.898
84235W        W56660  14.289   1.390  14.681
84236W        W56661  13.183  14.960   1.929
84237W        W56662  26.804  36.795  14.949
84238W        W56663   7.901  38.486   0.193
84239W        W56664  37.442  36.444  11.979
84240W        W56665  15.040  11.074   1.818
84241W        W56666   9.389  18.225   2.796
84242W        W56667  21.187   6.457  13.453
84243W        W56668  36.079  18.809  11.392
84244W        W56669  36.872  31.474  13.857
84245W        W56670  13.554  20.691   4.540
84246W        W56671  44.841   0.074  13.168
84247W        W56672  38.609  44.514   2.811
84248W        W56673   2.629  42.501   4.546
84249W        W56674   0.923  11.401  11.740
84250W        W56675  11.844   3.842   3.199
84251W        W56676  20.272  23.553  11.399
84252W        W56677  24.622   4.402  12.134
84253W        W56678  39.050  38.637  12.994
84254W        W56679  23.180  35.480   3.840
84255W        W56680  27.110   4.415   4.433
84256W        W56681  25.549  42.460  10.668
84257W        W56682  37.812  12.751   3.269
84258W        W56683  33.011  43.988  12.843
84259W        W56684  37.477  33.643  14.101
84260W        W56685  27.607   2.344  13.412
84261W        W56686  37.727   3.356   0.314
84262W        W56687   5.004  27.516  12.613
84263W        W56688  35.969  25.785  12.904
84264W        W56689   2.843  20.264  13.558
84265W        W56690   0.828   9.284   3.246
84266W        W56691   1.700  19.416  10.764
84267W        W56692  29.966  35.816   3.557
84268W        W56693  19.923   9.415   4.980
84269W        W56694  34.608  11.654  11.748
84270W        W56695  26.545   4.439  14.281
84271W        W56696  40.387   0.250  14.311
84272W        W56697  10.859  41.337   1.368
84273W        W56698  26.523   6.337  13.079
84274W        W56699  29.810  40.013  10.225
84275W        W56700  22.174   1.428   0.781
84276W        W56701  12.661  40.305   3.308
84277W        W56702  21.078  27.813  13.328
84278W        W56703  21.112  40.798  13.406
84279W        W56704  28.588  41.472  13.899
84280W        W56705  32.879  33.008  11.573
84281W        W56706  12.129  10.179   3.721
84282W        W56707   7.948   3.143   4.188
84283W        W56708   8.907  10.656  14.871
84284W        W56709   0.161  21.762  14.521
84285W        W56710   8.662  17.327   3.044
84286W        W56711  28.139  37.957  11.890
84287W        W56712  14.039   3.735   0.497
84288W        W56713  40.329  20.987   0.504
84289W        W56714   3.361  35.117  11.538
84290W        W56715  29.706  32.991  14.138
84291W        W56716  20.234  27.458   1.730
84292W        W56717   4.028   9.437   3.274
84293W        W56718  22.550   5.841   0.887
84294W        W56719  38.224  10.790  12.451
84295W        W56720  19.496   4.817   4.193
84296W        W56721  12.278  36.267  10.631
84297W        W56722  27.750  32.809  14.507
84298W        W56723  16.656  18.582  13.543
84299W        W56724   9.565  41.972  11.460
84300W        W56725  42.579  29.107   3.351
84301W        W56726  43.275  37.879   2.696
84302W        W56727   1.292  16.126   3.802
84303W        W56728   5.363  17.763   1.704
84304W        W56729  35.776  10.513   3.645
84305W        W56730   5.563  19.522  13.489
84306W        W56731  35.944   1.867   0.691
84307W        W56732   7.310   3.259  15.000
84308W        W56733  24.406  28.200  12.801
84309W        W56734  14.251  25.635   3.760
84310W        W56735  23.216  39.854   0.345
84311W        W56736   8.518  38.890  10.561
84312W        W56737  34.607  28.082  14.299
84313W        W56738  36.286  36.989   0.160
84314W        W56739  24.678   6.314  13.506
84315W        W56740  39.921  11.405  14.959
84316W        W56741  43.260  30.692   2.522
84317W        W56742   2.993  28.242   1.774
84318W        W56743   1.395  14.732  14.562
84319W        W56744  38.478  12.749   1.218
84320W        W56745  20.078  12.843   1.880
84321W        W56746  27.045   9.438  12.422
84322W        W56747  18.138   6.253  10.939
84323W        W56748  12.742  39.651  10.740
84324W        W56749  10.179   5.420   4.102
84325W        W56750  18.735  31.178   2.656
84326W        W56751  25.328   4.946   3.764
84327W        W56752  36.440   3.685   0.212
84328W        W56753  32.849   9.008  12.907
84329W        W56754  25.019  29.166  10.171
84330W        W56755  21.746   5.967   2.954
84331W        W56756  15.098   2.936   3.157
84332W        W56757  19.110  34.321   3.718
84333W        W56758   5.377   9.463  14.969
84334W        W56759  27.249  27.644  12.060
84335W        W56760  10.216  40.042  12.556
84336W        W56761  37.602  34.081   2.619
84337W        W56762  41.032  29.997  11.942
84338W        W56763  24.279   9.094   3.226
84339W        W56764  29.964   9.989   4.146
84340W        W56765  39.296  37.069   3.334
84341W        W56766  25.210  41.902   3.621
84342W        W56767   8.607  12.854  11.165
84343W        W56768  22.687  12.216  12.960
84344W        W56769  30.303   0.081   1.970
84345W        W56770  29.575  42.632   1.432
84346W        W56771  35.685  30.054   3.154
84347W        W56772  33.521   8.898  11.702
84348W        W56773  11.304   6.831   3.107
84349W        W56774  28.486  27.091  11.589
84350W        W56775  29.343  35.540  12.982
84351W        W56776  15.664  44.816  12.993
84352W        W56777  31.162  34.839   0.388
84353W        W56778   2.976  34.160  10.329
84354W        W56779  28.816  18.550   2.290
84355W        W56780  17.020  42.543  12.582
84356W        W56781   3.238  13.332   4.908
84357W        W56782   8.926  26.495   2.189
84358W        W56783  13.642  16.623  13.889
84359W        W56784  24.152  26.441   3.231
84360W        W56785   0.230  33.788   9.829
84361W        W56786  10.123   3.747   2.014
84362W        W56787  36.224  26.665  11.136
84363W        W56788  20.650   8.665   1.452
84364W        W56789   3.828  12.602   2.677
84365W        W56790  41.327  35.947   2.490
84366W        W56791  42.709  41.836   3.241
84367W        W56792  19.664  37.921   4.614
84368W        W56793   2.172   1.578  13.933
84369W        W56794  22.162  27.999   4.045
84370W        W56795  36.395  22.979   2.195
84371W        W56796  41.510  42.227   3.604
84372W        W56797  26.488  13.882  10.752
84373W        W56798  26.552   8.838  11.005
84374W        W56799  25.612  21.504   0.503
84375W        W56800  17.425   6.942   0.870
84376W        W56801  41.503  22.244  11.005
84377W        W56802  28.270  37.884  13.335
84378W        W56803  30.412  39.006  13.442
84379W        W56804  23.535  23.040   0.962
84380W        W56805   9.085  10.373   4.575
84381W        W56806  12.037   9.666   2.244
84382W        W56807  39.517  36.748  14.105
84383W        W56808  10.106  33.134  12.987
84384W        W56809  33.846  11.653   1.792
84385W        W56810  34.061   8.428   3.816
84386W        W56811   9.249  15.589  12.968
84387W        W56812   1.412   8.486  12.022
84388W        W56813   4.210  40.565  12.070
84389W        W56814  38.296  13.350  12.165
84390W        W56815  30.533  39.043   4.933
84391W        W56816  10.173  35.159   4.690
84392W        W56817  20.230  23.322   2.188
84393W        W56818  33.717   4.858   0.407
84394W        W56819  13.878   5.204  10.589
84395W        W56820  18.361  20.044   4.214
84396W        W56821  10.695   2.058   0.531
84397W        W56822   7.862  15.248  13.957
84398W        W56823  42.816  14.340  10.935
84399W        W56824   7.425  27.903   1.392
84400W        W56825  14.122   9.788   1.907
84401W        W56826  40.112  17.221  11.197
84402W        W56827   4.348  42.616  11.030
84403W        W56828  33.661  29.668   2.639
84404W        W56829  41.267  17.492   1.458
84405W        W56830  27.722  36.809   1.895
84406W        W56831  25.257  14.273  13.302
84407W        W56832   4.182  40.616   1.925
84408W        W56833  30.521  31.848   2.340
84409W        W56834  33.603   0.463   4.228
84410W        W56835  26.257   0.693   3.373
84411W        W56836   6.699  24.001   4.059
84412W        W56837  39.059  33.861   0.259
84413W        W56838  10.386  25.638  10.627
84414W        W56839   9.371  44.310   0.933
84415W        W56840   7.057  20.234  12.949
84416W        W56841  41.388   5.808  12.611
84417W        W56842  11.490  35.077  11.066
84418W        W56843  26.020   7.214   2.448
84419W        W56844  15.667  41.410   0.433
84420W        W56845   7.845  15.864  12.013
84421W        W56846  33.631  14.593   3.680
84422W        W56847  18.583   5.643   2.403
84423W        W56848  21.073   9.227  11.548
84424W        W56849  22.389  34.572  13.973
84425W        W56850  38.238   0.501  13.874
84426W        W56851  24.466   8.248   1.649
84427W        W56852   3.566   9.440  11.152
84428W        W56853  10.301  28.199   0.346
84429W        W56854  26.472  19.330   0.724
84430W        W56855   6.007  37.090   0.846
84431W        W56856   8.449  28.528  11.191
84432W        W56857  36.626  29.606   0.011
84433W        W56858  38.267  19.258   2.883
84434W        W56859  38.778   7.815   3.250
84435W        W56860  36.710  26.160   1.949
84436W        W56861  25.087  42.926   2.119
84437W        W56862   6.840  34.812   3.806
84438W        W56863  24.311  24.253   2.782
84439W        W56864  40.508  13.833  11.099
84440W        W56865  22.428   0.076  11.209
84441W        W56866  15.711  12.719   4.174
84442W        W56867  15.828  20.968   0.005
84443W        W56868   6.696  20.657   0.821
84444W        W56869  20.227  41.297   4.621
84445W        W56870  43.441  35.808   3.695
84446W        W56871  13.373   2.901  13.415
84447W        W56872  24.076  37.284   0.022
84448W        W56873  10.784  35.603   2.652
84449W        W56874   2.037  40.727  14.346
84450W        W56875   6.440   0.817   1.509
84451W        W56876   2.391   8.430   1.603
84452W        W56877  30.791   8.144  13.282
84453W        W56878  35.566   0.097  13.436
84454W        W56879   0.794   9.901   3.731
84455W        W56880   2.292  34.523  11.707
84456W        W56881  28.581  20.561  13.308
84457W        W56882  32.976  17.832  13.880
84458W        W56883  27.421  33.503  13.547
84459W        W56884  12.313  12.653  11.723
84460W        W56885  35.867   9.289  10.744
84461W        W56886  33.184  40.876   3.691
84462W        W56887  13.792   5.343  14.817
84463W        W56888  32.923  44.089   4.243
84464W        W56889  36.109  16.777   0.849
84465W        W56890   4.164  39.881   1.316
84466W        W56891  22.282  20.108   1.793
84467W        W56892  36.318  30.067  10.449
84468W        W56893  23.056   3.987  13.527
84469W        W56894   6.938   7.278   0.914
84470W        W56895  21.133  16.335  11.559
84471W        W56896  22.298  29.947   4.681
84472W        W56897  26.610  26.627  13.784
84473W        W56898   1.630  28.132  11.516
84474W        W56899  41.179   5.871   1.856
84475W        W56900  23.079  29.970  10.631
84476W        W56901   0.099  24.292   1.887
84477W        W56902  40.175   8.134   3.818
84478W        W56903  26.227  21.157  12.817
84479W        W56904   2.295   0.339   0.989
84480W        W56905   9.427  37.906   2.279
84481W        W56906   9.023  18.303  13.967
84482W        W56907  12.809  23.625   0.097
84483W        W56908  11.865  43.856   0.692
84484W        W56909   4.942  37.852  11.692
84485W        W56910  31.093  28.643   2.592
84486W        W56911  26.871  29.061   4.107
84487W        W56912   6.468  41.024   2.799
84488W        W56913  16.784   8.660   4.168
84489W        W56914   9.242  42.404  12.143
84490W        W56915  29.100  35.331   2.451
84491W        W56916  22.154   8.231   3.133
84492W        W56917  26.429  35.830   3.204
84493W        W56918  14.096  13.253   1.875
84494W        W56919  10.163  31.363  14.392
84495W        W56920  13.323   6.182   0.813
84496W        W56921  13.823  20.561   0.893
84497W        W56922   2.945  43.503   1.728
84498W        W56923  43.205   0.074   3.758
84499W        W56924  33.980  23.498  13.995
84500W        W56925   8.502  41.426  11.135
84501W        W56926  18.781  33.344  14.448
84502W        W56927  41.061  22.619  13.876
84503W        W56928  34.975  16.194  10.743
84504W        W56929  19.719   6.774  14.839
84505W        W56930  33.827  42.056  11.964
84506W        W56931  28.007  26.934   2.429
84507W        W56932  12.759  30.978   0.184
84508W        W56933  30.588  37.280  13.770
84509W        W56934   1.010  44.753   0.767
84510W        W56935  42.225  23.244   0.333
84511W        W56936  42.568  40.248   1.432
84512W        W56937  28.126  18.019  14.906
84513W        W56938  43.180  20.519  13.755
84514W        W56939  10.230  23.514   3.321
84515W        W56940   9.219  29.072  13.415
84516W        W56941   4.513   5.933  13.922
84517W        W56942  38.408   8.901  11.106
84518W        W56943  33.151  13.147  13.975
84519W        W56944  18.318  13.773  11.190
84520W        W56945  42.447  36.549  13.858
84521W        W56946  17.799   1.420   4.090
84522W        W56947  20.449  14.298   0.244
84523W        W56948  32.140   1.776  13.926
84524W        W56949   8.742   5.687  12.141
84525W        W56950  16.601  12.245   4.245
84526W        W56951   5.300  32.832   0.166
84527W        W56952   1.535  14.633  10.508
84528W        W56953   7.967  20.988   3.694
84529W        W56954   1.039   7.198  13.862
84530W        W56955  34.117  35.727   2.858
84531W        W56956  19.653  22.197   1.389
84532W        W56957  24.709   6.756   3.642
84533W        W56958  21.258  15.219   2.290
84534W        W56959  36.124  22.046  14.471
84535W        W56960   3.884  35.850   3.717
84536W        W56961  11.598   5.715  14.392
84537W        W56962  28.276  16.825   0.706
84538W        W56963   4.376  32.047   0.811
84539W        W56964  28.581  19.158   4.371
84540W        W56965  36.482  12.122  10.723
84541W        W56966  12.049  23.532  10.223
84542W        W56967  24.308  22.395   2.516
84543W        W56968  20.747   8.816  14.438
84544W        W56969  13.549  10.879   2.726
84545W        W56970  21.127  42.767  11.817
84546W        W56971  29.144  36.429   4.774
84547W        W56972  17.049   8.852   2.707
84548W        W56973  40.034  42.467  11.245
84549W        W56974   9.179   6.217   0.260
84550W        W56975  16.012  40.982   2.783
84551W        W56976  28.672  11.634   3.737
84552W        W56977   8.783  30.588   1.993
84553W        W56978  25.687  18.151   3.234
84554W        W56979  29.503   6.755   2.872
84555W        W56980  18.294  31.366  11.485
84556W        W56981  25.786  15.202  10.742
84557W        W56982  27.308  32.110   1.044
84558W        W56983   7.670  19.565  14.306
84559W        W56984  24.369  19.588   1.426
84560W        W56985  19.988   2.881   1.910
84561W        W56986  20.981  14.283   0.297
84562W        W56987  33.301  17.869  12.950
84563W        W56988  33.932  16.348  13.858
84564W        W56989  36.953  20.572  12.476
84565W        W56990  38.537  44.067   1.970
84566W        W56991  27.028  21.006   2.613
84567W        W56992   1.807  43.567   0.864
84568W        W56993  29.681  22.169   1.773
84569W        W56994   0.715  13.399   0.365
84570W        W56995  12.469  33.689  14.339
84571W        W56996  36.730  21.973  13.097
84572W        W56997  40.839  43.526   2.750
84573W        W56998  41.396  26.896   1.837
84574W        W56999  34.007   9.432   3.883
84575W        W57000  15.193  36.457  10.379
84576W        W57001   3.549  17.736   1.507
84577W        W57002  26.756  42.773   4.089
84578W        W57003  19.994  41.058  10.996
84579W        W57004   5.201  43.549  13.945
84580W        W57005  13.124  10.294  14.206
84581W        W57006  17.887  43.920  12.942
84582W        W57007  41.813  35.684   1.842
84583W        W57008  18.058  16.622   1.667
84584W        W57009  36.807   8.309  11.600
84585W        W57010  20.526   2.194   3.709
84586W        W57011   7.738  39.302  12.905
84587W        W57012  18.825  42.071   0.899
84588W        W57013  26.742  15.280   4.305
84589W        W57014  27.915  12.738  11.699
84590W        W57015  36.932  24.424  11.643
84591W        W57016  29.389  16.177  14.905
84592W        W57017  41.970  30.942  11.598
84593W        W57018  23.217  12.781  13.510
84594W        W57019   9.314  36.200   0.926
84595W        W57020  42.892  29.363   3.715
84596W        W57021  25.063  29.620  11.040
84597W        W57022  39.994  44.012   4.693
84598W        W57023  25.866  39.896   0.774
84599W        W57024  15.266  32.931   3.649
84600W        W57025   3.857   8.842  10.653
84601W        W57026  14.139   7.254   4.292
84602W        W57027  22.270  32.282   4.570
84603W        W57028  36.947   0.995  10.661
84604W        W57029  38.923  38.820  12.464
84605W        W57030  34.426  36.128   0.316
84606W        W57031  39.329  10.339  13.203
84607W        W57032  29.832  44.261  12.147
84608W        W57033  36.189  24.584  11.268
84609W        W57034  35.719  15.084   2.805
84610W        W57035  21.013  32.072  11.450
84611W        W57036  31.566  36.837  12.048
84612W        W57037  28.641  28.036   1.942
84613W        W57038  13.167  40.061  14.851
84614W        W57039  25.914  37.084  11.640
84615W        W57040  39.899   4.122  12.073
84616W        W57041  10.918  10.232  14.636
84617W        W57042   1.888   1.371  13.536
84618W        W57043  28.655  36.137  12.050
84619W        W57044   6.276  31.398  11.767
84620W        W57045  15.659  33.385  14.310
84621W        W57046  26.152  44.314  11.658
84622W        W57047  38.003  15.299  11.566
84623W        W57048  15.911  25.010   4.616
84624W        W57049  40.404  10.226  10.159
84625W        W57050  23.514  37.942   0.420
84626W        W57051  31.310  32.865   2.783
84627W        W57052   6.769  20.769  11.177
84628W        W57053   2.471  12.099   2.055
84629W        W57054  41.110   3.317  13.465
84630W        W57055  30.906  43.475   0.044
84631W        W57056  30.065   4.973  12.958
84632W        W57057  32.196   5.317  10.542
84633W        W57058  43.475  20.126  13.212
84634W        W57059   5.462  15.213   2.173
84635W        W57060  44.973  35.554   0.429
84636W        W57061  19.798   1.750   1.561
84637W        W57062  43.279  42.071   4.111
84638W        W57063   0.341  44.936  13.267
84639W        W57064  17.601  12.223  11.159
84640W        W57065  30.817  34.518   2.707
84641W        W57066  30.619  33.339   2.297
84642W        W57067  34.897  28.130   2.839
84643W        W57068   3.764   7.234   0.016
84644W        W57069   2.099   9.724  14.267
84645W        W57070   8.000  44.054  13.526
84646W        W57071  27.541  22.193   4.081
84647W        W57072  32.428  29.741   3.603
84648W        W57073  36.046  29.369  13.309
84649W        W57074   1.542  15.705   2.271
84650W        W57075  19.748   5.110   1.700
84651W        W57076  15.248  33.655  14.555
84652W        W57077  43.384  22.108  11.863
84653W        W57078  22.146  28.197  11.542
84654W        W57079  29.030  12.765  11.024
84655W        W57080   3.348  40.769   2.331
84656W        W57081  16.971  35.328   1.417
84657W        W57082  35.762  39.313   1.242
84658W        W57083  10.634   7.289  11.935
84659W        W57084  40.281  32.589  12.531
84660W        W57085  41.660  37.463   3.649
84661W        W57086  25.171  15.447   4.141
84662W        W57087   2.253  17.578   2.009
84663W        W57088  22.782  27.656  14.779
84664W        W57089  11.711  16.172  10.987
84665W        W57090  40.890  40.213   1.282
84666W        W57091  13.961  22.627   0.403
84667W        W57092  40.376  40.113  14.457
84668W        W57093   4.470  28.964  14.526
84669W        W57094  35.869  32.946  12.923
84670W        W57095  43.930   2.052  12.130
84671W        W57096  18.733  28.074  14.428
84672W        W57097  42.055  14.154  14.608
84673W        W57098   4.903   1.518  12.513
84674W        W57099   9.738  32.080  11.133
84675W        W57100   5.830  17.278  12.339
84676W        W57101  41.305  15.358   1.780
84677W        W57102  20.024  22.936   4.914
84678W        W57103  35.705  36.548  14.631
84679W        W57104  44.901   3.988   0.420
84680W        W57105  20.394  27.957  14.820
84681W        W57106  13.330  13.010   2.219
84682W        W57107   7.377  27.638  10.918
84683W        W57108  39.953  19.295  12.906
84684W        W57109  44.528  17.789   3.648
84685W        W57110  36.379  23.447   4.543
84686W        W57111   4.475   4.338  14.892
84687W        W57112  21.710   7.654  14.567
84688W        W57113  44.184   1.775  14.824
84689W        W57114  23.919  44.790   2.254
84690W        W57115  38.901  20.557  14.067
84691W        W57116  36.397  30.208  13.620
84692W        W57117  11.119  29.934   3.317
84693W        W57118  18.728  38.167  10.698
84694W        W57119  35.889  15.572  11.401
84695W        W57120  16.496  31.575   4.600
84696W        W57121  17.202  43.024   4.720
84697W        W57122  10.900   8.791  11.596
84698W        W57123  16.675  21.999   4.377
84699W        W57124  34.694  37.326   0.873
84700W        W57125  17.863  30.955   1.874
84701W        W57126  30.091   8.286   1.437
84702W        W57127  14.234  23.903  13.927
84703W        W57128  29.170  10.838   0.312
84704W        W57129  16.187  10.629   3.394
84705W        W57130   2.191  30.802  10.422
84706W        W57131  27.812  33.369  13.217
84707W        W57132  22.474   1.279  13.776
84708W        W57133  17.767  22.493  10.843
84709W        W57134  43.291  28.128   4.574
84710W        W57135  43.318  16.773  13.731
84711W        W57136   4.492  35.114  14.382
84712W        W57137  39.564  25.227   3.277
84713W        W57138  34.650  38.891   4.075
84714W        W57139   8.726   5.699   3.785
84715W        W57140  20.602   5.461   4.518
84716W        W57141  39.310  44.892   1.362
84717W        W57142   8.815  30.975   1.034
84718W        W57143  31.865  38.874   2.805
84719W        W57144  24.680   6.713  11.886
84720W        W57145   8.208  14.324   0.531
84721W        W57146  39.758  16.955   2.664
84722W        W57147  34.506  30.515   1.216
84723W        W57148  41.384  35.948  14.945
84724W        W57149  43.983  28.204  11.580
84725W        W57150   3.919  24.948  13.859
84726W        W57151  39.807  40.405  11.012
84727W        W57152  30.058  30.891  12.328
84728W        W57153  30.525  16.393   3.274
84729W        W57154  38.327   2.232   0.295
84730W        W57155   1.158  25.503   4.303
84731W        W57156  10.613  18.322   2.954
84732W        W57157  37.865  25.590   3.254
84733W        W57158   6.893   5.237   2.680
84734W        W57159  32.083  33.939   4.853
84735W        W57160  34.172  14.003   4.537
84736W        W57161  24.732  24.561   4.990
84737W        W57162  42.243   1.882  13.006
84738W        W57163  37.593   1.768   4.213
84739W        W57164  38.076  37.519   4.643
84740W        W57165   8.301  15.840   0.473
84741W        W57166   6.759   5.919   3.739
84742W        W57167   5.684  31.004  14.969
84743W        W57168   0.436  38.082  12.121
84744W        W57169  29.180  27.892  12.563
84745W        W57170  20.531  44.184  11.601
84746W        W57171   1.161  10.426  13.846
84747W        W57172   5.151  17.112   5.140
84748W        W57173  40.447  37.542   1.257
84749W        W57174  12.579  39.442   1.428
84750W        W57175  18.156   9.120   4.067
84751W        W57176  28.542  24.675   2.167
84752W        W57177  17.766  39.084   2.677
84753W        W57178  25.083  11.610   1.304
84754W        W57179  20.778   9.648   0.844
84755W        W57180   1.204   1.869   4.143
84756W        W57181  26.874  23.505  12.999
84757W        W57182  11.113  44.811   3.342
84758W        W57183  39.649  19.449   4.040
84759W        W57184  22.026  19.017  11.408
84760W        W57185  22.107  42.290  13.442
84761W        W57186  20.925  17.485   4.241
84762W        W57187  16.185  31.524   2.480
84763W        W57188  37.368  21.099  10.295
84764W        W57189  40.559  12.831  11.246
84765W        W57190   6.740   0.798  11.930
84766W        W57191  24.255  23.470   3.109
84767W        W57192  32.937   6.956   2.455
84768W        W57193  16.995  15.540  13.402
84769W        W57194  37.048   2.871   4.200
84770W        W57195   6.924  35.309   3.615
84771W        W57196  10.207   1.965   4.625
84772W        W57197  32.401  19.552   4.103
84773W        W57198  32.867  32.602   0.839
84774W        W57199  36.579  15.719   0.360
84775W        W57200  21.934  43.794   4.026
84776W        W57201  32.744   5.790   0.404
84777W        W57202  43.550  31.044   3.466
84778W        W57203  13.119  42.762   1.233
84779W        W57204   1.748  12.989  12.632
84780W        W57205   9.739  28.080   0.354
84781W        W57206  40.387   9.898   1.389
84782W        W57207   2.264  23.653   4.346
84783W        W57208  16.191  26.400  12.562
84784W        W57209  43.781  14.051  13.437
84785W        W57210  31.568  40.004   4.785
84786W        W57211  11.393  26.498  11.041
84787W        W57212  36.783  36.854   2.714
84788W        W57213   9.510  20.024  11.196
84789W        W57214   2.827  38.360   1.416
84790W        W57215  22.459  21.524   4.082
84791W        W57216  16.485  36.540   0.060
84792W        W57217  28.729  37.575  13.997
84793W        W57218  30.939  35.474  12.962
84794W        W57219   8.658  32.644   0.268
84795W        W57220  28.643  35.307   3.418
84796W        W57221  27.069  27.911   1.041
84797W        W57222  33.907  34.804  12.501
84798W        W57223   0.197  41.416   2.820
84799W        W57224  18.095  28.450   4.066
84800W        W57225  14.449  15.168   4.357
84801W        W57226  36.112  41.545   2.313
84802W        W57227   8.214  22.603   2.230
84803W        W57228  39.809  19.216   2.761
84804W        W57229   5.780  32.957   2.149
84805W        W57230  40.908  19.711  14.372
84806W        W57231  10.621  12.346   0.939
84807W        W57232  22.693  26.963   2.657
84808W        W57233  23.028  36.842  13.903
84809W        W57234  13.172  15.748   3.640
84810W        W57235   8.370  33.706  14.000
84811W        W57236  12.307  39.123  12.338
84812W        W57237  29.584  40.222  13.484
84813W        W57238  34.601  24.946  10.755
84814W        W57239  32.473  28.979   4.067
84815W        W57240  21.998  26.404   2.669
84816W        W57241  23.194  38.899   4.572
84817W        W57242  43.582  26.032   4.109
84818W        W57243  29.234  20.989  10.639
84819W        W57244  23.553   1.175   3.560
84820W        W57245  39.049  12.728   0.264
84821W        W57246  24.126  11.772  11.863
84822W        W57247  35.473   6.704   0.706
84823W        W57248  22.085  42.521   4.043
84824W        W57249   6.403  20.799  11.614
84825W        W57250  23.192  31.582   2.240
84826W        W57251  19.767  36.496   2.723
84827W        W57252  32.284  17.708  14.449
84828W        W57253  19.351  35.052   2.774
84829W        W57254  13.433  40.776   0.394
84830W        W57255  43.953  39.864  14.518
84831W        W57256  34.919   9.369  10.656
84832W        W57257  14.525   6.255  13.837
84833W        W57258   9.579  14.791  14.516
84834W        W57259  36.382  26.418   4.319
84835W        W57260   8.825  10.312  14.037
84836W        W57261  19.512  18.159  13.924
84837W        W57262  22.359  10.399  14.952
84838W        W57263   9.461  31.108  11.535
84839W        W57264  44.802  12.421  11.911
84840W        W57265   9.434  35.012   4.174
84841W        W57266  39.385  21.122  14.599
84842W        W57267  40.453  19.253  13.125
84843W        W57268  31.491  41.352  14.780
84844W        W57269  32.732  39.866   1.812
84845W        W57270  26.607  12.603  11.961
84846W        W57271  31.936  30.446   4.938
84847W        W57272  41.418  26.473   5.176
84848W        W57273  31.316   0.408  10.859
84849W        W57274   4.866   1.557   3.708
84850W        W57275  27.674   6.097   3.958
84851W        W57276  18.346   8.654  11.831
84852W        W57277  11.607  41.515  13.856
84853W        W57278  33.649   3.894   3.896
84854W        W57279  14.666  27.568  12.380
84855W        W57280   4.902  33.480  12.465
84856W        W57281  20.996   3.857   2.213
84857W        W57282  32.388  26.937  12.493
84858W        W57283   6.518   0.349  11.302
84859W        W57284   8.797  19.582   4.606
84860W        W57285  13.183  26.716  10.284
84861W        W57286  20.980   2.506  10.641
84862W        W57287   5.822  16.600   0.025
84863W        W57288  24.083  21.203  13.892
84864W        W57289  24.060  14.661   4.670
84865W        W57290  19.493  36.003  11.628
84866W        W57291  27.157  20.972   4.520
84867W        W57292  30.618  23.526   5.659
84868W        W57293  31.158  32.639  13.348
84869W        W57294  15.532  40.446   1.299
84870W        W57295  28.549   0.304   4.786
84871W        W57296  35.159  24.443  11.133
84872W        W57297  29.386  38.843  10.593
84873W        W57298  22.924   2.897  14.794
84874W        W57299  34.461  19.726  12.421
84875W        W57300  28.928   3.770   2.579
84876W        W57301  38.278  37.768   1.799
84877W        W57302  10.159  44.512   1.395
84878W        W57303  40.327  20.414   3.623
84879W        W57304  30.700  42.513   4.863
84880W        W57305  42.502  21.305   0.565
84881W        W57306  11.528  28.823   1.066
84882W        W57307   0.917  20.491   0.205
84883W        W57308  13.314   8.799  14.426
84884W        W57309  16.122  35.795   1.208
84885W        W57310   9.790  28.409   1.921
84886W        W57311  28.661  41.537  12.452
84887W        W57312  35.865  14.385  11.547
84888W        W57313  37.596  36.456   3.246
84889W        W57314  30.602  28.154   4.677
84890W        W57315   0.817  23.707   2.133
84891W        W57316  41.705  26.915  14.897
84892W        W57317  41.574  38.496   2.719
84893W        W57318  21.536  12.745   5.137
84894W        W57319  25.212  27.476  11.090
84895W        W57320  16.848  40.298  12.567
84896W        W57321  28.643   5.879   0.465
84897W        W57322  10.798  25.374   2.154
84898W        W57323  22.328  44.925   3.145
84899W        W57324  30.322  11.700  14.079
84900W        W57325  12.014  25.711  14.767
84901W        W57326  24.326  44.974  12.850
84902W        W57327   5.242  18.867  11.149
84903W        W57328  18.855  27.549  12.082
84904W        W57329  10.273  41.088   2.334
84905W        W57330  25.296  37.474   3.595
84906W        W57331  34.568  21.510   0.029
84907W        W57332  31.102  37.621  14.761
84908W        W57333  15.686  39.740  12.872
84909W        W57334  44.286  14.109  12.056
84910W        W57335  15.703  40.577   5.040
84911W        W57336   1.262  31.461  12.716
84912W        W57337  18.143  25.036  12.364
84913W        W57338  21.080   8.992  13.364
84914W        W57339  11.472  15.276  10.723
84915W        W57340  17.607  19.278   1.209
84916W        W57341  24.556  19.095   1.293
84917W        W57342  30.217  39.777  14.398
84918W        W57343  27.896  43.869   0.768
84919W        W57344  30.466  36.962   4.783
84920W        W57345  29.795   4.928  12.477
84921W        W57346   4.284  23.632  12.473
84922W        W57347  31.195  30.084  12.632
84923W        W57348   3.362  11.746  11.605
84924W        W57349  37.337  22.005   2.457
84925W        W57350  16.327  16.729  13.195
84926W        W57351  14.249  29.939  11.611
84927W        W57352  11.931  41.011   1.504
84928W        W57353  43.957  33.082   4.105
84929W        W57354  38.594  41.128   3.374
84930W        W57355  43.736  31.214   1.143
84931W        W57356  15.211  31.663   4.290
84932W        W57357   2.573   6.812  10.607
84933W        W57358  40.298  23.714  11.613
84934W        W57359  22.575  10.218  14.498
84935W        W57360  34.466  23.517   4.615
84936W        W57361  40.874  12.800   2.374
84937W        W57362  24.236  30.050   0.910
84938W        W57363   9.445  12.618   3.705
84939W        W57364  24.490   5.281  11.541
84940W        W57365  37.522   2.216   4.605
84941W        W57366   7.325  12.109  14.811
84942W        W57367  26.616   5.746  12.969
84943W        W57368  16.183  11.927   4.288
84944W        W57369  12.761  19.801   1.748
84945W        W57370  44.731  38.816   2.443
84946W        W57371  28.454  44.251   4.976
84947W        W57372  17.771  25.659  13.774
84948W        W57373  32.477  40.562  11.401
84949W        W57374   0.533  43.054  13.552
84950W        W57375  29.385  41.917  11.687
84951W        W57376  42.007  34.932  13.612
84952W        W57377   6.997  11.254  13.548
84953W        W57378   3.419  12.717   3.240
84954W        W57379  31.567  19.095  13.638
84955W        W57380  29.139   3.886  12.928
84956W        W57381  38.417  12.103   3.097
84957W        W57382  22.370  39.840  13.611
84958W        W57383  43.208  31.941   4.748
84959W        W57384   6.966  41.015   1.479
84960W        W57385  37.478  28.126  14.750
84961W        W57386  18.748  10.659  10.681
84962W        W57387  26.644   3.252  10.989
84963W        W57388  31.473  29.872  14.830
84964W        W57389  25.906  10.810  11.656
84965W        W57390  25.734  19.764   2.682
84966W        W57391  18.344  26.405  13.788
84967W        W57392  37.576  10.438  13.758
84968W        W57393  31.555  41.160   2.688
84969W        W57394   2.809   4.180   1.277
84970W        W57395  33.493  30.652   1.750
84971W        W57396   2.961  19.800  10.374
84972W        W57397  34.015   7.167   1.854
84973W        W57398  44.445  23.534  10.064
84974W        W57399  27.250  41.547   2.585
84975W        W57400  20.707   0.033  11.967
84976W        W57401  37.927  22.728  14.855
84977W        W57402  24.921  21.195   2.698
84978W        W57403  20.571  24.128   4.421
84979W        W57404  29.518   1.421   1.036
84980W        W57405  22.342  28.554   1.656
84981W        W57406  34.319  40.450   1.430
84982W        W57407  16.912  18.016  12.476
84983W        W57408  25.944  10.661  12.148
84984W        W57409   3.760  22.100  13.485
84985W        W57410  30.157  33.441  11.295
84986W        W57411  34.107  30.164   3.314
84987W        W57412   8.207  26.418   1.866
84988W        W57413   1.491  11.384  13.821
84989W        W57414  33.609  41.656  14.792
84990W        W57415  30.296  43.980  13.461
84991W        W57416   8.827  16.122   2.220
84992W        W57417  14.243   6.863   1.242
84993W        W57418   3.172  25.025  10.769
84994W        W57419  25.480   8.614   3.050
84995W        W57420  41.086  17.710   4.262
84996W        W57421   8.364   8.881  13.933
84997W        W57422  10.552  12.863   4.575
84998W        W57423  16.797  33.949   3.226
84999W        W57424  37.269  43.999   4.129
85000W        W57425  36.050   2.780  10.700
85001W        W57426  33.449  11.734  13.798
85002W        W57427  41.814  26.543  10.231
85003W        W57428  29.581  28.637   2.298
85004W        W57429  29.460  14.346   2.415
85005W        W57430  44.395  37.657  12.736
85006W        W57431  11.558  26.614  11.987
85007W        W57432  30.636  38.951  12.980
85008W        W57433  13.274  30.132   2.845
85009W        W57434  14.647  24.211  14.036
85010W        W57435  42.264  35.032   4.161
85011W        W57436   6.323  19.569  11.568
85012W        W57437   2.689  14.109   1.834
85013W        W57438   3.379  18.588  11.222
85014W        W57439  42.841   0.844  14.702
85015W        W57440  20.991  32.323   4.186
85016W        W57441   8.691  38.429   4.630
85017W        W57442  18.242  14.843   3.631
85018W        W57443  32.965   5.281  12.052
85019W        W57444  43.489  24.734  12.346
85020W        W57445  17.753   9.326   2.439
85021W        W57446  35.914   6.406  13.002
85022W        W57447  33.163  10.027   3.994
85023W        W57448  30.929  14.958   3.483
85024W        W57449  35.415   0.486  11.954
85025W        W57450  29.454  38.968   4.184
85026W        W57451  32.106  40.283   0.275
85027W        W57452  13.032   4.297   5.121
85028W        W57453  42.859  37.045   4.047
85029W        W57454  28.462  40.490   4.691
85030W        W57455  34.986  24.577   1.985
85031W        W57456  37.973  20.101  14.399
85032W        W57457  41.467  21.009   1.297
85033W        W57458   3.307  37.418  13.482
85034W        W57459  13.790  12.825  12.741
85035W        W57460  16.091   2.712  10.872
85036W        W57461   0.757   1.586  13.949
85037W        W57462  23.593  18.984  13.789
85038W        W57463  37.663  25.689  11.449
85039W        W57464  33.130   3.008  12.879
85040W        W57465  43.261   2.334  14.109
85041W        W57466  27.942   4.427   3.334
85042W        W57467   0.426   4.548  11.090
85043W        W57468  23.164  38.834   2.181
85044W        W57469   2.677  31.590  11.377
85045W        W57470  34.429  19.621  11.373
85046W        W57471  21.995  40.297   2.181
85047W        W57472  40.140  42.556   3.710
85048W        W57473  40.818  32.402  13.252
85049W        W57474  40.450  28.125  11.500
85050W        W57475   2.353  43.895   4.637
85051W        W57476   2.798  22.782   2.304
85052W        W57477  14.836  28.268  11.708
85053W        W57478  33.858  23.234  13.565
85054W        W57479  11.522  38.035  13.409
85055W        W57480  39.377  15.699  13.834
85056W        W57481  44.029  17.420  13.317
85057W        W57482  39.011  38.094  10.459
85058W        W57483  31.638  31.622  14.336
85059W        W57484  41.080  44.893  13.007
85060W        W57485  39.523  41.564   4.218
85061W        W57486  42.192  21.133   5.187
85062W        W57487  21.529   7.834   0.566
85063W        W57488   8.323  27.607  12.750
85064W        W57489  44.519   2.161  11.085
85065W        W57490   5.150  11.647   1.938
85066W        W57491  44.048  35.475   1.351
85067W        W57492   4.947  36.318  14.823
85068W        W57493  38.290  27.599   3.298
85069W        W57494   8.752  38.610   0.814
85070W        W57495  26.003  39.993  11.899
85071W        W57496  39.468   8.177  12.651
85072W        W57497  32.066  40.902   4.557
85073W        W57498  18.590   5.875   1.392
85074W        W57499  34.555  29.951  12.489
85075W        W57500  25.572  36.969   1.017
85076W        W57501   7.076   8.457  12.987
85077W        W57502   9.189  26.168   4.633
85078W        W57503  41.187  21.745   5.167
85079W        W57504  11.387  26.128   2.858
85080W        W57505   0.992  29.569  11.867
85081W        W57506  30.515  37.455   0.593
85082W        W57507   3.511  44.717  10.753
85083W        W57508   9.726  19.389   1.145
85084W        W57509  26.664  30.285   0.375
85085W        W57510  29.688   6.230   3.720
85086W        W57511  31.624  29.402   2.154
85087W        W57512  44.339   8.551  13.664
85088W        W57513  20.560  18.241  11.667
85089W        W57514  29.771  31.936  14.990
85090W        W57515  26.348  41.657   2.039
85091W        W57516  17.140  44.274   3.219
85092W        W57517  42.910  25.418  10.552
85093W        W57518  30.655   4.869  14.377
85094W        W57519   0.509  32.873  12.061
85095W        W57520  33.842  35.821  11.085
85096W        W57521  25.224   8.623  12.496
85097W        W57522  41.959  12.076   2.922
85098W        W57523  14.145  39.438   4.134
85099W        W57524  31.160  34.966  12.547
85100W        W57525  35.303  27.622   0.843
85101W        W57526  10.604  10.356   0.032
85102W        W57527  27.631  31.721   4.330
85103W        W57528  22.195  43.435  13.622
85104W        W57529  20.720  18.582  14.010
85105W        W57530  15.522  27.207   2.467
85106W        W57531   9.617  14.323   1.291
85107W        W57532  14.202   3.100  12.248
85108W        W57533   5.705  22.716   2.616
85109W        W57534   0.770  26.677  11.040
85110W        W57535  41.889  41.984  12.932
85111W        W57536  18.838  13.851   3.792
85112W        W57537   6.352  14.123   2.427
85113W        W57538  33.532  39.084  11.510
85114W        W57539  36.862  15.204   1.361
85115W        W57540  14.631  20.219  14.879
85116W        W57541  32.963   4.729  12.103
85117W        W57542  30.504  20.070   2.688
85118W        W57543  26.989  22.315   0.306
85119W        W57544  19.247   8.270   3.802
85120W        W57545  30.770  11.906  11.758
85121W        W57546  20.991   7.067   2.886
85122W        W57547  21.102  43.551   0.369
85123W        W57548  25.686   1.997   5.242
85124W        W57549   8.552  10.818  11.754
85125W        W57550  14.757   3.041   1.486
85126W        W57551   4.343  25.974  11.878
85127W        W57552  39.854  39.518  13.424
85128W        W57553  15.347   9.806  13.436
85129W        W57554  25.107  13.887  11.528
85130W        W57555  24.184   1.742   1.810
85131W        W57556   2.856  38.514   2.431
85132W        W57557   0.299   2.193  14.315
85133W        W57558  38.375  11.204  11.980
85134W        W57559  29.819  19.200  11.957
85135W        W57560  12.664   0.825  12.592
85136W        W57561  32.158  41.148  11.974
85137W        W57562   7.931  12.375   0.390
85138W        W57563  15.151  13.672   3.900
85139W        W57564  24.606  20.862  12.028
85140W        W57565   7.618  14.633  12.447
85141W        W57566  16.740   4.024  14.394
85142W        W57567   6.375  31.844   3.254
85143W        W57568  31.202  36.878   0.291
85144W        W57569  20.270  39.289   1.272
85145W        W57570  31.052  10.594  11.123
85146W        W57571  32.545  19.717   1.388
85147W        W57572  40.591  34.986  13.427
85148W        W57573  37.594  35.053   4.429
85149W        W57574  16.957  19.008   2.602
85150W        W57575  16.294   4.420   4.577
85151W        W57576  20.593   3.478   2.909
85152W        W57577  41.595   9.191   3.759
85153W        W57578  31.234   2.487  10.876
85154W        W57579   1.264   3.768  12.621
85155W        W57580  29.477  20.194   4.979
85156W        W57581   3.657  13.940   1.059
85157W        W57582  16.184  30.547   1.465
85158W        W57583   0.229  31.078  14.001
85159W        W57584  31.876  33.220   2.055
85160W        W57585   9.109  20.632   1.909
85161W        W57586  38.298  41.291  13.496
85162W        W57587  20.523  44.799   1.235
85163W        W57588  23.200  41.472  12.030
85164W        W57589   8.713  27.743  14.263
85165W        W57590  14.229  33.359  11.596
85166W        W57591  33.978   5.313   0.445
85167W        W57592  22.645  37.768   4.291
85168W        W57593  21.601  25.139   4.149
85169W        W57594  22.168  36.815  10.938
85170W        W57595   0.831  25.145   1.631
85171W        W57596  30.377  18.061   2.722
85172W        W57597  21.210   0.449   1.445
85173W        W57598  42.680  42.860   2.849
85174W        W57599   1.299  27.206  14.609
85175W        W57600  39.348  30.977   1.932
85176W        W57601  34.056  42.257  13.424
85177W        W57602  44.894  13.264   2.688
85178W        W57603  33.100  10.848  10.659
85179W        W57604  12.216  36.829  12.987
85180W        W57605  37.132   5.981   0.493
85181W        W57606  19.635  37.752   0.667
85182W        W57607  19.565  20.947  12.261
85183W        W57608  12.729  35.102  12.952
85184W        W57609  18.573  39.799  12.604
85185W        W57610  30.119  24.670   0.968
85186W        W57611  43.866   8.301   0.516
85187W        W57612   7.218  12.826   4.042
85188W        W57613  39.529  26.245   4.274
85189W        W57614  22.740   9.749   5.469
85190W        W57615  17.763  31.800   1.339
85191W        W57616  32.322  20.336   3.949
85192W        W57617  36.976  34.016  13.101
85193W        W57618  14.821  10.874   0.443
85194W        W57619  19.610   5.683   4.439
85195W        W57620  29.845  15.156  12.527
85196W        W57621  13.243   7.687  12.076
85197W        W57622  14.590   8.874   3.783
85198W        W57623  26.545  40.359   3.299
85199W        W57624  22.615  12.370   0.678
85200W        W57625  23.980  41.482  14.362
85201W        W57626  21.145   5.276   1.089
85202W        W57627  11.600  41.301  12.098
85203W        W57628  35.843  26.409   4.349
85204W        W57629  15.596  38.853  14.547
85205W        W57630  35.913  41.549  11.659
85206W        W57631  19.089  39.769   3.414
85207W        W57632  27.839   7.567   2.997
85208W        W57633   5.409  41.598  13.819
85209W        W57634  32.506   5.813  14.945
85210W        W57635  24.897   4.971   4.518
85211W        W57636   2.265  12.666  11.468
85212W        W57637  21.583  11.163  11.510
85213W        W57638  24.281  27.305   2.089
85214W        W57639  36.409   0.000  13.818
85215W        W57640  10.319   6.196   2.248
85216W        W57641  33.453   5.803   2.536
85217W        W57642  42.835  32.090  10.150
85218W        W57643  23.675  36.096  13.314
85219W        W57644  40.768  23.282   1.860
85220W        W57645   0.580  44.502   9.971
85221W        W57646  14.487  15.930  12.733
85222W        W57647  19.173  30.040   2.351
85223W        W57648  36.621  42.425   1.670
85224W        W57649  13.887  34.023   3.746
85225W        W57650  14.444   9.388  14.542
85226W        W57651  40.921  21.531   9.764
85227W        W57652  41.238   6.297  12.849
85228W        W57653  13.863  41.428  14.832
85229W        W57654  36.799  32.970  11.414
85230W        W57655   8.835   3.391   3.199
85231W        W57656  36.482  35.460  11.728
85232W        W57657  27.645  12.197  13.577
85233W        W57658   1.042  26.648   4.562
85234W        W57659   0.793  23.598   3.155
85235W        W57660  15.888  22.093  14.355
85236W        W57661  44.711  37.423  11.212
85237W        W57662  15.299  22.161   4.123
85238W        W57663  20.706  22.119  11.497
85239W        W57664   2.606  38.839   1.227
85240W        W57665  35.050   0.762   3.254
85241W        W57666  14.755  43.797  14.813
85242W        W57667  26.468   3.681  14.850
85243W        W57668  20.623   2.969  14.310
85244W        W57669  41.830  19.937   1.328
85245W        W57670   1.242  43.553   4.755
85246W        W57671  25.129  25.563  13.282
85247W        W57672  41.164  34.528   2.206
85248W        W57673  30.196  44.203  12.491
85249W        W57674   6.163  11.330   0.001
85250W        W57675   9.424  41.725  14.337
85251W        W57676  16.789  24.171   0.680
85252W        W57677   0.506  17.488  12.012
85253W        W57678  33.829  32.022   2.984
85254W        W57679  29.300  38.343   2.147
85255W        W57680  40.800  11.277  13.033
85256W        W57681  37.504  19.051  14.384
85257W        W57682  16.698  40.867   0.704
85258W        W57683  12.859  22.283   3.317
85259W        W57684   2.772  42.955   3.174
85260W        W57685  31.987  32.567   1.158
85261W        W57686  19.930   2.738  12.418
85262W        W57687  42.162  27.887  12.987
85263W        W57688   5.731  36.911  10.575
85264W        W57689   9.234   5.342  12.871
85265W        W57690  22.563   4.910   1.300
85266W        W57691  20.341  33.845  13.642
85267W        W57692  17.790   8.773  11.546
85268W        W57693  20.509  13.773   1.283
85269W        W57694  15.166   9.393   0.751
85270W        W57695   8.043  36.970  10.598
85271W        W57696   5.123  44.215  14.775
85272W        W57697  30.847  36.833  14.485
85273W        W57698   7.687  25.485   1.946
85274W        W57699  28.684  33.573   1.821
85275W        W57700  29.739  10.158  11.208
85276W        W57701  24.575  30.505  11.215
85277W        W57702  37.290   9.273   5.519
85278W        W57703   3.208  22.613   4.492
85279W        W57704  33.081  35.046  14.469
85280W        W57705   1.364  44.382   2.797
85281W        W57706  13.407  42.273   4.783
85282W        W57707   3.325  19.184  11.174
85283W        W57708  16.056  16.646   2.667
85284W        W57709  12.096   1.981   9.657
85285W        W57710  15.237  18.085  11.271
85286W        W57711  17.260  20.569   0.592
85287W        W57712  41.744  28.723   0.473
85288W        W57713  20.729  13.829   0.278
85289W        W57714   2.382  21.182  14.768
85290W        W57715   7.792  39.766   4.734
85291W        W57716   6.915  24.151   4.510
85292W        W57717   6.596  43.487  14.003
85293W        W57718  34.479  13.278  11.572
85294W        W57719  21.113  11.409   5.113
85295W        W57720  13.562  42.719   1.826
85296W        W57721  32.596   7.038   4.276
85297W        W57722  10.341  35.528   2.359
85298W        W57723  10.296  20.663   2.697
85299W        W57724  38.498  41.642  13.179
85300W        W57725  42.869  38.080  14.709
85301W        W57726  22.336  33.374   0.944
85302W        W57727   8.912  26.018  13.368
85303W        W57728  17.844  22.503  13.993
85304W        W57729  40.129  40.953  13.478
85305W        W57730   5.580  27.077  14.877
85306W        W57731  44.290  19.226   2.786
85307W        W57732   4.448  18.728  11.730
85308W        W57733  20.119  39.391  12.345
85309W        W57734  26.925  42.301  14.057
85310W        W57735   8.777   1.027  12.003
85311W        W57736  41.051  11.075   2.347
85312W        W57737   4.018  17.564  11.046
85313W        W57738   5.766  39.007   0.561
85314W        W57739  42.756  43.766   2.224
85315W        W57740  31.436  16.272  12.095
85316W        W57741  43.460  29.249   5.413
85317W        W57742   6.136  33.000  11.634
85318W        W57743  36.854  13.302   2.825
85319W        W57744  34.063  19.161  11.863
85320W        W57745  11.258  10.085  12.768
85321W        W57746  28.169  43.311  10.538
85322W        W57747  43.403  40.363   0.026
85323W        W57748  37.775   1.276   0.858
85324W        W57749  23.527   0.678  14.779
85325W        W57750  40.510  12.156   0.896
85326W        W57751  21.328  18.890   3.748
85327W        W57752  14.651  18.557   2.329
85328W        W57753  17.524  37.930   2.295
85329W        W57754  44.692  42.960   4.210
85330W        W57755  40.112  36.894  14.953
85331W        W57756  43.859  30.469   5.068
85332W        W57757   2.822   4.271   3.193
85333W        W57758   2.062  22.413   4.464
85334W        W57759   2.519  37.109  11.356
85335W        W57760  25.111  35.498  13.395
85336W        W57761   1.334   4.246  12.905
85337W        W57762   3.489  12.176   2.455
85338W        W57763  25.152  24.596   0.368
85339W        W57764   9.272   0.937   4.561
85340W        W57765  44.837  23.900  13.400
85341W        W57766  42.751  28.677  13.585
85342W        W57767  27.214  35.686  12.501
85343W        W57768   2.513  10.212   3.567
85344W        W57769  36.753   9.287  10.711
85345W        W57770  29.702  28.432   3.295
85346W        W57771   4.268  22.697   2.662
85347W        W57772  22.521  41.873  13.043
85348W        W57773   0.261  29.434   2.708
85349W        W57774  12.677   2.638  13.091
85350W        W57775  12.961  20.050   3.628
85351W        W57776  36.957  29.019   9.845
85352W        W57777  32.044  16.249   0.485
85353W        W57778   7.803   5.574   2.129
85354W        W57779   6.940  11.928   1.845
85355W        W57780  35.520  18.583  13.717
85356W        W57781  42.912   8.330  10.617
85357W        W57782  11.393  15.253  11.993
85358W        W57783  23.933  24.158  13.943
85359W        W57784  24.742  32.722   5.077
85360W        W57785  29.647  15.226  11.673
85361W        W57786   4.649  27.739   3.757
85362W        W57787  10.143  30.640  13.006
85363W        W57788   5.284  27.970   2.639
85364W        W57789   5.721  18.864  12.381
85365W        W57790  43.681   0.385   0.029
85366W        W57791  39.828  32.405  14.501
85367W        W57792   4.872  12.535   3.682
85368W        W57793  16.695  10.592   2.485
85369W        W57794  21.572   8.890  10.747
85370W        W57795  32.387  11.150   2.622
85371W        W57796  14.601  16.123  14.531
85372W        W57797  27.214  37.987  12.834
85373W        W57798   1.889  12.230  14.757
85374W        W57799  36.355  33.901   2.220
85375W        W57800   4.828   4.243  13.396
85376W        W57801  25.757  19.540  11.229
85377W        W57802  38.303  21.418  11.756
85378W        W57803  37.079  22.952   4.174
85379W        W57804  26.201   4.521  13.853
85380W        W57805  41.135   0.692   2.828
85381W        W57806  26.994  40.448  12.936
85382W        W57807  34.462  29.968  11.175
85383W        W57808  31.187  36.848  11.658
85384W        W57809  12.176  10.735  11.164
85385W        W57810   7.374  30.986  11.951
85386W        W57811  36.058  42.608  11.560
85387W        W57812   4.882   8.281  11.282
85388W        W57813  41.850  27.270  13.727
85389W        W57814  36.474  17.811   1.839
85390W        W57815   4.549  16.193  11.835
85391W        W57816  30.461  22.221   3.750
85392W        W57817  11.894  39.972   4.023
85393W        W57818  34.596  17.761  14.818
85394W        W57819  34.850  38.555  13.509
85395W        W57820  37.463   4.905   1.161
85396W        W57821  21.496  20.671  14.819
85397W        W57822  10.334  40.425  11.991
85398W        W57823   5.750  22.554   0.827
85399W        W57824  11.086  15.256  12.976
85400W        W57825   4.125   4.827   3.431
85401W        W57826  39.269   2.506   1.910
85402W        W57827  36.607  43.748  12.419
85403W        W57828  42.976  21.350   3.363
85404W        W57829  13.862  17.107  14.039
85405W        W57830  13.850  26.557   2.315
85406W        W57831  14.519  16.602   1.252
85407W        W57832  36.700  11.926   5.217
85408W        W57833   6.076  43.462  14.749
85409W        W57834   6.469  27.861  11.275
85410W        W57835  19.769   8.827   0.380
85411W        W57836  42.674   3.212   4.375
85412W        W57837   3.720   9.812  11.462
85413W        W57838  23.116  24.992   2.035
85414W        W57839   8.668  15.845   3.161
85415W        W57840  29.383  30.899   4.605
85416W        W57841   2.206   9.593   4.287
85417W        W57842   4.432  36.381  14.012
85418W        W57843  35.655  24.735   3.770
85419W        W57844  12.184  37.599   2.951
85420W        W57845  10.948  25.719  14.164
85421W        W57846  15.045  21.651  13.176
85422W        W57847  42.717  31.927   3.645
85423W        W57848  26.680  12.729  12.910
85424W        W57849  35.344  12.854  14.473
85425W        W57850  24.001  37.281  11.658
85426W        W57851  33.090  20.676   4.472
85427W        W57852  27.549  34.545   0.887
85428W        W57853  20.383  27.420   0.415
85429W        W57854  29.331  21.399   9.703
85430W        W57855  25.893   8.263  10.794
85431W        W57856  12.267  15.221   4.202
85432W        W57857  14.515   2.816   5.243
85433W        W57858   7.411  12.379   0.377
85434W        W57859  44.797  32.126  13.476
85435W        W57860  29.449   8.584   0.252
85436W        W57861   3.275  33.104  10.656
85437W        W57862  10.800  35.430  12.121
85438W        W57863  27.548   8.571  11.984
85439W        W57864  26.524   6.301  13.997
85440W        W57865  44.828  44.029  14.967
85441W        W57866   1.772  25.940   3.940
85442W        W57867  39.451  18.251   1.946
85443W        W57868   8.841  38.324  11.879
85444W        W57869   7.758   4.871   2.677
85445W        W57870  20.152  21.811   2.294
85446W        W57871   1.690  25.054  13.363
85447W        W57872  15.209   3.359  12.054
85448W        W57873  40.630  43.781   1.889
85449W        W57874   4.881  35.474  13.807
85450W        W57875   1.761   3.026  11.855
85451W        W57876  36.639  44.299  10.999
85452W        W57877   8.151  42.902   1.871
85453W        W57878   3.851  35.000   2.605
85454W        W57879  16.811  34.892  14.463
85455W        W57880  29.018   9.141  11.393
85456W        W57881  19.513   3.805   4.564
85457W        W57882  29.589   1.041  11.225
85458W        W57883  40.799  37.885   1.733
85459W        W57884   2.702  16.198   3.121
85460W        W57885   0.548  40.643   1.831
85461W        W57886  20.097  36.923  13.883
85462W        W57887  39.673  42.364   3.444
85463W        W57888   8.704   6.241  14.813
85464W        W57889  34.088  15.763  12.154
85465W        W57890  44.335  11.609   0.344
85466W        W57891  23.053  21.783  12.181
85467W        W57892  19.152   3.832  10.925
85468W        W57893   7.728  36.537   1.743
85469W        W57894  38.359  33.624  11.026
85470W        W57895  12.703  23.649  13.235
85471W        W57896  22.225  30.250  14.778
85472W        W57897   4.012  13.701   3.694
85473W        W57898  30.850  33.701  10.354
85474W        W57899  37.258  22.512   4.383
85475W        W57900  39.515   9.276   1.485
85476W        W57901  10.335  43.791  10.289
85477W        W57902  15.459  16.694  11.025
85478W        W57903  21.120  34.798   4.982
85479W        W57904  35.710   8.422   1.745
85480W        W57905   0.759   9.028   3.679
85481W        W57906  32.021  23.289  10.727
85482W        W57907  41.474  27.069   3.215
85483W        W57908  18.869  32.826  14.506
85484W        W57909  38.553  22.706   0.013
85485W        W57910  33.707  27.771   4.066
85486W        W57911  33.391  19.401  14.465
85487W        W57912   3.259   0.923  13.338
85488W        W57913   3.243   0.225   0.539
85489W        W57914  15.635  40.341  12.828
85490W        W57915   2.477   6.186   4.021
85491W        W57916  21.854  30.322  11.120
85492W        W57917  11.190  16.848  11.285
85493W        W57918  24.988  33.088  14.146
85494W        W57919   0.359   3.765   2.657
85495W        W57920  12.353  24.384   4.219
85496W        W57921  14.251  37.117  14.670
85497W        W57922  44.362   6.148  11.991
85498W        W57923  35.071  32.128  14.968
85499W        W57924  25.997   1.778   1.807
85500W        W57925  38.390  22.695   2.152
85501W        W57926  16.287  20.574  13.835
85502W        W57927  22.209  32.624   0.329
85503W        W57928   4.996   5.396   2.794
85504W        W57929  18.208   6.807  11.299
85505W        W57930  25.186  10.136  11.437
85506W        W57931  41.087  25.690   2.219
85507W        W57932  43.516  41.323   1.672
85508W        W57933  31.436  35.495  11.614
85509W        W57934  35.053  41.151   1.199
85510W        W57935  38.813   3.240  11.160
85511W        W57936  25.122  36.996   1.319
85512W        W57937  27.520   1.176   1.182
85513W        W57938  44.546  34.488  12.168
85514W        W57939  11.262  12.654  13.904
85515W        W57940  20.532  40.961  12.104
85516W        W57941   7.895   0.605   0.263
85517W        W57942  34.890  12.941  11.979
85518W        W57943  41.916  31.477  12.440
85519W        W57944   1.693  17.150   0.040
85520W        W57945  43.185  12.383  11.102
85521W        W57946  44.768  28.680   2.815
85522W        W57947  13.837  11.897   3.595
85523W        W57948   6.814  33.001   3.742
85524W        W57949  18.327   1.446  11.062
85525W        W57950  18.840  22.796  12.603
85526W        W57951  17.727  22.866  14.897
85527W        W57952  21.192  23.046  13.511
85528W        W57953  11.705  38.253   3.575
85529W        W57954  18.781  12.292  11.219
85530W        W57955  22.190  20.823   2.441
85531W        W57956   7.668  32.323   1.333
85532W        W57957  19.837   9.338  13.841
85533W        W57958  39.468  37.748   4.778
85534W        W57959   3.804  31.197  14.369
85535W        W57960  11.296  17.848  12.440
85536W        W57961  19.519  42.827   2.308
85537W        W57962  15.713  43.762  11.995
85538W        W57963  40.318  30.420  14.316
85539W        W57964   0.364   0.465  12.090
85540W        W57965  37.931  20.889   2.907
85541W        W57966  33.953   8.475   4.327
85542W        W57967  36.629  36.608  14.035
85543W        W57968  23.095  38.057   2.735
85544W        W57969   5.840  29.036   2.637
85545W        W57970   5.441  37.984   0.953
85546W        W57971  44.304  10.715   3.707
85547W        W57972  42.312  31.516  12.071
85548W        W57973  13.791  20.110  13.039
85549W        W57974   5.851  39.998  11.302
85550W        W57975   4.769  11.844   0.907
85551W        W57976   0.484  44.400   4.318
85552W        W57977  25.453   9.368  14.046
85553W        W57978   7.792  12.358  14.906
85554W        W57979  17.797  42.724   0.161
85555W        W57980  28.019  35.089   4.561
85556W        W57981  39.272  23.687  11.892
85557W        W57982  18.286  40.371   1.374
85558W        W57983  26.651  16.606  13.225
85559W        W57984  22.456  17.833  13.036
85560W        W57985   7.706   9.751  12.082
85561W        W57986  26.126  35.341   0.338
85562W        W57987  13.600  11.758  13.524
85563W        W57988   2.092  41.454   2.273
85564W        W57989  24.949  24.316  11.899
85565W        W57990  40.064  21.346   9.967
85566W        W57991  14.650  12.221   3.597
85567W        W57992   7.921   0.503  13.971
85568W        W57993   1.469  26.500  12.793
85569W        W57994  41.307   3.101  11.119
85570W        W57995  18.220  35.488   3.339
85571W        W57996  35.120   9.300  14.432
85572W        W57997  24.153  29.992   9.775
85573W        W57998  25.723  17.692   2.277
85574W        W57999  21.193  17.488  13.396
85575W        W58000  32.409  40.978   2.345
85576W        W58001  28.606   0.253   3.349
85577W        W58002  43.444  21.737  13.472
85578W        W58003  32.008  32.500   3.177
85579W        W58004  43.731  35.439   3.444
85580W        W58005   2.150  21.937  14.584
85581W        W58006  14.783   5.451  10.823
85582W        W58007  36.040  37.477  12.972
85583W        W58008  32.161  18.725  14.467
85584W        W58009  32.414   9.681   4.089
85585W        W58010  20.801  18.351  11.210
85586W        W58011   3.557   4.446   4.150
85587W        W58012  14.679  10.834   3.311
85588W        W58013  16.756  26.242  13.044
85589W        W58014  41.737  21.168  13.952
85590W        W58015  30.942  13.000   3.380
85591W        W58016  31.042  24.827  13.071
85592W        W58017  39.441  39.860  13.388
85593W        W58018  31.555  41.903   0.690
85594W        W58019  24.686  16.849   0.927
85595W        W58020  37.121   1.980   0.734
85596W        W58021  26.058  34.570  13.038
85597W        W58022  35.540  29.499   4.722
85598W        W58023  10.928  38.854   0.228
85599W        W58024  38.633  43.719   2.384
85600W        W58025  11.793  37.843  13.809
85601W        W58026  39.493  33.527   0.221
85602W        W58027  17.681  17.168   1.326
85603W        W58028  36.639   0.031   4.569
85604W        W58029  31.347   3.839   3.755
85605W        W58030  29.024   2.337   3.722
85606W        W58031   5.740   3.966  11.413
85607W        W58032  39.633   2.826   1.742
85608W        W58033  18.166   2.441   3.729
85609W        W58034   5.298  40.902   4.307
85610W        W58035  14.710  20.791   1.232
85611W        W58036   5.208  29.785   0.868
85612W        W58037  34.985  13.283  11.609
85613W        W58038   8.697  14.981  11.377
85614W        W58039   6.417   5.215  11.432
85615W        W58040  41.380  36.494   3.738
85616W        W58041   0.919  17.498  11.520
85617W        W58042  43.463  32.047   0.346
85618W        W58043   4.910   9.267  12.306
85619W        W58044  11.715  30.436  11.578
85620W        W58045  36.003  44.847   1.481
85621W        W58046  44.906   5.150  14.867
85622W        W58047  40.706   6.878   2.667
85623W        W58048   6.316  36.105   3.246
85624W        W58049  43.940  37.071  11.853
85625W        W58050  42.319  36.315   1.289
85626W        W58051  16.063  34.639  10.411
85627W        W58052  34.582   3.689   4.288
85628W        W58053  35.495  27.853   0.418
85629W        W58054  24.940  22.280  11.044
85630W        W58055   1.796  15.756  11.265
85631W        W58056  18.125  30.069  11.196
85632W        W58057  20.714  36.325   4.189
85633W        W58058  40.080  28.138   1.379
85634W        W58059  35.341  14.876   4.198
85635W        W58060  10.072   5.920  11.255
85636W        W58061  19.210  33.397   4.629
85637W        W58062   3.239  43.648   2.852
85638W        W58063  17.591  19.388  12.263
85639W        W58064   3.321  29.919  13.408
85640W        W58065  40.765  31.923   1.177
85641W        W58066   2.760  26.170   4.624
85642W        W58067  24.236  31.453   4.985
85643W        W58068  43.752  22.519  10.891
85644W        W58069   4.712  41.724   2.740
85645W        W58070  37.297  15.749   0.902
85646W        W58071  34.390  41.360  13.067
85647W        W58072  21.613  19.778   0.862
85648W        W58073  19.751  24.496   1.739
85649W        W58074  10.422  26.486  11.147
85650W        W58075  26.121  41.878   3.668
85651W        W58076  27.533   0.930  11.576
85652W        W58077  21.840  43.865  12.038
85653W        W58078  16.837  35.389  13.537
85654W        W58079  39.927  35.131   2.725
85655W        W58080  43.489  37.412   2.447
85656W        W58081  16.178  39.102  14.951
85657W        W58082  44.728  32.539   2.810
85658W        W58083  23.766   9.006  10.139
85659W        W58084  13.128  32.459  12.832
85660W        W58085   0.824   8.247   2.370
85661W        W58086  18.135   7.785  14.360
85662W        W58087   8.390  36.890  14.343
85663W        W58088  29.069  20.218  14.275
85664W        W58089  22.209   6.808  12.552
85665W        W58090  21.204   6.947   0.281
85666W        W58091  17.158  27.228  14.138
85667W        W58092  20.601  34.562  11.742
85668W        W58093  44.421   5.333   4.816
85669W        W58094  35.011  36.559   4.521
85670W        W58095  35.061   4.899  11.532
85671W        W58096   8.438  40.998   3.847
85672W        W58097  16.434  13.916   4.368
85673W        W58098  18.765  17.944   0.946
85674W        W58099  22.758   3.929  13.120
85675W        W58100  20.130  44.007  14.985
85676W        W58101   8.848   1.478  12.327
85677W        W58102   8.063  38.591   1.940
85678W        W58103  33.520  14.602   1.837
85679W        W58104  26.607  39.753  11.808
85680W        W58105  13.215  34.770  12.527
85681W        W58106   4.612  17.522  12.063
85682W        W58107  31.543   9.894   1.707
85683W        W58108  26.909  25.425  13.478
85684W        W58109  40.512   0.792  12.916
85685W        W58110  12.862   2.724   3.566
85686W        W58111   1.917   7.366  14.374
85687W        W58112  13.701  34.863   4.623
85688W        W58113  33.173  22.433  10.830
85689W        W58114  21.260  35.038  14.453
85690W        W58115  26.633  20.729   2.017
85691W        W58116  41.755  26.374   3.726
85692W        W58117  36.556   6.694   5.365
85693W        W58118  38.302  20.141   4.903
85694W        W58119   9.872   9.950   3.752
85695W        W58120  29.657  33.086  10.844
85696W        W58121  20.609  43.222  14.101
85697W        W58122  39.296  28.571   2.445
85698W        W58123  11.780  17.991   3.179
85699W        W58124  29.076  27.489   0.828
85700W        W58125  25.183   6.637  11.543
85701W        W58126  23.579  41.845  13.083
85702W        W58127  43.939  17.572   2.991
85703W        W58128  38.366  23.651  14.942
85704W        W58129  30.189  23.230   5.165
85705W        W58130  33.662  20.119   3.065
85706W        W58131  20.770  13.118   0.738
85707W        W58132   3.375  20.698  12.171
85708W        W58133  21.505   3.449  12.925
85709W        W58134  14.584  39.893  12.333
85710W        W58135  28.640  29.235  10.446
85711W        W58136  44.503  35.051  14.844
85712W        W58137  19.569   5.909   3.426
85713W        W58138  37.094  38.157  14.799
85714W        W58139  42.573  13.436   0.144
85715W        W58140   8.666   1.422   1.757
85716W        W58141  25.402  40.195  11.102
85717W        W58142   5.282  39.089  14.518
85718W        W58143   2.284   4.320  14.137
85719W        W58144  30.958  33.169   4.532
85720W        W58145  11.618  43.950  13.805
85721W        W58146  14.199  16.879  11.482
85722W        W58147  20.052  17.551   0.281
85723W        W58148  43.297  19.177  13.528
85724W        W58149  13.738  22.560   5.096
85725W        W58150  22.168  15.802  11.162
85726W        W58151   3.432  15.333   4.459
85727W        W58152  24.039  31.083   0.938
85728W        W58153  15.212  20.714   4.763
85729W        W58154  40.399  20.091   1.231
85730W        W58155  33.922  19.118   4.537
85731W        W58156  26.634  11.796  10.433
85732W        W58157   4.015  37.178  14.669
85733W        W58158  22.809  17.213  13.784
85734W        W58159  31.071   0.909   0.074
85735W        W58160  36.476  40.393  10.559
85736W        W58161  37.845  38.513   0.045
85737W        W58162  40.793   0.999  14.252
85738W        W58163  29.072  25.234   5.041
85739W        W58164  16.175  12.807   4.399
85740W        W58165  11.551  11.758  11.102
85741W        W58166  36.467  20.318   3.596
85742W        W58167  13.668  25.223  12.832
85743W        W58168  23.678  18.537   2.763
85744W        W58169  21.721   8.631  13.924
85745W        W58170   7.396  15.802   3.444
85746W        W58171  17.692  17.101   0.776
85747W        W58172  44.848   9.308   2.811
85748W        W58173   2.349  44.843   1.822
85749W        W58174  16.824   2.712   3.327
85750W        W58175  15.988  42.419   1.003
85751W        W58176  16.308   3.665  12.973
85752W        W58177   8.220  30.013  14.435
85753W        W58178  36.330  43.996   1.889
85754W        W58179  43.395  13.784  10.789
85755W        W58180  28.500  12.492   0.391
85756W        W58181  39.849  25.040  12.338
85757W        W58182  25.816  28.920  13.917
85758W        W58183  13.189   1.587   0.115
85759W        W58184  36.039  21.709   4.351
85760W        W58185  25.712  28.062   2.248
85761W        W58186  23.330  38.047  14.407
85762W        W58187   6.023   3.377   5.100
85763W        W58188  17.112  27.193  10.703
85764W        W58189  35.575  21.486  14.018
85765W        W58190   6.854  19.171   4.721
85766W        W58191  27.883   8.961  12.025
85767W        W58192  41.913  23.250   1.675
85768W        W58193  18.503   7.069  14.348
85769W        W58194   3.093   1.802   4.608
85770W        W58195  14.378   7.869   1.474
85771W        W58196  35.414  33.617   2.134
85772W        W58197   0.245  13.293  12.127
85773W        W58198  29.929  19.605   0.180
85774W        W58199  25.677   5.694  12.934
85775W        W58200  39.419  11.908  12.080
85776W        W58201  41.996  34.985  14.121
85777W        W58202   0.977   0.557  13.865
85778W        W58203  37.138  24.054   2.351
85779W        W58204  21.852  20.303  14.967
85780W        W58205  33.565  28.526  12.938
85781W        W58206  14.061  26.445  12.505
85782W        W58207  36.435  39.946   3.739
85783W        W58208  30.809  42.183   2.989
85784W        W58209  34.742   5.334   2.355
85785W        W58210  15.813  14.150   3.834
85786W        W58211  40.706  38.372   2.982
85787W        W58212  23.465  33.206  13.754
85788W        W58213   7.388  19.663   4.214
85789W        W58214  19.579   3.767  11.175
85790W        W58215  37.199   8.370   3.883
85791W        W58216  17.259  22.193   3.665
85792W        W58217  31.908  14.152   2.276
85793W        W58218  33.509   3.833   1.882
85794W        W58219  20.836  23.239  14.522
85795W        W58220  10.780  37.920  10.968
85796W        W58221  35.024  15.979   1.317
85797W        W58222  35.590  22.006  13.949
85798W        W58223  43.512  14.368   1.162
85799W        W58224  34.595  42.061  14.393
85800W        W58225  35.351   9.263   0.753
85801W        W58226  25.334  43.795   2.048
85802W        W58227  38.140  35.999  11.672
85803W        W58228  33.157  41.972   3.103
85804W        W58229  19.989  17.688   1.173
85805W        W58230  32.645  14.111  10.646
85806W        W58231   5.860   2.954   1.260
85807W        W58232   4.483  43.072  10.751
85808W        W58233  33.043  23.766  12.326
85809W        W58234   7.730  27.280   4.200
85810W        W58235  28.106  34.101   4.620
85811W        W58236  31.628  31.617   4.525
85812W        W58237  44.335   2.346  14.272
85813W        W58238  18.014  44.306  14.845
85814W        W58239   9.462   6.475   4.085
85815W        W58240  41.063  18.377  11.098
85816W        W58241  20.687  28.571  11.984
85817W        W58242  11.775  44.379   1.694
85818W        W58243  10.342  43.216   1.872
85819W        W58244  44.017  22.769  14.426
85820W        W58245  10.607  24.643   2.720
85821W        W58246  42.380  20.458  12.750
85822W        W58247  16.553  27.957  13.076
85823W        W58248   1.965  21.851   3.247
85824W        W58249  30.421   1.937   0.750
85825W        W58250   4.723  15.292   3.826
85826W        W58251  22.526  27.905   0.757
85827W        W58252  12.642  14.122  12.558
85828W        W58253  26.388  29.198   4.219
85829W        W58254  11.980  35.625   0.283
85830W        W58255  18.037  43.572  12.054
85831W        W58256   6.596   4.741   4.627
85832W        W58257  18.094  42.994   0.850
85833W        W58258  14.825  13.278   0.735
85834W        W58259  44.621  39.559   5.001
85835W        W58260   4.386  20.637  11.897
85836W        W58261   6.376  22.150  12.888
85837W        W58262   0.430  44.922   4.224
85838W        W58263  27.477  38.007   2.256
85839W        W58264  15.342  41.215  13.422
85840W        W58265  22.571  35.577  14.841
85841W        W58266  17.006  17.228  13.086
85842W        W58267  17.824  27.107   2.414
85843W        W58268  36.509  32.434   4.421
85844W        W58269  38.333  18.565  12.372
85845W        W58270  24.857  36.777   3.222
85846W        W58271  14.833  13.079   3.333
85847W        W58272  19.220  16.758   0.289
85848W        W58273  36.017   3.567   1.455
85849W        W58274  11.891  12.861   2.173
85850W        W58275  37.471  26.779  11.905
85851W        W58276  12.772   2.900   0.883
85852W        W58277  18.604  33.558   2.256
85853W        W58278  27.059  23.010  14.242
85854W        W58279   7.369  31.903  14.202
85855W        W58280   4.486   1.384   1.434
85856W        W58281   9.107  37.080  11.620
85857W        W58282  23.771  36.109  10.996
85858W        W58283  14.301   8.774  13.808
85859W        W58284   5.253  42.943   4.448
85860W        W58285  42.746  10.780   4.153
85861W        W58286  31.639  31.121  14.485
85862W        W58287   3.867  35.347  13.373
85863W        W58288  10.008   1.414   3.312
85864W        W58289  28.405  35.302   2.930
85865W        W58290  22.680  31.456  12.545
85866W        W58291  18.073  39.504   3.527
85867W        W58292  20.485  10.479  11.315
85868W        W58293  11.211   1.928   2.258
85869W        W58294  20.326  25.759  14.181
85870W        W58295  15.056  10.576   2.319
85871W        W58296  32.959  38.537  13.944
85872W        W58297  29.907  19.318   2.908
85873W        W58298  16.153  42.943  12.193
85874W        W58299  15.206   7.861  13.767
85875W        W58300  40.733  23.525   4.177
85876W        W58301  43.504  24.956   2.728
85877W        W58302  39.416  38.511   3.236
85878W        W58303  14.517  29.913  12.157
85879W        W58304   4.844  11.038   1.268
85880W        W58305  33.976  20.510  13.448
85881W        W58306   6.967  30.153   3.390
85882W        W58307  32.025  17.452  13.150
85883W        W58308   6.254  34.000   5.127
85884W        W58309  10.070   6.198   2.729
85885W        W58310   0.643   9.608  13.515
85886W        W58311  44.783   8.294   1.191
85887W        W58312  22.594  11.965  11.993
85888W        W58313  27.175  21.092  11.700
85889W        W58314  30.325  13.827   3.878
85890W        W58315  11.557  40.256  13.875
85891W        W58316  16.851  15.046  13.578
85892W        W58317  34.927  10.667   1.940
85893W        W58318  37.895  17.859  14.916
85894W        W58319  21.043  32.415  13.329
85895W        W58320  20.257  21.541   4.854
85896W        W58321  20.878   2.533  13.457
85897W        W58322  16.343  26.692   4.226
85898W        W58323  20.512  42.390  11.171
85899W        W58324  21.188  33.196  10.373
85900W        W58325  11.332  35.679  13.966
85901W        W58326   2.939  35.044   2.279
85902W        W58327  31.148  41.993  14.912
85903W        W58328  29.562  30.632   3.196
85904W        W58329  21.250  42.912   2.342
85905W        W58330   8.732  14.423  12.068
85906W        W58331  17.966   3.171   2.673
85907W        W58332  16.620  40.373   0.499
85908W        W58333  40.376  30.166   0.317
85909W        W58334  23.807  31.006   4.184
85910W        W58335  21.236  21.126   1.193
85911W        W58336  16.239  16.123  12.425
85912W        W58337  15.331  43.173   2.685
85913W        W58338  30.608  21.253   4.990
85914W        W58339  19.587   9.851  11.926
85915W        W58340  11.288  18.267  12.040
85916W        W58341  25.378  44.371   4.628
85917W        W58342  40.819  32.106   2.209
85918W        W58343   8.943  23.563  14.236
85919W        W58344   5.257  22.534   3.542
85920W        W58345  12.683  39.055  14.342
85921W        W58346  37.924  38.580   1.875
85922W        W58347  41.536  12.018  14.985
85923W        W58348  29.512  12.124   3.797
85924W        W58349  15.284  16.069   1.689
85925W        W58350  20.782  22.570  11.908
85926W        W58351  35.896   3.311   4.549
85927W        W58352  13.196   8.399   3.671
85928W        W58353   4.869  35.556   5.057
85929W        W58354  31.136   4.771   3.352
85930W        W58355  37.175  31.862   1.800
85931W        W58356  11.811  15.321   4.727
85932W        W58357   9.511  36.023  11.586
85933W        W58358   1.517  17.055   0.952
85934W        W58359  36.804  20.278   2.360
85935W        W58360  34.418  28.069   4.305
85936W        W58361  21.153  22.655  13.842
85937W        W58362   0.708   8.778  11.654
85938W        W58363  37.663  24.443   1.353
85939W        W58364  13.387  34.687   1.071
85940W        W58365  25.491  19.337   2.890
85941W        W58366  34.863  35.375   4.760
85942W        W58367  30.037  38.593   9.827
85943W        W58368  39.568  14.957   4.154
85944W        W58369  17.815  30.916  11.266
85945W        W58370  40.416  10.861  10.775
85946W        W58371  38.074  27.483   4.507
85947W        W58372   3.170  37.975   4.525
85948W        W58373   8.227  43.496   1.364
85949W        W58374  18.525  37.822   3.415
85950W        W58375  17.455   5.324   3.164
85951W        W58376  38.951   1.312   3.404
85952W        W58377  32.074  38.770   2.351
85953W        W58378  25.971  41.327   1.978
85954W        W58379  35.802  38.850  13.203
85955W        W58380   5.292  38.540   3.191
85956W        W58381  33.340  35.230  14.010
85957W        W58382  36.595  21.053  11.008
85958W        W58383  25.573   8.750   5.013
85959W        W58384  34.600  13.119   3.287
85960W        W58385   5.428  17.574   0.331
85961W        W58386  21.090  23.505   4.562
85962W        W58387  40.593   3.241  13.443
85963W        W58388   0.872  21.212  14.101
85964W        W58389  22.020  30.973   2.761
85965W        W58390  36.424   5.315  12.567
85966W        W58391  35.608  44.824   1.821
85967W        W58392   2.700  25.523  13.931
85968W        W58393  36.015  39.986  11.684
85969W        W58394  20.718  41.940   0.081
85970W        W58395  35.538   6.632  10.590
85971W        W58396  11.839  42.948  12.365
85972W        W58397  26.716  21.163  13.477
85973W        W58398  31.235  27.751   2.242
85974W        W58399   4.145  32.598  10.524
85975W        W58400  15.670  19.333  11.581
85976W        W58401  38.066  11.607  12.085
85977W        W58402   4.724  22.645   2.910
85978W        W58403  12.076  12.420   5.045
85979W        W58404  13.847  38.953   2.333
85980W        W58405  15.591  30.621  13.862
85981W        W58406  32.423  18.112   1.799
85982W        W58407   3.791   0.773   2.353
85983W        W58408  25.572  23.147   4.854
85984W        W58409  33.944  32.587   4.209
85985W        W58410  22.484  10.210  11.033
85986W        W58411   8.843  21.553  13.010
85987W        W58412  35.474  13.042  13.605
85988W        W58413  13.409  10.363   3.485
85989W        W58414   1.892  11.604  12.535
85990W        W58415  14.179   4.704   2.920
85991W        W58416  19.777  20.219  11.031
85992W        W58417  10.695  33.541  12.455
85993W        W58418  26.904  10.114   0.007
85994W        W58419  42.932  16.317   4.391
85995W        W58420  19.975  35.385  13.286
85996W        W58421  30.922  20.667  12.922
85997W        W58422  29.377   3.711  13.807
85998W        W58423  28.555  21.070  13.930
85999W        W58424   2.517  17.770   0.984
86000W        W58425  16.616  13.416  12.352
86001W        W58426  27.181  36.442   0.713
86002W        W58427  17.252   3.503   3.434
86003W        W58428  27.584  16.601   2.326
86004W        W58429  40.050   9.289  13.411
86005W        W58430  25.500  31.515   4.010
86006W        W58431   5.152  19.678   4.970
86007W        W58432   8.501  10.090  12.615
86008W        W58433  44.001  25.061   4.398
86009W        W58434  11.610  36.519  11.021
86010W        W58435  25.945   2.942   2.957
86011W        W58436  15.646   1.190   2.293
86012W        W58437  29.448   7.884  12.478
86013W        W58438  14.012  40.456  11.771
86014W        W58439  11.845  23.435   4.909
86015W        W58440  16.509   8.418   1.337
86016W        W58441  44.462  41.823   2.375
86017W        W58442  11.385  24.941  14.832
86018W        W58443   2.485   7.264   0.944
86019W        W58444  20.191  16.397   4.591
86020W        W58445   0.670  38.893  14.112
86021W        W58446  10.535   1.372  14.393
86022W        W58447  24.498  33.154  11.622
86023W        W58448   6.331  25.892  11.152
86024W        W58449  36.409  42.437   4.135
86025W        W58450  24.141  43.302  12.843
86026W        W58451  17.393   9.338   2.804
86027W        W58452  19.552  12.293   3.014
86028W        W58453  35.200  39.881  11.734
86029W        W58454  21.381  20.421  13.964
86030W        W58455  25.022  10.794  11.525
86031W        W58456   9.011   4.901   2.374
86032W        W58457  35.898  37.586  14.462
86033W        W58458  31.164  41.255  12.962
86034W        W58459  37.087  33.844  13.586
86035W        W58460  41.784  22.279   1.282
86036W        W58461  17.079   8.387   3.031
86037W        W58462  11.713  12.629  11.133
86038W        W58463   3.690   7.550   1.247
86039W        W58464  13.104  26.506   0.410
86040W        W58465  29.759  14.679  13.351
86041W        W58466   3.733  36.368   2.316
86042W        W58467  41.257  39.900  13.372
86043W        W58468  29.535  29.700  13.344
86044W        W58469   8.975  33.734  13.989
86045W        W58470   4.991  37.014  14.516
86046W        W58471  38.986  26.477  12.262
86047W        W58472  19.069   1.000   1.727
86048W        W58473  42.052  25.434   3.752
86049W        W58474   7.219   6.139   1.719
86050W        W58475  41.075   2.197   2.766
86051W        W58476   3.743   6.423  13.440
86052W        W58477   6.263  31.756   2.444
86053W        W58478  40.106  26.879  11.132
86054W        W58479  26.089  20.167  13.626
86055W        W58480   0.457   3.192  14.087
86056W        W58481  40.339  42.450   2.195
86057W        W58482  26.742  42.520   4.809
86058W        W58483  26.739  31.010   5.293
86059W        W58484  12.641  33.216  12.865
86060W        W58485  13.068  44.593  14.877
86061W        W58486  35.374  34.884   0.908
86062W        W58487  17.821  16.662  13.448
86063W        W58488  32.570  21.502   2.715
86064W        W58489  31.543   8.149  12.455
86065W        W58490  28.437   0.979  12.172
86066W        W58491  33.604  39.486   1.016
86067W        W58492  34.009   1.821   0.737
86068W        W58493   7.887  35.203  13.610
86069W        W58494   5.316  41.881   4.550
86070W        W58495  16.516   6.846  13.867
86071W        W58496   7.626  16.182  14.933
86072W        W58497  29.611  31.885   4.530
86073W        W58498  36.672  36.886  11.482
86074W        W58499   1.257   3.925  14.816
86075W        W58500  31.250  40.284   5.477
86076W        W58501  44.351   3.132   4.621
86077W        W58502   6.843  28.626  11.000
86078W        W58503   4.893  44.979   1.246
86079W        W58504  28.199  21.183  11.563
86080W        W58505   3.379  37.557   4.822
86081W        W58506  17.190  32.218   0.235
86082W        W58507   3.611  39.622   4.110
86083W        W58508  10.085  37.875   0.388
86084W        W58509  32.228  14.220  10.086
86085W        W58510  18.549  40.009   0.227
86086W        W58511  29.620  35.379  12.087
86087W        W58512   3.330  29.690   1.753
86088W        W58513  26.946  23.586   3.311
86089W        W58514  23.441  44.361   2.204
86090W        W58515  41.761  12.926  12.387
86091W        W58516   5.357   9.621   3.660
86092W        W58517  26.961  13.637  10.785
86093W        W58518  10.541  26.525  14.308
86094W        W58519  27.838  12.751   3.106
86095W        W58520  37.091   6.912  10.551
86096W        W58521  15.565   2.742   4.125
86097W        W58522  33.420   1.987  10.085
86098W        W58523  43.284  27.507  13.074
86099W        W58524  29.477  30.674   0.365
86100W        W58525  21.261  26.067   4.051
86101W        W58526  15.817  38.178  13.338
86102W        W58527  44.960   5.733   3.197
86103W        W58528  32.095  14.973  13.443
86104W        W58529   7.927  25.145   1.110
86105W        W58530  36.845   2.321   3.351
86106W        W58531  13.922  21.601   4.092
86107W        W58532  13.871   9.176   2.302
86108W        W58533   1.209  35.886  13.335
86109W        W58534  22.697   9.145  14.346
86110W        W58535  16.831  18.680   2.982
86111W        W58536   4.072  23.223   2.398
86112W        W58537  13.952  10.035   3.675
86113W        W58538  44.911  16.205  10.867
86114W        W58539  14.801  36.533   3.762
86115W        W58540  12.881   7.794   4.276
86116W        W58541  31.147  40.039  11.091
86117W        W58542   3.886  17.640   2.387
86118W        W58543  16.021   6.704   4.162
86119W        W58544  44.822  22.206  12.400
86120W        W58545  22.409  13.807   2.122
86121W        W58546   2.406  30.078   4.538
86122W        W58547   5.844  23.354  12.062
86123W        W58548  20.669  29.946   3.709
86124W        W58549  13.844  27.556  11.208
86125W        W58550   0.680  37.979   1.965
86126W        W58551  22.051  33.833   4.160
86127W        W58552   4.704  25.160   0.747
86128W        W58553  41.282  20.830   2.488
86129W        W58554  36.549  25.714  12.565
86130W        W58555  12.916  32.487   3.771
86131W        W58556  44.316  10.288   4.883
86132W        W58557  28.908  23.643   0.851
86133W        W58558   2.330   2.938   2.334
86134W        W58559  11.619   9.343  11.696
86135W        W58560  17.875  29.634   0.159
86136W        W58561  44.058  44.838   4.791
86137W        W58562  24.431  24.144  13.824
86138W        W58563   3.272   2.906  13.876
86139W        W58564   3.866  37.349   0.701
86140W        W58565  18.655   1.765  12.262
86141W        W58566  44.844  29.898   3.391
86142W        W58567   7.132  31.889   5.166
86143W        W58568  40.677  32.464   1.799
86144W        W58569  38.481   4.161  11.456
86145W        W58570  12.852  16.724  14.533
86146W        W58571  18.547  38.298   3.663
86147W        W58572   0.042  39.348   1.848
86148W        W58573  39.987  24.600  10.640
86149W        W58574  29.202  28.634  11.511
86150W        W58575   9.122  20.574   0.478
86151W        W58576  35.513  10.333   4.996
86152W        W58577  44.499   9.825   1.744
86153W        W58578  33.353  21.522   3.217
86154W        W58579   3.216  20.277  11.932
86155W        W58580   6.304  37.078  14.841
86156W        W58581   7.164  13.611  11.666
86157W        W58582  13.211  32.063   1.623
86158W        W58583  32.540  25.230  13.047
86159W        W58584  20.235   4.417   2.630
86160W        W58585  12.344  23.785  11.964
86161W        W58586  36.674  30.613  11.979
86162W        W58587  35.224  12.294   1.071
86163W        W58588  40.857  22.154  13.856
86164W        W58589  35.625  40.365  14.722
86165W        W58590  11.201  21.329   3.576
86166W        W58591  40.585  27.539   3.894
86167W        W58592  24.333  22.967   2.908
86168W        W58593   8.206  38.127   4.081
86169W        W58594  27.471  10.298  13.337
86170W        W58595  30.461  35.578  12.489
86171W        W58596  30.961  34.526  12.372
86172W        W58597  10.256  44.267  13.378
86173W        W58598  21.824  19.762   3.873
86174W        W58599  23.470  22.193   1.448
86175W        W58600  31.956  29.430   4.757
86176W        W58601   0.384  13.351   1.598
86177W        W58602  21.554  33.886  12.558
86178W        W58603  22.494   7.392   0.002
86179W        W58604  19.113  29.116  11.744
86180W        W58605  35.965  36.163   2.814
86181W        W58606  37.810  40.136   1.755
86182W        W58607   8.125  15.596  11.647
86183W        W58608  27.048  21.053  14.457
86184W        W58609  43.316  36.698   3.339
86185W        W58610  31.685  22.189   3.252
86186W        W58611  29.118  19.872   4.370
86187W        W58612  42.974   1.467   0.705
86188W        W58613   2.538  23.463   1.698
86189W        W58614   6.311  33.079   3.835
86190W        W58615  39.930  30.175   0.568
86191W        W58616  30.475  22.957  10.712
86192W        W58617  31.398   5.713  10.770
86193W        W58618  35.258  22.580   1.918
86194W        W58619  10.623   7.920  14.761
86195W        W58620  11.721   7.529   2.206
86196W        W58621  18.520  40.479   5.474
86197W        W58622   7.275  26.605  11.866
86198W        W58623  15.573  44.553  14.636
86199W        W58624  20.210  21.260  10.741
86200W        W58625  44.434  29.331  12.102
86201W        W58626  26.822  21.373  11.446
86202W        W58627  20.775  36.112   5.099
86203W        W58628  37.786   9.700  10.951
86204W        W58629  19.011  39.265   3.557
86205W        W58630  41.303  12.299  11.443
86206W        W58631  14.642  35.966  12.888
86207W        W58632  36.311  12.323   2.832
86208W        W58633  41.410  24.006   4.073
86209W        W58634  35.394  29.650  11.940
86210W        W58635  22.380  17.345  12.884
86211W        W58636   2.434  24.229   3.632
86212W        W58637   0.638  35.682  10.777
86213W        W58638   8.273  18.808   4.103
86214W        W58639  44.977  25.637  13.550
86215W        W58640   7.395  14.728  11.952
86216W        W58641  23.865  43.211  10.650
86217W        W58642  32.089   9.398   1.268
86218W        W58643  37.266   4.866  14.174
86219W        W58644   0.425   4.738  12.802
86220W        W58645  34.094   0.005   2.566
86221W        W58646  36.588  36.710  10.534
86222W        W58647  30.463  25.008   0.690
86223W        W58648  15.714  14.555  10.551
86224W        W58649  20.184   2.764   2.380
86225W        W58650  18.223  16.263   4.766
86226W        W58651  38.998  18.157  10.306
86227W        W58652  35.767  24.737   2.618
86228W        W58653  43.306   9.297  13.375
86229W        W58654  43.439  12.529  12.676
86230W        W58655  40.355   1.927  12.450
86231W        W58656  24.930  36.877  13.902
86232W        W58657   0.785  34.540   1.841
86233W        W58658  35.598  35.846   0.701
86234W        W58659  41.275  31.284  10.399
86235W        W58660  13.172   2.932  14.894
86236W        W58661  15.740   4.255   0.873
86237W        W58662   5.678  17.325   0.819
86238W        W58663  19.569  42.854   1.060
86239W        W58664  18.472  25.635   3.241
86240W        W58665  26.346   8.298   1.346
86241W        W58666  17.559  31.131  13.542
86242W        W58667  13.789  14.408   1.258
86243W        W58668   6.340  24.087   0.886
86244W        W58669  14.675  21.118   4.043
86245W        W58670  15.346  16.147   1.176
86246W        W58671  28.224   5.353   3.713
86247W        W58672  35.150  41.334  12.524
86248W        W58673  18.725  34.424   0.347
86249W        W58674  36.124  11.335   4.172
86250W        W58675  37.234  28.508  14.467
86251W        W58676  24.717   3.282  12.196
86252W        W58677  34.994   5.981  10.733
86253W        W58678  30.560   2.935   3.594
86254W        W58679  32.557  38.285  11.181
86255W        W58680  25.200  10.647   4.667
86256W        W58681  22.760  10.450   3.695
86257W        W58682  43.078  36.103  10.328
86258W        W58683  29.737  30.577  14.912
86259W        W58684  12.193  15.659   0.903
86260W        W58685  34.934  43.638  12.450
86261W        W58686  21.033  20.576   0.717
86262W        W58687   8.491  13.597  12.102
86263W        W58688  34.000  20.051   1.018
86264W        W58689  21.042  39.867  14.909
86265W        W58690  34.833  42.897   0.849
86266W        W58691  41.527   3.780   3.654
86267W        W58692  44.770   3.864  10.713
86268W        W58693  25.594  34.797  13.125
86269W        W58694  38.423   7.883   9.771
86270W        W58695  41.128   8.178  14.862
86271W        W58696   1.708  12.506   3.671
86272W        W58697  16.170  34.488  11.907
86273W        W58698  22.590  44.379   3.774
86274W        W58699  13.223   8.738  12.033
86275W        W58700   9.271  37.864  12.026
86276W        W58701  11.553  10.152   2.882
86277W        W58702   8.299  39.813   4.590
86278W        W58703  17.754   8.908   0.832
86279W        W58704  33.826   2.518  14.517
86280W        W58705  36.483  25.066   4.628
86281W        W58706  26.467   5.312   5.142
86282W        W58707  27.073  13.084   3.249
86283W        W58708  42.404  24.033   4.019
86284W        W58709   8.919  37.025   2.199
86285W        W58710  27.229  26.993   2.892
86286W        W58711   7.332   2.235  13.780
86287W        W58712   5.467   6.017  12.915
86288W        W58713  16.458  31.106   4.091
86289W        W58714  13.589  29.412  12.128
86290W        W58715  31.688  21.865   4.567
86291W        W58716  18.715  34.975  13.555
86292W        W58717  34.482  29.526   1.954
86293W        W58718  33.572  36.119   2.783
86294W        W58719  19.832  25.032   1.193
86295W        W58720  14.542  35.027  13.109
86296W        W58721   9.750  36.611  12.506
86297W        W58722  12.836  25.477   1.183
86298W        W58723  28.035  15.710  12.359
86299W        W58724  38.387  20.105  10.427
86300W        W58725   0.700  32.839   4.675
86301W        W58726  24.911  10.196  13.605
86302W        W58727   7.668  39.405  11.976
86303W        W58728  16.191   0.970  11.492
86304W        W58729  23.228  28.161  13.410
86305W        W58730  39.482  14.172   4.726
86306W        W58731  33.270  41.863   1.786
86307W        W58732  34.918  37.009   0.507
86308W        W58733  20.976   3.758   3.152
86309W        W58734   2.912   3.360   2.356
86310W        W58735  38.458   5.199  13.415
86311W        W58736  25.932  13.090   0.792
86312W        W58737  30.056   4.927  13.477
86313W        W58738  31.239  22.730   9.754
86314W        W58739  38.350   4.253   0.255
86315W        W58740  29.076  18.368  10.554
86316W        W58741  32.249  23.059  12.180
86317W        W58742  14.141   0.706  14.901
86318W        W58743  15.743  22.266  10.376
86319W        W58744   5.153  12.638   0.879
86320W        W58745  17.584  19.912   4.932
86321W        W58746  12.864  31.329   2.294
86322W        W58747  28.168   7.086   1.567
86323W        W58748  17.699  24.234   4.171
86324W        W58749   2.717  36.580  13.086
86325W        W58750  36.098  44.952  10.966
86326W        W58751  17.699  24.523   3.747
86327W        W58752  19.802  15.283   1.735
86328W        W58753  24.542   2.331  12.240
86329W        W58754  18.215  42.931  11.415
86330W        W58755   3.111  14.365   3.931
86331W        W58756  11.194  12.665  11.493
86332W        W58757   1.712  33.417   0.334
86333W        W58758  12.718  20.730   3.216
86334W        W58759  34.752  15.736   0.899
86335W        W58760  25.583   3.177  13.296
86336W        W58761  12.402  14.258  13.473
86337W        W58762  11.166  27.498  10.709
86338W        W58763  12.295   5.422  10.453
86339W        W58764  19.040  19.786  12.131
86340W        W58765  43.455  29.104   0.209
86341W        W58766   1.267   7.514  12.308
86342W        W58767  26.200   1.756  11.570
86343W        W58768  43.400  19.099   4.391
86344W        W58769  11.512  38.130   2.365
86345W        W58770  25.607  28.494  14.148
86346W        W58771  29.353  22.560   0.668
86347W        W58772  44.374  13.075   3.403
86348W        W58773   4.886  44.884   4.335
86349W        W58774  32.962  36.566  14.037
86350W        W58775   7.642  42.112   1.260
86351W        W58776  39.047   8.901  14.360
86352W        W58777  40.628  37.479  11.665
86353W        W58778  41.979  19.031   0.325
86354W        W58779   1.359  43.430   3.738
86355W        W58780  26.208   2.736   0.302
86356W        W58781   3.420  21.229   0.883
86357W        W58782  24.756  39.085  14.336
86358W        W58783   5.386  27.236  13.517
86359W        W58784   9.597  17.874   1.968
86360W        W58785  12.398  11.667  14.987
86361W        W58786  15.344  20.441   2.288
86362W        W58787  13.135  34.390  14.310
86363W        W58788  15.255  17.028   1.149
86364W        W58789   7.830   1.483  10.676
86365W        W58790  13.321   0.692  10.147
86366W        W58791  11.673  12.361  10.701
86367W        W58792  40.644  32.461   4.911
86368W        W58793  36.813  43.887   3.856
86369W        W58794  41.481   2.200   1.447
86370W        W58795  34.000  35.140   1.911
86371W        W58796  30.924   3.296   4.500
86372W        W58797  44.983  13.248  13.009
86373W        W58798   9.230  26.460  10.723
86374W        W58799  42.497  22.076   9.549
86375W        W58800   4.685   4.349   0.776
86376W        W58801  28.643  30.966   3.356
86377W        W58802  26.613  33.800  12.934
86378W        W58803  25.480   1.791   2.729
86379W        W58804  10.170   7.690   4.476
86380W        W58805  40.026  31.395   3.221
86381W        W58806  38.371   7.379   9.901
86382W        W58807  12.103  44.969  14.706
86383W        W58808  43.330   0.362  13.002
86384W        W58809  12.859  41.113   1.981
86385W        W58810  13.352  28.539   0.658
86386W        W58811  15.758  27.820  14.934
86387W        W58812  22.231   1.160  12.946
86388W        W58813  32.732  16.938   0.178
86389W        W58814  26.715  22.419   5.049
86390W        W58815  40.020   0.965  13.782
86391W        W58816  10.059  20.274  12.096
86392W        W58817   1.907   4.723   4.861
86393W        W58818   5.298   1.512  14.353
86394W        W58819  32.638   9.134  10.501
86395W        W58820  20.166  34.618   1.917
86396W        W58821   2.642   2.938  14.455
86397W        W58822  36.120  17.020   4.437
86398W        W58823  33.487  23.577  13.761
86399W        W58824   0.778  28.953   1.257
86400W        W58825   7.698  31.831   5.034
86401W        W58826  36.579  43.869  11.916
86402W        W58827  33.165  25.656   1.112
86403W        W58828  18.394  42.579   4.809
86404W        W58829  18.270  27.050  14.437
86405W        W58830  25.336  24.312  14.762
86406W        W58831  30.720   6.224  11.969
86407W        W58832  29.512  12.188  14.353
86408W        W58833  13.554  26.992  14.341
86409W        W58834  12.687   0.891   1.756
86410W        W58835  30.481  25.280   0.204
86411W        W58836  40.546  16.057   4.520
86412W        W58837  40.864  44.567  13.388
86413W        W58838  19.626  30.850   4.219
86414W        W58839  20.112   2.428   4.658
86415W        W58840  11.150   3.393   2.426
86416W        W58841  14.752   0.999   1.304
86417W        W58842  20.693   5.320   1.694
86418W        W58843  16.480   2.357  12.136
86419W        W58844  32.129  23.135  14.018
86420W        W58845  43.709  14.325   0.204
86421W        W58846  38.367   3.848   1.268
86422W        W58847  34.703  44.119  10.437
86423W        W58848  12.229  39.433  11.787
86424W        W58849   4.372  10.859   1.419
86425W        W58850  37.956  24.987   2.766
86426W        W58851   1.886  14.610   0.335
86427W        W58852  29.072  41.229  13.885
86428W        W58853  35.071  22.546   4.602
86429W        W58854   4.128  14.379  13.392
86430W        W58855  21.971   9.767   2.761
86431W        W58856  34.751  30.042   4.564
86432W        W58857   3.213  30.456  12.300
86433W        W58858  23.134  25.210   1.558
86434W        W58859  29.138  42.775   4.084
86435W        W58860  37.352   6.230   4.487
86436W        W58861  18.295  22.046   2.692
86437W        W58862  13.174  40.471  12.143
86438W        W58863   9.393   4.331   0.496
86439W        W58864   8.559  43.858   3.444
86440W        W58865   6.683  43.841   4.906
86441W        W58866  22.393  11.868  11.160
86442W        W58867  35.579  20.484   4.635
86443W        W58868  34.493   8.342   4.102
86444W        W58869   7.032  42.620   0.838
86445W        W58870  20.014  38.431  10.741
86446W        W58871  30.578  30.329   3.762
86447W        W58872   2.280  33.426   1.255
86448W        W58873   4.243  19.653  14.506
86449W        W58874  41.937   4.298  13.755
86450W        W58875  24.900   6.242   0.323
86451W        W58876  14.950   0.195   2.225
86452W        W58877  31.673  31.812   2.350
86453W        W58878  38.028  16.217  13.751
86454W        W58879  27.671  32.592   3.875
86455W        W58880   3.168  27.594   0.901
86456W        W58881   4.469  14.678   0.953
86457W        W58882  28.970  27.073  13.010
86458W        W58883  30.009  15.467   2.630
86459W        W58884  40.529  11.088   3.771
86460W        W58885  27.249  18.435   1.450
86461W        W58886  35.315  20.122  14.788
86462W        W58887  30.164   3.722  14.200
86463W        W58888  44.244  18.110  11.621
86464W        W58889  19.751  43.500   1.858
86465W        W58890  27.559  15.193  11.324
86466W        W58891  26.818  24.000   1.835
86467W        W58892  31.738  13.749  12.018
86468W        W58893  16.844  31.193  13.856
86469W        W58894  11.631  42.416   3.848
86470W        W58895  25.093  11.705   2.556
86471W        W58896  23.657  10.087  10.952
86472W        W58897  37.198  21.761   0.361
86473W        W58898  28.114   9.195  11.630
86474W        W58899  35.811  15.060  12.104
86475W        W58900  17.160  14.825   0.353
86476W        W58901  13.234  14.115   2.327
86477W        W58902  43.479  21.205   4.811
86478W        W58903  21.937   4.711  13.397
86479W        W58904  16.184  30.963  14.276
86480W        W58905  30.419   6.275  12.392
86481W        W58906  34.684  25.596   1.986
86482W        W58907   1.233  40.409   2.352
86483W        W58908  20.771  30.907  11.049
86484W        W58909   6.485  13.316  12.434
86485W        W58910  21.811  28.487   2.705
86486W        W58911  31.491   2.774  13.354
86487W        W58912   5.381  42.570   2.462
86488W        W58913  39.634  23.884   0.738
86489W        W58914   0.830  14.140   1.916
86490W        W58915   5.888  21.715  14.989
86491W        W58916   7.679  35.948   1.106
86492W        W58917  10.382  11.723   4.168
86493W        W58918   5.802  29.653  11.848
86494W        W58919   9.461  31.090  12.718
86495W        W58920  13.553  18.723  10.433
86496W        W58921   6.833  16.159   4.670
86497W        W58922   5.398  35.414  11.662
86498W        W58923  19.669   4.216  11.429
86499W        W58924   0.467  16.988   1.800
86500W        W58925  30.076  34.909  11.936
86501W        W58926  27.931  27.418   2.244
86502W        W58927  39.271  39.911   2.709
86503W        W58928  36.301  32.488  13.569
86504W        W58929  23.729  43.090  11.590
86505W        W58930  16.216   1.903  13.376
86506W        W58931  43.628   4.180  13.056
86507W        W58932  33.352   4.651   2.526
86508W        W58933  25.562  36.615   2.756
86509W        W58934   9.612   8.769  12.449
86510W        W58935  23.316   8.733  14.874
86511W        W58936   8.343   1.335  13.862
86512W        W58937  10.445  28.882  14.033
86513W        W58938  26.938  36.307  14.835
86514W        W58939  36.458  32.521   2.822
86515W        W58940   0.299   7.356   4.106
86516W        W58941  35.561  33.026   4.436
86517W        W58942  44.262   3.515   4.998
86518W        W58943  15.627  26.500   2.136
86519W        W58944  13.924  29.478  14.432
86520W        W58945  44.390   1.348  13.478
86521W        W58946  15.455  44.433   2.458
86522W        W58947   5.696  14.616   3.802
86523W        W58948   5.262  41.347   5.080
86524W        W58949   2.810  29.718  14.927
86525W        W58950  34.536  23.217  11.442
86526W        W58951  23.001   8.717  10.563
86527W        W58952   3.713  41.601   3.652
86528W        W58953  21.838   2.049   0.314
86529W        W58954  22.279  24.590   2.074
86530W        W58955  13.919  23.669  10.654
86531W        W58956  16.601  43.133   5.046
86532W        W58957  43.803  37.921  12.344
86533W        W58958  16.477  35.504  10.409
86534W        W58959   3.672  34.516   2.663
86535W        W58960  38.554  24.945   0.876
86536W        W58961   0.491  32.045  12.444
86537W        W58962  34.888   5.388   4.556
86538W        W58963  44.731  39.288  11.084
86539W        W58964  26.669  44.759   0.311
86540W        W58965   9.637  20.401   3.458
86541W        W58966  14.859   6.101  12.108
86542W        W58967  17.761   4.364   4.258
86543W        W58968  21.666  41.320  13.772
86544W        W58969  40.487  25.234  14.765
86545W        W58970  11.628  31.490   1.735
86546W        W58971  41.843  27.432  10.626
86547W        W58972  18.656  24.989  11.029
86548W        W58973  20.302   5.254  13.008
86549W        W58974  17.566  34.014   3.731
86550W        W58975  32.109  23.013   3.362
86551W        W58976  14.021  27.922  11.518
86552W        W58977  22.722  38.121  11.012
86553W        W58978  38.970  15.331  10.703
86554W        W58979  44.359  18.036  11.028
86555W        W58980  27.469   9.608  14.818
86556W        W58981  42.291  15.765   4.191
86557W        W58982  36.885   2.693  11.877
86558W        W58983  37.358   6.877  13.058
86559W        W58984   6.727  25.078  12.073
86560W        W58985  23.954  24.732  11.652
86561W        W58986  12.625  42.916   3.610
86562W        W58987  16.301  23.448   4.149
86563W        W58988  12.246  19.617   1.779
86564W        W58989  32.217  43.287   1.442
86565W        W58990   0.484   7.158  11.627
86566W        W58991   2.764  14.354  12.831
86567W        W58992  33.715  17.303   4.960
86568W        W58993  26.706  21.236   4.642
86569W        W58994  31.145  31.039   2.061
86570W        W58995  26.638  42.001  12.866
86571W        W58996   6.515   8.854   5.098
86572W        W58997  23.743  21.047   0.650
86573W        W58998  19.245  44.220  12.573
86574W        W58999  24.696  23.768  14.582
86575W        W59000  42.632  20.762  14.804
86576W        W59001  13.351  42.895  14.064
86577W        W59002  38.043  28.033   2.323
86578W        W59003  10.081  26.960   3.868
86579W        W59004  38.204   3.156  14.704
86580W        W59005  31.328   1.973   3.204
86581W        W59006   8.660  20.505   3.681
86582W        W59007  33.931   5.786  11.939
86583W        W59008   1.738  18.294   2.197
86584W        W59009  27.218  41.285  13.982
86585W        W59010  18.364  13.063  12.291
86586W        W59011   8.108  26.182  11.285
86587W        W59012  37.056   7.295   0.447
86588W        W59013  31.670  21.863   9.739
86589W        W59014  15.890   9.933   2.255
86590W        W59015  28.113  43.532   0.422
86591W        W59016  21.233  12.902  12.282
86592W        W59017  43.629  27.924   3.157
86593W        W59018  29.588  23.485  10.672
86594W        W59019  31.702   3.234   3.438
86595W        W59020  13.324   1.361   2.576
86596W        W59021  26.480  22.514   1.229
86597W        W59022   2.967   0.518   2.692
86598W        W59023   9.118  25.766   1.479
86599W        W59024  35.515  23.749   2.836
86600W        W59025  18.256  38.883   0.026
86601W        W59026  21.729   9.454   1.275
86602W        W59027  14.711  39.476  13.064
86603W        W59028  23.310  28.575   0.077
86604W        W59029  22.771  44.392   0.550
86605W        W59030  27.578  28.863  12.104
86606W        W59031  35.670  34.549  12.552
86607W        W59032  14.053  28.556  12.870
86608W        W59033  31.903  23.584   3.128
86609W        W59034  20.158  37.954   3.223
86610W        W59035  30.981  32.042  14.406
86611W        W59036  39.341   5.028  13.704
86612W        W59037  37.113  37.634  14.892
86613W        W59038   2.338  35.558   0.821
86614W        W59039   8.723   2.839  10.380
86615W        W59040  42.018  32.521  10.764
86616W        W59041  24.610  43.219   2.717
86617W        W59042  24.141  29.692  13.723
86618W        W59043  34.902   2.706   3.134
86619W        W59044   3.687  16.575   4.066
86620W        W59045  25.316  37.906   0.530
86621W        W59046   7.172   6.930   4.612
86622W        W59047  11.767   3.437   0.927
86623W        W59048   7.288  16.328  11.231
86624W        W59049  41.526  16.006  10.688
86625W        W59050  21.528  16.607  13.104
86626W        W59051  30.285  40.047   2.014
86627W        W59052   2.373  28.453  14.552
86628W        W59053  39.070  33.362   1.897
86629W        W59054  10.381  28.345   2.229
86630W        W59055  31.551  28.252  11.449
86631W        W59056   4.466  13.747  13.945
86632W        W59057   3.846  26.357  14.035
86633W        W59058  38.081  26.650  12.486
86634W        W59059   8.824  15.126   2.836
86635W        W59060  12.449  33.145   0.544
86636W        W59061  15.787   0.229   0.456
86637W        W59062  17.593  27.106   4.929
86638W        W59063  34.087  10.806  11.393
86639W        W59064  21.038  22.807  14.312
86640W        W59065  17.606  12.753  10.990
86641W        W59066   0.293  30.180  13.036
86642W        W59067  38.280  33.106  12.511
86643W        W59068  30.082  22.446  13.391
86644W        W59069  27.801  24.087   4.243
86645W        W59070  26.209  24.113  14.797
86646W        W59071  23.969  26.777  13.025
86647W        W59072   0.933  37.961  11.126
86648W        W59073  32.137  27.549   2.465
86649W        W59074  44.424  12.624   3.692
86650W        W59075  10.317  12.671  13.842
86651W        W59076   3.964  22.684  14.866
86652W        W59077  23.738  25.185  14.206
86653W        W59078  37.677  21.547   0.340
86654W        W59079  19.270  15.655  14.978
86655W        W59080  18.198   4.758   1.668
86656W        W59081  22.603  32.228   4.156
86657W        W59082  19.679  39.555   4.434
86658W        W59083  44.278  35.099  11.451
86659W        W59084  35.099  43.235   4.640
86660W        W59085  31.592  28.411   2.402
86661W        W59086  44.909  31.819   9.746
86662W        W59087  12.258  32.146  11.508
86663W        W59088  24.151  24.477  11.270
86664W        W59089  18.210  43.414   4.786
86665W        W59090  13.124  27.445  11.801
86666W        W59091   5.506   1.002   3.536
86667W        W59092  42.707   2.764  10.765
86668W        W59093  31.980  29.125   2.813
86669W        W59094  28.815  23.204  12.805
86670W        W59095  26.568  13.889  13.901
86671W        W59096  13.357  27.856   2.853
86672W        W59097  34.947  31.487   2.898
86673W        W59098   0.934   8.749   2.380
86674W        W59099   0.774  22.033  12.127
86675W        W59100   7.294   9.448  12.583
86676W        W59101   5.303  25.035  14.906
86677W        W59102  12.374  21.595  11.961
86678W        W59103  20.167  34.861  13.947
86679W        W59104   0.592  34.433   0.280
86680W        W59105  18.587  31.056   3.140
86681W        W59106  13.667  24.795  11.908
86682W        W59107  26.808  27.937   2.832
86683W        W59108  20.419  13.239  14.455
86684W        W59109  23.284  36.864   1.471
86685W        W59110  44.505  25.041   3.212
86686W        W59111  34.992   9.615  11.897
86687W        W59112  14.369  36.010  13.934
86688W        W59113  40.147  37.594   5.085
86689W        W59114   6.578  41.785  13.087
86690W        W59115  35.376   9.767   0.551
86691W        W59116  29.407  26.910   3.201
86692W        W59117  40.438  43.392  11.836
86693W        W59118  41.731   0.835   0.776
86694W        W59119  24.151  12.053  13.369
86695W        W59120   6.703  19.635   2.792
86696W        W59121   1.993  38.114   2.319
86697W        W59122   5.739  23.609   4.082
86698W        W59123  12.539  19.511   2.206
86699W        W59124  17.559  25.167  11.128
86700W        W59125   0.987  34.071   9.636
86701W        W59126  23.675  25.986   2.787
86702W        W59127  33.979  37.082   1.463
86703W        W59128  30.887  14.700  10.487
86704W        W59129  18.285  30.878  10.580
86705W        W59130  22.310  25.062   4.596
86706W        W59131  38.358  33.662   1.362
86707W        W59132  15.377   8.805  13.962
86708W        W59133  16.608  11.058   2.740
86709W        W59134  11.311   6.391   3.369
86710W        W59135  29.511  16.308   2.688
86711W        W59136  31.973   9.200  12.524
86712W        W59137  42.457  40.317  14.856
86713W        W59138  42.359  39.832   3.699
86714W        W59139  17.932  13.239   0.815
86715W        W59140  38.017  13.617   3.044
86716W        W59141   5.338   7.218  10.966
86717W        W59142  16.347  18.553   3.178
86718W        W59143  18.481  28.798   3.976
86719W        W59144  40.405  19.389   4.456
86720W        W59145  32.508  44.334   4.027
86721W        W59146  10.585  20.189   4.447
86722W        W59147  18.723  13.795   1.717
86723W        W59148  28.006  28.953   2.243
86724W        W59149  36.418  22.554  13.394
86725W        W59150  38.587  22.013  10.614
86726W        W59151   3.666  43.177  13.434
86727W        W59152  22.978   7.576   1.344
86728W        W59153   6.264   3.829   3.405
86729W        W59154   5.397   5.106   2.769
86730W        W59155  32.362   9.207   0.799
86731W        W59156  31.703  24.488   0.490
86732W        W59157  18.129  39.569  14.560
86733W        W59158  22.004  27.513   4.116
86734W        W59159  24.622   0.931   1.749
86735W        W59160  15.663  25.965  13.477
86736W        W59161  26.774   2.732  13.999
86737W        W59162  33.432  15.028   2.723
86738W        W59163  27.104   4.385  14.858
86739W        W59164   7.943  10.869  11.138
86740W        W59165  32.074   0.723  13.810
86741W        W59166  32.434   9.312  13.059
86742W        W59167  20.001  28.111   9.804
86743W        W59168  16.012  26.512   0.920
86744W        W59169  40.662  20.623  10.256
86745W        W59170  19.924   2.038   2.921
86746W        W59171   2.047  19.918  14.959
86747W        W59172  23.278   1.569   3.738
86748W        W59173  25.371  26.493   3.719
86749W        W59174  36.473  15.928   2.351
86750W        W59175  37.504  24.632  14.517
86751W        W59176  12.337  27.013   1.691
86752W        W59177  26.131  11.377  14.416
86753W        W59178   7.757  42.327  14.385
86754W        W59179  44.913  11.150   2.206
86755W        W59180  40.255  33.544   1.379
86756W        W59181  19.974  33.871  14.048
86757W        W59182  40.070  22.181   1.830
86758W        W59183  40.995  22.283  14.345
86759W        W59184  25.449  37.859   3.239
86760W        W59185  32.075  12.771  13.857
86761W        W59186  13.144  38.360   0.281
86762W        W59187  28.816  29.656  10.745
86763W        W59188  11.095  28.094  11.766
86764W        W59189  32.529  43.901  12.140
86765W        W59190  11.733  23.729  13.359
86766W        W59191  34.669  19.540   3.601
86767W        W59192   0.507  43.958   0.314
86768W        W59193   6.972  40.315   0.742
86769W        W59194   6.199  42.732  13.793
86770W        W59195  39.265  12.729   3.140
86771W        W59196  42.014  14.064   1.476
86772W        W59197   9.369  31.035  10.652
86773W        W59198  16.164  35.493  11.264
86774W        W59199  24.712  30.457   4.019
86775W        W59200  22.091   2.017  14.000
86776W        W59201  33.168   0.004  11.534
86777W        W59202  44.845  15.929   2.457
86778W        W59203  31.016  17.596   1.527
86779W        W59204  12.569   8.415   1.904
86780W        W59205  19.230   9.847   4.576
86781W        W59206  18.116   0.378   1.937
86782W        W59207  32.919  21.154   2.823
86783W        W59208  26.604  28.920  11.581
86784W        W59209  29.194  37.607  12.693
86785W        W59210  26.807  23.123   1.562
86786W        W59211  17.920  11.910  12.076
86787W        W59212  20.953  11.327   0.646
86788W        W59213  25.600   9.194   2.281
86789W        W59214   6.097   4.313   2.329
86790W        W59215  37.851  30.685   4.173
86791W        W59216  44.969   9.213   3.869
86792W        W59217   5.059  38.205  13.303
86793W        W59218  29.128  16.047  10.558
86794W        W59219  43.375  42.685  11.589
86795W        W59220  17.908  38.945   0.426
86796W        W59221  27.501  42.910  10.394
86797W        W59222  16.849  36.324  11.099
86798W        W59223  30.473  24.755  12.749
86799W        W59224   3.482  33.106   1.907
86800W        W59225  29.191  28.964   4.900
86801W        W59226  44.812  24.614  12.658
86802W        W59227  24.432  17.219   1.167
86803W        W59228  20.531  12.393   1.404
86804W        W59229  21.198  19.320  14.373
86805W        W59230  29.965   0.695  11.104
86806W        W59231  11.175  26.689   4.264
86807W        W59232  24.999  44.122   4.890
86808W        W59233  36.970   4.144  11.393
86809W        W59234  28.093  39.347  12.067
86810W        W59235  20.281  19.989   1.755
86811W        W59236   2.172  27.884   1.553
86812W        W59237  20.886   5.430  11.336
86813W        W59238   5.605   8.680  13.410
86814W        W59239  11.210  40.980  10.978
86815W        W59240  26.141  19.283  14.452
86816W        W59241  29.411   8.861  12.161
86817W        W59242  18.067  31.488   4.621
86818W        W59243  25.708  26.640  11.766
86819W        W59244  22.854  43.863  11.024
86820W        W59245  42.408  24.035   2.034
86821W        W59246  32.033  20.562  12.228
86822W        W59247  19.205  35.060   1.880
86823W        W59248   1.395  30.599  13.025
86824W        W59249  42.066  35.919  10.729
86825W        W59250  35.163   5.851   0.469
86826W        W59251  14.876  28.393  10.680
86827W        W59252  12.874  29.866   4.063
86828W        W59253  19.462  40.961  11.078
86829W        W59254  24.556   8.074  11.963
86830W        W59255  31.422  26.776  14.381
86831W        W59256  17.105  29.214   1.517
86832W        W59257  24.965   5.835  13.328
86833W        W59258  39.712   6.710   2.494
86834W        W59259  35.143  33.331   5.092
86835W        W59260  24.459   4.808   4.740
86836W        W59261  37.220  13.147   0.479
86837W        W59262   2.839  21.443  14.743
86838W        W59263  33.903  43.465  10.398
86839W        W59264   0.389  17.256   2.262
86840W        W59265  15.133  21.190  10.504
86841W        W59266   2.240  26.950  14.237
86842W        W59267   3.545  23.552   1.769
86843W        W59268  25.996  33.574   4.525
86844W        W59269  12.147  17.329   3.860
86845W        W59270  30.678  24.069   9.893
86846W        W59271  41.326  25.228   2.234
86847W        W59272  27.973  40.638   4.661
86848W        W59273  44.816  32.579  11.613
86849W        W59274  44.355   3.147   3.674
86850W        W59275  12.322  25.323  11.960
86851W        W59276  14.741  37.652  13.819
86852W        W59277   9.425  27.006   0.953
86853W        W59278  32.278  42.575   2.829
86854W        W59279   2.564  31.098   4.708
86855W        W59280  10.328   4.341   1.137
86856W        W59281  12.781  14.648  13.426
86857W        W59282  42.732  38.318   0.921
86858W        W59283   5.811  36.898  14.925
86859W        W59284  29.199   2.509   1.263
86860W        W59285   8.299  28.354   2.000
86861W        W59286  43.934  30.324   0.566
86862W        W59287  40.609  21.277   4.191
86863W        W59288  13.759  34.607   2.928
86864W        W59289   8.779  30.201  10.576
86865W        W59290  18.093  11.483   0.213
86866W        W59291   8.791  16.459  11.679
86867W        W59292   7.630  33.390   2.815
86868W        W59293  22.154  18.080   4.382
86869W        W59294  13.874  20.156   4.510
86870W        W59295   4.681  21.385  10.175
86871W        W59296  37.384  40.573  12.510
86872W        W59297  44.411  12.400   1.969
86873W        W59298  32.464  38.127  13.468
86874W        W59299   0.576  21.069   0.801
86875W        W59300  14.902  18.021  13.571
86876W        W59301  34.868  41.771  12.523
86877W        W59302   4.513   7.531  11.577
86878W        W59303  16.353   0.867   4.917
86879W        W59304  10.075  15.088   2.272
86880W        W59305  10.714  31.888   5.049
86881W        W59306  31.353  31.510  12.799
86882W        W59307   7.189  42.016   4.362
86883W        W59308  35.622  33.968  13.411
86884W        W59309  37.482   5.649  14.874
86885W        W59310  34.018   9.667  14.871
86886W        W59311  23.530  27.648  12.968
86887W        W59312   6.288  13.169   0.377
86888W        W59313  41.829  20.257   0.904
86889W        W59314  19.532  18.158   4.672
86890W        W59315  38.482   8.827   5.042
86891W        W59316  35.469  15.661   0.351
86892W        W59317  37.805  27.726   0.530
86893W        W59318  12.251  33.532   1.366
86894W        W59319   8.582  15.830   4.758
86895W        W59320  35.593  19.158   1.936
86896W        W59321  22.709  24.347   1.894
86897W        W59322  18.869  40.509   4.095
86898W        W59323  30.741  25.502  13.605
86899W        W59324   9.462   3.403  11.405
86900W        W59325  27.051   8.901  13.156
86901W        W59326   2.200   7.760   2.633
86902W        W59327  20.190  14.402  14.793
86903W        W59328   7.283  20.442   2.886
86904W        W59329  40.789  11.189  13.773
86905W        W59330  15.125  36.057   9.970
86906W        W59331  25.700   2.688   4.118
86907W        W59332   9.199  19.574   0.139
86908W        W59333   0.334  15.101   2.285
86909W        W59334  26.076  30.450   4.246
86910W        W59335  29.943  41.295  11.929
86911W        W59336  42.563   2.141   2.187
86912W        W59337  37.114  14.066   0.432
86913W        W59338  11.704  32.044  10.070
86914W        W59339  37.308  31.844   2.319
86915W        W59340   9.273  35.544  10.738
86916W        W59341  22.161   1.569  12.522
86917W        W59342  24.205   4.260   3.396
86918W        W59343  10.795  19.477   0.956
86919W        W59344  37.402  18.542   4.151
86920W        W59345  33.946   1.918  10.754
86921W        W59346  42.330   7.163   3.177
86922W        W59347  23.555  20.373   2.235
86923W        W59348  42.819  20.812  13.503
86924W        W59349  41.462  29.123   2.823
86925W        W59350  25.679  20.449  11.382
86926W        W59351  39.016   4.789   3.606
86927W        W59352  31.105  35.104  12.038
86928W        W59353  44.486  41.486  13.968
86929W        W59354   5.330  28.675   1.329
86930W        W59355  15.211  39.972  14.086
86931W        W59356  23.895  37.644  12.459
86932W        W59357  26.273  42.001  14.656
86933W        W59358  27.070   0.897  14.541
86934W        W59359  21.556   5.885   2.458
86935W        W59360  43.909  24.244  12.931
86936W        W59361  15.633  30.678   4.187
86937W        W59362  23.983  19.811  11.293
86938W        W59363  14.867  39.953  14.972
86939W        W59364  29.081  37.795  14.292
86940W        W59365  15.133  15.653  10.476
86941W        W59366  35.006  13.416  12.885
86942W        W59367  36.426   5.162   3.826
86943W        W59368   8.599   3.622  14.991
86944W        W59369   8.383  35.923   0.026
86945W        W59370   3.152  37.652  12.618
86946W        W59371  33.195  15.738   3.199
86947W        W59372  43.611  12.752  11.752
86948W        W59373   9.776  28.495   0.925
86949W        W59374  35.626  38.791   0.990
86950W        W59375  43.677  27.212  11.647
86951W        W59376  33.029  31.834   0.280
86952W        W59377  13.315   9.137   4.113
86953W        W59378   9.829  33.773  11.615
86954W        W59379  17.445  35.874   0.666
86955W        W59380   5.863  29.602  11.327
86956W        W59381  34.544   8.699   0.477
86957W        W59382  19.509  21.125   0.334
86958W        W59383  26.229  21.879   4.507
86959W        W59384  22.184  14.169  14.889
86960W        W59385  37.622  17.604  11.592
86961W        W59386  36.389  35.917   2.944
86962W        W59387  33.077  34.663  13.025
86963W        W59388  27.062  27.259  13.026
86964W        W59389   9.453  21.380  13.838
86965W        W59390   3.864  28.107   0.944
86966W        W59391  12.821   1.984   4.081
86967W        W59392  37.166  44.580  11.967
86968W        W59393  12.519  40.433   4.886
86969W        W59394  26.344  29.194   5.085
86970W        W59395   4.435   0.831   3.879
86971W        W59396  38.894  26.503  12.773
86972W        W59397   7.344  11.357  12.520
86973W        W59398  35.982   7.493   0.267
86974W        W59399  39.784  18.802   4.603
86975W        W59400  24.223   3.110   2.566
86976W        W59401  25.612  32.650  10.152
86977W        W59402  43.712   1.138   0.468
86978W        W59403  39.316   9.118   1.928
86979W        W59404  21.612   9.373   2.771
86980W        W59405  10.810  28.889  11.171
86981W        W59406  12.934  24.699  12.477
86982W        W59407  42.812   3.608  13.380
86983W        W59408  30.447  39.831   3.018
86984W        W59409  28.102   6.382  14.940
86985W        W59410  41.991  18.703  14.943
86986W        W59411   4.734  36.771  13.629
86987W        W59412  18.289  12.704   2.687
86988W        W59413   4.218  29.421   3.033
86989W        W59414  20.742   5.235  12.262
86990W        W59415  35.146  18.292   0.484
86991W        W59416  30.324  10.040  13.005
86992W        W59417  10.103  15.793  12.911
86993W        W59418  24.955  24.798  11.752
86994W        W59419  19.484  35.441  11.689
86995W        W59420   9.660  16.977  11.875
86996W        W59421  34.939   4.191   2.212
86997W        W59422  24.664  29.711   4.613
86998W        W59423  11.767  36.090  13.041
86999W        W59424   4.725  33.893   4.559
87000W        W59425   8.515  21.263   0.784
87001W        W59426   7.740  44.401  12.837
87002W        W59427  18.838  38.008  12.857
87003W        W59428  35.364  43.073   1.666
87004W        W59429  20.944  41.745   1.686
87005W        W59430   0.326   8.299  14.791
87006W        W59431  23.499  29.432   2.330
87007W        W59432   4.918   7.852  11.553
87008W        W59433  18.556  41.889   1.319
87009W        W59434  16.324  18.615   3.774
87010W        W59435  26.166  26.639   0.817
87011W        W59436  32.161  35.578  14.468
87012W        W59437  23.824  25.491   0.005
87013W        W59438   1.903  15.719  11.788
87014W        W59439   3.327  42.691   1.898
87015W        W59440   3.649  43.184  14.938
87016W        W59441  36.618   5.496   1.086
87017W        W59442  16.846  23.043  13.218
87018W        W59443  25.748  24.607  12.521
87019W        W59444  39.383   7.720  12.874
87020W        W59445  32.894  43.757  13.647
87021W        W59446  31.869  30.860   3.982
87022W        W59447   4.854   4.036   1.178
87023W        W59448  35.879  26.461  11.499
87024W        W59449  34.145  27.162   1.410
87025W        W59450  21.708  25.604   5.007
87026W        W59451  39.077  37.331  12.430
87027W        W59452  22.108  25.051  13.281
87028W        W59453  42.721  21.705  10.847
87029W        W59454  39.471   6.846  10.481
87030W        W59455  22.323  27.441   0.669
87031W        W59456  16.071   7.708   1.962
87032W        W59457  10.683  28.428  13.900
87033W        W59458  33.461  21.490   4.613
87034W        W59459   0.776  28.976  11.258
87035W        W59460  12.630   3.861  11.303
87036W        W59461  39.536  27.491  11.995
87037W        W59462  23.071  27.892  12.091
87038W        W59463   7.953  10.205  11.918
87039W        W59464  39.935  18.175   0.473
87040W        W59465  35.646  19.990   4.522
87041W        W59466  10.866  24.947  12.992
87042W        W59467  29.985  36.465   1.477
87043W        W59468  10.781  41.919   4.792
87044W        W59469  36.546  19.815  14.765
87045W        W59470  32.812  18.053   3.312
87046W        W59471  40.462  44.043   2.315
87047W        W59472   6.449   3.854   0.372
87048W        W59473  40.912  44.103   0.416
87049W        W59474  18.584   8.868   4.327
87050W        W59475  14.886  24.898  12.464
87051W        W59476  36.966  28.138   0.360
87052W        W59477  37.922  39.608  14.331
87053W        W59478   7.435  41.412   2.898
87054W        W59479  18.707  33.188   0.758
87055W        W59480  17.825  44.061   3.670
87056W        W59481   1.365  28.485   1.042
87057W        W59482  30.938   4.871  13.948
87058W        W59483  31.471  21.993  10.637
87059W        W59484  16.550  16.122   3.573
87060W        W59485  14.771  28.708   3.754
87061W        W59486  38.097   9.204  12.413
87062W        W59487  29.643  42.964  12.159
87063W        W59488  38.110  12.164  13.349
87064W        W59489  12.637  37.079  13.183
87065W        W59490   8.667  22.240  13.457
87066W        W59491  19.714  26.937   4.064
87067W        W59492  33.821  19.608   0.161
87068W        W59493  39.021   3.669   2.351
87069W        W59494  26.461  43.800   0.723
87070W        W59495   9.842  31.647   2.255
87071W        W59496  32.151   2.372   3.235
87072W        W59497  32.023  38.802  14.136
87073W        W59498  16.400  12.066   2.814
87074W        W59499  23.491  40.427  10.821
87075W        W59500   9.331   8.659   0.851
87076W        W59501  37.019   6.390  10.669
87077W        W59502  41.515  10.196   2.875
87078W        W59503   8.896  38.068   3.749
87079W        W59504  27.427   2.066   3.093
87080W        W59505  34.455  37.033   1.282
87081W        W59506  36.275  16.296   1.530
87082W        W59507  27.979  33.438  12.416
87083W        W59508   7.664  41.409  14.372
87084W        W59509  11.670   2.390  14.089
87085W        W59510   0.585  26.533   4.790
87086W        W59511  16.571  40.288  10.783
87087W        W59512  29.603   9.188  12.532
87088W        W59513  15.608  38.305   0.171
87089W        W59514  22.012  22.166  13.054
87090W        W59515  35.091   7.557   0.264
87091W        W59516  12.472  36.124   1.366
87092W        W59517   3.340   4.916   4.247
87093W        W59518   6.028  19.515  11.136
87094W        W59519  13.349  25.594  11.088
87095W        W59520  22.514  11.505   1.827
87096W        W59521   7.410  43.693  11.274
87097W        W59522  26.605  11.638  14.381
87098W        W59523  38.385   7.782   3.619
87099W        W59524  15.841   4.947  13.951
87100W        W59525   5.924  42.557  14.500
87101W        W59526   7.207  37.858  13.160
87102W        W59527  12.665  23.646  10.173
87103W        W59528  39.806   9.286  11.912
87104W        W59529   3.144   7.278  11.054
87105W        W59530   9.595  25.059  11.719
87106W        W59531  14.304  37.593   2.392
87107W        W59532   2.363  40.617   0.771
87108W        W59533  34.143   8.188   1.736
87109W        W59534  27.488  31.398  14.318
87110W        W59535  37.590  35.628   3.576
87111W        W59536  39.620  19.308   0.982
87112W        W59537  12.291  28.529   0.462
87113W        W59538  33.114  26.277  14.484
87114W        W59539  21.110  24.044  10.683
87115W        W59540  32.045  34.759  14.045
87116W        W59541  34.982  42.341   2.742
87117W        W59542  36.062   4.273  14.685
87118W        W59543  14.549  36.815   0.398
87119W        W59544  43.427  43.713  11.493
87120W        W59545  19.315   8.402   0.613
87121W        W59546  21.530   6.412  13.876
87122W        W59547  11.418  13.176  13.435
87123W        W59548  11.666  16.791  10.415
87124W        W59549   4.855  40.369   1.649
87125W        W59550  38.884  30.077  14.674
87126W        W59551   1.443  38.034  14.913
87127W        W59552   0.381  33.900   4.946
87128W        W59553  29.074  22.215   2.506
87129W        W59554  37.738  15.742   5.001
87130W        W59555  37.869  28.561   2.210
87131W        W59556  14.119  19.688   3.214
87132W        W59557  36.947  44.657  12.834
87133W        W59558   5.924  21.563   2.925
87134W        W59559   7.944   7.491  10.924
87135W        W59560  10.069  43.314   4.102
87136W        W59561  25.645  31.932  14.390
87137W        W59562  19.984   1.434   1.170
87138W        W59563   0.412   3.688  12.092
87139W        W59564  30.500  43.697   2.220
87140W        W59565  16.184  11.053   3.063
87141W        W59566  10.214  19.765  12.091
87142W        W59567  25.353  21.044  12.636
87143W        W59568   2.678  35.451  10.579
87144W        W59569  44.013   9.599  10.970
87145W        W59570  40.338   3.381  12.992
87146W        W59571  36.452  24.216  11.619
87147W        W59572  41.283   0.897   1.048
87148W        W59573   3.078  39.950   2.261
87149W        W59574  26.365  19.801   3.686
87150W        W59575  32.526  24.165   4.018
87151W        W59576  16.835  21.819   3.188
87152W        W59577  41.370  23.674   2.212
87153W        W59578  20.595  42.315  14.230
87154W        W59579  13.784  39.459   4.593
87155W        W59580  44.397  33.549  13.904
87156W        W59581  23.285  10.236  14.045
87157W        W59582  11.185  16.370   1.771
87158W        W59583  44.187   3.474  10.148
87159W        W59584  13.737  25.542   1.692
87160W        W59585  11.961  33.311  12.985
87161W        W59586  15.591  29.226  12.886
87162W        W59587  29.434  10.696  14.019
87163W        W59588  21.699  44.898   1.232
87164W        W59589  20.740  28.466   0.917
87165W        W59590   6.084  38.267   4.594
87166W        W59591  36.577  44.821  11.156
87167W        W59592   2.825  16.146   4.118
87168W        W59593   7.661  19.633  11.136
87169W        W59594  31.572  33.837  13.168
87170W        W59595   3.820   0.840  12.108
87171W        W59596  41.991  38.545  14.261
87172W        W59597   1.795  22.993  11.426
87173W        W59598  24.773  33.086   4.213
87174W        W59599  15.303  32.701   4.121
87175W        W59600  42.885  26.471   2.292
87176W        W59601  16.423  26.273   1.779
87177W        W59602  43.407   3.219   0.746
87178W        W59603  13.845   6.107   1.513
87179W        W59604   9.464  30.495   2.729
87180W        W59605  37.947  23.150   2.726
87181W        W59606  27.106  42.906  12.059
87182W        W59607  26.993  40.932  14.675
87183W        W59608   0.533   3.846  12.920
87184W        W59609   1.895  32.174   4.798
87185W        W59610  24.203  35.234   4.508
87186W        W59611  11.356  27.159   3.181
87187W        W59612  19.931  34.566   3.601
87188W        W59613  22.987  16.332  11.445
87189W        W59614   5.280   2.819  14.006
87190W        W59615  36.487  22.443   4.971
87191W        W59616  39.333  32.459   1.851
87192W        W59617  14.263  25.936   2.284
87193W        W59618  20.253  25.360   3.703
87194W        W59619   7.596  31.949  12.923
87195W        W59620  22.145  19.723   1.208
87196W        W59621   2.659  16.272  13.774
87197W        W59622   8.745  34.448  14.885
87198W        W59623  44.481   1.858  13.559
87199W        W59624  24.679  29.029  12.487
87200W        W59625  40.905  29.674   3.224
87201W        W59626  43.109  34.198  14.978
87202W        W59627  12.274  16.845   3.702
87203W        W59628  38.444   7.695   1.670
87204W        W59629  14.220  27.348  12.434
87205W        W59630  31.612  20.268   0.873
87206W        W59631   7.200  16.597   0.805
87207W        W59632  13.183   2.769  12.889
87208W        W59633  43.798  44.892   2.701
87209W        W59634  33.146  33.861  13.803
87210W        W59635  33.951  14.868  12.946
87211W        W59636  11.173  39.917  13.751
87212W        W59637  29.463  13.578  13.445
87213W        W59638  18.417  19.217   5.055
87214W        W59639  44.740  16.024  12.269
87215W        W59640  32.928  35.146  12.987
87216W        W59641  38.617   1.671  14.517
87217W        W59642  33.843   6.918   2.297
87218W        W59643  16.317  39.253   0.448
87219W        W59644  17.833  39.034  13.375
87220W        W59645  34.998   4.414   3.621
87221W        W59646  15.366  28.574  13.382
87222W        W59647   2.242  33.427   1.766
87223W        W59648  10.518   2.396   2.817
87224W        W59649  10.150   0.386   0.382
87225W        W59650  42.786  28.189   4.649
87226W        W59651  14.911   6.704   0.242
87227W        W59652  35.328  42.480   4.159
87228W        W59653   3.288  43.562  13.379
87229W        W59654  17.032  13.271   1.180
87230W        W59655   1.206  39.095  14.948
87231W        W59656  21.401  39.384  13.921
87232W        W59657   2.220  12.101  14.365
87233W        W59658  29.983  28.630  14.836
87234W        W59659   7.260  13.766   2.080
87235W        W59660  13.077  20.051   4.136
87236W        W59661  23.128  19.074   4.460
87237W        W59662  44.493  31.680   5.454
87238W        W59663   2.915  39.972   0.859
87239W        W59664  13.344  20.045  11.820
87240W        W59665   8.209  42.956   4.399
87241W        W59666   7.512  27.530  13.478
87242W        W59667  10.268  15.856   1.182
87243W        W59668   4.845   0.587   9.783
87244W        W59669  30.057  15.309  12.078
87245W        W59670  39.290  42.387   3.773
87246W        W59671  40.438   7.815  14.818
87247W        W59672  28.929  43.207  14.856
87248W        W59673  34.994  41.347   2.594
87249W        W59674  44.375  23.426  13.986
87250W        W59675   2.970  14.304   1.442
87251W        W59676  26.718   4.162  13.867
87252W        W59677   5.606  11.807   3.749
87253W        W59678  15.505   9.399   0.306
87254W        W59679  20.356   1.680  12.980
87255W        W59680  13.668  10.495   0.858
87256W        W59681  12.352  32.478   2.033
87257W        W59682  27.690  21.480   1.117
87258W        W59683   4.588  31.080  13.033
87259W        W59684  24.020  13.168  11.053
87260W        W59685  19.054  24.515  14.464
87261W        W59686  33.844  16.150   0.826
87262W        W59687  40.950  39.434   0.534
87263W        W59688  32.129  38.137   4.673
87264W        W59689  30.119  22.583  12.030
87265W        W59690  36.581   0.897   1.302
87266W        W59691   8.093   0.461   3.589
87267W        W59692  18.118  18.744  10.760
87268W        W59693   1.923  33.921  14.369
87269W        W59694  13.754  44.871   1.785
87270W        W59695  34.622  11.431  12.219
87271W        W59696  19.710  25.827   4.694
87272W        W59697  21.129  21.709  10.022
87273W        W59698  12.935  11.225   3.385
87274W        W59699   5.782  16.817  14.526
87275W        W59700  32.370   2.403  11.576
87276W        W59701   7.233  33.654  12.416
87277W        W59702   4.652  18.158   0.603
87278W        W59703   7.825   7.682   3.301
87279W        W59704   9.668  36.783   3.318
87280W        W59705  32.145   0.326   4.171
87281W        W59706   5.585  15.106   3.863
87282W        W59707  31.616  33.877  13.730
87283W        W59708  25.718  18.185  10.993
87284W        W59709   9.293  39.277   4.827
87285W        W59710  29.910   8.758   0.087
87286W        W59711  28.910  21.664  14.547
87287W        W59712  12.342   4.690  11.097
87288W        W59713  10.823  33.614  13.452
87289W        W59714  34.396   4.656   1.829
87290W        W59715   0.981  15.857   3.198
87291W        W59716  19.480   6.090  11.226
87292W        W59717  18.556  31.159   2.174
87293W        W59718  18.657  42.402   2.250
87294W        W59719  15.126  30.113   2.704
87295W        W59720  44.885  19.465   1.168
87296W        W59721  43.306  22.451   2.155
87297W        W59722  21.515  21.638  10.947
87298W        W59723  21.765  17.300   4.068
87299W        W59724  19.080  21.631   2.733
87300W        W59725   1.239   1.234   2.732
87301W        W59726  28.137  36.464   1.671
87302W        W59727  22.719   5.910   4.236
87303W        W59728  22.492  42.632  13.479
87304W        W59729  13.194  27.875  14.838
87305W        W59730  21.105  35.043   0.868
87306W        W59731  44.416  16.159  13.977
87307W        W59732  24.287  38.359   1.893
87308W        W59733  21.841  21.996  11.710
87309W        W59734  39.240  12.785  13.089
87310W        W59735   5.944  12.063   2.735
87311W        W59736  11.677  13.450  13.815
87312W        W59737  29.916   5.362   0.550
87313W        W59738   5.413   6.555  14.353
87314W        W59739  41.490   2.865   3.261
87315W        W59740  33.753   3.182  10.736
87316W        W59741  37.131  35.131   0.079
87317W        W59742  24.082  10.379  14.752
87318W        W59743   2.314  15.598   4.617
87319W        W59744  44.372  26.372   4.068
87320W        W59745  29.259  35.825   3.321
87321W        W59746  35.844   1.428   4.279
87322W        W59747  17.792  40.244   2.270
87323W        W59748  34.817  19.271  10.700
87324W        W59749  42.970  19.548  14.875
87325W        W59750   0.445  36.555   2.372
87326W        W59751   2.487   5.484  12.112
87327W        W59752   9.201   8.430  12.625
87328W        W59753  37.987  33.985  13.531
87329W        W59754  25.669   2.911   3.627
87330W        W59755   8.408  27.442   2.832
87331W        W59756   1.830  28.357   1.286
87332W        W59757  30.595  36.320  11.191
87333W        W59758  36.009  42.627  12.485
87334W        W59759  27.731  16.879  14.404
87335W        W59760  30.447  31.095  13.815
87336W        W59761  21.715   1.351   1.222
87337W        W59762  13.759   0.457  13.551
87338W        W59763  11.839  25.991   0.543
87339W        W59764  20.620   9.821  14.518
87340W        W59765  16.971  28.125   3.144
87341W        W59766  20.662  11.261   2.833
87342W        W59767  34.624   3.893  11.596
87343W        W59768  22.571  37.423   2.102
87344W        W59769  10.445  42.260   2.628
87345W        W59770  37.822  17.383   3.525
87346W        W59771  25.895  21.444   0.056
87347W        W59772  43.980  35.141   3.810
87348W        W59773  39.041   6.203   1.490
87349W        W59774  37.054  14.538  12.941
87350W        W59775   6.824  21.419  13.921
87351W        W59776  27.742  26.388  10.683
87352W        W59777  22.476  20.970  14.901
87353W        W59778  43.992  14.200   1.143
87354W        W59779  28.438  12.579  11.075
87355W        W59780  11.465   9.896   4.635
87356W        W59781  18.679  42.419   3.616
87357W        W59782  35.863  41.362   3.603
87358W        W59783  31.800  42.932  14.316
87359W        W59784  41.249   4.771  11.089
87360W        W59785  29.351  28.053   2.641
87361W        W59786  28.397  25.016   0.880
87362W        W59787  21.010  15.733   2.400
87363W        W59788  22.144  34.138  13.294
87364W        W59789  33.721  14.113   2.691
87365W        W59790  14.228  25.545  11.967
87366W        W59791  22.754  21.054   0.330
87367W        W59792   9.713   0.471  10.700
87368W        W59793  30.648  21.612  10.279
87369W        W59794  19.183  44.256   1.193
87370W        W59795  35.129  28.195   5.055
87371W        W59796  43.465  43.195  11.510
87372W        W59797  13.744  10.675   4.293
87373W        W59798  27.339  10.413   4.037
87374W        W59799  18.833  19.730  11.665
87375W        W59800  31.613  20.848  12.171
87376W        W59801  42.840  10.182   0.684
87377W        W59802  20.511  27.491   2.154
87378W        W59803   9.809   3.183  11.693
87379W        W59804  13.548  22.881  13.666
87380W        W59805  13.499  27.350   1.994
87381W        W59806  18.152   5.016   4.699
87382W        W59807   3.371   3.006  14.400
87383W        W59808  22.253  22.024  11.414
87384W        W59809  26.911  30.935  14.940
87385W        W59810  37.990  44.767   2.831
87386W        W59811  38.897  25.625   4.233
87387W        W59812  23.618  17.507   1.499
87388W        W59813  23.029  39.446  12.984
87389W        W59814   0.372  34.464  11.615
87390W        W59815  18.571  36.455  14.985
87391W        W59816  31.066  32.855   0.135
87392W        W59817  27.156  27.563   4.078
87393W        W59818   4.288   7.768   1.064
87394W        W59819  26.476  22.985  10.987
87395W        W59820  17.840   5.417   2.785
87396W        W59821   9.913  31.385   0.361
87397W        W59822   3.779  38.903  12.409
87398W        W59823   7.161  10.885  11.587
87399W        W59824  11.851   6.320  10.025
87400W        W59825  21.294  43.202  14.804
87401W        W59826  43.977   8.884  13.855
87402W        W59827  36.316   1.874   3.820
87403W        W59828  31.016  44.782  11.843
87404W        W59829  37.938  21.304  10.965
87405W        W59830  31.913   9.512  13.748
87406W        W59831  22.983  39.564   3.747
87407W        W59832  20.799  21.448  13.499
87408W        W59833  21.757   2.926   0.385
87409W        W59834  25.527  21.729  12.942
87410W        W59835  24.669  42.762  11.027
87411W        W59836   4.715   5.962  11.198
87412W        W59837  33.148  22.654   5.032
87413W        W59838  21.627  44.047   4.950
87414W        W59839  22.449  23.665  14.370
87415W        W59840   7.227  27.927  14.931
87416W        W59841  34.505   5.164   3.896
87417W        W59842  32.391  32.929   1.387
87418W        W59843  19.348  35.035   0.292
87419W        W59844  23.610   3.607   3.695
87420W        W59845  44.011  38.437  11.663
87421W        W59846  25.504   1.602  13.695
87422W        W59847   2.461  32.848   4.347
87423W        W59848  31.359  36.935  14.534
87424W        W59849  13.975  13.557   0.776
87425W        W59850   6.242  11.055   1.026
87426W        W59851  34.811  42.413   1.351
87427W        W59852  22.360  37.733  10.685
87428W        W59853  13.807  19.268   1.024
87429W        W59854   8.375  42.176  13.518
87430W        W59855  27.524  30.142   4.631
87431W        W59856  10.397  36.575   1.707
87432W        W59857  36.751  42.501   3.741
87433W        W59858   3.031  21.163   4.188
87434W        W59859   0.059  42.442  11.479
87435W        W59860  22.747  25.601  11.124
87436W        W59861  38.956  20.982   2.254
87437W        W59862  25.222  41.318   4.265
87438W        W59863   2.787   1.970  10.428
87439W        W59864   1.640  12.952  12.146
87440W        W59865  13.228  34.537   2.962
87441W        W59866  27.281  30.122   2.548
87442W        W59867   6.848   3.257  11.145
87443W        W59868  14.238   0.193   0.280
87444W        W59869  38.285  22.652   1.298
87445W        W59870   1.888  38.278  13.811
87446W        W59871  13.665  28.216   4.132
87447W        W59872  27.608  30.447  10.583
87448W        W59873   4.022   4.845  14.371
87449W        W59874   8.705  22.119  12.348
87450W        W59875  30.390  37.841   3.266
87451W        W59876   3.287   0.413   3.910
87452W        W59877  15.658   1.535   4.886
87453W        W59878  37.343  32.656  10.618
87454W        W59879  22.851   0.951  14.933
87455W        W59880  22.584  18.168   2.201
87456W        W59881  29.188  30.423   3.718
87457W        W59882  23.960  34.551  14.803
87458W        W59883  43.173  15.130  10.717
87459W        W59884  10.057  30.584   2.279
87460W        W59885  36.834  34.134   2.297
87461W        W59886   7.236  43.886   4.173
87462W        W59887  31.813  19.516  13.498
87463W        W59888  17.594  29.910  13.458
87464W        W59889   5.503   6.791   1.543
87465W        W59890  25.031  24.937  13.531
87466W        W59891  30.495  13.511  14.023
87467W        W59892   7.756  13.270  11.969
87468W        W59893   2.802  29.904   3.158
87469W        W59894  13.823   2.558  11.582
87470W        W59895  28.072  41.583  11.653
87471W        W59896  10.798  26.601  13.367
87472W        W59897   3.731  15.665   1.295
87473W        W59898   1.688   9.121   2.971
87474W        W59899  29.480  44.186   1.244
87475W        W59900  10.407  36.146   4.837
87476W        W59901  13.847  16.212  12.198
87477W        W59902  15.790   6.715   1.710
87478W        W59903  15.436  29.666  11.977
87479W        W59904  35.161  16.963   4.510
87480W        W59905  14.677  36.191  11.572
87481W        W59906   3.070  29.396   5.090
87482W        W59907   8.768   7.880  10.969
87483W        W59908  15.281  40.803   4.814
87484W        W59909  14.248   2.466  13.533
87485W        W59910  15.240  24.001   2.735
87486W        W59911  23.112  42.460   3.707
87487W        W59912   3.861  34.213   4.250
87488W        W59913   5.187  25.016   0.817
87489W        W59914  19.455   6.882  14.374
87490W        W59915  21.819   4.172   3.062
87491W        W59916   4.557  43.966  11.206
87492W        W59917  20.572  27.854  11.048
87493W        W59918  11.604  42.773   4.650
87494W        W59919  27.270  39.284   3.315
87495W        W59920  44.946  44.760   1.751
87496W        W59921  10.619  40.479   1.618
87497W        W59922  41.717  18.228  14.830
87498W        W59923  23.236  26.996   1.316
87499W        W59924  24.101   9.906   5.157
87500W        W59925  43.931  34.849   4.694
87501W        W59926  24.441   5.199   4.169
87502W        W59927   0.651  25.572   1.878
87503W        W59928   1.426   5.348  11.486
87504W        W59929  23.990  14.235   0.428
87505W        W59930  24.431  25.497   4.689
87506W        W59931  10.372  18.034   0.188
87507W        W59932  27.422  30.345   0.740
87508W        W59933  22.186   6.281   1.757
87509W        W59934  18.602   2.709  14.074
87510W        W59935  36.861  12.591   4.540
87511W        W59936  28.432   0.438   0.392
87512W        W59937   7.997  22.483  11.623
87513W        W59938  31.288  13.853  13.772
87514W        W59939  42.965  17.835  10.666
87515W        W59940   5.490  18.134   4.435
87516W        W59941  30.474  37.801  13.799
87517W        W59942  27.029   8.730   1.859
87518W        W59943  16.523  38.663   1.692
87519W        W59944  44.056  10.839  14.789
87520W        W59945  29.858   1.623   2.617
87521W        W59946  32.583  16.571  12.568
87522W        W59947  38.267  10.353   3.718
87523W        W59948  15.852  14.046   4.884
87524W        W59949   4.902  10.134   2.745
87525W        W59950  43.525  10.843  13.363
87526W        W59951  37.127  19.234  10.989
87527W        W59952  14.722  28.032   1.734
87528W        W59953  25.580  35.454  14.818
87529W        W59954  38.584  17.573  11.693
87530W        W59955  15.067  43.033   0.358
87531W        W59956  15.178  20.354   4.358
87532W        W59957  28.126  32.046   3.689
87533W        W59958  25.770  28.295  14.592
87534W        W59959  41.660  21.002   5.037
87535W        W59960   3.965   0.352  12.052
87536W        W59961  11.708  26.641   1.362
87537W        W59962  31.926  23.220  14.479
87538W        W59963  32.760  24.650   3.209
87539W        W59964   3.296  25.582  10.772
87540W        W59965  39.024  24.746   0.755
87541W        W59966  20.003  11.903  14.313
87542W        W59967  29.526   3.844   4.293
87543W        W59968  23.042  21.122  14.012
87544W        W59969  28.190  40.583   5.126
87545W        W59970  40.278   3.288   3.601
87546W        W59971  23.098  44.281   3.855
87547W        W59972  19.129   0.377   4.166
87548W        W59973  24.406  42.797  10.183
87549W        W59974  35.224  30.677  12.835
87550W        W59975  18.995  36.919   0.480
87551W        W59976  19.868  41.955   5.103
87552W        W59977   3.208   4.561  10.150
87553W        W59978   4.337  43.523  10.913
87554W        W59979   4.751  10.102  13.091
87555W        W59980  19.699  20.558   2.284
87556W        W59981  12.797   3.800  10.645
87557W        W59982  43.805  22.157  11.564
87558W        W59983  17.065   8.667  12.250
87559W        W59984  27.518  11.257  10.694
87560W        W59985  34.755  28.918   2.362
87561W        W59986  36.458  20.157   0.141
87562W        W59987   9.302  35.851  11.157
87563W        W59988  41.977   5.398  12.506
87564W        W59989  26.588   1.894  12.725
87565W        W59990   6.474  23.142   0.731
87566W        W59991  39.779   3.333  12.973
87567W        W59992  39.995  36.930   4.486
87568W        W59993  37.023   2.733  13.364
87569W        W59994   5.468  32.036  13.131
87570W        W59995   6.705  43.035  10.801
87571W        W59996  19.915  26.459  10.653
87572W        W59997   1.049  36.381   3.260
87573W        W59998  14.593  13.310   1.977
87574W        W59999   8.345  37.388  14.529
87575W        W60000  10.787  18.610  12.533
87576W        W60001   1.700   9.851   4.794
87577W        W60002  34.432  14.205  11.673
87578W        W60003  21.674  34.107  13.050
87579W        W60004  26.744  12.659  11.031
87580W        W60005   5.431  31.925  10.148
87581W        W60006  39.154  18.015   0.752
87582W        W60007  15.976  12.068  11.804
87583W        W60008   2.751  34.512   1.549
87584W        W60009  11.628  14.573   4.222
87585W        W60010  10.925  17.908   4.678
87586W        W60011  29.112  17.509  11.607
87587W        W60012  15.301  29.502  14.703
87588W        W60013  22.564  15.140   1.357
87589W        W60014   9.318   1.448   4.412
87590W        W60015  31.634  23.223   4.655
87591W        W60016   1.807   3.429  14.367
87592W        W60017  43.133   9.379   0.134
87593W        W60018  27.134  12.389   3.551
87594W        W60019  17.629   1.701  13.169
87595W        W60020  11.141  39.950   2.200
87596W        W60021   2.380  25.222   2.196
87597W        W60022   0.927  19.202   2.635
87598W        W60023  30.670  10.081  14.422
87599W        W60024  27.519  30.879   2.227
87600W        W60025  12.398  12.084   0.772
87601W        W60026  18.994  40.744  11.128
87602W        W60027  14.512  19.263  11.166
87603W        W60028  41.569  12.338   3.164
87604W        W60029  37.042  34.349  14.528
87605W        W60030   1.772  44.486  14.975
87606W        W60031  15.294  28.116  14.973
87607W        W60032  31.846  34.300  13.932
87608W        W60033  40.377  39.429   0.464
87609W        W60034   4.272  17.619  13.454
87610W        W60035  14.176  19.651   3.724
87611W        W60036  16.549  17.201   3.244
87612W        W60037  11.672  17.038  11.760
87613W        W60038  32.030  14.179  13.558
87614W        W60039   9.140  22.293  11.078
87615W        W60040  41.716  35.754   0.293
87616W        W60041  12.060  42.894  13.072
87617W        W60042  31.752  43.788  14.423
87618W        W60043   6.455  25.564   3.886
87619W        W60044  27.048  32.069  10.987
87620W        W60045  29.215  18.594   3.016
87621W        W60046  24.601   9.968   4.867
87622W        W60047  41.561  29.953  11.173
87623W        W60048  25.188   0.000   4.568
87624W        W60049  18.806   0.313  14.528
87625W        W60050  12.238   4.868   3.736
87626W        W60051   2.888  35.344  11.899
87627W        W60052   3.138  10.775   2.653
87628W        W60053  20.232  20.970  11.154
87629W        W60054  24.059  32.040   0.951
87630W        W60055  23.269  40.164   4.132
87631W        W60056  36.317  36.515   4.125
87632W        W60057  23.514  31.054   2.907
87633W        W60058  25.773  14.051  14.045
87634W        W60059  26.365  37.292   2.819
87635W        W60060   7.784   4.667   1.718
87636W        W60061   3.703   1.669  12.041
87637W        W60062  35.878  16.840  12.099
87638W        W60063  28.480  12.918   0.686
87639W        W60064  20.092  18.280  11.985
87640W        W60065  37.273  33.971  12.365
87641W        W60066  36.895   7.761   0.533
87642W        W60067   8.973  27.872  14.769
87643W        W60068  13.440  22.630   3.179
87644W        W60069  35.376  36.435   0.016
87645W        W60070  33.376  17.743   2.752
87646W        W60071  15.605  37.025  10.458
87647W        W60072  20.820  33.522   3.165
87648W        W60073  27.217  43.734   3.290
87649W        W60074  28.652  15.717   4.053
87650W        W60075  35.783  24.133   3.186
87651W        W60076  40.069  18.588   4.182
87652W        W60077   6.860  23.529  12.939
87653W        W60078   1.985  39.562   3.573
87654W        W60079   0.445  36.300  11.530
87655W        W60080  28.653  39.093  11.210
87656W        W60081  10.250  44.340   2.784
87657W        W60082  16.301   9.613   2.113
87658W        W60083  42.725  19.673  13.028
87659W        W60084  44.323  35.652   2.590
87660W        W60085  29.654  41.891  12.158
87661W        W60086  22.221   1.305   1.279
87662W        W60087  36.467  35.826  14.692
87663W        W60088  43.373   6.472  10.685
87664W        W60089  40.009  25.728  11.588
87665W        W60090  40.008  32.434   2.404
87666W        W60091  10.249  15.690   4.138
87667W        W60092  35.097  24.081  12.424
87668W        W60093  10.827   2.270  10.940
87669W        W60094  35.540  37.411   2.598
87670W        W60095  28.609  38.903   2.400
87671W        W60096  10.327  13.267  14.291
87672W        W60097  22.020  41.529   0.706
87673W        W60098  40.515  33.946  11.441
87674W        W60099  29.400  33.528  13.923
87675W        W60100  22.303   7.072  10.564
87676W        W60101   9.130  25.251  11.187
87677W        W60102  28.664   4.335   0.362
87678W        W60103  24.873  29.150  11.042
87679W        W60104  17.776  26.175  11.024
87680W        W60105  25.695  32.836   2.362
87681W        W60106  26.922  18.171  11.777
87682W        W60107  34.556  22.477  11.894
87683W        W60108  42.800  36.048  11.156
87684W        W60109  41.906  20.472   3.758
87685W        W60110   5.173   3.676  10.624
87686W        W60111  27.936  13.363  10.651
87687W        W60112   9.269  11.172  10.894
87688W        W60113  13.903  15.894  13.542
87689W        W60114   9.147  30.418   2.312
87690W        W60115  31.498   6.474  13.532
87691W        W60116  44.319  18.243  14.034
87692W        W60117  21.741  14.549  12.309
87693W        W60118  16.090  27.237  11.125
87694W        W60119  20.602   9.270  12.370
87695W        W60120   1.083  12.177  12.375
87696W        W60121   0.676  10.299   4.550
87697W        W60122  11.104  34.328  14.849
87698W        W60123  38.527   2.449   2.701
87699W        W60124  35.802  42.034   2.230
87700W        W60125  33.990   2.659   3.162
87701W        W60126   4.719  27.208  12.903
87702W        W60127  25.715  29.617  11.080
87703W        W60128  34.893  31.185  11.599
87704W        W60129  28.552  28.446   4.169
87705W        W60130   1.470  21.574   4.672
87706W        W60131  14.003   1.025   3.218
87707W        W60132  31.072  34.501  12.869
87708W        W60133  37.136  24.642   3.547
87709W        W60134  16.513  39.055  13.978
87710W        W60135  42.287   8.847  11.610
87711W        W60136  17.179  21.652   1.938
87712W        W60137  19.014  36.898  12.410
87713W        W60138  41.388  27.570   0.240
87714W        W60139   0.250  42.704  12.828
87715W        W60140  18.812  39.056  12.499
87716W        W60141  38.892   3.879   1.348
87717W        W60142  22.602  23.487  13.527
87718W        W60143  37.135  18.248   1.871
87719W        W60144  25.133  29.143  14.305
87720W        W60145  30.957  38.061   1.183
87721W        W60146  30.533  32.072   1.858
87722W        W60147  33.097  14.085  10.996
87723W        W60148  38.754  32.488   2.793
87724W        W60149   8.379  34.901   0.731
87725W        W60150  30.133  28.182   0.747
87726W        W60151  25.570  19.451   2.108
87727W        W60152  44.760  34.038  10.119
87728W        W60153   2.844  44.253   3.818
87729W        W60154  40.395  20.503   2.459
87730W        W60155   3.751  14.170   4.207
87731W        W60156  28.549  22.300   2.801
87732W        W60157  26.982  33.983   4.374
87733W        W60158   4.723  14.009   5.085
87734W        W60159  35.555   7.422   2.369
87735W        W60160  16.465  23.203   0.464
87736W        W60161  38.990  12.643   1.265
87737W        W60162  20.266   6.404   2.194
87738W        W60163  43.570  16.324   1.990
87739W        W60164  26.696  35.923  10.702
87740W        W60165   8.524  15.731  13.484
87741W        W60166  30.145   5.177   3.766
87742W        W60167   1.453  18.072   1.824
87743W        W60168  13.106   4.768   0.976
87744W        W60169  19.759  18.146  12.393
87745W        W60170   5.843  33.873  12.624
87746W        W60171  39.506  44.832  13.976
87747W        W60172  30.283  40.988  13.113
87748W        W60173  43.817  29.707   2.844
87749W        W60174  15.573   4.344   1.411
87750W        W60175   6.505  20.027   2.519
87751W        W60176  15.480  38.353   3.655
87752W        W60177  20.172  42.938  14.150
87753W        W60178  16.222   9.982  13.394
87754W        W60179  41.680   2.397   4.888
87755W        W60180  24.217  25.533  12.018
87756W        W60181   1.885  40.727  10.772
87757W        W60182  18.523  15.830  10.826
87758W        W60183   4.337   2.149  11.477
87759W        W60184  21.384  23.197  11.168
87760W        W60185  20.041   3.982   1.197
87761W        W60186  33.455  13.912  14.786
87762W        W60187  10.385  36.888  12.070
87763W        W60188  42.527   2.722  13.492
87764W        W60189   2.838   2.664  13.070
87765W        W60190  24.831  39.857   1.858
87766W        W60191  24.658   8.198   3.293
87767W        W60192  21.865  33.131   4.522
87768W        W60193  34.335  44.904  12.789
87769W        W60194  39.975   9.599   3.202
87770W        W60195  10.256  32.109  12.065
87771W        W60196   2.199  31.125  13.469
87772W        W60197  12.691  20.022  12.960
87773W        W60198   8.406  15.886  13.996
87774W        W60199   9.884  22.551  11.444
87775W        W60200  15.266  43.874   4.410
87776W        W60201  22.712   1.436   1.322
87777W        W60202  14.892   1.759   4.439
87778W        W60203   4.566  39.342  10.722
87779W        W60204  27.877  28.200   2.778
87780W        W60205  39.799  26.452  11.102
87781W        W60206  33.986  40.118   4.935
87782W        W60207  44.560  12.697   3.121
87783W        W60208  32.576  21.659   4.084
87784W        W60209   0.385   1.685   3.516
87785W        W60210   9.284  13.185   0.937
87786W        W60211  12.203   1.983   2.725
87787W        W60212   9.541   3.322  14.598
87788W        W60213  43.295  24.570   0.766
87789W        W60214  25.126  35.828   4.601
87790W        W60215  29.409  35.175   3.731
87791W        W60216  36.968   4.458  11.816
87792W        W60217  30.132   2.182   1.426
87793W        W60218  16.159  13.337   1.303
87794W        W60219  31.769  35.866  12.707
87795W        W60220  34.898   3.402  14.434
87796W        W60221  30.649  32.367   4.970
87797W        W60222  24.560  21.212  14.069
87798W        W60223   3.339   4.301   1.027
87799W        W60224  31.575  44.421   1.304
87800W        W60225  10.198  10.787  11.628
87801W        W60226   5.068  27.999  12.391
87802W        W60227  22.726  33.248   2.252
87803W        W60228  27.092   6.943   3.142
87804W        W60229  43.432   3.872   1.484
87805W        W60230  33.559  40.383   4.372
87806W        W60231   9.910  32.677   2.130
87807W        W60232  22.493  19.139   2.146
87808W        W60233  14.745  31.815   4.116
87809W        W60234   3.089  17.784   1.759
87810W        W60235   8.141  31.135  10.887
87811W        W60236  18.013  25.478   4.039
87812W        W60237  36.771  30.001   4.600
87813W        W60238   2.402  41.093   2.022
87814W        W60239  14.222  18.055   0.369
87815W        W60240   1.041  19.032   1.316
87816W        W60241  11.653   0.406   0.896
87817W        W60242  22.050  11.124  11.975
87818W        W60243  40.647  24.498   1.391
87819W        W60244  10.821   5.797   4.513
87820W        W60245  34.871  42.758  10.429
87821W        W60246   1.019   6.167   5.073
87822W        W60247  36.407   9.211   0.827
87823W        W60248  29.026  36.137   1.263
87824W        W60249  22.173  13.737   4.140
87825W        W60250  18.352  33.642  14.430
87826W        W60251  37.858  14.092  10.663
87827W        W60252  13.512   3.772  11.304
87828W        W60253  34.960  28.737   4.291
87829W        W60254   9.116  31.878  12.966
87830W        W60255   3.714  15.777   4.576
87831W        W60256  32.829  26.257  10.961
87832W        W60257  21.537  30.351   2.810
87833W        W60258  37.705   9.209   1.466
87834W        W60259  23.144  15.436  10.532
87835W        W60260  30.120   9.822  10.788
87836W        W60261  26.423  32.006  14.942
87837W        W60262   3.419  28.047  14.410
87838W        W60263  24.067  31.575   3.989
87839W        W60264  41.333   9.686   2.889
87840W        W60265   7.939  19.536  12.679
87841W        W60266  34.070  32.084  12.918
87842W        W60267  40.867  22.679  10.389
87843W        W60268  31.432  16.007   0.863
87844W        W60269   0.377  33.066  10.624
87845W        W60270  38.422  42.872   2.674
87846W        W60271  27.174  28.838   3.668
87847W        W60272   1.658  30.764   4.425
87848W        W60273   6.202  14.790   3.216
87849W        W60274  14.317  22.158  11.092
87850W        W60275  18.097  35.414   2.339
87851W        W60276  24.355  25.732  12.491
87852W        W60277  28.609   8.665   1.736
87853W        W60278  36.441  27.297   0.388
87854W        W60279  13.996  38.337   1.747
87855W        W60280  37.114  32.779   3.549
87856W        W60281  24.902   6.203  13.966
87857W        W60282  29.368  38.837  13.442
87858W        W60283  15.387  30.611   3.711
87859W        W60284   8.424  29.693  13.448
87860W        W60285  22.531   9.134   0.251
87861W        W60286  12.233  41.368  14.528
87862W        W60287  36.614  35.980   3.914
87863W        W60288  35.029  37.529   1.838
87864W        W60289   7.042  43.830   3.128
87865W        W60290  37.784  34.690   3.552
87866W        W60291  35.299  36.507  13.093
87867W        W60292  15.219  17.776   4.073
87868W        W60293  11.826  26.252   5.166
87869W        W60294  16.586  40.836  14.208
87870W        W60295  16.688  38.396  14.233
87871W        W60296   5.800  18.342   2.096
87872W        W60297  32.412   4.084  11.130
87873W        W60298  42.795  19.233   1.904
87874W        W60299  29.587  25.041  13.961
87875W        W60300  15.656  32.306  14.494
87876W        W60301   9.859   9.374   1.320
87877W        W60302  22.888  37.089   4.235
87878W        W60303  33.434   4.778   2.031
87879W        W60304  12.956  33.214   0.789
87880W        W60305  17.723  18.263  13.756
87881W        W60306  26.333  41.804  11.544
87882W        W60307  21.239  32.079  14.528
87883W        W60308  11.962  11.813  12.044
87884W        W60309  21.075   3.742   0.381
87885W        W60310  25.231  29.657  10.186
87886W        W60311  19.048  17.586  12.197
87887W        W60312  33.170  27.542  10.375
87888W        W60313  14.651  19.505  14.422
87889W        W60314  24.716  25.821  13.439
87890W        W60315  44.050  29.518  11.197
87891W        W60316  29.675   9.783   1.567
87892W        W60317  30.511  44.401  12.859
87893W        W60318   6.638  22.293  12.088
87894W        W60319  25.498  19.394   3.713
87895W        W60320  22.586  35.465  10.524
87896W        W60321  19.180   5.131   0.343
87897W        W60322  28.008  32.320   3.242
87898W        W60323  32.605   0.965   3.684
87899W        W60324   4.967   8.657   4.096
87900W        W60325  15.472  42.757   0.165
87901W        W60326   7.753  40.956   0.178
87902W        W60327  31.920  13.878   1.851
87903W        W60328   9.391   8.232  13.526
87904W        W60329  12.436  44.103   4.118
87905W        W60330  13.883   6.582  11.062
87906W        W60331  35.067  34.059   1.024
87907W        W60332  42.614  32.530   5.017
87908W        W60333  44.007   5.754   0.748
87909W        W60334  25.790  42.645  12.972
87910W        W60335  40.900  33.858  13.234
87911W        W60336   1.865  38.879  10.623
87912W        W60337  35.004   5.470  10.674
87913W        W60338  25.561  11.845  11.076
87914W        W60339  13.554  44.946  13.903
87915W        W60340  32.674  15.081  14.462
87916W        W60341  13.081   8.764   0.487
87917W        W60342  10.397   5.715  13.459
87918W        W60343   2.781   9.385   1.928
87919W        W60344  28.039  24.985  11.974
87920W        W60345   9.919  31.122   2.225
87921W        W60346  31.136  40.988  13.402
87922W        W60347   6.999  41.775  12.043
87923W        W60348  19.499  39.391  14.939
87924W        W60349  26.008  16.657  10.429
87925W        W60350  34.753  22.201  12.547
87926W        W60351  41.807  10.424  11.615
87927W        W60352  43.759   1.419  13.144
87928W        W60353  39.885  30.716  12.072
87929W        W60354   3.394  24.170  12.493
87930W        W60355   0.439  29.207  13.824
87931W        W60356  25.710  39.111  11.858
87932W        W60357  28.153   9.299   0.454
87933W        W60358  39.891  35.347   2.081
87934W        W60359  27.738  44.387   3.523
87935W        W60360  40.510  32.637   1.296
87936W        W60361  25.070  43.420   2.292
87937W        W60362  31.868  11.805  12.406
87938W        W60363  33.590  14.783   3.165
87939W        W60364  19.006  14.197   3.458
87940W        W60365  24.540  16.054   2.284
87941W        W60366   2.306  29.110   0.401
87942W        W60367  33.893  26.513  13.748
87943W        W60368  35.562  18.998   2.792
87944W        W60369  11.233   8.842   4.188
87945W        W60370  31.162  26.580   0.024
87946W        W60371  18.757  16.146  12.412
87947W        W60372  13.559  12.860  10.744
87948W        W60373   3.749  23.340  10.933
87949W        W60374  38.971  24.701  14.264
87950W        W60375  21.343  23.768   4.155
87951W        W60376  35.522  22.532   2.358
87952W        W60377  30.609  26.739   2.753
87953W        W60378  37.031  42.272  10.704
87954W        W60379  10.267  15.339   1.243
87955W        W60380  28.946  26.584  12.764
87956W        W60381  16.358  30.470   4.894
87957W        W60382  43.014  17.185  13.012
87958W        W60383   7.731  22.099  12.602
87959W        W60384  32.952  15.095   1.141
87960W        W60385   4.714  17.201   3.353
87961W        W60386  29.990  10.874   1.611
87962W        W60387   7.811  31.272   0.252
87963W        W60388  27.852  31.434  10.175
87964W        W60389  11.177  32.564  10.688
87965W        W60390   3.755  25.657  10.978
87966W        W60391  18.390  24.663   3.206
87967W        W60392  23.551  40.514  12.637
87968W        W60393  34.843  41.309   3.570
87969W        W60394  44.345   8.728   1.251
87970W        W60395  25.253  17.708  14.952
87971W        W60396  41.533  27.992   4.875
87972W        W60397  11.859   3.002   2.733
87973W        W60398  11.373   5.510   3.330
87974W        W60399  41.943  31.124   2.158
87975W        W60400   8.207   9.212   2.224
87976W        W60401  39.284  18.671   2.313
87977W        W60402  39.300  26.526   1.355
87978W        W60403  17.574  13.653  10.999
87979W        W60404  37.799  44.026  13.017
87980W        W60405  19.078  37.547  12.837
87981W        W60406  24.376  31.984  13.958
87982W        W60407  33.567  17.680  12.528
87983W        W60408  11.285  34.614   0.288
87984W        W60409  24.348  28.593  11.768
87985W        W60410   3.332  32.659   4.476
87986W        W60411  29.771   7.775  14.295
87987W        W60412  31.908   6.197  13.378
87988W        W60413  40.230  32.475  11.108
87989W        W60414  41.409  26.689   0.809
87990W        W60415   9.448  23.563   2.669
87991W        W60416  19.740  44.370  11.181
87992W        W60417  31.051   8.657  12.475
87993W        W60418  25.984   5.855  14.313
87994W        W60419   5.054  20.334   4.245
87995W        W60420  23.888   2.316  11.610
87996W        W60421  27.885   2.847  11.243
87997W        W60422   5.025  10.388   2.305
87998W        W60423  38.020  21.655  10.558
87999W        W60424  24.627   2.010  13.591
88000W        W60425  38.020   7.711  12.685
88001W        W60426  33.236  43.926  11.478
88002W        W60427  23.069  16.530   4.240
88003W        W60428  27.475  10.136  14.763
88004W        W60429  39.478   6.614  13.240
88005W        W60430  13.357  24.207  12.393
88006W        W60431   1.849  14.687   0.904
88007W        W60432  32.109  26.473  12.523
88008W        W60433  44.265  38.477  13.968
88009W        W60434   8.678   8.766  14.388
88010W        W60435  27.538   2.958   0.421
88011W        W60436   4.477   7.949   4.749
88012W        W60437   0.796  13.254  13.516
88013W        W60438  34.486  36.278   3.219
88014W        W60439  37.720  23.614   2.804
88015W        W60440  43.365  23.740   1.248
88016W        W60441  34.121   4.962  10.561
88017W        W60442  16.778  17.634  13.575
88018W        W60443  22.162   5.744  11.563
88019W        W60444   0.306  36.001  12.221
88020W        W60445   1.882  27.033  12.549
88021W        W60446  21.166  20.921  10.308
88022W        W60447  19.026  38.095   0.455
88023W        W60448   2.923  10.891  12.004
88024W        W60449   9.753  16.353   1.731
88025W        W60450  20.934  28.415   4.531
88026W        W60451   5.724  13.765   2.257
88027W        W60452  44.460  34.431   3.665
88028W        W60453  40.831   6.480  12.580
88029W        W60454  44.203  15.699  13.826
88030W        W60455  14.819  43.337  12.049
88031W        W60456  35.857  29.498   4.306
88032W        W60457   6.600  29.984  13.445
88033W        W60458  42.825  14.729   3.425
88034W        W60459  13.279  35.721  12.347
88035W        W60460   0.621  29.989  13.434
88036W        W60461   3.890  29.888  11.087
88037W        W60462   5.881  24.743  11.534
88038W        W60463  37.149  13.478  10.770
88039W        W60464  19.354   1.832   4.739
88040W        W60465   8.613  38.428   2.119
88041W        W60466  41.365  29.161  14.211
88042W        W60467  39.308  30.102  14.960
88043W        W60468  28.315  25.625  12.441
88044W        W60469   6.037   3.721  12.544
88045W        W60470  35.744  19.562  13.453
88046W        W60471   3.614  41.388  14.489
88047W        W60472  39.971  12.267  10.449
88048W        W60473  25.714  37.289  11.183
88049W        W60474  31.353   6.180  12.495
88050W        W60475  40.773  35.506   4.231
88051W        W60476  39.250  23.739  12.409
88052W        W60477  19.532   9.814   2.775
88053W        W60478  27.979  38.806  13.803
88054W        W60479  15.470  32.905   1.741
88055W        W60480  30.551   2.741  13.465
88056W        W60481  42.956  41.944  13.062
88057W        W60482  39.808  31.567  14.019
88058W        W60483  10.531  33.421  14.933
88059W        W60484  23.713  17.783   3.305
88060W        W60485  32.846  37.919   1.242
88061W        W60486  25.608  31.942  10.671
88062W        W60487  17.136   0.768  10.955
88063W        W60488   8.311  27.914  11.763
88064W        W60489  44.736  27.629  12.397
88065W        W60490  43.506   4.415   4.250
88066W        W60491   2.610  27.710   0.242
88067W        W60492  23.654  39.787  10.770
88068W        W60493  17.725  32.603   2.985
88069W        W60494  37.059  44.270  10.681
88070W        W60495  18.315  33.409  11.067
88071W        W60496  14.884  37.332   4.386
88072W        W60497   4.712   1.033   3.135
88073W        W60498  33.833  33.634  13.266
88074W        W60499   1.059  17.662   1.307
88075W        W60500   6.697  11.422   2.836
88076W        W60501  44.011   4.337   2.260
88077W        W60502  23.185  16.336  14.739
88078W        W60503   2.754  30.508  13.768
88079W        W60504  42.464   5.750  13.583
88080W        W60505  26.559  11.690   4.069
88081W        W60506  44.293   5.680  13.164
88082W        W60507   5.162  14.422   1.850
88083W        W60508  21.042  30.085   0.460
88084W        W60509  14.476  31.186   2.409
88085W        W60510  27.260   6.220  12.602
88086W        W60511  29.611  34.856   0.965
88087W        W60512  39.242   4.619   4.037
88088W        W60513  15.748  40.943  11.069
88089W        W60514  29.090  22.156   0.910
88090W        W60515  18.253   6.370  13.137
88091W        W60516   8.435   0.298   4.526
88092W        W60517  17.554  34.099   2.356
88093W        W60518   7.291  34.192  12.382
88094W        W60519  19.997  33.064  13.123
88095W        W60520   7.964  38.898  14.458
88096W        W60521  16.096  31.985   2.712
88097W        W60522   3.868  18.301  12.091
88098W        W60523  10.699  27.102  13.300
88099W        W60524  34.521  11.696  10.728
88100W        W60525  32.305  16.404   1.382
88101W        W60526  26.656   3.337   0.828
88102W        W60527   2.312   7.252   2.801
88103W        W60528  28.961  32.521  11.976
88104W        W60529  11.154  20.646   3.634
88105W        W60530  40.591  17.510   0.281
88106W        W60531  34.714   2.722  14.840
88107W        W60532  23.634  28.859   1.110
88108W        W60533  31.849  20.303  11.441
88109W        W60534  20.669  27.086   1.408
88110W        W60535   0.774  39.588  13.480
88111W        W60536  15.108  28.384  13.762
88112W        W60537  34.951   8.328   5.056
88113W        W60538  12.514   0.406   4.005
88114W        W60539  30.161  24.936  13.869
88115W        W60540  10.131   8.163  14.859
88116W        W60541  39.532   3.554   2.396
88117W        W60542   4.143  35.975  12.671
88118W        W60543  18.548   5.626  12.317
88119W        W60544  19.134  39.105   2.650
88120W        W60545  15.346  42.331  14.843
88121W        W60546  19.898  22.475  13.417
88122W        W60547  15.215   5.064   5.090
88123W        W60548   0.057  40.759   2.154
88124W        W60549  37.375  13.160   1.863
88125W        W60550  29.652  10.936   4.227
88126W        W60551  22.659   3.147  14.404
88127W        W60552   4.053  10.196   2.564
88128W        W60553  36.934  17.566   1.967
88129W        W60554  40.292  32.084   0.374
88130W        W60555  33.567   8.006   1.821
88131W        W60556  12.851  29.061   4.497
88132W        W60557  34.178  28.952  13.443
88133W        W60558  38.793   0.873  14.349
88134W        W60559  42.085  13.774   2.639
88135W        W60560  23.669  31.306   3.784
88136W        W60561  14.837  19.214   0.776
88137W        W60562   4.855  21.412   2.255
88138W        W60563  24.965   6.257   3.910
88139W        W60564  16.501  10.167   4.597
88140W        W60565  12.166   3.434  10.574
88141W        W60566  39.863  39.543   0.425
88142W        W60567  14.465  37.311   0.464
88143W        W60568  22.405  40.056   9.949
88144W        W60569   4.756   3.027   4.297
88145W        W60570  13.066   4.927  11.652
88146W        W60571   2.611   1.997   4.628
88147W        W60572   9.820  33.671   2.353
88148W        W60573  30.528  27.916  11.869
88149W        W60574  16.605  32.126   3.452
88150W        W60575  30.732  38.597   4.151
88151W        W60576  11.909   0.790   3.641
88152W        W60577  35.787  14.148  14.455
88153W        W60578  21.637  36.505   0.317
88154W        W60579  19.659  23.175   0.892
88155W        W60580  27.595   7.297   4.026
88156W        W60581  16.341  27.060   3.582
88157W        W60582  31.620  16.309  12.963
88158W        W60583  10.706  34.487  12.878
88159W        W60584  12.120   5.728   4.569
88160W        W60585  34.531   5.273  11.372
88161W        W60586  43.365   8.779  13.412
88162W        W60587   8.307  44.814   4.176
88163W        W60588  14.292  33.545  14.207
88164W        W60589  13.765   4.321  10.665
88165W        W60590  43.605  23.018  12.116
88166W        W60591  27.979   3.535  11.189
88167W        W60592  34.304   7.397  11.441
88168W        W60593  43.804   8.668  14.893
88169W        W60594  16.562  10.205  11.400
88170W        W60595  19.431  27.629   1.337
88171W        W60596  17.651  44.454   3.983
88172W        W60597  38.238  14.386   0.051
88173W        W60598  12.104  10.190  14.386
88174W        W60599  43.412   3.710   2.394
88175W        W60600  31.915  25.142  14.749
88176W        W60601  39.032  11.878  12.428
88177W        W60602  17.698  35.886   4.889
88178W        W60603  13.755  25.291  11.855
88179W        W60604  34.429  26.106   1.214
88180W        W60605  15.190   7.707   2.771
88181W        W60606  28.155  28.005   3.228
88182W        W60607  18.364  12.297   0.535
88183W        W60608  17.662  14.644   2.303
88184W        W60609  35.457  26.992  12.094
88185W        W60610  36.975  26.534  13.409
88186W        W60611   7.435   1.800   4.778
88187W        W60612  41.331  24.635   4.498
88188W        W60613  44.189   8.321   4.444
88189W        W60614  29.207  12.144   4.246
88190W        W60615  15.203  21.779  11.723
88191W        W60616   8.889  36.004   4.439
88192W        W60617  11.123  44.501  11.955
88193W        W60618  22.175  32.607  14.309
88194W        W60619   4.188   7.132  14.285
88195W        W60620  44.116  20.385  11.419
88196W        W60621  24.178  12.672  11.481
88197W        W60622   5.467  11.779   1.505
88198W        W60623   0.465  38.739  14.551
88199W        W60624  17.709  42.339  10.739
88200W        W60625  30.147  29.029   0.508
88201W        W60626  20.549  43.793  14.771
88202W        W60627  25.667  35.738   1.701
88203W        W60628  39.725   3.186  11.232
88204W        W60629  28.876  19.263   0.792
88205W        W60630  13.143  32.155   0.072
88206W        W60631  16.516  15.449   0.781
88207W        W60632  25.919   9.916   0.039
88208W        W60633  13.029  16.009   1.810
88209W        W60634  11.301  37.587   4.848
88210W        W60635  23.717   7.943   4.210
88211W        W60636  22.305   9.695  11.033
88212W        W60637   6.495   2.873  11.984
88213W        W60638  34.072  26.053   2.171
88214W        W60639  15.662  22.567   1.636
88215W        W60640  30.644  32.785   0.444
88216W        W60641  12.337  12.377   3.540
88217W        W60642  28.637  27.495   4.755
88218W        W60643  20.571   5.703  12.089
88219W        W60644   6.548  37.992  10.939
88220W        W60645  13.204  40.495   0.794
88221W        W60646  38.513   4.291   3.550
88222W        W60647   6.328  44.609  11.805
88223W        W60648  28.341  21.104  14.792
88224W        W60649  14.725   7.471   2.732
88225W        W60650   2.408  24.019   3.108
88226W        W60651  12.343  15.027  11.118
88227W        W60652  20.310   5.330   2.384
88228W        W60653   1.803  36.419   4.642
88229W        W60654  34.830  37.490  10.647
88230W        W60655   5.414  34.934   2.662
88231W        W60656  43.396   2.425   3.336
88232W        W60657  43.170   2.506   3.810
88233W        W60658  16.066  15.536  13.802
88234W        W60659  35.305  43.082   3.029
88235W        W60660  21.095   7.232  13.907
88236W        W60661  35.786  37.906   4.598
88237W        W60662   8.167  21.823  14.407
88238W        W60663  27.086  40.023   0.751
88239W        W60664  17.609  10.600  14.243
88240W        W60665  42.511  41.442   1.747
88241W        W60666   4.710   6.452  12.974
88242W        W60667   6.478  11.792   4.430
88243W        W60668  32.889  11.772   3.107
88244W        W60669  11.923  31.161  10.639
88245W        W60670  21.268   7.813   2.296
88246W        W60671  34.140  20.037   4.109
88247W        W60672   9.440  34.447  12.370
88248W        W60673  30.246  42.830  13.528
88249W        W60674   2.547  21.596   2.793
88250W        W60675  27.952   3.472  10.354
88251W        W60676  19.196  36.369  13.930
88252W        W60677   4.395  25.215  11.436
88253W        W60678   1.997  36.668   0.383
88254W        W60679  14.671  26.615   0.171
88255W        W60680  11.633  44.458   4.045
88256W        W60681  25.443   2.843  13.830
88257W        W60682   1.953   7.941  11.145
88258W        W60683  34.577   8.454  14.485
88259W        W60684  40.389  36.000  14.884
88260W        W60685   5.830  39.191   1.520
88261W        W60686  42.793  28.130   1.820
88262W        W60687  42.428  30.682  12.455
88263W        W60688  33.548   1.470   4.483
88264W        W60689  39.474  11.331   2.444
88265W        W60690  41.732   5.820  14.505
88266W        W60691  19.814   6.522   0.285
88267W        W60692   8.325  42.040   4.379
88268W        W60693  18.611  35.591  12.191
88269W        W60694  11.576  33.583   4.101
88270W        W60695  28.153  37.174  14.505
88271W        W60696  28.514  12.859   1.197
88272W        W60697  17.274  37.548  11.201
88273W        W60698   9.192  39.857  10.716
88274W        W60699  14.800  18.444  10.605
88275W        W60700  35.475  36.662  12.029
88276W        W60701   3.856  10.186  13.614
88277W        W60702   4.983   9.611   1.418
88278W        W60703  26.461   9.568   2.730
88279W        W60704   2.189  18.793  13.557
88280W        W60705  34.893  39.911  12.132
88281W        W60706  27.557  19.086  11.154
88282W        W60707  29.631   9.211   4.400
88283W        W60708  36.198  29.111   4.317
88284W        W60709   3.720   5.092  11.218
88285W        W60710  24.741  29.512  12.633
88286W        W60711   7.312  33.471   0.642
88287W        W60712   4.126  35.921  12.161
88288W        W60713  26.547   1.865   0.922
88289W        W60714  43.336   9.886   4.615
88290W        W60715  34.307  19.518   0.417
88291W        W60716  31.643  10.360   3.719
88292W        W60717  20.327  39.087  11.114
88293W        W60718  36.731  31.673   3.243
88294W        W60719  24.153  29.452  12.201
88295W        W60720   8.931  17.045  11.683
88296W        W60721   0.297   1.995  11.333
88297W        W60722   5.437  42.508   1.426
88298W        W60723   3.330  30.165   2.262
88299W        W60724  32.934  26.538   1.003
88300W        W60725  10.515  18.214   3.647
88301W        W60726  29.122  41.574  13.090
88302W        W60727  22.616  19.580   4.235
88303W        W60728  36.097  31.319  12.455
88304W        W60729  21.773   0.779  10.783
88305W        W60730  16.515  12.271   3.740
88306W        W60731  25.458  27.364  12.399
88307W        W60732  34.418   4.652   3.998
88308W        W60733  16.641  27.503   3.751
88309W        W60734  18.563  33.094  10.169
88310W        W60735  15.330   1.504  14.358
88311W        W60736  34.561  27.116   4.196
88312W        W60737   9.314   5.432  14.782
88313W        W60738  32.913  20.118  14.480
88314W        W60739  28.549  40.048   3.177
88315W        W60740  16.702  38.004  10.627
88316W        W60741  41.151  31.459  13.490
88317W        W60742  18.821   0.801  10.907
88318W        W60743   9.812   8.124  11.272
88319W        W60744  44.815  16.659   3.173
88320W        W60745  30.186  18.630  13.922
88321W        W60746   5.284  10.290   0.358
88322W        W60747  20.023  13.927  14.883
88323W        W60748  44.190  26.643  14.299
88324W        W60749  40.455   6.124   3.768
88325W        W60750  44.780  36.099   3.292
88326W        W60751  39.066  19.084  12.589
88327W        W60752  37.187   3.702  11.488
88328W        W60753   9.460   7.287  10.632
88329W        W60754  24.513   5.280   0.488
88330W        W60755  25.266  24.566   2.583
88331W        W60756  23.551  25.646   4.487
88332W        W60757  16.308  20.647   2.079
88333W        W60758  29.903   5.444  11.129
88334W        W60759   9.308  11.119   1.292
88335W        W60760  28.502  38.757  12.685
88336W        W60761   6.251  26.099   4.966
88337W        W60762  25.066  38.478  11.370
88338W        W60763  30.640  26.122   4.898
88339W        W60764  41.272  30.986   1.303
88340W        W60765  26.487  39.628  12.647
88341W        W60766  12.039   8.486   2.005
88342W        W60767  21.052   4.929  13.404
88343W        W60768  11.008  30.661  14.416
88344W        W60769  24.667  25.032   4.797
88345W        W60770  16.120   6.438  14.751
88346W        W60771  24.226  41.979   0.453
88347W        W60772  42.348  40.145  12.824
88348W        W60773  41.831  42.411  14.893
88349W        W60774  31.666  15.853   2.482
88350W        W60775  15.652  28.689   1.766
88351W        W60776  30.209  38.525  13.595
88352W        W60777   9.902  12.549  14.898
88353W        W60778   9.438  13.068   3.276
88354W        W60779   9.845  14.020   3.181
88355W        W60780  31.869  20.796   1.371
88356W        W60781  26.158  42.040   0.418
88357W        W60782  23.652   7.979  12.706
88358W        W60783  17.039   0.374  11.292
88359W        W60784  30.067  28.523   2.114
88360W        W60785   3.998  34.979   1.630
88361W        W60786   8.635   5.908   3.299
88362W        W60787  18.239  26.037   0.372
88363W        W60788  23.459  32.179   1.606
88364W        W60789  36.085  20.679   0.680
88365W        W60790  24.494  16.818   1.914
88366W        W60791   2.738  24.214   2.318
88367W        W60792  25.982  41.305  14.797
88368W        W60793  25.682  15.563   4.116
88369W        W60794  10.198   4.002   4.214
88370W        W60795  39.728  24.731  13.164
88371W        W60796  31.520  29.586  10.776
88372W        W60797  19.571   4.680  11.682
88373W        W60798  43.810  21.846  10.193
88374W        W60799  33.900  35.390   0.299
88375W        W60800   5.276  15.557  14.435
88376W        W60801  16.416   6.314   0.497
88377W        W60802  31.158  18.136  11.240
88378W        W60803  17.078  16.012   1.832
88379W        W60804   7.730   0.191   3.350
88380W        W60805   6.831  38.141  12.307
88381W        W60806  11.162  12.797   4.839
88382W        W60807   1.502  24.268   2.682
88383W        W60808  29.125  38.081   1.081
88384W        W60809  39.520  43.985   1.794
88385W        W60810  23.709  13.763   0.504
88386W        W60811  44.906  37.934  11.275
88387W        W60812  15.059  31.520  13.895
88388W        W60813  29.353   3.529   4.676
88389W        W60814  36.839  43.909   2.791
88390W        W60815  11.408  44.354  10.713
88391W        W60816  30.093  23.974   0.487
88392W        W60817  34.842  31.107  14.228
88393W        W60818  14.465   8.754  10.725
88394W        W60819  21.087   9.661   0.405
88395W        W60820  35.638   9.267  13.044
88396W        W60821  34.450  40.754  11.638
88397W        W60822  28.062  21.264   2.350
88398W        W60823  30.106   3.360  13.841
88399W        W60824  14.316  31.884  13.278
88400W        W60825  22.170  10.674   2.718
88401W        W60826  35.360   9.774  12.227
88402W        W60827  32.565   6.076   1.222
88403W        W60828  36.533  31.370  11.201
88404W        W60829   6.074   2.526   0.995
88405W        W60830  34.145  25.395   1.308
88406W        W60831   4.224   6.680  12.149
88407W        W60832  29.390  28.238   1.331
88408W        W60833  40.505  43.799   0.983
88409W        W60834  12.639  36.354   3.992
88410W        W60835  39.904   7.440   4.003
88411W        W60836   4.155  20.948  11.555
88412W        W60837  27.337  14.286   4.565
88413W        W60838  30.129  38.301   4.626
88414W        W60839  14.698   3.496  12.021
88415W        W60840  43.514  35.750  13.013
88416W        W60841  41.721   5.291  14.893
88417W        W60842  36.045   6.239   4.278
88418W        W60843   8.731  29.966   3.920
88419W        W60844   9.580  35.942   3.650
88420W        W60845  13.130   3.529  12.070
88421W        W60846  13.956  29.553  14.957
88422W        W60847  30.523  40.814   4.237
88423W        W60848   8.268  19.199   4.534
88424W        W60849  18.370  17.582   0.878
88425W        W60850  11.309  27.774  12.085
88426W        W60851  41.808  19.249   2.794
88427W        W60852  42.344  35.115  11.471
88428W        W60853  14.950  29.524  12.157
88429W        W60854  38.015   3.847  13.478
88430W        W60855  39.603   9.895   2.872
88431W        W60856   8.855  27.610  12.507
88432W        W60857   2.703   5.394   0.357
88433W        W60858  13.855  37.540  12.491
88434W        W60859  32.024  41.708   3.776
88435W        W60860  37.408   0.612   9.855
88436W        W60861  33.584  40.407  10.573
88437W        W60862  38.496  42.232   2.258
88438W        W60863  10.865  40.779  13.633
88439W        W60864  16.714  29.619   4.215
88440W        W60865   3.303   0.412   3.167
88441W        W60866  25.461  16.111   2.604
88442W        W60867  15.041   1.812   0.268
88443W        W60868   7.402   2.446   3.466
88444W        W60869  33.338  39.295   2.533
88445W        W60870  25.513  29.650   3.659
88446W        W60871   5.429  41.442   3.285
88447W        W60872  33.092  39.520   4.191
88448W        W60873  28.552  34.559   2.873
88449W        W60874  36.886  44.348   4.144
88450W        W60875  32.358  30.757  13.895
88451W        W60876  40.356   7.144   4.100
88452W        W60877  31.435  38.257   1.922
88453W        W60878  28.028  25.505  12.020
88454W        W60879   9.753  27.236  12.847
88455W        W60880   9.457  10.998   0.540
88456W        W60881  29.673  16.810   2.019
88457W        W60882  43.384  32.857  11.578
88458W        W60883  42.570  31.449  13.023
88459W        W60884  30.988  27.513   4.699
88460W        W60885  28.716  40.936   3.230
88461W        W60886  40.628  15.637  12.222
88462W        W60887  14.308  36.562  12.533
88463W        W60888  19.132   5.829   3.708
88464W        W60889  34.837  16.645  12.089
88465W        W60890  37.426  38.447  10.060
88466W        W60891  25.168  38.322  14.319
88467W        W60892  18.779  20.525   2.297
88468W        W60893   0.693   1.541  12.894
88469W        W60894  32.814  37.910  12.099
88470W        W60895   3.000  16.232  10.655
88471W        W60896  36.081  14.662   4.703
88472W        W60897   8.142   4.864   3.158
88473W        W60898   4.875  16.867   2.567
88474W        W60899  13.789  23.159  13.297
88475W        W60900  25.952   4.909  12.889
88476W        W60901  27.566  30.722   0.420
88477W        W60902  35.077  14.935   4.883
88478W        W60903   7.649  33.132   0.892
88479W        W60904  33.846  39.347   2.426
88480W        W60905  44.292   7.249  13.358
88481W        W60906  44.033   7.588  11.389
88482W        W60907  11.260   7.449  13.535
88483W        W60908  37.275   6.211   5.530
88484W        W60909  44.832  13.589   3.648
88485W        W60910   0.787   0.441   3.161
88486W        W60911  21.810   3.730   1.668
88487W        W60912  29.211  23.205  11.544
88488W        W60913   3.259   4.216  12.108
88489W        W60914  17.291   2.775  14.315
88490W        W60915  22.037  19.510   0.753
88491W        W60916  10.396   3.741  11.179
88492W        W60917  23.629  14.262  13.362
88493W        W60918   4.978  44.105  14.261
88494W        W60919  29.697  25.692  13.382
88495W        W60920   6.581  34.455   4.954
88496W        W60921   4.676  44.546   1.430
88497W        W60922   6.767  11.703   2.340
88498W        W60923  18.157  30.471   3.161
88499W        W60924  27.998  27.218  11.501
88500W        W60925   1.795  35.582  14.429
88501W        W60926  23.816  38.339   0.633
88502W        W60927   3.168  36.150  13.860
88503W        W60928  13.232  35.563  14.287
88504W        W60929  24.665  44.733  10.977
88505W        W60930  41.283  41.344  11.839
88506W        W60931  27.470  30.919  12.540
88507W        W60932  30.768  39.364  12.713
88508W        W60933  27.141  11.388   2.315
88509W        W60934  10.624  17.599   1.713
88510W        W60935  43.300  30.918   4.583
88511W        W60936   5.749  21.363   1.436
88512W        W60937  27.556  10.895  14.341
88513W        W60938  32.180  23.981   0.451
88514W        W60939  42.030  12.543  12.157
88515W        W60940  28.715  44.546   2.652
88516W        W60941  32.845  44.083   2.794
88517W        W60942  43.848   0.420  13.234
88518W        W60943  32.623  34.744  11.162
88519W        W60944  18.423  28.058   3.844
88520W        W60945  27.695   7.796   3.813
88521W        W60946  43.707  10.756   4.313
88522W        W60947   8.331  13.824   0.458
88523W        W60948   7.093  43.358  13.966
88524W        W60949  26.656  44.343   3.821
88525W        W60950   9.404  30.296   0.873
88526W        W60951  40.403  21.534  14.218
88527W        W60952  21.488  36.397  10.675
88528W        W60953  20.299  37.112  10.461
88529W        W60954  22.766  19.101   4.083
88530W        W60955  21.515  44.524  10.423
88531W        W60956  36.200   8.198   1.801
88532W        W60957   3.292  34.374  12.933
88533W        W60958   1.520  23.702   2.754
88534W        W60959   6.708   8.926  12.054
88535W        W60960  39.536   4.059   2.396
88536W        W60961  17.319  43.789  10.754
88537W        W60962  13.373  32.764   3.848
88538W        W60963   4.954  28.016   1.310
88539W        W60964  34.348  39.952   0.047
88540W        W60965  19.555  41.470   0.980
88541W        W60966  26.695  31.465  13.889
88542W        W60967  40.465  41.554  11.062
88543W        W60968  32.393  15.282  12.155
88544W        W60969  41.446  40.033  11.446
88545W        W60970   5.216   0.754  10.722
88546W        W60971   9.347  42.368  14.981
88547W        W60972  23.813  15.427   1.167
88548W        W60973  32.133   1.286   1.246
88549W        W60974  32.391  19.716  11.145
88550W        W60975  43.948  26.121  12.349
88551W        W60976  42.343   6.438   0.379
88552W        W60977   9.435   6.914  12.324
88553W        W60978  33.986  34.844  11.443
88554W        W60979  16.528  39.800  11.245
88555W        W60980   1.691  25.931   1.324
88556W        W60981  22.956  43.860   0.459
88557W        W60982  13.849   9.360   0.347
88558W        W60983  21.997  20.581  11.533
88559W        W60984  14.951  41.345  10.586
88560W        W60985  36.072   3.427  11.468
88561W        W60986  26.429  43.215   0.043
88562W        W60987   0.799  12.058  10.611
88563W        W60988  40.087  30.607  14.763
88564W        W60989   8.286  14.113   3.544
88565W        W60990  19.618  41.752  14.216
88566W        W60991   9.839  43.479  12.059
88567W        W60992   6.256   7.265  12.468
88568W        W60993   1.944  39.818  12.139
88569W        W60994  30.204  19.760  11.364
88570W        W60995  36.987  23.023  11.007
88571W        W60996  29.806  25.057  10.197
88572W        W60997  16.029  27.739  11.213
88573W        W60998   1.506   4.402   1.925
88574W        W60999  26.208  13.027   4.765
88575W        W61000   8.832  36.449   0.889
88576W        W61001  41.809  27.462  14.804
88577W        W61002  12.237   1.378  12.109
88578W        W61003  34.489  31.730  12.018
88579W        W61004   7.570   6.232   4.387
88580W        W61005  17.392  15.200   4.577
88581W        W61006  31.595   8.678  12.464
88582W        W61007  20.184  21.252   3.196
88583W        W61008  33.583  23.145  14.007
88584W        W61009   6.359   9.245  14.297
88585W        W61010  27.308  43.828   2.385
88586W        W61011   2.475   0.072   3.697
88587W        W61012   9.075  12.194  12.910
88588W        W61013   3.136  34.942   0.721
88589W        W61014   5.100  27.124   4.515
88590W        W61015  43.381  17.092  11.970
88591W        W61016   7.811  36.138   4.133
88592W        W61017   8.683  38.861  11.748
88593W        W61018  17.586  14.658   3.318
88594W        W61019  23.056  13.300  11.115
88595W        W61020  31.545  32.810   3.292
88596W        W61021  15.905   0.403  12.198
88597W        W61022  36.459  21.053  12.941
88598W        W61023   4.784  12.043   3.622
88599W        W61024  27.137  30.209  10.617
88600W        W61025  31.614  18.522  14.496
88601W        W61026  40.845  12.622   1.881
88602W        W61027  42.490  35.597   0.739
88603W        W61028   8.745  29.949   3.410
88604W        W61029  17.710  16.202  14.440
88605W        W61030  26.215  41.531  13.920
88606W        W61031   8.985  21.978   1.822
88607W        W61032  44.295  42.943  13.065
88608W        W61033   7.813  27.495  12.454
88609W        W61034  25.715  42.809  10.327
88610W        W61035   9.622  16.578   4.137
88611W        W61036  13.131  44.985   3.302
88612W        W61037  19.135  20.450   4.608
88613W        W61038   8.213  30.110   2.459
88614W        W61039  43.796  39.446  11.197
88615W        W61040  23.031   7.089   1.248
88616W        W61041  23.201  30.406   2.264
88617W        W61042   4.838  31.796   2.287
88618W        W61043  30.246  40.483  12.368
88619W        W61044  14.243  27.038   3.751
88620W        W61045  40.414  18.668   3.235
88621W        W61046  11.378  23.806   1.770
88622W        W61047  33.026  13.471  12.479
88623W        W61048  39.787  32.921  10.647
88624W        W61049   9.647  35.990   1.842
88625W        W61050  20.083  19.130  12.570
88626W        W61051  16.078  29.086  13.760
88627W        W61052  19.163  41.099  12.896
88628W        W61053  38.831  29.454   1.266
88629W        W61054   4.770   3.696  13.268
88630W        W61055  11.134   7.311  12.885
88631W        W61056   5.348  44.694  14.858
88632W        W61057  26.598  30.122  14.534
88633W        W61058  33.094  25.444   4.903
88634W        W61059  12.347  16.149  13.382
88635W        W61060  15.831  16.187   1.414
88636W        W61061  20.617   9.904   0.369
88637W        W61062   2.261  38.944  14.987
88638W        W61063  43.004  20.185  11.369
88639W        W61064  16.603  31.982   2.413
88640W        W61065  20.603  41.525  14.254
88641W        W61066  43.982   9.818   1.677
88642W        W61067   5.311  25.487   2.914
88643W        W61068  25.260  33.500   4.942
88644W        W61069  31.014   1.790  10.234
88645W        W61070  26.665   7.811  12.820
88646W        W61071  34.604   9.224  12.147
88647W        W61072  32.009  23.157   2.830
88648W        W61073  22.228  14.394   2.809
88649W        W61074  44.330   3.445  11.546
88650W        W61075   7.533  42.727   3.139
88651W        W61076  14.207   0.744  13.366
88652W        W61077   0.703  42.854   2.481
88653W        W61078  37.313  24.475  13.494
88654W        W61079  35.512  12.587  11.567
88655W        W61080  39.503  23.019  12.770
88656W        W61081  18.725  27.034   3.284
88657W        W61082  12.297   2.882  11.472
88658W        W61083   5.010  24.528   2.769
88659W        W61084  17.134  32.960  10.426
88660W        W61085  17.759  27.072   4.450
88661W        W61086  36.034  30.653   0.716
88662W        W61087   6.482  20.471  13.401
88663W        W61088  13.850  16.771   2.395
88664W        W61089  22.566   7.154   1.476
88665W        W61090  37.040  39.475   1.765
88666W        W61091  11.987  41.178  13.995
88667W        W61092  34.347  31.965   2.127
88668W        W61093  30.392  21.088   1.327
88669W        W61094   4.497  11.894  11.598
88670W        W61095  35.431  15.407  11.191
88671W        W61096  28.875  10.425   0.382
88672W        W61097  13.081  38.667   4.484
88673W        W61098  16.120  42.533  13.861
88674W        W61099  22.029  28.104  13.928
88675W        W61100  28.662  20.747   3.552
88676W        W61101  33.542   0.021   0.894
88677W        W61102  11.687  40.783   0.716
88678W        W61103   6.110  38.797   4.614
88679W        W61104   7.880   8.397   3.816
88680W        W61105   3.382  36.897  13.397
88681W        W61106  13.175  13.883  13.055
88682W        W61107  25.241   5.986  12.886
88683W        W61108  15.832  42.931   4.991
88684W        W61109  34.722  32.941   4.425
88685W        W61110   6.329   4.985  14.983
88686W        W61111  25.060  16.563  11.190
88687W        W61112  32.833  24.562   3.996
88688W        W61113  34.842  14.820   0.482
88689W        W61114  30.554  34.905  10.808
88690W        W61115  22.718  21.386  12.868
88691W        W61116  14.851  43.255  14.878
88692W        W61117   0.397  16.791   0.373
88693W        W61118   5.385   7.408   2.760
88694W        W61119  22.086   3.447   3.714
88695W        W61120  37.481  27.746  11.616
88696W        W61121  15.102  28.010  10.380
88697W        W61122   0.021  36.823  12.013
88698W        W61123  44.235  13.625  11.865
88699W        W61124  27.102   4.437  11.585
88700W        W61125  37.968  42.054   4.848
88701W        W61126  26.983   1.239  13.929
88702W        W61127  21.254   5.669  14.824
88703W        W61128  36.297  27.057   1.741
88704W        W61129   2.588  12.255  11.616
88705W        W61130  34.478   0.689   4.107
88706W        W61131  40.315   5.269   0.425
88707W        W61132  38.591  14.212  13.104
88708W        W61133   7.251  32.387   2.279
88709W        W61134  25.297  18.158   0.238
88710W        W61135  30.981  16.543  14.261
88711W        W61136  43.426  24.671  10.709
88712W        W61137   9.542  12.635   2.195
88713W        W61138  30.809  36.583   4.703
88714W        W61139  35.042   3.660  14.932
88715W        W61140  38.896  23.584   3.828
88716W        W61141  38.486  30.853   0.210
88717W        W61142   5.269  37.091   1.427
88718W        W61143  38.924  20.652  11.752
88719W        W61144  32.556  17.731  11.002
88720W        W61145   5.200  11.309  11.488
88721W        W61146  23.040  38.278   3.222
88722W        W61147  23.501   2.713  12.974
88723W        W61148  11.804  34.935  14.558
88724W        W61149  36.935  11.637  12.607
88725W        W61150   2.284  29.435  14.323
88726W        W61151  27.569   4.203   2.129
88727W        W61152   8.728  39.235   2.790
88728W        W61153   3.924  31.072   1.261
88729W        W61154  42.336  38.016  14.698
88730W        W61155  23.552   2.212   4.697
88731W        W61156  23.853  22.137   4.133
88732W        W61157  34.772  25.947   0.317
88733W        W61158  20.539  25.068  13.804
88734W        W61159  21.385  23.956  13.170
88735W        W61160  42.161   2.354   4.617
88736W        W61161  18.987  32.440   4.604
88737W        W61162  37.759  25.052  12.968
88738W        W61163  10.447   9.037  12.417
88739W        W61164  26.836  43.145   4.944
88740W        W61165  27.382  35.447   0.738
88741W        W61166  40.394  37.807  11.992
88742W        W61167  18.968  15.289   0.232
88743W        W61168  14.341  31.527  12.410
88744W        W61169   2.583   4.774   1.217
88745W        W61170   0.718  15.912  10.606
88746W        W61171  11.021  32.986  13.015
88747W        W61172  26.692  17.624   4.185
88748W        W61173   2.415  21.477  13.889
88749W        W61174  28.573  21.762   2.770
88750W        W61175  31.489  20.135  11.115
88751W        W61176  16.115  42.407  12.282
88752W        W61177  36.716  39.311   1.263
88753W        W61178  14.679   2.814  10.424
88754W        W61179  38.098  19.758  12.162
88755W        W61180  22.214   7.963   1.561
88756W        W61181  20.669  10.130   2.259
88757W        W61182  28.454  20.581   0.442
88758W        W61183   1.813  40.631   4.164
88759W        W61184  29.075  36.875   2.301
88760W        W61185  39.359  20.980  14.117
88761W        W61186   9.553  19.722   1.899
88762W        W61187  34.868  31.965   2.161
88763W        W61188  39.874  20.761  12.485
88764W        W61189  37.100  29.991  11.486
88765W        W61190  34.203  42.091   1.677
88766W        W61191   7.803  20.697  12.083
88767W        W61192   8.013  41.561   1.739
88768W        W61193  33.378   5.428  13.886
88769W        W61194  30.039  37.390  10.661
88770W        W61195   1.929  11.253   2.052
88771W        W61196  21.229  15.594   3.754
88772W        W61197  34.462  11.230  12.660
88773W        W61198   2.320  16.845   4.407
88774W        W61199  33.859  35.266  11.769
88775W        W61200   6.879   6.516  12.375
88776W        W61201  13.652   7.257  14.264
88777W        W61202  30.845  26.459   4.548
88778W        W61203   4.135  40.988   3.180
88779W        W61204  25.988  38.864  14.027
88780W        W61205  15.258  18.134   1.688
88781W        W61206  13.960  12.793  14.010
88782W        W61207   4.942  41.899   0.020
88783W        W61208  14.525  23.234  10.317
88784W        W61209   2.954  38.530  11.115
88785W        W61210  35.352  42.291  11.173
88786W        W61211  29.633  44.194  11.375
88787W        W61212  26.854   2.756   4.537
88788W        W61213  36.213  13.593  12.006
88789W        W61214  15.224  15.082   0.393
88790W        W61215   2.234  41.412  13.796
88791W        W61216   6.001  35.112  10.690
88792W        W61217  44.480   8.739  12.051
88793W        W61218  41.030  30.204   0.896
88794W        W61219  32.498  44.454   2.548
88795W        W61220  20.374  12.295  10.133
88796W        W61221  32.275  42.405  11.649
88797W        W61222   6.672  30.425   4.520
88798W        W61223  13.904  23.777  11.466
88799W        W61224  37.485  23.977   1.240
88800W        W61225  39.062  22.857   1.925
88801W        W61226  10.489  24.200   0.845
88802W        W61227   1.663   0.898   3.803
88803W        W61228  21.273  28.871   3.686
88804W        W61229  34.746  35.534  13.972
88805W        W61230  38.898  29.616  12.297
88806W        W61231  38.908  24.595  14.794
88807W        W61232   4.915  15.793   3.089
88808W        W61233  38.819  34.904  11.159
88809W        W61234  16.300  38.414   1.273
88810W        W61235  20.274  25.011   4.072
88811W        W61236  26.739  10.668   1.858
88812W        W61237  39.485  31.196   4.112
88813W        W61238  20.571  25.593   0.779
88814W        W61239  11.324  26.094   0.713
88815W        W61240   1.219  17.606   1.799
88816W        W61241   3.176  28.614   2.245
88817W        W61242  11.235  13.368   0.355
88818W        W61243  33.526  20.920  12.506
88819W        W61244  44.447  31.396  10.587
88820W        W61245  39.573   9.361   2.307
88821W        W61246   7.000   0.185  11.414
88822W        W61247   6.846  17.006  11.900
88823W        W61248  14.850   6.665   4.999
88824W        W61249  22.357  41.297   2.805
88825W        W61250  15.840  14.811   2.774
88826W        W61251   3.247   5.852   1.894
88827W        W61252  24.208  41.737   3.593
88828W        W61253  15.263  44.527   2.002
88829W        W61254   3.631  28.457   2.490
88830W        W61255  21.766  40.622  12.621
88831W        W61256  12.584  40.915  12.500
88832W        W61257   6.764  30.555  10.946
88833W        W61258  41.864  41.541  10.290
88834W        W61259  17.253   0.227   4.085
88835W        W61260  23.382   7.285  11.973
88836W        W61261  41.072  22.299  11.669
88837W        W61262  33.428  26.999  11.626
88838W        W61263  31.391  36.726   3.588
88839W        W61264  30.327  19.247   3.208
88840W        W61265  33.057  22.208   1.249
88841W        W61266  10.804  30.729  14.889
88842W        W61267  34.024  17.708   3.931
88843W        W61268   4.738  21.730   1.846
88844W        W61269  32.485  20.454  13.194
88845W        W61270  22.506  44.067   0.237
88846W        W61271  29.214  38.848   5.454
88847W        W61272  31.589   6.976  13.600
88848W        W61273  27.088  18.154   2.285
88849W        W61274   4.080  16.984  13.814
88850W        W61275  34.039   5.993  13.785
88851W        W61276  41.727  18.746   2.546
88852W        W61277  14.783   4.257   9.921
88853W        W61278  42.945   0.407   2.815
88854W        W61279  27.215   4.897  14.975
88855W        W61280  18.516  38.382  13.964
88856W        W61281  44.702  13.710   1.454
88857W        W61282  14.826  20.410  11.649
88858W        W61283   5.243  26.399   2.018
88859W        W61284   1.986  24.635   1.658
88860W        W61285   2.467  22.232   4.085
88861W        W61286   2.879   5.291  14.881
88862W        W61287  29.920   0.733   3.734
88863W        W61288  40.505  34.890  12.479
88864W        W61289  41.263   0.114   2.234
88865W        W61290  10.681  40.057   0.556
88866W        W61291  28.345   4.860   0.911
88867W        W61292  21.249  41.520   1.344
88868W        W61293   3.257  34.597  10.606
88869W        W61294  37.354  25.822   2.734
88870W        W61295   5.483  21.688  13.543
88871W        W61296  24.411  30.638  10.743
88872W        W61297  33.804  31.968  11.167
88873W        W61298  28.153  43.053   3.287
88874W        W61299   6.282  21.241   3.135
88875W        W61300   0.413  39.261  12.480
88876W        W61301   5.884  15.261  10.799
88877W        W61302  11.762   0.870  11.110
88878W        W61303  22.089  26.643   0.450
88879W        W61304   2.700  32.551  12.558
88880W        W61305  25.166  33.214   1.379
88881W        W61306  13.695  16.783   4.630
88882W        W61307   7.700  44.810   2.180
88883W        W61308  24.652  14.758  12.510
88884W        W61309   0.720  29.670   0.813
88885W        W61310  36.504  38.333   2.262
88886W        W61311   5.446  34.639   1.267
88887W        W61312   4.294  16.235   0.802
88888W        W61313  28.486  11.568  12.013
88889W        W61314  33.174  22.614  12.893
88890W        W61315  11.733  27.830   3.685
88891W        W61316  20.604   3.886  12.654
88892W        W61317  36.571  30.003   1.329
88893W        W61318   5.855  37.423  13.515
88894W        W61319  43.276   1.996   3.829
88895W        W61320   0.214  39.417  12.956
88896W        W61321   3.303  36.570   3.864
88897W        W61322  37.522  31.699  12.043
88898W        W61323   9.430  13.908  11.900
88899W        W61324   8.947  19.679   0.595
88900W        W61325  37.709  20.201   2.168
88901W        W61326  41.921   8.210   3.870
88902W        W61327   6.745  23.402  14.282
88903W        W61328  19.320  25.763  12.106
88904W        W61329  35.352   5.934   2.691
88905W        W61330  40.887  31.699  14.386
88906W        W61331   8.035   8.439   0.620
88907W        W61332  38.807  36.779   0.278
88908W        W61333  33.535  34.972  11.208
88909W        W61334  10.743  17.693   0.408
88910W        W61335   1.820  35.476   2.072
88911W        W61336  37.031   7.899   0.041
88912W        W61337  44.428  22.139  12.008
88913W        W61338  27.524  24.252   0.394
88914W        W61339  26.498  24.038  14.350
88915W        W61340  39.444  10.353  11.252
88916W        W61341  16.275   3.423  12.524
88917W        W61342  21.273   4.656  14.956
88918W        W61343   6.816  25.448   3.518
88919W        W61344  23.268  13.628  10.687
88920W        W61345  35.668  11.770   1.887
88921W        W61346  39.531  36.266  13.868
88922W        W61347   7.839  18.511  13.515
88923W        W61348   4.757   1.063   1.835
88924W        W61349  23.278  10.837   1.873
88925W        W61350  43.861  44.412  10.422
88926W        W61351  30.702   1.731  13.502
88927W        W61352  11.739  31.057  11.927
88928W        W61353  35.993   8.333  10.523
88929W        W61354  11.854  37.754  11.638
88930W        W61355  26.554  28.137   3.858
88931W        W61356  40.245  27.537   3.202
88932W        W61357  42.210  32.727   2.917
88933W        W61358  27.792  16.595   0.740
88934W        W61359  31.001   3.281  10.804
88935W        W61360  43.876  40.030  11.885
88936W        W61361  32.412  38.510  13.927
88937W        W61362  19.670  40.326   2.853
88938W        W61363   6.654  39.483   4.085
88939W        W61364  32.110  25.058  11.860
88940W        W61365  11.593  17.619  10.658
88941W        W61366  36.321  11.091  11.409
88942W        W61367   1.871  34.532   1.667
88943W        W61368  39.878   0.520   0.028
88944W        W61369  17.315  19.173   0.033
88945W        W61370   5.138   6.295  11.034
88946W        W61371  44.011   8.222   3.198
88947W        W61372  16.556  26.011  13.474
88948W        W61373  18.542  43.276  12.919
88949W        W61374  34.053   8.364  11.937
88950W        W61375   9.925  34.255   2.403
88951W        W61376   4.261  27.458  10.559
88952W        W61377  30.198  14.037  14.982
88953W        W61378   4.061  40.043   2.291
88954W        W61379  34.577   8.829   4.350
88955W        W61380  19.923  41.910   2.221
88956W        W61381  14.229  37.846   2.858
88957W        W61382  44.306  11.093   5.075
88958W        W61383  37.146  15.256   0.932
88959W        W61384  25.579  23.672   0.386
88960W        W61385   3.256  20.168   2.366
88961W        W61386  30.131  17.900  14.676
88962W        W61387  28.442  33.827   4.280
88963W        W61388   0.221  31.953  12.006
88964W        W61389  26.624  36.405   0.249
88965W        W61390  13.221   4.868   4.647
88966W        W61391  36.998  41.752  11.312
88967W        W61392  30.534  36.570   1.316
88968W        W61393  35.029  30.355  14.491
88969W        W61394  42.303  24.134  13.503
88970W        W61395  42.249  15.651   0.165
88971W        W61396  32.925  34.062   2.362
88972W        W61397   2.609  37.512   3.445
88973W        W61398  31.149  15.683   0.547
88974W        W61399  24.732   8.827  12.533
88975W        W61400  12.125  32.048  13.420
88976W        W61401  14.017  42.724  13.468
88977W        W61402  26.870   4.685  12.557
88978W        W61403  36.076  37.376   1.682
88979W        W61404   2.348  26.441  14.061
88980W        W61405  41.428   8.661   4.618
88981W        W61406  41.925  25.983   1.253
88982W        W61407  41.484  22.275   3.819
88983W        W61408  21.961  24.173   5.049
88984W        W61409  29.925  29.967  11.515
88985W        W61410  43.283  37.834   2.178
88986W        W61411  22.031  30.613  13.525
88987W        W61412   7.593  19.662  13.441
88988W        W61413  28.032  38.036   1.815
88989W        W61414  32.127  33.024  13.401
88990W        W61415   0.522   9.860   1.869
88991W        W61416  43.966  43.418   2.285
88992W        W61417  43.785   4.628   1.834
88993W        W61418  37.043  10.274  14.299
88994W        W61419  39.700  14.573   1.707
88995W        W61420  25.640  33.628   4.135
88996W        W61421   6.178  43.360   1.210
88997W        W61422  39.487   0.768  11.845
88998W        W61423  30.612   7.973   3.633
88999W        W61424  39.035  10.562  12.067
89000W        W61425  27.470  27.628   2.295
89001W        W61426   6.539   9.547   3.727
89002W        W61427  25.785  11.906   0.472
89003W        W61428  22.053   3.093   4.103
89004W        W61429  15.910  44.690   2.541
89005W        W61430  11.360  20.800  10.706
89006W        W61431  23.066  30.605   3.746
89007W        W61432  24.252  23.171  11.620
89008W        W61433   3.745  25.540  14.720
89009W        W61434  32.500  41.353  10.830
89010W        W61435  22.020  18.504  13.308
89011W        W61436  33.579  30.425  14.418
89012W        W61437  19.811  39.782  12.129
89013W        W61438  13.169  23.220   0.264
89014W        W61439  30.965  22.822   5.466
89015W        W61440  28.332  34.015   1.892
89016W        W61441  29.505  40.367  11.598
89017W        W61442  15.633  10.689   4.819
89018W        W61443  22.828  39.774   2.344
89019W        W61444  34.880   9.697  12.886
89020W        W61445  10.766  19.856   4.094
89021W        W61446  37.403  28.891   2.307
89022W        W61447  17.323  39.001  11.904
89023W        W61448  37.840  21.800   1.721
89024W        W61449   8.674  30.973   2.380
89025W        W61450  12.202  27.812  12.071
89026W        W61451   1.540   3.744   3.049
89027W        W61452  36.449  19.130   4.193
89028W        W61453  11.310   2.784  11.490
89029W        W61454   9.556   2.290   3.907
89030W        W61455  16.147  42.851  14.571
89031W        W61456   8.710   6.881  14.569
89032W        W61457  15.244   9.131  11.305
89033W        W61458   4.020  30.897   2.799
89034W        W61459  41.025   5.007  12.398
89035W        W61460  18.704  44.465   0.932
89036W        W61461  38.021  44.696  10.961
89037W        W61462  12.029  18.074  11.121
89038W        W61463  27.656   0.318   3.689
89039W        W61464  19.064  27.140   4.853
89040W        W61465  44.844  40.269  12.799
89041W        W61466  42.964  28.862  11.184
89042W        W61467   2.906  27.892  12.215
89043W        W61468  39.576  17.853  11.565
89044W        W61469  21.301  16.166   0.523
89045W        W61470  36.067  41.538  13.857
89046W        W61471  43.476  12.558  14.504
89047W        W61472  34.449   4.164  13.483
89048W        W61473   3.870   7.511  10.700
89049W        W61474  42.785   7.565  13.100
89050W        W61475  34.830  28.658   2.818
89051W        W61476   9.126  27.514   4.249
89052W        W61477   3.442  24.167  13.848
89053W        W61478  21.523  39.243   2.268
89054W        W61479   1.240  14.671   3.394
89055W        W61480  43.943  25.244  11.514
89056W        W61481  43.283   2.349   0.530
89057W        W61482   6.943   3.177  13.411
89058W        W61483   0.972  41.414  14.676
89059W        W61484  19.767  41.114   3.255
89060W        W61485   0.767   9.658   4.268
89061W        W61486  42.826  37.069   1.308
89062W        W61487  32.557   9.237   3.680
89063W        W61488  30.212  20.655  11.152
89064W        W61489   6.332  29.461   3.151
89065W        W61490  12.697  21.144  11.927
89066W        W61491  20.262  18.693  14.741
89067W        W61492  27.599   0.315  10.417
89068W        W61493   1.353  10.128  12.921
89069W        W61494  22.122  42.790   1.321
89070W        W61495   7.601  23.040  12.627
89071W        W61496   0.363   3.004   1.790
89072W        W61497  35.024  13.125  13.315
89073W        W61498  31.404  37.300  10.505
89074W        W61499  20.799  39.062   0.340
89075W        W61500  29.860  11.308  14.365
89076W        W61501  23.574   9.718   2.193
89077W        W61502  28.858  24.109  12.609
89078W        W61503  21.147  21.027   4.988
89079W        W61504  19.109  10.762  14.776
89080W        W61505  44.812   8.748  11.599
89081W        W61506  39.303  22.058  12.462
89082W        W61507  20.468   9.259  14.578
89083W        W61508  27.993  19.139  10.359
89084W        W61509   3.350  40.620   0.215
89085W        W61510  20.168  15.660  12.929
89086W        W61511  39.654  31.055   2.336
89087W        W61512   7.488  39.354   4.771
89088W        W61513   2.242  40.325   4.112
89089W        W61514   3.819  33.849  12.430
89090W        W61515   8.180  26.523  14.741
89091W        W61516   2.189  12.141   2.808
89092W        W61517  40.490  31.654   2.299
89093W        W61518  31.223  44.467  12.544
89094W        W61519  33.126  16.743   3.293
89095W        W61520  36.161  37.468  14.904
89096W        W61521   1.164  30.678   2.028
89097W        W61522  22.004  21.190   0.010
89098W        W61523  26.124  33.668  12.061
89099W        W61524  33.858  39.386  14.819
89100W        W61525  16.882  34.006  14.469
89101W        W61526  10.871   8.347   0.851
89102W        W61527  29.777  25.009   4.576
89103W        W61528  16.625  40.522   1.063
89104W        W61529  23.022  41.180   1.216
89105W        W61530  30.834  12.103   3.457
89106W        W61531  23.139  32.437   1.018
89107W        W61532  15.057  26.484   4.772
89108W        W61533  17.339  29.163   1.052
89109W        W61534  11.389  42.563   2.253
89110W        W61535  43.883  32.330  14.389
89111W        W61536  39.404  40.832   2.144
89112W        W61537  33.627  38.320  14.636
89113W        W61538  40.614   2.411  11.567
89114W        W61539  21.530  40.449  10.251
89115W        W61540  24.890   0.951  13.519
89116W        W61541   2.295  20.120  11.292
89117W        W61542  30.607   9.122  11.374
89118W        W61543  34.345  39.956  12.954
89119W        W61544  14.110  43.911  10.730
89120W        W61545  10.214   1.533  11.089
89121W        W61546  25.620  34.303  11.219
89122W        W61547   0.010   9.755   0.868
89123W        W61548   2.111  37.996   4.721
89124W        W61549  24.901  13.213   0.708
89125W        W61550  38.991   9.620  14.838
89126W        W61551  25.356  29.596  11.460
89127W        W61552  31.691  30.976   1.850
89128W        W61553   1.731  35.425   1.573
89129W        W61554  34.798  14.734   3.324
89130W        W61555  14.146   5.673  12.758
89131W        W61556  23.270  35.346  13.955
89132W        W61557  17.612  32.393   4.600
89133W        W61558  40.352  16.774  14.869
89134W        W61559  19.860  32.631  12.856
89135W        W61560   5.179  36.477   2.177
89136W        W61561  24.718   3.699   4.107
89137W        W61562  21.942  38.531  14.793
89138W        W61563  29.792  35.006   1.445
89139W        W61564  23.937  23.323   2.739
89140W        W61565   8.355  36.895   3.618
89141W        W61566  38.021  31.945   3.045
89142W        W61567   0.224  22.899  10.664
89143W        W61568  35.401  19.786  14.298
89144W        W61569  14.022  39.035  13.502
89145W        W61570  17.275  12.865   9.931
89146W        W61571  32.072  20.204   3.061
89147W        W61572   4.801  43.603  14.262
89148W        W61573   0.958  23.683  12.949
89149W        W61574  36.401  43.806   4.183
89150W        W61575  24.131  31.277   1.493
89151W        W61576   1.702  33.167   0.793
89152W        W61577   7.668  26.511   3.730
89153W        W61578  23.386  12.330   2.799
89154W        W61579  21.137  39.402   1.455
89155W        W61580  16.663  27.761   2.909
89156W        W61581  16.914  24.386  13.343
89157W        W61582  19.711  38.440   4.580
89158W        W61583  17.487  42.082   4.455
89159W        W61584  27.803   4.535  10.971
89160W        W61585  38.478  37.062  11.751
89161W        W61586  17.727  31.117   4.242
89162W        W61587  38.843  11.199  12.926
89163W        W61588  28.083  31.802   4.152
89164W        W61589  12.166  11.155  11.514
89165W        W61590  34.486  29.443   4.365
89166W        W61591  25.191   5.814   0.251
89167W        W61592  31.418  16.829  12.076
89168W        W61593  12.136  37.465   1.579
89169W        W61594  38.187   8.834   5.465
89170W        W61595  39.009  21.128   4.092
89171W        W61596  23.306   9.745  11.943
89172W        W61597   7.166  22.886   3.775
89173W        W61598  36.028   1.259   1.866
89174W        W61599  13.211  25.153  12.551
89175W        W61600   5.151  27.674   0.321
89176W        W61601  32.223  43.291   4.586
89177W        W61602  43.049  38.887   2.771
89178W        W61603  15.237  44.161   2.841
89179W        W61604  21.294   9.193  14.057
89180W        W61605  22.701   9.329   2.655
89181W        W61606  10.444  43.270  14.996
89182W        W61607  20.053  24.549  13.488
89183W        W61608  11.088  35.062  12.339
89184W        W61609  34.666  40.042   3.332
89185W        W61610  32.975  12.777   0.064
89186W        W61611  14.499  37.224   4.743
89187W        W61612  18.731   3.484  10.972
89188W        W61613  11.206  23.926  11.708
89189W        W61614  34.192  37.331  13.371
89190W        W61615  37.428  28.667   1.382
89191W        W61616  42.310   0.781  11.590
89192W        W61617  20.001  20.568  13.069
89193W        W61618  21.996  39.847   4.532
89194W        W61619  12.484  25.272   9.612
89195W        W61620   3.028   2.313   3.718
89196W        W61621   1.208  23.159   0.847
89197W        W61622  44.274  11.883   1.100
89198W        W61623  42.298   1.947  10.732
89199W        W61624  20.815   3.921   1.727
89200W        W61625  24.341  37.538   0.942
89201W        W61626   7.293  39.856   4.792
89202W        W61627  34.894  32.412   3.327
89203W        W61628  17.593  23.600   3.644
89204W        W61629   8.594  18.139  14.270
89205W        W61630  42.888  17.640  13.976
89206W        W61631  12.090  41.949  14.942
89207W        W61632  31.632   6.293  11.934
89208W        W61633  35.083  23.119  11.035
89209W        W61634  37.163  11.735  12.162
89210W        W61635  19.534  24.615   1.301
89211W        W61636  43.826  21.310  14.271
89212W        W61637  31.429  43.437   4.105
89213W        W61638  10.216  22.493   2.939
89214W        W61639  23.748   8.081   0.264
89215W        W61640  40.065   3.240   1.247
89216W        W61641  20.043  26.024   1.857
89217W        W61642  18.509  33.177  13.569
89218W        W61643  12.818  16.247   1.316
89219W        W61644  27.188  24.725  12.857
89220W        W61645  20.338   1.442  11.178
89221W        W61646   2.903  11.367   4.531
89222W        W61647  31.910  17.883   4.876
89223W        W61648   9.189  38.576  10.979
89224W        W61649  35.763   8.422   4.549
89225W        W61650   3.913  16.346  12.489
89226W        W61651  24.367  42.963  12.078
89227W        W61652  41.139  22.282  10.230
89228W        W61653  26.430   5.314   4.303
89229W        W61654  18.416   4.494   3.060
89230W        W61655   6.903  40.834  11.520
89231W        W61656  13.374  14.091  14.474
89232W        W61657  17.085   2.551   1.633
89233W        W61658  30.246  28.163   4.320
89234W        W61659  10.278  42.762   4.972
89235W        W61660   3.389  13.245  10.771
89236W        W61661  23.240  13.319   4.146
89237W        W61662  36.568  23.122  11.284
89238W        W61663  41.830  25.961  13.055
89239W        W61664   1.097   4.140  10.677
89240W        W61665  18.893   5.305   2.053
89241W        W61666  36.610  16.500   0.716
89242W        W61667   8.193  15.130   3.376
89243W        W61668  22.474  10.738  10.738
89244W        W61669  14.574  28.204   4.620
89245W        W61670  17.564  38.221  14.407
89246W        W61671  42.381  23.519   2.183
89247W        W61672  31.746  19.769   3.282
89248W        W61673  19.987  12.968   4.366
89249W        W61674  10.239   5.721   3.656
89250W        W61675  18.786  25.622  13.822
89251W        W61676  30.355  17.538   4.742
89252W        W61677   9.943  14.599   0.965
89253W        W61678  34.823  42.488   4.176
89254W        W61679  37.387  22.233   1.965
89255W        W61680  11.186   7.737   1.277
89256W        W61681  24.621  41.960   2.269
89257W        W61682  21.114   0.831   1.858
89258W        W61683   9.245   5.226   4.585
89259W        W61684  30.014  34.845   2.741
89260W        W61685  21.430  17.675  14.438
89261W        W61686   1.433  14.687   2.487
89262W        W61687  15.071  23.559   2.936
89263W        W61688  33.316   2.245  11.773
89264W        W61689  10.664   3.381  12.856
89265W        W61690  29.637  17.009   0.489
89266W        W61691   2.445   6.129  14.409
89267W        W61692  35.065  32.094  11.482
89268W        W61693  12.609  33.620   1.761
89269W        W61694  19.755  40.830   1.747
89270W        W61695  14.657   3.279  10.182
89271W        W61696  16.551  29.775  10.724
89272W        W61697  30.652  18.073   3.827
89273W        W61698  44.218  28.971   1.487
89274W        W61699  40.024  24.607   3.579
89275W        W61700  27.079  43.896  11.844
89276W        W61701   8.253  27.163   4.214
89277W        W61702  20.442   4.869   4.485
89278W        W61703  12.129  37.599   4.950
89279W        W61704  36.752  25.399  14.887
89280W        W61705  37.501  16.927  11.382
89281W        W61706   7.824   5.421  11.842
89282W        W61707  12.395  16.781   3.158
89283W        W61708   1.806  40.428   1.914
89284W        W61709  10.447   2.175  13.264
89285W        W61710   0.905  22.800   1.777
89286W        W61711  14.330  27.812   4.874
89287W        W61712  36.325  32.921   1.776
89288W        W61713  28.719  39.761  12.447
89289W        W61714   8.313  20.329   1.188
89290W        W61715  36.591  12.656  12.101
89291W        W61716  41.308   9.105   1.428
89292W        W61717   3.648  30.053  11.893
89293W        W61718  33.147  11.263  11.274
89294W        W61719  39.639  10.591   0.902
89295W        W61720  19.758  19.547  12.457
89296W        W61721  37.172  38.038   3.330
89297W        W61722  22.934  12.358   4.669
89298W        W61723   6.426  35.573   2.780
89299W        W61724  31.503  36.012  10.861
89300W        W61725   8.700  26.134  12.916
89301W        W61726  28.413  44.551   0.300
89302W        W61727   3.905  21.760   0.748
89303W        W61728   2.891   4.805   3.896
89304W        W61729  24.957  24.137   3.579
89305W        W61730  22.685  44.341  11.569
89306W        W61731  30.585  43.914   0.039
89307W        W61732  16.376  20.233  12.559
89308W        W61733  10.379  35.210   1.913
89309W        W61734  30.216  16.314  13.012
89310W        W61735   0.887  40.320  10.583
89311W        W61736  12.402  31.626  13.571
89312W        W61737   1.431   1.347   2.223
89313W        W61738  10.889  38.283   4.185
89314W        W61739   9.968  28.540   3.626
89315W        W61740   7.620   7.175   4.736
89316W        W61741  25.137  38.536   1.796
89317W        W61742  38.151  28.117   0.559
89318W        W61743  27.746  42.132   2.305
89319W        W61744  40.966   7.398  11.122
89320W        W61745  39.857   1.064  12.799
89321W        W61746  38.992  18.301  11.181
89322W        W61747  26.760   4.133  10.003
89323W        W61748  28.578   8.757  10.988
89324W        W61749  43.490   4.355   2.232
89325W        W61750   3.945  17.927   5.118
89326W        W61751  39.489  31.996  14.338
89327W        W61752  42.049  42.369  10.815
89328W        W61753   1.808  37.862  14.145
89329W        W61754   3.015   5.434   1.702
89330W        W61755  33.156  21.715   1.926
89331W        W61756  13.859  27.636  12.670
89332W        W61757  29.542  43.569   0.530
89333W        W61758   3.955  12.309   4.654
89334W        W61759  33.520  22.248  13.002
89335W        W61760  30.136  17.613   1.752
89336W        W61761  27.575  15.812  12.154
89337W        W61762  19.718  42.004   0.203
89338W        W61763  40.970  35.617  12.031
89339W        W61764   0.445   8.918   3.279
89340W        W61765   5.335  34.460   2.818
89341W        W61766  26.461   9.069   2.496
89342W        W61767  40.352  17.120  14.042
89343W        W61768  32.280  20.886   4.104
89344W        W61769   5.372  26.876   0.738
89345W        W61770  25.951  21.289   1.733
89346W        W61771  15.732  23.188  10.559
89347W        W61772  41.839  25.085  13.458
89348W        W61773  37.490  31.841   0.410
89349W        W61774   8.676  14.598   1.240
89350W        W61775  28.620  30.177  13.362
89351W        W61776   8.963  20.519  13.995
89352W        W61777  41.534   0.012  12.480
89353W        W61778  14.152  35.142   4.747
89354W        W61779  21.609  12.339   3.558
89355W        W61780   2.324  12.109   4.651
89356W        W61781  27.187  14.052  13.853
89357W        W61782   9.641  16.129  14.932
89358W        W61783  16.098  19.522  12.966
89359W        W61784  12.771  14.895  12.043
89360W        W61785  43.390  13.721   0.503
89361W        W61786  30.513   6.756  12.599
89362W        W61787  32.886   2.424   0.190
89363W        W61788  20.829  35.632   4.860
89364W        W61789  16.797  22.341  11.490
89365W        W61790  19.437   3.294   3.706
89366W        W61791   3.666  44.373   1.315
89367W        W61792  20.714   3.155   4.596
89368W        W61793  12.618   8.115  13.155
89369W        W61794  29.742  17.162  13.009
89370W        W61795  15.008  11.221  11.445
89371W        W61796   3.065  43.415   4.561
89372W        W61797  42.031  29.650  14.451
89373W        W61798  37.949  10.162  10.693
89374W        W61799   7.810  22.602   3.667
89375W        W61800  11.761  38.340  12.517
89376W        W61801  13.756  32.655  13.333
89377W        W61802  19.814  44.933   3.320
89378W        W61803  33.606  17.138   4.494
89379W        W61804   7.442  21.016   3.768
89380W        W61805   0.818  10.519  12.063
89381W        W61806  27.245  22.068  10.738
89382W        W61807  13.789  18.635  12.149
89383W        W61808  20.845  22.557   0.204
89384W        W61809  18.275  38.098   0.941
89385W        W61810  31.450  13.156  11.005
89386W        W61811  32.402   9.226  14.577
89387W        W61812  25.607  22.890  11.113
89388W        W61813  41.265  32.928   3.242
89389W        W61814  34.865  22.529  13.522
89390W        W61815  26.146  36.457   1.944
89391W        W61816  39.504  31.690   1.243
89392W        W61817  22.566   0.582  11.200
89393W        W61818  13.200  35.595  11.036
89394W        W61819  28.649  40.933   4.474
89395W        W61820  36.340  29.405   1.886
89396W        W61821  25.158  27.891   1.310
89397W        W61822  39.920  30.854   1.456
89398W        W61823  34.310  37.406   1.685
89399W        W61824  34.240   7.300  14.401
89400W        W61825   5.550   5.974  12.046
89401W        W61826  22.659  12.417   0.142
89402W        W61827  22.537  32.541   1.687
89403W        W61828  10.102   1.283   1.728
89404W        W61829  19.629   5.868   0.383
89405W        W61830   4.492  30.706  12.275
89406W        W61831   9.618  10.229   0.255
89407W        W61832   0.235  21.756   4.598
89408W        W61833  25.404  38.957   1.965
89409W        W61834  13.329   2.503  13.826
89410W        W61835  31.884   1.466  10.461
89411W        W61836  25.434  32.442   3.614
89412W        W61837  43.579  44.415  12.513
89413W        W61838  33.007  37.410  12.158
89414W        W61839  30.728   0.189   2.240
89415W        W61840   9.291  18.807  14.322
89416W        W61841  24.568  41.698  11.030
89417W        W61842  10.289  21.676  12.835
89418W        W61843   8.918  25.730  11.089
89419W        W61844  40.037  33.728   1.823
89420W        W61845   7.906   6.459   1.700
89421W        W61846  17.690  16.334   3.167
89422W        W61847  33.121  32.589  14.939
89423W        W61848  17.254  23.078   0.767
89424W        W61849   1.702  15.204   0.665
89425W        W61850  42.392  37.400   0.418
89426W        W61851  19.840  30.549   0.276
89427W        W61852   3.841  23.906  12.571
89428W        W61853  31.028   3.439  13.539
89429W        W61854  35.404  17.317  14.367
89430W        W61855  35.074  32.027  12.865
89431W        W61856  39.204   1.004  12.584
89432W        W61857  13.324  10.820  11.914
89433W        W61858   1.302  38.884  12.881
89434W        W61859  23.453  39.310  12.583
89435W        W61860  44.814  19.183  12.241
89436W        W61861  41.246  44.409  13.055
89437W        W61862  19.689  25.324   4.597
89438W        W61863  37.796  23.844  10.226
89439W        W61864  36.144  22.562  14.483
89440W        W61865  10.142   1.778  10.634
89441W        W61866  28.591  11.874   1.440
89442W        W61867  25.017  43.291   1.131
89443W        W61868   1.182  20.835  14.311
89444W        W61869  19.468  32.109   2.839
89445W        W61870  41.818  17.781   2.310
89446W        W61871  25.801   7.045  10.947
89447W        W61872  16.014   2.348  13.549
89448W        W61873  14.044  39.352  10.893
89449W        W61874  14.020  44.918  11.352
89450W        W61875   8.077  11.123   2.757
89451W        W61876   0.259  11.928  12.653
89452W        W61877  42.390  14.136  13.076
89453W        W61878  20.063  10.110  11.158
89454W        W61879  43.214  17.287   1.250
89455W        W61880  12.763  29.952  11.848
89456W        W61881  22.142  12.477  13.476
89457W        W61882  31.824  37.879  11.084
89458W        W61883  26.919  36.157  12.464
89459W        W61884  33.410   1.716   0.114
89460W        W61885  10.251  38.280  12.972
89461W        W61886  20.683  31.423   1.741
89462W        W61887  18.745   4.215   4.994
89463W        W61888  31.503  29.273   2.652
89464W        W61889  41.792  10.893  11.411
89465W        W61890  15.665  41.612  11.980
89466W        W61891  22.578   5.861  12.643
89467W        W61892  42.391  15.305   1.360
89468W        W61893   5.306  16.618  14.439
89469W        W61894  36.351   0.250  14.272
89470W        W61895   7.752  38.368  10.591
89471W        W61896  26.111  13.646  14.090
89472W        W61897  21.797   1.974   2.872
89473W        W61898  36.306  14.171  14.481
89474W        W61899  40.077  17.779  13.818
89475W        W61900  33.780  21.752  14.479
89476W        W61901  42.235  42.006  13.438
89477W        W61902  11.000  24.585   1.873
89478W        W61903  31.511  30.752   2.282
89479W        W61904  27.413   6.230   3.538
89480W        W61905  14.295  32.855  11.581
89481W        W61906   3.816  27.313   2.889
89482W        W61907  13.266  40.218   2.886
89483W        W61908  28.212   3.162  14.353
89484W        W61909  40.581   6.269  11.699
89485W        W61910  38.450  33.095  11.034
89486W        W61911  23.543  40.844   3.309
89487W        W61912  25.035   5.576   1.123
89488W        W61913  17.340  40.848   3.380
89489W        W61914  36.543  35.493   3.727
89490W        W61915  30.631   1.014  14.273
89491W        W61916   2.021  13.839  13.111
89492W        W61917  15.713   4.222   9.916
89493W        W61918   9.168  38.907   0.914
89494W        W61919   4.435  42.030  11.914
89495W        W61920  23.724   5.851   1.383
89496W        W61921  39.124  43.596   4.717
89497W        W61922  41.789  25.512  12.077
89498W        W61923  23.654  28.128   3.883
89499W        W61924  27.465  41.304   0.195
89500W        W61925  19.525  39.154   4.110
89501W        W61926  38.855  30.465  14.308
89502W        W61927   1.020   1.701  14.495
89503W        W61928  28.244  18.660  14.418
89504W        W61929   9.090  13.351   1.856
89505W        W61930   8.133  38.245  11.275
89506W        W61931  22.986  23.629   2.721
89507W        W61932   8.458  34.310  13.345
89508W        W61933  13.577  17.137  12.501
89509W        W61934  30.016  22.712   2.568
89510W        W61935  31.671  35.148   1.221
89511W        W61936  39.350  15.551   5.309
89512W        W61937  15.338  44.470  13.829
89513W        W61938   0.691  32.167   2.917
89514W        W61939  42.460   3.296  13.079
89515W        W61940  21.740   8.257   1.873
89516W        W61941  37.963  36.864  12.894
89517W        W61942   8.781  10.167  13.038
89518W        W61943  31.478  27.198  11.449
89519W        W61944  37.004  42.816  10.673
89520W        W61945  40.885  42.816  14.958
89521W        W61946  20.254  10.730  10.523
89522W        W61947   4.506  31.795  10.303
89523W        W61948  19.985  19.187  10.436
89524W        W61949  29.689  44.276   2.096
89525W        W61950  10.649  25.425   3.262
89526W        W61951  28.498  20.235   4.741
89527W        W61952   0.976  26.015  12.679
89528W        W61953  32.001  13.151   4.480
89529W        W61954  26.917  15.334  13.978
89530W        W61955  44.305  36.473  11.484
89531W        W61956   3.274  19.988  13.652
89532W        W61957   6.248  37.361  14.395
89533W        W61958  27.128  35.066  13.900
89534W        W61959  37.311  16.523   1.227
89535W        W61960  29.933  38.095   3.160
89536W        W61961  32.411  24.789  12.873
89537W        W61962  23.289  11.698   1.650
89538W        W61963  40.892   8.429  14.449
89539W        W61964   4.286   6.204  11.368
89540W        W61965   9.688  15.037   3.210
89541W        W61966   0.813   6.407  14.926
89542W        W61967  42.059  18.508   4.150
89543W        W61968  28.777  39.590   3.189
89544W        W61969  27.858  15.235  10.450
89545W        W61970   7.803  39.637  13.852
89546W        W61971  24.037  15.115  11.457
89547W        W61972  16.696  42.408   4.209
89548W        W61973  11.745   5.700  11.673
89549W        W61974  11.190   7.874  11.135
89550W        W61975  36.454  32.064   1.276
89551W        W61976  44.673  17.237  14.971
89552W        W61977  24.124  32.987   0.153
89553W        W61978  39.469   6.859   4.792
89554W        W61979  26.727  23.659   0.795
89555W        W61980  27.137  17.597   0.245
89556W        W61981  35.138  19.442  12.582
89557W        W61982   6.016  32.571  14.303
89558W        W61983  22.074  38.279   0.466
89559W        W61984   2.430  21.809   1.480
89560W        W61985  41.869  43.854  13.307
89561W        W61986   4.296  36.889  13.961
89562W        W61987   6.275  17.959  13.928
89563W        W61988  41.909  37.119   1.397
89564W        W61989  19.815  25.530  10.819
89565W        W61990  25.783  22.876   3.448
89566W        W61991  37.927  44.943   2.354
89567W        W61992  28.960   0.402   2.528
89568W        W61993   5.372  44.827  10.962
89569W        W61994  43.396  16.154  11.953
89570W        W61995  21.492  32.998   0.905
89571W        W61996  22.054  32.720   1.749
89572W        W61997  23.502  25.963  10.932
89573W        W61998  44.742   3.720  14.975
89574W        W61999  36.302   7.455   3.766
89575W        W62000  11.178  26.041   2.293
89576W        W62001  43.492  43.827   1.967
89577W        W62002   6.300  15.996  10.552
89578W        W62003  11.650   0.327   3.656
89579W        W62004  30.519  32.493   4.478
89580W        W62005  17.055  19.010  12.923
89581W        W62006  35.512  34.445  13.549
89582W        W62007  14.420  44.456   5.060
89583W        W62008  22.438  13.268   2.798
89584W        W62009  40.270  27.206  14.887
89585W        W62010  41.770  29.469  13.291
89586W        W62011  19.343  41.942   0.882
89587W        W62012  40.043  21.195   1.903
89588W        W62013  38.492  44.818   4.555
89589W        W62014   1.495  22.050  12.815
89590W        W62015  12.055   2.190  12.448
89591W        W62016  35.380   8.922   1.600
89592W        W62017  41.297   6.066  14.349
89593W        W62018  16.578  15.596   2.171
89594W        W62019  18.943  41.964   5.048
89595W        W62020  26.066  39.076  14.526
89596W        W62021  11.821  36.557  10.550
89597W        W62022  14.726  21.983  11.659
89598W        W62023   8.755   9.822  12.200
89599W        W62024   7.747  22.046  10.743
89600W        W62025  31.103  20.806   2.772
89601W        W62026  39.948   0.577   0.533
89602W        W62027  12.763  33.596   1.258
89603W        W62028  22.603  20.467   1.507
89604W        W62029  32.025  44.472   2.818
89605W        W62030   1.157  26.457   4.100
89606W        W62031   9.199  36.440  14.244
89607W        W62032  25.583  29.734   4.543
89608W        W62033  15.291  22.292   3.258
89609W        W62034  37.392  38.881  10.923
89610W        W62035   9.176   7.172   3.661
89611W        W62036  22.228  18.587  11.570
89612W        W62037  41.234  14.857   0.326
89613W        W62038   3.910  44.856  13.950
89614W        W62039  36.175  17.290  11.185
89615W        W62040  26.696  24.260  10.658
89616W        W62041  34.740   0.265   1.005
89617W        W62042   8.660   8.501  12.188
89618W        W62043  17.171  14.522  11.598
89619W        W62044  26.004  11.637  10.175
89620W        W62045  41.077   1.449  12.454
89621W        W62046  10.771   5.296   2.796
89622W        W62047  18.122  31.675   0.476
89623W        W62048  17.141  29.830  12.174
89624W        W62049  43.868  39.204   3.266
89625W        W62050  43.809  20.126   2.653
89626W        W62051  31.432  28.629  14.434
89627W        W62052  36.295   0.470  14.772
89628W        W62053  14.697   8.252   2.451
89629W        W62054  16.226  42.247   1.443
89630W        W62055   9.736  19.108  12.726
89631W        W62056   4.672  22.998  13.316
89632W        W62057  31.546  10.257  13.557
89633W        W62058  34.279  38.869   0.878
89634W        W62059  35.140  43.133  10.656
89635W        W62060  17.628  19.691   0.788
89636W        W62061  21.434  18.887   2.774
89637W        W62062  16.131  40.415   4.608
89638W        W62063  18.699  30.758   4.720
89639W        W62064  23.252  26.475   1.338
89640W        W62065  24.100  15.353   2.330
89641W        W62066   0.493  29.234   3.147
89642W        W62067  19.172  31.079   3.424
89643W        W62068  18.569  10.913  12.454
89644W        W62069  44.812  12.116  12.894
89645W        W62070  10.203  17.677   3.393
89646W        W62071  16.546  38.785  12.280
89647W        W62072  24.580  10.725   4.771
89648W        W62073  22.490  38.624   1.328
89649W        W62074  21.803  17.106  12.019
89650W        W62075  24.715  41.054   2.136
89651W        W62076   8.247  13.627   2.218
89652W        W62077  39.003   2.718  12.932
89653W        W62078  43.169  42.282   1.936
89654W        W62079  37.343  23.565   2.439
89655W        W62080  12.373   8.429   0.115
89656W        W62081  22.769  36.151   0.848
89657W        W62082  33.916  31.035  12.240
89658W        W62083  12.712  31.721  12.915
89659W        W62084   8.267  18.978   0.280
89660W        W62085  27.661  40.000  11.101
89661W        W62086  28.080   8.226   2.235
89662W        W62087  12.364  39.932  14.428
89663W        W62088  31.423  26.242  14.338
89664W        W62089  20.871  42.934  10.496
89665W        W62090  12.797  37.594   2.260
89666W        W62091  22.644  12.798   2.754
89667W        W62092  14.716   5.753   1.741
89668W        W62093  16.346  26.806   1.478
89669W        W62094  21.693  34.892  13.518
89670W        W62095  28.181  28.711  10.247
89671W        W62096  18.087  30.469   0.950
89672W        W62097   5.382   1.717  12.580
89673W        W62098  43.459  21.216   3.158
89674W        W62099  15.892  41.977   2.718
89675W        W62100  38.434  17.344  13.928
89676W        W62101  12.055  39.273   3.603
89677W        W62102  25.851   5.704   9.899
89678W        W62103  21.869  30.126  13.484
89679W        W62104  25.757  30.870   3.166
89680W        W62105   9.903  13.050   0.064
89681W        W62106  26.617  18.142  14.269
89682W        W62107   6.850   4.811   0.708
89683W        W62108  23.045  31.958   0.822
89684W        W62109  43.330  10.457   2.815
89685W        W62110  34.594  36.428   4.237
89686W        W62111  26.789  33.622   2.849
89687W        W62112  41.456  23.423  12.445
89688W        W62113  27.574  33.286  13.985
89689W        W62114  33.569   2.122   4.215
89690W        W62115  23.921   3.809   0.913
89691W        W62116  22.537  44.991   1.469
89692W        W62117  38.041  17.368  13.416
89693W        W62118  39.764   4.813  13.506
89694W        W62119  26.410  15.596   0.301
89695W        W62120   3.119  22.299   4.911
89696W        W62121  36.856  17.360  10.749
89697W        W62122  36.133  25.119   4.252
89698W        W62123  30.412   1.988   3.666
89699W        W62124  26.592   3.735  12.562
89700W        W62125  21.820  39.318  11.057
89701W        W62126  34.045  13.281   0.867
89702W        W62127   7.625  27.241  12.025
89703W        W62128   8.345  11.567  12.411
89704W        W62129  32.406   2.426  14.483
89705W        W62130  22.999  25.943  10.817
89706W        W62131  16.692  42.033   1.386
89707W        W62132  10.123  16.371  11.241
89708W        W62133  12.110   2.330  14.363
89709W        W62134  13.118   4.919   0.450
89710W        W62135  38.777   7.862   5.016
89711W        W62136   7.219  26.209   3.681
89712W        W62137   9.437  39.357  13.658
89713W        W62138  26.924   4.982  11.075
89714W        W62139  21.216  42.953  13.823
89715W        W62140  39.873  20.805   0.261
89716W        W62141  41.323   7.307  10.762
89717W        W62142  18.125   6.398   3.052
89718W        W62143  31.462  44.390   2.736
89719W        W62144  26.695  26.050   0.931
89720W        W62145  16.173  18.115   0.337
89721W        W62146  14.247   7.464   3.810
89722W        W62147  30.621  41.834  11.031
89723W        W62148   2.676  38.167  14.468
89724W        W62149  17.017  39.185  13.959
89725W        W62150  30.381  17.648   3.846
89726W        W62151  20.586   3.219  11.442
89727W        W62152  14.573   3.799   3.181
89728W        W62153  14.983   2.017   1.882
89729W        W62154  39.817   5.224   1.871
89730W        W62155   6.064  19.629  13.476
89731W        W62156  43.952  40.342  12.825
89732W        W62157  25.945  30.873   0.215
89733W        W62158  37.255  16.015   1.359
89734W        W62159  27.003  29.448  10.858
89735W        W62160  44.976  13.989   0.502
89736W        W62161   0.204  10.540   4.253
89737W        W62162  17.843  11.836  12.960
89738W        W62163   5.140  38.368   1.865
89739W        W62164  37.492  37.430  13.064
89740W        W62165   1.507  27.505   3.253
89741W        W62166  44.229  14.246   4.022
89742W        W62167  21.963   8.970  12.583
89743W        W62168   2.832   6.375  10.637
89744W        W62169   9.265  12.386   4.132
89745W        W62170  42.007  26.938   2.423
89746W        W62171  40.252  24.030  14.903
89747W        W62172   4.211  44.455   4.665
89748W        W62173   9.879  18.995   0.835
89749W        W62174  18.176  31.498  12.962
89750W        W62175  20.221  12.074   4.036
89751W        W62176   9.858  29.892  14.170
89752W        W62177  11.806  25.220  13.932
89753W        W62178   2.849  44.764  12.558
89754W        W62179   5.655  39.399   2.712
89755W        W62180  38.966   9.763   9.837
89756W        W62181  34.384  15.588  11.370
89757W        W62182  10.393  40.432  12.892
89758W        W62183   4.766  28.574   2.161
89759W        W62184  38.845  18.009   4.548
89760W        W62185   4.647   4.208  14.375
89761W        W62186   6.267  12.659  10.895
89762W        W62187  11.639  29.186  11.141
89763W        W62188  35.444   7.148   5.179
89764W        W62189  15.680   3.836   1.808
89765W        W62190  34.113   1.491   2.227
89766W        W62191   4.291  33.931  14.785
89767W        W62192  17.812  40.463   2.776
89768W        W62193  12.055   1.993   4.600
89769W        W62194  34.791  41.811   2.181
89770W        W62195  12.328  28.870   1.321
89771W        W62196  39.568  27.273   3.624
89772W        W62197   9.132  18.608   3.803
89773W        W62198  24.209   2.806   4.877
89774W        W62199  15.136   6.188   4.115
89775W        W62200  42.796  42.415   1.537
89776W        W62201   3.385  31.719   4.641
89777W        W62202  29.598  18.721  13.948
89778W        W62203   8.139  34.630  13.944
89779W        W62204  30.248  17.252   3.228
89780W        W62205  36.112  28.592   3.089
89781W        W62206  17.100  31.205  14.909
89782W        W62207  15.561  18.351  11.568
89783W        W62208  20.372   3.003  12.498
89784W        W62209   3.033  31.862  11.140
89785W        W62210  37.002  16.125  14.039
89786W        W62211   5.330  23.202   4.908
89787W        W62212  10.287  27.465  13.856
89788W        W62213  30.601  22.183   0.240
89789W        W62214  15.760  35.941   9.943
89790W        W62215  21.622  25.844   1.333
89791W        W62216  23.163  33.205   4.560
89792W        W62217   9.289  27.029  14.290
89793W        W62218  40.805   7.745   0.961
89794W        W62219  41.715  36.868   2.368
89795W        W62220  17.147   4.294  14.578
89796W        W62221  29.453  14.741  11.674
89797W        W62222  25.975  43.715  14.871
89798W        W62223  36.808  36.376   4.162
89799W        W62224  19.339  22.677   1.787
89800W        W62225  27.999  20.618  14.534
89801W        W62226  14.256  23.148  11.180
89802W        W62227  33.073  11.118  14.823
89803W        W62228   0.308  42.364  11.055
89804W        W62229   6.913   0.346   3.766
89805W        W62230  18.588  36.750  14.565
89806W        W62231  15.338  44.813   3.771
89807W        W62232   7.146  12.067   2.373
89808W        W62233  11.013  20.126   2.927
89809W        W62234  24.280  35.397  11.242
89810W        W62235  33.742  32.052  12.485
89811W        W62236  34.410   7.730   2.834
89812W        W62237   3.358  11.798   1.637
89813W        W62238   4.487  35.393  11.986
89814W        W62239  10.152  33.095   1.345
89815W        W62240  30.619  10.769  11.294
89816W        W62241  41.230  21.217  13.878
89817W        W62242  28.528  21.560   1.375
89818W        W62243  30.731   3.715  12.758
89819W        W62244   2.450  39.962  12.309
89820W        W62245  20.612  42.461  12.184
89821W        W62246  28.730  25.882   1.363
89822W        W62247  10.162   4.192  11.032
89823W        W62248   5.942   7.476  12.073
89824W        W62249  15.103  25.159   1.732
89825W        W62250  28.410  42.971  10.943
89826W        W62251   6.745  42.598   1.278
89827W        W62252  23.676  39.551  14.451
89828W        W62253  27.585  25.767  12.989
89829W        W62254  41.329  11.812  13.263
89830W        W62255  23.735  28.837  12.503
89831W        W62256  29.735   3.495   2.772
89832W        W62257  26.083  35.865   2.801
89833W        W62258  15.846  44.316  14.220
89834W        W62259  29.408   9.693   4.531
89835W        W62260  20.130  30.853   0.920
89836W        W62261  43.865  27.009   1.796
89837W        W62262  37.926  18.593  11.122
89838W        W62263  23.790  24.173   2.817
89839W        W62264   9.185  32.682  14.022
89840W        W62265  41.402  39.847  14.253
89841W        W62266   2.945  24.639   0.732
89842W        W62267  19.208  21.611  12.136
89843W        W62268  44.052  37.540   5.025
89844W        W62269  25.111  40.351  11.656
89845W        W62270   5.952  25.807  10.652
89846W        W62271  20.461  26.095   3.168
89847W        W62272  30.472  23.427   2.191
89848W        W62273  22.115  28.298  14.436
89849W        W62274  40.886  12.836  11.639
89850W        W62275  23.448  18.866   4.863
89851W        W62276  25.528  41.387  13.489
89852W        W62277  37.616  40.148  11.232
89853W        W62278  43.728  42.760  14.731
89854W        W62279  40.272  37.890   2.342
89855W        W62280   0.479   4.343   0.176
89856W        W62281  33.931  44.909  10.733
89857W        W62282  18.206  34.976  10.628
89858W        W62283  12.276  24.805  11.999
89859W        W62284  30.539  42.264   2.163
89860W        W62285   7.791  29.478  10.612
89861W        W62286  21.766  42.205   2.245
89862W        W62287  43.084  26.937  14.855
89863W        W62288  29.742  20.258  14.486
89864W        W62289  17.089  26.158  13.439
89865W        W62290  21.139  20.715   0.186
89866W        W62291   4.711  22.032  14.049
89867W        W62292  21.348  21.539  14.830
89868W        W62293   5.360   8.142  10.735
89869W        W62294  12.171  13.854  13.126
89870W        W62295  26.259  16.508  11.621
89871W        W62296   4.429  23.973   4.055
89872W        W62297   8.692  30.075   4.423
89873W        W62298  25.907  37.835  13.894
89874W        W62299  28.082   6.593   1.438
89875W        W62300   5.389  37.541  11.855
89876W        W62301  26.945   2.936   1.718
89877W        W62302   8.355   2.551  10.708
89878W        W62303   5.329  21.069  14.876
89879W        W62304  24.558  38.630   2.253
89880W        W62305  41.933   8.656   4.100
89881W        W62306  44.248   7.738   5.009
89882W        W62307   0.285   1.799   4.120
89883W        W62308  28.363  15.135  10.455
89884W        W62309   2.528  28.052   1.919
89885W        W62310  42.078  20.079  12.534
89886W        W62311  12.651   7.658  13.431
89887W        W62312  13.496   3.461   4.612
89888W        W62313  15.110   8.635   1.215
89889W        W62314  39.103   1.726  12.040
89890W        W62315  44.093  18.924   4.135
89891W        W62316  25.793   8.679  12.086
89892W        W62317  15.735  35.032  14.311
89893W        W62318  27.675  24.624   3.088
89894W        W62319  15.032  43.941  11.918
89895W        W62320  17.384  24.068   3.769
89896W        W62321  25.006  18.165  14.796
89897W        W62322  21.747  38.904  11.758
89898W        W62323   2.530  19.233   4.626
89899W        W62324  24.199  12.648   0.773
89900W        W62325   8.880  24.505   4.521
89901W        W62326  12.185  40.086   0.704
89902W        W62327  20.072  26.498   4.284
89903W        W62328  25.961  27.658   1.988
89904W        W62329   2.815  43.480   3.095
89905W        W62330  38.341  27.234  12.546
89906W        W62331   0.391  31.516  13.736
89907W        W62332   4.922  43.180   3.549
89908W        W62333  20.927  30.850   0.264
89909W        W62334  44.411   0.771   2.229
89910W        W62335  26.622   0.775   2.773
89911W        W62336  14.419   3.548  12.454
89912W        W62337   8.251  24.064  14.430
89913W        W62338  40.297  19.524   0.441
89914W        W62339  33.542  35.344  14.486
89915W        W62340  21.384  16.308   3.025
89916W        W62341  17.547  13.236   3.649
89917W        W62342  26.662  38.540   1.188
89918W        W62343  39.599  23.684   3.407
89919W        W62344  15.079  10.199   1.255
89920W        W62345   2.512  44.922  10.554
89921W        W62346   8.737  32.634   1.393
89922W        W62347  18.259  11.342   1.222
89923W        W62348  28.389   4.340  13.336
89924W        W62349  16.102  11.379   1.047
89925W        W62350  31.593   2.722   2.134
89926W        W62351  31.860  29.629   2.901
89927W        W62352  24.225   8.283   0.288
89928W        W62353  39.034  27.197   2.161
89929W        W62354  11.161  25.940  11.209
89930W        W62355  15.768   3.018   1.305
89931W        W62356  19.222  28.431  12.028
89932W        W62357  13.845  31.430   3.650
89933W        W62358   3.333  35.416  14.541
89934W        W62359  19.708  41.409   1.958
89935W        W62360   0.019  43.859   2.613
89936W        W62361  13.727  22.588   0.883
89937W        W62362   9.326  25.189   1.424
89938W        W62363   3.710  23.056  13.454
89939W        W62364   2.504  16.683   0.437
89940W        W62365  25.293  11.171   3.762
89941W        W62366  30.401  41.839  12.641
89942W        W62367  17.218  40.437   3.688
89943W        W62368  22.846  30.539  13.385
89944W        W62369  38.614  17.086   9.939
89945W        W62370   8.313  22.519   2.755
89946W        W62371  39.904  14.769   3.190
89947W        W62372  37.766   2.483  12.973
89948W        W62373  36.640   1.967   0.974
89949W        W62374  11.099  31.662  13.813
89950W        W62375  36.869  12.029   4.732
89951W        W62376  23.727  33.977  13.374
89952W        W62377  42.009  35.614   2.360
89953W        W62378  23.239   0.861   2.258
89954W        W62379  14.377  44.780   1.138
89955W        W62380  36.662   8.174   0.296
89956W        W62381  24.682  22.611  11.760
89957W        W62382  33.679  18.186  14.827
89958W        W62383  33.922  36.398  11.768
89959W        W62384   3.394  14.358   5.031
89960W        W62385  34.336  42.756   4.767
89961W        W62386  38.025   9.965  10.168
89962W        W62387   0.375   8.348   4.141
89963W        W62388  19.101   3.844   4.918
89964W        W62389  37.848  22.435  14.429
89965W        W62390  32.482  39.791  14.791
89966W        W62391   8.369   4.319  13.015
89967W        W62392  13.817  43.293  12.076
89968W        W62393  32.163   0.852   1.534
89969W        W62394  26.907  23.546  14.927
89970W        W62395  23.092   3.719   1.333
89971W        W62396  16.179  14.378  10.731
89972W        W62397  31.861   0.491  14.937
89973W        W62398  13.331   6.707   2.618
89974W        W62399  23.771  40.518  12.168
89975W        W62400  28.144   4.217  10.604
89976W        W62401  12.658  39.319  14.930
89977W        W62402  42.779  21.716  10.345
89978W        W62403  30.139  30.710   2.049
89979W        W62404  25.666  40.986   1.761
89980W        W62405  16.680  40.404  11.688
89981W        W62406  16.266  18.994  11.866
89982W        W62407  30.688  44.440  14.969
89983W        W62408  11.174  35.933   3.806
89984W        W62409  18.525  26.227  14.877
89985W        W62410  12.078  11.385  14.672
89986W        W62411   8.964   6.151   3.698
89987W        W62412  41.967  17.804  10.964
89988W        W62413  24.053  14.525  13.189
89989W        W62414  28.287   9.346  12.967
89990W        W62415   6.007  43.553   0.755
89991W        W62416  38.597  26.638   3.191
89992W        W62417  35.283  43.725  12.030
89993W        W62418  11.203  27.003  12.087
89994W        W62419   3.851  21.248   1.697
89995W        W62420   8.893  29.901  13.841
89996W        W62421  44.955  17.539  14.108
89997W        W62422  44.880  33.197  10.992
89998W        W62423  10.285  15.577  14.794
89999W        W62424  37.922  10.897   2.709
90000W        W62425   7.266  35.325  13.352
90001W        W62426  28.551  44.374  12.898
90002W        W62427  40.059   3.414   0.745
90003W        W62428  34.880  16.076  14.233
90004W        W62429  30.941  15.355   1.335
90005W        W62430   8.160   3.368  12.891
90006W        W62431  10.082  34.256  11.598
90007W        W62432   9.202   6.680   2.392
90008W        W62433   0.285   1.891  11.810
90009W        W62434  28.395  10.460  12.411
90010W        W62435  10.188  39.565   3.106
90011W        W62436  17.919  30.432   2.622
90012W        W62437  14.327  15.595   0.789
90013W        W62438  27.932   1.268   2.851
90014W        W62439   3.008  13.712   1.850
90015W        W62440   3.832  14.521   1.706
90016W        W62441   2.165  18.886  11.589
90017W        W62442  36.186  36.481  10.763
90018W        W62443  17.152   2.346  11.559
90019W        W62444  27.576   7.465  14.007
90020W        W62445  23.153  43.922  11.439
90021W        W62446  28.143   6.878  13.515
90022W        W62447  33.628  36.868  11.827
90023W        W62448   8.239  11.355   4.357
90024W        W62449  35.977   0.702  12.035
90025W        W62450  29.208   5.282   0.022
90026W        W62451   6.227  14.333   3.475
90027W        W62452  29.580  43.936   4.198
90028W        W62453  35.847  28.634  14.407
90029W        W62454   6.894  29.630  14.277
90030W        W62455  29.183  10.094   2.793
90031W        W62456  38.336  32.155  14.824
90032W        W62457  19.794  35.775  11.983
90033W        W62458  18.764   9.813   1.069
90034W        W62459  41.832  40.422  10.238
90035W        W62460  39.097  25.040   3.174
90036W        W62461  22.570   6.804   4.398
90037W        W62462  30.613  28.575   4.981
90038W        W62463  41.105  41.288  14.334
90039W        W62464  32.513  10.338  13.039
90040W        W62465  25.548  31.193  12.381
90041W        W62466   4.553   7.897   1.524
90042W        W62467  39.387   9.599  12.598
90043W        W62468   2.688  19.321   3.722
90044W        W62469  22.718  12.896  14.965
90045W        W62470   9.026   2.345   2.647
90046W        W62471  37.260  33.463  10.113
90047W        W62472  31.736  13.828  14.774
90048W        W62473  44.118   0.468   3.007
90049W        W62474   0.915  35.241   4.559
90050W        W62475   0.901  14.302   0.814
90051W        W62476  12.570  12.370  12.892
90052W        W62477  41.752  44.811   4.137
90053W        W62478   1.110  10.578  14.350
90054W        W62479  37.609  32.580   1.726
90055W        W62480  18.168  15.675  13.885
90056W        W62481  24.219  13.716  11.608
90057W        W62482  18.006   5.511   0.438
90058W        W62483  17.769  42.674  12.141
90059W        W62484  34.381   8.772  10.281
90060W        W62485  24.148  10.867  12.240
90061W        W62486  19.613   4.913   3.687
90062W        W62487   7.165  19.167  10.718
90063W        W62488  38.945  35.492   3.714
90064W        W62489  39.427  43.394  11.105
90065W        W62490  13.275   2.698  11.456
90066W        W62491  40.833   5.900   4.165
90067W        W62492  23.504   5.254   1.257
90068W        W62493  15.711  28.676   4.116
90069W        W62494  10.715  44.762  12.139
90070W        W62495  33.299   1.847   1.716
90071W        W62496  21.665   8.154  12.438
90072W        W62497  25.434   7.921  12.519
90073W        W62498  28.241  21.417   4.498
90074W        W62499  16.010   6.700   3.202
90075W        W62500  40.453  17.536   3.713
90076W        W62501  13.413  42.861   4.093
90077W        W62502   7.250  17.248  12.106
90078W        W62503  15.160  32.170  13.394
90079W        W62504  44.194  17.440   3.415
90080W        W62505  23.511  35.374  14.455
90081W        W62506  22.727  34.015  10.661
90082W        W62507  40.106   2.434  11.574
90083W        W62508  12.637   5.897   1.797
90084W        W62509  22.545   1.204   4.118
90085W        W62510  33.206  39.697   3.205
90086W        W62511  18.143  32.617   0.238
90087W        W62512  27.702  28.132   4.624
90088W        W62513  37.969  23.096   1.282
90089W        W62514  42.849  41.432   4.680
90090W        W62515  40.879   8.559   2.187
90091W        W62516  35.532   4.703   0.829
90092W        W62517  30.108  37.423   1.374
90093W        W62518  25.370  44.892  14.601
90094W        W62519  21.044   7.476  13.470
90095W        W62520  39.183  38.438  11.586
90096W        W62521  29.424   5.327  11.255
90097W        W62522  13.312  25.673   2.412
90098W        W62523   9.310   3.026   3.175
90099W        W62524  12.489  23.633   1.013
90100W        W62525  44.795  41.197   1.981
90101W        W62526  18.980   1.186   3.571
90102W        W62527  39.519  28.638   2.918
90103W        W62528  43.268  27.205   4.582
90104W        W62529  22.014  19.340   2.182
90105W        W62530  23.295  43.379   1.716
90106W        W62531   4.958  43.292   2.319
90107W        W62532  12.254  32.176  12.492
90108W        W62533   6.686  21.032   1.247
90109W        W62534  24.397  14.471  10.357
90110W        W62535  14.764  35.253  10.181
90111W        W62536  19.039  35.473  14.465
90112W        W62537  26.142  42.874  13.815
90113W        W62538  17.323  39.032   1.795
90114W        W62539  41.293  25.781  13.765
90115W        W62540  38.234   3.362   0.409
90116W        W62541   5.820  30.060  11.533
90117W        W62542  24.026  11.877  14.713
90118W        W62543   3.867  13.767  12.056
90119W        W62544  32.157  33.892  10.808
90120W        W62545   7.227  32.450  14.928
90121W        W62546  15.706  13.629   1.179
90122W        W62547  13.960  30.477   0.931
90123W        W62548  38.412  12.380   0.855
90124W        W62549  33.020  35.905  13.392
90125W        W62550  38.544  43.472  10.721
90126W        W62551  43.399  13.073   4.521
90127W        W62552  29.282  38.457   9.839
90128W        W62553  38.372   6.253  11.158
90129W        W62554  35.861   4.758  14.427
90130W        W62555  21.859  29.653   0.867
90131W        W62556  21.071   7.730   4.118
90132W        W62557  36.357   2.655  11.895
90133W        W62558  42.564   5.987  11.492
90134W        W62559  28.598   6.784   1.318
90135W        W62560   5.458  34.575   4.483
90136W        W62561  39.191  27.589  11.548
90137W        W62562   6.078  13.225   1.404
90138W        W62563  33.542  22.950   0.340
90139W        W62564  31.408  37.444   4.513
90140W        W62565  17.517   5.717  13.845
90141W        W62566   7.438  37.779  14.864
90142W        W62567   3.351  25.590   1.507
90143W        W62568  12.901  37.605  13.585
90144W        W62569  27.643  19.986   4.611
90145W        W62570  34.855  10.914   4.551
90146W        W62571  27.182  25.497   4.130
90147W        W62572  27.062  24.481   0.320
90148W        W62573  21.870  22.982  14.433
90149W        W62574   0.552  14.581  11.378
90150W        W62575   7.934  28.731  11.143
90151W        W62576   4.678  24.992   1.736
90152W        W62577  16.440  32.222  10.147
90153W        W62578  12.795  36.441  13.356
90154W        W62579  42.221  36.948  12.168
90155W        W62580   8.661  28.655   3.241
90156W        W62581  20.220  23.094  12.625
90157W        W62582   0.436   6.446  14.574
90158W        W62583   0.847  29.457   1.274
90159W        W62584  36.501  24.212  11.109
90160W        W62585   7.506  38.841  10.604
90161W        W62586  43.840  11.872   0.335
90162W        W62587  18.291  25.627  12.878
90163W        W62588  37.901   8.474   0.888
90164W        W62589  21.221   6.421   3.686
90165W        W62590   2.035  44.792  12.122
90166W        W62591  20.608  18.225  12.652
90167W        W62592   4.148  32.161   4.065
90168W        W62593  43.645  32.177   4.574
90169W        W62594  33.283  13.780   3.129
90170W        W62595   8.087  20.378  13.057
90171W        W62596   5.475  18.376  11.151
90172W        W62597   6.774   8.280  11.256
90173W        W62598  22.683  31.736   2.878
90174W        W62599  11.384  37.860   0.931
90175W        W62600  21.532   5.487   3.307
90176W        W62601   6.254  11.592   2.283
90177W        W62602  28.983  25.170  14.731
90178W        W62603   6.655  21.570  13.001
90179W        W62604  25.309   8.820  11.275
90180W        W62605  36.916  40.345  14.551
90181W        W62606  12.653  11.550   3.734
90182W        W62607  12.884  32.944  13.236
90183W        W62608  27.261  21.703  12.318
90184W        W62609  35.540  27.612   3.198
90185W        W62610  19.749  15.418  12.607
90186W        W62611   1.267  42.182  12.091
90187W        W62612  13.633  18.034   3.651
90188W        W62613  41.922  22.899  13.632
90189W        W62614   0.887  31.411  12.060
90190W        W62615   5.807  16.374   2.785
90191W        W62616  34.383   6.792  13.526
90192W        W62617  19.110  38.455   1.798
90193W        W62618  41.903  40.263   3.705
90194W        W62619  16.462  42.268   0.963
90195W        W62620  16.659  23.394  13.550
90196W        W62621  18.959  35.912   0.290
90197W        W62622   0.968  38.991   4.453
90198W        W62623  20.980  27.031   1.849
90199W        W62624  22.064   1.338   2.805
90200W        W62625  39.093  37.519  13.718
90201W        W62626  42.796   0.726  10.686
90202W        W62627   8.254  19.047  14.780
90203W        W62628  29.004  26.055   0.230
90204W        W62629  10.327  38.463  11.939
90205W        W62630  18.059   1.170  11.561
90206W        W62631   7.655  40.917   2.263
90207W        W62632  43.857  21.135  10.842
90208W        W62633  14.171  44.464  12.180
90209W        W62634  12.401  30.213  11.595
90210W        W62635  21.146  32.099   2.388
90211W        W62636  26.557  14.151  11.196
90212W        W62637   3.267  18.844  10.792
90213W        W62638  31.518  38.797   0.170
90214W        W62639  36.909  42.468  12.915
90215W        W62640  26.254  30.201   5.100
90216W        W62641  13.686   7.019   0.022
90217W        W62642  33.588  42.846  14.007
90218W        W62643  31.338  21.479  11.503
90219W        W62644  28.281  32.081  14.716
90220W        W62645   8.618  30.271   1.629
90221W        W62646   5.981   3.308  14.998
90222W        W62647   3.826  11.802  10.679
90223W        W62648  24.165  17.276   4.539
90224W        W62649   8.847  24.972  12.185
90225W        W62650  12.038   0.742   2.333
90226W        W62651  14.146  12.603  13.380
90227W        W62652   9.946   5.950  13.417
90228W        W62653   5.772  43.250   0.394
90229W        W62654  10.219  16.041  14.050
90230W        W62655   5.663  12.874   2.736
90231W        W62656  19.229   6.686   2.598
90232W        W62657  10.506  13.174   4.127
90233W        W62658  23.550  20.265   1.354
90234W        W62659  39.011  12.398   3.445
90235W        W62660  17.681  35.901  10.868
90236W        W62661  15.993  28.958  10.322
90237W        W62662  11.631  18.781   1.912
90238W        W62663  44.958  10.563  12.936
90239W        W62664  20.609  33.376   0.900
90240W        W62665  12.268  32.420  13.079
90241W        W62666   7.913  38.028  14.951
90242W        W62667  22.568   7.202   2.011
90243W        W62668  31.942  32.985   2.992
90244W        W62669  39.607  25.953  11.840
90245W        W62670  14.835  31.683   2.152
90246W        W62671  17.191  31.517  10.990
90247W        W62672  14.586  42.943   0.939
90248W        W62673  41.452  35.459   3.810
90249W        W62674  10.319   3.514   4.134
90250W        W62675  12.447   8.380   3.693
90251W        W62676  30.863   6.311   5.070
90252W        W62677   3.591  26.664   4.950
90253W        W62678  15.064   3.992   0.442
90254W        W62679  12.177  25.490   2.743
90255W        W62680  43.565   7.073   2.653
90256W        W62681  35.523  34.573  10.669
90257W        W62682  15.724  23.495   1.782
90258W        W62683  17.788  31.520   2.773
90259W        W62684  27.219  31.037   9.929
90260W        W62685  29.324  20.259  14.786
90261W        W62686  18.155  24.864   1.903
90262W        W62687  21.582  23.850  14.044
90263W        W62688  17.626   3.587   3.785
90264W        W62689  28.178  40.565  13.512
90265W        W62690  38.050  14.559   2.390
90266W        W62691  30.930  23.126   1.425
90267W        W62692  39.423  28.081   3.581
90268W        W62693   0.156  30.174  10.745
90269W        W62694  10.464  40.539  10.744
90270W        W62695  10.860  23.971  14.400
90271W        W62696  16.159   7.560   3.652
90272W        W62697  33.788  34.398   3.207
90273W        W62698   5.501  43.522  13.023
90274W        W62699  24.412  31.041   3.369
90275W        W62700  30.038  24.104   4.852
90276W        W62701  19.171   8.713  11.479
90277W        W62702  33.198  34.370  13.433
90278W        W62703  20.525  10.004   4.533
90279W        W62704  35.694  25.793  12.461
90280W        W62705  28.551  31.559  11.157
90281W        W62706  26.772  10.487   3.305
90282W        W62707  35.883  10.425   1.181
90283W        W62708   6.481  17.242   2.412
90284W        W62709  13.694  39.775  10.757
90285W        W62710  16.672  14.254  10.672
90286W        W62711  41.950   2.018  13.416
90287W        W62712   4.016  31.569  13.577
90288W        W62713  38.846   0.330  11.233
90289W        W62714  26.468  36.864  13.875
90290W        W62715  15.714  40.715  13.812
90291W        W62716  11.193  10.715   1.684
90292W        W62717   4.200  24.225   0.309
90293W        W62718  31.883  13.551  12.881
90294W        W62719  32.854  21.981  10.787
90295W        W62720  43.768   7.879   2.890
90296W        W62721  14.835   9.896  11.721
90297W        W62722  14.643  20.676  12.064
90298W        W62723  20.247  31.163   1.823
90299W        W62724  41.890  43.007   3.404
90300W        W62725  32.225  33.437   0.707
90301W        W62726  21.335  16.126   2.548
90302W        W62727  13.700  20.541  13.349
90303W        W62728  41.331   6.767  12.655
90304W        W62729   5.924  29.461  10.353
90305W        W62730  10.198  18.988   1.278
90306W        W62731  26.511  43.047   3.699
90307W        W62732  17.182  43.150  10.273
90308W        W62733   3.370  26.644  13.968
90309W        W62734   6.663   0.960  13.530
90310W        W62735  18.586  10.898  13.633
90311W        W62736  12.422  27.514  11.119
90312W        W62737  22.457  15.571   4.207
90313W        W62738  13.590   9.211   3.631
90314W        W62739  26.049  32.683   2.787
90315W        W62740  19.090   7.114   2.844
90316W        W62741  16.776  40.709   1.951
90317W        W62742  13.288  38.510   2.466
90318W        W62743   0.761  23.261   1.592
90319W        W62744   6.792  16.174  10.715
90320W        W62745   5.444  28.426   1.750
90321W        W62746  29.348  29.442   2.778
90322W        W62747  17.008   6.467   5.025
90323W        W62748  39.932  44.951  11.363
90324W        W62749   0.325  26.572   0.355
90325W        W62750  15.304  16.629  14.996
90326W        W62751  42.343  22.153  14.509
90327W        W62752  18.171  10.652   4.182
90328W        W62753   5.510  12.018  14.862
90329W        W62754  42.050  12.788   3.925
90330W        W62755  34.368  36.583  11.524
90331W        W62756   3.354  13.907   4.008
90332W        W62757  44.674  19.657  12.072
90333W        W62758   3.282  28.970  14.353
90334W        W62759   1.031  10.974  12.037
90335W        W62760  27.202   7.224   0.869
90336W        W62761  14.232  16.242   0.991
90337W        W62762  39.221  33.420   2.838
90338W        W62763   6.637  31.458  14.308
90339W        W62764  44.219  28.022  12.013
90340W        W62765  29.075   3.122   4.426
90341W        W62766  12.802   0.323  13.015
90342W        W62767   5.501  24.022  14.863
90343W        W62768  34.875  35.674   3.308
90344W        W62769  28.258  40.049  13.334
90345W        W62770  38.358  44.524   4.139
90346W        W62771   4.692  29.521   3.655
90347W        W62772  34.905   7.646   2.230
90348W        W62773  42.572   9.299   4.367
90349W        W62774   8.765   6.870  13.389
90350W        W62775  19.486  43.859   0.760
90351W        W62776  18.265  20.104  11.186
90352W        W62777  19.238   1.200   2.281
90353W        W62778   3.146  15.376   4.970
90354W        W62779  41.176  20.747  10.233
90355W        W62780   0.352  19.079  12.384
90356W        W62781  30.555  40.511  11.408
90357W        W62782   8.964   2.375   0.823
90358W        W62783  39.363  38.789  11.936
90359W        W62784  29.023  43.348   1.378
90360W        W62785   8.387  20.077  14.798
90361W        W62786  13.088  13.696  10.621
90362W        W62787  43.809  15.256   2.859
90363W        W62788  40.591  29.183  13.817
90364W        W62789   6.143  18.408  13.027
90365W        W62790  17.575  27.485   4.161
90366W        W62791  41.395  32.860  11.533
90367W        W62792   5.876  24.709   2.171
90368W        W62793  43.756  34.818   5.211
90369W        W62794  27.151  25.345   1.569
90370W        W62795  17.375  11.923  12.765
90371W        W62796  20.664  10.362   9.792
90372W        W62797  34.428  21.873  10.537
90373W        W62798  26.640  11.318  12.625
90374W        W62799  29.180  23.711  11.596
90375W        W62800  18.556  36.162   3.858
90376W        W62801   0.572  25.464  11.141
90377W        W62802  11.147   0.319   3.736
90378W        W62803   1.485   7.369  14.101
90379W        W62804  35.899  37.003  12.548
90380W        W62805  35.277  44.013   2.795
90381W        W62806  27.491   2.232  12.029
90382W        W62807  33.984  19.631   2.314
90383W        W62808  42.438  31.742   2.544
90384W        W62809  39.588  22.009   3.616
90385W        W62810   5.978  20.706  10.373
90386W        W62811  32.941  29.704   2.409
90387W        W62812  42.168  17.226   5.045
90388W        W62813  26.183  24.471   1.494
90389W        W62814  17.030  14.165   5.124
90390W        W62815  43.884  37.482   4.012
90391W        W62816  21.280  43.232   0.823
90392W        W62817  27.003  31.323   1.108
90393W        W62818  30.569  18.567   2.771
90394W        W62819  32.145  39.733  11.113
90395W        W62820  27.815  18.142  11.414
90396W        W62821  37.110  22.595   3.153
90397W        W62822  44.457  28.040   0.898
90398W        W62823  33.596  35.534   3.640
90399W        W62824  21.621  14.651  12.791
90400W        W62825  29.935  21.116   2.223
90401W        W62826  37.629  28.198   4.713
90402W        W62827  34.782   7.443  14.840
90403W        W62828  29.390  20.935   1.265
90404W        W62829  18.650  32.427  10.740
90405W        W62830  18.012  32.742   1.135
90406W        W62831  26.512  36.158   2.790
90407W        W62832   4.738  21.276  12.492
90408W        W62833  22.501  29.112   0.339
90409W        W62834  39.584  15.615  14.722
90410W        W62835  37.151   5.182   3.272
90411W        W62836  33.839  23.278  12.675
90412W        W62837  31.366  30.710  11.025
90413W        W62838   0.180  38.348   4.586
90414W        W62839  26.588  44.362  12.549
90415W        W62840  33.586  36.383   3.217
90416W        W62841  12.191   0.753  12.364
90417W        W62842  35.155  42.596   1.770
90418W        W62843  10.833  36.868   0.339
90419W        W62844   8.666  25.065  11.239
90420W        W62845  18.378  39.055   1.762
90421W        W62846  33.787  16.430  10.406
90422W        W62847  39.125  26.664   3.137
90423W        W62848  39.345  34.640   1.091
90424W        W62849  33.444  10.412  14.921
90425W        W62850  23.232  35.478   0.051
90426W        W62851   3.892  25.912   4.239
90427W        W62852  32.540  18.097  10.628
90428W        W62853   0.326  10.766  12.120
90429W        W62854  37.457  25.694   1.750
90430W        W62855  22.588  27.576  12.952
90431W        W62856  19.215  11.609  10.662
90432W        W62857  23.511  27.644  10.717
90433W        W62858  42.348  26.748  13.734
90434W        W62859  17.750  42.177  12.175
90435W        W62860  41.126  21.712  12.495
90436W        W62861  41.900  10.342   9.943
90437W        W62862   0.917  24.864   3.160
90438W        W62863  15.717  24.566   2.872
90439W        W62864  44.878   1.395   3.233
90440W        W62865   0.458  15.117   2.809
90441W        W62866  24.871  18.696  11.703
90442W        W62867  14.198  15.578   3.102
90443W        W62868   9.200  34.838   4.609
90444W        W62869  36.949  30.216  12.820
90445W        W62870  33.330  29.151   3.740
90446W        W62871  30.922  30.466  11.050
90447W        W62872  44.702   3.836   1.822
90448W        W62873  42.261  31.976  14.742
90449W        W62874  14.824  12.898   4.194
90450W        W62875  23.163  27.518   1.325
90451W        W62876   7.761  35.610   3.353
90452W        W62877   5.744  26.221   4.967
90453W        W62878  19.080  41.531  10.693
90454W        W62879  38.583   3.766   1.748
90455W        W62880  21.638   1.493  12.549
90456W        W62881  23.217  35.432   2.425
90457W        W62882  21.779  22.737   1.336
90458W        W62883  13.049  15.981  13.830
90459W        W62884  42.429  25.083  11.512
90460W        W62885  22.781  19.525   2.344
90461W        W62886   4.123  30.649   2.332
90462W        W62887  33.866  13.704  13.481
90463W        W62888  36.149  44.918   2.498
90464W        W62889  28.117  40.224  10.325
90465W        W62890   7.679  12.628  12.797
90466W        W62891  27.892   0.766  12.829
90467W        W62892  39.032   7.916  11.905
90468W        W62893  10.267  32.036  14.857
90469W        W62894  24.691   3.166   2.781
90470W        W62895  36.695  21.975   0.370
90471W        W62896  44.739  35.180   3.247
90472W        W62897  37.012  15.128  13.410
90473W        W62898  42.481  25.043   2.013
90474W        W62899  14.159  21.116   4.161
90475W        W62900  29.649   5.306  14.735
90476W        W62901   6.876  23.693  11.475
90477W        W62902  32.886  31.110  11.987
90478W        W62903  10.624   4.204   0.678
90479W        W62904  29.047  23.207   2.929
90480W        W62905  23.455  28.179   4.885
90481W        W62906   4.701  35.077   3.344
90482W        W62907  35.522  32.013  11.697
90483W        W62908  25.472  16.002   2.069
90484W        W62909  35.581  33.850  12.903
90485W        W62910  41.746   2.245  12.496
90486W        W62911  34.055  21.602  14.916
90487W        W62912  35.758  12.759  14.159
90488W        W62913  15.204   7.576  12.922
90489W        W62914  34.938  13.607  14.312
90490W        W62915   7.501  21.034   4.503
90491W        W62916  26.407  44.017   4.597
90492W        W62917  15.712  20.189   4.482
90493W        W62918  26.696  23.644  11.212
90494W        W62919   5.157  15.134   1.355
90495W        W62920   6.128  37.080   1.694
90496W        W62921  31.155  24.572   1.371
90497W        W62922  11.428  24.157   4.083
90498W        W62923  43.370  17.704   1.508
90499W        W62924  11.918  42.431  12.381
90500W        W62925  40.598  36.832   3.831
90501W        W62926   0.476  28.907  13.382
90502W        W62927   9.939  14.218   4.178
90503W        W62928  10.905   8.720   1.252
90504W        W62929   0.979   7.262  14.869
90505W        W62930   0.495  14.568   2.920
90506W        W62931  18.270  32.145  10.418
90507W        W62932  13.669  34.993  10.485
90508W        W62933  31.469  20.457   3.575
90509W        W62934  28.655  42.988   1.397
90510W        W62935   5.184  20.479  14.200
90511W        W62936  31.597  15.579  13.835
90512W        W62937   3.119  11.191  14.054
90513W        W62938  24.525  34.139   2.427
90514W        W62939  18.088  29.990  13.646
90515W        W62940  42.317   9.653  10.606
90516W        W62941  24.443   1.895   2.370
90517W        W62942  15.343  18.697  12.381
90518W        W62943  31.990  30.556  13.102
90519W        W62944  43.548  44.781  11.897
90520W        W62945  12.839  43.731   4.147
90521W        W62946   9.676  39.339   1.301
90522W        W62947  20.580  16.841   2.872
90523W        W62948  16.710  24.497  11.917
90524W        W62949  15.564   4.378  13.623
90525W        W62950  41.405  34.636  12.050
90526W        W62951  32.464   7.184   2.375
90527W        W62952   4.858  14.212  11.544
90528W        W62953  16.532  18.553   0.819
90529W        W62954  22.619  34.166   2.784
90530W        W62955  12.311  15.152   0.986
90531W        W62956   4.883  43.979  12.467
90532W        W62957  22.237  17.531   1.926
90533W        W62958  10.296  29.149  12.084
90534W        W62959  24.991  28.062   2.857
90535W        W62960  32.608  17.033   4.270
90536W        W62961   9.937  13.053   3.245
90537W        W62962  39.823  23.721  14.081
90538W        W62963  10.378  18.501   1.326
90539W        W62964  16.691  30.563   0.707
90540W        W62965  39.935  16.087  11.905
90541W        W62966  24.919  36.919  11.585
90542W        W62967  29.167  28.249   0.412
90543W        W62968  43.858  16.039  14.057
90544W        W62969   0.708  26.632  12.106
90545W        W62970  32.657  34.861  11.692
90546W        W62971  41.319   8.928   3.386
90547W        W62972  15.562  26.836  13.817
90548W        W62973  21.632  23.488  13.118
90549W        W62974  26.932  19.256  10.660
90550W        W62975  41.374  43.602  14.843
90551W        W62976   8.684  14.619  11.028
90552W        W62977  10.151  41.849  13.786
90553W        W62978   9.245  15.824   1.013
90554W        W62979  17.037  11.856  14.481
90555W        W62980   9.913  31.107  12.454
90556W        W62981  21.933  44.836   3.492
90557W        W62982  27.728   1.478  14.360
90558W        W62983  17.165   8.757  10.681
90559W        W62984  35.103  26.633  11.947
90560W        W62985  21.250  34.965  10.489
90561W        W62986  44.485  34.971   3.735
90562W        W62987  30.081   5.619  14.458
90563W        W62988  38.403  44.910  13.073
90564W        W62989  43.352  27.486  13.615
90565W        W62990  27.537  40.410   0.743
90566W        W62991   5.861  41.348   4.312
90567W        W62992  16.025  32.461  14.062
90568W        W62993  41.953  28.276  13.944
90569W        W62994  24.477  29.062  11.376
90570W        W62995  31.122   2.820  14.248
90571W        W62996   3.429  25.217   3.093
90572W        W62997  30.701  23.306   5.168
90573W        W62998   4.938  33.291   0.951
90574W        W62999  17.598  12.534   4.599
90575W        W63000   8.900  21.210  10.721
90576W        W63001  41.579  23.879  13.752
90577W        W63002   5.382  41.393  11.138
90578W        W63003   4.551  36.514  11.078
90579W        W63004  32.167  14.600   2.263
90580W        W63005   5.803  17.813   0.964
90581W        W63006  29.522  35.896   0.071
90582W        W63007  29.201  28.289   3.139
90583W        W63008  26.565  31.534   3.077
90584W        W63009  16.031  16.798   0.401
90585W        W63010  25.424  38.377  14.771
90586W        W63011  35.864  42.516   4.136
90587W        W63012   7.898  15.658  11.200
90588W        W63013   7.592   5.613   4.691
90589W        W63014   3.864  18.618   4.255
90590W        W63015  34.919   2.410   1.965
90591W        W63016   8.235  44.907  13.475
90592W        W63017   2.819  34.782  14.001
90593W        W63018  31.015  40.746   1.317
90594W        W63019  13.147  33.345  13.012
90595W        W63020   9.132  27.511  14.447
90596W        W63021  26.211  38.627  13.572
90597W        W63022  37.338  16.233   3.613
90598W        W63023  20.628  14.218   2.496
90599W        W63024  40.295  40.079  13.130
90600W        W63025   2.697   1.880   3.739
90601W        W63026  11.475   8.868  13.799
90602W        W63027  39.924   9.218   0.167
90603W        W63028  16.574  14.662  14.504
90604W        W63029  19.754  25.012   4.164
90605W        W63030  32.324  30.109  11.901
90606W        W63031  24.197  35.993  13.385
90607W        W63032  17.732  29.687   4.204
90608W        W63033  16.730  29.113   2.683
90609W        W63034  31.030  12.597   1.307
90610W        W63035   2.870  23.010   4.253
90611W        W63036  35.390   2.737  14.054
90612W        W63037   4.839  35.506  14.333
90613W        W63038  24.555  32.215   0.957
90614W        W63039  41.803  30.975   1.242
90615W        W63040  38.323  36.770  12.169
90616W        W63041  44.321  34.003   4.933
90617W        W63042  14.865  25.407  12.426
90618W        W63043   5.608  28.640   4.480
90619W        W63044   1.231  27.252  14.016
90620W        W63045   3.692   6.688   4.692
90621W        W63046  26.193  22.588   2.210
90622W        W63047  28.954  31.149   2.949
90623W        W63048   7.344  15.322  14.225
90624W        W63049  33.514  16.256  10.867
90625W        W63050  26.398  36.217  12.428
90626W        W63051  20.600  17.297   1.386
90627W        W63052  29.037  13.142   2.793
90628W        W63053  24.063  19.061   3.593
90629W        W63054  16.696  27.390  14.891
90630W        W63055   4.247  38.697   4.814
90631W        W63056  29.781  14.596  14.384
90632W        W63057  31.116  29.625   4.293
90633W        W63058  19.118  42.553  13.067
90634W        W63059  33.536   7.293  11.404
90635W        W63060   3.766  44.179   0.061
90636W        W63061  32.213  26.432  13.418
90637W        W63062  10.345  30.691   2.709
90638W        W63063   5.216   1.711  14.872
90639W        W63064  41.449  28.890  13.782
90640W        W63065   4.439  15.994   0.349
90641W        W63066  10.286  38.418   4.505
90642W        W63067  37.866  33.213   0.494
90643W        W63068   0.212  19.650   2.647
90644W        W63069  33.708  30.357  10.466
90645W        W63070  38.128  44.271   2.865
90646W        W63071  20.780  38.352   0.609
90647W        W63072   0.314  23.652   2.938
90648W        W63073   3.830  29.835  14.755
90649W        W63074   4.315  41.866   1.439
90650W        W63075  25.666  10.627   0.115
90651W        W63076   2.738  44.009   0.891
90652W        W63077  20.548   7.643  12.133
90653W        W63078  11.576  40.199   3.672
90654W        W63079  13.312  36.057  14.095
90655W        W63080  33.852  42.669   4.613
90656W        W63081  17.378   0.318  10.740
90657W        W63082   3.437  31.841   2.618
90658W        W63083  44.974  26.476  14.906
90659W        W63084  41.263   0.965  12.415
90660W        W63085   8.624   8.737   4.867
90661W        W63086  31.407  17.996  14.431
90662W        W63087   9.188  15.267   3.736
90663W        W63088   2.161  23.601  13.853
90664W        W63089   5.977  20.599   3.452
90665W        W63090  10.854  18.582  11.238
90666W        W63091  41.754   0.169   4.646
90667W        W63092  23.591  37.911  11.102
90668W        W63093  14.225  24.536  10.212
90669W        W63094   1.135  44.368   1.256
90670W        W63095   1.248  28.261  11.816
90671W        W63096  25.095  38.802   3.158
90672W        W63097  41.632  29.015   0.907
90673W        W63098  41.901  27.420   1.103
90674W        W63099  11.550  41.027   1.166
90675W        W63100   0.481  20.190  11.869
90676W        W63101   4.140  16.082  13.456
90677W        W63102  17.949   4.776   0.640
90678W        W63103  12.349  21.094   3.022
90679W        W63104  28.379  29.531  12.588
90680W        W63105  29.077  16.172   0.930
90681W        W63106  15.258  20.019  13.857
90682W        W63107  19.567  24.655   3.808
90683W        W63108  23.165   8.665  12.880
90684W        W63109  19.958  20.030  13.085
90685W        W63110  32.716  42.777  13.447
90686W        W63111  14.310  23.732   9.672
90687W        W63112   1.334  44.218  14.966
90688W        W63113  37.149  40.405   4.126
90689W        W63114  20.157  10.178   0.416
90690W        W63115  10.907  24.073   1.814
90691W        W63116   2.128  22.228   1.468
90692W        W63117   1.297   2.746  11.693
90693W        W63118  26.985  32.857   1.916
90694W        W63119  26.045  29.944   5.528
90695W        W63120  25.114  23.906   2.538
90696W        W63121  43.308  24.039  13.875
90697W        W63122  32.750  18.120   1.374
90698W        W63123  12.417  10.376   1.812
90699W        W63124  30.971  24.821  10.802
90700W        W63125  18.981   4.305  14.475
90701W        W63126  19.548  34.510  12.504
90702W        W63127  10.036  13.597   2.869
90703W        W63128  34.635   0.721   0.330
90704W        W63129  29.910  37.744  10.062
90705W        W63130  31.891  41.307  10.186
90706W        W63131  24.494  32.659   0.693
90707W        W63132   8.044  11.937  11.213
90708W        W63133  21.124  39.443   4.403
90709W        W63134  36.046  42.833  11.084
90710W        W63135  34.463  27.373   3.225
90711W        W63136  27.186  26.111  13.906
90712W        W63137  29.946  35.457  12.471
90713W        W63138  10.565  30.419   2.315
90714W        W63139  31.223  20.225  12.865
90715W        W63140  31.426  23.731   2.359
90716W        W63141  10.691   0.281  12.104
90717W        W63142  16.174  15.056  12.940
90718W        W63143  34.502   6.107  14.971
90719W        W63144  33.049  40.470  14.767
90720W        W63145  15.565   1.430  11.009
90721W        W63146  16.541   8.210  14.979
90722W        W63147  25.017   0.393   3.205
90723W        W63148  15.594   8.805   3.812
90724W        W63149  18.751  43.522  14.966
90725W        W63150  41.538  26.251   0.504
90726W        W63151  13.046   5.428   2.357
90727W        W63152  35.460  36.876  14.276
90728W        W63153   4.926  36.396  13.333
90729W        W63154  36.905  39.044   3.486
90730W        W63155  13.546  23.639   1.167
90731W        W63156  23.496  33.713   4.344
90732W        W63157  42.335  23.233  11.749
90733W        W63158  43.541  13.842   3.642
90734W        W63159  38.793   3.463  13.774
90735W        W63160  36.538   4.224  12.058
90736W        W63161  26.093  12.917   1.529
90737W        W63162   5.598  29.409   3.817
90738W        W63163   7.224  38.409  10.580
90739W        W63164  42.062  35.425   0.482
90740W        W63165  38.908  38.293   0.432
90741W        W63166  27.745   8.235   4.094
90742W        W63167  28.978  40.554   0.831
90743W        W63168   6.194  39.780   1.643
90744W        W63169  17.544  38.786  11.458
90745W        W63170   2.874   6.299   0.337
90746W        W63171   2.911   1.872  11.452
90747W        W63172  11.436  16.220   2.658
90748W        W63173  37.524  31.329  13.372
90749W        W63174   4.899   8.238   4.878
90750W        W63175  32.990  15.978   1.009
90751W        W63176  33.372  27.202   1.821
90752W        W63177  38.603  25.947   2.855
90753W        W63178   0.915  44.342   4.069
90754W        W63179  14.621  29.017   9.873
90755W        W63180  41.661   4.424  14.839
90756W        W63181   6.874  10.468  12.454
90757W        W63182  25.196  18.899  12.108
90758W        W63183  18.584  21.318  12.287
90759W        W63184   2.156  38.523  12.851
90760W        W63185   1.011  10.839   3.196
90761W        W63186  35.408  34.550  12.102
90762W        W63187  40.883  34.290  14.125
90763W        W63188   5.627  44.929   1.783
90764W        W63189  27.572  28.672   0.391
90765W        W63190  21.230  11.943  12.160
90766W        W63191  28.668   2.742  10.752
90767W        W63192  44.224  24.568   3.934
90768W        W63193  22.547   1.248  12.436
90769W        W63194  23.478   9.402   4.088
90770W        W63195  44.359  24.078  14.881
90771W        W63196   6.937  33.250   2.063
90772W        W63197  18.003  30.418   4.001
90773W        W63198  26.801  40.721   5.024
90774W        W63199  29.204  35.906   4.141
90775W        W63200   5.200  10.089  11.758
90776W        W63201  18.325  40.635  13.384
90777W        W63202   8.443  11.846   3.270
90778W        W63203  38.582  39.473  11.367
90779W        W63204  36.269  34.786  13.814
90780W        W63205   6.128   9.384  11.527
90781W        W63206   4.222   6.348  14.965
90782W        W63207  14.277  31.299  10.975
90783W        W63208  28.577  31.445   3.188
90784W        W63209  11.337  10.713  10.580
90785W        W63210  26.064   4.162   1.574
90786W        W63211  19.697  26.778   3.085
90787W        W63212  20.024  29.132  14.374
90788W        W63213   1.854  29.397   2.145
90789W        W63214  16.767  36.506   1.909
90790W        W63215  13.655  15.350  11.635
90791W        W63216  20.663  13.500   4.778
90792W        W63217  27.010  26.930   3.349
90793W        W63218   5.382  10.740   0.641
90794W        W63219  37.856  39.287   2.336
90795W        W63220  29.084  37.603  10.899
90796W        W63221   5.147  41.397  12.555
90797W        W63222  20.822  37.260  12.467
90798W        W63223  19.744  32.185  10.739
90799W        W63224  30.742  28.742  11.593
90800W        W63225   2.011  17.268  12.969
90801W        W63226   2.290  35.010  11.889
90802W        W63227  43.917  22.645  12.343
90803W        W63228  30.292  41.917   4.802
90804W        W63229  34.018  19.826   2.793
90805W        W63230  31.845  25.766   1.733
90806W        W63231  27.090   8.227   1.714
90807W        W63232  38.773  14.318  11.928
90808W        W63233  16.014  33.156   5.060
90809W        W63234  17.445   2.028  14.995
90810W        W63235  41.883   7.353  13.958
90811W        W63236  26.357  35.411   0.992
90812W        W63237  11.103  26.471  13.786
90813W        W63238   6.127  29.091  10.723
90814W        W63239  30.111  17.285  11.100
90815W        W63240  37.426  40.604   2.080
90816W        W63241  25.741  14.762   3.145
90817W        W63242  31.205  10.574  12.805
90818W        W63243  29.304  40.160   1.339
90819W        W63244   6.754  32.540  12.929
90820W        W63245   4.012   1.595   4.202
90821W        W63246  23.623   7.419  10.727
90822W        W63247   9.251   3.840  11.546
90823W        W63248  42.703  26.016  11.044
90824W        W63249  25.261  31.383  11.983
90825W        W63250  23.731  35.377   2.339
90826W        W63251   4.471  39.821   0.870
90827W        W63252  16.576  41.807  13.776
90828W        W63253   1.552  31.604   2.114
90829W        W63254   7.720   8.322   1.953
90830W        W63255  26.519  22.207   2.076
90831W        W63256  11.195  43.036   0.466
90832W        W63257   3.487  21.179   0.360
90833W        W63258  22.735  22.962   3.535
90834W        W63259  44.344  25.703  10.682
90835W        W63260   9.411  41.095   4.489
90836W        W63261  41.285   7.137   0.346
90837W        W63262  10.266  32.280  12.619
90838W        W63263  41.017  37.013   2.696
90839W        W63264  39.027  23.957  13.001
90840W        W63265  14.640  23.302  10.875
90841W        W63266  41.105   9.145   4.458
90842W        W63267  43.751  36.503  14.222
90843W        W63268  17.901  10.047  11.600
90844W        W63269  18.920  32.995  10.537
90845W        W63270   5.059  40.980  11.096
90846W        W63271  18.186   9.579  11.687
90847W        W63272   4.164   9.651   4.179
90848W        W63273  33.688  29.704   4.105
90849W        W63274  11.118  32.402   2.526
90850W        W63275   3.697  27.339  13.982
90851W        W63276  32.919  18.936  12.272
90852W        W63277   7.340  37.513  14.420
90853W        W63278  16.543  28.376  12.170
90854W        W63279  21.940   7.660  13.508
90855W        W63280  24.399  37.519  12.529
90856W        W63281   9.857  36.586  13.474
90857W        W63282  44.981  35.962  14.930
90858W        W63283  42.221  15.495  14.295
90859W        W63284   1.331  27.905   1.907
90860W        W63285  30.489  19.760  12.914
90861W        W63286  18.302   9.174  13.909
90862W        W63287  22.687  26.002   4.691
90863W        W63288  38.053  27.292  14.915
90864W        W63289  15.916  33.413  13.414
90865W        W63290  36.782  39.593  13.522
90866W        W63291  41.920  16.087  12.893
90867W        W63292   3.247  20.530   3.205
90868W        W63293   1.867  44.369   4.609
90869W        W63294   7.825   2.772  11.433
90870W        W63295   0.875  15.114   2.293
90871W        W63296  43.294  34.161  12.760
90872W        W63297  32.648  33.380  14.797
90873W        W63298  16.835   6.213  12.130
90874W        W63299  32.386  25.970  10.799
90875W        W63300  32.936  30.415   3.728
90876W        W63301   3.383  19.516   0.216
90877W        W63302  30.920  38.600  11.940
90878W        W63303  39.125   6.928  10.877
90879W        W63304  33.616  37.146  14.202
90880W        W63305   7.726  43.842   0.027
90881W        W63306  24.025  26.538  12.071
90882W        W63307   5.729  25.028   3.704
90883W        W63308  28.058  20.788   1.400
90884W        W63309  37.005  33.079   3.964
90885W        W63310   3.716  43.514   2.689
90886W        W63311  18.088  14.082  11.643
90887W        W63312   1.675  11.801  14.071
90888W        W63313  44.099  32.667  10.568
90889W        W63314  22.873  39.055  13.461
90890W        W63315   5.371  33.905   1.358
90891W        W63316  28.972   0.414   3.036
90892W        W63317  15.286  10.682   0.315
90893W        W63318  25.641  21.367  11.355
90894W        W63319  17.834  29.976   3.795
90895W        W63320   9.136  25.521   3.317
90896W        W63321  40.348   4.818   2.210
90897W        W63322  28.367  29.669   2.587
90898W        W63323   6.184   5.945   3.654
90899W        W63324  20.181  36.978   4.547
90900W        W63325  27.911   1.864   4.032
90901W        W63326  40.486  14.175   3.289
90902W        W63327  33.498  26.646   1.738
90903W        W63328  28.069  33.799  13.356
90904W        W63329   2.190   8.863  14.772
90905W        W63330  32.101  18.480   5.078
90906W        W63331   3.863  29.832   1.427
90907W        W63332  15.176  11.266  10.449
90908W        W63333  30.688   4.366   2.173
90909W        W63334  42.703  13.770  14.657
90910W        W63335  18.751  10.052  11.609
90911W        W63336  34.490  36.654   0.311
90912W        W63337  29.087  19.205  13.523
90913W        W63338  36.613  34.486   9.984
90914W        W63339  35.818  43.516   0.090
90915W        W63340  33.061  12.870  10.740
90916W        W63341   8.653   6.214  12.072
90917W        W63342  16.053  36.939   1.857
90918W        W63343  24.316   6.129  11.241
90919W        W63344  20.545  44.774  14.830
90920W        W63345   9.881   2.033   1.805
90921W        W63346  19.765  17.089   4.846
90922W        W63347   4.140   6.329   1.701
90923W        W63348  10.032  33.809   3.676
90924W        W63349  22.304  17.798  11.724
90925W        W63350  16.200  30.532   0.941
90926W        W63351  44.244   8.750   2.402
90927W        W63352  41.759  12.125   4.686
90928W        W63353   4.710  41.470   1.630
90929W        W63354  22.958  44.959  14.939
90930W        W63355  19.780  36.802   1.881
90931W        W63356  12.697  38.673   3.625
90932W        W63357   6.054   0.315  12.519
90933W        W63358  20.525  12.065  13.968
90934W        W63359  32.530  34.090   2.712
90935W        W63360  41.630  14.553   0.902
90936W        W63361  20.142  38.817  13.811
90937W        W63362  15.747  33.992   2.699
90938W        W63363  41.614   7.621   3.795
90939W        W63364  22.231  19.016  12.381
90940W        W63365   6.317  31.941   1.309
90941W        W63366  26.481  22.157   0.310
90942W        W63367  12.884  20.051  12.038
90943W        W63368  33.505   2.011  11.000
90944W        W63369  23.187  22.032  13.489
90945W        W63370  36.418  14.853   0.593
90946W        W63371  11.761  34.552   2.127
90947W        W63372  27.267  39.528   0.858
90948W        W63373  33.123  28.216   4.703
90949W        W63374   6.800  16.442   4.238
90950W        W63375  20.818  42.030  10.516
90951W        W63376  12.843  41.514  11.517
90952W        W63377  32.870  10.777  11.118
90953W        W63378  17.648   7.414   1.393
90954W        W63379  40.421  36.489  10.597
90955W        W63380  36.936  37.828  11.900
90956W        W63381   9.127  17.719   1.812
90957W        W63382   2.912  19.082   2.081
90958W        W63383   2.993  36.412   3.094
90959W        W63384  18.236  18.804  13.984
90960W        W63385   2.923  43.903   3.394
90961W        W63386  35.534  33.035   4.941
90962W        W63387  20.148   0.191  10.761
90963W        W63388  40.829  22.985  12.149
90964W        W63389  27.128  31.615   0.253
90965W        W63390  31.694  23.551  14.122
90966W        W63391   2.880   6.617   4.081
90967W        W63392  40.462  38.726  13.531
90968W        W63393  28.397   1.745  10.820
90969W        W63394  27.051  29.536  14.003
90970W        W63395   7.550  34.886   0.102
90971W        W63396   7.420   2.950  13.996
90972W        W63397  20.085  20.249   1.301
90973W        W63398  21.651  19.996  13.886
90974W        W63399  33.090  16.774   1.455
90975W        W63400  28.483  42.335   4.436
90976W        W63401  12.404  23.435  12.886
90977W        W63402  32.957  22.993   4.473
90978W        W63403  29.024   9.257  13.339
90979W        W63404  38.319   5.232  12.917
90980W        W63405   1.308  18.281  11.607
90981W        W63406  32.612  12.036   4.063
90982W        W63407   6.013  34.547  13.038
90983W        W63408  37.413  38.023  10.626
90984W        W63409  35.594   1.561   1.409
90985W        W63410  13.859  36.835   3.667
90986W        W63411  38.091  31.755  10.855
90987W        W63412  36.542   0.104  11.624
90988W        W63413  36.461  11.555  11.576
90989W        W63414  37.531  26.675  10.568
90990W        W63415  11.697  32.827   1.239
90991W        W63416  13.564  42.770  11.181
90992W        W63417  11.514  18.396   5.048
90993W        W63418  38.271  11.681   4.868
90994W        W63419  33.821  31.615  12.819
90995W        W63420  39.998  43.880   3.803
90996W        W63421  34.540  34.342   0.965
90997W        W63422  39.829  24.393   0.721
90998W        W63423  30.486  37.079  13.313
90999W        W63424  40.870  44.245   1.831
91000W        W63425   6.337  37.953   2.206
91001W        W63426  11.532  29.583   3.610
91002W        W63427  40.482  16.246   1.648
91003W        W63428  18.374   5.281   1.975
91004W        W63429  28.025  20.397   4.583
91005W        W63430  17.884  36.640  11.101
91006W        W63431  14.870  15.554   3.293
91007W        W63432  42.543  16.569   2.275
91008W        W63433  14.108   5.310  11.599
91009W        W63434  38.976  39.314   3.694
91010W        W63435   5.259  35.437   4.262
91011W        W63436  31.439  41.657   2.637
91012W        W63437  16.847  12.776   3.238
91013W        W63438  43.792  32.365  11.090
91014W        W63439   1.292  44.512  10.946
91015W        W63440  11.269  16.945   1.377
91016W        W63441  18.692  36.588   3.634
91017W        W63442  17.054  15.047  10.614
91018W        W63443  35.875  29.444  14.283
91019W        W63444   0.205  37.160  12.384
91020W        W63445   8.400   3.905  13.989
91021W        W63446  32.635  25.553   4.168
91022W        W63447   1.990  15.117   0.252
91023W        W63448  36.601  16.955  11.067
91024W        W63449  21.202  40.556  10.662
91025W        W63450   2.633  24.695  11.032
91026W        W63451  38.001   4.578  13.909
91027W        W63452  20.544  19.825   3.701
91028W        W63453  24.684  29.017  10.536
91029W        W63454  15.401   8.894  12.201
91030W        W63455  36.589  37.858  14.062
91031W        W63456  16.532  19.268   2.695
91032W        W63457  17.674   9.345  10.923
91033W        W63458   4.668  33.065   1.313
91034W        W63459  23.053   4.278  12.900
91035W        W63460  10.660  12.713  11.404
91036W        W63461   9.540  15.288  11.873
91037W        W63462   4.878  37.423  11.997
91038W        W63463  30.058  23.662  14.911
91039W        W63464  39.959  41.774  12.206
91040W        W63465  22.913  38.092   1.861
91041W        W63466  12.252  35.720  12.269
91042W        W63467  21.683   6.736  14.315
91043W        W63468  31.733  25.692  13.505
91044W        W63469   2.521  32.875   0.557
91045W        W63470  13.801   1.528  10.291
91046W        W63471  40.902   9.562  12.669
91047W        W63472  44.664   8.416   4.599
91048W        W63473  41.329  43.037   1.487
91049W        W63474  19.535  13.673  10.716
91050W        W63475  10.438  40.963   5.162
91051W        W63476   0.996  42.577  14.321
91052W        W63477   2.753   2.192   1.905
91053W        W63478   4.534  12.162  12.083
91054W        W63479   4.555  30.612  12.762
91055W        W63480  16.849  23.003  10.507
91056W        W63481  18.718  22.659  11.187
91057W        W63482  33.532  34.681  10.364
91058W        W63483  23.218   1.378   1.270
91059W        W63484  40.966  15.171   4.183
91060W        W63485   6.389  32.554  11.702
91061W        W63486  20.186  38.787   1.231
91062W        W63487  32.465   1.435   3.070
91063W        W63488   1.894  36.153   0.283
91064W        W63489  33.773   1.409  14.408
91065W        W63490   3.794  18.401  10.997
91066W        W63491  19.640   9.919  10.561
91067W        W63492   5.945  44.922  14.003
91068W        W63493  35.813  14.476   1.182
91069W        W63494  14.834  13.148  14.771
91070W        W63495  10.387  24.267  10.756
91071W        W63496   5.500  41.803   3.643
91072W        W63497  19.742   1.054  13.560
91073W        W63498   1.525  33.022   5.083
91074W        W63499  30.992  30.530  14.377
91075W        W63500  36.771  39.962  12.823
91076W        W63501   3.980  40.858  13.944
91077W        W63502  37.782  16.131   4.644
91078W        W63503  32.701   7.984   1.299
91079W        W63504  31.943  30.708  13.607
91080W        W63505  37.264  38.787  13.048
91081W        W63506  12.232  29.480  11.945
91082W        W63507  41.033  10.429   3.756
91083W        W63508  28.334  15.638  13.820
91084W        W63509  35.057  38.294   1.406
91085W        W63510  38.643  33.025   2.713
91086W        W63511  28.556  26.585  12.413
91087W        W63512  12.630  37.888   4.110
91088W        W63513  21.833  39.097   4.858
91089W        W63514  29.162  16.487  13.479
91090W        W63515  14.580  14.647  13.855
91091W        W63516  36.482  20.205  13.348
91092W        W63517  25.942  10.327   5.114
91093W        W63518  12.327  34.657   0.399
91094W        W63519   0.941  38.125  14.960
91095W        W63520   7.086  30.528   0.897
91096W        W63521   0.534   5.629   3.747
91097W        W63522  18.712   8.243  12.912
91098W        W63523  16.583  20.191   4.618
91099W        W63524  10.527  28.705  11.575
91100W        W63525   5.167  10.129  14.041
91101W        W63526  22.007  28.992  13.028
91102W        W63527   3.792  25.157  12.095
91103W        W63528  37.013  16.090   3.991
91104W        W63529  11.369  33.994  13.436
91105W        W63530  13.370  18.128   4.527
91106W        W63531  24.747   6.906  14.356
91107W        W63532  35.650  40.220   0.812
91108W        W63533  11.349  24.084  12.700
91109W        W63534  29.920  44.834  12.602
91110W        W63535  41.915   6.259   2.858
91111W        W63536  16.311  36.069  14.803
91112W        W63537  30.938   5.571  10.620
91113W        W63538  42.028   2.592   4.117
91114W        W63539  27.632  33.376   0.367
91115W        W63540   9.831  43.395   1.060
91116W        W63541  38.370  26.542   1.079
91117W        W63542  34.708  12.508  11.150
91118W        W63543  36.397  23.399  13.990
91119W        W63544  13.357  16.766   2.236
91120W        W63545  26.487   7.968  11.547
91121W        W63546   5.192  23.611  12.714
91122W        W63547  18.848  17.128  12.384
91123W        W63548  14.109   8.401  12.877
91124W        W63549   9.700  28.325   4.016
91125W        W63550  34.478  34.707  11.972
91126W        W63551  10.873  16.910  12.017
91127W        W63552   4.274   4.769   3.917
91128W        W63553  13.666  23.572   5.044
91129W        W63554  39.397  29.496  12.180
91130W        W63555   1.465   1.887   3.227
91131W        W63556  22.031  33.737  11.354
91132W        W63557  21.544   6.887   1.359
91133W        W63558   6.754  30.465   0.452
91134W        W63559  36.383  13.794  14.813
91135W        W63560  41.419   7.788   1.220
91136W        W63561  17.645   8.405   4.393
91137W        W63562   0.452  16.125  11.441
91138W        W63563  33.116  27.413   2.827
91139W        W63564  25.579  10.485   2.987
91140W        W63565  34.303   5.218   0.043
91141W        W63566  43.899  22.071   3.603
91142W        W63567  36.534  15.294   4.891
91143W        W63568  10.694   5.265   4.232
91144W        W63569  13.849  32.533   3.851
91145W        W63570   0.347   7.399  10.548
91146W        W63571  44.038  13.928  12.605
91147W        W63572   3.685  36.380   0.919
91148W        W63573  38.748  41.566   0.333
91149W        W63574   5.223  13.709   1.353
91150W        W63575  18.616  32.116   2.216
91151W        W63576  11.057  36.031  14.274
91152W        W63577  43.914   9.089  11.034
91153W        W63578  12.416  37.185   2.756
91154W        W63579   6.790   7.284   0.224
91155W        W63580  24.796  28.368  12.486
91156W        W63581  17.564  16.019  14.916
91157W        W63582  19.593  14.905   4.163
91158W        W63583  20.612  15.548   2.685
91159W        W63584  23.008  31.454  13.455
91160W        W63585  31.826  35.112  11.444
91161W        W63586  38.492  38.360  14.367
91162W        W63587  39.329  25.918  14.291
91163W        W63588  30.940   0.779   3.809
91164W        W63589  43.458  18.932  13.088
91165W        W63590   5.543  13.225  11.189
91166W        W63591   6.206  36.369   0.378
91167W        W63592   0.847   0.995  10.535
91168W        W63593   2.985   4.824  10.583
91169W        W63594  24.752  38.190   1.860
91170W        W63595  44.497  34.081   1.843
91171W        W63596  14.641   7.222   4.125
91172W        W63597  37.061  23.701   3.410
91173W        W63598  44.432  25.677   0.676
91174W        W63599   4.398  11.563  11.204
91175W        W63600   4.366   0.194  13.473
91176W        W63601  20.857  21.155  13.955
91177W        W63602   3.430   2.309   1.308
91178W        W63603  17.691  24.161  12.991
91179W        W63604  41.125  35.577   0.775
91180W        W63605  41.039  21.393   1.615
91181W        W63606  24.964  36.273   4.395
91182W        W63607  38.355  44.654   3.242
91183W        W63608  26.554  35.933  14.753
91184W        W63609  38.215  15.559  12.555
91185W        W63610   2.855   9.160   0.849
91186W        W63611  27.091  20.510   4.770
91187W        W63612  22.115  40.803  12.303
91188W        W63613  29.996  41.264   5.615
91189W        W63614  33.089  37.925  11.667
91190W        W63615  36.782  35.305   3.284
91191W        W63616  15.048  14.172  13.125
91192W        W63617  36.352  20.973   4.303
91193W        W63618  20.471   8.527   3.211
91194W        W63619  40.911  13.643  12.076
91195W        W63620   0.376  27.512  14.422
91196W        W63621  26.873  31.818  14.748
91197W        W63622   6.748   1.975  14.909
91198W        W63623  35.544  19.657   0.735
91199W        W63624  35.394  39.795   3.727
91200W        W63625   1.588  29.610   0.005
91201W        W63626  39.601  21.618  11.601
91202W        W63627  40.583  19.807  12.940
91203W        W63628   0.750   0.976   3.743
91204W        W63629  27.711  25.626   3.227
91205W        W63630  21.306  32.945  14.039
91206W        W63631  14.749   4.185   0.812
91207W        W63632  18.728  22.928  13.962
91208W        W63633  13.219  11.712   4.614
91209W        W63634  15.208  37.470  14.975
91210W        W63635  38.708  14.826   1.882
91211W        W63636  22.930  15.276  13.149
91212W        W63637   9.192  25.723  13.717
91213W        W63638  19.423  17.579  14.697
91214W        W63639   1.949   9.540  10.695
91215W        W63640  41.712  30.410  12.935
91216W        W63641  10.662   5.407  12.996
91217W        W63642  22.013  29.582  10.645
91218W        W63643  17.193   4.846  14.447
91219W        W63644  40.406  43.918  14.974
91220W        W63645  16.265  24.685   4.051
91221W        W63646  10.712  29.558   1.521
91222W        W63647   8.859  31.577   0.310
91223W        W63648  33.058  14.534  13.096
91224W        W63649  40.081  37.215   1.821
91225W        W63650  32.981  14.835  12.663
91226W        W63651  25.020  16.289  13.294
91227W        W63652  26.997  26.426  13.519
91228W        W63653  31.214  44.721  10.975
91229W        W63654  12.827  20.782  13.852
91230W        W63655  42.760  11.813   2.221
91231W        W63656   7.412  14.069  11.762
91232W        W63657   7.470  33.411  11.474
91233W        W63658  36.979  27.975   4.093
91234W        W63659  22.266   2.081   4.059
91235W        W63660  27.923  16.218   0.314
91236W        W63661   5.340  17.119   2.612
91237W        W63662  39.824  23.371  11.215
91238W        W63663   4.778  10.842   2.202
91239W        W63664  33.072   4.254  14.741
91240W        W63665  11.251  16.822  12.637
91241W        W63666  24.150   1.007  13.977
91242W        W63667  41.415   0.936   4.139
91243W        W63668  15.353   3.901   0.930
91244W        W63669  32.882   1.048  11.510
91245W        W63670   3.449  23.404   3.508
91246W        W63671  34.669  19.925   0.435
91247W        W63672  24.526  26.839  11.191
91248W        W63673  36.496   4.213   0.301
91249W        W63674  21.647  16.530   0.524
91250W        W63675   7.838  37.053  13.004
91251W        W63676   7.416  30.377   4.181
91252W        W63677  10.306  33.313  10.043
91253W        W63678  17.093  18.524   4.546
91254W        W63679  10.205   6.135  14.474
91255W        W63680  40.624   5.186  11.255
91256W        W63681  40.302  32.127   3.613
91257W        W63682   7.334  37.473   1.660
91258W        W63683  15.357  39.011   0.384
91259W        W63684  30.118  34.602   1.447
91260W        W63685  10.193  20.045   1.292
91261W        W63686  29.878   9.316  14.397
91262W        W63687  20.220   8.867   1.223
91263W        W63688   6.147  17.455  14.001
91264W        W63689  27.503  18.508  13.864
91265W        W63690   6.371   3.908   4.343
91266W        W63691  34.330  20.151  14.816
91267W        W63692  42.951   1.957  13.524
91268W        W63693   5.682  44.571   1.403
91269W        W63694  10.562   0.465   0.701
91270W        W63695  36.654  33.099   2.159
91271W        W63696  22.944  43.807   4.073
91272W        W63697  41.434   3.865   3.143
91273W        W63698  39.331  20.056   0.936
91274W        W63699   9.608  36.446   3.835
91275W        W63700  44.710  41.769   1.310
91276W        W63701   2.222  12.262  10.925
91277W        W63702  24.762   9.273   3.108
91278W        W63703   2.496   7.848  12.960
91279W        W63704   3.718  36.402  10.719
91280W        W63705  30.791  39.176  11.689
91281W        W63706  42.898  40.216   4.974
91282W        W63707  24.751   3.721   2.774
91283W        W63708  41.194  35.080   2.381
91284W        W63709  14.283  10.192  12.449
91285W        W63710  39.391   3.942  10.608
91286W        W63711  21.817  29.464  13.748
91287W        W63712  26.235   8.861   0.419
91288W        W63713  31.005  16.507  11.995
91289W        W63714   3.513  32.053  12.559
91290W        W63715  18.913  33.040   4.957
91291W        W63716  21.146  29.601  14.351
91292W        W63717  32.939  14.429   4.172
91293W        W63718  14.548   0.478  10.912
91294W        W63719  44.467   6.007  11.493
91295W        W63720  42.969  10.355   3.950
91296W        W63721   0.019  43.270   1.490
91297W        W63722  25.171   1.428  12.402
91298W        W63723  28.849  10.689  10.628
91299W        W63724  37.279  19.312  13.032
91300W        W63725  16.590  32.225  11.806
91301W        W63726  29.868  23.322  10.141
91302W        W63727  19.718  24.004   4.414
91303W        W63728  12.766  12.358  11.913
91304W        W63729  17.700  37.580   1.696
91305W        W63730  42.585   0.872  12.629
91306W        W63731  27.897  41.548  13.435
91307W        W63732  30.385  39.655  13.745
91308W        W63733  37.486  14.922   4.652
91309W        W63734  40.993  32.505  10.687
91310W        W63735  39.564  18.776   3.688
91311W        W63736  37.943  35.792  14.842
91312W        W63737  42.934  32.186   2.806
91313W        W63738  19.017  20.175   0.430
91314W        W63739   7.756  44.756  10.563
91315W        W63740  23.514  37.980   4.476
91316W        W63741  28.144   5.855  11.529
91317W        W63742   9.521  27.901  11.084
91318W        W63743   9.248  11.684  11.052
91319W        W63744  15.774  20.744  11.682
91320W        W63745   5.419   0.278  13.654
91321W        W63746  37.743  11.750  10.311
91322W        W63747  40.653  37.396   1.701
91323W        W63748  44.553  23.196  13.560
91324W        W63749  35.918  29.020  12.082
91325W        W63750  33.936  27.939   4.521
91326W        W63751  33.524  15.318   3.154
91327W        W63752   7.345   0.830   1.346
91328W        W63753  17.559  12.605  13.396
91329W        W63754  37.347  17.627  10.745
91330W        W63755   1.527  28.583  12.132
91331W        W63756  26.024  14.831  12.895
91332W        W63757  13.179  33.589  14.888
91333W        W63758  19.747  13.763   2.763
91334W        W63759  35.646  44.780   0.223
91335W        W63760   2.309  22.333  11.711
91336W        W63761   2.794  38.815   1.703
91337W        W63762  37.260  41.079   2.033
91338W        W63763  33.365  38.672  14.921
91339W        W63764  20.968  33.891   0.867
91340W        W63765   5.186  34.330   3.634
91341W        W63766  16.488  26.524  13.961
91342W        W63767  34.097   1.883   3.669
91343W        W63768   6.776  21.631  10.720
91344W        W63769  20.053  35.632  10.568
91345W        W63770  10.359  21.071  10.729
91346W        W63771  24.997  10.157   4.581
91347W        W63772  44.352  42.450   0.261
91348W        W63773  32.447  44.055  13.614
91349W        W63774  30.166   2.369  13.940
91350W        W63775   1.452  27.016  10.566
91351W        W63776  30.201  12.794   0.399
91352W        W63777  38.150  24.234   2.286
91353W        W63778   7.349  27.227   4.563
91354W        W63779   5.895  15.162   2.452
91355W        W63780  25.791  44.848   0.075
91356W        W63781  27.426   6.860   4.286
91357W        W63782  37.771  30.984  13.884
91358W        W63783  15.785  20.058  14.552
91359W        W63784  37.757  19.101   0.750
91360W        W63785  30.960  10.274  13.966
91361W        W63786   7.247   9.800   0.437
91362W        W63787  12.323  33.603  12.779
91363W        W63788  22.618  41.149   3.240
91364W        W63789   3.392  33.613   4.175
91365W        W63790  44.967  35.672  11.963
91366W        W63791  25.952  33.428  11.061
91367W        W63792  34.842  34.846   2.186
91368W        W63793  28.956  44.321  13.821
91369W        W63794  16.363   0.364  10.710
91370W        W63795   9.206  39.363  10.587
91371W        W63796  39.464  16.524   1.884
91372W        W63797  14.033  36.014  11.122
91373W        W63798  40.860   1.940  11.582
91374W        W63799  36.085  40.068  12.591
91375W        W63800  26.644   4.198  11.392
91376W        W63801  31.440  43.779   0.327
91377W        W63802   3.252  21.089  13.547
91378W        W63803  40.436   3.304  10.246
91379W        W63804  25.549   0.868   4.566
91380W        W63805  38.246  23.282   3.173
91381W        W63806  28.123   4.988  10.202
91382W        W63807  14.241   5.638   3.742
91383W        W63808  32.559  36.198   3.224
91384W        W63809  38.437  33.310  13.932
91385W        W63810  36.822  42.124   2.879
91386W        W63811  20.154  24.542   3.853
91387W        W63812  30.434  36.785  13.777
91388W        W63813   7.455   1.269   3.679
91389W        W63814  30.462  33.760  12.378
91390W        W63815  31.848  13.389   1.815
91391W        W63816   2.662  28.037   1.404
91392W        W63817  41.465  24.933  12.655
91393W        W63818  32.843  18.160  11.935
91394W        W63819  36.141  14.104  12.997
91395W        W63820   8.111  44.789  14.949
91396W        W63821  17.616  20.720   1.459
91397W        W63822  41.067  22.717  11.374
91398W        W63823  13.214  32.440   4.230
91399W        W63824   5.826  10.780  11.502
91400W        W63825  15.620  22.716  14.175
91401W        W63826  35.110  11.872   1.340
91402W        W63827  15.559  40.990  12.461
91403W        W63828  41.088  33.598  10.581
91404W        W63829  18.377  21.226   4.532
91405W        W63830   7.169  17.685   4.458
91406W        W63831  19.662  27.704  13.067
91407W        W63832   4.791  42.454   3.720
91408W        W63833   0.487  42.501  14.413
91409W        W63834   9.897  34.074  12.047
91410W        W63835   7.561   3.825   1.298
91411W        W63836  16.698  21.568   4.092
91412W        W63837  39.151  33.476  13.538
91413W        W63838  36.759  14.203   2.621
91414W        W63839  10.788  44.993  13.379
91415W        W63840   6.593  13.609  10.766
91416W        W63841   5.873   7.006  11.131
91417W        W63842  13.910  13.767  13.851
91418W        W63843  15.091   9.708  13.885
91419W        W63844   1.327   1.809   0.416
91420W        W63845  17.477  12.307   4.152
91421W        W63846  22.043  40.332   2.694
91422W        W63847  34.391  32.697   0.281
91423W        W63848  41.680  20.050   2.207
91424W        W63849  36.264  24.311   2.041
91425W        W63850   4.419  41.433   3.097
91426W        W63851   7.597  11.211  14.874
91427W        W63852  12.777  33.703  13.032
91428W        W63853  14.867  39.408  14.979
91429W        W63854   4.215  32.126   1.324
91430W        W63855  40.312   7.758   0.771
91431W        W63856  33.588  19.330   0.941
91432W        W63857  12.369   8.431  11.424
91433W        W63858  16.237  35.000   9.628
91434W        W63859  28.130  42.626  12.545
91435W        W63860  11.649  41.953   0.975
91436W        W63861  38.823  41.293  14.227
91437W        W63862   2.881  43.830  13.583
91438W        W63863  27.089  19.857   1.302
91439W        W63864  26.696  13.083   1.275
91440W        W63865  14.218  27.880   1.799
91441W        W63866  18.310  22.309  13.884
91442W        W63867   1.535  16.611  13.298
91443W        W63868   5.401  44.429   2.793
91444W        W63869  42.310  39.034  12.060
91445W        W63870   8.161   4.432  12.569
91446W        W63871  33.242  42.396  11.474
91447W        W63872   3.896   5.266   2.200
91448W        W63873  31.460   0.796   3.834
91449W        W63874  25.350  44.737   1.691
91450W        W63875  34.939  44.363   0.288
91451W        W63876  31.534  42.905  12.980
91452W        W63877  27.465  21.331  14.300
91453W        W63878  26.762  26.121   2.827
91454W        W63879  18.099  28.818  13.124
91455W        W63880  31.901  31.611   2.868
91456W        W63881  43.612   9.400   2.584
91457W        W63882  21.434  26.033  11.426
91458W        W63883  26.058   8.457   2.210
91459W        W63884  18.956  39.492  12.744
91460W        W63885  29.989  20.364  10.774
91461W        W63886  13.934   7.684   0.489
91462W        W63887  20.250  40.908   3.283
91463W        W63888  43.039  40.112   2.643
91464W        W63889  39.107  44.928   1.823
91465W        W63890  42.395  10.204   3.188
91466W        W63891  20.222   7.877   0.741
91467W        W63892  23.302  16.252  10.510
91468W        W63893  41.774   6.183  14.870
91469W        W63894  40.305  38.581  10.434
91470W        W63895  23.923  10.090  14.331
91471W        W63896   9.787   8.876   0.673
91472W        W63897  39.460   1.430  11.666
91473W        W63898  29.781  34.650  14.574
91474W        W63899  17.520  13.405   0.444
91475W        W63900   5.526   4.814  11.293
91476W        W63901  41.916  36.593  11.885
91477W        W63902  22.996  15.558  14.778
91478W        W63903  38.474  14.639   4.371
91479W        W63904  21.480   9.193  11.152
91480W        W63905   1.430   4.789  14.342
91481W        W63906   5.015   3.184   0.066
91482W        W63907   3.465  23.526  13.469
91483W        W63908   6.759  44.795  11.993
91484W        W63909  29.450   6.277   0.266
91485W        W63910  13.588  16.182  14.309
91486W        W63911  28.942  35.896  11.244
91487W        W63912   4.611  25.545  11.769
91488W        W63913  44.730  19.751   2.842
91489W        W63914  33.499  24.089  13.035
91490W        W63915  14.718  33.814   1.836
91491W        W63916  15.235  23.143  10.634
91492W        W63917  17.743   1.235  12.979
91493W        W63918   8.474  37.009  13.715
91494W        W63919  16.090  43.105  13.094
91495W        W63920   8.415   0.973   0.506
91496W        W63921   5.129  28.496   2.597
91497W        W63922  40.864  22.086   0.792
91498W        W63923  25.969  32.619  14.933
91499W        W63924   6.912  39.084   4.273
91500W        W63925  38.447  14.207   2.415
91501W        W63926   8.168  13.370  12.831
91502W        W63927  15.317  13.622  13.190
91503W        W63928  24.689  29.854   5.517
91504W        W63929   7.728  13.419   1.982
91505W        W63930  34.131  17.182   4.582
91506W        W63931   7.998  14.543   4.669
91507W        W63932  11.340  37.909  12.519
91508W        W63933  24.855  11.769   0.324
91509W        W63934   2.710  11.907  11.989
91510W        W63935  25.761  26.174   0.840
91511W        W63936   5.723   4.622  14.008
91512W        W63937   2.832  26.604  13.842
91513W        W63938  30.520  37.888   0.878
91514W        W63939  30.947  27.039   4.192
91515W        W63940   9.339  42.845  10.316
91516W        W63941  27.398  34.002   1.436
91517W        W63942   3.033   7.678   3.723
91518W        W63943  39.843  30.946   4.411
91519W        W63944   4.916  38.363  11.119
91520W        W63945  20.184   5.405   0.918
91521W        W63946  40.402   7.442   3.170
91522W        W63947   5.402  21.262   0.760
91523W        W63948  35.209  11.094   1.717
91524W        W63949  23.534  32.657   3.291
91525W        W63950  42.467  18.841  12.432
91526W        W63951  13.564  30.091   1.982
91527W        W63952  41.743  13.977   4.103
91528W        W63953  21.493  34.201   2.314
91529W        W63954  39.648  31.880  11.686
91530W        W63955  27.237  24.708   2.826
91531W        W63956   8.918  40.529   0.831
91532W        W63957  21.911  26.928   0.917
91533W        W63958  43.516  14.158   2.325
91534W        W63959  18.998   4.708   3.112
91535W        W63960  16.576   8.363   3.147
91536W        W63961  43.870   7.637   0.079
91537W        W63962  36.030  44.894  12.422
91538W        W63963  14.127  11.235  12.002
91539W        W63964   7.256  10.332   5.076
91540W        W63965   5.889  19.696  14.869
91541W        W63966  26.289   4.937  14.129
91542W        W63967  38.831  43.510   1.523
91543W        W63968  22.220   2.880  14.358
91544W        W63969  15.097   2.531  11.622
91545W        W63970  36.587  40.020   0.378
91546W        W63971  25.931  32.094  14.801
91547W        W63972   2.532  40.443   3.672
91548W        W63973  26.115  44.501   2.739
91549W        W63974  30.954  11.605   3.623
91550W        W63975   1.489  22.401  11.571
91551W        W63976  33.683   8.090  13.524
91552W        W63977  11.261  27.528   3.879
91553W        W63978  34.914  39.481   4.429
91554W        W63979   5.831  42.741   0.490
91555W        W63980   3.531   9.157   4.239
91556W        W63981  13.723  22.096  11.380
91557W        W63982   4.252  36.437  10.660
91558W        W63983  10.360   0.389   3.153
91559W        W63984   9.187  31.614   0.838
91560W        W63985  41.950  44.026   0.733
91561W        W63986   1.059  38.156  13.515
91562W        W63987  23.598  21.365   2.520
91563W        W63988  35.348  33.916   4.354
91564W        W63989  29.082  35.471   4.638
91565W        W63990  14.132   7.800  10.674
91566W        W63991  36.531  17.523  12.088
91567W        W63992  37.033  16.561   4.194
91568W        W63993  21.285   3.442  10.372
91569W        W63994  10.637  44.521  14.506
91570W        W63995  10.426  20.114   3.790
91571W        W63996   5.300  19.665  12.467
91572W        W63997   4.986  35.057  14.551
91573W        W63998  42.293   6.145  14.962
91574W        W63999  12.216  42.343   2.149
91575W        W64000   2.472  27.479  11.484
91576W        W64001  28.623  41.864  14.835
91577W        W64002  20.807  43.771   3.896
91578W        W64003  35.718  17.763   2.588
91579W        W64004   2.221   2.890  13.508
91580W        W64005   0.937   1.220  11.406
91581W        W64006  29.489  22.050   4.835
91582W        W64007  36.805  19.048  13.802
91583W        W64008   5.635  33.592  13.004
91584W        W64009   1.896  33.582   2.796
91585W        W64010  12.767   1.633  12.002
91586W        W64011  30.567  37.524   3.607
91587W        W64012  15.891  28.914   1.331
91588W        W64013  25.009  39.843  11.127
91589W        W64014  26.172  18.855   4.602
91590W        W64015  42.480   3.679  10.350
91591W        W64016  21.083   2.462   2.455
91592W        W64017   9.797   8.178   1.930
91593W        W64018  13.072  22.658   1.826
91594W        W64019  31.088  23.767   2.772
91595W        W64020  32.824  30.599  13.760
91596W        W64021  21.045   6.902   3.732
91597W        W64022  22.085  35.355   2.892
91598W        W64023  20.966   9.277  14.460
91599W        W64024  12.343   5.730  13.865
91600W        W64025  14.321  42.949   2.457
91601W        W64026  14.084  23.288   3.731
91602W        W64027  30.099   3.012  13.434
91603W        W64028  11.236   1.532  12.065
91604W        W64029  15.679  15.836   0.524
91605W        W64030  22.600  11.388   0.365
91606W        W64031  43.383  39.404  10.464
91607W        W64032  28.605  44.302  11.455
91608W        W64033  22.319  17.181  10.677
91609W        W64034   4.869  16.788   0.394
91610W        W64035  21.691  10.379  14.528
91611W        W64036  27.040   4.644  14.377
91612W        W64037  40.286   6.734   2.399
91613W        W64038  29.000  38.520   1.335
91614W        W64039   2.522  18.025   1.914
91615W        W64040  13.320  35.841   5.065
91616W        W64041  14.897  22.634   3.292
91617W        W64042  33.036  26.395   4.612
91618W        W64043  17.950  43.385  11.546
91619W        W64044  31.651   2.222  10.672
91620W        W64045  25.897  14.573  11.569
91621W        W64046  31.871  11.550   3.831
91622W        W64047  28.673   2.817  11.646
91623W        W64048  15.649  20.776  13.009
91624W        W64049   7.891  30.921   1.246
91625W        W64050   6.560  19.484  13.427
91626W        W64051  30.523  42.163  10.637
91627W        W64052  16.884   6.373  11.255
91628W        W64053   2.243  39.647  14.507
91629W        W64054  12.402  15.737  14.026
91630W        W64055  31.651   0.457   4.292
91631W        W64056   5.171  30.606   3.622
91632W        W64057  15.182  33.090  12.583
91633W        W64058  16.677  27.037  10.959
91634W        W64059   6.207  18.262  10.737
91635W        W64060  18.003  34.506  10.588
91636W        W64061  19.861  25.034  13.552
91637W        W64062   8.598  38.642  10.091
91638W        W64063  25.769  33.657   0.618
91639W        W64064  29.159   4.756  14.294
91640W        W64065  44.962  10.093   4.070
91641W        W64066  17.308  38.076   3.622
91642W        W64067  41.055  26.610  14.317
91643W        W64068   8.873  29.616  14.297
91644W        W64069  19.643  16.798   3.386
91645W        W64070  28.978   5.647   4.107
91646W        W64071   0.396   0.717  13.241
91647W        W64072  32.117  37.231  13.089
91648W        W64073  29.005  12.803  14.804
91649W        W64074  28.597  26.040  14.060
91650W        W64075  39.886   3.365  10.754
91651W        W64076  35.850  40.898  10.847
91652W        W64077  39.921   6.261   3.209
91653W        W64078  40.032  31.974  13.805
91654W        W64079  15.678  12.235   1.595
91655W        W64080   2.009   9.513   0.125
91656W        W64081   2.443  39.293   4.298
91657W        W64082  31.013  37.369  13.494
91658W        W64083  37.514   4.528   3.181
91659W        W64084  16.349   0.489  13.067
91660W        W64085  29.635  32.433  11.532
91661W        W64086  42.092  20.201  13.105
91662W        W64087  36.913  32.986  12.673
91663W        W64088  18.018  27.914  12.020
91664W        W64089  31.617   2.827   3.153
91665W        W64090   3.937  40.437  12.479
91666W        W64091   2.997  18.519  12.454
91667W        W64092  27.048   4.821   4.125
91668W        W64093  24.859  39.977   0.975
91669W        W64094  40.357  38.905  14.020
91670W        W64095  42.359  29.993   3.887
91671W        W64096  17.331  19.296   4.119
91672W        W64097  22.714  42.904  13.978
91673W        W64098  31.884  41.886   1.383
91674W        W64099  27.198  33.111  13.245
91675W        W64100   5.853   3.837   4.681
91676W        W64101  21.959  35.342  11.975
91677W        W64102  20.236  22.823   2.251
91678W        W64103   4.342  25.038   4.977
91679W        W64104  15.768  24.069   2.746
91680W        W64105  21.214  36.951  12.619
91681W        W64106  11.051   2.134   4.565
91682W        W64107   1.483   5.002   0.809
91683W        W64108  27.649  21.229   4.648
91684W        W64109   7.993  33.380   3.191
91685W        W64110  23.499  30.482  12.645
91686W        W64111  22.150  21.683   2.770
91687W        W64112  21.163  21.853  11.411
91688W        W64113  10.673  27.592  14.151
91689W        W64114  41.309  28.541  12.204
91690W        W64115   3.442  11.427  12.072
91691W        W64116  36.757  36.021   1.951
91692W        W64117  41.896  43.961   2.580
91693W        W64118  10.417   1.341  11.516
91694W        W64119  24.109  44.992   4.700
91695W        W64120   0.115  16.371   0.287
91696W        W64121  16.624  29.386   3.678
91697W        W64122  13.085  19.695   3.068
91698W        W64123  34.484  25.143   2.157
91699W        W64124  34.159  34.639   4.479
91700W        W64125  44.740  30.180  10.386
91701W        W64126  41.192  17.221  13.511
91702W        W64127  30.183   1.492  12.944
91703W        W64128  19.061  14.639   3.204
91704W        W64129  39.807   4.945   1.425
91705W        W64130   8.611  19.348   0.359
91706W        W64131   9.410  37.837  11.174
91707W        W64132  33.426  18.662  14.908
91708W        W64133  24.436  29.578   5.058
91709W        W64134   0.539  18.693   3.110
91710W        W64135  30.845  19.085   3.241
91711W        W64136  17.122  39.069  11.446
91712W        W64137  10.429  24.576  13.561
91713W        W64138  35.573  26.302   0.167
91714W        W64139   6.323  39.797  13.044
91715W        W64140  43.760  21.564   4.347
91716W        W64141  33.749   4.027  14.206
91717W        W64142   5.816  27.558   4.139
91718W        W64143  26.637  10.587  14.407
91719W        W64144  20.232   5.818  13.377
91720W        W64145  12.786  13.857   2.126
91721W        W64146   3.492  26.035   1.764
91722W        W64147  10.887  32.385  14.087
91723W        W64148  11.403  41.896   2.703
91724W        W64149  43.602  18.545  11.158
91725W        W64150   6.504  27.893  11.977
91726W        W64151  15.345  32.638   9.693
91727W        W64152   1.935   4.726   4.336
91728W        W64153  35.150  38.477  12.586
91729W        W64154  32.188  34.559  10.234
91730W        W64155   7.206   8.888  11.868
91731W        W64156   5.639   1.406  11.555
91732W        W64157  35.918   3.004   0.461
91733W        W64158  33.069  40.979   1.762
91734W        W64159  12.781  13.847  11.469
91735W        W64160  11.636   9.953   3.669
91736W        W64161  34.716  10.135  13.882
91737W        W64162  29.588  13.003   1.311
91738W        W64163  31.046  11.067   3.660
91739W        W64164  31.030  42.621   2.842
91740W        W64165  14.540   5.623  12.013
91741W        W64166  36.373  30.384   0.424
91742W        W64167  13.240  31.158   1.399
91743W        W64168  33.076   3.732   3.128
91744W        W64169   2.391   1.825   2.446
91745W        W64170  24.585  29.609   1.281
91746W        W64171  36.246  33.409  13.424
91747W        W64172  12.384   7.851  12.452
91748W        W64173   2.012  43.887  14.413
91749W        W64174  28.335  40.665   1.110
91750W        W64175  20.317  30.658   0.447
91751W        W64176  15.714  17.231   0.345
91752W        W64177  17.387  24.856  13.465
91753W        W64178  42.355  37.621  10.501
91754W        W64179  26.040  25.311  14.187
91755W        W64180   5.515  42.838  14.227
91756W        W64181  37.102  23.992   0.013
91757W        W64182  11.411  32.472  13.979
91758W        W64183  11.081  24.592   9.651
91759W        W64184  31.381  41.758  11.436
91760W        W64185   4.632  34.744  13.444
91761W        W64186  21.033   2.377   3.689
91762W        W64187  14.860  35.986   2.670
91763W        W64188  37.456  17.011  10.779
91764W        W64189  37.391  20.329  13.259
91765W        W64190  15.209  28.311  12.465
91766W        W64191  39.244  27.182   4.046
91767W        W64192  10.819   5.301  12.057
91768W        W64193  15.014  19.192   3.002
91769W        W64194  19.752  43.363   0.949
91770W        W64195  21.593  36.993   0.975
91771W        W64196  21.066  43.790   1.702
91772W        W64197  11.165  43.822   4.591
91773W        W64198  23.098  17.189  11.650
91774W        W64199   7.356  35.578   4.666
91775W        W64200  19.093   9.567  13.232
91776W        W64201  17.066  31.487   2.456
91777W        W64202  23.110   7.463   2.236
91778W        W64203  23.832   8.507  14.943
91779W        W64204  33.628  21.703   2.823
91780W        W64205  27.272  35.824   3.242
91781W        W64206  19.481  17.334  11.587
91782W        W64207  16.221  27.948  11.643
91783W        W64208  36.094  13.437   3.216
91784W        W64209  12.489  37.443   1.192
91785W        W64210  21.737  31.659   0.927
91786W        W64211  44.990  14.082   3.757
91787W        W64212  13.323  26.036   3.702
91788W        W64213  39.989   3.455   2.200
91789W        W64214  18.536   9.788  13.856
91790W        W64215  32.536   1.484   3.578
91791W        W64216  36.902   0.085   1.871
91792W        W64217  21.308   2.415   5.093
91793W        W64218  36.519  25.671  14.371
91794W        W64219  29.668   2.507  14.869
91795W        W64220  24.632  26.631  13.853
91796W        W64221  32.135  19.171  14.774
91797W        W64222  19.607   3.827  12.112
91798W        W64223  24.279  19.740   2.523
91799W        W64224  19.636  29.875   2.440
91800W        W64225  16.012   3.404   4.654
91801W        W64226  11.307  28.660   4.530
91802W        W64227  35.063   6.642   4.008
91803W        W64228   4.374   4.208   1.749
91804W        W64229  41.329   5.937   4.363
91805W        W64230   8.845  31.159   2.834
91806W        W64231  40.262  40.403  11.979
91807W        W64232  13.931  33.337  11.158
91808W        W64233   9.307  20.089   2.207
91809W        W64234  28.993  25.616   4.715
91810W        W64235  24.570  12.338   3.119
91811W        W64236   1.183   1.804  12.105
91812W        W64237   1.478  26.139  10.674
91813W        W64238  30.587  13.328   1.247
91814W        W64239   5.151  42.278  14.206
91815W        W64240  14.856  18.225   3.304
91816W        W64241   5.386   6.940  14.691
91817W        W64242  22.573  12.219   4.173
91818W        W64243  26.145   4.280   3.388
91819W        W64244   0.407   6.847   3.276
91820W        W64245  12.431  24.023  14.002
91821W        W64246   9.809  25.065   3.174
91822W        W64247  38.332  21.114  10.607
91823W        W64248  21.301  22.676   4.010
91824W        W64249   2.845  25.174   1.371
91825W        W64250  31.558  38.978  12.348
91826W        W64251  36.976  36.896   1.846
91827W        W64252  34.610   6.404   2.638
91828W        W64253  12.800  14.551   3.047
91829W        W64254  41.426  20.228  13.831
91830W        W64255  23.824  37.440  10.425
91831W        W64256  38.959  28.422   2.833
91832W        W64257  35.632  17.134  13.947
91833W        W64258   4.765  29.874   1.578
91834W        W64259  42.310  42.708   1.344
91835W        W64260  26.180  13.300   3.264
91836W        W64261   5.161  18.100  11.476
91837W        W64262   2.655  36.632  10.772
91838W        W64263  32.895   2.350   4.646
91839W        W64264  33.976  17.750  11.643
91840W        W64265   1.764  10.695  12.415
91841W        W64266   9.425  14.256   0.805
91842W        W64267  10.156  42.492   2.265
91843W        W64268  38.763  21.966   0.217
91844W        W64269   9.223  10.729  10.640
91845W        W64270  36.608   1.725  11.955
91846W        W64271  41.045  29.431  13.852
91847W        W64272  38.238  14.374   2.850
91848W        W64273  19.272  20.054  10.885
91849W        W64274  12.856  38.309  10.793
91850W        W64275   5.696   4.755  12.427
91851W        W64276   8.204  37.915  10.551
91852W        W64277  37.665  15.699  10.697
91853W        W64278   9.778  14.301  14.468
91854W        W64279  41.456  17.055  10.762
91855W        W64280  17.712  11.736   1.735
91856W        W64281  42.235  43.074  14.862
91857W        W64282  25.268  22.539   2.239
91858W        W64283  43.226  43.481   1.236
91859W        W64284  29.095  24.014   1.158
91860W        W64285  37.429  14.784  14.017
91861W        W64286  16.658  21.057   4.073
91862W        W64287  42.044  34.434   1.367
91863W        W64288  41.047   5.737  12.187
91864W        W64289  23.018  41.710   1.217
91865W        W64290  28.479  33.576  14.425
91866W        W64291  12.553   9.328  14.591
91867W        W64292  17.552  38.373   4.534
91868W        W64293   2.981   2.441  12.582
91869W        W64294  36.438  43.490  11.570
91870W        W64295  36.420  30.557   1.356
91871W        W64296  39.932  25.220  11.488
91872W        W64297  26.177  32.357  13.935
91873W        W64298  31.375  12.141   0.810
91874W        W64299  19.949  21.075   2.758
91875W        W64300  15.531  10.792   0.765
91876W        W64301   6.293  21.112   0.259
91877W        W64302  25.185  40.895  12.381
91878W        W64303  26.911  43.552   0.913
91879W        W64304  24.471  33.497   4.253
91880W        W64305  30.587  33.913   1.082
91881W        W64306   3.532  25.614  12.172
91882W        W64307  42.752   4.781  11.512
91883W        W64308  17.208  17.587  10.568
91884W        W64309  28.628  24.150  13.887
91885W        W64310  21.726   6.310   3.752
91886W        W64311  41.562  37.569   2.863
91887W        W64312   7.782  26.982  12.479
91888W        W64313  15.661   7.169  12.335
91889W        W64314  44.862  18.621   3.360
91890W        W64315   4.098  22.803  11.653
91891W        W64316  42.225  27.560   3.238
91892W        W64317  23.252   6.195  11.070
91893W        W64318  19.236  14.014  12.127
91894W        W64319  22.664  40.064   1.932
91895W        W64320   5.195  30.667   1.433
91896W        W64321  26.041  17.692   2.693
91897W        W64322  20.497  22.917   1.411
91898W        W64323  24.725   6.944   1.746
91899W        W64324  37.078   5.851  11.196
91900W        W64325  10.248  27.043   4.617
91901W        W64326  43.272  15.187  12.066
91902W        W64327   9.640  22.136   4.322
91903W        W64328  28.515  27.000   4.606
91904W        W64329  40.318  22.623   0.303
91905W        W64330  41.224  38.135  11.840
91906W        W64331  35.607  43.417  11.674
91907W        W64332  10.329  39.820   0.912
91908W        W64333  43.327  21.972  13.918
91909W        W64334  43.667  13.897   1.429
91910W        W64335  44.319   0.305  11.108
91911W        W64336  36.598  27.080  14.272
91912W        W64337   5.905  11.840   4.624
91913W        W64338  23.045  27.893  12.987
91914W        W64339  17.660  32.011   0.810
91915W        W64340  28.883  25.218   0.801
91916W        W64341  32.813  17.946  14.355
91917W        W64342  18.081  15.432   1.053
91918W        W64343  40.108  13.152   1.427
91919W        W64344   1.477   7.293  13.070
91920W        W64345   7.551  12.407  14.437
91921W        W64346  35.576   9.338  11.186
91922W        W64347  21.187  22.455   3.085
91923W        W64348  40.051  19.150  10.491
91924W        W64349  15.470  39.452   1.760
91925W        W64350  24.213  24.872   4.590
91926W        W64351  37.373  31.029   3.315
91927W        W64352  25.530   6.265  11.642
91928W        W64353  41.936  40.230  11.599
91929W        W64354   8.760  41.212   4.201
91930W        W64355  30.671  15.150   3.094
91931W        W64356  21.918  30.157  14.367
91932W        W64357  31.691  12.590  14.600
91933W        W64358   2.716  25.649   0.690
91934W        W64359  42.465  43.134  10.673
91935W        W64360   6.577  32.496   1.171
91936W        W64361   5.635   8.347   4.186
91937W        W64362   7.086  12.067   4.559
91938W        W64363   3.595  34.514   4.637
91939W        W64364  23.943  24.881   1.415
91940W        W64365  32.255  11.023   3.267
91941W        W64366  28.403  34.925   0.250
91942W        W64367  38.978  23.116   3.602
91943W        W64368  19.297  12.926   2.876
91944W        W64369  41.333   4.476   1.849
91945W        W64370   9.138  24.117   2.348
91946W        W64371  22.490   8.185  14.800
91947W        W64372  10.150  34.570   1.336
91948W        W64373  33.681  42.498  11.721
91949W        W64374   4.962  34.016   1.648
91950W        W64375   5.990   0.534  13.015
91951W        W64376  28.583   6.456  14.667
91952W        W64377  17.344  34.873   3.252
91953W        W64378  28.782   4.934   3.189
91954W        W64379  31.395  17.298  11.859
91955W        W64380  12.598  23.365   1.449
91956W        W64381   0.721  19.454   0.395
91957W        W64382  30.077  29.566  11.967
91958W        W64383  44.369  12.824   4.164
91959W        W64384  21.056  22.316   4.296
91960W        W64385  17.326   0.042  11.523
91961W        W64386  21.288  20.837   4.163
91962W        W64387  34.054  21.003  13.202
91963W        W64388  44.207  28.802  13.395
91964W        W64389  19.644  38.805  10.736
91965W        W64390  35.817  25.947   0.453
91966W        W64391  39.874  16.335  14.345
91967W        W64392  17.833  12.750   1.723
91968W        W64393  31.944   9.253   1.932
91969W        W64394  41.436  19.665   3.669
91970W        W64395  43.026  40.470  11.765
91971W        W64396  41.768  36.174   4.456
91972W        W64397  31.107  37.031   2.044
91973W        W64398   5.380  29.807  11.359
91974W        W64399  11.469  36.362  14.127
91975W        W64400  34.153  35.606   4.122
91976W        W64401  25.379   4.963   2.868
91977W        W64402  28.168  36.517  11.517
91978W        W64403   2.228  17.840  11.492
91979W        W64404   3.242   1.837   1.488
91980W        W64405  32.076  40.645   5.033
91981W        W64406  42.237  20.499  11.365
91982W        W64407  40.902  13.150   4.334
91983W        W64408  41.620  15.766   1.887
91984W        W64409  23.605  23.765  11.643
91985W        W64410  14.327   2.183  10.799
91986W        W64411   8.470  40.423  11.072
91987W        W64412  22.101  20.021   0.801
91988W        W64413  41.061  42.702  12.616
91989W        W64414  36.492   3.160  11.968
91990W        W64415  13.689  25.147   4.452
91991W        W64416  19.939  27.281  13.017
91992W        W64417  30.502  31.567  12.137
91993W        W64418   6.891   1.918   0.880
91994W        W64419  30.015  26.690   2.345
91995W        W64420  34.923  31.812   0.355
91996W        W64421  37.475  31.601  11.552
91997W        W64422  12.270  10.310  10.863
91998W        W64423  18.742   4.230  12.011
91999W        W64424  39.655  42.394   1.035
92000W        W64425   6.401  37.042   4.536
92001W        W64426  17.060  43.762   3.165
92002W        W64427  22.703  14.326  13.352
92003W        W64428  36.558  14.808   1.134
92004W        W64429  19.674   0.202  14.320
92005W        W64430  12.858  37.965  11.775
92006W        W64431   1.017  22.788  14.265
92007W        W64432  20.349  12.030  12.007
92008W        W64433  21.033  24.271  12.976
92009W        W64434   9.702  32.555   3.118
92010W        W64435  24.057   9.030   1.372
92011W        W64436  26.909  44.240  13.798
92012W        W64437   9.566  40.034  11.547
92013W        W64438  40.917  11.866   1.080
92014W        W64439  25.128  11.831  11.688
92015W        W64440  21.260  18.970   3.245
92016W        W64441   6.881  28.016   0.758
92017W        W64442   9.835  25.124   1.177
92018W        W64443  27.545  29.216   0.389
92019W        W64444  33.041  10.067  11.692
92020W        W64445  26.945  13.107  10.818
92021W        W64446  26.082   7.178   1.917
92022W        W64447   6.149   2.174   3.385
92023W        W64448  29.268  33.959   4.524
92024W        W64449   6.261  34.046   2.907
92025W        W64450   3.279  10.561   3.656
92026W        W64451   1.381  13.201  13.395
92027W        W64452  14.720  34.530   1.478
92028W        W64453  40.302   7.014   0.401
92029W        W64454  34.539  40.583  13.402
92030W        W64455  31.229   9.227   4.296
92031W        W64456  31.688  27.753  14.340
92032W        W64457  39.516   2.351  13.339
92033W        W64458   5.223   2.377  14.306
92034W        W64459  41.500  14.227   3.207
92035W        W64460  20.682  12.566  10.465
92036W        W64461  23.801  32.794  12.728
92037W        W64462   3.886  36.358  12.284
92038W        W64463   2.435  26.453   1.252
92039W        W64464  15.319  16.309   3.977
92040W        W64465   2.994   5.701  10.713
92041W        W64466  30.113  40.499  10.255
92042W        W64467   6.350  32.685   3.460
92043W        W64468  25.075  10.968   1.924
92044W        W64469  24.058  26.899  14.750
92045W        W64470  41.481  19.806  14.954
92046W        W64471  27.908   7.343  13.363
92047W        W64472  36.417  35.654  13.701
92048W        W64473  13.122   6.340  10.909
92049W        W64474  36.584   3.776  11.125
92050W        W64475  13.739  41.186   1.903
92051W        W64476  11.251  26.093  12.621
92052W        W64477  15.714  24.860  12.605
92053W        W64478  16.661  12.772   4.246
92054W        W64479  44.469  16.296   0.921
92055W        W64480   6.477  17.062  14.017
92056W        W64481  37.820  11.019   4.246
92057W        W64482  42.977  33.699  14.820
92058W        W64483  27.880   9.990   9.968
92059W        W64484  24.955  34.370  14.705
92060W        W64485  44.772  22.974   0.364
92061W        W64486  17.160  24.147  14.681
92062W        W64487  19.114   2.366  14.863
92063W        W64488  25.382  18.675   4.075
92064W        W64489   7.287  38.330  13.415
92065W        W64490  30.426  36.858  11.974
92066W        W64491  38.273   4.865  10.771
92067W        W64492   6.457   0.242  14.371
92068W        W64493  12.024  38.938  12.972
92069W        W64494  30.573   8.419  12.925
92070W        W64495  26.577  24.837  13.063
92071W        W64496  35.372   6.646   3.606
92072W        W64497  35.440  16.732   4.867
92073W        W64498   9.266   8.582   1.357
92074W        W64499  29.112  28.000  10.905
92075W        W64500  12.780  16.104   3.557
92076W        W64501  11.787  28.915  12.455
92077W        W64502  39.157  24.907   4.984
92078W        W64503  32.646  27.201  13.465
92079W        W64504  26.711   3.542   0.316
92080W        W64505  11.133  35.787  13.296
92081W        W64506  11.866  29.394  11.588
92082W        W64507  43.896   1.828  11.277
92083W        W64508  30.131  41.834   1.684
92084W        W64509  28.027  22.658  11.125
92085W        W64510  39.000  21.403   5.277
92086W        W64511  39.989  16.761   3.954
92087W        W64512  37.842   7.140   1.260
92088W        W64513  25.687  27.956   3.360
92089W        W64514  16.691  32.052  12.283
92090W        W64515  21.047  42.489  14.030
92091W        W64516  23.527   0.465   2.761
92092W        W64517  10.822   7.578  10.918
92093W        W64518  17.188  12.550  12.938
92094W        W64519  42.829  41.546   1.364
92095W        W64520   0.496  12.367   1.796
92096W        W64521  32.476  44.605   1.177
92097W        W64522  37.643  20.616   1.879
92098W        W64523  44.245  43.833   2.150
92099W        W64524  16.417  40.275   2.412
92100W        W64525  42.573  44.993   1.853
92101W        W64526  25.161  11.869   4.025
92102W        W64527  36.484   8.926   0.414
92103W        W64528  24.245  35.949  14.317
92104W        W64529  37.699  11.514   4.286
92105W        W64530  34.967  34.311  12.091
92106W        W64531  22.071  24.873  14.785
92107W        W64532  23.617   1.963   2.911
92108W        W64533  44.959  43.174   3.735
92109W        W64534  34.827  27.319   4.595
92110W        W64535  19.271  15.857   2.335
92111W        W64536  39.248  26.200   4.719
92112W        W64537   3.247   9.840   1.063
92113W        W64538   8.294  37.846   3.664
92114W        W64539  14.201  17.533   4.551
92115W        W64540  33.406  35.215  13.137
92116W        W64541   5.906  39.526  11.151
92117W        W64542   5.641  14.726  13.300
92118W        W64543  25.548  39.993  13.467
92119W        W64544  13.325  17.813   1.334
92120W        W64545  20.278  22.912  13.460
92121W        W64546  10.703   8.445  13.482
92122W        W64547  40.908  21.662   2.592
92123W        W64548  28.522  33.125  14.685
92124W        W64549  13.623   1.436  12.383
92125W        W64550  31.096  13.737  12.839
92126W        W64551  44.482  20.245   0.759
92127W        W64552  15.861  12.119   2.631
92128W        W64553  14.297   2.793  13.121
92129W        W64554  10.218  22.403  10.166
92130W        W64555  12.057  22.479  13.796
92131W        W64556  35.622  26.547   1.661
92132W        W64557   8.343  37.697  14.115
92133W        W64558  32.208  43.491  12.697
92134W        W64559  24.920   5.085   1.394
92135W        W64560  44.490  34.081  13.005
92136W        W64561  30.892   6.394  12.539
92137W        W64562  10.860  10.824   3.297
92138W        W64563   6.606  40.336   1.347
92139W        W64564  20.466  36.436  11.557
92140W        W64565  21.136  41.463   4.338
92141W        W64566  24.045   7.326   1.890
92142W        W64567  23.624  16.121  12.562
92143W        W64568   3.184  22.093  14.478
92144W        W64569  13.851  28.961  11.579
92145W        W64570  10.573  13.189   0.931
92146W        W64571   9.324  19.186  13.836
92147W        W64572   6.278  34.918   2.384
92148W        W64573   5.503   5.669  11.613
92149W        W64574  36.067   2.400  13.949
92150W        W64575   9.325   9.868  14.569
92151W        W64576  25.187  24.997  10.757
92152W        W64577   0.913  21.187   4.196
92153W        W64578  14.673   0.412  11.394
92154W        W64579   3.649  41.316  13.366
92155W        W64580  37.239   9.439   4.608
92156W        W64581  34.656   2.758   3.635
92157W        W64582  26.059  34.042   2.848
92158W        W64583  40.895  20.146  13.979
92159W        W64584   8.284  34.538  11.481
92160W        W64585   5.737   0.799  14.357
92161W        W64586  36.349  13.052   2.262
92162W        W64587  27.619   6.610   3.881
92163W        W64588  28.531  36.424   4.656
92164W        W64589  11.808  27.767  14.682
92165W        W64590  29.084   2.944  11.943
92166W        W64591  36.672  12.700  10.297
92167W        W64592  26.440  11.619   2.570
92168W        W64593  10.776  43.966  12.679
92169W        W64594   7.716   8.167  11.661
92170W        W64595  15.682  42.983   4.521
92171W        W64596  19.400  26.047   3.988
92172W        W64597  38.279  12.614  13.981
92173W        W64598  33.155   3.828  11.180
92174W        W64599  35.721  27.300  14.354
92175W        W64600  15.882   0.010   4.491
92176W        W64601  14.020  29.537   4.799
92177W        W64602  17.116  17.293   0.813
92178W        W64603  36.170  28.088  13.080
92179W        W64604  16.817  41.199   1.774
92180W        W64605  19.504  42.760  14.776
92181W        W64606  24.563  17.163  13.988
92182W        W64607  23.552   9.208  10.688
92183W        W64608  26.310  31.423   4.371
92184W        W64609  44.284  37.731   0.094
92185W        W64610  30.169  27.343  10.610
92186W        W64611  27.518   5.213  12.443
92187W        W64612  11.133   7.714   3.587
92188W        W64613   8.257  16.469  12.884
92189W        W64614   1.010  25.205   1.146
92190W        W64615  11.761  30.881  12.397
92191W        W64616   8.710   9.794   2.450
92192W        W64617   0.193  21.204  10.969
92193W        W64618  14.094  25.364  13.464
92194W        W64619  16.031   6.197   4.278
92195W        W64620  11.316  19.273  12.924
92196W        W64621  21.671  15.299  14.840
92197W        W64622  15.477   4.922  11.906
92198W        W64623   1.731  16.195   4.745
92199W        W64624   1.356  44.780   1.468
92200W        W64625  24.686  12.711   0.539
92201W        W64626  37.034  30.207   2.803
92202W        W64627  43.462  14.266  14.742
92203W        W64628  32.498  10.147  14.554
92204W        W64629  24.703   0.713   4.898
92205W        W64630  28.997   2.089   4.648
92206W        W64631  24.181  31.602  12.747
92207W        W64632  27.112   2.434  12.279
92208W        W64633  32.542  13.510  14.471
92209W        W64634   3.407  39.761  14.784
92210W        W64635  31.184  18.290   2.415
92211W        W64636   2.861  12.168   1.215
92212W        W64637  25.040   6.478   2.439
92213W        W64638  40.750  16.684   1.852
92214W        W64639  30.533  44.475   2.683
92215W        W64640  37.776   2.722  14.758
92216W        W64641  13.897   9.714   2.370
92217W        W64642  41.489   3.987   1.817
92218W        W64643  36.537  42.924  10.351
92219W        W64644   6.607  42.278   0.787
92220W        W64645  37.101  19.267   4.925
92221W        W64646  28.416  23.035  11.916
92222W        W64647  40.485   0.256  13.797
92223W        W64648  21.709  12.157  12.809
92224W        W64649  41.843  15.838  11.581
92225W        W64650  28.215  38.757   4.588
92226W        W64651  18.049  43.408  12.977
92227W        W64652  15.539  20.331  10.706
92228W        W64653  13.834  21.496  14.970
92229W        W64654   7.606   6.199  12.106
92230W        W64655   2.426  28.100  10.365
92231W        W64656   1.126  10.437   2.897
92232W        W64657  37.989  22.718   0.884
92233W        W64658  17.807  41.936   0.652
92234W        W64659  29.185  28.638  12.910
92235W        W64660  36.563  43.479   4.570
92236W        W64661   3.932  41.684  11.051
92237W        W64662   0.916  36.293  13.419
92238W        W64663   0.968  15.053   3.660
92239W        W64664  29.918  27.064   1.856
92240W        W64665   2.390   5.381   3.341
92241W        W64666   4.465  13.189   1.867
92242W        W64667   7.199  43.525   1.370
92243W        W64668  41.920  39.954  10.510
92244W        W64669   7.306  39.075   1.237
92245W        W64670  29.953   5.881   4.115
92246W        W64671  25.368  22.849   0.676
92247W        W64672  37.910   7.665  14.931
92248W        W64673  13.717  23.245  12.333
92249W        W64674  27.747  38.357  12.587
92250W        W64675  40.391  33.132  13.468
92251W        W64676  37.593  35.916   4.074
92252W        W64677  40.124  39.774   2.374
92253W        W64678   4.857   4.459   4.675
92254W        W64679  43.944  43.495   1.781
92255W        W64680   1.718   2.853   3.629
92256W        W64681  32.422  28.625   3.088
92257W        W64682  10.669   3.187   1.450
92258W        W64683   2.946   0.822   1.826
92259W        W64684  11.815  26.908  10.685
92260W        W64685  13.222  13.678   3.092
92261W        W64686  18.511  33.381   4.999
92262W        W64687  40.837  28.607   4.480
92263W        W64688  10.760   7.701   0.221
92264W        W64689   6.842   9.361  12.331
92265W        W64690   7.171  20.646   1.806
92266W        W64691  31.057  37.650  13.032
92267W        W64692   9.225  34.881   3.700
92268W        W64693  19.571  44.477   0.016
92269W        W64694  32.545   7.066   0.431
92270W        W64695  34.449  17.511   1.902
92271W        W64696  26.112  40.231   2.572
92272W        W64697  28.481   4.843   4.728
92273W        W64698   3.446  11.374   1.338
92274W        W64699  32.037  43.982  11.985
92275W        W64700  40.594   5.686   0.446
92276W        W64701   2.811  15.785  14.381
92277W        W64702  21.060  33.899   2.297
92278W        W64703   5.291  27.166   2.271
92279W        W64704  42.340  22.651  10.522
92280W        W64705   9.568   3.938  13.331
92281W        W64706   0.585  33.908  12.368
92282W        W64707  18.333  19.299  12.485
92283W        W64708   6.946  14.703   2.737
92284W        W64709   7.330  21.541  11.965
92285W        W64710  28.856  11.773  12.958
92286W        W64711   6.808  41.651   3.825
92287W        W64712   1.885  37.308  12.916
92288W        W64713  10.654  42.067  12.871
92289W        W64714  32.101  33.411  12.035
92290W        W64715   2.251   0.807  10.985
92291W        W64716  34.567  20.078  11.163
92292W        W64717  20.796   2.825   3.698
92293W        W64718  24.258  23.259  10.703
92294W        W64719  27.725  19.609  11.164
92295W        W64720  18.528  23.073   0.008
92296W        W64721  11.847  28.165  13.788
92297W        W64722  37.373  29.313  12.814
92298W        W64723  22.010  43.346  12.032
92299W        W64724  27.295  31.946   9.612
92300W        W64725   4.820   8.279  13.510
92301W        W64726  29.859  16.053  14.759
92302W        W64727  36.249   5.822  10.707
92303W        W64728  15.691  22.624  12.353
92304W        W64729  29.356  11.741  11.738
92305W        W64730   6.124  35.075   3.223
92306W        W64731   7.982  36.413   2.897
92307W        W64732  20.503   6.889   2.886
92308W        W64733  43.474  27.132  12.545
92309W        W64734  32.557  31.169  13.526
92310W        W64735  26.018  25.996   1.279
92311W        W64736  32.230   5.759  14.501
92312W        W64737  21.118   5.866  11.530
92313W        W64738   7.996  36.354  11.498
92314W        W64739   9.437  36.738  13.872
92315W        W64740  33.718   5.731   0.234
92316W        W64741  36.064  38.419   1.751
92317W        W64742  44.889  42.954  13.116
92318W        W64743  10.658  24.719  10.725
92319W        W64744  13.319   7.232   3.660
92320W        W64745  38.859   8.678  11.160
92321W        W64746  43.800  32.435  10.185
92322W        W64747  40.915   7.834  12.940
92323W        W64748   8.752  25.511   0.718
92324W        W64749  23.521   9.193  12.051
92325W        W64750  39.298  13.651   2.822
92326W        W64751   7.806  31.150   3.816
92327W        W64752  24.806  18.533  13.221
92328W        W64753  23.189  34.100  10.987
92329W        W64754  42.627  38.314  12.555
92330W        W64755  15.347  18.342   3.144
92331W        W64756   9.334   8.889   4.397
92332W        W64757  28.684  14.785  14.257
92333W        W64758  29.095  31.610   3.151
92334W        W64759  33.541  34.498  11.402
92335W        W64760  26.631   9.863   1.828
92336W        W64761   0.974  20.516  14.693
92337W        W64762  39.328  32.498  14.343
92338W        W64763  42.907  37.603  14.486
92339W        W64764  22.512  13.244   4.585
92340W        W64765  34.766  29.186   2.833
92341W        W64766   6.927  17.262   1.411
92342W        W64767  21.511  18.416  14.718
92343W        W64768  32.469  23.092  14.413
92344W        W64769  12.976  16.493   0.895
92345W        W64770  34.722   8.043   4.718
92346W        W64771  12.255  15.422  15.000
92347W        W64772  16.820  12.213  11.624
92348W        W64773  11.116  16.886   1.862
92349W        W64774   6.882  21.984  13.892
92350W        W64775  27.613  13.292   2.883
92351W        W64776  32.833  37.116   2.382
92352W        W64777  15.783  33.594   3.011
92353W        W64778   8.495  10.719   0.534
92354W        W64779   4.579  36.232   5.065
92355W        W64780  42.627  20.342  13.623
92356W        W64781  32.935  10.454   2.213
92357W        W64782  39.717  20.665  13.387
92358W        W64783  44.244  41.389  12.624
92359W        W64784   4.188  36.063   4.704
92360W        W64785  19.335  10.287   2.816
92361W        W64786   8.615   6.337  13.459
92362W        W64787   6.399  16.281   1.605
92363W        W64788   7.133  12.083   3.656
92364W        W64789  42.872  28.348  11.253
92365W        W64790  23.593   4.305  12.143
92366W        W64791  39.854  42.298  12.156
92367W        W64792  27.112  30.114  14.431
92368W        W64793  26.518  20.713  10.608
92369W        W64794  44.817  21.131   3.620
92370W        W64795  18.787   4.565   5.392
92371W        W64796  39.461  10.849  11.396
92372W        W64797  22.718  34.973   4.654
92373W        W64798   6.204  15.050  14.412
92374W        W64799   2.869   5.743  13.058
92375W        W64800   9.613  13.759  14.737
92376W        W64801  38.903  11.596  12.024
92377W        W64802  10.952  32.091  10.708
92378W        W64803   4.745  11.397   2.195
92379W        W64804   8.878   9.798  14.078
92380W        W64805  25.038  10.277  13.082
92381W        W64806  39.796  11.671   3.267
92382W        W64807  10.757  27.398  11.029
92383W        W64808  30.134  33.835   0.848
92384W        W64809  17.770   6.110   3.809
92385W        W64810  27.803  38.490  14.514
92386W        W64811   8.043  19.334   1.089
92387W        W64812  43.517  16.437   1.481
92388W        W64813  22.514   9.372  10.636
92389W        W64814  37.311  11.572   2.468
92390W        W64815   7.877  24.550  14.298
92391W        W64816  20.929  21.148   2.645
92392W        W64817  14.784  15.582  10.875
92393W        W64818  28.614  29.435   0.682
92394W        W64819   5.993  15.894   0.960
92395W        W64820   6.612  38.558  14.875
92396W        W64821  35.448  20.305  14.332
92397W        W64822  38.413  33.953   2.473
92398W        W64823  24.391  31.439   3.058
92399W        W64824  10.043   0.283   2.757
92400W        W64825   9.117   4.124  13.549
92401W        W64826  29.341  27.127  11.199
92402W        W64827  13.315  17.322  12.966
92403W        W64828   3.046  21.509   4.621
92404W        W64829  35.864  43.847   0.973
92405W        W64830   0.902  43.968  12.200
92406W        W64831  36.994  11.906  14.844
92407W        W64832  28.633  26.526   4.376
92408W        W64833  16.505   0.809   0.632
92409W        W64834  31.618   0.021  11.038
92410W        W64835   2.635  32.978  13.725
92411W        W64836  37.444  29.654   1.194
92412W        W64837  25.951  44.271  14.868
92413W        W64838   3.810  28.892   4.426
92414W        W64839  29.525  21.030   2.744
92415W        W64840   2.942   1.686   3.334
92416W        W64841   1.024  26.544  14.830
92417W        W64842  40.138  30.478  12.472
92418W        W64843  36.792   9.367   5.468
92419W        W64844  11.688  35.072  12.876
92420W        W64845  17.366   0.641   3.087
92421W        W64846  43.645  42.983   3.301
92422W        W64847  43.419   1.009   4.729
92423W        W64848  15.224   2.203  14.937
92424W        W64849  42.292  10.700   4.396
92425W        W64850  22.627  21.600  11.924
92426W        W64851   9.249  11.311  14.383
92427W        W64852   9.194  13.114   3.715
92428W        W64853  12.318  18.803  11.632
92429W        W64854  14.255  35.692   1.863
92430W        W64855   5.654  44.906   3.781
92431W        W64856   6.776  28.148   0.236
92432W        W64857  22.763  26.680   1.254
92433W        W64858   3.364  19.273  14.235
92434W        W64859  24.712  38.913   2.707
92435W        W64860  11.384  35.481  14.917
92436W        W64861  17.196  18.647   2.175
92437W        W64862  10.312  25.072   3.924
92438W        W64863  41.051  11.431   0.786
92439W        W64864  31.705  43.313   4.549
92440W        W64865  44.926  25.194   4.901
92441W        W64866  41.387  41.934  13.100
92442W        W64867  35.560   1.808  12.599
92443W        W64868  28.187  18.505  11.452
92444W        W64869  34.406  39.038  11.461
92445W        W64870  37.484  15.235  10.928
92446W        W64871  22.828   2.545  10.269
92447W        W64872   0.309  27.818   4.271
92448W        W64873  24.991   2.156   4.615
92449W        W64874  32.961  33.387  11.143
92450W        W64875   9.400   4.428  10.656
92451W        W64876  19.658  15.554   2.147
92452W        W64877   0.189   4.414   1.414
92453W        W64878  26.724  24.773  10.673
92454W        W64879  42.784   9.013   3.992
92455W        W64880  38.391   1.468  10.816
92456W        W64881   3.206  38.413  10.688
92457W        W64882   3.905  13.229  14.389
92458W        W64883  33.145  16.043   2.727
92459W        W64884  24.744  36.026  13.351
92460W        W64885  43.502  38.600   2.806
92461W        W64886  10.827  37.972  14.934
92462W        W64887  21.189   8.250   0.566
92463W        W64888  44.876  12.642  12.908
92464W        W64889  32.718  24.436  14.195
92465W        W64890  10.241  31.940   4.550
92466W        W64891   7.977  37.501  12.746
92467W        W64892  29.945  37.580   3.236
92468W        W64893  23.023  40.463   1.945
92469W        W64894  29.728  19.578   2.127
92470W        W64895   7.198  10.208   1.662
92471W        W64896  13.343   0.919  14.516
92472W        W64897   3.169   0.483  12.408
92473W        W64898   6.721  40.465   2.278
92474W        W64899  13.189   9.066  13.080
92475W        W64900  33.884   1.419  10.773
92476W        W64901   5.275  14.007   5.066
92477W        W64902  22.153  44.395  10.645
92478W        W64903  12.657  16.495   3.869
92479W        W64904   5.464  13.209  13.422
92480W        W64905  21.633  39.507   4.529
92481W        W64906   7.484  10.657   0.781
92482W        W64907  36.607  39.388  14.215
92483W        W64908  42.921  19.758   4.954
92484W        W64909  12.820   3.235   3.217
92485W        W64910  17.266   7.479   3.073
92486W        W64911  32.619  25.129  13.544
92487W        W64912  22.747  35.894   0.386
92488W        W64913  27.486  13.306   1.729
92489W        W64914  19.621  15.049   3.684
92490W        W64915  32.093  42.203   3.211
92491W        W64916  10.766  21.090  14.859
92492W        W64917  14.179  13.654   4.828
92493W        W64918  30.083  15.392   3.710
92494W        W64919  32.350   9.654   2.804
92495W        W64920  24.173  10.248   2.703
92496W        W64921   7.607  17.517  11.646
92497W        W64922  32.428  30.737   3.295
92498W        W64923  14.323  38.967  12.121
92499W        W64924  20.635  42.605  10.127
92500W        W64925  38.782  43.879   0.686
92501W        W64926   2.363  43.517   3.746
92502W        W64927  29.141  41.872  14.923
92503W        W64928  20.517  38.916   2.202
92504W        W64929  38.562  36.016  10.455
92505W        W64930   3.506  22.539  10.460
92506W        W64931  42.224   4.854   2.781
92507W        W64932  39.244   0.316  12.127
92508W        W64933  34.667  32.075   1.699
92509W        W64934  39.120   9.387   1.167
92510W        W64935  30.515  10.929  13.512
92511W        W64936  21.691   3.321   3.377
92512W        W64937  34.571  19.793  12.912
92513W        W64938   5.682  25.040  12.075
92514W        W64939   7.995  21.038  11.561
92515W        W64940  34.456  23.144  14.887
92516W        W64941  25.228  42.805  14.292
92517W        W64942  36.617  43.482   1.041
92518W        W64943  21.551  26.477   3.409
92519W        W64944  29.703  41.364   0.958
92520W        W64945  13.590  38.312  14.991
92521W        W64946   4.488  29.870  11.619
92522W        W64947  11.769  33.352   1.212
92523W        W64948  35.877  42.091  12.517
92524W        W64949  36.679  40.149   1.277
92525W        W64950  26.489  29.396   3.733
92526W        W64951   9.643  39.135   2.248
92527W        W64952   4.337  15.660  14.248
92528W        W64953  18.155   7.681  13.379
92529W        W64954  38.091  10.788  11.413
92530W        W64955  14.571  25.487  14.219
92531W        W64956  11.477  20.307   3.867
92532W        W64957  11.620   7.027   0.935
92533W        W64958  23.531  41.268  11.201
92534W        W64959  23.489  34.032  11.530
92535W        W64960  13.159  21.143   0.679
92536W        W64961  29.316   4.475  11.151
92537W        W64962  32.888  43.148  14.471
92538W        W64963   5.387  35.318  13.137
92539W        W64964  25.740  22.918  14.327
92540W        W64965  23.092  30.525  11.622
92541W        W64966  23.068   0.954   3.351
92542W        W64967   6.651  26.075   2.369
92543W        W64968  13.840   9.623   1.327
92544W        W64969  18.521   6.905  13.835
92545W        W64970  37.916  28.383   1.346
92546W        W64971   3.202  23.096   3.133
92547W        W64972   6.247  11.132   2.560
92548W        W64973   1.142  35.597  10.663
92549W        W64974  34.958  38.051  14.540
92550W        W64975   7.835  40.943  10.860
92551W        W64976  12.189   8.800   3.821
92552W        W64977  14.402   9.937   2.304
92553W        W64978  14.581   0.957  14.717
92554W        W64979  20.319  37.462   3.239
92555W        W64980  23.553  44.892  14.411
92556W        W64981  10.932  32.160  12.624
92557W        W64982  42.473  19.424  14.480
92558W        W64983  40.844  32.768   4.209
92559W        W64984  28.029  24.697  12.418
92560W        W64985   4.687  15.668  13.217
92561W        W64986  40.620  30.660   3.254
92562W        W64987  13.676  34.312  14.362
92563W        W64988  43.418   4.727  12.996
92564W        W64989  16.809  32.050  10.439
92565W        W64990  22.447   3.463   4.148
92566W        W64991   9.629  31.924  13.010
92567W        W64992  17.408  27.654  14.309
92568W        W64993  39.970  16.751  12.633
92569W        W64994   3.342   0.316  11.572
92570W        W64995  32.136   4.461   2.460
92571W        W64996   1.994  18.704   1.335
92572W        W64997  15.848  26.905   0.625
92573W        W64998  40.930  16.776   0.408
92574W        W64999  41.950   7.303   4.344
92575W        W65000  31.874  27.445   3.274
92576W        W65001   2.206  20.326   0.811
92577W        W65002   4.234  23.138  11.043
92578W        W65003  12.067  31.698  11.690
92579W        W65004  31.506  14.889   2.603
92580W        W65005  36.575  12.969  12.509
92581W        W65006  22.480  25.430  12.400
92582W        W65007   5.360   9.788  13.055
92583W        W65008  36.050  43.954   2.338
92584W        W65009  18.114  18.709   0.010
92585W        W65010  18.575   6.252   1.737
92586W        W65011   3.375  26.971   0.429
92587W        W65012  27.330  35.658  11.613
92588W        W65013   2.848  44.364  12.176
92589W        W65014  15.088  44.032  13.090
92590W        W65015  23.255  14.527   3.646
92591W        W65016  37.122  27.043  13.409
92592W        W65017  10.598  25.067  12.574
92593W        W65018  24.568  21.584   1.470
92594W        W65019  33.155   2.788  13.350
92595W        W65020  24.915  32.106  13.033
92596W        W65021  29.735  24.150  13.862
92597W        W65022  30.689   2.772   2.041
92598W        W65023  14.216  26.296   1.087
92599W        W65024   9.811  40.977   2.132
92600W        W65025  15.715  17.831  12.921
92601W        W65026  23.970  15.639   3.180
92602W        W65027   6.328  35.192  11.942
92603W        W65028  29.945  34.756  11.446
92604W        W65029   6.478   5.866  10.688
92605W        W65030  37.772   7.431   3.688
92606W        W65031  25.166  21.316  10.442
92607W        W65032  41.738  27.548   4.293
92608W        W65033   5.756   3.882  13.316
92609W        W65034   3.526  33.977   3.875
92610W        W65035  40.133  44.811   1.920
92611W        W65036  34.100   8.273  12.682
92612W        W65037  30.396  39.890   3.935
92613W        W65038  16.275  21.796  10.763
92614W        W65039  25.992  39.557  11.070
92615W        W65040  36.856   3.524   2.278
92616W        W65041   6.257  24.274   4.111
92617W        W65042  33.161  39.443   3.677
92618W        W65043  19.685  27.145  14.938
92619W        W65044  10.899  17.270   1.416
92620W        W65045  41.774  42.190  13.612
92621W        W65046  35.517  29.296   2.282
92622W        W65047  16.155  15.821   2.328
92623W        W65048  16.839  16.758   0.909
92624W        W65049  36.521  21.920  14.074
92625W        W65050  26.350   6.269  14.513
92626W        W65051  28.476  33.358   4.597
92627W        W65052  33.680  18.403  14.361
92628W        W65053  20.016  43.254  11.467
92629W        W65054  44.807  16.729   0.058
92630W        W65055   8.661   5.303   2.443
92631W        W65056   9.260  23.522   3.557
92632W        W65057   5.669   0.282   2.524
92633W        W65058  42.480   7.846  12.095
92634W        W65059   0.006  20.805  13.389
92635W        W65060  42.954  24.213  14.969
92636W        W65061  26.019  35.824   0.432
92637W        W65062  34.607  41.247  11.516
92638W        W65063   2.552   0.344  14.807
92639W        W65064   6.358   5.727   4.606
92640W        W65065  10.334  23.488   2.075
92641W        W65066  38.367  19.104   3.914
92642W        W65067  11.166  32.743  14.386
92643W        W65068  44.364   5.929   1.716
92644W        W65069  19.344   0.258   3.660
92645W        W65070  17.543  43.822   2.130
92646W        W65071  18.142  44.362  11.503
92647W        W65072  42.822  12.894  11.078
92648W        W65073  18.453  12.730   1.336
92649W        W65074  25.650  43.457  12.782
92650W        W65075  12.201  16.996  11.124
92651W        W65076  43.043  18.179  14.315
92652W        W65077  39.472  11.772   2.760
92653W        W65078   9.129  27.087   1.372
92654W        W65079  29.236  12.249   1.045
92655W        W65080   5.177  18.144  14.435
92656W        W65081  17.605  30.110  14.981
92657W        W65082  42.798  33.894  10.686
92658W        W65083  40.485  14.250  10.693
92659W        W65084  25.631  17.622  11.247
92660W        W65085  37.402  14.781   0.837
92661W        W65086  35.649   5.249   0.792
92662W        W65087  30.833  15.082   4.776
92663W        W65088  26.966  22.148   2.311
92664W        W65089  16.019  11.727   2.340
92665W        W65090   3.915  27.483  13.530
92666W        W65091  32.560  26.420   1.746
92667W        W65092  29.190  14.316   1.411
92668W        W65093  13.603  19.607   3.276
92669W        W65094  41.905  33.679   0.228
92670W        W65095  22.296  44.393  12.274
92671W        W65096  30.779   6.120   2.627
92672W        W65097  42.098  19.013  12.822
92673W        W65098  25.880   1.042  13.824
92674W        W65099  26.198   3.726   3.667
92675W        W65100  23.503  15.678   3.432
92676W        W65101   5.797  10.549  13.490
92677W        W65102  37.404  35.475   1.298
92678W        W65103  38.870  13.761   0.756
92679W        W65104   9.928  25.682   1.850
92680W        W65105   2.650  10.312  14.409
92681W        W65106   9.772   9.015  11.038
92682W        W65107  10.548   9.492   4.143
92683W        W65108   4.426   2.532  10.669
92684W        W65109  17.602   3.425  11.192
92685W        W65110   5.278  17.607   4.940
92686W        W65111  22.994   3.419  13.054
92687W        W65112  26.975  14.169  13.402
92688W        W65113   3.244  16.361   4.708
92689W        W65114  31.228   7.846  12.769
92690W        W65115  31.609  18.147  10.519
92691W        W65116   7.019  40.475  11.878
92692W        W65117   5.590   3.204   4.077
92693W        W65118  44.058   4.481  12.856
92694W        W65119  13.331   5.685  13.893
92695W        W65120   0.816  32.038  13.330
92696W        W65121  37.535   6.672  10.719
92697W        W65122  27.951  29.507   1.303
92698W        W65123  33.961  36.005   0.518
92699W        W65124  13.263  28.394  10.798
92700W        W65125   2.200   8.129   1.199
92701W        W65126  11.521   0.193   1.740
92702W        W65127   1.696  38.434   1.549
92703W        W65128  19.931  29.072   4.102
92704W        W65129  22.591   4.775  12.530
92705W        W65130  21.052  19.125  11.645
92706W        W65131  20.170  37.013   3.710
92707W        W65132  24.945  21.714  11.698
92708W        W65133  13.785  32.033  13.871
92709W        W65134  20.151  17.159   9.767
92710W        W65135  15.640  30.668  11.177
92711W        W65136  36.648  36.444  12.598
92712W        W65137  12.239  42.476   3.315
92713W        W65138  19.070   4.800  10.946
92714W        W65139  11.345  42.085   0.504
92715W        W65140  39.575   7.316  11.561
92716W        W65141  42.902  40.046  13.564
92717W        W65142  15.221  10.186   0.368
92718W        W65143  17.496  10.678  13.372
92719W        W65144  32.307  30.510   4.598
92720W        W65145   6.913  34.080   2.215
92721W        W65146  20.683  31.089   2.140
92722W        W65147  37.928   1.473  13.816
92723W        W65148   8.234   3.424   0.498
92724W        W65149  38.060  38.396   1.383
92725W        W65150  14.695   6.626   1.186
92726W        W65151   9.162  39.447  11.510
92727W        W65152  28.616  44.365   3.576
92728W        W65153  13.885   7.694   1.412
92729W        W65154  11.216  41.200  13.749
92730W        W65155  34.530  33.419   4.563
92731W        W65156  37.500  39.285   3.605
92732W        W65157  43.825  32.782  12.320
92733W        W65158  18.679  19.541   2.795
92734W        W65159  28.360   2.959   2.499
92735W        W65160   2.494  26.608   2.434
92736W        W65161  16.051  13.815   3.029
92737W        W65162  16.842  34.052   0.457
92738W        W65163  32.416   4.368   2.906
92739W        W65164  32.667  14.770   0.833
92740W        W65165  35.562  43.277   4.368
92741W        W65166  19.348  21.166  10.726
92742W        W65167  26.330  22.039  12.986
92743W        W65168   7.385  29.882   3.567
92744W        W65169  32.062  38.395   2.707
92745W        W65170  14.282   0.880   3.722
92746W        W65171   2.272  44.277   4.041
92747W        W65172  38.126   6.889   0.693
92748W        W65173  30.134  44.760   0.673
92749W        W65174   6.217   7.448  12.988
92750W        W65175   9.280  43.431  12.861
92751W        W65176  15.010  41.532  11.049
92752W        W65177  43.552  28.672  12.371
92753W        W65178   6.259   2.293   4.246
92754W        W65179  15.221   2.413  13.885
92755W        W65180  36.311  18.290   3.083
92756W        W65181  31.148  40.981   1.797
92757W        W65182  40.848  44.321  11.310
92758W        W65183  17.751   5.226   2.300
92759W        W65184  25.461  33.455  11.508
92760W        W65185  32.639  39.021   3.510
92761W        W65186  23.961  38.479  11.029
92762W        W65187  12.980  38.110   4.485
92763W        W65188   5.429  28.077   4.564
92764W        W65189  44.200  41.907  13.891
92765W        W65190  34.096  10.039  11.093
92766W        W65191  22.133  35.805  12.362
92767W        W65192  39.855   1.899  14.912
92768W        W65193  33.519  36.492  11.448
92769W        W65194  25.529  24.287  13.531
92770W        W65195   5.499   2.765  11.859
92771W        W65196   3.989   1.764  14.342
92772W        W65197   9.569  41.205  14.380
92773W        W65198  29.710  31.366  14.217
92774W        W65199  32.887  23.604  12.786
92775W        W65200  43.882   5.758  12.823
92776W        W65201  34.395  27.215  11.955
92777W        W65202  21.419   5.789  11.114
92778W        W65203  29.680  24.228  10.087
92779W        W65204  38.339  11.843   1.106
92780W        W65205  27.506  29.205   1.451
92781W        W65206  32.515   4.236  11.919
92782W        W65207  43.736  19.856  10.579
92783W        W65208   8.158   8.757  13.449
92784W        W65209   6.330  34.876  14.229
92785W        W65210  24.424  31.185  14.722
92786W        W65211  15.384  33.520  10.961
92787W        W65212  36.597  41.253   4.243
92788W        W65213   6.827   0.637   1.171
92789W        W65214   5.463   6.710  10.990
92790W        W65215   6.864  26.279   4.149
92791W        W65216  43.370  37.967   4.191
92792W        W65217  36.070   8.809   5.324
92793W        W65218   7.751  34.668   3.512
92794W        W65219  36.967  22.668   0.671
92795W        W65220  16.808  34.315  11.562
92796W        W65221  38.074   2.802   3.136
92797W        W65222   2.976  20.211  14.055
92798W        W65223  30.023  15.212  14.490
92799W        W65224  30.208  16.800  11.834
92800W        W65225  20.430  36.776   4.120
92801W        W65226  19.517  16.652   0.723
92802W        W65227  28.000  31.992   0.447
92803W        W65228  29.669  42.376   3.773
92804W        W65229  39.227   5.822   4.548
92805W        W65230   5.261  16.734   4.391
92806W        W65231   4.770  27.458   4.192
92807W        W65232  39.780  13.393  12.466
92808W        W65233  40.188  42.747  10.819
92809W        W65234  21.440   5.659   0.835
92810W        W65235   8.181  19.380   2.691
92811W        W65236  29.967  18.222   0.483
92812W        W65237  15.372  21.732   4.398
92813W        W65238   3.196   1.736  12.070
92814W        W65239   8.772  30.841  14.816
92815W        W65240  26.102  36.916  12.129
92816W        W65241  37.151  15.592   4.173
92817W        W65242  30.505   8.370  10.634
92818W        W65243  37.622  29.739   4.546
92819W        W65244   5.699  17.302   4.305
92820W        W65245  22.808  31.645  10.834
92821W        W65246   1.982  28.978   0.814
92822W        W65247   9.894  43.052  14.942
92823W        W65248  34.405  28.350   2.921
92824W        W65249  14.733   7.922   4.725
92825W        W65250  11.552   3.703   4.597
92826W        W65251  33.879  21.066   1.846
92827W        W65252   3.678  23.686  13.925
92828W        W65253  25.724  38.892   1.271
92829W        W65254  17.779  37.643  11.171
92830W        W65255   9.747   1.149  13.990
92831W        W65256  20.710   2.990   3.139
92832W        W65257   2.435  15.076   3.712
92833W        W65258  19.302  22.114   2.709
92834W        W65259   9.209   4.653   4.617
92835W        W65260  33.672  27.395  13.285
92836W        W65261  27.544   9.841  14.330
92837W        W65262  34.626   1.776  13.395
92838W        W65263  39.650   2.997  14.801
92839W        W65264  42.022  17.735   0.028
92840W        W65265  29.260  24.957   4.663
92841W        W65266  18.266  42.288   3.881
92842W        W65267  41.017  33.069   2.829
92843W        W65268  20.672  16.269   1.417
92844W        W65269  31.171  42.315   4.707
92845W        W65270  19.337  33.527   2.714
92846W        W65271  33.936  27.885   0.757
92847W        W65272  25.764  31.588  12.174
92848W        W65273   9.528  21.636   1.617
92849W        W65274  30.704  27.735  13.266
92850W        W65275  38.755  42.346  13.108
92851W        W65276  32.024  37.983  14.698
92852W        W65277  23.747   4.447   4.123
92853W        W65278   5.711  21.093  12.061
92854W        W65279  44.130   5.655  13.640
92855W        W65280  16.329  37.677   1.810
92856W        W65281   9.617  25.459  13.512
92857W        W65282  34.078  15.865   1.472
92858W        W65283   2.398  10.426   1.385
92859W        W65284  11.242   3.485   0.808
92860W        W65285  25.068  29.479   2.512
92861W        W65286  41.823  36.238   0.484
92862W        W65287  35.527  16.825  11.703
92863W        W65288   9.197  16.200   3.371
92864W        W65289  28.551  40.044  13.762
92865W        W65290  19.274  17.882  12.570
92866W        W65291  15.072  32.557  10.969
92867W        W65292  11.623  12.638  13.298
92868W        W65293  36.412  31.682  13.931
92869W        W65294   1.858   3.063   4.108
92870W        W65295  32.982  41.971   1.342
92871W        W65296  25.135  13.172   3.106
92872W        W65297   6.301  34.098  12.670
92873W        W65298  14.584   6.347  14.916
92874W        W65299   5.932  22.175  13.560
92875W        W65300   0.855  16.114   4.565
92876W        W65301   9.363  25.063   2.474
92877W        W65302  26.915  24.027  12.962
92878W        W65303  17.024  25.588   0.851
92879W        W65304  29.647  12.337   4.888
92880W        W65305  15.639  28.429   1.321
92881W        W65306  35.536  42.730   1.336
92882W        W65307  38.512  37.112   2.298
92883W        W65308   0.231  38.844  10.427
92884W        W65309  36.665  13.590  11.664
92885W        W65310  37.457  28.711  10.510
92886W        W65311  19.165  42.955  14.352
92887W        W65312  29.650  34.041  11.585
92888W        W65313  33.291   7.340  10.381
92889W        W65314  11.800  23.597   0.439
92890W        W65315   6.795  36.896   3.085
92891W        W65316   9.138  32.678   0.052
92892W        W65317  30.455  36.922   0.868
92893W        W65318  31.666  12.385   1.833
92894W        W65319  14.174   1.902  14.759
92895W        W65320   8.761  12.670  10.346
92896W        W65321  17.192   5.885   1.789
92897W        W65322  10.752  24.264  13.975
92898W        W65323  27.632  30.098  14.503
92899W        W65324  20.067  37.414   0.846
92900W        W65325  44.794  19.632   0.177
92901W        W65326   0.671  13.877   5.033
92902W        W65327  19.372  15.034   3.244
92903W        W65328  16.219  43.923   3.129
92904W        W65329  33.134  10.076  13.539
92905W        W65330  19.831   6.214   3.785
92906W        W65331   3.450  10.088   4.553
92907W        W65332  41.616   3.533   4.109
92908W        W65333  12.872  24.611   0.046
92909W        W65334  38.021  35.956   2.809
92910W        W65335  14.785  41.240   1.668
92911W        W65336  29.081  17.334   1.876
92912W        W65337  37.797  41.410   3.727
92913W        W65338  24.968  26.695   0.423
92914W        W65339   8.446  24.459   1.302
92915W        W65340  42.351  32.435   0.522
92916W        W65341   9.141  28.399   0.892
92917W        W65342   9.889  16.048  10.803
92918W        W65343  44.008  34.859  13.060
92919W        W65344  10.536  42.236   1.580
92920W        W65345  14.279  43.308   3.323
92921W        W65346  40.018  42.041  13.596
92922W        W65347  26.986   2.811  13.066
92923W        W65348   7.224  30.835  13.523
92924W        W65349   3.799  17.600  14.295
92925W        W65350  12.711  23.141  11.518
92926W        W65351  24.991  38.599   4.528
92927W        W65352  22.619   1.714   4.092
92928W        W65353  29.220  32.932   3.678
92929W        W65354  14.380  24.948   2.234
92930W        W65355   7.617  13.342  11.107
92931W        W65356  40.637  19.778   4.712
92932W        W65357  30.336  28.517  10.678
92933W        W65358  32.413   0.347   4.873
92934W        W65359  20.961   3.688  14.855
92935W        W65360  32.664  36.956  13.884
92936W        W65361  27.502  36.960  13.829
92937W        W65362   8.750  16.054   3.628
92938W        W65363  41.721  29.704  11.597
92939W        W65364  21.673   9.896   3.644
92940W        W65365  39.855  12.270  13.835
92941W        W65366  14.798  39.445  11.489
92942W        W65367  38.461  24.131   0.334
92943W        W65368  14.572   6.689   1.714
92944W        W65369  32.590  34.376   0.307
92945W        W65370   1.786  36.104  12.537
92946W        W65371  39.620  37.907   4.065
92947W        W65372  24.833  40.833   0.469
92948W        W65373   6.769  11.100   0.372
92949W        W65374  35.277  17.183   0.872
92950W        W65375  10.321  33.706  10.372
92951W        W65376  32.259  20.523  12.703
92952W        W65377  38.577  41.141   4.119
92953W        W65378  36.062  17.738   0.013
92954W        W65379  25.121  31.196   3.872
92955W        W65380  24.783  36.014  14.308
92956W        W65381   2.308  21.186  12.419
92957W        W65382  40.346  16.996   1.804
92958W        W65383  25.095  40.904  10.569
92959W        W65384  21.666  21.605  13.397
92960W        W65385  30.975  30.092   1.859
92961W        W65386  21.418   7.686   5.091
92962W        W65387   8.133  19.905  10.228
92963W        W65388  40.937  37.776   0.764
92964W        W65389  14.761  40.963   1.176
92965W        W65390  28.073   7.412   3.857
92966W        W65391   8.976  13.711  12.109
92967W        W65392  19.666  24.001   2.875
92968W        W65393   1.137   8.043   4.179
92969W        W65394  26.588  43.530   3.875
92970W        W65395   8.741  44.727   0.254
92971W        W65396  21.424  18.000  12.105
92972W        W65397  27.593   7.268   4.561
92973W        W65398  41.328  37.738   3.354
92974W        W65399   9.093   8.076   2.232
92975W        W65400  27.567  42.405   4.095
92976W        W65401   6.420   0.265  13.331
92977W        W65402  10.742  26.136   1.975
92978W        W65403  36.609  38.888  12.018
92979W        W65404   5.704  21.669   1.856
92980W        W65405   6.324  29.016   4.285
92981W        W65406  23.051  39.988  12.064
92982W        W65407  19.318  37.837  11.526
92983W        W65408  21.852  26.651   4.702
92984W        W65409   1.434  20.731  13.472
92985W        W65410  25.511  29.701   9.735
92986W        W65411  20.557  22.139   4.331
92987W        W65412  24.505  30.504   4.899
92988W        W65413  10.961  44.838  10.535
92989W        W65414  36.872  12.328  11.816
92990W        W65415  13.093  18.146   4.096
92991W        W65416  26.490  30.598   4.520
92992W        W65417  18.190  19.222   1.406
92993W        W65418  18.433  10.266   3.160
92994W        W65419  42.032   0.755  12.036
92995W        W65420  36.017  44.435   2.687
92996W        W65421   0.550  37.784  14.932
92997W        W65422  23.156  11.703   2.175
92998W        W65423   0.932  30.735  12.567
92999W        W65424  13.321  11.878   3.190
93000W        W65425  22.548   2.430   3.599
93001W        W65426  27.031   9.860   2.747
93002W        W65427  11.744  39.829  12.445
93003W        W65428   5.696   2.970   2.290
93004W        W65429  22.456  12.375   5.548
93005W        W65430  40.836  19.482  14.852
93006W        W65431  34.552   1.893   3.893
93007W        W65432  21.535   6.414  10.460
93008W        W65433   7.735  28.441  14.760
93009W        W65434  15.739  28.961  13.389
93010W        W65435  14.621  36.927   1.805
93011W        W65436  18.191  29.245   4.695
93012W        W65437   3.653   1.060   1.932
93013W        W65438  41.543  11.135  12.071
93014W        W65439  11.918  43.416  14.313
93015W        W65440  14.846   7.630   1.478
93016W        W65441  17.152  11.777   1.043
93017W        W65442  38.758  17.110   1.324
93018W        W65443  33.074  28.595  14.887
93019W        W65444  28.095  22.277   4.769
93020W        W65445   0.511  27.033   0.190
93021W        W65446  17.554   0.463  14.009
93022W        W65447   6.370   2.244  11.566
93023W        W65448  13.675   2.476   1.735
93024W        W65449   6.213  28.175  10.722
93025W        W65450  20.514  43.278  11.583
93026W        W65451  37.204  38.369   2.945
93027W        W65452  40.494  38.920   4.510
93028W        W65453  39.983  13.706  12.063
93029W        W65454  39.247  36.712   2.938
93030W        W65455  13.194  42.057  12.983
93031W        W65456  11.678  39.545   3.857
93032W        W65457  25.003  27.159  12.212
93033W        W65458  18.853  15.143   3.299
93034W        W65459  12.319  24.598  14.929
93035W        W65460  17.618   1.645   2.231
93036W        W65461  21.367  38.919   1.879
93037W        W65462  12.167   5.248  14.427
93038W        W65463  19.330   6.841   4.326
93039W        W65464  11.294   5.927  13.391
93040W        W65465   4.700   4.025  12.872
93041W        W65466   5.870  21.720   4.348
93042W        W65467  17.643   1.493  11.627
93043W        W65468  15.769  37.647   2.894
93044W        W65469  28.589   5.145  13.291
93045W        W65470  31.297  38.454   1.005
93046W        W65471   2.998  37.945   2.213
93047W        W65472  42.551   4.131  12.106
93048W        W65473   0.880  35.906   0.758
93049W        W65474  15.398  23.653  10.723
93050W        W65475  13.960  19.091  11.989
93051W        W65476  31.009  37.132  14.879
93052W        W65477  11.805  43.228   4.445
93053W        W65478  27.182  22.574   3.096
93054W        W65479  30.036  23.457   0.434
93055W        W65480  10.847  33.599   3.591
93056W        W65481  21.046  27.032   4.880
93057W        W65482  27.233  29.468   4.142
93058W        W65483   4.186  34.490   1.726
93059W        W65484  27.411  23.694   4.374
93060W        W65485  24.755   3.712  13.970
93061W        W65486  28.947   2.019  13.703
93062W        W65487  14.669  30.970   1.444
93063W        W65488   3.881  44.036  12.687
93064W        W65489  23.028   9.066   4.501
93065W        W65490  12.309   0.735   3.209
93066W        W65491  25.089  29.577   3.006
93067W        W65492  23.486  22.126  12.242
93068W        W65493   3.284  13.389   4.060
93069W        W65494   0.224   3.292   4.296
93070W        W65495  18.531  37.556  11.567
93071W        W65496  40.905   7.245   4.047
93072W        W65497  37.335  15.248  14.382
93073W        W65498  12.130  14.084  14.819
93074W        W65499  42.362  28.330   1.247
93075W        W65500  28.678  28.517  13.888
93076W        W65501  37.934  37.899   1.401
93077W        W65502  13.910  40.436  12.645
93078W        W65503   2.324  13.277  13.660
93079W        W65504  38.966  34.347   4.032
93080W        W65505   6.269  28.027   4.505
93081W        W65506  29.004  39.665  14.881
93082W        W65507   5.250  20.270  13.728
93083W        W65508  22.226  41.607  10.640
93084W        W65509  36.638  24.470   1.356
93085W        W65510   8.167  23.016   1.919
93086W        W65511   1.846   0.880  10.663
93087W        W65512  38.585  33.376   0.394
93088W        W65513  19.308  36.907  10.566
93089W        W65514  22.738   9.886   4.376
93090W        W65515   0.180  26.745  12.131
93091W        W65516  37.310  37.057  10.799
93092W        W65517   4.802  23.031   0.819
93093W        W65518   3.338  36.943   1.204
93094W        W65519   6.229   7.186  14.514
93095W        W65520  36.463  40.854   3.953
93096W        W65521  17.107   4.178  14.066
93097W        W65522   7.087  15.578  11.551
93098W        W65523  12.792  13.631  12.475
93099W        W65524   0.383  25.412   4.665
93100W        W65525  36.505  44.999   1.152
93101W        W65526  31.002  14.329   0.049
93102W        W65527  37.391  26.202   4.348
93103W        W65528  38.471   2.664   0.859
93104W        W65529  42.277  20.612   0.273
93105W        W65530  30.822  20.852   2.262
93106W        W65531  39.297  31.158   3.207
93107W        W65532  12.313  25.545  12.459
93108W        W65533  30.092   5.613  11.605
93109W        W65534  26.038   9.897   2.675
93110W        W65535  31.959  29.068  12.802
93111W        W65536  28.125  42.402   4.823
93112W        W65537   4.813  15.775  12.084
93113W        W65538  35.011  11.333   4.840
93114W        W65539  22.400   8.900  11.374
93115W        W65540  23.732  31.341  12.782
93116W        W65541  33.926  13.587  14.512
93117W        W65542   1.045  28.502  11.319
93118W        W65543   4.306  27.434  11.085
93119W        W65544  18.481  20.327   4.628
93120W        W65545  11.504  31.012   3.468
93121W        W65546  24.167  30.061   2.842
93122W        W65547  10.789  12.699   4.132
93123W        W65548  18.782  30.677   2.792
93124W        W65549  19.876   3.727   1.911
93125W        W65550  21.180  31.897   4.366
93126W        W65551  43.940  23.169   0.788
93127W        W65552   3.410  23.700   4.798
93128W        W65553  16.199  21.674   0.259
93129W        W65554   4.749  44.460   4.640
93130W        W65555  32.510  20.720   4.557
93131W        W65556  29.720  22.205   3.343
93132W        W65557   6.721  23.603   3.138
93133W        W65558  13.554   3.372   5.394
93134W        W65559   9.031  12.830   1.960
93135W        W65560  30.144   8.388  14.022
93136W        W65561  33.156  31.531   2.451
93137W        W65562   5.787  36.051   4.952
93138W        W65563  29.480  38.791  11.086
93139W        W65564  11.098  24.193   3.160
93140W        W65565  10.259  10.393  13.417
93141W        W65566  43.010   4.466   4.480
93142W        W65567   7.969  37.026  13.531
93143W        W65568  14.694  32.389   1.326
93144W        W65569  16.551  42.406  11.429
93145W        W65570  35.314  29.917  11.498
93146W        W65571   1.628  36.032   3.698
93147W        W65572   1.871  36.792  12.869
93148W        W65573   4.012  18.342  12.589
93149W        W65574   2.708  38.640   3.398
93150W        W65575  34.990   9.019  13.569
93151W        W65576  37.131  39.499  11.648
93152W        W65577  33.492  34.516   2.398
93153W        W65578  36.286   3.896  14.362
93154W        W65579   8.408  22.366  12.799
93155W        W65580   0.361  32.850  13.469
93156W        W65581  32.683  25.464   1.855
93157W        W65582   6.402   1.363   1.304
93158W        W65583   8.406  19.802   3.235
93159W        W65584  32.861  22.692   0.587
93160W        W65585   0.121   3.328  11.902
93161W        W65586  25.420   8.390  10.620
93162W        W65587  21.881  36.115   2.233
93163W        W65588  24.031  21.201  11.039
93164W        W65589  10.613   0.564   1.700
93165W        W65590  18.966   8.468   2.213
93166W        W65591  25.535  17.559  12.650
93167W        W65592  24.224  42.409   4.166
93168W        W65593   1.687  17.556   2.770
93169W        W65594   6.394  24.701  13.332
93170W        W65595  39.267   5.867   0.780
93171W        W65596  14.840  30.155  14.264
93172W        W65597   2.798  41.344   4.332
93173W        W65598  36.079   1.763  13.396
93174W        W65599  37.917  19.869  10.567
93175W        W65600  10.464  41.560   2.315
93176W        W65601  22.222  29.145   2.543
93177W        W65602  29.271   7.080   0.882
93178W        W65603  32.449  34.139   3.591
93179W        W65604  31.665  28.112   1.034
93180W        W65605  29.555   4.204  13.773
93181W        W65606  34.973  17.596  14.306
93182W        W65607  24.653  44.532   3.294
93183W        W65608  43.662  28.648   2.789
93184W        W65609   6.115  44.459  10.569
93185W        W65610   4.323  19.043  12.873
93186W        W65611  39.453  38.093  12.559
93187W        W65612  36.307  42.281  14.781
93188W        W65613  33.941  15.256   0.233
93189W        W65614   6.210  16.680   0.638
93190W        W65615  44.850  26.216  11.206
93191W        W65616  31.123  18.340  12.511
93192W        W65617   2.317  30.676  12.121
93193W        W65618  24.149  23.210   3.646
93194W        W65619  43.112   5.889   3.042
93195W        W65620   1.727  23.445   2.212
93196W        W65621  19.147  43.774   3.656
93197W        W65622   0.004  42.057   2.170
93198W        W65623  31.413  35.293   2.614
93199W        W65624   9.565  29.941   1.864
93200W        W65625  24.577  32.372   4.727
93201W        W65626  30.064  17.417  14.899
93202W        W65627  31.027  14.598  12.506
93203W        W65628  30.026  36.629   1.959
93204W        W65629  35.970   5.732   5.067
93205W        W65630  22.804  29.032   4.728
93206W        W65631  30.505  34.277  12.178
93207W        W65632  29.430  43.047   0.546
93208W        W65633  40.880   1.931  12.446
93209W        W65634  40.914  12.269   0.263
93210W        W65635  32.153  20.659  13.590
93211W        W65636  42.216  14.481   3.946
93212W        W65637  20.630   4.311   2.291
93213W        W65638  21.420   1.608  12.081
93214W        W65639  44.151  22.324  11.153
93215W        W65640   1.978  43.972   3.365
93216W        W65641  27.025  36.376   1.689
93217W        W65642  13.539  37.339   1.336
93218W        W65643  12.161  12.851   4.721
93219W        W65644  14.713   7.520  11.222
93220W        W65645   9.799   9.248  14.807
93221W        W65646   9.554  22.188  14.478
93222W        W65647   7.893  19.808   4.217
93223W        W65648  43.703  35.033  10.243
93224W        W65649  35.202   4.966   2.779
93225W        W65650  11.910  21.184   4.356
93226W        W65651  13.828  32.965   2.764
93227W        W65652   0.857  40.986   2.729
93228W        W65653  24.030  24.107   2.250
93229W        W65654  11.244  18.912  14.228
93230W        W65655  33.343  23.106  13.545
93231W        W65656  19.241  40.969  11.538
93232W        W65657   0.802   4.945  13.081
93233W        W65658   2.811   0.005  14.536
93234W        W65659   3.299   4.733  12.949
93235W        W65660   6.128  40.992   4.065
93236W        W65661  12.977  18.994   0.299
93237W        W65662   9.602  41.003   3.327
93238W        W65663  23.175  44.937  14.047
93239W        W65664  43.265  44.839  10.424
93240W        W65665   0.550   3.482   1.900
93241W        W65666  35.428  42.639   2.822
93242W        W65667  40.338  23.965  13.371
93243W        W65668   0.115  13.705   2.448
93244W        W65669   0.479  22.696   4.601
93245W        W65670  11.812   3.252   0.025
93246W        W65671  39.886  36.200   1.796
93247W        W65672   3.149  34.565  13.409
93248W        W65673   3.834  37.258   1.947
93249W        W65674   3.722  25.001   1.912
93250W        W65675   7.681   6.738   2.966
93251W        W65676  27.405   4.806   4.623
93252W        W65677  11.752  38.871   4.519
93253W        W65678  30.331  14.816   0.917
93254W        W65679  28.630  29.484  13.046
93255W        W65680   8.501  33.596  10.704
93256W        W65681  14.162  30.617   3.202
93257W        W65682  19.323  36.198   3.181
93258W        W65683  19.146  35.671   3.362
93259W        W65684  31.850  31.425  12.952
93260W        W65685   4.099  38.359   1.781
93261W        W65686   0.976   6.397   3.783
93262W        W65687  28.029  38.273  13.066
93263W        W65688  25.528  30.380   1.849
93264W        W65689  12.183  41.343   2.222
93265W        W65690  42.669  14.187  14.349
93266W        W65691  41.088  36.429  11.618
93267W        W65692  41.016  36.780   3.207
93268W        W65693   9.443  16.181   1.349
93269W        W65694  29.327  12.840   3.263
93270W        W65695  43.807  20.988   9.890
93271W        W65696  33.885  16.229  12.054
93272W        W65697   6.665   3.704  14.302
93273W        W65698  18.279  22.135  12.488
93274W        W65699  26.637  31.475  13.022
93275W        W65700   8.334  22.482   1.224
93276W        W65701   5.536  41.852  11.975
93277W        W65702   6.421  38.471  11.599
93278W        W65703  18.584   2.223  13.332
93279W        W65704  20.625  15.141  12.585
93280W        W65705   0.428   8.639   2.400
93281W        W65706  13.149  15.280  14.818
93282W        W65707   5.377  10.477  10.386
93283W        W65708  38.392  24.638   4.605
93284W        W65709  29.908  19.272   4.229
93285W        W65710  28.024  30.541   1.286
93286W        W65711  15.099  15.694   1.366
93287W        W65712   8.667  24.746   1.707
93288W        W65713  39.574  18.490   1.486
93289W        W65714   5.292  40.344  14.997
93290W        W65715  21.641  39.070   0.535
93291W        W65716  37.010  18.651   2.915
93292W        W65717  28.114  42.882  14.791
93293W        W65718  15.652  23.167   4.754
93294W        W65719   4.425  13.414  13.521
93295W        W65720   5.699  33.132   4.483
93296W        W65721   5.198  36.944   1.929
93297W        W65722  33.450  10.973   3.485
93298W        W65723  24.172  36.861  12.828
93299W        W65724  16.671  18.308  10.781
93300W        W65725  17.560  26.939  10.663
93301W        W65726  10.844  11.879   0.901
93302W        W65727  35.942  12.367   3.437
93303W        W65728   5.698  18.183  14.364
93304W        W65729  22.648  27.093   3.143
93305W        W65730  44.272   6.659  13.961
93306W        W65731  41.837  39.861  14.540
93307W        W65732  30.995  34.013   0.220
93308W        W65733  36.921  12.257  10.399
93309W        W65734  36.039  21.110   9.832
93310W        W65735  11.934  29.723   0.866
93311W        W65736  12.803  19.605  10.305
93312W        W65737  21.732  37.498  11.460
93313W        W65738  36.406  34.330   3.880
93314W        W65739  44.305  14.579   3.148
93315W        W65740   8.020  35.048  14.909
93316W        W65741  27.286  15.798   0.815
93317W        W65742   3.302  17.845   4.151
93318W        W65743   4.157  38.493  14.970
93319W        W65744  35.715   8.746   4.966
93320W        W65745  25.724  29.051   5.056
93321W        W65746   4.644  41.061   1.329
93322W        W65747   6.720  14.895   1.945
93323W        W65748  19.446  13.413   3.000
93324W        W65749  14.362  35.131   2.969
93325W        W65750  38.880  41.546   2.702
93326W        W65751  32.874   7.315  13.457
93327W        W65752  30.021   3.320  11.669
93328W        W65753   3.062  44.952  10.649
93329W        W65754  10.352  15.138  14.399
93330W        W65755  32.131  33.417  10.496
93331W        W65756   7.736  27.538   4.687
93332W        W65757  36.826   0.545  11.027
93333W        W65758  26.748  12.898  13.821
93334W        W65759   0.742  33.456  10.711
93335W        W65760  20.878  23.089  11.112
93336W        W65761  33.882  22.566  11.410
93337W        W65762  13.292  10.130  12.273
93338W        W65763   4.501  14.664  13.179
93339W        W65764   1.694  21.962   1.439
93340W        W65765  27.966   7.393   1.214
93341W        W65766  33.619   0.478  14.044
93342W        W65767  26.774   7.351   3.227
93343W        W65768  38.605  28.726  12.358
93344W        W65769  42.429  23.984  14.010
93345W        W65770  29.542  37.873  12.984
93346W        W65771  28.039  31.074  13.114
93347W        W65772  31.119  13.151   4.330
93348W        W65773  17.035  21.319   2.357
93349W        W65774  27.702  23.206   4.482
93350W        W65775  27.644   3.797  14.092
93351W        W65776  15.603  37.567   2.352
93352W        W65777   1.295  41.961  11.610
93353W        W65778  28.754  35.853  10.752
93354W        W65779  18.990  29.566   2.455
93355W        W65780  18.192  15.171  14.072
93356W        W65781  21.752  32.519   0.704
93357W        W65782  25.031  33.983   2.314
93358W        W65783  37.566   9.929   0.834
93359W        W65784  37.388  15.348  12.824
93360W        W65785   4.695   6.231  10.744
93361W        W65786  13.166  13.618   1.236
93362W        W65787  10.901  37.397   3.184
93363W        W65788   3.317  24.689   4.385
93364W        W65789  14.255   4.238  10.146
93365W        W65790  37.555  13.760  12.136
93366W        W65791  33.183  44.494  11.583
93367W        W65792   6.325  43.417   2.143
93368W        W65793  15.107   7.846  14.745
93369W        W65794  43.963  37.721   1.782
93370W        W65795   0.013   0.533  14.019
93371W        W65796   3.776  18.352   3.778
93372W        W65797   4.473  19.686  11.958
93373W        W65798  29.881  25.220  12.652
93374W        W65799  39.533  19.011  10.592
93375W        W65800  33.109   3.371  12.049
93376W        W65801   2.195  17.825  13.687
93377W        W65802  33.482  23.115   1.716
93378W        W65803  24.604  36.916   1.195
93379W        W65804   2.985  34.069   2.775
93380W        W65805  18.188   2.377   1.096
93381W        W65806   1.835  17.083   4.590
93382W        W65807  26.442   2.951   2.720
93383W        W65808  17.752  36.072   3.277
93384W        W65809  42.853   3.584   2.944
93385W        W65810  44.148  29.813   0.519
93386W        W65811   8.851  22.380  10.582
93387W        W65812  41.946  41.141  14.945
93388W        W65813  17.626   9.235   3.324
93389W        W65814   3.012  29.007   4.005
93390W        W65815  27.363  21.790  12.905
93391W        W65816  27.337  14.738  13.464
93392W        W65817   6.569   4.327  13.933
93393W        W65818   3.700  31.122  13.461
93394W        W65819  14.994  15.034   4.102
93395W        W65820   6.788  11.800   0.966
93396W        W65821  18.727  27.820   3.061
93397W        W65822   9.644  10.330   1.716
93398W        W65823  18.750   9.670   4.673
93399W        W65824  19.162  18.088  12.113
93400W        W65825  31.150  25.102   2.740
93401W        W65826  28.905  29.212   2.143
93402W        W65827  39.541   2.365  12.507
93403W        W65828  12.915  18.090  14.585
93404W        W65829  32.040   1.606  11.648
93405W        W65830  43.233   2.728   0.897
93406W        W65831  27.715  37.767   2.679
93407W        W65832  14.576  25.651   3.108
93408W        W65833  13.609  40.796  13.540
93409W        W65834  32.094   8.564   4.969
93410W        W65835  32.383  13.059  14.686
93411W        W65836   7.790   2.520  14.855
93412W        W65837  41.896   9.473   0.304
93413W        W65838  36.839   1.817   4.699
93414W        W65839  28.581   0.340  12.899
93415W        W65840  18.792   0.102   2.825
93416W        W65841  28.074  24.095  13.361
93417W        W65842  23.990  18.259  13.620
93418W        W65843  15.287  29.920   4.491
93419W        W65844  25.167   2.735  11.566
93420W        W65845  28.454  27.888  14.404
93421W        W65846  22.087  12.248   1.437
93422W        W65847   6.962  27.033   4.846
93423W        W65848   7.497  43.057  12.830
93424W        W65849  29.284   8.598  10.261
93425W        W65850  15.746   2.265   0.042
93426W        W65851   2.819  11.603  12.404
93427W        W65852   3.642  42.277  14.491
93428W        W65853  11.598   2.299   0.126
93429W        W65854  20.823  37.621   2.691
93430W        W65855  32.717   2.279   3.313
93431W        W65856   1.146  33.507  14.495
93432W        W65857  21.233   9.674   4.111
93433W        W65858  21.387  20.059  11.220
93434W        W65859  23.979  22.699  14.873
93435W        W65860  44.378  19.719   5.084
93436W        W65861  23.639  27.410  12.516
93437W        W65862  36.121  40.804  12.949
93438W        W65863   9.117  20.931  10.329
93439W        W65864  29.525   3.992   3.788
93440W        W65865  12.795  32.701   1.903
93441W        W65866  24.469  18.746   3.463
93442W        W65867   6.304  31.341   4.213
93443W        W65868   8.978   5.947   4.166
93444W        W65869   5.354  38.102   1.466
93445W        W65870  30.405   0.029   1.489
93446W        W65871  28.997  16.744  12.973
93447W        W65872  12.329  14.577   2.372
93448W        W65873   7.226  25.623  12.954
93449W        W65874  39.058  41.274   0.633
93450W        W65875  26.196  26.604   0.022
93451W        W65876  38.510  24.051   2.662
93452W        W65877  39.616   6.743   4.297
93453W        W65878  26.879  14.274   0.336
93454W        W65879  17.542  18.592   0.785
93455W        W65880  15.640  41.749  13.820
93456W        W65881  16.053   3.917   0.339
93457W        W65882   2.175  39.588  11.105
93458W        W65883   5.758  11.680  12.534
93459W        W65884   2.483  22.620  12.108
93460W        W65885  28.102  28.522  13.852
93461W        W65886  30.440  27.019   2.346
93462W        W65887  11.770  27.443   3.107
93463W        W65888  32.062  18.038  10.803
93464W        W65889  37.926  32.680   3.761
93465W        W65890  30.475  29.666   0.523
93466W        W65891  16.124  33.908   3.755
93467W        W65892  44.324  44.992  11.528
93468W        W65893  23.196   5.251  14.690
93469W        W65894  21.771  21.114   2.326
93470W        W65895   7.554  33.632   3.291
93471W        W65896   0.077  14.459  11.522
93472W        W65897  38.622   7.351   5.034
93473W        W65898  36.335  23.701   2.677
93474W        W65899  16.254  42.743  10.108
93475W        W65900  34.050  37.341  12.874
93476W        W65901  25.962  31.520   2.656
93477W        W65902  20.197  28.722   1.476
93478W        W65903  31.026   8.854  10.737
93479W        W65904  21.252  22.500  14.866
93480W        W65905  30.926  23.718  14.896
93481W        W65906  30.266   3.464  12.098
93482W        W65907   5.641  22.031  13.992
93483W        W65908  16.867   6.964  12.294
93484W        W65909   7.195  44.839  11.729
93485W        W65910   7.579  17.806  14.243
93486W        W65911   3.888  11.177   2.742
93487W        W65912  29.372  14.247  14.499
93488W        W65913   6.554  32.674  14.281
93489W        W65914  37.838  38.812  10.679
93490W        W65915   5.151  38.959  10.264
93491W        W65916  41.095  21.808   1.179
93492W        W65917  11.060  17.878   1.922
93493W        W65918  13.713  43.441   2.893
93494W        W65919  28.028   5.138   4.132
93495W        W65920   4.287  19.511   2.434
93496W        W65921  24.845  38.183   0.545
93497W        W65922  15.540   1.371   0.835
93498W        W65923  23.436   7.819  14.516
93499W        W65924  10.418  26.882   1.332
93500W        W65925   4.726  27.406   0.441
93501W        W65926  38.180  23.023  13.369
93502W        W65927  17.359   7.840  12.521
93503W        W65928  41.422  37.277   1.360
93504W        W65929  37.446  20.728  13.574
93505W        W65930  39.860  11.044   0.755
93506W        W65931  42.688   4.789  13.932
93507W        W65932  35.969   3.314   0.879
93508W        W65933   7.355  18.689   4.337
93509W        W65934  21.552  33.761  11.107
93510W        W65935   8.768  44.256   3.698
93511W        W65936  22.441  35.534   3.210
93512W        W65937  29.199  37.848  11.586
93513W        W65938  11.377  30.313  14.300
93514W        W65939  38.594   9.266   2.350
93515W        W65940   9.005  23.062  13.493
93516W        W65941  36.541  24.974  13.942
93517W        W65942  10.051  12.297   2.157
93518W        W65943  26.698   8.312  12.627
93519W        W65944  34.869   1.743  10.749
93520W        W65945  43.896  30.809   0.354
93521W        W65946  40.599  26.548   9.903
93522W        W65947  11.324  12.827   3.238
93523W        W65948   0.932   8.761  14.506
93524W        W65949  10.925  43.305  14.754
93525W        W65950   4.191  21.643   3.873
93526W        W65951  22.045  29.621  12.420
93527W        W65952   4.912  20.632  11.983
93528W        W65953  16.498  18.287   1.337
93529W        W65954   9.864  18.021   2.858
93530W        W65955   1.639  38.146   4.574
93531W        W65956  20.527  13.186  11.076
93532W        W65957  42.234  36.952   2.255
93533W        W65958  21.293  38.790  11.919
93534W        W65959   1.227  24.011  11.634
93535W        W65960   4.598  42.572   4.623
93536W        W65961  35.485  39.266   3.850
93537W        W65962  16.821   2.923   4.653
93538W        W65963  31.106   2.193   0.928
93539W        W65964  36.725  13.128   4.425
93540W        W65965   3.827  10.582   9.891
93541W        W65966  35.572  41.438   1.779
93542W        W65967  35.659  18.194   1.839
93543W        W65968  22.281  14.226   4.830
93544W        W65969  25.226  33.939   3.329
93545W        W65970   3.436  26.096  10.917
93546W        W65971  11.620  11.284   3.511
93547W        W65972  26.175  20.122   4.053
93548W        W65973  13.807  16.200   3.708
93549W        W65974   6.626  26.730   0.794
93550W        W65975  34.991  28.635  12.509
93551W        W65976  40.902  10.583   2.443
93552W        W65977  20.051  29.134   4.979
93553W        W65978  16.327  12.754  13.804
93554W        W65979  12.662   2.499   4.125
93555W        W65980  33.649  42.425  14.369
93556W        W65981  42.716   2.719   0.988
93557W        W65982  16.506  24.934   3.644
93558W        W65983  21.467  19.613   4.204
93559W        W65984   7.795  24.450  13.238
93560W        W65985  13.919  26.130   1.975
93561W        W65986  21.489   4.213  14.732
93562W        W65987  12.382   6.294  14.376
93563W        W65988   0.774  19.215  10.600
93564W        W65989   0.786  43.362   4.166
93565W        W65990  33.165  12.701   0.547
93566W        W65991  23.787  34.860   2.012
93567W        W65992   8.281  26.632   4.228
93568W        W65993   6.834  24.385  13.303
93569W        W65994   2.697  21.353  10.962
93570W        W65995  16.726   3.187  12.551
93571W        W65996  16.125  27.235   1.932
93572W        W65997  12.336  29.097   2.750
93573W        W65998   0.394  36.469  12.003
93574W        W65999   8.763   9.571   3.444
93575W        W66000  23.761   5.892   3.772
93576W        W66001  38.474  21.281   2.392
93577W        W66002   4.978  42.323  14.695
93578W        W66003   2.230  24.355  14.480
93579W        W66004   5.806  34.090  13.086
93580W        W66005   4.422  33.782   2.320
93581W        W66006   1.162  40.627  14.048
93582W        W66007  14.673   7.831   0.613
93583W        W66008   3.647  15.112  14.478
93584W        W66009  23.585  29.237  13.904
93585W        W66010  27.952   3.152  12.929
93586W        W66011  40.495  27.048   3.690
93587W        W66012   2.391  14.051   4.507
93588W        W66013   9.475  21.943   3.850
93589W        W66014  17.689   5.211  13.831
93590W        W66015   2.969  16.652   0.932
93591W        W66016  16.805   9.600  12.612
93592W        W66017  34.126  37.937   1.639
93593W        W66018   4.866  11.853  14.817
93594W        W66019  29.516   1.940   3.475
93595W        W66020  12.652  20.621  11.989
93596W        W66021   2.944  29.476  11.992
93597W        W66022  42.844  21.901   9.881
93598W        W66023  22.178  41.981   0.917
93599W        W66024  42.740  32.585   4.170
93600W        W66025  34.105  31.503  10.419
93601W        W66026   1.772   6.777  13.496
93602W        W66027  17.517  44.474  12.105
93603W        W66028  32.910  11.263  11.757
93604W        W66029   0.899  13.251   2.427
93605W        W66030  37.267  29.082  11.347
93606W        W66031  37.723  43.044   5.015
93607W        W66032   6.157  31.268  14.509
93608W        W66033  27.059  36.439  10.789
93609W        W66034  10.791  24.652   3.942
93610W        W66035   7.633  40.309  14.455
93611W        W66036  41.520  13.381  12.454
93612W        W66037  35.862  10.421  11.635
93613W        W66038  40.946  27.258  11.581
93614W        W66039  39.772  12.227   4.163
93615W        W66040  15.750  16.817   1.770
93616W        W66041  30.216  34.071  13.378
93617W        W66042  41.972  27.915   4.581
93618W        W66043  38.565  10.292   0.382
93619W        W66044   0.080   4.274  10.805
93620W        W66045  37.162  44.178  12.844
93621W        W66046  37.619   4.773   2.145
93622W        W66047  32.689  18.158   4.497
93623W        W66048  15.177  16.538   2.669
93624W        W66049  28.799  25.318   3.451
93625W        W66050  17.993  29.570  10.550
93626W        W66051  41.832  22.173  12.706
93627W        W66052  36.049  36.002  13.830
93628W        W66053  23.289  24.470  12.970
93629W        W66054  24.417  40.902  13.016
93630W        W66055  14.644  36.422  14.364
93631W        W66056  42.845  18.892  13.344
93632W        W66057  36.739   9.392   0.453
93633W        W66058  38.486  41.467   1.744
93634W        W66059   8.140  29.329   2.775
93635W        W66060  14.820  16.118   1.264
93636W        W66061  20.162  34.323   3.196
93637W        W66062  18.664   9.077  14.298
93638W        W66063  22.130  16.827  12.316
93639W        W66064   7.171   6.440  10.740
93640W        W66065  21.056  10.443  12.507
93641W        W66066  31.234  37.159   1.103
93642W        W66067   5.680  30.086  11.039
93643W        W66068  42.185   7.118   1.337
93644W        W66069   1.635   4.199  10.563
93645W        W66070  37.402  43.050   1.245
93646W        W66071  20.165   9.306  10.764
93647W        W66072  26.961  44.613   3.088
93648W        W66073  19.279  42.841  11.342
93649W        W66074  16.569   5.240   1.355
93650W        W66075  26.548   4.815   4.189
93651W        W66076   5.625  12.185  14.357
93652W        W66077   4.199  25.933  12.701
93653W        W66078  30.648   3.836  14.377
93654W        W66079   0.995  10.707  11.100
93655W        W66080  34.400  21.273  12.360
93656W        W66081  37.491   9.177  14.063
93657W        W66082   1.464  24.179   1.929
93658W        W66083  26.961  15.642   3.307
93659W        W66084   5.076   3.282   3.943
93660W        W66085  13.679   4.240  10.176
93661W        W66086  41.859  36.162  12.158
93662W        W66087  20.589  24.527   4.747
93663W        W66088  13.329  25.971  11.469
93664W        W66089   4.223  20.723   1.629
93665W        W66090   0.481  34.335   5.267
93666W        W66091   2.489  26.698  11.873
93667W        W66092  32.337  20.120  11.475
93668W        W66093  17.809  28.579   3.287
93669W        W66094  11.223  38.076   3.662
93670W        W66095  27.620  20.767   1.953
93671W        W66096   3.709  12.119   4.246
93672W        W66097  34.982  22.973  11.530
93673W        W66098  27.394  33.874  12.021
93674W        W66099   0.302   2.718  14.260
93675W        W66100  36.701   9.009   9.756
93676W        W66101  28.962  24.344  13.511
93677W        W66102  32.912  39.556  13.036
93678W        W66103  16.060   9.766  12.540
93679W        W66104   4.658   6.141  13.418
93680W        W66105  21.251   8.187  11.109
93681W        W66106  39.272   5.890   2.040
93682W        W66107  32.935  20.494  14.091
93683W        W66108  44.740  13.748   0.914
93684W        W66109  24.973  22.105  13.376
93685W        W66110  37.034  38.122  12.334
93686W        W66111  44.516   0.769   0.449
93687W        W66112  44.934  13.689   1.945
93688W        W66113  35.970  28.457   1.889
93689W        W66114   4.095  26.699   2.143
93690W        W66115   9.550  17.888  10.739
93691W        W66116  19.664  37.450  10.752
93692W        W66117  38.721   9.454   3.536
93693W        W66118  12.621  30.528   3.307
93694W        W66119  19.753  31.921   2.349
93695W        W66120   1.770  28.138   1.759
93696W        W66121  38.461  34.598   4.120
93697W        W66122  28.356  40.088   4.998
93698W        W66123   5.135   9.139  11.392
93699W        W66124  22.927   0.184  11.323
93700W        W66125  22.841  29.845   5.034
93701W        W66126  15.845  22.090   0.290
93702W        W66127  11.122   2.795  13.471
93703W        W66128  28.403  26.943  13.543
93704W        W66129   8.793  41.868  13.535
93705W        W66130  43.944  26.144   3.318
93706W        W66131  34.853  44.396   4.924
93707W        W66132  34.437  37.915  12.586
93708W        W66133  18.131   4.751  11.135
93709W        W66134  42.520  30.017  13.061
93710W        W66135  20.326  38.011  13.057
93711W        W66136  15.655   6.691   0.867
93712W        W66137  10.815  25.087  12.051
93713W        W66138  44.375  39.510  14.824
93714W        W66139  20.445   5.220  11.860
93715W        W66140  14.348  20.646  14.975
93716W        W66141  39.896   8.733   0.972
93717W        W66142  20.748  28.988  13.222
93718W        W66143  38.324  35.062   3.197
93719W        W66144  31.890  31.086  10.603
93720W        W66145  17.597  13.088   2.855
93721W        W66146  38.041  21.270   0.784
93722W        W66147  41.277  38.402  10.743
93723W        W66148   0.879  36.868   3.105
93724W        W66149  38.399  32.325  13.766
93725W        W66150  33.661  20.207   4.016
93726W        W66151  33.378  21.933  10.760
93727W        W66152  16.322  42.240   3.656
93728W        W66153  40.785  31.585  11.134
93729W        W66154  24.798  29.908   2.732
93730W        W66155  24.344   0.031   1.128
93731W        W66156   7.136  27.739   3.630
93732W        W66157  10.340  25.661  14.792
93733W        W66158  40.845   6.156  13.188
93734W        W66159   3.180  14.814   1.211
93735W        W66160  22.153  39.433  13.393
93736W        W66161  25.462  24.174   2.852
93737W        W66162  17.087   8.793  10.160
93738W        W66163  19.266   0.755   3.303
93739W        W66164   3.697  35.482   2.702
93740W        W66165  25.308  27.081   4.099
93741W        W66166  19.342  19.694  11.739
93742W        W66167   9.808  41.296  12.464
93743W        W66168  23.672  37.687   1.719
93744W        W66169  39.832  32.138   3.855
93745W        W66170  39.390  33.398   3.714
93746W        W66171  39.363  14.767  11.218
93747W        W66172  37.049  20.979   3.814
93748W        W66173  42.969  33.930  10.161
93749W        W66174  16.594  20.771   2.793
93750W        W66175  28.151  15.766   2.403
93751W        W66176   5.766  28.141   2.727
93752W        W66177  13.095  11.268   3.871
93753W        W66178  15.752  41.930  11.594
93754W        W66179  22.012  11.191   2.724
93755W        W66180  10.527  31.867  12.433
93756W        W66181  26.626  43.954   4.143
93757W        W66182   0.741  31.600   5.014
93758W        W66183  31.026  22.599  11.682
93759W        W66184   4.476  15.434   4.478
93760W        W66185  28.512   2.392   0.746
93761W        W66186  26.997  28.137  10.921
93762W        W66187  34.307  32.060  11.130
93763W        W66188  20.618  39.216  10.705
93764W        W66189   8.420  22.767   3.212
93765W        W66190  10.745  37.384   1.288
93766W        W66191  19.627  35.117   2.280
93767W        W66192  26.106  43.329  12.092
93768W        W66193  32.776   9.718   3.729
93769W        W66194  34.073  38.447  13.039
93770W        W66195  33.991  34.881   3.250
93771W        W66196  19.285  10.688  11.831
93772W        W66197  23.224  34.863  13.751
93773W        W66198  12.064  19.789   4.553
93774W        W66199  37.949   0.528  12.502
93775W        W66200  23.250  20.108  10.644
93776W        W66201  26.215  28.473   3.663
93777W        W66202  40.326  44.555   4.056
93778W        W66203  36.046  22.107   0.922
93779W        W66204  25.663   7.457  12.436
93780W        W66205  25.644   7.893  13.391
93781W        W66206  38.474  39.338   3.619
93782W        W66207  33.621   0.252  12.396
93783W        W66208  43.742   9.896   4.304
93784W        W66209  25.512  11.270  12.747
93785W        W66210  14.258   8.950  11.147
93786W        W66211  11.119  28.376  14.836
93787W        W66212   9.197  24.223  14.750
93788W        W66213  28.212  41.573   2.367
93789W        W66214  16.324  14.350   1.380
93790W        W66215  30.070  30.797   2.782
93791W        W66216  18.076  39.307  12.150
93792W        W66217   9.207   2.030   1.410
93793W        W66218  14.949  42.263   2.725
93794W        W66219  11.186  27.105   0.241
93795W        W66220   1.175   6.379  10.738
93796W        W66221  28.391  33.390  13.381
93797W        W66222  10.899  19.722   3.211
93798W        W66223  35.560  14.614  14.336
93799W        W66224  35.788   4.960   1.218
93800W        W66225   4.214  19.194   2.037
93801W        W66226   8.299  10.131   2.398
93802W        W66227  30.565  41.396  12.421
93803W        W66228  38.942  43.289  11.000
93804W        W66229   8.492  41.067   1.314
93805W        W66230   2.551  17.352  13.010
93806W        W66231  29.623  31.665  12.007
93807W        W66232   4.962   4.442   2.903
93808W        W66233  40.489  28.228  14.977
93809W        W66234  42.799  23.058   4.579
93810W        W66235  21.089  40.904   3.095
93811W        W66236  38.508  10.585  10.636
93812W        W66237  23.696  30.644   0.938
93813W        W66238   1.971  44.918   3.698
93814W        W66239  18.061  29.623  11.406
93815W        W66240  24.843  12.116  14.939
93816W        W66241  23.582  38.896   0.224
93817W        W66242  35.784  15.727   0.780
93818W        W66243  15.080   1.858  10.563
93819W        W66244  26.081  39.738   4.521
93820W        W66245  20.014  21.980  11.988
93821W        W66246  30.546   8.422  11.912
93822W        W66247  35.449  37.485   4.523
93823W        W66248  22.109   5.944   4.877
93824W        W66249  42.729  44.555   0.575
93825W        W66250   2.230   4.927  12.928
93826W        W66251  24.206  25.130   5.040
93827W        W66252  19.724  38.669   4.118
93828W        W66253  11.154  44.739   1.142
93829W        W66254   6.846  27.508  12.057
93830W        W66255  42.939  29.436  14.010
93831W        W66256   1.258   0.344  14.289
93832W        W66257  21.144   6.853   4.738
93833W        W66258   0.825  10.189   0.951
93834W        W66259  32.281   9.277   4.417
93835W        W66260   8.118  12.443   0.858
93836W        W66261  37.612  11.813   3.260
93837W        W66262  33.321   9.270  11.987
93838W        W66263  16.494  10.667   4.246
93839W        W66264  24.201  12.641   0.252
93840W        W66265  27.477  21.297  13.029
93841W        W66266   1.112  36.048   3.697
93842W        W66267  34.407  12.103  11.035
93843W        W66268  22.291   6.805   1.773
93844W        W66269  17.510  15.638  13.347
93845W        W66270  38.070  13.402   4.373
93846W        W66271  31.048  10.128   3.223
93847W        W66272  27.473  36.804  11.973
93848W        W66273  14.242  29.505   1.898
93849W        W66274  13.972   2.733   0.383
93850W        W66275  27.499   1.284   1.685
93851W        W66276  18.212  33.925   5.518
93852W        W66277  44.716  35.917   2.357
93853W        W66278  36.125  14.785   2.882
93854W        W66279  34.662  18.219  12.968
93855W        W66280  38.070  35.677   4.710
93856W        W66281   8.212  35.587  12.044
93857W        W66282  33.387   1.306   2.769
93858W        W66283  26.458  44.127  10.604
93859W        W66284  13.335  17.798  10.743
93860W        W66285  22.426  19.032  11.740
93861W        W66286   3.240  11.387  11.280
93862W        W66287  16.972  38.601  11.576
93863W        W66288  14.460   0.510   4.137
93864W        W66289  36.014   9.842   4.235
93865W        W66290  18.253  29.150  13.504
93866W        W66291  36.639   6.802   4.876
93867W        W66292  38.415   8.995   9.716
93868W        W66293  19.791  38.143   1.596
93869W        W66294  18.039  20.335   2.290
93870W        W66295  32.841  18.432  12.399
93871W        W66296   3.459  10.374   3.216
93872W        W66297   7.916  28.158   4.083
93873W        W66298  43.987  30.081   2.301
93874W        W66299   6.250   3.265   4.659
93875W        W66300  41.662   1.737   1.588
93876W        W66301   3.210  43.587  14.841
93877W        W66302   9.253  36.053  13.910
93878W        W66303  33.915  21.990  10.680
93879W        W66304  16.496  10.014  12.572
93880W        W66305  26.236  22.130  10.513
93881W        W66306  21.696  22.437   1.749
93882W        W66307  33.458  19.575  11.116
93883W        W66308  12.285   3.163   1.730
93884W        W66309  32.658  21.301   1.157
93885W        W66310   8.972  30.659   2.755
93886W        W66311  42.963   3.133   5.187
93887W        W66312   0.896   5.687  13.637
93888W        W66313  23.494   8.193  13.550
93889W        W66314  38.441   7.939  12.481
93890W        W66315  15.175  30.389  11.316
93891W        W66316  19.166   4.059  12.266
93892W        W66317  29.118  12.351  13.420
93893W        W66318  18.153   1.466   3.104
93894W        W66319  22.206  11.282  13.041
93895W        W66320  36.761  34.382   2.743
93896W        W66321  10.250  28.690  11.153
93897W        W66322  37.824  24.923   1.412
93898W        W66323  30.204  26.778  11.338
93899W        W66324  32.972   1.458  10.716
93900W        W66325  17.716  30.986   0.522
93901W        W66326  28.439  24.408  12.518
93902W        W66327  14.180  26.065   0.629
93903W        W66328  25.809  24.508  12.011
93904W        W66329  13.141   6.435   4.384
93905W        W66330  42.270  28.652   4.073
93906W        W66331  25.419  39.868  14.883
93907W        W66332  13.163  14.126   3.679
93908W        W66333  22.789   2.262   9.841
93909W        W66334  30.264  32.978   3.738
93910W        W66335   9.845  37.341  10.711
93911W        W66336  22.781  31.665  13.018
93912W        W66337  11.559  30.151  12.005
93913W        W66338  30.401   6.119   1.760
93914W        W66339  22.540  43.330  11.447
93915W        W66340   6.183  37.123  13.934
93916W        W66341  13.112  26.099   2.152
93917W        W66342   1.847  24.736   0.769
93918W        W66343  18.707  11.610  10.770
93919W        W66344   4.817   3.528   1.034
93920W        W66345  29.721  25.017  10.713
93921W        W66346  32.979  37.427   1.403
93922W        W66347  27.060  44.270  11.486
93923W        W66348  11.733  37.250   3.696
93924W        W66349  14.081  35.663  11.927
93925W        W66350   1.312  44.246  14.101
93926W        W66351   9.282   2.854  14.418
93927W        W66352  30.876  25.162  14.911
93928W        W66353  29.836  19.762   4.905
93929W        W66354  21.286  29.163  12.394
93930W        W66355  32.901   7.669  11.445
93931W        W66356  22.041  26.043  13.837
93932W        W66357   3.300  44.317   4.089
93933W        W66358  30.079   2.778   3.734
93934W        W66359  32.605  37.821  10.561
93935W        W66360  41.890  16.247   4.177
93936W        W66361   8.748  30.874   4.099
93937W        W66362  43.598  30.957  10.329
93938W        W66363   9.562  26.260   3.742
93939W        W66364  40.521  17.798  10.532
93940W        W66365  13.536   7.918   2.821
93941W        W66366  30.737  34.923   1.486
93942W        W66367  10.818  37.643   0.840
93943W        W66368   6.126  11.735   3.644
93944W        W66369  38.534   6.769  10.600
93945W        W66370   2.918  30.936   1.589
93946W        W66371   2.792   2.585   0.554
93947W        W66372   0.130  40.666  14.224
93948W        W66373  30.048  37.104  13.583
93949W        W66374  44.244  21.256  13.032
93950W        W66375  12.374  16.399  14.784
93951W        W66376  17.508  25.769   0.157
93952W        W66377  44.728  41.259  11.141
93953W        W66378  11.759   2.597  12.607
93954W        W66379  30.921  11.954  12.650
93955W        W66380  19.700  30.344  13.850
93956W        W66381  38.648  43.753   4.514
93957W        W66382  15.226  10.675   1.482
93958W        W66383   1.763   0.368  14.372
93959W        W66384  39.476   6.397   0.676
93960W        W66385  12.793  41.325  13.487
93961W        W66386  13.644  11.452   1.095
93962W        W66387   9.618  39.447   3.178
93963W        W66388  33.709  44.621  13.564
93964W        W66389  31.836  16.114   3.367
93965W        W66390  40.952  34.580   4.174
93966W        W66391  22.373  17.992   1.716
93967W        W66392  14.177   5.907   0.491
93968W        W66393  19.680   1.472   2.399
93969W        W66394  17.564  23.396  13.624
93970W        W66395  41.452  35.478  11.714
93971W        W66396  25.716  35.635   1.203
93972W        W66397  18.949   6.797  14.165
93973W        W66398   0.988  43.028   3.818
93974W        W66399  23.433   9.424  10.208
93975W        W66400   8.290   9.951   5.053
93976W        W66401  18.273  43.512   0.939
93977W        W66402   3.322  42.635  12.894
93978W        W66403  16.856  29.154   4.907
93979W        W66404  18.120   1.178   2.664
93980W        W66405  33.125  42.820   1.938
93981W        W66406  11.408  10.678   4.517
93982W        W66407  23.665  43.329  13.008
93983W        W66408  32.451  32.672   4.103
93984W        W66409  24.231   8.454  12.828
93985W        W66410  19.957  23.068  12.103
93986W        W66411  41.275  25.409  11.545
93987W        W66412  35.905  39.280  11.080
93988W        W66413  40.987  32.635   2.252
93989W        W66414  16.700  42.009  10.677
93990W        W66415   4.873  35.269  11.042
93991W        W66416   4.380  32.633  11.880
93992W        W66417   9.191  39.611  12.398
93993W        W66418  32.573  12.230   0.791
93994W        W66419  16.405  22.137  12.440
93995W        W66420  23.032  26.589   0.415
93996W        W66421  14.711   2.967  12.779
93997W        W66422  26.056   7.107  13.614
93998W        W66423  28.500  19.542  10.729
93999W        W66424   9.003  27.715  13.627
94000W        W66425  20.296   6.881   1.702
94001W        W66426  26.056   5.307  10.658
94002W        W66427   5.784   7.949  14.329
94003W        W66428  29.433   8.191  13.493
94004W        W66429  20.082  25.765   1.407
94005W        W66430  27.220  15.207   3.178
94006W        W66431  23.568  33.800  12.034
94007W        W66432  36.907   2.790   1.977
94008W        W66433  26.092  39.693   2.655
94009W        W66434  25.202  18.767  12.969
94010W        W66435  32.987  20.801   0.883
94011W        W66436  24.133  13.121   4.993
94012W        W66437   8.162   9.375   0.214
94013W        W66438  41.523   1.934   2.672
94014W        W66439  13.988   0.879  12.337
94015W        W66440   9.499  12.148   2.326
94016W        W66441  23.429   5.238   2.642
94017W        W66442   3.883  39.104   4.943
94018W        W66443  43.248  10.110   1.851
94019W        W66444  11.091   7.726  14.326
94020W        W66445  33.353   1.348   1.851
94021W        W66446  14.174  19.589   0.702
94022W        W66447  39.264  16.024  11.159
94023W        W66448  15.672   7.274   9.986
94024W        W66449  31.118  20.953  11.239
94025W        W66450   2.791  34.537  14.460
94026W        W66451  35.171  31.965   1.672
94027W        W66452  22.176  17.529   1.409
94028W        W66453  14.173   8.490   3.731
94029W        W66454  27.222   0.747   1.352
94030W        W66455  28.011  40.901  12.055
94031W        W66456  17.730  32.860  12.444
94032W        W66457  37.044  13.975  10.702
94033W        W66458  43.410  39.734   3.861
94034W        W66459  16.544  11.237  14.922
94035W        W66460  30.084  23.795   4.094
94036W        W66461   7.311  34.660   4.244
94037W        W66462  26.044  40.061   1.704
94038W        W66463   8.899  16.606  13.480
94039W        W66464  25.540   0.050   3.843
94040W        W66465  19.414  38.111   5.027
94041W        W66466  11.094  31.550  12.041
94042W        W66467  35.529  16.255  11.621
94043W        W66468   1.721  16.257   3.334
94044W        W66469  29.697  32.952  11.351
94045W        W66470  25.145   8.270   2.864
94046W        W66471  12.608  27.568   2.465
94047W        W66472   4.906  22.608   0.523
94048W        W66473   2.363  34.271   1.277
94049W        W66474   9.449   3.346  14.098
94050W        W66475  44.803   7.200   3.417
94051W        W66476   5.443  17.247   1.694
94052W        W66477  33.959  25.428  11.134
94053W        W66478  14.518  26.143  11.186
94054W        W66479  44.811   5.011  13.402
94055W        W66480  24.288  40.002   3.215
94056W        W66481  22.815  37.919  10.467
94057W        W66482  40.396  25.730  14.838
94058W        W66483  30.627  42.376  14.285
94059W        W66484  26.708  30.396  10.390
94060W        W66485  15.760  31.336   0.691
94061W        W66486  43.267  10.626  11.611
94062W        W66487  23.669  44.057  12.190
94063W        W66488  31.229   1.475  13.059
94064W        W66489   0.447  40.924   4.157
94065W        W66490   7.097  43.817   0.192
94066W        W66491   2.068  28.886  13.599
94067W        W66492  32.184  43.516  12.144
94068W        W66493  22.916   6.684  12.887
94069W        W66494  16.300  28.967  10.736
94070W        W66495  34.018   9.422   2.235
94071W        W66496   8.739   0.825  11.535
94072W        W66497   6.380  30.987   3.818
94073W        W66498  24.150  43.783  14.937
94074W        W66499  33.056   7.235  11.226
94075W        W66500  24.381  28.563  10.558
94076W        W66501  28.550  43.818   1.877
94077W        W66502  13.363  29.555   3.676
94078W        W66503  22.083  35.646   1.072
94079W        W66504  44.381  16.805   0.892
94080W        W66505   1.855   5.596   3.793
94081W        W66506   0.016   8.644   3.168
94082W        W66507  36.929   9.686  11.476
94083W        W66508  20.654  24.677   0.530
94084W        W66509  22.535  36.628   0.856
94085W        W66510  29.478   6.923  10.657
94086W        W66511  33.418  34.597   2.894
94087W        W66512  25.628   3.330  13.807
94088W        W66513  42.457  12.780  14.291
94089W        W66514  40.944  37.436   1.217
94090W        W66515  35.424  20.967   3.342
94091W        W66516  17.652   4.361  10.325
94092W        W66517  39.584  38.348   1.408
94093W        W66518   7.985   4.948   4.039
94094W        W66519  17.078  36.446  11.537
94095W        W66520   2.366  16.375   4.208
94096W        W66521  24.746   6.416  11.217
94097W        W66522  36.085  31.161   2.377
94098W        W66523   7.826  15.732   3.171
94099W        W66524  11.535  32.378   1.416
94100W        W66525  12.338  26.903   0.339
94101W        W66526  43.974  37.852   1.004
94102W        W66527  22.677  14.598   0.578
94103W        W66528  21.819   3.147  14.494
94104W        W66529  25.667  25.152  14.523
94105W        W66530   9.364  20.101  13.933
94106W        W66531  13.693  28.059  14.779
94107W        W66532  30.903  20.647  11.593
94108W        W66533  34.043  40.444   0.732
94109W        W66534  10.798  15.585   1.954
94110W        W66535  16.898  24.078   4.522
94111W        W66536  27.111   8.850   4.572
94112W        W66537  30.702  33.434  12.958
94113W        W66538  36.905   9.710  10.964
94114W        W66539  41.537  17.595  10.710
94115W        W66540  10.604  40.369  13.811
94116W        W66541  31.957   3.673   0.570
94117W        W66542  30.061  18.710   0.346
94118W        W66543  32.008  11.148  11.692
94119W        W66544  21.098   4.668   0.452
94120W        W66545  32.513  35.159  12.659
94121W        W66546  24.628  10.871  12.490
94122W        W66547   1.279  44.288   3.295
94123W        W66548  37.178  11.108  11.175
94124W        W66549   8.371   8.857  11.677
94125W        W66550  44.749  41.406  14.414
94126W        W66551  11.490  31.661   3.711
94127W        W66552  37.622  36.364   1.751
94128W        W66553  27.070  26.871   0.945
94129W        W66554  44.006  19.633  12.572
94130W        W66555   0.824  24.432  12.468
94131W        W66556  40.585  26.433  14.469
94132W        W66557  27.560   8.344   2.215
94133W        W66558  39.865  10.650  11.692
94134W        W66559   0.241  27.390  12.393
94135W        W66560  30.617   7.264   3.386
94136W        W66561   4.218  14.849  13.570
94137W        W66562  13.741  31.560  10.710
94138W        W66563  17.373  29.408   5.316
94139W        W66564  13.274  36.851   0.441
94140W        W66565  10.368   7.300  11.110
94141W        W66566  13.076  19.298  14.861
94142W        W66567  10.418  24.183  12.270
94143W        W66568  28.052  35.208  14.403
94144W        W66569  22.179  37.145   2.321
94145W        W66570  16.262   2.332  14.004
94146W        W66571  19.150  14.835   2.340
94147W        W66572   3.931  20.593   3.872
94148W        W66573   1.312  17.117  14.543
94149W        W66574  31.490  30.641  14.394
94150W        W66575  27.950  26.596  14.891
94151W        W66576  28.789  42.566   3.684
94152W        W66577  13.214  16.307  12.996
94153W        W66578  16.051  24.788  10.766
94154W        W66579  22.081   7.955   3.601
94155W        W66580   8.431  21.135   2.231
94156W        W66581  26.116  18.564  11.050
94157W        W66582  29.434  42.543  13.877
94158W        W66583  25.245  12.190   2.700
94159W        W66584   4.708   9.201  10.448
94160W        W66585   6.471  22.491   0.226
94161W        W66586   9.300  33.480   4.971
94162W        W66587  25.042   6.359  11.960
94163W        W66588  33.861  27.190  12.856
94164W        W66589  21.069  34.962  12.384
94165W        W66590  39.330  13.231   2.466
94166W        W66591  28.934  38.852   0.356
94167W        W66592  31.430  34.265   4.058
94168W        W66593  33.309  31.510  12.852
94169W        W66594  18.561  21.615   2.783
94170W        W66595  40.497  43.352   0.296
94171W        W66596   3.193  33.441  14.961
94172W        W66597   7.589  41.198   1.789
94173W        W66598  40.341  22.441   2.270
94174W        W66599  36.912  41.994  13.526
94175W        W66600  38.738  39.028  12.893
94176W        W66601   7.574  42.745   5.010
94177W        W66602  24.494  42.882  14.877
94178W        W66603  10.107  24.340   1.912
94179W        W66604  12.104  18.778  13.533
94180W        W66605  21.229   1.316  14.401
94181W        W66606  20.428   7.845   3.284
94182W        W66607  28.957  13.813   1.802
94183W        W66608  30.250  18.226  13.610
94184W        W66609  39.718  14.743   0.250
94185W        W66610  38.440  41.719   2.189
94186W        W66611  15.589   6.985   4.173
94187W        W66612  22.976  17.356  11.187
94188W        W66613  12.178   0.316  10.918
94189W        W66614  20.125  19.619  10.697
94190W        W66615  32.304  30.911   4.242
94191W        W66616   0.880  32.184   4.127
94192W        W66617  21.682  10.878  11.084
94193W        W66618  17.675  18.305   4.592
94194W        W66619   5.913   0.244  13.462
94195W        W66620  37.494  36.822   1.996
94196W        W66621  33.484   0.918   5.147
94197W        W66622   8.075   3.238  14.485
94198W        W66623   0.762  15.310  14.728
94199W        W66624  18.160  22.313  12.959
94200W        W66625  29.521  34.539   1.428
94201W        W66626  27.559  20.948   2.424
94202W        W66627   8.255  43.595  13.799
94203W        W66628  23.316   1.129  14.988
94204W        W66629  41.283  32.620  13.432
94205W        W66630  41.398  32.390   3.678
94206W        W66631   5.809  24.799  10.870
94207W        W66632  43.472   2.215  12.012
94208W        W66633   1.318   3.925   4.075
94209W        W66634  19.162   2.887  11.996
94210W        W66635  24.964   0.916   0.350
94211W        W66636   2.253  26.709  10.671
94212W        W66637   7.061  29.412  13.824
94213W        W66638  26.443  16.747  10.700
94214W        W66639  33.620  25.246   4.168
94215W        W66640  18.573  39.138  10.584
94216W        W66641  37.489   3.212  14.015
94217W        W66642  20.331  33.434  10.537
94218W        W66643  40.609   1.554   3.285
94219W        W66644  16.218  11.570   2.948
94220W        W66645  18.761  13.967  11.039
94221W        W66646  39.808  43.900  13.969
94222W        W66647   2.532  17.176   4.074
94223W        W66648  15.112  23.414   0.366
94224W        W66649  29.442  28.554   4.168
94225W        W66650  37.995  16.065  11.066
94226W        W66651  12.213  43.321   3.730
94227W        W66652  17.338   1.477  12.047
94228W        W66653  24.029  27.910  13.982
94229W        W66654  11.755   8.663  12.473
94230W        W66655  27.402  19.806  12.142
94231W        W66656  22.673  42.824   2.705
94232W        W66657  42.215  42.471  12.166
94233W        W66658  16.678  35.873  13.371
94234W        W66659  40.274  18.580  11.316
94235W        W66660  22.828  34.654  11.081
94236W        W66661  32.643  38.551   0.330
94237W        W66662  29.048   6.299   2.268
94238W        W66663  37.708  36.735  14.005
94239W        W66664  26.703  30.013  11.897
94240W        W66665   1.656  42.825  10.150
94241W        W66666  39.373   1.644  14.020
94242W        W66667  36.148  35.521  12.614
94243W        W66668   6.827  26.172  10.868
94244W        W66669  32.481  13.661  11.502
94245W        W66670  12.286  18.300  11.520
94246W        W66671  44.897   0.573  13.159
94247W        W66672  22.291  44.381  12.780
94248W        W66673   5.131   3.716  12.846
94249W        W66674  30.049  36.850  10.698
94250W        W66675  20.551  16.562  10.966
94251W        W66676   8.287   5.743  11.915
94252W        W66677   4.750  30.962   1.752
94253W        W66678  40.322  43.885  13.988
94254W        W66679  14.777  42.305  13.955
94255W        W66680  27.932  33.850   4.200
94256W        W66681  20.619   3.416   4.128
94257W        W66682  13.104   3.143   4.588
94258W        W66683  36.955  33.436   0.870
94259W        W66684  30.940  24.965   3.705
94260W        W66685   9.881  29.211   2.353
94261W        W66686  34.839   2.337   3.935
94262W        W66687  42.490  38.796  14.214
94263W        W66688  44.075  15.767   3.556
94264W        W66689  23.975  18.165   4.076
94265W        W66690  22.473   6.429  12.995
94266W        W66691  13.906  18.084  14.933
94267W        W66692  29.352   2.508  12.638
94268W        W66693  11.786  17.609   3.609
94269W        W66694  39.780   7.309   3.540
94270W        W66695  29.210  19.399  14.856
94271W        W66696  13.427  14.523   2.074
94272W        W66697  17.719  25.691   3.612
94273W        W66698  30.439  31.135  12.558
94274W        W66699   6.435  11.556   3.275
94275W        W66700  22.015  13.549   1.878
94276W        W66701  12.227  42.730   1.381
94277W        W66702  31.468   7.663  11.628
94278W        W66703  27.946  15.071  11.670
94279W        W66704  17.261  17.637   4.298
94280W        W66705  18.743  36.630   2.642
94281W        W66706  21.197  19.288   1.811
94282W        W66707  27.874  35.436  12.954
94283W        W66708  28.477  13.897   1.575
94284W        W66709  19.879  37.949  12.723
94285W        W66710  16.222  41.228   3.590
94286W        W66711   3.827  15.296  12.390
94287W        W66712  36.695   4.458   4.158
94288W        W66713  35.564  41.836  13.973
94289W        W66714   7.394  30.210   1.190
94290W        W66715   8.128   4.303   0.267
94291W        W66716  25.669  43.090   5.075
94292W        W66717  16.361  19.937   0.248
94293W        W66718  28.667   0.527  12.355
94294W        W66719  39.473   2.302   4.151
94295W        W66720  37.021   1.319   4.760
94296W        W66721  36.811  36.514   2.302
94297W        W66722  32.400   1.647   4.537
94298W        W66723  11.945  17.139   3.422
94299W        W66724  23.339  25.181   4.642
94300W        W66725  23.384  39.436   1.779
94301W        W66726  30.511  43.796  12.560
94302W        W66727  13.020  44.745   2.174
94303W        W66728  41.304  38.497   0.361
94304W        W66729  22.598  25.604   1.473
94305W        W66730  36.489  32.867   4.684
94306W        W66731  22.996  24.888  12.930
94307W        W66732  34.541  14.388   1.099
94308W        W66733  27.240  10.149  12.087
94309W        W66734  26.576  44.880  14.372
94310W        W66735  23.163  33.704   4.736
94311W        W66736   6.445  29.710   2.195
94312W        W66737  27.620  24.636  14.445
94313W        W66738   2.420   6.232   4.568
94314W        W66739  25.499  28.108   2.914
94315W        W66740   8.510  27.091  14.033
94316W        W66741  35.917  39.900   3.710
94317W        W66742  28.162   6.212   4.596
94318W        W66743  27.605  43.748   4.671
94319W        W66744  37.146  21.768  10.439
94320W        W66745  13.643  13.070  11.492
94321W        W66746  44.458  10.486  12.736
94322W        W66747  19.209   3.219   3.184
94323W        W66748  21.171  10.261  14.442
94324W        W66749  20.750  19.003   3.200
94325W        W66750  27.101   0.323  10.533
94326W        W66751   9.183  34.630   3.202
94327W        W66752   2.258  22.987  13.043
94328W        W66753  32.585   3.033  14.691
94329W        W66754  11.452  32.168  10.908
94330W        W66755  32.824  38.505  12.983
94331W        W66756  42.582  21.521   5.095
94332W        W66757  42.967  29.123   4.194
94333W        W66758  25.885   9.521  11.053
94334W        W66759  35.002  21.126   4.072
94335W        W66760   5.840  31.481   4.048
94336W        W66761  26.212   6.184   1.467
94337W        W66762  11.801  29.718  13.325
94338W        W66763   9.130  16.262  14.895
94339W        W66764  44.502  31.876  11.514
94340W        W66765   3.412  16.097   3.748
94341W        W66766  40.094  42.380   0.740
94342W        W66767   1.433  40.798   0.396
94343W        W66768  31.538  17.478   3.194
94344W        W66769  44.999  40.774  12.815
94345W        W66770  32.102  15.150   3.784
94346W        W66771  21.760  22.623   3.768
94347W        W66772   2.628   5.679  14.606
94348W        W66773  12.920  21.752   3.272
94349W        W66774  31.430  37.101  12.462
94350W        W66775  43.357  40.461   3.307
94351W        W66776  37.940  22.316  13.936
94352W        W66777  40.270  40.146   0.427
94353W        W66778  33.528  39.451  10.493
94354W        W66779   7.964  16.368  11.944
94355W        W66780  13.205  39.879   4.074
94356W        W66781  17.176  18.131   3.716
94357W        W66782  22.422  38.759  13.031
94358W        W66783  34.902  14.077   4.067
94359W        W66784  15.389   2.227   0.431
94360W        W66785  19.363  10.858   2.252
94361W        W66786  30.653  34.705   3.290
94362W        W66787  39.419   6.597  14.493
94363W        W66788  28.613  33.021  10.665
94364W        W66789  35.144  21.228   1.285
94365W        W66790  39.644  11.490   0.940
94366W        W66791  37.960  34.069  14.589
94367W        W66792  24.115   8.866  13.103
94368W        W66793   9.481  22.666   4.589
94369W        W66794  37.471  35.894  14.584
94370W        W66795   8.101  41.128   3.477
94371W        W66796  41.956  43.334   4.618
94372W        W66797  40.400  40.766  10.709
94373W        W66798   0.246  38.421   1.436
94374W        W66799  18.166  20.630  12.557
94375W        W66800  25.560  29.550   2.766
94376W        W66801   1.361   6.651  11.185
94377W        W66802   9.141  10.420   0.294
94378W        W66803   0.973  39.664   3.773
94379W        W66804  22.581  44.694   2.317
94380W        W66805   1.637  34.493   0.179
94381W        W66806  21.042  19.648  11.659
94382W        W66807  24.209  16.806   3.655
94383W        W66808  17.061  44.978   0.293
94384W        W66809  17.147  13.116   2.215
94385W        W66810   5.964   0.186   4.614
94386W        W66811  29.884  25.265   4.105
94387W        W66812  11.135  32.421  12.239
94388W        W66813   0.828  35.511   2.927
94389W        W66814   9.226  42.556   4.200
94390W        W66815  38.620  31.924  14.449
94391W        W66816  10.939  15.063   3.116
94392W        W66817  43.960  27.897   0.767
94393W        W66818  43.065  39.478  14.245
94394W        W66819  32.737  44.352   0.792
94395W        W66820   9.348  43.232  12.364
94396W        W66821   4.898  12.534  12.459
94397W        W66822   6.914  11.835   4.115
94398W        W66823  44.884  40.622  13.766
94399W        W66824  41.372  18.811  13.493
94400W        W66825  28.281  26.160   4.505
94401W        W66826  34.935  34.977  12.588
94402W        W66827  17.727  28.405  11.080
94403W        W66828   8.884  12.134   0.322
94404W        W66829  10.454   7.770  12.005
94405W        W66830  35.614  41.286  14.084
94406W        W66831  16.709  39.878   1.643
94407W        W66832  44.917   2.188   2.380
94408W        W66833  21.352  16.949   0.913
94409W        W66834  33.437  32.782  10.761
94410W        W66835   1.890  35.321  12.047
94411W        W66836  42.716   3.662  11.391
94412W        W66837   4.263  37.524   4.339
94413W        W66838   4.939  44.267  11.029
94414W        W66839  21.054   3.453  13.796
94415W        W66840  43.513  10.785   0.776
94416W        W66841  12.250  31.955   2.135
94417W        W66842   6.776   8.299  12.588
94418W        W66843  41.823  19.619  12.503
94419W        W66844  19.264  10.727  10.972
94420W        W66845  43.452  43.532  12.796
94421W        W66846   4.596  26.459   0.620
94422W        W66847   1.951  42.178  10.856
94423W        W66848   3.271  40.528   4.071
94424W        W66849  26.288  38.513   4.115
94425W        W66850   2.419  28.164  14.003
94426W        W66851  27.413  32.521  12.073
94427W        W66852  28.801  44.030   0.957
94428W        W66853  35.263  28.424  11.519
94429W        W66854   4.730  30.029  14.525
94430W        W66855  32.175  27.463  10.577
94431W        W66856  22.229  17.280   2.925
94432W        W66857  24.082  10.513   3.543
94433W        W66858  35.005  41.490   3.118
94434W        W66859  14.119  14.435   2.795
94435W        W66860  40.127  36.962   3.989
94436W        W66861  13.655  20.468   1.729
94437W        W66862   8.183  39.581   1.425
94438W        W66863  39.525  28.011  13.884
94439W        W66864   8.204  36.189   2.434
94440W        W66865  13.217   4.457  14.848
94441W        W66866  24.991  20.005   4.281
94442W        W66867   2.418   5.342   4.385
94443W        W66868  44.708  24.497   2.186
94444W        W66869  43.199  40.939   1.802
94445W        W66870   8.500  34.230   4.318
94446W        W66871  41.071   7.993   2.854
94447W        W66872  28.968  28.782   4.049
94448W        W66873  29.476   3.331  12.543
94449W        W66874  28.551  18.838  12.511
94450W        W66875  15.406  20.236   0.539
94451W        W66876   3.522  38.843   3.619
94452W        W66877  23.053  22.535  12.586
94453W        W66878  27.962   1.357  14.825
94454W        W66879  39.961  43.586  11.732
94455W        W66880  20.069  31.716   4.188
94456W        W66881  30.632   2.434   0.007
94457W        W66882  31.196  16.302   4.682
94458W        W66883   5.495  22.236   2.700
94459W        W66884   5.625   0.658  11.086
94460W        W66885  13.706  42.492  14.707
94461W        W66886  38.905   5.956   4.164
94462W        W66887  36.318  38.470  11.952
94463W        W66888   5.628  29.104  10.628
94464W        W66889  25.091  25.677  11.794
94465W        W66890  40.036  18.028   0.991
94466W        W66891  13.874  35.770   4.224
94467W        W66892  43.015   7.354   5.261
94468W        W66893  23.126  11.381  13.438
94469W        W66894  35.705  44.832   2.860
94470W        W66895  11.276   1.988  14.833
94471W        W66896  33.207   7.893   4.099
94472W        W66897  39.584  24.381   3.687
94473W        W66898   2.321   6.372   9.925
94474W        W66899   6.826  26.213   0.055
94475W        W66900  16.270  16.341  13.539
94476W        W66901   6.390  14.215   1.879
94477W        W66902   5.431  29.248   3.334
94478W        W66903   1.839   7.253  10.695
94479W        W66904  19.028  36.382   4.023
94480W        W66905  28.108  15.237   1.091
94481W        W66906  18.692   9.532  11.624
94482W        W66907  10.610  20.951  11.978
94483W        W66908  41.317   2.471  13.882
94484W        W66909  43.800  29.022   0.586
94485W        W66910  12.315   2.148  10.944
94486W        W66911  23.857   5.008   3.387
94487W        W66912  38.552  35.581   2.135
94488W        W66913  23.060  32.924  14.969
94489W        W66914  11.309  33.002  14.824
94490W        W66915  34.942  37.562  11.544
94491W        W66916  21.035   4.712  13.859
94492W        W66917  27.467  40.015  11.591
94493W        W66918  14.133  23.537  10.131
94494W        W66919   0.312  42.038   4.814
94495W        W66920  26.888   2.453  14.405
94496W        W66921  22.042  29.936  13.928
94497W        W66922  13.911  34.845  14.023
94498W        W66923  29.479  23.948   3.020
94499W        W66924   1.104  11.773   1.310
94500W        W66925  39.345  26.284   0.870
94501W        W66926  26.154  26.274  13.876
94502W        W66927   2.188  18.363  11.551
94503W        W66928  21.211   3.267   3.140
94504W        W66929   4.078   1.972   4.576
94505W        W66930   7.365  19.697  10.723
94506W        W66931  40.395  18.982  12.697
94507W        W66932   8.412  23.342  10.823
94508W        W66933   9.159   5.821   9.820
94509W        W66934  42.027  42.343   0.390
94510W        W66935  27.501  31.253   2.637
94511W        W66936  36.136   0.926   5.155
94512W        W66937  32.238  22.178  14.513
94513W        W66938  43.297  17.228   0.749
94514W        W66939  36.428  25.475  13.882
94515W        W66940  38.572  19.719  13.867
94516W        W66941  29.303  34.557  14.381
94517W        W66942  13.704   4.960   3.682
94518W        W66943   6.866  15.163   0.480
94519W        W66944   0.926  19.222  12.539
94520W        W66945  13.740   0.741  10.718
94521W        W66946  28.928  23.703   5.555
94522W        W66947  40.640  36.166  12.980
94523W        W66948  21.485  15.575   1.009
94524W        W66949  22.614  19.036  13.411
94525W        W66950  22.493   6.982  12.971
94526W        W66951   1.293  20.094   2.462
94527W        W66952   3.483   2.852  10.785
94528W        W66953  35.569  19.733   4.074
94529W        W66954  39.504   3.474   4.908
94530W        W66955  19.325  24.379  14.955
94531W        W66956  28.342   6.238   2.821
94532W        W66957   6.931  30.122   1.429
94533W        W66958  38.038  16.079   1.713
94534W        W66959  40.426  10.396   2.386
94535W        W66960  32.385   2.141   4.724
94536W        W66961  44.876  44.548  14.949
94537W        W66962  11.320  39.467  13.539
94538W        W66963  15.307   1.347   2.683
94539W        W66964  22.693  14.246   4.099
94540W        W66965  40.615   0.826   3.698
94541W        W66966  28.511   0.254  10.955
94542W        W66967  44.478  43.591  12.530
94543W        W66968  21.548   6.829   3.630
94544W        W66969  22.598  42.608  14.459
94545W        W66970  43.438   7.573   2.614
94546W        W66971  30.405   5.319  13.361
94547W        W66972   3.022  12.889  13.326
94548W        W66973  15.559  13.848  14.809
94549W        W66974  12.754  15.390   4.330
94550W        W66975  37.311  31.215  13.832
94551W        W66976  25.274  23.475   2.298
94552W        W66977   5.835  19.784  13.941
94553W        W66978  22.034  22.554  14.125
94554W        W66979  37.650  11.944  12.123
94555W        W66980  37.033   5.375  11.806
94556W        W66981   5.851  14.437   1.694
94557W        W66982  20.689   0.306   4.179
94558W        W66983  28.681  23.983   1.452
94559W        W66984  11.810  33.422   4.524
94560W        W66985  43.210  19.521  12.064
94561W        W66986  22.035  18.483   4.693
94562W        W66987  15.572  27.557   3.746
94563W        W66988  24.220  33.920   3.393
94564W        W66989  39.259  16.344   1.304
94565W        W66990   6.719  20.149  11.002
94566W        W66991  29.643  13.318   4.072
94567W        W66992  14.197  16.770   4.087
94568W        W66993  22.607  24.621  12.118
94569W        W66994  11.884  12.247   3.750
94570W        W66995   3.326  27.632  11.180
94571W        W66996  44.211   5.288   1.159
94572W        W66997  32.070  15.202   2.848
94573W        W66998  15.214   7.272   1.457
94574W        W66999  13.792   9.246  12.495
94575W        W67000  27.679   8.407  10.734
94576W        W67001  29.503  43.446  13.439
94577W        W67002  14.984   3.480   4.495
94578W        W67003  28.144  11.189  10.071
94579W        W67004  14.377  23.994  11.464
94580W        W67005  25.195  30.279  13.340
94581W        W67006  15.207  16.274   3.155
94582W        W67007  33.697  22.120  11.540
94583W        W67008  37.041   7.660  11.093
94584W        W67009  34.539  22.157   2.230
94585W        W67010   8.056  44.844   3.154
94586W        W67011  28.451   1.079   2.752
94587W        W67012   1.051   5.891   0.515
94588W        W67013  34.674  15.669   2.273
94589W        W67014  25.724  25.032  12.083
94590W        W67015  43.534  31.452   1.872
94591W        W67016   4.048   7.195   4.407
94592W        W67017  37.908   8.724   0.446
94593W        W67018  41.882  37.040  11.664
94594W        W67019  32.090  14.192  12.070
94595W        W67020   5.756  30.384  14.317
94596W        W67021  41.180   4.660  14.677
94597W        W67022  34.105   2.740  12.091
94598W        W67023   3.073  23.729   4.303
94599W        W67024   8.945   7.178   2.745
94600W        W67025  33.605  43.458  14.728
94601W        W67026   9.771  19.817   1.441
94602W        W67027  17.838  37.431  13.848
94603W        W67028  20.210  10.755   5.581
94604W        W67029  24.975  27.899   2.174
94605W        W67030  31.128  44.994  14.799
94606W        W67031   2.130   9.769   0.654
94607W        W67032  41.993   9.976   0.344
94608W        W67033  16.210  31.900  12.071
94609W        W67034  42.930  22.679  11.636
94610W        W67035  23.141  28.412  12.967
94611W        W67036  12.281  31.111   1.723
94612W        W67037  27.942  30.048  10.639
94613W        W67038  20.071  43.219   0.468
94614W        W67039  29.544  21.569  12.439
94615W        W67040  19.629  41.933   2.650
94616W        W67041  24.994  37.786   2.415
94617W        W67042  26.382  42.667   2.155
94618W        W67043  34.953  36.786   1.382
94619W        W67044  44.484  37.808   2.881
94620W        W67045  35.825  27.256  11.136
94621W        W67046  29.136  41.537   2.385
94622W        W67047  32.861  21.533   2.303
94623W        W67048  31.933   3.181   1.310
94624W        W67049  31.000  32.445   1.265
94625W        W67050  39.932  41.449  11.219
94626W        W67051   7.609  27.283  12.867
94627W        W67052  27.941  34.334  14.696
94628W        W67053  26.405  14.449   3.942
94629W        W67054   8.869   6.382   3.262
94630W        W67055  37.124  29.638   3.699
94631W        W67056  35.802  18.676  14.928
94632W        W67057  22.645  32.795  14.464
94633W        W67058  24.191  29.949   5.318
94634W        W67059  34.496  39.350  13.616
94635W        W67060  40.279  27.476   2.278
94636W        W67061  16.125  32.016   3.225
94637W        W67062  42.436   5.506  10.832
94638W        W67063  11.406  42.215  13.759
94639W        W67064  40.021  43.057   1.650
94640W        W67065   1.958  20.575   2.652
94641W        W67066  11.743  12.414  12.537
94642W        W67067   0.371  28.527   3.742
94643W        W67068  29.690  13.132   4.541
94644W        W67069  36.079  44.874   2.004
94645W        W67070  14.199   3.751   4.368
94646W        W67071  28.170   6.942   1.069
94647W        W67072   0.841  31.241  12.539
94648W        W67073   9.273   8.379  11.722
94649W        W67074   1.733  16.840  13.760
94650W        W67075  14.679   2.241   9.636
94651W        W67076  16.139  38.836  13.038
94652W        W67077  30.923  13.823  13.314
94653W        W67078  15.410   3.791  14.464
94654W        W67079   8.888   0.747   3.658
94655W        W67080  43.975  10.634  11.094
94656W        W67081  43.731  28.110  11.105
94657W        W67082  28.117  33.091   3.731
94658W        W67083  11.578  42.561  10.970
94659W        W67084  41.753  11.644   2.003
94660W        W67085  42.594   6.890   1.542
94661W        W67086  32.240  36.373   2.235
94662W        W67087  36.619  44.781   4.116
94663W        W67088  30.561  13.467   4.195
94664W        W67089  21.499  39.171   3.168
94665W        W67090  22.770  36.388  12.939
94666W        W67091   8.227   1.892   0.633
94667W        W67092  13.898   5.257  12.556
94668W        W67093  14.883  34.911  11.908
94669W        W67094  30.964  41.317   4.673
94670W        W67095  41.256   5.650  14.646
94671W        W67096   4.867  20.578   0.133
94672W        W67097  40.194  38.753  14.907
94673W        W67098  29.996   9.903   2.868
94674W        W67099  42.367  21.953   4.743
94675W        W67100  32.918  41.068   1.234
94676W        W67101  44.229  39.854  11.120
94677W        W67102  34.589  11.651  11.228
94678W        W67103  44.281  17.700   2.612
94679W        W67104  44.542   7.432   0.853
94680W        W67105  11.347  24.297   1.620
94681W        W67106  14.873  35.007   3.944
94682W        W67107   9.247  30.008   3.249
94683W        W67108  41.610   9.763  11.098
94684W        W67109  14.557  13.902   2.297
94685W        W67110   5.763  15.065  11.256
94686W        W67111  11.602  34.528   4.676
94687W        W67112  35.535  38.504   1.434
94688W        W67113  28.864  24.479   1.381
94689W        W67114  30.839   4.890   0.813
94690W        W67115  34.968  16.502   4.670
94691W        W67116  14.667  15.875   0.510
94692W        W67117  10.695  12.921   2.796
94693W        W67118  37.373   7.236   0.044
94694W        W67119  12.414  11.281  14.292
94695W        W67120  44.822  29.092  12.622
94696W        W67121  24.895  33.549  11.615
94697W        W67122  28.137  12.615   1.751
94698W        W67123  38.473  40.364   0.948
94699W        W67124  28.222   5.472  13.496
94700W        W67125   3.729  32.997  14.329
94701W        W67126  31.121  14.553   3.159
94702W        W67127   9.375  24.297  13.383
94703W        W67128  34.948  12.790   4.545
94704W        W67129  35.638  28.251   4.016
94705W        W67130  12.649  15.153   1.798
94706W        W67131   7.664  42.702  11.148
94707W        W67132  25.150  42.323  10.361
94708W        W67133  11.640  38.370  14.840
94709W        W67134  24.246  19.193  13.817
94710W        W67135  15.384  36.067   3.294
94711W        W67136  30.449  34.071   0.089
94712W        W67137   8.156  23.501   2.128
94713W        W67138  12.557   3.849   4.591
94714W        W67139  25.041  15.492   1.065
94715W        W67140   3.499  42.501  11.496
94716W        W67141  11.303  37.030  12.141
94717W        W67142   1.011  22.028   2.303
94718W        W67143   7.861  37.656   3.436
94719W        W67144  38.363  23.940   0.846
94720W        W67145  25.713  13.332   0.382
94721W        W67146  10.782  15.186  10.629
94722W        W67147  42.870   2.432   0.201
94723W        W67148  22.185   8.892   0.902
94724W        W67149  44.429  31.636   4.235
94725W        W67150  35.915   6.565  12.493
94726W        W67151  13.449   3.829   1.882
94727W        W67152  17.755  42.995  12.679
94728W        W67153   6.788  39.000  11.094
94729W        W67154  37.585   6.754  11.224
94730W        W67155  32.525   7.302  10.994
94731W        W67156  17.957  44.859  14.814
94732W        W67157  40.825   9.839   1.684
94733W        W67158  20.740  22.057   0.380
94734W        W67159  11.799   4.586   3.710
94735W        W67160  14.583  32.125  14.544
94736W        W67161  10.935  38.025  11.441
94737W        W67162  35.336  24.734   2.917
94738W        W67163  13.615   9.955  14.056
94739W        W67164   8.103  22.785  14.902
94740W        W67165   0.372  41.959  10.739
94741W        W67166   5.849  25.477   0.929
94742W        W67167  16.339   0.675  12.493
94743W        W67168  14.664  36.343   0.266
94744W        W67169  21.234  13.301  12.807
94745W        W67170   3.003  32.993  11.091
94746W        W67171  16.776  36.038   1.649
94747W        W67172   6.811  22.900  14.329
94748W        W67173  11.861  12.819  12.841
94749W        W67174  21.668  36.121   1.328
94750W        W67175  20.570   1.718   0.829
94751W        W67176  24.891  41.308   1.369
94752W        W67177  34.560  10.405   2.899
94753W        W67178  14.184   4.702  13.032
94754W        W67179   4.151  18.874  14.810
94755W        W67180  44.466  40.966   3.867
94756W        W67181  22.194  20.839   0.370
94757W        W67182  25.037  23.515  10.608
94758W        W67183   4.193  28.110   0.555
94759W        W67184  38.083  29.223  13.677
94760W        W67185   3.825  30.869   4.216
94761W        W67186  12.872  33.121  11.796
94762W        W67187  29.980   1.665   4.580
94763W        W67188  39.347  21.642   1.807
94764W        W67189  43.002  44.802   1.129
94765W        W67190  21.816  10.905  12.514
94766W        W67191  21.767  28.320   0.827
94767W        W67192   4.466  41.237   4.030
94768W        W67193  41.549  21.041   3.040
94769W        W67194   9.764  36.287  14.770
94770W        W67195  31.975   7.182   1.621
94771W        W67196   3.695  21.260  13.293
94772W        W67197  33.496  35.654  13.433
94773W        W67198  13.101  44.942  11.676
94774W        W67199  26.602  39.543  14.691
94775W        W67200  33.580  40.446   4.870
94776W        W67201   1.207  20.839   1.951
94777W        W67202   3.658   8.843   3.818
94778W        W67203  35.526  21.650  14.936
94779W        W67204  28.756   8.495   4.089
94780W        W67205  38.543  25.539  14.586
94781W        W67206  42.711  24.975   0.454
94782W        W67207  18.921  18.601   4.104
94783W        W67208   3.911  25.484  12.535
94784W        W67209  19.836  18.178   3.059
94785W        W67210  40.848  22.792  13.022
94786W        W67211  17.799  32.834  14.386
94787W        W67212  40.821  24.803   3.196
94788W        W67213  37.977  13.964  11.147
94789W        W67214  37.649  44.408   3.721
94790W        W67215  23.582  19.110   4.190
94791W        W67216  43.047  22.891   2.167
94792W        W67217  37.468  32.370   0.317
94793W        W67218  32.161  11.605   2.861
94794W        W67219   9.124  43.055   4.220
94795W        W67220   0.887  30.463   1.316
94796W        W67221  38.018  26.044  11.647
94797W        W67222  37.017  41.740  14.889
94798W        W67223  10.815  34.683   4.142
94799W        W67224   6.458   5.930  13.797
94800W        W67225  33.528  34.873  11.733
94801W        W67226  43.750   7.214   1.255
94802W        W67227  15.251  33.866  10.185
94803W        W67228  24.474  16.591   0.534
94804W        W67229  35.925  29.009  12.613
94805W        W67230  29.667   2.294   4.616
94806W        W67231  30.413  44.541   1.357
94807W        W67232  16.129  17.144  11.549
94808W        W67233  35.976   6.431   0.310
94809W        W67234  16.672  13.023   0.422
94810W        W67235  13.380  29.879  11.258
94811W        W67236  22.757  33.340   0.605
94812W        W67237  26.753  25.952   4.058
94813W        W67238   4.775   9.662  14.917
94814W        W67239  27.031   4.438   2.823
94815W        W67240  31.171  14.345   1.746
94816W        W67241  39.097  43.449   3.818
94817W        W67242  39.973  39.498   4.739
94818W        W67243   4.234  10.217  12.963
94819W        W67244  42.229  38.450   3.803
94820W        W67245  39.569  33.422   0.718
94821W        W67246   9.818  31.771  13.635
94822W        W67247  44.992   8.494  11.180
94823W        W67248  14.881  35.984  10.556
94824W        W67249  29.835   4.092  12.494
94825W        W67250  37.817  37.897  12.911
94826W        W67251  24.804  38.660   0.352
94827W        W67252   8.681  16.365   4.029
94828W        W67253  28.986   4.794  10.762
94829W        W67254  43.901   0.756   4.644
94830W        W67255  22.031  16.633  13.844
94831W        W67256  39.541  37.494   3.204
94832W        W67257  35.927  41.754  14.321
94833W        W67258   3.351   7.378  13.966
94834W        W67259  16.745   5.746  12.410
94835W        W67260   8.201   2.252   3.777
94836W        W67261  26.450  20.205  13.263
94837W        W67262  13.284  38.863  11.824
94838W        W67263  21.210  28.019  10.664
94839W        W67264  44.794  39.987   1.057
94840W        W67265  25.238  17.748   1.311
94841W        W67266  26.962  36.864   0.448
94842W        W67267  35.030  25.942   3.300
94843W        W67268  38.952  32.906  11.026
94844W        W67269  16.537  21.843   3.631
94845W        W67270  19.078  37.776  13.701
94846W        W67271  30.606  10.272  11.175
94847W        W67272   4.028   9.137   4.137
94848W        W67273  41.188  28.666   2.154
94849W        W67274  44.180   9.304   4.957
94850W        W67275  14.761  10.148  10.410
94851W        W67276  34.941   4.266  13.395
94852W        W67277  22.150  34.494   1.213
94853W        W67278   4.983  35.008   1.844
94854W        W67279  33.605  42.349   2.915
94855W        W67280  19.250  29.528   1.019
94856W        W67281  16.696   5.442   0.786
94857W        W67282  17.549  39.597   3.596
94858W        W67283  11.951   9.885  12.822
94859W        W67284  29.961   2.143   2.677
94860W        W67285  33.036  21.524   4.309
94861W        W67286  39.263  34.019   2.224
94862W        W67287  42.910  40.360   3.659
94863W        W67288   5.342  10.206  12.248
94864W        W67289  14.644  43.017  14.451
94865W        W67290   6.381  15.134   0.725
94866W        W67291  41.331  11.996  10.515
94867W        W67292  31.209  14.756  14.811
94868W        W67293   4.866  25.572   2.618
94869W        W67294  16.134  16.381   3.726
94870W        W67295  30.690  39.413  13.249
94871W        W67296  15.533  38.399   1.836
94872W        W67297  43.832  20.704   0.464
94873W        W67298  36.790  34.664   3.176
94874W        W67299  34.561  44.467  13.005
94875W        W67300  10.660  27.900   1.385
94876W        W67301  21.591  34.434   1.843
94877W        W67302  34.821  24.241   2.332
94878W        W67303  37.397  30.933   3.810
94879W        W67304  13.652  12.813   1.277
94880W        W67305   9.901  14.490   1.707
94881W        W67306   2.622   1.004   1.453
94882W        W67307  25.160  12.817  13.011
94883W        W67308  34.178   6.201  12.802
94884W        W67309  41.693  32.026  14.009
94885W        W67310   3.228  43.012  13.678
94886W        W67311  32.708  13.274  12.847
94887W        W67312  21.235  21.988  12.620
94888W        W67313  15.660  25.937   4.081
94889W        W67314  25.011  21.680   2.581
94890W        W67315  22.554  25.737  10.633
94891W        W67316  32.183  39.919   3.331
94892W        W67317  43.969  11.145  13.549
94893W        W67318  25.523  20.303  14.844
94894W        W67319  35.930   1.508  12.433
94895W        W67320  16.874  11.819   1.896
94896W        W67321  15.087  29.600   4.872
94897W        W67322  43.432  44.109  11.140
94898W        W67323  32.921   6.189  11.550
94899W        W67324  40.590  38.054   4.115
94900W        W67325   2.277  18.044   3.251
94901W        W67326   6.145  33.358   0.371
94902W        W67327  13.067   2.078  13.726
94903W        W67328  25.107  35.281   4.552
94904W        W67329  27.660   3.408  13.290
94905W        W67330   9.210  19.131   3.219
94906W        W67331  38.493  36.388  13.442
94907W        W67332  20.942  40.669   3.901
94908W        W67333   1.487  29.964   4.192
94909W        W67334   4.539  41.037  11.203
94910W        W67335  11.584  25.426  14.807
94911W        W67336   4.953  18.467   0.291
94912W        W67337  30.569   3.275   4.086
94913W        W67338  13.334  43.087   0.910
94914W        W67339  32.303  37.010   3.524
94915W        W67340   5.761  19.220  12.815
94916W        W67341  17.709  42.498   4.052
94917W        W67342  32.404  35.027   0.820
94918W        W67343  22.265  36.589   3.768
94919W        W67344  36.283  34.212   2.842
94920W        W67345   8.713  15.555   0.251
94921W        W67346  35.967  40.820  12.126
94922W        W67347  29.580  12.957   2.821
94923W        W67348  38.954  41.166   0.087
94924W        W67349  32.870  18.451  11.524
94925W        W67350  12.038  11.660  11.159
94926W        W67351  37.960   4.064  13.962
94927W        W67352  37.601  35.874  10.737
94928W        W67353   2.917  32.841   3.686
94929W        W67354  25.030   6.769   4.720
94930W        W67355   6.926  44.406   1.791
94931W        W67356  13.105  29.500   0.937
94932W        W67357   1.732  43.914  14.885
94933W        W67358  25.482  28.872   0.781
94934W        W67359  14.744  43.804  12.374
94935W        W67360   2.532   2.529   4.561
94936W        W67361  41.190  40.253   5.055
94937W        W67362  27.431  25.934  11.479
94938W        W67363  37.355  41.256  13.063
94939W        W67364   4.147  22.090   4.130
94940W        W67365  31.509  25.939  10.752
94941W        W67366  16.618  38.224  11.435
94942W        W67367   4.101  21.476  13.029
94943W        W67368  44.845  20.719  12.494
94944W        W67369  30.951  10.314   1.751
94945W        W67370   8.295  24.200  13.095
94946W        W67371  19.799   4.424   4.324
94947W        W67372  36.368   2.205  12.130
94948W        W67373  35.481   7.780   1.060
94949W        W67374  22.206  18.742  14.129
94950W        W67375  12.270  29.911  10.477
94951W        W67376  28.420   6.524  13.273
94952W        W67377  30.587  31.546   3.230
94953W        W67378  33.126  11.619   2.661
94954W        W67379  11.361  11.228   0.788
94955W        W67380  39.942  38.080  12.011
94956W        W67381  11.192  13.698   3.928
94957W        W67382  24.476   2.001   4.564
94958W        W67383  13.821  29.005  11.065
94959W        W67384  30.970  14.642  11.506
94960W        W67385   0.819  16.853  13.643
94961W        W67386  43.265   6.871  11.633
94962W        W67387   6.776  33.320   0.826
94963W        W67388  44.484  12.260  14.590
94964W        W67389  12.249  30.889   0.295
94965W        W67390  35.567   4.962  13.574
94966W        W67391   5.321  39.028   3.410
94967W        W67392  31.086  23.314   5.552
94968W        W67393   8.350   9.402   3.167
94969W        W67394   3.749  13.502  12.552
94970W        W67395  28.132  39.774   0.754
94971W        W67396  36.345  25.062   0.394
94972W        W67397  20.802  34.914   1.298
94973W        W67398  42.455  24.975   3.443
94974W        W67399  34.568  23.813   2.472
94975W        W67400  40.822  42.536  11.887
94976W        W67401   9.183  25.581  13.229
94977W        W67402  43.022  15.717   2.426
94978W        W67403  28.097  35.938   1.736
94979W        W67404  14.046  15.806   1.185
94980W        W67405   1.334  20.458   0.988
94981W        W67406  30.186  24.153   0.971
94982W        W67407  43.360   7.447   3.570
94983W        W67408  26.638  19.471   4.018
94984W        W67409  37.417  21.774  11.571
94985W        W67410  39.218  31.456  12.586
94986W        W67411  12.344  21.966  11.124
94987W        W67412  31.010   2.951  13.362
94988W        W67413  41.287  12.403   1.765
94989W        W67414  21.608  18.979  14.551
94990W        W67415  41.452  18.271  11.559
94991W        W67416  41.588  12.690   0.495
94992W        W67417  27.304  13.683  11.634
94993W        W67418  30.364  25.184  12.505
94994W        W67419  41.029  42.435  10.967
94995W        W67420   4.083  24.457   2.691
94996W        W67421  34.542  15.082  10.630
94997W        W67422  33.865  15.763  13.108
94998W        W67423  24.508   1.327  11.923
94999W        W67424   0.290  40.178   4.852
95000W        W67425  28.604  29.456   4.343
95001W        W67426   3.854   5.481   0.580
95002W        W67427  30.867  33.066   1.923
95003W        W67428   9.319  10.168   0.771
95004W        W67429   4.277   1.647  11.639
95005W        W67430  43.644  25.165  14.509
95006W        W67431   2.201  29.626   2.444
95007W        W67432  28.330  37.438  10.262
95008W        W67433  44.384  23.956   1.362
95009W        W67434  33.515  35.451  11.035
95010W        W67435  17.023   9.179  12.396
95011W        W67436  13.610   3.684   0.030
95012W        W67437  35.963  19.641  11.477
95013W        W67438  11.734  35.270  13.350
95014W        W67439  15.293  11.856   2.861
95015W        W67440  17.856  13.380   3.241
95016W        W67441   9.116  24.744  13.392
95017W        W67442  17.115  38.642  13.964
95018W        W67443  44.996  22.250   0.897
95019W        W67444  17.568   7.494   3.824
95020W        W67445  34.655   3.937  12.545
95021W        W67446   8.719  25.430  12.369
95022W        W67447  21.217  13.408  12.322
95023W        W67448  12.673  25.231   0.745
95024W        W67449  28.894  33.623  13.821
95025W        W67450   8.309  39.772  10.502
95026W        W67451  43.378   9.655  12.477
95027W        W67452   1.714  15.621   1.344
95028W        W67453  35.600   5.203  14.047
95029W        W67454  40.428   8.802  12.820
95030W        W67455  34.671  23.437   0.856
95031W        W67456  31.693  12.418  12.430
95032W        W67457  41.470  27.157  14.509
95033W        W67458  16.405  12.254  12.994
95034W        W67459  14.550   3.321   3.702
95035W        W67460  12.905   1.393  11.500
95036W        W67461  15.474  10.127  12.313
95037W        W67462  22.743  29.220   1.189
95038W        W67463  15.864  24.976  11.351
95039W        W67464  23.031  31.024  14.928
95040W        W67465  35.424   3.426   0.255
95041W        W67466  33.711  23.199   3.843
95042W        W67467  35.033  13.936   1.782
95043W        W67468  23.113  19.993  14.463
95044W        W67469   8.760   2.386  14.913
95045W        W67470   2.170   6.574  11.947
95046W        W67471   8.619  37.931   2.817
95047W        W67472   0.593  36.911  12.171
95048W        W67473  27.002  36.741   3.727
95049W        W67474  19.518  33.907   2.985
95050W        W67475  28.633   7.604   0.401
95051W        W67476   4.975  24.841   1.284
95052W        W67477   6.081  20.657  14.499
95053W        W67478  43.570  28.583   0.763
95054W        W67479  31.636  35.539  14.344
95055W        W67480  30.460   7.847  14.933
95056W        W67481  37.508  42.082   3.391
95057W        W67482  24.243  33.906  12.488
95058W        W67483  28.638  14.670   0.262
95059W        W67484  31.358  15.780  10.874
95060W        W67485  20.770  44.293  12.480
95061W        W67486   3.459  31.950  11.696
95062W        W67487   6.025  29.152   3.675
95063W        W67488  19.162  39.022  14.851
95064W        W67489   5.039  21.167   4.509
95065W        W67490  18.932  12.144   1.379
95066W        W67491  26.907  17.021   4.241
95067W        W67492   2.928  10.188   3.871
95068W        W67493  36.658  11.403   2.815
95069W        W67494  34.325  37.876   3.540
95070W        W67495  23.448   0.324  11.406
95071W        W67496  17.268  37.173  14.445
95072W        W67497  17.226  27.176  13.627
95073W        W67498  44.780  17.786   2.807
95074W        W67499   7.124  23.244  12.571
95075W        W67500  13.684  22.792  12.830
95076W        W67501  43.942   1.466   1.792
95077W        W67502  28.833  10.327  11.009
95078W        W67503  42.970  29.622  12.044
95079W        W67504  43.385  22.088   5.464
95080W        W67505  31.036  36.105  11.052
95081W        W67506  41.097  36.586   1.876
95082W        W67507  15.955   0.349   3.154
95083W        W67508   5.984  26.004   1.893
95084W        W67509  44.524  10.249   1.331
95085W        W67510  27.050   3.319   1.154
95086W        W67511  14.215  18.158  13.565
95087W        W67512  31.958  30.061  11.535
95088W        W67513  43.854  36.332  11.198
95089W        W67514   0.451   5.934   3.341
95090W        W67515  23.637  22.688  14.464
95091W        W67516  34.136  34.337  14.530
95092W        W67517  32.523  12.644  13.360
95093W        W67518   4.404   6.614  11.677
95094W        W67519  12.926  35.317  12.353
95095W        W67520  13.989  14.910  14.478
95096W        W67521  12.196  17.682   3.286
95097W        W67522   1.235  23.560  14.831
95098W        W67523  36.132  17.832  13.376
95099W        W67524  35.015  24.551  12.606
95100W        W67525   4.852   5.863   0.733
95101W        W67526   5.843  40.243  13.290
95102W        W67527  25.224  30.432  11.498
95103W        W67528  10.206  33.168   2.872
95104W        W67529  41.830  20.472   1.371
95105W        W67530  16.094  41.345  11.121
95106W        W67531  24.857  28.070   1.681
95107W        W67532  23.642  41.969   1.346
95108W        W67533   4.675  24.752  11.291
95109W        W67534  34.443  31.658   0.248
95110W        W67535  24.610  42.394  13.755
95111W        W67536  10.682  19.593  12.192
95112W        W67537  29.386  24.645  10.637
95113W        W67538   4.403  36.820   0.392
95114W        W67539  19.226  20.627  12.034
95115W        W67540  11.643   2.328  14.605
95116W        W67541   2.324  39.088   1.777
95117W        W67542  40.920   0.523   1.039
95118W        W67543  43.424  16.038   2.399
95119W        W67544  33.476  36.656  14.010
95120W        W67545  30.528  16.602   2.812
95121W        W67546  24.930   0.433   2.328
95122W        W67547  37.150  36.673   5.006
95123W        W67548   9.344  21.978  10.717
95124W        W67549   3.348  17.612   0.030
95125W        W67550  14.888  11.636   0.695
95126W        W67551  14.315   3.656  10.342
95127W        W67552  41.529  11.250   0.318
95128W        W67553   2.316  13.058  14.641
95129W        W67554  36.054  44.419   1.742
95130W        W67555  12.871  25.929   3.319
95131W        W67556  35.492   5.940  12.677
95132W        W67557  19.937   2.756  13.568
95133W        W67558   4.299   7.142  12.507
95134W        W67559   9.243  29.148   0.314
95135W        W67560  27.729  19.781   4.117
95136W        W67561  18.621  39.022   3.320
95137W        W67562  29.081  19.727  14.034
95138W        W67563  39.001  24.653  13.752
95139W        W67564  44.319  14.874  12.480
95140W        W67565  24.267  37.496   3.755
95141W        W67566  22.298  17.243  12.031
95142W        W67567  15.549   6.427   1.333
95143W        W67568  13.143  41.382   4.261
95144W        W67569  41.816   0.748  14.024
95145W        W67570  12.601  23.025   1.869
95146W        W67571  39.745  24.181  14.835
95147W        W67572  36.918   8.427  13.978
95148W        W67573  17.485  10.891  13.843
95149W        W67574  36.768  39.348   2.205
95150W        W67575  19.116  33.362   4.115
95151W        W67576  13.320  21.505  14.896
95152W        W67577   0.752  18.728   3.793
95153W        W67578  27.235  17.794  13.851
95154W        W67579  25.181  19.816   3.784
95155W        W67580  18.709  34.650  14.039
95156W        W67581  12.769  32.631  10.588
95157W        W67582   4.577  42.467   1.863
95158W        W67583  27.688  40.277  12.454
95159W        W67584  17.827  42.343  13.511
95160W        W67585  44.203  29.950   1.801
95161W        W67586  22.621   8.180   2.388
95162W        W67587  18.598   0.962   2.582
95163W        W67588  14.290   0.604   9.970
95164W        W67589   0.350  36.811  11.608
95165W        W67590  34.362  20.728   4.147
95166W        W67591   8.907  17.644   4.030
95167W        W67592  27.107   0.527   2.735
95168W        W67593  37.001  44.501   0.593
95169W        W67594   1.229  32.310  14.240
95170W        W67595  41.107  15.187   0.833
95171W        W67596  22.300  34.594  11.099
95172W        W67597  12.811  21.595  11.680
95173W        W67598   6.390  15.746  12.099
95174W        W67599  14.812  27.646   2.454
95175W        W67600  22.558  29.482  12.397
95176W        W67601  19.472  36.504   2.244
95177W        W67602  14.468  12.751  14.002
95178W        W67603  14.171  23.658   0.276
95179W        W67604  22.229  40.534  12.806
95180W        W67605  16.103  36.516  11.636
95181W        W67606  14.669  38.484   0.066
95182W        W67607  44.233  32.555   1.393
95183W        W67608  11.740  38.858   5.066
95184W        W67609  26.106   2.274  13.467
95185W        W67610  22.405   0.359  12.984
95186W        W67611   5.148  41.764   1.805
95187W        W67612  12.821  14.541   3.558
95188W        W67613  17.566  35.136   2.566
95189W        W67614  13.048   3.624  11.474
95190W        W67615  35.879  20.282   0.978
95191W        W67616  42.833  31.430   2.373
95192W        W67617  31.932   9.967  13.994
95193W        W67618   3.692  44.318  10.474
95194W        W67619  18.538  19.340  10.539
95195W        W67620  43.764  18.821  10.745
95196W        W67621  17.046   1.245  12.411
95197W        W67622  29.192  26.099   1.202
95198W        W67623  39.802  14.552   1.191
95199W        W67624  34.481   6.213  14.035
95200W        W67625  18.018  11.260  10.678
95201W        W67626  25.565   7.797  12.031
95202W        W67627  10.831  10.108  13.069
95203W        W67628  37.317  40.800   4.482
95204W        W67629   2.486  15.739  12.455
95205W        W67630   1.851   6.728   3.619
95206W        W67631  12.059  28.896   4.186
95207W        W67632  35.592  12.218   4.101
95208W        W67633  36.254  31.203  13.431
95209W        W67634  25.498  24.685   3.372
95210W        W67635   6.826  11.421   1.902
95211W        W67636  24.207   5.673   2.114
95212W        W67637   0.335  39.077   0.209
95213W        W67638  20.008  44.176  11.601
95214W        W67639  40.818  27.668   4.335
95215W        W67640   8.216  27.647   3.276
95216W        W67641  37.323   2.915   1.668
95217W        W67642  39.911  16.795   0.549
95218W        W67643   5.689  38.464   0.859
95219W        W67644  17.689  20.712   0.910
95220W        W67645  11.057  31.191  14.372
95221W        W67646   1.659  35.183   3.741
95222W        W67647   7.318  29.138   0.738
95223W        W67648  44.895  29.036   4.520
95224W        W67649   7.415  20.267  12.521
95225W        W67650  21.170  35.035   4.509
95226W        W67651   7.805  13.887  10.647
95227W        W67652  32.324  11.813   0.977
95228W        W67653  19.169  13.278   2.514
95229W        W67654  44.288  14.276  13.407
95230W        W67655  42.573  16.997   4.831
95231W        W67656  14.890   0.788   4.397
95232W        W67657  37.854  35.013   3.943
95233W        W67658  33.918  27.545  14.241
95234W        W67659  44.600  42.368   4.218
95235W        W67660  17.208  11.436  12.305
95236W        W67661  36.579  21.988   2.746
95237W        W67662  32.065  23.140  13.069
95238W        W67663   8.188  18.638  11.255
95239W        W67664  30.720   0.499   0.179
95240W        W67665  27.705  15.696   0.389
95241W        W67666   0.432  18.703   4.197
95242W        W67667  36.882   1.837   0.311
95243W        W67668  38.423   4.705   4.311
95244W        W67669  42.352  12.340  14.625
95245W        W67670   1.697  19.090  11.621
95246W        W67671   1.296   6.227   0.046
95247W        W67672  15.784   2.090  13.120
95248W        W67673  11.261  27.128   4.553
95249W        W67674  26.798   6.426  13.515
95250W        W67675  17.564   2.404   1.468
95251W        W67676  23.477  25.748  12.062
95252W        W67677  39.498  41.390   2.107
95253W        W67678  25.232  26.967   0.921
95254W        W67679  13.055  25.572   0.439
95255W        W67680  29.661  29.420  12.902
95256W        W67681  42.041  30.032  12.842
95257W        W67682  20.016  40.242  11.968
95258W        W67683  23.006  42.589  11.981
95259W        W67684  11.695  33.760  13.752
95260W        W67685  43.448  37.202   3.315
95261W        W67686  16.946  36.917  12.506
95262W        W67687  11.256  39.523   4.419
95263W        W67688  39.802  44.690   4.161
95264W        W67689   6.420  13.159   2.327
95265W        W67690  10.950  33.613   2.671
95266W        W67691   1.614  31.487   1.616
95267W        W67692  18.992  14.041   1.347
95268W        W67693  26.240  13.795  12.907
95269W        W67694  22.978  32.589   3.173
95270W        W67695  44.797  38.314   4.218
95271W        W67696  17.050   2.870   2.891
95272W        W67697   1.123  11.307  14.197
95273W        W67698  27.255  32.237   5.076
95274W        W67699  43.120  28.849  14.885
95275W        W67700  18.790  36.412  11.090
95276W        W67701  43.471  21.659   9.787
95277W        W67702  39.021  19.985  12.973
95278W        W67703  27.282  42.618  13.821
95279W        W67704  43.329  18.461   4.907
95280W        W67705   0.304  40.396  12.979
95281W        W67706  19.488  30.507  13.392
95282W        W67707  21.220  14.749   0.260
95283W        W67708  42.282   7.892  13.113
95284W        W67709  13.678  38.736   1.596
95285W        W67710  20.898  36.375   2.841
95286W        W67711  13.521   6.223   2.422
95287W        W67712   1.257  16.133   2.172
95288W        W67713   5.303  32.664   4.240
95289W        W67714   1.327  25.702   3.845
95290W        W67715  44.752  20.789  14.219
95291W        W67716  14.256  42.477   1.549
95292W        W67717  22.257  20.019  12.551
95293W        W67718  19.808  23.487   1.889
95294W        W67719  32.514  30.717  11.920
95295W        W67720  10.390  22.707   5.130
95296W        W67721  29.034  23.342  10.653
95297W        W67722   2.756  22.913   3.752
95298W        W67723  26.313  16.059   4.558
95299W        W67724   3.259  29.398  14.962
95300W        W67725  30.078  28.403   3.645
95301W        W67726  36.597  29.777   2.267
95302W        W67727  33.144   1.209   2.319
95303W        W67728  16.954  25.841  11.611
95304W        W67729   3.332  20.641   2.155
95305W        W67730  10.617  37.347   0.352
95306W        W67731  44.306   6.500   4.614
95307W        W67732  22.537  21.074  10.151
95308W        W67733   9.762  13.537   0.186
95309W        W67734  17.109  38.318   0.099
95310W        W67735  16.900  37.527  14.308
95311W        W67736  44.148  23.453   4.223
95312W        W67737  32.812  37.377   1.904
95313W        W67738  10.655  17.874  13.049
95314W        W67739  29.618  15.533   5.408
95315W        W67740  12.967  35.947   1.393
95316W        W67741   1.264  16.827  14.981
95317W        W67742   7.624  41.597   1.399
95318W        W67743  20.972  41.534  11.676
95319W        W67744  19.058  20.609  11.536
95320W        W67745   6.202  16.340   3.613
95321W        W67746  38.321  10.217   4.825
95322W        W67747  19.964  40.359  12.820
95323W        W67748  25.444  10.977   0.422
95324W        W67749   8.533  21.613   1.426
95325W        W67750  44.030  17.519   2.161
95326W        W67751  20.309  33.501  11.839
95327W        W67752  43.060  15.523   1.383
95328W        W67753  19.335  38.740  11.138
95329W        W67754  39.615   1.997  12.955
95330W        W67755  19.791  11.307   4.111
95331W        W67756   8.072   5.185   3.580
95332W        W67757  36.855  35.469   4.710
95333W        W67758  27.193  34.122  11.517
95334W        W67759  35.498  22.255  11.637
95335W        W67760   5.392  25.144  11.621
95336W        W67761  16.623  19.496   0.827
95337W        W67762  31.915  43.617  14.888
95338W        W67763  10.341   0.090  12.627
95339W        W67764  13.963  18.231   3.269
95340W        W67765  22.116   9.035  13.543
95341W        W67766  19.092  18.468   4.586
95342W        W67767   8.339   8.411   3.150
95343W        W67768  13.878  39.600  14.399
95344W        W67769  25.709  30.145   3.644
95345W        W67770  15.518  12.193  11.624
95346W        W67771  16.551  28.022  14.459
95347W        W67772  43.066  34.336  10.522
95348W        W67773   5.566  43.941  14.881
95349W        W67774   9.719  29.068   4.238
95350W        W67775  21.120   9.140   0.346
95351W        W67776  36.028  40.002  14.027
95352W        W67777  38.952  42.758   4.246
95353W        W67778  27.379  35.075  13.394
95354W        W67779  20.794  43.376  14.986
95355W        W67780   5.836  41.012  12.591
95356W        W67781   8.504  44.079  14.483
95357W        W67782  16.750  28.686  13.519
95358W        W67783  30.408  16.091   2.845
95359W        W67784  40.455  10.926   2.389
95360W        W67785  13.628  25.083  10.407
95361W        W67786  44.601  17.929  14.394
95362W        W67787  11.432  27.902  13.957
95363W        W67788  34.665  40.826   1.276
95364W        W67789  29.126   5.441  12.892
95365W        W67790  29.085  11.527  13.392
95366W        W67791  43.851   6.218  11.901
95367W        W67792  42.494  25.465  14.668
95368W        W67793  20.105  30.006   1.144
95369W        W67794  18.055  14.192  12.546
95370W        W67795  40.471  41.387   2.318
95371W        W67796  34.552  20.081   3.779
95372W        W67797  42.984  11.826   3.179
95373W        W67798   0.111  40.359   1.859
95374W        W67799  43.691   0.784   0.877
95375W        W67800  16.880  23.773  12.548
95376W        W67801   3.340  39.769   3.720
95377W        W67802  11.243  16.660  11.758
95378W        W67803   7.646  12.844  14.156
95379W        W67804  36.489  29.024   1.321
95380W        W67805  41.987  22.525  14.015
95381W        W67806   9.331  43.227   3.582
95382W        W67807   8.838  17.289  14.473
95383W        W67808  19.468   7.258  13.422
95384W        W67809  36.868  30.952   0.572
95385W        W67810  38.180  13.534  13.436
95386W        W67811   3.134  14.373   2.777
95387W        W67812   8.483   7.718  12.631
95388W        W67813  40.735  34.920   3.266
95389W        W67814  12.720  44.075   4.793
95390W        W67815  22.832  27.999  10.368
95391W        W67816  42.878  13.120   0.962
95392W        W67817  40.854  29.163  14.384
95393W        W67818  20.239  23.062   3.892
95394W        W67819  26.437  10.973   4.780
95395W        W67820  39.511  13.816  12.258
95396W        W67821   8.837  17.180   1.245
95397W        W67822  11.072   0.143   1.473
95398W        W67823  10.104  20.800  12.036
95399W        W67824   9.390  15.300  12.347
95400W        W67825  30.593   4.843  13.282
95401W        W67826   4.823  21.785  12.526
95402W        W67827  22.709  26.713  14.752
95403W        W67828  43.000  17.808  14.972
95404W        W67829  38.468  23.581   3.537
95405W        W67830  35.092  32.533   1.410
95406W        W67831  22.094   1.332  13.427
95407W        W67832  11.853  37.558   4.094
95408W        W67833  33.140  33.426  14.990
95409W        W67834  20.689  38.112  11.795
95410W        W67835  31.829  25.988   4.661
95411W        W67836   3.582  10.908  13.385
95412W        W67837  14.591  20.721  11.274
95413W        W67838  16.873  15.291   4.578
95414W        W67839  11.693  26.524  11.480
95415W        W67840  18.881  39.582  10.382
95416W        W67841  38.212  44.984   0.869
95417W        W67842   4.303   2.401   3.159
95418W        W67843  29.754  10.134  14.320
95419W        W67844  39.032  11.427  14.404
95420W        W67845  44.153  26.545  12.176
95421W        W67846  26.807  21.834  12.941
95422W        W67847  18.163  18.606   3.279
95423W        W67848   4.594  38.665  12.789
95424W        W67849  26.485  29.877  10.310
95425W        W67850  42.183   5.825   2.851
95426W        W67851  31.175  13.754  12.043
95427W        W67852  17.570   2.575  10.780
95428W        W67853  11.321  30.938  14.748
95429W        W67854  11.260  28.275   0.327
95430W        W67855  13.067  38.377   3.393
95431W        W67856  35.435  32.477  11.494
95432W        W67857  29.023   7.440  13.221
95433W        W67858  16.219  38.992  10.320
95434W        W67859  41.029  15.388  12.429
95435W        W67860   3.792   6.802   2.330
95436W        W67861   4.164   8.469  11.747
95437W        W67862  29.995  25.976  13.057
95438W        W67863  28.067   1.634   4.581
95439W        W67864   0.653  15.647   0.519
95440W        W67865  34.071   0.161  14.117
95441W        W67866   8.861   1.536  11.006
95442W        W67867  28.216   5.855  11.012
95443W        W67868  36.345  38.990  14.531
95444W        W67869  15.620   9.896   0.315
95445W        W67870  31.424  31.983  14.985
95446W        W67871  26.961  21.598  10.590
95447W        W67872  43.015  10.919  12.020
95448W        W67873  36.589  14.916   2.191
95449W        W67874  36.416   5.870  14.739
95450W        W67875  15.878  37.987   1.867
95451W        W67876  43.385  37.932  11.012
95452W        W67877  19.736  42.293  13.040
95453W        W67878  44.033  40.834  14.103
95454W        W67879  13.592   6.688   4.605
95455W        W67880   4.432  10.214   2.941
95456W        W67881  34.671  40.373   0.004
95457W        W67882  16.117   6.181   3.372
95458W        W67883  43.464  37.912  12.790
95459W        W67884   5.469  34.494  13.063
95460W        W67885  17.557  22.094  11.143
95461W        W67886   2.974  38.505  13.490
95462W        W67887  38.004  31.627   1.382
95463W        W67888  31.030  24.803   4.532
95464W        W67889  25.944   1.811  11.087
95465W        W67890  30.133  31.361   4.568
95466W        W67891  19.713   0.546  13.439
95467W        W67892   4.417  31.570  12.297
95468W        W67893  23.169   5.313   0.202
95469W        W67894  26.996  43.030   0.784
95470W        W67895  43.827  42.500   4.638
95471W        W67896  36.516  44.298   2.765
95472W        W67897   2.220  32.039   1.318
95473W        W67898  24.034   9.783  10.727
95474W        W67899  42.056  34.513  10.649
95475W        W67900   2.579  11.447   1.416
95476W        W67901  36.110  37.520   0.812
95477W        W67902   6.082  14.626   2.476
95478W        W67903  23.809  36.149   4.074
95479W        W67904  26.466  32.393   2.885
95480W        W67905  40.855  37.309  12.651
95481W        W67906  23.020  43.374  14.050
95482W        W67907  26.129  31.896   2.289
95483W        W67908  16.320   7.247   2.111
95484W        W67909   2.736  18.257  14.978
95485W        W67910  14.718   0.162   0.973
95486W        W67911   1.729  39.017  14.007
95487W        W67912  10.819  27.683  11.545
95488W        W67913  37.077  30.819   1.015
95489W        W67914  35.335   5.636   3.631
95490W        W67915  33.960  42.628  14.758
95491W        W67916  39.024  37.027  11.893
95492W        W67917  32.092  44.978  10.736
95493W        W67918  33.515  41.169  14.894
95494W        W67919  10.264  36.164  10.631
95495W        W67920  43.756  30.546  13.891
95496W        W67921   2.699  26.513  12.436
95497W        W67922  34.983  20.492  11.212
95498W        W67923  18.555  44.003   1.948
95499W        W67924  37.935  26.925   1.269
95500W        W67925   7.396  10.162  11.981
95501W        W67926  17.113  41.780   1.223
95502W        W67927  17.259  21.593   0.588
95503W        W67928  24.502  38.826   4.892
95504W        W67929  18.435   6.668   0.330
95505W        W67930  11.169  14.209   2.473
95506W        W67931  40.843  34.294  12.533
95507W        W67932   4.523  23.799  11.482
95508W        W67933   9.032  18.832   1.776
95509W        W67934  24.749  36.779  12.075
95510W        W67935  20.279  11.828   0.336
95511W        W67936  44.187  16.578   4.522
95512W        W67937  14.317  40.720  13.014
95513W        W67938  25.667  34.280   1.742
95514W        W67939  18.851   6.967   4.095
95515W        W67940  20.170   6.426  12.546
95516W        W67941   5.325   9.098  13.593
95517W        W67942  41.911  23.478  10.884
95518W        W67943  13.051   5.661  13.010
95519W        W67944  23.503  10.157  12.209
95520W        W67945  24.025  43.705   2.215
95521W        W67946   3.558  36.408   5.423
95522W        W67947  37.581   7.752   0.758
95523W        W67948  21.547  25.487   2.915
95524W        W67949  43.441  11.582   3.452
95525W        W67950   8.862  29.374  11.099
95526W        W67951  34.602  39.686   2.690
95527W        W67952  17.795  17.247   2.678
95528W        W67953  21.505  43.278   3.163
95529W        W67954  16.792   8.441   0.403
95530W        W67955  24.935  30.912  12.788
95531W        W67956  24.502  25.123  12.921
95532W        W67957  44.432   2.659  11.130
95533W        W67958   4.938  36.986   2.901
95534W        W67959  29.686  44.501   0.883
95535W        W67960  15.597  10.690   3.799
95536W        W67961  40.742  22.510  13.471
95537W        W67962  20.640   8.687   0.930
95538W        W67963  44.367  43.002  11.649
95539W        W67964  23.758  11.383  10.611
95540W        W67965  39.879  13.230  13.439
95541W        W67966  38.559   9.500   9.654
95542W        W67967  34.659  20.634   1.772
95543W        W67968  11.228  16.369  11.053
95544W        W67969  18.237  16.022  14.407
95545W        W67970  29.677  25.825   4.118
95546W        W67971  24.749   2.246   0.360
95547W        W67972  41.152  11.176  13.406
95548W        W67973  28.061  24.214  11.452
95549W        W67974  42.398  38.453   0.128
95550W        W67975   3.464  39.029   0.334
95551W        W67976   0.383  43.449   0.286
95552W        W67977  20.833  30.683  13.014
95553W        W67978  19.626   1.975  13.128
95554W        W67979  41.994  22.334   1.749
95555W        W67980  39.865  18.061   1.470
95556W        W67981  33.553   3.184  12.270
95557W        W67982  33.141  18.564  11.982
95558W        W67983   5.420  42.596  13.736
95559W        W67984  24.738  36.353  11.156
95560W        W67985  20.511  29.107  14.170
95561W        W67986  21.942   4.912   0.956
95562W        W67987  29.934   7.760  13.379
95563W        W67988  21.149  39.879   2.785
95564W        W67989  17.753  31.193  13.047
95565W        W67990  28.878  43.535   0.851
95566W        W67991  44.581  30.657  10.161
95567W        W67992  23.988   0.327  11.620
95568W        W67993  27.532   5.690   3.624
95569W        W67994  33.049  38.597  10.448
95570W        W67995  41.879  30.190   3.750
95571W        W67996   3.872   0.916  11.218
95572W        W67997  37.304  34.941  12.823
95573W        W67998  40.337  28.433   4.420
95574W        W67999  17.595  32.283  10.617
95575W        W68000  36.706  12.852   3.614
95576W        W68001  12.645  38.377   1.411
95577W        W68002   8.041  29.102  12.868
95578W        W68003  22.503   1.732  13.389
95579W        W68004  26.131   2.268   1.688
95580W        W68005  21.761  12.909   0.424
95581W        W68006  30.905   8.850   4.049
95582W        W68007  22.354  11.209   3.557
95583W        W68008   1.927  27.670  10.890
95584W        W68009  44.842  32.941   4.487
95585W        W68010  26.173  27.956   3.553
95586W        W68011  16.615  30.465  11.396
95587W        W68012   8.967  14.587  11.627
95588W        W68013   0.568  31.495   3.637
95589W        W68014   8.187  33.141   1.017
95590W        W68015  39.627  28.531  12.369
95591W        W68016  10.277   4.299   2.666
95592W        W68017  38.559  10.709   1.902
95593W        W68018  27.111   0.723  14.049
95594W        W68019  23.469  36.392  14.495
95595W        W68020   5.637  12.138   0.370
95596W        W68021  35.258   5.743   4.465
95597W        W68022  29.261  19.594  11.398
95598W        W68023   9.826  23.498   2.293
95599W        W68024  24.421   0.881  12.658
95600W        W68025   9.925  14.053  10.711
95601W        W68026  19.345  29.509  11.031
95602W        W68027  25.182  14.145  11.992
95603W        W68028  22.012  32.533   2.218
95604W        W68029  34.109  22.907  13.018
95605W        W68030  38.496  13.884  12.551
95606W        W68031   1.391  36.905  13.005
95607W        W68032  37.128  13.625   1.852
95608W        W68033  19.461   2.800  13.307
95609W        W68034  19.283  33.297   3.589
95610W        W68035   7.367  37.968   4.667
95611W        W68036  39.539  21.281  11.213
95612W        W68037  24.011  13.574  12.586
95613W        W68038  20.817  31.950  13.515
95614W        W68039   3.281  26.038  13.078
95615W        W68040  23.683   1.200   2.377
95616W        W68041  26.684  22.361  14.878
95617W        W68042  40.863  36.899  14.017
95618W        W68043  34.492  16.285  13.908
95619W        W68044  36.831  32.370  14.438
95620W        W68045  39.467   6.310   2.265
95621W        W68046  14.185  44.030  11.227
95622W        W68047  27.123  11.748  12.109
95623W        W68048  26.791  29.544   3.268
95624W        W68049  37.303  43.850   4.655
95625W        W68050  42.375  35.096   1.945
95626W        W68051  40.279  32.993   0.441
95627W        W68052   6.928  41.937  14.586
95628W        W68053  17.004  27.068   2.080
95629W        W68054  19.655  28.188  12.175
95630W        W68055  30.644  43.928  12.067
95631W        W68056  42.600  31.537  11.623
95632W        W68057  11.804   4.128  14.456
95633W        W68058  43.361  21.471   3.680
95634W        W68059  15.031   7.738   1.009
95635W        W68060  22.684   5.798  11.635
95636W        W68061   5.470  22.811  14.292
95637W        W68062  32.168  11.324  13.945
95638W        W68063   4.213   5.861   1.938
95639W        W68064  13.294  27.844   4.129
95640W        W68065  34.373  29.223   1.451
95641W        W68066   0.329  12.863  13.055
95642W        W68067  20.834  10.939   4.953
95643W        W68068  32.560   1.289  13.280
95644W        W68069   9.586  26.009   1.646
95645W        W68070  10.799  27.133  10.570
95646W        W68071  42.920  24.809   4.656
95647W        W68072  44.348  17.320   0.841
95648W        W68073  39.872  12.306   0.447
95649W        W68074  18.656  23.175  11.182
95650W        W68075  32.041  28.369  10.527
95651W        W68076  32.575  44.779  13.062
95652W        W68077  27.972  30.635   2.336
95653W        W68078  10.527  23.225  14.871
95654W        W68079  44.193   4.818   2.176
95655W        W68080  43.942   4.306   4.616
95656W        W68081  44.101  23.132  12.250
95657W        W68082  32.507  26.488  10.642
95658W        W68083  34.033  42.071  14.216
95659W        W68084  30.517  39.853   1.001
95660W        W68085   5.224   5.828  11.208
95661W        W68086   3.440  21.621  13.573
95662W        W68087  37.591  12.889  12.043
95663W        W68088  43.538   9.340  12.902
95664W        W68089  23.979  40.946  11.993
95665W        W68090  21.774  12.765  11.240
95666W        W68091  10.610  36.377  11.022
95667W        W68092  12.673   1.006   2.908
95668W        W68093  18.585  37.937   2.445
95669W        W68094  27.019  27.736  10.609
95670W        W68095  23.482  41.429  14.416
95671W        W68096   5.880   2.473   2.341
95672W        W68097  36.381  22.765   4.120
95673W        W68098  41.398  13.673   0.271
95674W        W68099   7.501  42.413  10.717
95675W        W68100   9.627   3.661   2.882
95676W        W68101  36.816  16.321   3.596
95677W        W68102  10.273  10.273   1.576
95678W        W68103   0.834  32.524   3.733
95679W        W68104  24.128  26.212   2.779
95680W        W68105  33.351  10.336  11.379
95681W        W68106  18.825  41.039   4.118
95682W        W68107  28.991   6.770  10.626
95683W        W68108  18.999  11.842   0.924
95684W        W68109  20.488   3.834   2.135
95685W        W68110  19.311  10.421  12.977
95686W        W68111   7.991  43.232  14.253
95687W        W68112  14.858  10.746  14.504
95688W        W68113  21.615   2.946   1.268
95689W        W68114  15.328  21.205   4.550
95690W        W68115  10.201   8.316  12.952
95691W        W68116   7.961  42.750  10.718
95692W        W68117  27.919  39.457   1.921
95693W        W68118  25.312   4.169  13.810
95694W        W68119   0.830   8.245   1.187
95695W        W68120  41.269  23.137   3.147
95696W        W68121  32.661  31.365  10.752
95697W        W68122  12.402  22.442   3.141
95698W        W68123  41.806  31.645   4.243
95699W        W68124  15.259  29.114   0.042
95700W        W68125  23.238   3.181   0.951
95701W        W68126  32.398   4.480  11.465
95702W        W68127   9.320  32.672   0.944
95703W        W68128  30.577  32.358   2.276
95704W        W68129  42.360  19.821  13.414
95705W        W68130  40.616  25.033  12.101
95706W        W68131  25.982   5.800   2.684
95707W        W68132  34.082   6.877  12.560
95708W        W68133  26.562  18.651   2.659
95709W        W68134  12.804  20.321   1.781
95710W        W68135   3.820  33.811   2.181
95711W        W68136  39.289   4.321   2.820
95712W        W68137  42.400  30.340   2.960
95713W        W68138   8.688  44.239  12.865
95714W        W68139  33.015  24.214   1.351
95715W        W68140  24.654  33.545  12.528
95716W        W68141  11.749  20.238   0.162
95717W        W68142   1.649  32.872   3.290
95718W        W68143  23.256  36.182   2.748
95719W        W68144  36.129   9.178   4.146
95720W        W68145  26.097  24.061   4.060
95721W        W68146  32.106  42.306   0.430
95722W        W68147   2.208  17.619   0.008
95723W        W68148  21.352  43.246  12.498
95724W        W68149  39.938  22.295  14.678
95725W        W68150  43.850  38.685   3.321
95726W        W68151   6.387   2.426  13.310
95727W        W68152  16.514   3.347   4.575
95728W        W68153  13.157  16.440  14.063
95729W        W68154  20.339  30.967  11.449
95730W        W68155  18.164   8.256   1.210
95731W        W68156   2.661  12.157   3.228
95732W        W68157  31.359  22.969  13.513
95733W        W68158   9.747  10.581  14.470
95734W        W68159  33.698  15.860  14.919
95735W        W68160  36.039  26.953  10.742
95736W        W68161  33.168   3.809  10.667
95737W        W68162  23.967  38.982   1.441
95738W        W68163  36.072  21.976   2.862
95739W        W68164  39.908  13.254  14.094
95740W        W68165   8.090  11.304   4.855
95741W        W68166  19.152  11.655   1.396
95742W        W68167  41.560  28.105   3.196
95743W        W68168  39.052   6.181  13.874
95744W        W68169  35.457  32.092  13.189
95745W        W68170  12.630   1.349  12.452
95746W        W68171  24.521  25.314   0.409
95747W        W68172  20.697  28.880   3.643
95748W        W68173   1.583   6.327  11.547
95749W        W68174  34.024  36.264  11.292
95750W        W68175  26.473  12.830  12.460
95751W        W68176  15.666   7.175  10.977
95752W        W68177  21.528  21.119   1.867
95753W        W68178   1.791   1.472   1.301
95754W        W68179  37.859  43.384  12.025
95755W        W68180  35.549  18.515   1.192
95756W        W68181  32.014  30.970   2.266
95757W        W68182  12.003  31.837  13.982
95758W        W68183  21.295  33.618  12.056
95759W        W68184  19.257   0.921   1.246
95760W        W68185  16.397   3.281   2.907
95761W        W68186  16.280  36.402   3.680
95762W        W68187  25.911   9.893  14.537
95763W        W68188  20.107  38.478   3.360
95764W        W68189  23.648  30.587  11.453
95765W        W68190  43.822  30.449  14.766
95766W        W68191  24.229  11.958   3.138
95767W        W68192  35.064  42.018   3.184
95768W        W68193  27.075  37.988   1.857
95769W        W68194  24.945  38.972   1.030
95770W        W68195  22.933  36.361   0.156
95771W        W68196   0.887   4.260  14.848
95772W        W68197  17.565  22.131   0.305
95773W        W68198  11.812  29.123  14.881
95774W        W68199  40.623  40.160   3.755
95775W        W68200  14.675   9.862   1.352
95776W        W68201  32.539  40.862  10.638
95777W        W68202  43.500  10.957  12.823
95778W        W68203  18.221  30.469  13.847
95779W        W68204   0.350   2.437  14.756
95780W        W68205  20.542   0.811   0.791
95781W        W68206  31.422   6.735  14.478
95782W        W68207  10.643  26.536  11.586
95783W        W68208   4.894   2.106  13.426
95784W        W68209  34.409   0.996   1.278
95785W        W68210  10.875   5.697  10.751
95786W        W68211  40.224  29.025  11.678
95787W        W68212  24.128  42.455   2.848
95788W        W68213   3.755  17.267   4.611
95789W        W68214  41.330  42.461  11.792
95790W        W68215   8.889  21.770   3.252
95791W        W68216  22.112  42.808  14.340
95792W        W68217  33.090   5.734  11.369
95793W        W68218  26.806  15.606   0.745
95794W        W68219   8.441   9.230  14.309
95795W        W68220  25.021  34.574  13.330
95796W        W68221  17.525   5.436  14.284
95797W        W68222  16.354  36.336  11.220
95798W        W68223  17.181   4.493   0.049
95799W        W68224  28.102  22.511  12.956
95800W        W68225   1.866   9.245  11.650
95801W        W68226  38.127  25.309   5.094
95802W        W68227   9.895  44.505  14.860
95803W        W68228  26.772  20.553   2.510
95804W        W68229   4.188  21.172   3.668
95805W        W68230  34.436  31.456   2.169
95806W        W68231  15.167  30.770   1.274
95807W        W68232  21.622  43.871   4.446
95808W        W68233  42.847   0.816   4.572
95809W        W68234  34.159  14.635  12.546
95810W        W68235   2.240  15.535   3.723
95811W        W68236   8.241  17.690  14.938
95812W        W68237  23.667  19.386   3.743
95813W        W68238  44.983  22.625   4.389
95814W        W68239  12.546   6.233  13.871
95815W        W68240  40.088  44.999  13.281
95816W        W68241  43.176   9.963   1.353
95817W        W68242  29.189   2.929  14.567
95818W        W68243  35.461  24.517   3.354
95819W        W68244   0.040  21.251   2.202
95820W        W68245  41.331  19.837   3.190
95821W        W68246  22.239   9.746  11.912
95822W        W68247   2.858  43.847   4.790
95823W        W68248   7.419  16.360  12.627
95824W        W68249  29.602  22.276  13.346
95825W        W68250  14.294  21.353   3.717
95826W        W68251   0.265  19.059   2.414
95827W        W68252   6.874  42.657   3.833
95828W        W68253  20.455  28.063  12.026
95829W        W68254  32.417  26.951   2.588
95830W        W68255  25.875  41.882   0.940
95831W        W68256  21.123  25.770   2.827
95832W        W68257   1.434   3.383  12.301
95833W        W68258   5.185   7.853  12.015
95834W        W68259   1.515  28.033  13.325
95835W        W68260  42.792  36.819   3.119
95836W        W68261  16.982   5.442   1.671
95837W        W68262  40.541  34.450  14.945
95838W        W68263  44.227  43.175   1.469
95839W        W68264   0.445  36.517   1.193
95840W        W68265  15.650  16.541   3.259
95841W        W68266  21.664  42.540   2.810
95842W        W68267  37.139  36.403   1.920
95843W        W68268   3.459  41.542   4.095
95844W        W68269  12.243  24.947  13.909
95845W        W68270  21.713   0.486   0.197
95846W        W68271  22.660  40.792   1.189
95847W        W68272  12.099  23.609  13.909
95848W        W68273   9.843  38.703   3.180
95849W        W68274   6.073  38.534  14.889
95850W        W68275   3.901  24.564  13.507
95851W        W68276  42.946  24.030  11.360
95852W        W68277   9.185  22.285   4.137
95853W        W68278  11.421  16.726   0.900
95854W        W68279  44.111  37.001   4.093
95855W        W68280  11.760  25.279   2.415
95856W        W68281  31.366  36.632   2.720
95857W        W68282   6.603  17.875  12.979
95858W        W68283  30.228  20.586  14.842
95859W        W68284  32.176  19.271   9.776
95860W        W68285  10.385  28.587  12.912
95861W        W68286  19.014  18.446   3.246
95862W        W68287  43.708  29.854   1.893
95863W        W68288  30.661  16.698   1.019
95864W        W68289  38.425   4.676  12.941
95865W        W68290  14.379  37.321   2.848
95866W        W68291   8.912   8.742  13.018
95867W        W68292  25.451  28.865   4.200
95868W        W68293  40.026  42.214  13.036
95869W        W68294  36.645   6.452  13.916
95870W        W68295   5.350  37.820   4.035
95871W        W68296   3.713  22.211   3.858
95872W        W68297  31.686  21.581   4.077
95873W        W68298  25.534   2.003   3.867
95874W        W68299  25.887  12.121  13.902
95875W        W68300  11.327  39.026   4.239
95876W        W68301  44.858  34.127  13.376
95877W        W68302  21.159  10.748   1.787
95878W        W68303  36.979  39.754   1.322
95879W        W68304  27.475   1.548   3.157
95880W        W68305   3.475  35.944  10.779
95881W        W68306  27.949  19.363  11.875
95882W        W68307  23.728  13.857  10.766
95883W        W68308  37.495  15.631   4.554
95884W        W68309   2.350  23.461   0.685
95885W        W68310  16.331  31.007  12.963
95886W        W68311  23.667  21.020   0.157
95887W        W68312  32.978  38.305  13.454
95888W        W68313  19.111  26.320  11.299
95889W        W68314  12.663  36.991   1.403
95890W        W68315   2.562  29.515  12.847
95891W        W68316  43.848  34.321  13.964
95892W        W68317  19.817   9.148  13.026
95893W        W68318  19.577  24.208   0.819
95894W        W68319   9.746  18.195   2.342
95895W        W68320   2.015  33.901   1.946
95896W        W68321  39.909  37.866  13.423
95897W        W68322   7.294   3.787  11.671
95898W        W68323   0.043  28.435   3.230
95899W        W68324  33.318  13.121   2.710
95900W        W68325  42.207   1.499   4.348
95901W        W68326  34.332  24.526  10.681
95902W        W68327  12.806   1.376  13.929
95903W        W68328  39.959  24.700  13.644
95904W        W68329  19.018  14.243  10.262
95905W        W68330   5.424  39.842   2.342
95906W        W68331  32.060  31.701   4.809
95907W        W68332  23.670   8.728  13.978
95908W        W68333   3.218  33.329   1.517
95909W        W68334  25.558  42.245  11.551
95910W        W68335   0.199   2.280   2.881
95911W        W68336  15.300  11.826   4.373
95912W        W68337  17.064  29.580  11.575
95913W        W68338  27.726  36.905  14.326
95914W        W68339  17.739  30.967   2.777
95915W        W68340  20.297  42.964   2.883
95916W        W68341  27.625  21.772   4.621
95917W        W68342  11.904   4.988  11.207
95918W        W68343  31.481  28.106  10.463
95919W        W68344  15.268   4.413   0.687
95920W        W68345  31.030  21.659  11.909
95921W        W68346  12.290  37.070  11.698
95922W        W68347  40.078  38.984  10.688
95923W        W68348  13.370  35.165  12.080
95924W        W68349   7.574   8.417  14.788
95925W        W68350  28.120   3.418   2.286
95926W        W68351  29.456  20.698   1.735
95927W        W68352  37.077  10.623   4.015
95928W        W68353  23.525  30.194  14.785
95929W        W68354   4.354  18.852   4.162
95930W        W68355   4.426  26.538  11.899
95931W        W68356  36.807  37.608  10.187
95932W        W68357  34.109  13.063   4.548
95933W        W68358   3.901  25.203   3.284
95934W        W68359   2.803   1.277   0.325
95935W        W68360   9.206  18.236   4.779
95936W        W68361  17.570   5.916  13.368
95937W        W68362  41.295  13.637   0.788
95938W        W68363  21.020   9.887   3.197
95939W        W68364  22.449  24.448  14.830
95940W        W68365  21.798  31.462  11.551
95941W        W68366  32.479  23.170   4.354
95942W        W68367  42.536   0.970  11.143
95943W        W68368  31.117  25.742  13.852
95944W        W68369  44.913  32.699   3.719
95945W        W68370   5.604   2.723   2.773
95946W        W68371  37.194  29.729   1.901
95947W        W68372  13.406  11.732  10.731
95948W        W68373   1.426  20.987   0.809
95949W        W68374  35.360   9.703  13.089
95950W        W68375  17.696  18.094   0.751
95951W        W68376  25.806  30.101  11.276
95952W        W68377  25.925  11.243  13.473
95953W        W68378  32.093   6.276  11.596
95954W        W68379  32.360  22.150  13.883
95955W        W68380  12.171  15.022   3.743
95956W        W68381  26.345  38.938   0.929
95957W        W68382  40.237  10.325  11.457
95958W        W68383  22.757   4.733  10.604
95959W        W68384  31.190  16.050  13.076
95960W        W68385  39.317  35.507   0.260
95961W        W68386  26.491  44.353   0.949
95962W        W68387  18.095  27.277   4.811
95963W        W68388  33.947   3.315   4.646
95964W        W68389  33.396  13.687   4.358
95965W        W68390  24.129  41.079   2.804
95966W        W68391  12.378  15.747   4.301
95967W        W68392  34.533  13.149  13.122
95968W        W68393  33.335  12.055  10.842
95969W        W68394  44.363  41.365  10.262
95970W        W68395  12.555  27.664   4.768
95971W        W68396  28.419  34.787   4.690
95972W        W68397  35.133   4.912   4.504
95973W        W68398   9.227  19.164  11.509
95974W        W68399  26.992   9.939  12.480
95975W        W68400   4.900   5.450  14.808
95976W        W68401  42.005  27.007  10.382
95977W        W68402  37.881  13.598   1.238
95978W        W68403   5.844  18.889   0.266
95979W        W68404  29.237  16.182   4.524
95980W        W68405  16.306  33.066   1.904
95981W        W68406  31.881  13.921  10.776
95982W        W68407   6.007  21.132   3.612
95983W        W68408  40.597  40.648   1.178
95984W        W68409   5.961  23.838   2.622
95985W        W68410  42.390   4.977  12.423
95986W        W68411  23.299  22.097  12.748
95987W        W68412  22.800  15.322  12.186
95988W        W68413  15.398  22.282  14.411
95989W        W68414  11.329  24.103   9.709
95990W        W68415  10.166  33.551  13.302
95991W        W68416   1.199  39.004  14.034
95992W        W68417   1.190  38.868   3.236
95993W        W68418   9.903  30.348  14.460
95994W        W68419   0.230  19.004   3.344
95995W        W68420  41.929  26.557  13.502
95996W        W68421  37.569  38.108  13.841
95997W        W68422  17.213  17.353  13.904
95998W        W68423  28.043  43.327   3.748
95999W        W68424  35.567  26.503   0.636
96000W        W68425   9.501  26.715  13.923
96001W        W68426  30.780  26.476  13.591
96002W        W68427  16.552   1.409   1.263
96003W        W68428  17.723  18.691   4.910
96004W        W68429  26.592  43.482  13.479
96005W        W68430  43.287   3.349   3.225
96006W        W68431  20.153   2.439  14.873
96007W        W68432  43.013  43.033   0.309
96008W        W68433  37.781  25.544   4.785
96009W        W68434  20.429  17.621   4.277
96010W        W68435  15.100  43.618  12.785
96011W        W68436  37.443  15.503  13.449
96012W        W68437  37.608  38.184  14.724
96013W        W68438  27.632  38.927   3.210
96014W        W68439  40.935   9.131   3.127
96015W        W68440  10.102   1.406  13.400
96016W        W68441  30.542  42.270  14.799
96017W        W68442  26.394  30.588  14.402
96018W        W68443  15.266  23.616   4.019
96019W        W68444  38.237  10.718   3.329
96020W        W68445  39.219  37.878   2.244
96021W        W68446  26.567  14.233   0.789
96022W        W68447  35.429   0.999  14.961
96023W        W68448  22.294  26.081   2.928
96024W        W68449  22.685  26.088  12.108
96025W        W68450  40.296   4.305  10.778
96026W        W68451   7.962   9.290  12.129
96027W        W68452  41.040   2.398   2.215
96028W        W68453  25.693  11.344   1.375
96029W        W68454  27.965  23.640   3.389
96030W        W68455   0.539   9.766   3.288
96031W        W68456  25.622   6.821  11.762
96032W        W68457  26.003  27.128   0.022
96033W        W68458  44.379  12.044   0.604
96034W        W68459  37.310  12.040  14.449
96035W        W68460  13.069   0.966   2.105
96036W        W68461   6.166   1.721  13.533
96037W        W68462   3.381  18.222   1.859
96038W        W68463  18.120  43.716   0.467
96039W        W68464  15.153  27.485   1.485
96040W        W68465  32.357  10.371  11.990
96041W        W68466  18.693  43.472   1.260
96042W        W68467   4.397  36.331  12.329
96043W        W68468   1.315   0.757  10.558
96044W        W68469   1.247  27.090   2.328
96045W        W68470  32.962  39.977  14.710
96046W        W68471  40.887  12.081  13.261
96047W        W68472   0.982  39.567  11.411
96048W        W68473  37.763  43.362   4.582
96049W        W68474  18.450   1.730  13.257
96050W        W68475  37.593  13.298   4.553
96051W        W68476  32.396  16.875   2.401
96052W        W68477   0.134  44.315   0.372
96053W        W68478  16.716   8.788   0.842
96054W        W68479  22.199  11.691   0.498
96055W        W68480  28.301  12.464   0.874
96056W        W68481  41.843   8.926  10.815
96057W        W68482   9.686  34.739   2.465
96058W        W68483  30.293  42.018  14.439
96059W        W68484  19.062  26.190  12.220
96060W        W68485  41.936   6.338   3.807
96061W        W68486  16.156  17.193   4.278
96062W        W68487  14.605  31.893   1.711
96063W        W68488  33.661  21.087   2.350
96064W        W68489  40.936  34.102  14.954
96065W        W68490  28.780  23.581   3.837
96066W        W68491   4.322  32.080   2.736
96067W        W68492   7.179  36.944  12.150
96068W        W68493  25.133  16.207   4.601
96069W        W68494  24.182  29.069  12.536
96070W        W68495   3.851  37.105  12.822
96071W        W68496  36.831  32.146  10.210
96072W        W68497   3.591  36.647  11.996
96073W        W68498  22.089  25.672   1.468
96074W        W68499   6.365  41.084  10.689
96075W        W68500  18.722  24.704   4.236
96076W        W68501  16.047   3.891  12.555
96077W        W68502  18.241  40.478   3.688
96078W        W68503   2.478  42.030  12.503
96079W        W68504  28.120  37.990   3.916
96080W        W68505  35.774  12.296   1.874
96081W        W68506  25.952  24.875   3.254
96082W        W68507  17.240  14.308   1.385
96083W        W68508  35.306  19.108  10.553
96084W        W68509   7.577   1.668   2.356
96085W        W68510  37.055  44.607   1.943
96086W        W68511   2.404   0.743  11.538
96087W        W68512   8.170   3.564  10.441
96088W        W68513  10.723  13.529   0.550
96089W        W68514  32.333  25.206   4.491
96090W        W68515  19.679  41.333  13.917
96091W        W68516  40.355   2.486   4.046
96092W        W68517  44.972  30.490  11.126
96093W        W68518  14.988  21.166  14.796
96094W        W68519  17.258  19.139  11.951
96095W        W68520   7.327  42.403   0.462
96096W        W68521  32.705  25.197   2.753
96097W        W68522   9.563  12.233  13.064
96098W        W68523  23.244   2.831   4.154
96099W        W68524  38.065   3.974   2.128
96100W        W68525   2.360  44.920   0.687
96101W        W68526  29.096   4.972  12.052
96102W        W68527  42.339  15.106   0.887
96103W        W68528  16.618   9.314   3.312
96104W        W68529  27.539  30.655   4.657
96105W        W68530  14.635  16.719   4.617
96106W        W68531  22.528  36.343  13.404
96107W        W68532   1.960  23.674   3.080
96108W        W68533  11.657  19.951   1.029
96109W        W68534  19.034  15.441   4.706
96110W        W68535  39.320  16.611  13.851
96111W        W68536  22.518  11.548  10.662
96112W        W68537  39.013  13.954   4.630
96113W        W68538  38.848  22.437   0.407
96114W        W68539  35.303  43.397  13.826
96115W        W68540   0.527  34.023   4.189
96116W        W68541  28.471  28.603  14.854
96117W        W68542   2.078  36.438   3.256
96118W        W68543  34.124  12.288  13.938
96119W        W68544  10.782  25.259  10.568
96120W        W68545  18.312   5.109   0.384
96121W        W68546   4.309   9.685   3.671
96122W        W68547  24.772  22.686   3.307
96123W        W68548  10.360  21.151  12.399
96124W        W68549   4.391  21.201   5.119
96125W        W68550  28.217   6.273  10.246
96126W        W68551  17.491  19.621  14.845
96127W        W68552  15.929   3.307   9.850
96128W        W68553   7.321   2.513  14.230
96129W        W68554   5.844  12.912   0.767
96130W        W68555  15.289   1.754   5.212
96131W        W68556  44.022  31.196   0.685
96132W        W68557  23.679  41.432  10.736
96133W        W68558  24.628  19.033   0.262
96134W        W68559  22.630  36.880  10.740
96135W        W68560  36.920  10.184  10.664
96136W        W68561  32.357  26.047  12.602
96137W        W68562  40.940  41.720   2.251
96138W        W68563  30.453  10.550   0.388
96139W        W68564  36.073  28.159   4.269
96140W        W68565  26.808  40.106   2.933
96141W        W68566   7.724  12.771   0.711
96142W        W68567  28.737  23.839   5.103
96143W        W68568  38.723  37.998   2.387
96144W        W68569   4.011  25.436  13.899
96145W        W68570  23.289  34.967   1.831
96146W        W68571  19.656  32.919   1.313
96147W        W68572  29.212  38.890  10.119
96148W        W68573   4.947  13.638   4.514
96149W        W68574  18.493  19.736   0.789
96150W        W68575  11.213   1.257   0.470
96151W        W68576  40.694  39.336  14.559
96152W        W68577   2.421   4.274   2.812
96153W        W68578  38.588  28.307  12.020
96154W        W68579   5.810  43.735   1.210
96155W        W68580  22.512  22.731  13.933
96156W        W68581   9.657  12.861  10.386
96157W        W68582  24.176   2.952   3.854
96158W        W68583  32.873  41.465  10.474
96159W        W68584  15.971   1.783  11.078
96160W        W68585   5.771   9.410  10.658
96161W        W68586  21.714  34.004   1.401
96162W        W68587  24.696   0.428   3.627
96163W        W68588  24.427  12.851  11.036
96164W        W68589   0.526  36.915   0.861
96165W        W68590  41.217  22.740  11.895
96166W        W68591  21.211   4.633   4.440
96167W        W68592  14.697  35.353   1.645
96168W        W68593  11.193  43.492  12.027
96169W        W68594  26.700  44.395   4.862
96170W        W68595  32.564  31.653  14.316
96171W        W68596   1.494  19.192  13.382
96172W        W68597  19.578  26.975  10.975
96173W        W68598  10.266  15.083  10.694
96174W        W68599  22.202  20.803   1.256
96175W        W68600   8.391   6.453   4.117
96176W        W68601  18.522  42.343   0.521
96177W        W68602  43.626   7.282   0.764
96178W        W68603   7.903   9.866   3.611
96179W        W68604  13.319  14.318   0.371
96180W        W68605  38.988  33.970   2.644
96181W        W68606  20.106  24.139  10.773
96182W        W68607  20.807  44.893  11.062
96183W        W68608  18.288  35.085   1.985
96184W        W68609  27.558  29.692  11.402
96185W        W68610  41.341  34.386  12.477
96186W        W68611  13.240  18.584   4.734
96187W        W68612  36.551   8.430  13.551
96188W        W68613  17.082  40.590   0.242
96189W        W68614   0.978  23.199  12.610
96190W        W68615  30.721  36.377  12.891
96191W        W68616  40.292  32.499   2.838
96192W        W68617  42.407  35.432  12.973
96193W        W68618  34.828  17.243  13.509
96194W        W68619  43.787  19.347  10.655
96195W        W68620  13.221  29.674   0.386
96196W        W68621  10.715  38.776  13.317
96197W        W68622  12.511  13.996  13.932
96198W        W68623  35.657  37.999   0.249
96199W        W68624  31.447  38.116   1.379
96200W        W68625  23.046  26.908  13.871
96201W        W68626  37.000  25.234  12.077
96202W        W68627  14.732   7.359   3.638
96203W        W68628  38.889   7.704  11.039
96204W        W68629  10.735   0.949  13.983
96205W        W68630  36.914  38.909  11.132
96206W        W68631  17.047   3.700   0.421
96207W        W68632   8.202  32.276  12.812
96208W        W68633  11.322  11.720   3.455
96209W        W68634   6.528  26.324  13.526
96210W        W68635  25.331  27.970  11.147
96211W        W68636  21.016  13.890   2.634
96212W        W68637   4.772  21.134  13.535
96213W        W68638  27.528  18.096  11.897
96214W        W68639  26.626  25.246   2.325
96215W        W68640  44.750   2.006  14.006
96216W        W68641  31.492  27.990  10.972
96217W        W68642   0.297   7.549   1.267
96218W        W68643  37.815  18.107   0.404
96219W        W68644  25.183   3.203   0.900
96220W        W68645  12.953   0.466   4.882
96221W        W68646  20.777  32.209  12.255
96222W        W68647  43.399  43.409   2.253
96223W        W68648  29.607   4.365   0.672
96224W        W68649  38.820  44.955   2.246
96225W        W68650  35.014   3.486  12.359
96226W        W68651   9.304   6.483  10.591
96227W        W68652  27.985   4.915  13.983
96228W        W68653  30.441  24.995   1.201
96229W        W68654   0.773  34.756  11.192
96230W        W68655   0.042   6.388  14.252
96231W        W68656   7.494   0.343  12.639
96232W        W68657  21.007   9.706  11.777
96233W        W68658  28.757  44.641  14.898
96234W        W68659   8.289  14.550   1.719
96235W        W68660  34.660  36.858  11.180
96236W        W68661  24.035  24.449  12.076
96237W        W68662  22.009  14.228  11.125
96238W        W68663  38.982   7.384   0.453
96239W        W68664   8.047   2.692   3.981
96240W        W68665  26.189  35.619   1.428
96241W        W68666  40.928  37.376  13.802
96242W        W68667  35.082   2.925  14.425
96243W        W68668  32.418  12.799  11.486
96244W        W68669  19.835  42.507  12.045
96245W        W68670   3.226  33.609   2.891
96246W        W68671  15.273  20.614  11.770
96247W        W68672  41.477  17.692   3.889
96248W        W68673   0.828  26.591   0.311
96249W        W68674  27.761   2.739   3.623
96250W        W68675  24.571  23.435  12.342
96251W        W68676  13.303  37.569   2.128
96252W        W68677  11.760  38.534   0.914
96253W        W68678   1.946  41.798  13.242
96254W        W68679   5.291  42.951   1.183
96255W        W68680  23.687  30.701  14.791
96256W        W68681  28.095   5.281  10.704
96257W        W68682  40.291  42.833   0.909
96258W        W68683   2.930  31.997   0.840
96259W        W68684  30.449  11.760   3.624
96260W        W68685  24.728  16.357   1.897
96261W        W68686  44.699  13.286  12.110
96262W        W68687   3.722  19.725  11.449
96263W        W68688   7.074  23.613   0.712
96264W        W68689   7.183   8.846   3.759
96265W        W68690  35.312   2.484   4.194
96266W        W68691   3.951  31.718   3.909
96267W        W68692   0.187  42.337  13.202
96268W        W68693  16.156  35.920  13.371
96269W        W68694  24.423  14.168  13.143
96270W        W68695  20.563  41.409  11.408
96271W        W68696  15.517  30.656  12.965
96272W        W68697   2.585  37.588  11.142
96273W        W68698  30.039  24.666   9.394
96274W        W68699  17.519  21.280   2.908
96275W        W68700  37.496  32.743  14.060
96276W        W68701  35.041  23.768   4.663
96277W        W68702   0.928  25.802  11.008
96278W        W68703   4.796  31.495  14.233
96279W        W68704  21.063  33.172  13.127
96280W        W68705  32.465  36.893   4.005
96281W        W68706  18.352  19.808  12.416
96282W        W68707  12.816   6.147   0.736
96283W        W68708  18.021   7.222   3.791
96284W        W68709  31.019  41.163  13.876
96285W        W68710   1.302  25.458   3.399
96286W        W68711  11.270  27.461  11.677
96287W        W68712  16.874  29.332  13.880
96288W        W68713  24.909  34.796  14.994
96289W        W68714  32.601  15.489   4.539
96290W        W68715   4.205   5.209  13.440
96291W        W68716  15.577  27.991  11.223
96292W        W68717  19.122   6.935  11.459
96293W        W68718   0.545   7.694   3.595
96294W        W68719  18.814  15.644   2.532
96295W        W68720  43.602  30.427  10.264
96296W        W68721  22.981  21.600   4.104
96297W        W68722  44.003  15.617  13.329
96298W        W68723   2.241  26.423   2.845
96299W        W68724  25.901  15.747  12.515
96300W        W68725  11.612   4.003  14.964
96301W        W68726  30.942  31.919   5.012
96302W        W68727  34.918  12.887  12.858
96303W        W68728  30.097  43.786  14.761
96304W        W68729  24.993  34.014   3.781
96305W        W68730  25.457  17.703  14.455
96306W        W68731   7.462  36.953  13.636
96307W        W68732   0.070  10.775   1.839
96308W        W68733  38.941  38.566  14.520
96309W        W68734  43.402  24.700   2.289
96310W        W68735  44.788  22.644  14.035
96311W        W68736  30.691  20.600   0.644
96312W        W68737  22.440  33.067   1.818
96313W        W68738  20.262  21.645   0.230
96314W        W68739  22.329  34.988   1.349
96315W        W68740  16.656  35.262  13.072
96316W        W68741  33.000  14.003   0.767
96317W        W68742   3.003  42.430  11.375
96318W        W68743   1.727  18.264   1.424
96319W        W68744  42.216  21.798   5.409
96320W        W68745  23.612  27.753   1.212
96321W        W68746  20.317  44.349   2.843
96322W        W68747   5.719  18.076  10.740
96323W        W68748  41.829  12.783   0.951
96324W        W68749   3.930  27.192   0.561
96325W        W68750  32.490   6.682   2.342
96326W        W68751   2.135   4.835  11.546
96327W        W68752  32.869  37.300   0.310
96328W        W68753  43.998  10.654  12.897
96329W        W68754  27.858  20.011  11.994
96330W        W68755  30.682   8.266   2.648
96331W        W68756  25.052   2.913   3.039
96332W        W68757  36.199  36.853  11.162
96333W        W68758  17.545   3.063  10.564
96334W        W68759  33.370  19.505  10.154
96335W        W68760   6.664   2.863   0.815
96336W        W68761  33.480  19.850   2.628
96337W        W68762  35.346   7.157   3.642
96338W        W68763  36.599   7.029  11.717
96339W        W68764   8.385   6.420   1.908
96340W        W68765   2.652  14.253   3.718
96341W        W68766  34.397  13.505   4.521
96342W        W68767   3.215   9.100  13.663
96343W        W68768  26.574  14.261  14.411
96344W        W68769  30.375   3.727   3.926
96345W        W68770   6.123  16.834   3.687
96346W        W68771  20.702  23.460   0.711
96347W        W68772  18.977   6.237   5.042
96348W        W68773  42.837  27.408   3.718
96349W        W68774  11.627  41.456  11.153
96350W        W68775  34.563  13.585   3.065
96351W        W68776  40.508   7.758   1.816
96352W        W68777  40.015  10.183  11.005
96353W        W68778  30.928  37.873  10.762
96354W        W68779  41.794   8.201   1.906
96355W        W68780  14.315  28.385  12.411
96356W        W68781  30.124  22.126  11.478
96357W        W68782  26.733  22.072  10.631
96358W        W68783   8.196  36.763  12.773
96359W        W68784  44.467   7.713   1.278
96360W        W68785  28.136  33.438   0.245
96361W        W68786  26.007  14.603  13.595
96362W        W68787   3.001   2.966  10.646
96363W        W68788  18.227  28.952   3.249
96364W        W68789  16.824  40.603   2.485
96365W        W68790   9.374  13.172  14.430
96366W        W68791   3.834   4.997   1.760
96367W        W68792  23.582  33.092   4.252
96368W        W68793  32.079  16.980  12.132
96369W        W68794  37.376  44.332   2.378
96370W        W68795  42.483  28.661   2.241
96371W        W68796  26.471  11.782  11.389
96372W        W68797  18.927  36.422  14.365
96373W        W68798   0.331  33.465   2.367
96374W        W68799  31.846  10.411   1.339
96375W        W68800  25.211  25.564  14.310
96376W        W68801  10.390  11.254   0.934
96377W        W68802   8.672  11.110  13.048
96378W        W68803   5.784  11.843  12.023
96379W        W68804  11.919  16.633   0.911
96380W        W68805  19.192  41.381  14.734
96381W        W68806  42.369   9.726  13.515
96382W        W68807  29.003  20.709   2.382
96383W        W68808   0.552  34.912  14.116
96384W        W68809   3.016  17.030  11.618
96385W        W68810  22.618  12.691  12.567
96386W        W68811  44.078  17.045  12.972
96387W        W68812  37.393  18.513  11.803
96388W        W68813   4.960   0.703   0.870
96389W        W68814  20.583  27.048   4.661
96390W        W68815  25.184  37.078  11.990
96391W        W68816  40.018   6.430   0.666
96392W        W68817  25.084  31.021  11.529
96393W        W68818  23.573  16.271   1.296
96394W        W68819  35.860   6.925  13.069
96395W        W68820  30.714   0.155  13.913
96396W        W68821   8.452   1.478  12.655
96397W        W68822  30.563   5.077   2.692
96398W        W68823  43.417  39.933   3.385
96399W        W68824  31.506  23.988   1.109
96400W        W68825  44.935   9.637   4.666
96401W        W68826  42.995  27.703   4.516
96402W        W68827   2.888   0.374  13.896
96403W        W68828  10.403   9.340  14.280
96404W        W68829  41.638   1.790  12.056
96405W        W68830  25.444   2.401   4.707
96406W        W68831  19.365  15.131   1.951
96407W        W68832   8.648  22.936   3.701
96408W        W68833  25.247  18.468  13.491
96409W        W68834  29.224  37.101  12.590
96410W        W68835  20.384  34.494  12.956
96411W        W68836  12.250  28.736  13.403
96412W        W68837   6.845  25.181  11.557
96413W        W68838  23.292   8.916  11.029
96414W        W68839   2.471  29.717  11.045
96415W        W68840  18.719  44.985   1.174
96416W        W68841   0.413  26.037   1.971
96417W        W68842   9.783  18.603  12.548
96418W        W68843  26.323  36.364   3.241
96419W        W68844   4.096  43.818  12.121
96420W        W68845  39.013  21.103  11.985
96421W        W68846  28.091  41.084  13.490
96422W        W68847  21.780  28.990   0.347
96423W        W68848  19.805  37.954  10.650
96424W        W68849  12.109  16.724  10.706
96425W        W68850   3.366  27.936  12.887
96426W        W68851  26.582   8.328  13.582
96427W        W68852  15.091  30.117  13.806
96428W        W68853  10.580  31.579  11.973
96429W        W68854  30.323  12.794  12.476
96430W        W68855  42.370   8.214  10.404
96431W        W68856  32.436  11.776  14.059
96432W        W68857  18.618  10.634  14.915
96433W        W68858  38.336  14.554  14.572
96434W        W68859  31.404   2.394   2.946
96435W        W68860  12.686  40.306   0.788
96436W        W68861  40.433  32.544   3.347
96437W        W68862  17.816  30.667  13.026
96438W        W68863   5.702  44.778  13.568
96439W        W68864  31.112  26.490   2.722
96440W        W68865  23.092  32.083   3.727
96441W        W68866  37.454   8.290  10.672
96442W        W68867  39.957  29.490  11.646
96443W        W68868  12.675  32.921   3.585
96444W        W68869  38.774  40.782  13.021
96445W        W68870   8.331  11.556   0.246
96446W        W68871  31.340  41.106   0.235
96447W        W68872  31.141  14.227   3.840
96448W        W68873   4.471  15.139  10.568
96449W        W68874  13.444  41.890  12.550
96450W        W68875  13.292  25.126  13.526
96451W        W68876   8.329   2.398  14.468
96452W        W68877  31.695  42.038  14.154
96453W        W68878  13.691   7.351   1.809
96454W        W68879  26.009  39.974  13.262
96455W        W68880  18.190  39.833   4.467
96456W        W68881  21.129  44.803  10.634
96457W        W68882  10.268  14.211   2.368
96458W        W68883  24.469   1.662   4.174
96459W        W68884  19.866  36.952   0.099
96460W        W68885  26.630  25.195   3.661
96461W        W68886   9.383  11.637   4.543
96462W        W68887   4.479  37.969  10.796
96463W        W68888  18.812  43.961   1.477
96464W        W68889  40.334  21.241   4.999
96465W        W68890  42.447  12.154  12.878
96466W        W68891  40.035  39.081   1.792
96467W        W68892  20.668  22.163   1.402
96468W        W68893  39.132   3.796   1.865
96469W        W68894  16.821  12.150   0.029
96470W        W68895  44.449  11.388   2.069
96471W        W68896  28.625  42.597   2.772
96472W        W68897  11.287   0.775   4.379
96473W        W68898  42.737  15.851   5.221
96474W        W68899  42.822  17.854   4.494
96475W        W68900   7.850  37.309   5.005
96476W        W68901  15.423  28.386  10.623
96477W        W68902   2.004  39.933   1.901
96478W        W68903  25.142  10.351   2.756
96479W        W68904  23.054  17.155  13.311
96480W        W68905   3.652   9.675   4.290
96481W        W68906   8.762   5.435  13.081
96482W        W68907  39.323  13.478   0.719
96483W        W68908  38.447   6.429   1.179
96484W        W68909   5.400  17.608  12.531
96485W        W68910  32.187  20.096  12.369
96486W        W68911  15.779  34.990   0.738
96487W        W68912  10.863  34.603   2.695
96488W        W68913   6.152  22.084  12.025
96489W        W68914  41.333  36.247  12.927
96490W        W68915   8.896  19.717  14.726
96491W        W68916  40.026  44.066  13.513
96492W        W68917  42.339  34.419   3.055
96493W        W68918  13.555  21.721   1.311
96494W        W68919  25.954  31.897  11.051
96495W        W68920  17.204  35.066  13.023
96496W        W68921  25.934   4.931  14.526
96497W        W68922   2.431  11.300   2.339
96498W        W68923  10.112  44.057   3.220
96499W        W68924  32.839  43.897  14.967
96500W        W68925  17.051  33.367  10.754
96501W        W68926  19.687   1.079  13.041
96502W        W68927  12.382  25.043   0.183
96503W        W68928  12.563  34.956   2.368
96504W        W68929   9.225   0.231  12.055
96505W        W68930  33.908  24.416  12.984
96506W        W68931  42.995   7.355   2.767
96507W        W68932  25.932  27.510  12.532
96508W        W68933   4.470  42.446  14.789
96509W        W68934  34.828  14.744   1.335
96510W        W68935  34.682  20.041  13.918
96511W        W68936  24.657  38.306  12.027
96512W        W68937  36.084  39.914   4.632
96513W        W68938  15.193   0.379  13.967
96514W        W68939  32.105  24.535  11.691
96515W        W68940  29.510  43.889   3.593
96516W        W68941  25.644  24.173   4.265
96517W        W68942  11.809  33.315  13.493
96518W        W68943  30.565  39.420  14.206
96519W        W68944   3.237  27.045  14.883
96520W        W68945  39.464  24.599   4.627
96521W        W68946   4.812  16.758  12.351
96522W        W68947   8.847  36.176  12.570
96523W        W68948  12.924   6.789  13.304
96524W        W68949   8.427  12.623   4.743
96525W        W68950  25.951   1.851   3.619
96526W        W68951   7.953  10.611   4.034
96527W        W68952  20.684  40.297   4.166
96528W        W68953  12.601   4.905   0.376
96529W        W68954  26.428  35.813  11.597
96530W        W68955  44.374  41.805  14.402
96531W        W68956  37.567  43.078  13.567
96532W        W68957  13.661  22.136  10.390
96533W        W68958  13.346   2.766   2.613
96534W        W68959  28.389  30.348   0.927
96535W        W68960  34.170  17.084   2.790
96536W        W68961  12.885  21.529  13.066
96537W        W68962  28.957  23.315   3.428
96538W        W68963  13.223   8.144   4.115
96539W        W68964  31.360  15.567   4.209
96540W        W68965  30.289  22.544  13.871
96541W        W68966   2.132  35.029   0.851
96542W        W68967  35.541  22.616   4.848
96543W        W68968  42.780  41.130   4.160
96544W        W68969  25.265   0.420   2.727
96545W        W68970  15.173  36.298  10.868
96546W        W68971  22.557  15.752   2.181
96547W        W68972  33.510  13.627   2.690
96548W        W68973   9.349   7.833   0.219
96549W        W68974   1.921  40.987  13.888
96550W        W68975  28.600  18.276   0.875
96551W        W68976  42.792  29.570   3.202
96552W        W68977  17.831  11.932   3.185
96553W        W68978  25.999  22.035   0.499
96554W        W68979  32.919  20.046   0.010
96555W        W68980  32.104  41.403   4.198
96556W        W68981  28.962  40.988  13.363
96557W        W68982   6.884  33.523  13.891
96558W        W68983  33.969  16.065  10.713
96559W        W68984  44.758   1.900   4.094
96560W        W68985  15.686   1.312  12.640
96561W        W68986   4.380   9.282  12.802
96562W        W68987  19.163   0.390  12.527
96563W        W68988  34.161   1.957  13.254
96564W        W68989  33.086  42.735   4.556
96565W        W68990  43.081  29.533  14.504
96566W        W68991   3.523   4.761   1.166
96567W        W68992  25.588  10.763  14.575
96568W        W68993  14.121   3.620  12.045
96569W        W68994  13.791  27.508  12.180
96570W        W68995  16.814  21.765  11.954
96571W        W68996  24.420   9.021   0.966
96572W        W68997   3.117  42.417   2.354
96573W        W68998  30.886  24.097  11.733
96574W        W68999  35.000  40.822  12.646
96575W        W69000   6.773  38.821  14.422
96576W        W69001  24.422  26.540   3.661
96577W        W69002  11.833   5.192  11.699
96578W        W69003  10.662   1.373   0.534
96579W        W69004  19.666  11.218   4.611
96580W        W69005  25.713  15.205  13.305
96581W        W69006  26.088  22.317   0.931
96582W        W69007  36.372  40.851  12.457
96583W        W69008   9.842  20.526  13.695
96584W        W69009  37.827  12.089  14.354
96585W        W69010  15.259  37.908  11.585
96586W        W69011  18.098  33.958  12.991
96587W        W69012  21.813  11.858   9.685
96588W        W69013  28.080  24.521   2.364
96589W        W69014   7.775  19.338   4.977
96590W        W69015  11.385  39.072  12.002
96591W        W69016   1.932  29.973  14.820
96592W        W69017  33.129  41.071  12.887
96593W        W69018   5.941   8.923   3.377
96594W        W69019   4.773  32.796   4.277
96595W        W69020  35.300   7.393  14.806
96596W        W69021   7.730  39.807   1.658
96597W        W69022   9.690   1.809   3.228
96598W        W69023  10.181  17.025  11.829
96599W        W69024  26.726  28.210   2.389
96600W        W69025  44.053  42.964  12.052
96601W        W69026  18.330   5.398   2.979
96602W        W69027  41.730  20.711  10.223
96603W        W69028  43.292  19.108   3.709
96604W        W69029  20.360   4.292  10.688
96605W        W69030  21.726  36.575  11.995
96606W        W69031  13.356  11.101   2.275
96607W        W69032  12.198  41.951  10.669
96608W        W69033  38.097   1.648  14.278
96609W        W69034  26.693  31.077  14.488
96610W        W69035  39.652  10.498   4.473
96611W        W69036   5.779  41.251   4.923
96612W        W69037  33.432  21.225   2.797
96613W        W69038  16.196   6.297   4.790
96614W        W69039   7.990  18.157  11.168
96615W        W69040   4.485  18.681  14.447
96616W        W69041  19.514   1.133   3.660
96617W        W69042  40.235  41.855   3.959
96618W        W69043  21.330   2.030   2.620
96619W        W69044  27.479   7.884  12.321
96620W        W69045   9.728  32.521   3.622
96621W        W69046   4.236  13.040  10.976
96622W        W69047  11.049  31.574   0.882
96623W        W69048  32.942   8.724   0.040
96624W        W69049  36.701   5.516  11.434
96625W        W69050  11.941   5.867   4.108
96626W        W69051  17.541   3.974  10.656
96627W        W69052  33.986  20.394   1.408
96628W        W69053   4.706  10.266  11.215
96629W        W69054  20.619  18.821   0.808
96630W        W69055  35.902  42.674   0.286
96631W        W69056  15.806  41.726  10.678
96632W        W69057  40.853  14.070   2.922
96633W        W69058  32.039   7.490  14.180
96634W        W69059  11.624  25.243  13.445
96635W        W69060  32.015   8.626  10.985
96636W        W69061  28.345  10.181  10.105
96637W        W69062   5.952  11.832  12.971
96638W        W69063  30.580  34.769  13.927
96639W        W69064  26.433  17.201  14.972
96640W        W69065  39.818  29.028   1.361
96641W        W69066  42.362  29.107   0.847
96642W        W69067  43.748  10.228   1.924
96643W        W69068  22.786  19.104   3.159
96644W        W69069  12.880  16.247   2.651
96645W        W69070  11.678  22.440   1.691
96646W        W69071  38.838  26.829   0.079
96647W        W69072  44.935   1.729   0.304
96648W        W69073  10.083  41.730   0.066
96649W        W69074  44.923  19.511  14.014
96650W        W69075  10.284  40.317   0.800
96651W        W69076  28.550  16.956  13.896
96652W        W69077  16.696   0.932  12.182
96653W        W69078  37.409   5.645  12.512
96654W        W69079  43.525  37.014  10.639
96655W        W69080   2.169   9.801  11.076
96656W        W69081  12.054  36.409  14.849
96657W        W69082  34.577  33.365   1.534
96658W        W69083   7.379  44.872  14.382
96659W        W69084  21.221  22.723  10.986
96660W        W69085   3.335  33.888  11.115
96661W        W69086  39.075  25.598  13.159
96662W        W69087   0.487  11.643   0.678
96663W        W69088  11.932  24.082  14.046
96664W        W69089  41.195  11.416   3.247
96665W        W69090  33.366  35.109   0.804
96666W        W69091  12.473   4.341   2.717
96667W        W69092   7.855  40.752   2.708
96668W        W69093  40.426  25.430  14.276
96669W        W69094   6.581  30.887  11.437
96670W        W69095  24.090  44.803  14.614
96671W        W69096  19.552   6.972   0.292
96672W        W69097   2.366   7.364  13.075
96673W        W69098  38.497  29.407   1.768
96674W        W69099  44.341   0.267  13.245
96675W        W69100   8.086  36.548   0.304
96676W        W69101  41.954   8.682   4.634
96677W        W69102  34.825  12.288  10.688
96678W        W69103   6.150  33.073  14.195
96679W        W69104  38.957  44.466  11.424
96680W        W69105  31.498   7.632  12.387
96681W        W69106   3.682  23.187   0.840
96682W        W69107  38.446  30.970   0.902
96683W        W69108   3.766  20.013   4.600
96684W        W69109  18.558   3.051  10.009
96685W        W69110  22.044  44.045   3.182
96686W        W69111  39.485  16.133  12.968
96687W        W69112  36.367   9.292  12.566
96688W        W69113  10.380  10.066  12.398
96689W        W69114   7.757  38.118  12.531
96690W        W69115  26.405  11.908   4.517
96691W        W69116   0.803  38.648  12.999
96692W        W69117  18.068   7.244  14.640
96693W        W69118   5.403   9.631   3.143
96694W        W69119   9.075  15.779   4.620
96695W        W69120  26.303  11.210  11.839
96696W        W69121  10.704  41.590   3.599
96697W        W69122   1.034   2.776  12.571
96698W        W69123  24.723  15.179  14.412
96699W        W69124  42.835  23.296   3.596
96700W        W69125  12.082  31.228  12.615
96701W        W69126  25.073   4.186   1.647
96702W        W69127  26.419  44.226  11.112
96703W        W69128  10.728  43.307  11.875
96704W        W69129  37.721  25.466   3.748
96705W        W69130  24.217  28.643  14.291
96706W        W69131   6.396  27.036   4.199
96707W        W69132  42.933  38.806   3.299
96708W        W69133  12.873   7.199  14.446
96709W        W69134  39.798  42.428  13.901
96710W        W69135  13.142  43.239   0.461
96711W        W69136   4.746  32.045   1.373
96712W        W69137   7.771   2.264  14.377
96713W        W69138  43.022  22.720   0.756
96714W        W69139  24.032  31.739   1.848
96715W        W69140  18.654  33.619   4.093
96716W        W69141  38.438   7.890  11.186
96717W        W69142   7.425  20.376   1.293
96718W        W69143  27.702   8.650   5.091
96719W        W69144  10.048   5.929   4.106
96720W        W69145  25.344  29.707   1.351
96721W        W69146   7.718  35.595  11.984
96722W        W69147  32.583   7.251  11.987
96723W        W69148  12.728  32.232   0.754
96724W        W69149  37.088  10.772  13.538
96725W        W69150  22.546  18.963   1.220
96726W        W69151  27.937  20.090  11.121
96727W        W69152  30.048  22.379   0.432
96728W        W69153  31.886   7.282  12.481
96729W        W69154  19.051  19.557  14.981
96730W        W69155  43.218  25.040  11.991
96731W        W69156  30.393   7.465  14.595
96732W        W69157  12.485  40.059   1.609
96733W        W69158   8.158  36.580  13.748
96734W        W69159  12.164   4.347   3.142
96735W        W69160   6.152   3.772   1.357
96736W        W69161  28.971  11.690  14.741
96737W        W69162  11.684  12.306  14.869
96738W        W69163  21.803   4.504   1.745
96739W        W69164  25.675  33.100  14.932
96740W        W69165  15.543  25.069  10.392
96741W        W69166   4.152  24.732   0.326
96742W        W69167   3.220  25.633   3.347
96743W        W69168  29.101  36.882  14.063
96744W        W69169  25.991   9.319   0.366
96745W        W69170   3.799   7.008   3.658
96746W        W69171  43.592  16.417  13.441
96747W        W69172  35.325  14.500   1.336
96748W        W69173  28.095  32.925  13.248
96749W        W69174  21.519  41.512   2.739
96750W        W69175   2.468  18.088   3.866
96751W        W69176  33.151  37.468   3.767
96752W        W69177  40.856  40.887   4.709
96753W        W69178  29.188   5.717   2.783
96754W        W69179  10.782  23.625   2.787
96755W        W69180  40.447  34.595   4.017
96756W        W69181  27.076  35.000  10.168
96757W        W69182  24.695  29.123   2.398
96758W        W69183  15.286   5.123   3.911
96759W        W69184  44.364  22.630  10.229
96760W        W69185  26.971  37.499  13.461
96761W        W69186  37.607  29.906  10.910
96762W        W69187  32.965  38.474   0.737
96763W        W69188  31.764  20.938  14.856
96764W        W69189  41.398  22.662  12.816
96765W        W69190  33.163  33.325   4.258
96766W        W69191  34.890  36.123   1.648
96767W        W69192  11.343  37.722  11.548
96768W        W69193  24.488  27.144   3.715
96769W        W69194  31.891  37.525   0.458
96770W        W69195  14.864  29.682  14.513
96771W        W69196  13.199  22.216  11.530
96772W        W69197  24.012  26.686   4.549
96773W        W69198  19.860  31.887  13.255
96774W        W69199  21.773   2.841   3.589
96775W        W69200   1.266   1.268   0.396
96776W        W69201   8.340  43.883   2.688
96777W        W69202  41.417  36.628  11.127
96778W        W69203  42.044  17.505   4.175
96779W        W69204   9.950   7.827  12.058
96780W        W69205   4.711  23.669  12.902
96781W        W69206   0.913  28.628   4.412
96782W        W69207  43.561  40.734   2.409
96783W        W69208   4.701  12.359  11.504
96784W        W69209  21.348  12.770   0.034
96785W        W69210  25.637  10.295  14.356
96786W        W69211  14.632  44.403  13.556
96787W        W69212  24.717  30.789  14.580
96788W        W69213   0.345   9.646  10.935
96789W        W69214  35.093  34.317  10.772
96790W        W69215  39.071  16.765   1.086
96791W        W69216  15.585  27.082  14.257
96792W        W69217  12.179  38.876   1.047
96793W        W69218  33.642  36.812  10.989
96794W        W69219  28.812  26.662  13.260
96795W        W69220  37.965  33.531  11.321
96796W        W69221  21.059  37.445   3.801
96797W        W69222  23.605  10.802  10.543
96798W        W69223  42.472   5.225  13.680
96799W        W69224  12.040  30.017   2.241
96800W        W69225  25.887  15.332  12.818
96801W        W69226  42.527  35.577  14.727
96802W        W69227  16.238  23.170   1.283
96803W        W69228  11.083  35.573   0.416
96804W        W69229   7.387  30.214  11.089
96805W        W69230   9.837   8.295   4.391
96806W        W69231  43.031  16.203   2.722
96807W        W69232  32.342  33.875   1.489
96808W        W69233  32.428   0.852   1.098
96809W        W69234  36.118  34.629  11.495
96810W        W69235   2.216  30.519   1.822
96811W        W69236  42.847  30.412   2.298
96812W        W69237  30.660  34.920   0.505
96813W        W69238  41.834   5.174   3.711
96814W        W69239  34.559  33.166  10.776
96815W        W69240   9.256  44.945  11.207
96816W        W69241  18.075  14.684  14.231
96817W        W69242  18.608  31.188  12.842
96818W        W69243   5.715  32.050   0.508
96819W        W69244  18.064  32.553  10.668
96820W        W69245  17.216  10.772   1.470
96821W        W69246  26.639  12.674  14.274
96822W        W69247  27.108  29.502  12.137
96823W        W69248   4.234  10.216   4.963
96824W        W69249  29.972  11.927   4.711
96825W        W69250   1.909  13.926  10.638
96826W        W69251  42.367  32.248   2.699
96827W        W69252   3.922  33.696   4.122
96828W        W69253  24.118   1.862  11.473
96829W        W69254  29.153   4.983  13.106
96830W        W69255  26.450  20.659  12.030
96831W        W69256  38.078   7.487   4.575
96832W        W69257  18.551   2.212  11.999
96833W        W69258   2.455  28.606  10.508
96834W        W69259  34.086  31.850   3.764
96835W        W69260  21.519  43.659   0.031
96836W        W69261  22.919  21.850  13.073
96837W        W69262  10.788  22.267   4.532
96838W        W69263   5.278  42.583  12.857
96839W        W69264  32.118  10.223   2.978
96840W        W69265  32.375  42.801   1.295
96841W        W69266  14.352  36.034   2.805
96842W        W69267  12.456  30.515  14.377
96843W        W69268  38.308  19.583   1.256
96844W        W69269  22.227  16.363  10.503
96845W        W69270  24.903  26.690   3.724
96846W        W69271  27.042   0.432   2.224
96847W        W69272  43.545  38.053   0.735
96848W        W69273  40.581  34.455   1.339
96849W        W69274  43.501  20.493  10.000
96850W        W69275   1.479   3.188  10.937
96851W        W69276  27.189  25.977  14.712
96852W        W69277  13.668  32.431  14.160
96853W        W69278  10.265  27.219   0.419
96854W        W69279  35.948  39.267  13.440
96855W        W69280  31.573  21.452  14.876
96856W        W69281   8.632  44.364  10.672
96857W        W69282   3.256  22.920   3.615
96858W        W69283  19.247  26.662  11.984
96859W        W69284   6.291  32.044  11.665
96860W        W69285  40.992   7.606   1.418
96861W        W69286   3.007   6.753   2.020
96862W        W69287  30.643  12.724   3.719
96863W        W69288   6.212  38.410   0.931
96864W        W69289  21.201  33.514  10.785
96865W        W69290   7.322  17.393  10.548
96866W        W69291   7.777   7.858  11.261
96867W        W69292  39.737   7.193   2.655
96868W        W69293   2.135  13.684   0.755
96869W        W69294  29.570   3.864   1.489
96870W        W69295  22.580  22.957  14.924
96871W        W69296   9.892  21.736   4.075
96872W        W69297  42.837  38.103  10.826
96873W        W69298  32.453  40.340   3.213
96874W        W69299  44.352   9.003  10.755
96875W        W69300  21.117  39.377   1.964
96876W        W69301  17.783  32.755   5.291
96877W        W69302  27.656   0.025   0.413
96878W        W69303  40.275  12.365   1.327
96879W        W69304  39.287  35.027  13.311
96880W        W69305  43.922  40.236  10.655
96881W        W69306  11.153  34.334  13.098
96882W        W69307  42.846  23.937   2.282
96883W        W69308  24.722  31.651  12.872
96884W        W69309  35.870   2.444  14.420
96885W        W69310   7.456  27.200   1.890
96886W        W69311  38.268  39.527  13.372
96887W        W69312  36.004  26.000   3.602
96888W        W69313  13.104   7.406   2.349
96889W        W69314  11.738  33.313  13.998
96890W        W69315   0.823  44.865   1.449
96891W        W69316  37.283  21.632  12.036
96892W        W69317  13.701  23.857   0.315
96893W        W69318  16.674   4.309   3.756
96894W        W69319  42.189  32.780  14.301
96895W        W69320   5.708  10.050  13.357
96896W        W69321  37.521  27.159   3.817
96897W        W69322  43.478  13.660  11.753
96898W        W69323  24.303  25.858  14.304
96899W        W69324  19.812  37.851  14.765
96900W        W69325  33.572  44.772   1.782
96901W        W69326  42.808  40.983  13.919
96902W        W69327  44.356  16.038   1.388
96903W        W69328  32.778   5.843  13.601
96904W        W69329  39.394  16.348   3.282
96905W        W69330  22.194  37.595   3.539
96906W        W69331   2.181  11.835   3.224
96907W        W69332  26.026  11.661  11.137
96908W        W69333  29.915  26.756   3.236
96909W        W69334   1.946  44.732   2.143
96910W        W69335   1.908  25.155   1.715
96911W        W69336  15.413  14.858   4.380
96912W        W69337  33.079  37.579  13.011
96913W        W69338  22.579  41.486   1.434
96914W        W69339  35.562  17.310  12.015
96915W        W69340  24.512  28.413  13.289
96916W        W69341   7.942  35.517  14.048
96917W        W69342  17.502  30.224   2.278
96918W        W69343  13.718  25.583   4.839
96919W        W69344  19.289  38.842   3.748
96920W        W69345  34.146  33.633   1.787
96921W        W69346   0.310  19.225   2.893
96922W        W69347   2.632   2.238  12.257
96923W        W69348  15.721  18.419  10.050
96924W        W69349  40.352  13.679  10.643
96925W        W69350  25.890   1.782  13.395
96926W        W69351  21.815  34.253   0.905
96927W        W69352   3.118  33.569  12.377
96928W        W69353  40.624  34.839  11.929
96929W        W69354  24.620   6.375   1.155
96930W        W69355  28.719   5.839  13.972
96931W        W69356  32.212  38.541   1.292
96932W        W69357   2.228   9.822   3.390
96933W        W69358  39.403  23.984  11.489
96934W        W69359  40.402  20.059  14.377
96935W        W69360  20.693  11.743   2.638
96936W        W69361  34.968  12.730   0.914
96937W        W69362   5.950  39.760   2.944
96938W        W69363  41.502   0.388  11.609
96939W        W69364   5.817  38.585  14.041
96940W        W69365  33.576  24.472   5.044
96941W        W69366  16.835  23.869  13.479
96942W        W69367   1.965  38.185   4.131
96943W        W69368   3.206   7.694  11.899
96944W        W69369  23.177  42.859   5.033
96945W        W69370  25.298  32.866   9.765
96946W        W69371   0.108  23.158  12.409
96947W        W69372  17.862  34.326   1.988
96948W        W69373  43.039   6.680  13.955
96949W        W69374   2.440  17.945  14.671
96950W        W69375   0.207  44.530  14.392
96951W        W69376  18.228  31.497   3.257
96952W        W69377  26.023   6.745  12.483
96953W        W69378  20.126   8.667  11.485
96954W        W69379  33.870  40.400   3.547
96955W        W69380  16.664  24.270   3.090
96956W        W69381  15.955  10.119   0.817
96957W        W69382  12.389  42.356  14.574
96958W        W69383  22.193  22.554   1.886
96959W        W69384   0.995   5.430  11.194
96960W        W69385  10.896   5.162   3.296
96961W        W69386   4.633  26.528  14.194
96962W        W69387  12.927  36.782   2.615
96963W        W69388   8.944  30.872   3.244
96964W        W69389  41.115  19.038   3.088
96965W        W69390  34.902  24.138  12.894
96966W        W69391  23.331  11.565  10.964
96967W        W69392  19.659  15.650  14.366
96968W        W69393  44.905  20.064   0.480
96969W        W69394   3.896  12.790  13.099
96970W        W69395   7.754  38.206   2.093
96971W        W69396  28.969   2.611  12.305
96972W        W69397   0.743  37.670   1.502
96973W        W69398  17.512  37.784  12.657
96974W        W69399  28.116  31.163  10.537
96975W        W69400  30.430  27.218   1.859
96976W        W69401  14.799   3.133   4.134
96977W        W69402  13.296  21.407   3.375
96978W        W69403   1.500  21.571   2.654
96979W        W69404  10.908  37.079  10.556
96980W        W69405  18.216  42.425  10.680
96981W        W69406   5.118  18.225   1.724
96982W        W69407   0.515   2.661   3.262
96983W        W69408  42.938  12.769  14.538
96984W        W69409   0.229   0.482   2.247
96985W        W69410  11.139  44.485   0.314
96986W        W69411  42.955  23.804   3.657
96987W        W69412   6.455   1.700  11.600
96988W        W69413  38.899   9.422   1.908
96989W        W69414  42.464  36.028   2.633
96990W        W69415  29.680  30.294   3.605
96991W        W69416  34.784  40.816  11.233
96992W        W69417  23.673  44.158  10.406
96993W        W69418  10.725   0.296  14.696
96994W        W69419  24.556  19.121   2.686
96995W        W69420  39.055  31.457  14.786
96996W        W69421  37.622  36.844   4.220
96997W        W69422   3.311  24.482  11.592
96998W        W69423  21.812  38.638   3.637
96999W        W69424  26.002  35.130   3.728
97000W        W69425  20.826   1.285  11.883
97001W        W69426  21.201  27.054   1.403
97002W        W69427  33.815   0.820   3.334
97003W        W69428  25.076  32.773   5.473
97004W        W69429  15.827  29.147   4.548
97005W        W69430  17.706  28.912  10.911
97006W        W69431   6.829  15.939  12.933
97007W        W69432   7.571   3.153   5.071
97008W        W69433  15.261   9.298   2.631
97009W        W69434  21.488  42.503  13.747
97010W        W69435  26.624   0.994  13.296
97011W        W69436  38.839  10.224   0.839
97012W        W69437  23.890   8.316  10.874
97013W        W69438  18.632  18.779   4.513
97014W        W69439  43.359  42.793  12.492
97015W        W69440  37.293  32.230   4.529
97016W        W69441  14.652  19.974  10.763
97017W        W69442   0.359  28.394   0.210
97018W        W69443   1.267   4.791   3.375
97019W        W69444  27.448  25.448  11.643
97020W        W69445  44.971  36.747   4.049
97021W        W69446   3.426  22.751   0.025
97022W        W69447  17.286   2.824  12.476
97023W        W69448  25.518  16.778  10.663
97024W        W69449  43.139  21.280   4.123
97025W        W69450  14.709   9.794  14.371
97026W        W69451  27.629  36.253   0.442
97027W        W69452  19.534  13.133  12.486
97028W        W69453   3.905  35.452   4.087
97029W        W69454  24.573  39.168  13.864
97030W        W69455  24.102  34.904   0.624
97031W        W69456   3.192  40.197  11.939
97032W        W69457  33.320  24.090   9.881
97033W        W69458  31.848  11.171   1.279
97034W        W69459  44.400  23.686  11.681
97035W        W69460  29.463  20.643   4.639
97036W        W69461   5.810  24.777   4.613
97037W        W69462  42.774  15.403  14.991
97038W        W69463  23.227  19.725   4.508
97039W        W69464  44.837  11.422  13.460
97040W        W69465  16.854  35.854  10.243
97041W        W69466  24.935   4.817  14.343
97042W        W69467   3.689  30.915  13.932
97043W        W69468  38.678  21.509   0.436
97044W        W69469  20.317  29.140   2.347
97045W        W69470   8.599   3.034   1.878
97046W        W69471  44.251   1.214  13.010
97047W        W69472  11.389   6.269  12.416
97048W        W69473   7.520   2.874   3.217
97049W        W69474  15.587  14.421   5.105
97050W        W69475   9.025  31.964   2.941
97051W        W69476  16.527  16.304  13.991
97052W        W69477   3.273  25.145  12.111
97053W        W69478  33.071  40.282   0.252
97054W        W69479  17.663  26.114   3.269
97055W        W69480  28.200  22.784  12.511
97056W        W69481  37.918  17.856  13.527
97057W        W69482  31.011  43.794   2.375
97058W        W69483  18.933  22.360   1.913
97059W        W69484  16.741  20.277  13.513
97060W        W69485  11.726  43.926  12.485
97061W        W69486  30.067  43.326   0.470
97062W        W69487  29.975  32.855   1.668
97063W        W69488  41.326  27.580  13.223
97064W        W69489   1.284  32.472  14.728
97065W        W69490   2.956  32.605  13.897
97066W        W69491  42.516   7.710  10.660
97067W        W69492  14.229   9.140   1.869
97068W        W69493  33.151  37.128   0.996
97069W        W69494  18.180  30.027  10.695
97070W        W69495   6.966  13.227   3.272
97071W        W69496  13.729   6.216   0.485
97072W        W69497   8.944  28.747   0.566
97073W        W69498  17.845  11.113   0.464
97074W        W69499  36.469  16.731   1.735
97075W        W69500  35.953  12.265  13.768
97076W        W69501   6.999  44.796  10.528
97077W        W69502  43.774  38.158   3.398
97078W        W69503  22.156  40.547  11.375
97079W        W69504  21.593  38.106  13.852
97080W        W69505   1.743  27.497  14.688
97081W        W69506  27.706  34.848  14.294
97082W        W69507   8.912  41.025  13.751
97083W        W69508   2.197   0.709   1.338
97084W        W69509  14.793  42.889   3.502
97085W        W69510   9.634   4.294   3.705
97086W        W69511   5.812  17.877   0.453
97087W        W69512  36.529  39.803  13.924
97088W        W69513  43.895  27.964   2.194
97089W        W69514  36.804  37.849  12.748
97090W        W69515  29.445   3.042   4.805
97091W        W69516   3.838  36.879   4.869
97092W        W69517  30.695  22.631   1.184
97093W        W69518   6.330   7.228   1.776
97094W        W69519   3.478   2.461  12.404
97095W        W69520  35.465  13.081   2.428
97096W        W69521  30.622  39.495  10.299
97097W        W69522  31.434  37.843  10.625
97098W        W69523  32.586  12.195  14.827
97099W        W69524   3.384  28.948  13.001
97100W        W69525   3.082   8.617   3.368
97101W        W69526  40.292  26.969  11.829
97102W        W69527   9.027  41.600  11.137
97103W        W69528  17.726  29.114   3.279
97104W        W69529  26.104  35.643   2.292
97105W        W69530   9.091   3.949   3.442
97106W        W69531  12.790   0.892  10.754
97107W        W69532  28.190  42.884   1.214
97108W        W69533   1.776  42.085   4.615
97109W        W69534   6.649  28.374  11.886
97110W        W69535  16.764  11.279  13.542
97111W        W69536  37.049  12.341   3.751
97112W        W69537  29.040   1.402  11.640
97113W        W69538   7.221  18.088   2.794
97114W        W69539  30.974   0.271   0.915
97115W        W69540   4.879  14.695   1.286
97116W        W69541  30.457  26.205  13.036
97117W        W69542  29.235  38.954   1.745
97118W        W69543  35.559   3.174  13.859
97119W        W69544   9.223  28.780  12.416
97120W        W69545  33.805  37.660  13.431
97121W        W69546  12.076  17.819  10.656
97122W        W69547  10.690  22.249  11.083
97123W        W69548   7.887  19.333   2.237
97124W        W69549   4.244  22.713  12.872
97125W        W69550  29.031  24.487  14.031
97126W        W69551  22.630   8.310   2.904
97127W        W69552  23.479  40.631   4.128
97128W        W69553  25.091  42.327  11.826
97129W        W69554   4.816  42.409   5.101
97130W        W69555   5.766  35.114   2.339
97131W        W69556  43.887  37.886   4.384
97132W        W69557  30.683  12.788  11.491
97133W        W69558   6.854  15.901   4.232
97134W        W69559   0.662   6.161  10.720
97135W        W69560  23.704   2.298   1.233
97136W        W69561  34.423  43.882  12.466
97137W        W69562  26.655   8.594   3.802
97138W        W69563  19.826  12.384  14.360
97139W        W69564  33.490  11.486  14.801
97140W        W69565  18.586   4.157  11.521
97141W        W69566   9.825  19.167  11.839
97142W        W69567   0.160  23.964  14.057
97143W        W69568  15.373  39.152   2.229
97144W        W69569   8.690  30.117  14.261
97145W        W69570  40.558  10.129  11.103
97146W        W69571  37.839  42.128  11.549
97147W        W69572  40.547   3.427   1.261
97148W        W69573  15.866   0.883   4.743
97149W        W69574  13.493  21.976   2.601
97150W        W69575  17.203  16.293  12.074
97151W        W69576  17.660  34.842  12.944
97152W        W69577  40.753  18.837   0.423
97153W        W69578  15.868  26.220  10.661
97154W        W69579  43.258  13.915   1.013
97155W        W69580   9.343  12.400   0.333
97156W        W69581  24.454  25.045  13.786
97157W        W69582  15.240  34.612  10.693
97158W        W69583  14.677  15.234  13.848
97159W        W69584  26.172  44.532   0.284
97160W        W69585   4.589   6.808   0.952
97161W        W69586  26.685   9.887  11.214
97162W        W69587  14.872  39.522   4.349
97163W        W69588  35.562  18.304   4.199
97164W        W69589  25.322   6.248   4.725
97165W        W69590  19.216  44.849  10.956
97166W        W69591  31.711  27.704  12.557
97167W        W69592  35.231  30.180   1.663
97168W        W69593  38.379  20.647   3.014
97169W        W69594   4.816   4.234   3.736
97170W        W69595  14.165  12.292   3.432
97171W        W69596  34.943  44.220  11.154
97172W        W69597   1.259   0.385   0.313
97173W        W69598  17.779  42.321   1.394
97174W        W69599  37.761  20.481   1.341
97175W        W69600  19.923  28.381   1.751
97176W        W69601  11.664  27.958  13.341
97177W        W69602  19.022   7.369   3.719
97178W        W69603  27.583  37.331   3.236
97179W        W69604   6.914   9.460   1.377
97180W        W69605  14.423   1.073  12.078
97181W        W69606  19.100  42.604   3.292
97182W        W69607  17.888  33.022   3.399
97183W        W69608   1.571   6.730  10.734
97184W        W69609  11.234  42.042   2.218
97185W        W69610  29.447  20.302  12.040
97186W        W69611  26.552  34.005   1.940
97187W        W69612  38.849   1.292  10.922
97188W        W69613  26.846   7.946  14.503
97189W        W69614  34.897  41.508   4.029
97190W        W69615  40.995  13.613  11.180
97191W        W69616  43.249  14.606   0.336
97192W        W69617  16.434  31.028   4.602
97193W        W69618  18.242   9.057  11.527
97194W        W69619   7.291  31.444  12.171
97195W        W69620  27.945  30.901   4.125
97196W        W69621   2.396   0.172  13.826
97197W        W69622  18.302   7.013  12.600
97198W        W69623  43.997  37.202   1.700
97199W        W69624  38.764  44.838   4.071
97200W        W69625  34.951  25.718   0.757
97201W        W69626  36.122  37.287  12.094
97202W        W69627  29.650  41.421  12.391
97203W        W69628  30.920  27.205  14.078
97204W        W69629  23.007  12.247   1.441
97205W        W69630   3.002  32.487   2.291
97206W        W69631   7.296  17.363  13.060
97207W        W69632  15.253  19.611   2.863
97208W        W69633  27.043  32.874   1.405
97209W        W69634  39.596  28.025  11.159
97210W        W69635  34.067  20.361   2.753
97211W        W69636  43.736  16.595  14.365
97212W        W69637  32.518  10.257   3.757
97213W        W69638  13.222  41.998  10.629
97214W        W69639  27.941  25.542   1.448
97215W        W69640  18.218  12.213   2.908
97216W        W69641  10.312  14.710   4.009
97217W        W69642  29.606   9.225   3.864
97218W        W69643  17.649  27.213  13.892
97219W        W69644   0.313  43.990   0.831
97220W        W69645  41.369  27.147   1.044
97221W        W69646  32.056  16.219  10.448
97222W        W69647  17.232  29.237  11.206
97223W        W69648  13.729  37.362   1.841
97224W        W69649   9.348  15.247   1.727
97225W        W69650   1.703   1.467   3.822
97226W        W69651  15.182  41.827  14.542
97227W        W69652  43.752  23.132  12.628
97228W        W69653  13.839  16.674   3.262
97229W        W69654  28.081  10.246   0.500
97230W        W69655  15.932  23.023   1.680
97231W        W69656  43.966  35.824  12.338
97232W        W69657   9.217  28.818   4.234
97233W        W69658  18.773  26.099  14.430
97234W        W69659  36.395  29.239  14.223
97235W        W69660  32.995  41.541   1.018
97236W        W69661   0.559  28.540  11.159
97237W        W69662  31.433  11.194   4.124
97238W        W69663   4.856  26.519   2.829
97239W        W69664  37.822   4.265  12.014
97240W        W69665  35.946   1.796   0.169
97241W        W69666  32.779  38.315   1.722
97242W        W69667  12.287  25.450  10.050
97243W        W69668  14.191  36.679  12.034
97244W        W69669  30.996  23.324  12.778
97245W        W69670  42.048  19.799   0.832
97246W        W69671   9.122   4.191   0.952
97247W        W69672  20.202   3.162  13.021
97248W        W69673  43.767  28.396  13.961
97249W        W69674  25.217  30.913  14.565
97250W        W69675  39.958   1.516   0.968
97251W        W69676  21.648   5.833  11.592
97252W        W69677  28.162  44.450   2.113
97253W        W69678   0.900  38.964   0.348
97254W        W69679   8.730   7.727   2.852
97255W        W69680  37.655  13.152   1.403
97256W        W69681  40.917  39.385   2.502
97257W        W69682  43.217   5.694   2.523
97258W        W69683  38.901  36.988   3.684
97259W        W69684  16.816  22.430  14.754
97260W        W69685   3.695  15.058   2.499
97261W        W69686  24.477  27.138  13.736
97262W        W69687  27.872  32.034  11.576
97263W        W69688   8.761  17.619  14.901
97264W        W69689  10.687  30.120  13.047
97265W        W69690  40.724  36.046  14.225
97266W        W69691  39.651  39.838   3.180
97267W        W69692  10.610  34.956  12.509
97268W        W69693  24.936  33.561   0.029
97269W        W69694  37.327  40.616   3.700
97270W        W69695   3.679  14.422   0.852
97271W        W69696  16.829  34.743  13.117
97272W        W69697  24.538   5.789  11.974
97273W        W69698  12.777  43.906  12.649
97274W        W69699  21.460   6.404   4.204
97275W        W69700  37.288  16.003  10.476
97276W        W69701  11.929  19.967   1.462
97277W        W69702   8.261  38.831   0.824
97278W        W69703  29.181  36.615  10.680
97279W        W69704   5.421   9.093   3.752
97280W        W69705  40.904  31.125   0.525
97281W        W69706  28.480  14.217  14.759
97282W        W69707  30.985  36.847  12.608
97283W        W69708  17.598  29.157  14.767
97284W        W69709  40.122  34.810  11.971
97285W        W69710  18.161  26.714   1.785
97286W        W69711  44.359  37.167  12.607
97287W        W69712  11.031  12.414  14.386
97288W        W69713  42.520  12.104   4.176
97289W        W69714  19.353  15.582  13.948
97290W        W69715  38.784  37.082  14.510
97291W        W69716  39.495   6.927   0.796
97292W        W69717  38.290  24.736  12.057
97293W        W69718  15.322  16.190  12.417
97294W        W69719  19.555  26.051  13.912
97295W        W69720  35.031  32.436   1.905
97296W        W69721  37.842  36.996   2.910
97297W        W69722   2.817  14.386  10.826
97298W        W69723  26.667  32.536   9.905
97299W        W69724  15.693  27.662   3.258
97300W        W69725   8.351  19.630  13.046
97301W        W69726  13.795  34.910   1.853
97302W        W69727   4.786  20.798   4.263
97303W        W69728  26.103  34.060  13.756
97304W        W69729  37.364  21.596   1.778
97305W        W69730  11.764  32.114   1.960
97306W        W69731  17.164  24.335   1.442
97307W        W69732   5.882  14.566  14.706
97308W        W69733  31.031  10.846   4.120
97309W        W69734  13.187   8.348  12.475
97310W        W69735  14.627   6.978  11.222
97311W        W69736   5.253   8.768   2.643
97312W        W69737  43.205  28.325   3.725
97313W        W69738   0.596  10.381   2.780
97314W        W69739  30.404  12.917   3.262
97315W        W69740  43.698  40.755  10.662
97316W        W69741  21.129  21.069  14.797
97317W        W69742  41.366  44.923   0.503
97318W        W69743  12.399  11.371  12.895
97319W        W69744   8.597  44.634  14.763
97320W        W69745  30.417  43.480  13.383
97321W        W69746   0.088  30.060   4.880
97322W        W69747  27.762  31.128  12.137
97323W        W69748  13.116  15.642  11.450
97324W        W69749  13.097  19.723   4.526
97325W        W69750  36.515  41.510   5.173
97326W        W69751  19.804   6.868   1.924
97327W        W69752  28.655  12.201   4.594
97328W        W69753  36.528   7.457  13.504
97329W        W69754  22.530  26.051  11.032
97330W        W69755  36.536  25.490  10.928
97331W        W69756  12.633  33.590   2.309
97332W        W69757  44.657  21.225  13.918
97333W        W69758   3.643  23.419  10.194
97334W        W69759  19.018  22.577  14.349
97335W        W69760  36.545  35.548   1.880
97336W        W69761  41.935  42.442  11.309
97337W        W69762  13.172  32.007   3.154
97338W        W69763  16.272  26.159  14.271
97339W        W69764  41.798  33.517  14.725
97340W        W69765   5.350   3.257  13.733
97341W        W69766  10.146  40.605   1.375
97342W        W69767  20.017  23.259  14.864
97343W        W69768   3.480  20.835  13.984
97344W        W69769  42.003  19.604  10.691
97345W        W69770   3.802  27.453  11.327
97346W        W69771  23.684   7.125  11.189
97347W        W69772   0.752  16.195   2.213
97348W        W69773  10.735  27.027   0.489
97349W        W69774  18.971   3.385   2.734
97350W        W69775   9.813  13.067   2.317
97351W        W69776  20.272   0.682  10.726
97352W        W69777  37.402  32.381  12.490
97353W        W69778  21.227   7.070  10.602
97354W        W69779  23.099   8.113   2.179
97355W        W69780  12.734   4.215  14.797
97356W        W69781  36.303   1.837  12.908
97357W        W69782  44.996  12.920   1.256
97358W        W69783  36.900  43.239  11.625
97359W        W69784  41.868  21.719   0.007
97360W        W69785  17.562  29.683  14.698
97361W        W69786  33.773   1.674   1.872
97362W        W69787  16.146  43.491  12.156
97363W        W69788   1.506  28.247  14.808
97364W        W69789   0.337   7.906   1.774
97365W        W69790  30.814  40.076   2.277
97366W        W69791  42.099  26.364   0.403
97367W        W69792  11.882  30.878  12.921
97368W        W69793  37.987   3.348  13.294
97369W        W69794  44.427   3.199   0.795
97370W        W69795  44.942   3.912   1.295
97371W        W69796  44.411  10.378  11.245
97372W        W69797  39.461   5.928   3.075
97373W        W69798  42.346  15.167  13.816
97374W        W69799  39.884  25.844  14.998
97375W        W69800  31.104  17.795   2.516
97376W        W69801   8.668  16.618   2.333
97377W        W69802   8.433  42.590  10.502
97378W        W69803  25.202  41.069  11.031
97379W        W69804  40.447  35.622   1.411
97380W        W69805   3.190  25.945   4.842
97381W        W69806  17.664  15.544   0.747
97382W        W69807  31.646   2.826  11.944
97383W        W69808  36.536  43.412   0.530
97384W        W69809  26.086  18.166  11.340
97385W        W69810  29.490  13.245   0.861
97386W        W69811   6.895  42.913  11.594
97387W        W69812  26.531   5.448   3.436
97388W        W69813  34.380  24.398   1.090
97389W        W69814  34.492  28.420   0.036
97390W        W69815  36.033   9.953  14.254
97391W        W69816   0.435  30.846   5.047
97392W        W69817   8.653  29.495   5.000
97393W        W69818  12.797   9.594  10.970
97394W        W69819   4.950   7.431   4.101
97395W        W69820  43.072  18.828   4.107
97396W        W69821   6.436  23.814  12.987
97397W        W69822  34.993   2.682   1.166
97398W        W69823  17.293  41.621  11.662
97399W        W69824  15.805  18.778   1.960
97400W        W69825   5.429  12.062  11.141
97401W        W69826  24.940  22.206   3.324
97402W        W69827  19.059  38.962  11.500
97403W        W69828  11.580  20.523  12.881
97404W        W69829  29.552  31.157  12.017
97405W        W69830  40.743  13.833   4.961
97406W        W69831  35.972  35.098  14.889
97407W        W69832  25.250  37.990   4.742
97408W        W69833  10.215  16.178   3.708
97409W        W69834  41.900  10.793   2.156
97410W        W69835  12.193   4.166  11.006
97411W        W69836  38.645  24.567   5.046
97412W        W69837  18.652   2.605   4.736
97413W        W69838  37.592  40.104  12.427
97414W        W69839   8.239  10.253   2.926
97415W        W69840   0.920   3.687  11.976
97416W        W69841  33.186  41.076   2.694
97417W        W69842  14.188  15.035  11.051
97418W        W69843  16.273   4.219  12.132
97419W        W69844  15.863   8.161  14.430
97420W        W69845   3.485   1.664  14.375
97421W        W69846  39.966  14.397  12.337
97422W        W69847  22.472  25.087   2.784
97423W        W69848  44.537  27.524   4.729
97424W        W69849  39.773   9.639  11.546
97425W        W69850  39.300   6.658   1.631
97426W        W69851  19.092  28.606   3.346
97427W        W69852  18.486  16.833  12.156
97428W        W69853   4.265  15.463  10.939
97429W        W69854  20.733  10.345   3.755
97430W        W69855   4.952   4.368  10.281
97431W        W69856  21.643  24.608   2.395
97432W        W69857  14.415  30.635   0.582
97433W        W69858  28.546   5.152  11.528
97434W        W69859  42.032  17.658  10.475
97435W        W69860  19.721  13.769  12.086
97436W        W69861  12.156  22.649   0.879
97437W        W69862  26.451  33.315  13.786
97438W        W69863   0.033  27.643   4.817
97439W        W69864   3.341  30.991  11.647
97440W        W69865   2.400  33.576  12.207
97441W        W69866  11.861  24.647  12.260
97442W        W69867   2.459  37.034  14.837
97443W        W69868  33.039   9.027  11.627
97444W        W69869  37.415   0.469  12.503
97445W        W69870   1.831  39.975   3.276
97446W        W69871   1.127  35.117   3.762
97447W        W69872  18.433  31.807  13.269
97448W        W69873  14.181  40.995  14.805
97449W        W69874  18.140  12.323  11.873
97450W        W69875  11.709  22.159   1.238
97451W        W69876  35.202  43.197  12.405
97452W        W69877  24.740   7.627  13.891
97453W        W69878  15.863  27.430   2.784
97454W        W69879  38.607   0.431  14.555
97455W        W69880  18.495  31.691   3.844
97456W        W69881  31.674  25.545   2.190
97457W        W69882   3.721   8.200   4.089
97458W        W69883  15.604  43.277   2.188
97459W        W69884  29.898   0.166  11.149
97460W        W69885  20.455  20.703   1.888
97461W        W69886  11.169  22.691   2.782
97462W        W69887  28.128  16.490  10.216
97463W        W69888  12.973   4.427   1.692
97464W        W69889  17.815  24.835   0.020
97465W        W69890   4.207  35.533  10.553
97466W        W69891  23.154   1.197   4.644
97467W        W69892  36.773   4.809  11.194
97468W        W69893   6.372  23.299   4.216
97469W        W69894  31.062  30.204   3.649
97470W        W69895  22.321  29.642   4.208
97471W        W69896  37.769  31.083  14.731
97472W        W69897   3.413  23.239  12.034
97473W        W69898  13.698  14.167  11.077
97474W        W69899  12.287  31.186   3.824
97475W        W69900  37.463   7.700  11.928
97476W        W69901  29.702  23.685  11.479
97477W        W69902  20.797  20.628  11.850
97478W        W69903  38.346  22.689   4.588
97479W        W69904  14.130   4.449   2.034
97480W        W69905  42.990  25.233   3.303
97481W        W69906  28.448  22.696  13.896
97482W        W69907   2.334   9.768  14.730
97483W        W69908  15.287  19.188  12.538
97484W        W69909  30.273  11.236  13.844
97485W        W69910  18.558  39.757  14.297
97486W        W69911  25.198   7.362   0.863
97487W        W69912  44.841   2.403  12.547
97488W        W69913  35.892   1.240   0.071
97489W        W69914  31.836  12.816   3.225
97490W        W69915  23.268  32.424   2.797
97491W        W69916   8.965  22.567   4.536
97492W        W69917   4.683   1.563   3.203
97493W        W69918  34.950   6.371  13.773
97494W        W69919  13.808  28.135   3.252
97495W        W69920   3.746  42.421   1.734
97496W        W69921  12.801   6.962   1.885
97497W        W69922  27.898   7.227  12.121
97498W        W69923  20.681  22.351   3.320
97499W        W69924  34.584  25.969  13.774
97500W        W69925  44.966   6.722   0.453
97501W        W69926   6.356   3.442  14.627
97502W        W69927  42.503  17.799  14.875
97503W        W69928  22.923  25.326   4.979
97504W        W69929   9.828   7.690  11.593
97505W        W69930  29.155  37.854  14.813
97506W        W69931  12.640  25.010  10.044
97507W        W69932  26.137  25.328   4.050
97508W        W69933  38.301  41.920  14.660
97509W        W69934  26.458  36.926  12.972
97510W        W69935  23.011  30.390  10.334
97511W        W69936  38.466  32.532  10.417
97512W        W69937  20.517   8.149  14.691
97513W        W69938  34.552  31.565   1.176
97514W        W69939  18.676   5.216   4.076
97515W        W69940  13.560  17.522   3.720
97516W        W69941  31.406  27.651   3.216
97517W        W69942  12.043  24.162  14.926
97518W        W69943  12.583  25.992  12.541
97519W        W69944  14.722  27.681  14.086
97520W        W69945  15.355   8.327  13.529
97521W        W69946  13.572  41.097   4.105
97522W        W69947  17.057  24.573   0.470
97523W        W69948  23.436  40.015  12.785
97524W        W69949  20.672  27.454  13.603
97525W        W69950  32.071  30.628   1.163
97526W        W69951  23.148  11.833   1.156
97527W        W69952   2.275  12.644  10.572
97528W        W69953  30.912  41.457  13.367
97529W        W69954  37.491  44.829  11.257
97530W        W69955  35.150   5.275  13.528
97531W        W69956  33.482  33.284  10.700
97532W        W69957  16.181   9.280   0.968
97533W        W69958  15.507  34.968  14.767
97534W        W69959  27.340   9.172  11.207
97535W        W69960  12.849  26.161  12.138
97536W        W69961  29.190  42.227  11.168
97537W        W69962   6.284  38.706  11.141
97538W        W69963  42.976  27.714   0.911
97539W        W69964  28.495  41.089  12.220
97540W        W69965  13.634  32.385  12.900
97541W        W69966   8.594  14.654  14.312
97542W        W69967   8.403   9.382  11.647
97543W        W69968  40.358  30.333  10.680
97544W        W69969  29.139   6.514   3.645
97545W        W69970  18.363  25.745  14.980
97546W        W69971  35.468  39.447   4.338
97547W        W69972  44.867  18.189  10.859
97548W        W69973   8.749  28.154  10.429
97549W        W69974   3.846  28.710   2.085
97550W        W69975  28.099  22.921   4.204
97551W        W69976  21.438  10.658  14.868
97552W        W69977  13.106  21.058   2.931
97553W        W69978  36.453  22.049   1.822
97554W        W69979  29.640  43.657  11.437
97555W        W69980   1.955  38.091   0.032
97556W        W69981  12.300  33.495  13.344
97557W        W69982  20.993  19.371  12.104
97558W        W69983  26.805  33.603   5.080
97559W        W69984  12.299  31.999  10.999
97560W        W69985  43.404  13.820   2.706
97561W        W69986  22.134   0.237  12.558
97562W        W69987  23.035   2.464   3.361
97563W        W69988  43.365   1.840   4.333
97564W        W69989  34.916  38.107  11.625
97565W        W69990  26.204  14.347   4.411
97566W        W69991  44.941  42.193   3.882
97567W        W69992  17.261  40.891   1.907
97568W        W69993  24.121  14.857   1.122
97569W        W69994  36.450  37.294  11.221
97570W        W69995  20.610  18.362   2.667
97571W        W69996   8.612  22.751  13.532
97572W        W69997  26.171  37.431  11.984
97573W        W69998  33.832  43.251   0.430
97574W        W69999  25.065   3.776  14.384
97575W        W70000   6.082  28.869  12.945
97576W        W70001  32.091   3.387  12.477
97577W        W70002  32.203  19.347  11.540
97578W        W70003  19.678  21.578   2.278
97579W        W70004  39.550  42.412  14.949
97580W        W70005  19.676  30.421  12.517
97581W        W70006  16.663   9.363  13.052
97582W        W70007  38.188  23.308   1.722
97583W        W70008  21.571  43.088  12.956
97584W        W70009  17.370  18.802   1.297
97585W        W70010   6.216  33.062   1.880
97586W        W70011  16.572   4.798  12.578
97587W        W70012  20.204  33.054   1.853
97588W        W70013  28.855  44.856   1.219
97589W        W70014  26.748  29.946  14.073
97590W        W70015   2.986   8.697   2.844
97591W        W70016  26.965  29.052  13.477
97592W        W70017  25.207   9.002  13.784
97593W        W70018  38.829   2.847   2.588
97594W        W70019  20.909  37.488  11.128
97595W        W70020  16.782  11.393  10.501
97596W        W70021  36.607   0.984  12.940
97597W        W70022  21.783  20.476   1.316
97598W        W70023  42.261  34.069  10.814
97599W        W70024  42.711  39.803  13.991
97600W        W70025  33.353  29.500  10.615
97601W        W70026  26.945   3.685   2.264
97602W        W70027  31.602  35.960   1.859
97603W        W70028  11.810  26.421   2.837
97604W        W70029  43.291  29.902  11.172
97605W        W70030  24.647  15.137  13.475
97606W        W70031  43.413  44.172  13.755
97607W        W70032  28.546  14.127  11.106
97608W        W70033  16.807  33.120  14.904
97609W        W70034  16.114  20.051  12.968
97610W        W70035  28.921  18.842  10.711
97611W        W70036   6.760  20.075   3.105
97612W        W70037   6.071  34.706  11.997
97613W        W70038  25.660  20.915  11.680
97614W        W70039  15.614  35.969   1.093
97615W        W70040   2.410   4.698   0.740
97616W        W70041   0.922  27.707  10.288
97617W        W70042  10.151  24.688  10.562
97618W        W70043   5.848  28.439  11.336
97619W        W70044  35.911  34.697   0.241
97620W        W70045  33.122  12.657   1.431
97621W        W70046  43.917  32.040  11.525
97622W        W70047   3.002   1.265   1.118
97623W        W70048  11.209  21.810   3.340
97624W        W70049   7.825  44.193  11.931
97625W        W70050  22.051  39.307  11.902
97626W        W70051  44.603  19.061   1.343
97627W        W70052  11.112   3.308  14.425
97628W        W70053   1.637  34.181  12.473
97629W        W70054  30.220  12.799  14.480
97630W        W70055  19.325   0.059   1.825
97631W        W70056   6.581  26.715   2.994
97632W        W70057  27.593   8.357  11.509
97633W        W70058  22.843  29.923   4.514
97634W        W70059  44.931  13.904   4.618
97635W        W70060  30.705   9.243  14.877
97636W        W70061  37.316   9.828   3.847
97637W        W70062  13.037  18.667   3.885
97638W        W70063  29.626  40.073   5.075
97639W        W70064  19.240  15.035  12.023
97640W        W70065  17.287  18.303   1.136
97641W        W70066  16.018  16.676  12.323
97642W        W70067  35.398  25.986  12.846
97643W        W70068  44.276   1.173  10.844
97644W        W70069  22.654   4.013  11.153
97645W        W70070  29.157  23.028  14.064
97646W        W70071   4.043  41.769   0.983
97647W        W70072  28.074  44.934  13.362
97648W        W70073  22.956  16.822  12.411
97649W        W70074  43.016  33.985   3.652
97650W        W70075   2.042  31.267  12.978
97651W        W70076  17.354  24.304   0.129
97652W        W70077  15.492  11.843   2.381
97653W        W70078  27.971  35.006   1.688
97654W        W70079  41.047  34.749  11.155
97655W        W70080  42.954   5.968   0.769
97656W        W70081  38.373  40.842   3.757
97657W        W70082  43.868   8.577  13.401
97658W        W70083  10.250  40.233   1.891
97659W        W70084  32.073  43.099   0.976
97660W        W70085  11.761  10.310   4.601
97661W        W70086   9.703  13.774  11.455
97662W        W70087  34.621  13.830   0.283
97663W        W70088  39.483  44.238  13.202
97664W        W70089   6.470  34.913  10.731
97665W        W70090  36.383  17.268   3.359
97666W        W70091   6.232  22.606  11.967
97667W        W70092  13.712  26.287   9.785
97668W        W70093  14.895  21.031   1.648
97669W        W70094  38.128   9.194  11.897
97670W        W70095   2.519  44.351   1.876
97671W        W70096   4.974  10.616   4.939
97672W        W70097  21.693  32.943   3.216
97673W        W70098   9.544  13.803  12.851
97674W        W70099  27.872  43.871  12.360
97675W        W70100  41.976  30.178  14.336
97676W        W70101  44.406  31.161   5.127
97677W        W70102  16.283   8.498   0.346
97678W        W70103   5.578   2.112  14.989
97679W        W70104  12.697  18.055   2.741
97680W        W70105  34.116  22.465   1.901
97681W        W70106   2.266  24.963   0.230
97682W        W70107  12.345   3.787  14.565
97683W        W70108  32.559  35.052  10.741
97684W        W70109  43.096  17.124  11.093
97685W        W70110  17.301  16.785  11.171
97686W        W70111  12.160   3.281  14.456
97687W        W70112  26.659  10.065   4.879
97688W        W70113  37.535  14.059  13.864
97689W        W70114  31.602  40.323  14.878
97690W        W70115  16.050  26.171   3.236
97691W        W70116   5.119  19.711  14.438
97692W        W70117  35.040  30.862   0.190
97693W        W70118  40.492  18.131   2.317
97694W        W70119   0.044   1.533  11.493
97695W        W70120   4.211  43.724   4.045
97696W        W70121  18.645  31.431  14.080
97697W        W70122   8.755  37.454  13.441
97698W        W70123  38.616  41.640   4.228
97699W        W70124  24.239  22.643   4.851
97700W        W70125  35.325  38.875  14.308
97701W        W70126  38.064  26.142  13.880
97702W        W70127  43.569  39.886  14.898
97703W        W70128  21.033  34.188  11.859
97704W        W70129  24.546  20.663  11.534
97705W        W70130  10.342  38.330   0.457
97706W        W70131  27.831  21.699  13.100
97707W        W70132  27.171  16.639  13.397
97708W        W70133  17.128  19.993   2.680
97709W        W70134  13.052  22.365  13.338
97710W        W70135  31.930  15.047   2.365
97711W        W70136  31.463  19.505   2.567
97712W        W70137  22.691   5.343  11.052
97713W        W70138  31.431   1.258  13.498
97714W        W70139  10.041   5.102   2.349
97715W        W70140  22.173  26.573  14.878
97716W        W70141  20.079  31.068  12.804
97717W        W70142  33.448  26.043  11.687
97718W        W70143  27.605  17.202  12.162
97719W        W70144  44.613  37.837  12.002
97720W        W70145  26.113  12.221   0.242
97721W        W70146  36.959   0.435   4.599
97722W        W70147  14.327  16.076   4.754
97723W        W70148  12.193  14.581  14.762
97724W        W70149  15.880  30.575  10.718
97725W        W70150  18.836   7.427   1.228
97726W        W70151  36.607  28.712  14.996
97727W        W70152   4.233  36.702   3.702
97728W        W70153   3.979  30.977  12.285
97729W        W70154  28.384  43.581   4.151
97730W        W70155  27.169  33.347   0.171
97731W        W70156  16.628   5.020  14.390
97732W        W70157   2.016  16.231  11.743
97733W        W70158  11.248   5.940   3.600
97734W        W70159  20.545  18.222  14.990
97735W        W70160  18.230   0.725   1.292
97736W        W70161  43.752  13.165  11.116
97737W        W70162   5.853  19.740  12.994
97738W        W70163  41.997  24.597   2.745
97739W        W70164  26.256  30.435   2.372
97740W        W70165  44.999  29.744  11.135
97741W        W70166  27.406  31.116   1.776
97742W        W70167  44.447  39.392  13.857
97743W        W70168   0.884   0.282   1.824
97744W        W70169  38.510   7.828   1.169
97745W        W70170  31.923   9.664   4.245
97746W        W70171   5.266   3.568  12.067
97747W        W70172   1.886  14.569  14.393
97748W        W70173  16.020  40.473  12.291
97749W        W70174  33.592  26.283   9.847
97750W        W70175  23.694   9.930  13.856
97751W        W70176   8.251  33.727  14.537
97752W        W70177  38.145  38.042  11.971
97753W        W70178  23.843  17.207  12.859
97754W        W70179  23.698  32.095   2.056
97755W        W70180  14.128  13.610   1.271
97756W        W70181   6.424  13.742  14.786
97757W        W70182  40.272   3.665  13.439
97758W        W70183   2.221   5.206  12.502
97759W        W70184   7.929  35.215   3.653
97760W        W70185   6.577  35.897   0.825
97761W        W70186  10.177   9.103   4.104
97762W        W70187  33.382   9.255  14.568
97763W        W70188  43.247  17.620   2.346
97764W        W70189  20.156  40.238   0.161
97765W        W70190  35.131  41.569  13.929
97766W        W70191   6.474  40.418  11.056
97767W        W70192  43.386  21.989   3.681
97768W        W70193  32.580  37.372  11.227
97769W        W70194   3.828  37.729  14.395
97770W        W70195  11.853  37.980   3.142
97771W        W70196   6.980  37.989   0.864
97772W        W70197  38.923  43.443   0.992
97773W        W70198  28.704  16.358  12.723
97774W        W70199   6.752   6.584  11.475
97775W        W70200   7.718   9.498  10.819
97776W        W70201   8.303   5.509   4.555
97777W        W70202   2.294   8.840  10.914
97778W        W70203  13.304  11.620   2.283
97779W        W70204  11.817  37.290   0.897
97780W        W70205   3.542  13.236   3.176
97781W        W70206  30.486  29.194  11.696
97782W        W70207   1.047   7.436  14.350
97783W        W70208  24.627  26.598   1.374
97784W        W70209  30.317   8.797  12.179
97785W        W70210  35.534  12.578  14.873
97786W        W70211  20.294   1.272   0.740
97787W        W70212  15.309  41.800  13.426
97788W        W70213   3.746   4.892  11.693
97789W        W70214  33.117  30.070   3.238
97790W        W70215   0.861  33.620  13.535
97791W        W70216  15.357  25.710   0.077
97792W        W70217   3.264  16.193  11.103
97793W        W70218  37.831   3.169  10.755
97794W        W70219  28.431   5.377  11.091
97795W        W70220   9.395  44.423  11.910
97796W        W70221  14.752  15.367   0.503
97797W        W70222  36.865  18.510   3.815
97798W        W70223  14.121  38.413  11.936
97799W        W70224  44.230  21.700   4.502
97800W        W70225   7.563  41.891   3.106
97801W        W70226  11.875  34.478  12.472
97802W        W70227  23.731  22.787   0.381
97803W        W70228  19.748  33.525  12.425
97804W        W70229  32.534   9.577   0.493
97805W        W70230  10.410  12.553  14.755
97806W        W70231  13.888  39.805   3.331
97807W        W70232  24.495  30.104  10.176
97808W        W70233  19.233   5.020   1.703
97809W        W70234  25.745  22.657   2.465
97810W        W70235  20.782   1.485   3.222
97811W        W70236  41.296  40.987   0.754
97812W        W70237  33.488   9.661  10.557
97813W        W70238   7.326   7.849  11.593
97814W        W70239  25.736  41.765  13.832
97815W        W70240  19.865  14.864  13.457
97816W        W70241  16.263  33.397   3.744
97817W        W70242   6.833   3.792   0.722
97818W        W70243  42.607  25.521  13.069
97819W        W70244  12.820  29.652  13.573
97820W        W70245   2.309  40.478   1.287
97821W        W70246   7.123  43.443   2.754
97822W        W70247  34.535  43.222   1.786
97823W        W70248  35.611  19.723  12.534
97824W        W70249  37.959  41.227   2.735
97825W        W70250  37.023  31.190  10.985
97826W        W70251  39.868  35.919   3.064
97827W        W70252  15.319  11.928  13.349
97828W        W70253  26.774  39.532  13.460
97829W        W70254  41.412  23.650   3.120
97830W        W70255  33.421   5.438  11.114
97831W        W70256  10.131   0.856  11.523
97832W        W70257  29.147  38.111  12.752
97833W        W70258  34.436  21.997  14.859
97834W        W70259  16.644  28.679   4.250
97835W        W70260  24.206  24.514   4.219
97836W        W70261   0.835  26.639   2.889
97837W        W70262  39.655  30.705  12.539
97838W        W70263  28.440   6.978  12.854
97839W        W70264  10.856  28.556   2.021
97840W        W70265   7.981   6.169   3.594
97841W        W70266  10.030  42.602  12.564
97842W        W70267   7.086  37.807  13.647
97843W        W70268  36.599  26.365  10.985
97844W        W70269  15.149  25.672   1.879
97845W        W70270  38.046  24.946  13.388
97846W        W70271  16.959  19.526   0.054
97847W        W70272   4.483  42.489  13.408
97848W        W70273  34.918  15.084  11.422
97849W        W70274   9.273  27.016   4.718
97850W        W70275  35.451  20.956  11.034
97851W        W70276  41.286  11.151   1.212
97852W        W70277  23.593  42.585  12.499
97853W        W70278  42.007  44.612  10.040
97854W        W70279  13.684  33.882   0.961
97855W        W70280  19.119   0.041  11.516
97856W        W70281  31.983   9.532  12.918
97857W        W70282  32.625  18.326   3.713
97858W        W70283  37.787  43.886   0.392
97859W        W70284  30.529   6.681   1.712
97860W        W70285   1.431   9.979   2.842
97861W        W70286  15.747  37.081  14.901
97862W        W70287  36.669  29.456  12.559
97863W        W70288  29.790  40.565   9.836
97864W        W70289  44.394  18.443   3.243
97865W        W70290  34.198  25.062   4.191
97866W        W70291  24.064  37.837  10.810
97867W        W70292  14.761  21.217  11.192
97868W        W70293   7.364   6.793  13.312
97869W        W70294  21.649  39.843  13.942
97870W        W70295  38.063  39.403  13.834
97871W        W70296   9.301  42.261   0.472
97872W        W70297  41.163  26.607  12.827
97873W        W70298  44.582  27.915   5.063
97874W        W70299  22.083  25.978  10.789
97875W        W70300  21.192  35.817   3.448
97876W        W70301  24.279  16.687   0.065
97877W        W70302  15.037  41.382   1.247
97878W        W70303  17.290  40.488   2.731
97879W        W70304  26.560  41.937  13.907
97880W        W70305  27.587   9.621   0.934
97881W        W70306  17.546   0.504   0.838
97882W        W70307   1.331  28.424   1.912
97883W        W70308   8.220  29.219  13.363
97884W        W70309  20.720  29.660   1.446
97885W        W70310  26.951  26.959  13.531
97886W        W70311  43.922   6.292   4.361
97887W        W70312  44.761  19.220  14.409
97888W        W70313  10.894  29.695  11.595
97889W        W70314  16.987  10.833   3.699
97890W        W70315  17.120  35.104   3.697
97891W        W70316   1.728  38.309  11.904
97892W        W70317  39.916   4.710   0.971
97893W        W70318   5.248  14.613   0.281
97894W        W70319  18.365  23.925   4.709
97895W        W70320  36.016  23.896  12.562
97896W        W70321   7.184   2.401   1.179
97897W        W70322  35.332   6.790  12.034
97898W        W70323  21.938  36.188   3.825
97899W        W70324   3.467  22.000  12.469
97900W        W70325  38.948  19.169   1.474
97901W        W70326  21.034  27.878  12.809
97902W        W70327   5.308  13.143   3.093
97903W        W70328  26.825  43.500  11.624
97904W        W70329   3.598   8.804   1.994
97905W        W70330  43.029  30.113  12.938
97906W        W70331  14.797  26.058   3.750
97907W        W70332  26.170   5.310  12.122
97908W        W70333  44.866   3.009  10.601
97909W        W70334  31.554  37.777   1.754
97910W        W70335  44.411  32.847   3.692
97911W        W70336  14.034  19.577   4.213
97912W        W70337  41.923  15.677  14.756
97913W        W70338  35.855   6.881  12.085
97914W        W70339  39.427  14.493   4.328
97915W        W70340   1.783  38.028   1.867
97916W        W70341  27.198  25.041   4.748
97917W        W70342  19.197   7.800   4.012
97918W        W70343  18.774   9.917  12.483
97919W        W70344  11.269  32.498   1.975
97920W        W70345  39.005  27.912  12.937
97921W        W70346  12.182  34.586   3.839
97922W        W70347   5.490   2.873   4.884
97923W        W70348  12.244  23.979   3.518
97924W        W70349  11.790   0.021  13.393
97925W        W70350  19.186  44.725  12.661
97926W        W70351  31.091   0.512  11.682
97927W        W70352  34.629  21.985   3.183
97928W        W70353  13.885  33.316  12.479
97929W        W70354  26.187  29.865  11.038
97930W        W70355  15.589  10.847   4.315
97931W        W70356   9.367  27.878   3.187
97932W        W70357  23.296  19.218  12.850
97933W        W70358  39.326  28.370  13.574
97934W        W70359   9.304  13.375  11.942
97935W        W70360  32.316  32.942   1.888
97936W        W70361  26.572  38.811  12.912
97937W        W70362  42.420  37.761   4.823
97938W        W70363  17.078   7.234  14.187
97939W        W70364  39.502  36.336   3.465
97940W        W70365   0.977  32.710   1.347
97941W        W70366   2.515   5.453   2.314
97942W        W70367   1.424   9.983  13.787
97943W        W70368  23.907  12.753  14.231
97944W        W70369   5.748   6.017   1.169
97945W        W70370  10.590  10.652  10.813
97946W        W70371  28.553  32.527  14.839
97947W        W70372   6.476  43.706  11.611
97948W        W70373  22.684  12.524  14.597
97949W        W70374  36.552  42.136   1.251
97950W        W70375  24.513   8.378  12.396
97951W        W70376  37.274  23.559   1.540
97952W        W70377  15.315  26.131  11.389
97953W        W70378  32.820  28.418  11.969
97954W        W70379   7.180   6.088   4.082
97955W        W70380  32.754  20.676   2.771
97956W        W70381  38.824  23.992  12.529
97957W        W70382  38.025   7.603  13.176
97958W        W70383  42.538   6.210   4.589
97959W        W70384  19.509   2.128   3.859
97960W        W70385  14.516   7.071   4.972
97961W        W70386  40.403   1.261   1.854
97962W        W70387  26.393  32.938  14.419
97963W        W70388  15.765  17.463  13.582
97964W        W70389  16.080  40.419  10.850
97965W        W70390   8.054   6.406  12.623
97966W        W70391  26.959   9.067   0.030
97967W        W70392  15.564  31.005  14.837
97968W        W70393   0.542  39.494   1.754
97969W        W70394  30.652  44.518   0.894
97970W        W70395  20.144   1.129   4.638
97971W        W70396  39.562   0.370  14.201
97972W        W70397  14.213  11.960   0.046
97973W        W70398  30.566  37.581  13.313
97974W        W70399  35.925  16.019   1.273
97975W        W70400   1.816  13.084  13.123
97976W        W70401  20.654  13.617   2.855
97977W        W70402   7.811  37.405   4.193
97978W        W70403   3.880  19.987   1.265
97979W        W70404  34.597   3.254   1.739
97980W        W70405  43.545  18.254   1.121
97981W        W70406  10.802  21.857   5.469
97982W        W70407  37.433  16.869   0.371
97983W        W70408  22.201  33.052   4.083
97984W        W70409  33.967  44.175   1.168
97985W        W70410  28.958   3.387  13.833
97986W        W70411  40.599  28.192   1.346
97987W        W70412  27.538   9.769   1.766
97988W        W70413  41.007   6.868  10.973
97989W        W70414  11.758  24.712  13.844
97990W        W70415  43.724  32.523   1.414
97991W        W70416  24.468  15.742   3.618
97992W        W70417  28.679  16.745   4.084
97993W        W70418  11.694  35.415   4.744
97994W        W70419  13.702   4.374   4.365
97995W        W70420  20.777   5.948   4.725
97996W        W70421  30.618  35.230   3.256
97997W        W70422   2.608   3.005   1.324
97998W        W70423  15.119  38.665   1.357
97999W        W70424  10.248  16.451  10.405
98000W        W70425  29.470  40.993   9.817
98001W        W70426  18.293  24.637  14.973
98002W        W70427  41.464  38.739   0.823
98003W        W70428  33.625  41.729   3.263
98004W        W70429  17.157   3.741  14.504
98005W        W70430  38.427  37.605  11.952
98006W        W70431  31.489  12.862   2.654
98007W        W70432  33.319  14.100  13.028
98008W        W70433  34.933  18.871   0.314
98009W        W70434  32.352   5.102   1.336
98010W        W70435  13.802   9.622   4.859
98011W        W70436  12.308   8.743   1.177
98012W        W70437  40.482  42.777  13.566
98013W        W70438  39.324   6.795   2.158
98014W        W70439  19.632  29.526   1.817
98015W        W70440  10.274  25.494  13.464
98016W        W70441  29.713   9.741   2.079
98017W        W70442  39.292  27.902  13.373
98018W        W70443  29.933  14.911  11.160
98019W        W70444  28.481  26.797  12.883
98020W        W70445  20.649   8.780  10.784
98021W        W70446  39.536  18.208  12.034
98022W        W70447  18.133  16.772  11.739
98023W        W70448  35.674  29.230   0.944
98024W        W70449  38.039   9.911   0.992
98025W        W70450  23.154  14.618   0.320
98026W        W70451  40.575   5.261  13.343
98027W        W70452  26.256  17.562   1.284
98028W        W70453  29.324  15.554  11.232
98029W        W70454  21.015  30.380  10.746
98030W        W70455  36.349  19.488   4.586
98031W        W70456   4.916  18.344  12.485
98032W        W70457   1.752   2.711   4.529
98033W        W70458  43.871  36.586   4.286
98034W        W70459  38.445  23.671  13.957
98035W        W70460  20.153   7.640   2.836
98036W        W70461  32.439   4.262   1.497
98037W        W70462  18.248   2.129  10.486
98038W        W70463   5.406  16.872  14.879
98039W        W70464  20.745   5.123  10.957
98040W        W70465  18.900  26.762   1.664
98041W        W70466  34.339  12.153  14.899
98042W        W70467  16.211  30.410  14.281
98043W        W70468  33.324  11.612  11.890
98044W        W70469  42.460  15.772  10.476
98045W        W70470   3.328  34.642  12.466
98046W        W70471  40.887  38.336  12.626
98047W        W70472  42.386  38.650  12.877
98048W        W70473  31.950   2.363   0.664
98049W        W70474   1.474  23.075   4.665
98050W        W70475  35.687  23.374  10.962
98051W        W70476   1.887  38.549   3.772
98052W        W70477  21.040   7.014   1.296
98053W        W70478  16.291  18.513  14.793
98054W        W70479  33.835   1.448   3.633
98055W        W70480  18.752  17.169  14.748
98056W        W70481  41.380  10.673   2.212
98057W        W70482  43.050  18.426   2.468
98058W        W70483  37.191  10.148   1.646
98059W        W70484   3.955  26.529  13.020
98060W        W70485  20.324   1.044   1.231
98061W        W70486   4.164  23.052  13.241
98062W        W70487  43.915  12.297   1.275
98063W        W70488  44.252  39.008  10.596
98064W        W70489  28.230  43.756  14.942
98065W        W70490  38.100  39.783  11.619
98066W        W70491  29.425  11.243  14.058
98067W        W70492   9.636  44.927  11.556
98068W        W70493   7.909   3.792   4.803
98069W        W70494  35.178  22.574  11.179
98070W        W70495  28.198  29.426   3.561
98071W        W70496  23.953  35.347   1.875
98072W        W70497  17.275  22.247  14.569
98073W        W70498   0.946  20.501  11.629
98074W        W70499  27.578  33.522   3.325
98075W        W70500  29.080  41.221   4.168
98076W        W70501  34.016  16.237  14.763
98077W        W70502  37.063  25.588  14.314
98078W        W70503  36.403  10.106  10.598
98079W        W70504  35.558  39.473  10.744
98080W        W70505  28.107  21.741  10.673
98081W        W70506   9.192  10.657  12.028
98082W        W70507  27.709  35.847   0.760
98083W        W70508  44.397  24.491  11.669
98084W        W70509   0.326  14.569   4.074
98085W        W70510  26.603  41.356   0.713
98086W        W70511   3.840  26.748   0.294
98087W        W70512  32.971  13.523   2.715
98088W        W70513   9.321  44.445  14.462
98089W        W70514   2.863  30.896   0.135
98090W        W70515  42.903  18.137  11.092
98091W        W70516  17.552  13.678  13.482
98092W        W70517  31.023  27.884  11.710
98093W        W70518  14.387   5.220  13.112
98094W        W70519   0.024  44.584  11.214
98095W        W70520  13.679  33.112   4.309
98096W        W70521  44.354  35.564  10.786
98097W        W70522  18.817   8.822   1.250
98098W        W70523  42.962  24.184   0.884
98099W        W70524  43.939  13.641  10.984
98100W        W70525  13.190  42.859  11.684
98101W        W70526   5.371  24.026   3.707
98102W        W70527  27.928  39.844  10.612
98103W        W70528  27.344  17.043   0.918
98104W        W70529   1.813   0.838  13.525
98105W        W70530  41.271  14.521  14.388
98106W        W70531  18.659  24.447   0.311
98107W        W70532  25.253   3.680  13.889
98108W        W70533  32.698  40.150  13.387
98109W        W70534  17.754  16.792   2.900
98110W        W70535  26.109  10.724  10.645
98111W        W70536   8.723  43.447  13.601
98112W        W70537   1.995  37.311  12.010
98113W        W70538  21.073  28.675   1.462
98114W        W70539  27.652  44.951   4.177
98115W        W70540   5.708   1.336   0.482
98116W        W70541  22.101   9.047  11.854
98117W        W70542  30.515  18.460   0.275
98118W        W70543  16.772   2.697  12.453
98119W        W70544  17.551  28.127  12.968
98120W        W70545  32.660  23.105  11.868
98121W        W70546   4.323  14.136  14.630
98122W        W70547  28.542  13.576   2.003
98123W        W70548  13.340  34.663   1.955
98124W        W70549  34.741  28.224  13.836
98125W        W70550  10.119  21.074   0.519
98126W        W70551  19.242  33.429   5.151
98127W        W70552  20.340  38.582  11.103
98128W        W70553  33.730  19.037  12.321
98129W        W70554  24.155  38.826   2.693
98130W        W70555   6.064  16.404   1.085
98131W        W70556  27.442  41.377   3.068
98132W        W70557  12.936   4.193  11.518
98133W        W70558   2.414  28.151   4.179
98134W        W70559  12.395  29.207   3.650
98135W        W70560   6.666  43.952  14.220
98136W        W70561   9.225  12.615  10.599
98137W        W70562  25.743  13.889   3.635
98138W        W70563  23.436  42.926  10.559
98139W        W70564   3.267  11.713   3.670
98140W        W70565  10.775  11.103  13.546
98141W        W70566  18.825   1.209  11.972
98142W        W70567  37.051  13.757  12.377
98143W        W70568  37.587  11.142  10.829
98144W        W70569  18.362  37.403   5.065
98145W        W70570   0.706  32.003   3.670
98146W        W70571  15.661  25.660  12.536
98147W        W70572  19.928   5.977  12.492
98148W        W70573  12.623  27.422   0.355
98149W        W70574  27.124   6.701   0.497
98150W        W70575   9.120   4.484  11.954
98151W        W70576   2.727  35.371   1.709
98152W        W70577  38.521  21.615  14.928
98153W        W70578  26.248  16.727  14.948
98154W        W70579  15.152  40.081   1.424
98155W        W70580  36.679  34.703  11.170
98156W        W70581  23.528  11.407  13.780
98157W        W70582  39.103   4.636   0.742
98158W        W70583  30.014  10.793   3.475
98159W        W70584   9.006   2.404   1.741
98160W        W70585  33.392  29.737  12.005
98161W        W70586  30.490  21.065   3.641
98162W        W70587  27.472  40.858   0.452
98163W        W70588  13.540  24.616   3.711
98164W        W70589  22.309  12.102   5.133
98165W        W70590   3.977   5.960  14.678
98166W        W70591  27.925  40.622   5.561
98167W        W70592   2.858   3.672   1.121
98168W        W70593   4.671  35.998  12.620
98169W        W70594   9.325   1.020   2.701
98170W        W70595  27.925  20.749  10.904
98171W        W70596   6.114  24.506  11.148
98172W        W70597  40.214  23.551  12.734
98173W        W70598  13.760   0.257   3.658
98174W        W70599  42.582  23.118   2.543
98175W        W70600  43.081  33.989   1.685
98176W        W70601  30.602  39.420   1.723
98177W        W70602  15.109  27.074  11.004
98178W        W70603   8.437   5.418  13.877
98179W        W70604  25.907  34.880   1.809
98180W        W70605  33.665  19.648  13.072
98181W        W70606  23.677   3.082   3.678
98182W        W70607  31.119  28.286   2.201
98183W        W70608   1.734  23.277  12.999
98184W        W70609   3.750  19.437   2.696
98185W        W70610   8.683  14.849   3.278
98186W        W70611  40.557   5.321   0.926
98187W        W70612   3.806  32.303  11.568
98188W        W70613  37.537  24.192  14.810
98189W        W70614  20.992  29.576   3.187
98190W        W70615  21.014  14.764   4.564
98191W        W70616  29.886  34.372   0.940
98192W        W70617  17.015  15.621   1.398
98193W        W70618  37.450  26.660   3.916
98194W        W70619   6.721  44.872   0.002
98195W        W70620  28.404   3.942   3.840
98196W        W70621  21.002  12.786   0.416
98197W        W70622  22.669   2.306  14.018
98198W        W70623   7.916   8.281  13.537
98199W        W70624  20.723  10.804   4.077
98200W        W70625   2.740  30.586   1.932
98201W        W70626   3.854  20.497   4.392
98202W        W70627  20.121  35.059   3.660
98203W        W70628  16.259  28.523   0.327
98204W        W70629  42.401   2.799   4.500
98205W        W70630  10.324   2.524   5.045
98206W        W70631   8.480  44.330  11.175
98207W        W70632  41.781  11.467   5.183
98208W        W70633  35.285  39.885   0.451
98209W        W70634  15.367  14.719  10.934
98210W        W70635   7.272  25.651   1.675
98211W        W70636  31.231  38.619  11.114
98212W        W70637  43.477  44.278   1.702
98213W        W70638  31.534  22.929   2.699
98214W        W70639  29.066  44.234  13.306
98215W        W70640   8.353  22.095   0.588
98216W        W70641  44.338  16.521   0.299
98217W        W70642  34.138  43.914  11.212
98218W        W70643  42.530   7.445   3.575
98219W        W70644  26.143  40.010   0.288
98220W        W70645   0.808  10.894  14.088
98221W        W70646  41.295  17.743  14.314
98222W        W70647  14.359  17.783   4.073
98223W        W70648   0.530  21.486  13.844
98224W        W70649  24.868  26.147  11.647
98225W        W70650  31.036  37.062  13.944
98226W        W70651  35.024  14.779  13.634
98227W        W70652   1.526  44.921  14.516
98228W        W70653  19.750  31.469  14.807
98229W        W70654  39.814  44.582  14.564
98230W        W70655   5.490   8.476   1.734
98231W        W70656  36.683   1.189  14.492
98232W        W70657  27.456  36.622  14.718
98233W        W70658   3.868  34.221  11.295
98234W        W70659  39.040  22.588   0.871
98235W        W70660  42.585  39.685  12.832
98236W        W70661  18.714  22.167   3.741
98237W        W70662  39.075  27.124   0.432
98238W        W70663  30.212  13.140   4.474
98239W        W70664  15.016  41.310   4.489
98240W        W70665  36.007  21.205   2.049
98241W        W70666  25.009  13.632  11.097
98242W        W70667  37.903  23.099  12.854
98243W        W70668  16.083   6.202  11.621
98244W        W70669  44.712  16.133   0.472
98245W        W70670  12.689  43.017   0.306
98246W        W70671  25.891  20.027   0.090
98247W        W70672  24.224  10.862  11.122
98248W        W70673  32.247  32.199  12.369
98249W        W70674  41.444  13.642  12.019
98250W        W70675  29.712  32.417   4.506
98251W        W70676  41.523  32.529   0.484
98252W        W70677  21.165  13.127   1.484
98253W        W70678  41.969  15.046  12.844
98254W        W70679  16.928   2.002  14.303
98255W        W70680  31.599  17.134   1.893
98256W        W70681  12.443   4.327  11.444
98257W        W70682  12.786  37.470  12.418
98258W        W70683   0.099  33.941   0.932
98259W        W70684  14.327  32.705   2.628
98260W        W70685  35.137   7.879  14.801
98261W        W70686   5.820  40.302  14.801
98262W        W70687  12.770  15.721   4.753
98263W        W70688  19.328  21.313  12.544
98264W        W70689  43.017  41.553  10.649
98265W        W70690  13.789   7.076   1.379
98266W        W70691  29.960  20.510   1.342
98267W        W70692  43.078  10.232  10.447
98268W        W70693   3.011  12.458  12.828
98269W        W70694   1.251  12.829   2.868
98270W        W70695   1.126  25.620  12.944
98271W        W70696  14.595  23.585  13.330
98272W        W70697  14.137  44.770   2.155
98273W        W70698  17.481   3.687  12.042
98274W        W70699   2.427  29.010   2.733
98275W        W70700  30.193   7.382   4.181
98276W        W70701  41.478  30.946  14.299
98277W        W70702  27.180  20.566   2.845
98278W        W70703  14.830  16.295  12.517
98279W        W70704  40.018  42.205  14.900
98280W        W70705  41.006  32.076   1.708
98281W        W70706  13.225  19.513   0.879
98282W        W70707  37.561  21.271   2.912
98283W        W70708   3.936  19.163   4.198
98284W        W70709  20.029  26.200  14.022
98285W        W70710   6.230  10.664   3.744
98286W        W70711  29.401  16.674   4.651
98287W        W70712  23.013  34.965   3.197
98288W        W70713  14.882  28.207   3.792
98289W        W70714   3.738  21.492  10.588
98290W        W70715  39.373  28.062  11.623
98291W        W70716  21.792  29.470  12.870
98292W        W70717  14.155  29.030  14.228
98293W        W70718  18.842   3.414  13.040
98294W        W70719   8.433  21.774  13.283
98295W        W70720  44.692  12.236   2.935
98296W        W70721  35.356   3.708   2.818
98297W        W70722  36.836  11.754  13.474
98298W        W70723  21.397  12.212   5.518
98299W        W70724  15.545  23.147  12.412
98300W        W70725  22.318   9.312  12.580
98301W        W70726   5.908   9.592  12.408
98302W        W70727  17.582  28.037   0.349
98303W        W70728  20.463  17.763  13.748
98304W        W70729  10.503  23.811   5.478
98305W        W70730   9.287  33.002   4.122
98306W        W70731  40.809  11.316   4.315
98307W        W70732   0.440  11.156   0.858
98308W        W70733  17.925  27.759  13.003
98309W        W70734  34.935   7.136   4.538
98310W        W70735  23.894  41.769   1.781
98311W        W70736   3.339  12.680  11.477
98312W        W70737  37.101  13.685   3.097
98313W        W70738   4.573  33.540  14.573
98314W        W70739  35.035  29.596   1.232
98315W        W70740  23.152  41.877   3.223
98316W        W70741  39.068  20.914  14.938
98317W        W70742   5.227   6.552   2.208
98318W        W70743  35.631  13.414  11.202
98319W        W70744  12.714  19.564   0.697
98320W        W70745  34.227  29.978   4.516
98321W        W70746  16.968  15.286   0.961
98322W        W70747  19.027  20.266  12.327
98323W        W70748  42.482  44.483   1.845
98324W        W70749  42.464  35.381  11.909
98325W        W70750  43.027  32.993   0.405
98326W        W70751  10.247  21.565   2.797
98327W        W70752  22.370  21.000  10.658
98328W        W70753   9.203  40.065  12.633
98329W        W70754  35.543  25.918  11.990
98330W        W70755   7.326  35.622   1.908
98331W        W70756   2.942   3.480  13.567
98332W        W70757  34.990   0.550  12.409
98333W        W70758  12.799  39.381   2.818
98334W        W70759   6.817  29.144   1.500
98335W        W70760   6.316  31.462  10.766
98336W        W70761  30.420  37.651   0.139
98337W        W70762  31.883   7.277  13.327
98338W        W70763  15.686  16.116   3.679
98339W        W70764   8.696   4.620  14.783
98340W        W70765  29.550  44.462  13.118
98341W        W70766  22.030  17.994  13.299
98342W        W70767   0.745  22.191   0.513
98343W        W70768  25.482  26.760   2.854
98344W        W70769  13.791  36.298   1.242
98345W        W70770  23.558  38.024   0.962
98346W        W70771  37.045  33.538  10.578
98347W        W70772  16.690  38.021  13.443
98348W        W70773   6.825  26.278   0.580
98349W        W70774  23.343   7.725   2.995
98350W        W70775  22.575  44.944  13.402
98351W        W70776  19.359   2.530   4.256
98352W        W70777  12.107  29.061   3.246
98353W        W70778  38.773   7.212   1.438
98354W        W70779   4.960  13.272   2.134
98355W        W70780  32.483  35.657   4.553
98356W        W70781   0.951   9.184  14.956
98357W        W70782   5.380   5.830   4.675
98358W        W70783  33.543  26.940   0.876
98359W        W70784  37.118   9.654   1.757
98360W        W70785  13.685  30.694   4.195
98361W        W70786  28.442  14.187  11.620
98362W        W70787   0.252  31.601   1.424
98363W        W70788  33.531  41.330   3.619
98364W        W70789  22.713  36.434  13.879
98365W        W70790  36.019  33.483  10.355
98366W        W70791  13.857  27.762   2.880
98367W        W70792   2.717  42.262  13.733
98368W        W70793  33.842  24.698   4.239
98369W        W70794  37.877  29.931  11.733
98370W        W70795  26.860   6.325  11.221
98371W        W70796  17.709  39.827  10.728
98372W        W70797  19.204  28.013  13.018
98373W        W70798  38.940  11.877   4.102
98374W        W70799   5.197  12.124   0.717
98375W        W70800  42.265   6.700  13.272
98376W        W70801  34.037  32.526   1.988
98377W        W70802  19.700   8.713   1.974
98378W        W70803  28.310  34.069  14.969
98379W        W70804  37.914  22.490   0.316
98380W        W70805  36.347  20.553   1.312
98381W        W70806  27.367  35.411   4.192
98382W        W70807   2.257  39.010  14.068
98383W        W70808  26.309  14.909  10.781
98384W        W70809  35.279   5.464  14.854
98385W        W70810  29.120  30.905  10.716
98386W        W70811  22.230  25.330  14.594
98387W        W70812  10.443  20.969   1.985
98388W        W70813   7.545  40.551  12.667
98389W        W70814   4.198  12.966   3.845
98390W        W70815  25.146   9.510   3.366
98391W        W70816   9.271   9.658  12.149
98392W        W70817  44.277  32.346   3.729
98393W        W70818  41.454  36.351   0.828
98394W        W70819  13.322  31.577  14.807
98395W        W70820  18.706  14.003   0.888
98396W        W70821  25.347  33.599  10.013
98397W        W70822  37.490  22.750  12.560
98398W        W70823  20.710  34.878   4.310
98399W        W70824  27.489  43.358  11.145
98400W        W70825  30.057  41.994   2.927
98401W        W70826   7.923  12.326  11.552
98402W        W70827   3.247   9.883   3.105
98403W        W70828  14.879  26.421  10.427
98404W        W70829  33.787  44.717   2.265
98405W        W70830  23.463  20.752  11.477
98406W        W70831  23.685   4.367   1.693
98407W        W70832  15.851  31.891  12.521
98408W        W70833   4.225  28.571  14.786
98409W        W70834  30.060  39.118   9.917
98410W        W70835  31.960   0.800  12.935
98411W        W70836  39.597  21.575  13.384
98412W        W70837   8.116  15.383   2.436
98413W        W70838  32.023  43.110  12.974
98414W        W70839   5.957  15.766   3.278
98415W        W70840  40.950   4.365   2.585
98416W        W70841  11.734   0.334  11.170
98417W        W70842  15.605  26.535   1.626
98418W        W70843  17.875   6.840  12.383
98419W        W70844  11.631  36.847  14.886
98420W        W70845   6.282  40.090  14.477
98421W        W70846   5.674  37.476   4.422
98422W        W70847  44.041   6.286   2.841
98423W        W70848  25.621  23.964  14.495
98424W        W70849  25.457  36.515  13.383
98425W        W70850  13.546  38.857   2.768
98426W        W70851   3.447   3.927   3.186
98427W        W70852  19.717  21.072  13.234
98428W        W70853  16.828  10.281   4.172
98429W        W70854  26.373  26.247   0.401
98430W        W70855  39.253  37.973  13.958
98431W        W70856  11.775  22.504   2.615
98432W        W70857   3.132  37.458   2.349
98433W        W70858  14.137  23.309   4.717
98434W        W70859   8.219  11.111  11.499
98435W        W70860   5.521  14.186   0.423
98436W        W70861   3.521   4.128   3.724
98437W        W70862  35.998  26.818   1.372
98438W        W70863  37.075   6.141   2.782
98439W        W70864   0.209  32.521  14.541
98440W        W70865  11.172  31.578   1.944
98441W        W70866  18.304  11.251   0.681
98442W        W70867  11.002  21.057   4.290
98443W        W70868  18.133  10.328  10.613
98444W        W70869  18.653  41.030  12.126
98445W        W70870  17.125  12.241   4.539
98446W        W70871   8.247  41.455   2.185
98447W        W70872  13.574  38.151  13.227
98448W        W70873  17.266  25.737  13.766
98449W        W70874  37.422   0.211   2.257
98450W        W70875  32.894  16.724  14.436
98451W        W70876  17.183  41.576  14.857
98452W        W70877  36.018  33.824   2.632
98453W        W70878  27.875  34.946   0.281
98454W        W70879   3.974  28.100   3.774
98455W        W70880  39.353  39.339  14.857
98456W        W70881  25.496  32.997  14.055
98457W        W70882  18.024  41.020   4.541
98458W        W70883  42.536  29.019   3.860
98459W        W70884   1.901  44.404   3.638
98460W        W70885   7.355  16.143   1.711
98461W        W70886  29.353  12.126  12.083
98462W        W70887  32.532   3.387   1.864
98463W        W70888  21.644  43.407  10.744
98464W        W70889  26.972  42.970   1.340
98465W        W70890  19.505  26.610   5.011
98466W        W70891  25.535  11.567  11.521
98467W        W70892   0.193  42.887   3.312
98468W        W70893  11.062   7.658   3.102
98469W        W70894  14.863  16.033  11.082
98470W        W70895   0.409  42.034   3.372
98471W        W70896   6.411  11.487   4.000
98472W        W70897  44.401  32.331   2.434
98473W        W70898  32.132   8.954   0.415
98474W        W70899  31.246   9.325  10.743
98475W        W70900  10.013   2.497   1.636
98476W        W70901  35.321   1.935   4.585
98477W        W70902  35.187  30.143   0.850
98478W        W70903  20.804   1.314  14.788
98479W        W70904  21.568   1.271  13.978
98480W        W70905  26.177  38.380   1.827
98481W        W70906  33.051  21.154   4.670
98482W        W70907   1.247  18.030  13.428
98483W        W70908  18.625  24.161   0.809
98484W        W70909  30.065   6.376  14.860
98485W        W70910  26.482  36.050   1.440
98486W        W70911  38.359  16.056  12.550
98487W        W70912   8.506   9.301   2.661
98488W        W70913  35.482   0.350  12.456
98489W        W70914   0.479  39.565   0.957
98490W        W70915  23.777  12.266   1.892
98491W        W70916  17.547  29.016   1.696
98492W        W70917   8.884  30.253   0.747
98493W        W70918  25.982  13.784   3.197
98494W        W70919  20.765  36.840   1.898
98495W        W70920  38.754  35.841  12.575
98496W        W70921   8.389  44.960   2.778
98497W        W70922  10.542  12.259  12.968
98498W        W70923  39.334  39.348  13.396
98499W        W70924   3.759  26.761  12.184
98500W        W70925  44.977  28.953   0.996
98501W        W70926  31.066  12.785  12.955
98502W        W70927  23.658  10.747  13.024
98503W        W70928   7.444  17.876  10.365
98504W        W70929  16.419  38.096   4.193
98505W        W70930  27.041  11.023  10.597
98506W        W70931  12.192  18.111  12.897
98507W        W70932  43.876   7.838  14.070
98508W        W70933  22.506  44.212  11.028
98509W        W70934  40.440  23.684   3.735
98510W        W70935   8.772   4.293   3.682
98511W        W70936  44.870   3.552  12.393
98512W        W70937  12.884  28.632  14.579
98513W        W70938  15.852   3.582  14.293
98514W        W70939  22.218  11.069  13.518
98515W        W70940  30.066  29.464   0.228
98516W        W70941  31.193  34.043  13.460
98517W        W70942  44.699  30.938  14.066
98518W        W70943  34.865  27.659  11.039
98519W        W70944  24.551  23.045   2.441
98520W        W70945  16.599  20.690   4.799
98521W        W70946  27.570  15.363  10.844
98522W        W70947   0.650  41.916  11.378
98523W        W70948  38.785  23.971   5.087
98524W        W70949  39.649  39.663  11.077
98525W        W70950  33.959  33.871   3.585
98526W        W70951  10.217  24.018   0.331
98527W        W70952  26.164  19.092  14.952
98528W        W70953   0.217  34.286  12.551
98529W        W70954   4.292  34.442  13.708
98530W        W70955  17.743  37.909  14.034
98531W        W70956   2.277   6.590  14.274
98532W        W70957  11.157   6.664   4.817
98533W        W70958  19.949  36.027   2.881
98534W        W70959  24.354   4.406  13.531
98535W        W70960  40.030  14.812  14.791
98536W        W70961  39.956   8.727  14.924
98537W        W70962   8.042  36.959   4.063
98538W        W70963  44.906  16.701   1.924
98539W        W70964  40.511  14.441  12.189
98540W        W70965  16.044  31.079   1.279
98541W        W70966  42.553   6.323   0.844
98542W        W70967  15.387   7.116  13.099
98543W        W70968   1.923  20.454  14.825
98544W        W70969  38.305   8.437   4.637
98545W        W70970   9.692  32.690  10.529
98546W        W70971   6.246  35.535   4.093
98547W        W70972  13.279   3.727   2.354
98548W        W70973  44.269  10.818   2.827
98549W        W70974  35.528  38.300   0.774
98550W        W70975  26.942  44.302  12.924
98551W        W70976   5.383  25.572  12.903
98552W        W70977  15.711  21.705  10.986
98553W        W70978  11.414  30.873   4.077
98554W        W70979  36.979  40.352  11.958
98555W        W70980   1.572  41.255   2.277
98556W        W70981   6.342  44.876   0.835
98557W        W70982  29.092  15.611   2.241
98558W        W70983  42.571  43.044  14.432
98559W        W70984  16.994  35.412  10.506
98560W        W70985  11.134   8.310   1.948
98561W        W70986  12.106   9.688   3.667
98562W        W70987   1.821   9.305   1.553
98563W        W70988  18.060  11.864   1.356
98564W        W70989   7.826  13.919   3.724
98565W        W70990  40.772  41.993   2.732
98566W        W70991  44.368  22.245   2.324
98567W        W70992   7.890  20.140   1.465
98568W        W70993  37.280  35.197  12.013
98569W        W70994  38.188  26.950   0.795
98570W        W70995   1.351   6.058  12.426
98571W        W70996  44.875  39.787   2.269
98572W        W70997   1.486  29.980   1.794
98573W        W70998   6.765  25.566   2.475
98574W        W70999  42.477  10.880   2.404
98575W        W71000  38.822  21.566  13.844
98576W        W71001  27.700   6.677  14.753
98577W        W71002  29.352  41.665   1.199
98578W        W71003  19.579   7.367  14.245
98579W        W71004  32.855  43.677  14.465
98580W        W71005  16.261   5.157  14.748
98581W        W71006  16.042  27.934  14.423
98582W        W71007  20.765  13.783  14.417
98583W        W71008  36.641  19.199   1.554
98584W        W71009  21.818  27.368  11.149
98585W        W71010  14.365  19.052  14.364
98586W        W71011  41.583  39.510  12.863
98587W        W71012   5.279  13.014   0.005
98588W        W71013  28.830   3.457   1.184
98589W        W71014  34.903  43.335  12.023
98590W        W71015  43.168  41.590   2.821
98591W        W71016  43.394  11.914  11.855
98592W        W71017  31.077  21.594  14.762
98593W        W71018  30.916  31.131  14.002
98594W        W71019  23.985   8.738   5.010
98595W        W71020  24.460   4.858  12.376
98596W        W71021  22.952   9.436   4.156
98597W        W71022   0.326   9.608   0.133
98598W        W71023   3.023  31.266  14.779
98599W        W71024   9.918   3.053  14.858
98600W        W71025   1.220   5.633  14.109
98601W        W71026  39.307  14.181  11.126
98602W        W71027   5.748  13.662  12.600
98603W        W71028   5.200   1.773  10.772
98604W        W71029  29.969  39.930  13.908
98605W        W71030  11.711   2.882  10.999
98606W        W71031  16.679  31.906   3.908
98607W        W71032  20.202  19.957  11.149
98608W        W71033  17.734   5.946   0.421
98609W        W71034  39.036  39.411   2.629
98610W        W71035  33.647  24.865  10.509
98611W        W71036   3.531  43.310   2.219
98612W        W71037  43.975  13.782   3.886
98613W        W71038  10.075  15.291  11.137
98614W        W71039  20.085  21.742  12.475
98615W        W71040  29.561  25.481   4.517
98616W        W71041  42.300  28.708   0.504
98617W        W71042  43.744  30.142   4.643
98618W        W71043   4.621   3.651   0.336
98619W        W71044  25.665  16.071   4.218
98620W        W71045  37.815  38.414   3.814
98621W        W71046   6.399   4.963   0.981
98622W        W71047   0.783  16.758  12.613
98623W        W71048  16.536  19.788  12.834
98624W        W71049  14.946  26.232  14.947
98625W        W71050  10.877  29.510   2.498
98626W        W71051  23.174  27.631  12.520
98627W        W71052  27.345   4.225  12.561
98628W        W71053  39.617  18.359  12.520
98629W        W71054   7.309  33.903  11.969
98630W        W71055  30.909  23.138  13.286
98631W        W71056  25.711  15.302  14.396
98632W        W71057  22.508  31.638   3.335
98633W        W71058  17.850  17.345   1.791
98634W        W71059  35.075  11.664  12.490
98635W        W71060  39.716  12.164  14.334
98636W        W71061   3.657   0.018  13.492
98637W        W71062  10.337  33.956  12.301
98638W        W71063  15.680  25.239  12.211
98639W        W71064  43.539   1.222   2.974
98640W        W71065  38.763   3.365   0.515
98641W        W71066  36.362  15.714  14.364
98642W        W71067  32.515  23.069   2.992
98643W        W71068  40.076  17.586   1.251
98644W        W71069  32.202  12.283  10.702
98645W        W71070  38.870   1.938  14.928
98646W        W71071   9.369   8.114  13.024
98647W        W71072  10.344   0.797   0.024
98648W        W71073   7.951  25.146   1.622
98649W        W71074   7.454   8.463  11.978
98650W        W71075  21.052  12.861  11.360
98651W        W71076  29.622  23.135   1.910
98652W        W71077   8.429  23.530   4.473
98653W        W71078  12.829  22.040  14.324
98654W        W71079  12.304  23.905   2.260
98655W        W71080  22.910  43.729   1.819
98656W        W71081  15.264   9.196   2.131
98657W        W71082  34.750  13.153   2.804
98658W        W71083  37.609  29.195   2.670
98659W        W71084  11.607  19.913  10.344
98660W        W71085  11.728  35.867  14.840
98661W        W71086  14.832   0.493   1.349
98662W        W71087   8.733  35.434  12.926
98663W        W71088   6.291  39.328  13.941
98664W        W71089  14.845  15.137   2.530
98665W        W71090   4.863   0.856  14.972
98666W        W71091  39.046  27.385  13.112
98667W        W71092  28.875  38.453   5.005
98668W        W71093   8.132   1.819  13.570
98669W        W71094   6.353  26.284   2.821
98670W        W71095  14.800   6.857   3.787
98671W        W71096  18.737  23.934   0.333
98672W        W71097  17.596  21.592  10.391
98673W        W71098  39.347  10.910  14.890
98674W        W71099  25.556  38.882   2.448
98675W        W71100  18.163  38.810  13.778
98676W        W71101  44.063  44.852  11.109
98677W        W71102  16.446  34.114   1.807
98678W        W71103  22.173  12.099   0.830
98679W        W71104  36.614  21.939   1.327
98680W        W71105   9.859  17.662  11.115
98681W        W71106   3.980   8.129  12.367
98682W        W71107  23.873  28.614  10.429
98683W        W71108   9.590   1.441  13.462
98684W        W71109   5.633  22.607   3.144
98685W        W71110   1.081  11.184  10.920
98686W        W71111  40.931  34.855   1.347
98687W        W71112  19.850  22.090  10.461
98688W        W71113  25.007  41.100   3.289
98689W        W71114  21.349  14.869  12.441
98690W        W71115  21.164  24.438  11.002
98691W        W71116   8.450  26.481   4.688
98692W        W71117  29.595  33.097   1.926
98693W        W71118  41.504  29.633  12.509
98694W        W71119  21.115  26.415  14.437
98695W        W71120   4.679  25.297   4.067
98696W        W71121   2.238   4.283  10.199
98697W        W71122  42.289  12.097   3.718
98698W        W71123  17.191  44.694   4.157
98699W        W71124  40.437   3.810  11.454
98700W        W71125  12.588   3.824  10.150
98701W        W71126  11.462  38.186  14.359
98702W        W71127  30.834   8.686  11.563
98703W        W71128  31.616   6.288   4.701
98704W        W71129  41.541  11.572  10.731
98705W        W71130  33.108   5.237  14.281
98706W        W71131  38.502   2.542  12.257
98707W        W71132  18.876  17.874   3.135
98708W        W71133  14.148  16.882  10.727
98709W        W71134  22.026   9.416   4.979
98710W        W71135  11.171  42.517   5.142
98711W        W71136  11.073  40.382  14.005
98712W        W71137   8.685  40.917   2.680
98713W        W71138  13.605  41.093  14.492
98714W        W71139  36.093  20.497  10.483
98715W        W71140  24.502   4.389   1.015
98716W        W71141  39.759  20.818  11.219
98717W        W71142  33.494  29.532   5.326
98718W        W71143  17.965  14.382   0.157
98719W        W71144  11.529   9.718   2.363
98720W        W71145  31.097  16.801  11.563
98721W        W71146  11.593  38.964  13.311
98722W        W71147   7.388   5.113  11.130
98723W        W71148  33.784   1.034   4.666
98724W        W71149  13.721  40.331  12.166
98725W        W71150   6.614  12.277   0.863
98726W        W71151  35.069  37.441   2.802
98727W        W71152  44.808  26.474   3.280
98728W        W71153  30.680  30.650   0.893
98729W        W71154   3.250  12.585  12.364
98730W        W71155  43.476   1.459   3.436
98731W        W71156  21.095  31.499  13.512
98732W        W71157  25.611  41.227   4.605
98733W        W71158   2.199  24.142  13.758
98734W        W71159  27.945   1.224  11.430
98735W        W71160  14.133   0.215   4.397
98736W        W71161  16.170  38.563   4.085
98737W        W71162  29.988  11.721  11.071
98738W        W71163   4.380  41.854  14.620
98739W        W71164  39.805   7.702  12.547
98740W        W71165  36.311  34.633   1.882
98741W        W71166  37.332  23.002  12.122
98742W        W71167  33.065  44.076   0.410
98743W        W71168  17.811   3.899  11.092
98744W        W71169  21.209   2.680   1.462
98745W        W71170  12.289  37.574   2.441
98746W        W71171  34.449  42.842   4.261
98747W        W71172  16.936   0.714   0.927
98748W        W71173   9.090  20.317  12.150
98749W        W71174  31.975   1.458  12.124
98750W        W71175  20.855  44.059   2.498
98751W        W71176  40.408  14.773  10.606
98752W        W71177  39.485  21.263   0.632
98753W        W71178  20.357  10.909   3.252
98754W        W71179  17.850  23.785   3.235
98755W        W71180  40.164  24.744  11.528
98756W        W71181   0.306  37.597   2.211
98757W        W71182  32.630  35.111  13.469
98758W        W71183  15.307  17.825  12.173
98759W        W71184  34.805  12.167   3.729
98760W        W71185  41.298   3.649   4.534
98761W        W71186  22.344  11.115  10.410
98762W        W71187  41.850   2.774   4.579
98763W        W71188  34.359   4.524   4.722
98764W        W71189  33.566  26.705   0.306
98765W        W71190   9.187   2.341   3.549
98766W        W71191  43.293  17.591   3.260
98767W        W71192   8.105  17.250   0.973
98768W        W71193  25.723  31.980  11.500
98769W        W71194  38.591  14.091   4.125
98770W        W71195  12.888   2.638   1.354
98771W        W71196  31.401  35.695  13.082
98772W        W71197  33.410  44.880  12.943
98773W        W71198   2.303   4.842   1.631
98774W        W71199  43.118  14.792   2.452
98775W        W71200  42.312  17.628  14.415
98776W        W71201  34.414  21.489   3.272
98777W        W71202  36.420  40.408  12.778
98778W        W71203  36.331  15.226  14.199
98779W        W71204  15.016  16.599   1.345
98780W        W71205  35.726  35.629  12.913
98781W        W71206  36.992  15.048   4.936
98782W        W71207  26.513   0.327   0.062
98783W        W71208   2.504  12.861   4.040
98784W        W71209  24.443  30.376  12.470
98785W        W71210  21.082  41.261   1.848
98786W        W71211  32.546  41.998  12.047
98787W        W71212  20.020  38.776   2.593
98788W        W71213  30.098   3.529  13.363
98789W        W71214  43.423  42.233   3.641
98790W        W71215  21.504  40.811  13.845
98791W        W71216  14.717  41.516   4.127
98792W        W71217   5.904  18.245   4.728
98793W        W71218  39.511  29.942  11.913
98794W        W71219  23.143  32.050   2.001
98795W        W71220  14.795  44.934   1.445
98796W        W71221  11.812   1.030  11.630
98797W        W71222  44.881  38.925  12.778
98798W        W71223   3.873  40.791   0.928
98799W        W71224  19.030  39.859   2.152
98800W        W71225  33.016   3.174   2.912
98801W        W71226  39.947  15.222   2.922
98802W        W71227  31.604  29.799   1.186
98803W        W71228  17.289  22.775  10.654
98804W        W71229   4.502  19.015  10.683
98805W        W71230   9.709  15.084   0.085
98806W        W71231  22.495   2.828   4.883
98807W        W71232  10.382  16.200  10.836
98808W        W71233  11.171  17.512  13.834
98809W        W71234  14.208  33.908   5.190
98810W        W71235  19.575   0.845   1.696
98811W        W71236  11.118  30.058  13.898
98812W        W71237  41.544  30.482   4.129
98813W        W71238  26.220  25.068  10.643
98814W        W71239  38.959   8.757   1.520
98815W        W71240  26.481  27.608  12.916
98816W        W71241  28.347  16.556  10.730
98817W        W71242  12.839  17.664  10.690
98818W        W71243  30.360  21.667   2.469
98819W        W71244   4.909  14.726   0.678
98820W        W71245  29.554  11.768   0.388
98821W        W71246   7.095   2.937  12.618
98822W        W71247   9.875  16.707  13.497
98823W        W71248   5.452  23.993  11.434
98824W        W71249  27.706  37.236   2.739
98825W        W71250   6.124  30.502   4.459
98826W        W71251   1.860  36.455   1.689
98827W        W71252   1.316   1.904  10.699
98828W        W71253  15.963   9.193   3.950
98829W        W71254  37.657  12.095   3.723
98830W        W71255   6.269   2.398  12.813
98831W        W71256  15.526  10.864  14.807
98832W        W71257  16.178  39.586  12.624
98833W        W71258  23.933  22.068   1.855
98834W        W71259  34.497   7.277  10.982
98835W        W71260  33.655   2.798   0.705
98836W        W71261  33.351  43.291  14.301
98837W        W71262   2.430  39.612   1.817
98838W        W71263  17.039   1.284  14.782
98839W        W71264   4.961   0.356  14.909
98840W        W71265  26.196  25.272  12.991
98841W        W71266  15.133  24.801   2.223
98842W        W71267   4.346  12.655   1.905
98843W        W71268  31.242  41.627  13.908
98844W        W71269   0.927  16.422   4.112
98845W        W71270  22.155  44.014   2.207
98846W        W71271  11.932  23.302  14.697
98847W        W71272  20.711  17.677  13.296
98848W        W71273  10.263  31.454  12.578
98849W        W71274   2.245  34.985   4.517
98850W        W71275  19.633  38.461   3.648
98851W        W71276  21.216   8.690  12.984
98852W        W71277  13.436  34.126  10.705
98853W        W71278  35.194  21.179   5.066
98854W        W71279  24.427   6.752  13.341
98855W        W71280  21.846   0.482   1.778
98856W        W71281   9.098  14.870  13.568
98857W        W71282  33.951  22.511  10.617
98858W        W71283   4.762   1.030  12.501
98859W        W71284  24.704  11.796  13.466
98860W        W71285  26.938  21.896  14.987
98861W        W71286  16.244  10.339  13.829
98862W        W71287  40.530   9.591   2.809
98863W        W71288  34.134   3.492  12.940
98864W        W71289   9.692  29.601  12.246
98865W        W71290  13.119  15.910   4.411
98866W        W71291   1.679  19.167   3.962
98867W        W71292  33.777   3.494   0.236
98868W        W71293   8.419   8.786  14.887
98869W        W71294  17.137  37.795  13.552
98870W        W71295  22.490  29.062   9.877
98871W        W71296  36.392  20.294  11.615
98872W        W71297  33.249  30.569  11.475
98873W        W71298  27.451  11.022  11.145
98874W        W71299  24.949   9.728   0.737
98875W        W71300  10.271  26.536  13.384
98876W        W71301  42.673  18.541   2.116
98877W        W71302  26.289  38.599   5.265
98878W        W71303   5.302  35.546  14.554
98879W        W71304  32.864  28.921   3.709
98880W        W71305   0.847  17.835   4.187
98881W        W71306  24.981  12.641   1.428
98882W        W71307   6.845  28.651   0.186
98883W        W71308  37.486  19.703  10.235
98884W        W71309   9.922  22.511  14.797
98885W        W71310   4.795  43.111   1.365
98886W        W71311  10.469   2.233   1.610
98887W        W71312  24.524  39.067   0.182
98888W        W71313  16.108  25.714  13.467
98889W        W71314   5.674  15.595  12.696
98890W        W71315  23.632  41.557  11.689
98891W        W71316  13.664  11.853  14.014
98892W        W71317  39.498  36.814  11.970
98893W        W71318  26.585   1.295   2.760
98894W        W71319  42.252   0.362   3.161
98895W        W71320  31.988  39.025  13.200
98896W        W71321  31.508   0.697   3.302
98897W        W71322  30.098  23.276   1.719
98898W        W71323  30.538  36.859  12.869
98899W        W71324  37.438  30.994  12.951
98900W        W71325  22.491  15.681  14.915
98901W        W71326  20.755  22.759  13.530
98902W        W71327  41.275   0.868   0.523
98903W        W71328  41.895  42.834   0.210
98904W        W71329  22.538  32.994  14.967
98905W        W71330  15.078  22.542  12.527
98906W        W71331  21.503  25.002   1.827
98907W        W71332   4.284  24.297   3.204
98908W        W71333  13.926  35.080   2.707
98909W        W71334  27.540  38.969  13.012
98910W        W71335  31.089  36.331  11.650
98911W        W71336   1.800  25.193   0.372
98912W        W71337  36.910  42.269   4.178
98913W        W71338   9.440  40.881   0.944
98914W        W71339   0.979  33.582   3.105
98915W        W71340   8.864  42.734  14.918
98916W        W71341  42.577  16.608  11.358
98917W        W71342  40.773  38.880  14.338
98918W        W71343   5.643  27.604  10.996
98919W        W71344   6.320  10.147   1.164
98920W        W71345  30.203   3.342   0.026
98921W        W71346  44.654  15.594   5.154
98922W        W71347   6.918  44.834  12.925
98923W        W71348  13.519  43.974  10.675
98924W        W71349  44.006  39.705  10.664
98925W        W71350  26.986   2.298   4.722
98926W        W71351  15.165   7.216   2.882
98927W        W71352   0.345   7.061   0.474
98928W        W71353  31.030  16.823  12.425
98929W        W71354  19.608  32.586  11.471
98930W        W71355  34.287   5.216  13.966
98931W        W71356  18.371  30.642   2.331
98932W        W71357  18.799  22.180   1.008
98933W        W71358  27.521  26.127   1.894
98934W        W71359   7.716  12.834   4.157
98935W        W71360  23.242  21.520  14.353
98936W        W71361   9.721  29.422  12.958
98937W        W71362  13.258  36.114  10.095
98938W        W71363  42.035  14.701   4.745
98939W        W71364  36.161  24.577   3.808
98940W        W71365  21.193  18.341   2.212
98941W        W71366   6.811   3.974  10.398
98942W        W71367  35.245  39.530   4.841
98943W        W71368  21.728   4.870  12.938
98944W        W71369   2.262   5.325   2.799
98945W        W71370  25.451  32.316   4.612
98946W        W71371   6.595  40.782   4.049
98947W        W71372  12.649  17.989   0.915
98948W        W71373  25.974  27.546  13.086
98949W        W71374  42.885  25.329   4.548
98950W        W71375  31.986   5.872  14.044
98951W        W71376   7.392  42.028  11.724
98952W        W71377  24.172   5.689  13.915
98953W        W71378  19.046  35.312  12.069
98954W        W71379   4.805  15.135   0.973
98955W        W71380  35.310   1.569  14.464
98956W        W71381  34.058  29.186  10.981
98957W        W71382  29.242  41.465   0.737
98958W        W71383  42.974   9.007   1.869
98959W        W71384  19.158  29.932   0.234
98960W        W71385   9.081  38.015  11.545
98961W        W71386  36.097  40.764  11.277
98962W        W71387   3.575  43.936  11.256
98963W        W71388  24.588  20.680   2.718
98964W        W71389  20.801   1.615  14.357
98965W        W71390  11.731  33.923   1.084
98966W        W71391  16.280  33.692   4.222
98967W        W71392  32.592  11.692  10.170
98968W        W71393   4.564  17.283  11.608
98969W        W71394  32.117  31.615   0.544
98970W        W71395  28.490  10.348  14.789
98971W        W71396   0.237  24.464   2.358
98972W        W71397  28.639   7.016  13.338
98973W        W71398   7.322  21.171   1.801
98974W        W71399   0.747  43.718   2.091
98975W        W71400  10.186  13.628  14.826
98976W        W71401   9.170  10.369   4.057
98977W        W71402  41.486  42.152   1.707
98978W        W71403  37.446  18.048  13.461
98979W        W71404   7.884  41.825  12.563
98980W        W71405  16.317   3.116   4.136
98981W        W71406   6.235   2.682  14.385
98982W        W71407  28.054  44.418  10.605
98983W        W71408  19.069  42.096   3.734
98984W        W71409  27.101  41.386  10.662
98985W        W71410   1.073   1.246  10.918
98986W        W71411   2.917   1.753  13.445
98987W        W71412  29.558  23.732  13.324
98988W        W71413  16.605  39.290  12.323
98989W        W71414  24.606  11.322   0.404
98990W        W71415   0.179   5.604  14.805
98991W        W71416   6.030  10.935   4.166
98992W        W71417  38.561  19.688  11.238
98993W        W71418  23.443  39.516  11.982
98994W        W71419  32.358  23.303   3.863
98995W        W71420  29.727   2.540  11.079
98996W        W71421  36.990   4.015  13.857
98997W        W71422  13.388  20.466   3.634
98998W        W71423  11.263  32.669  12.659
98999W        W71424  19.831  42.877  10.476
99000W        W71425  18.142  20.313  14.041
99001W        W71426   9.646   5.633  11.127
99002W        W71427  44.278  44.701   2.732
99003W        W71428   5.776  14.273  13.965
99004W        W71429  43.405  35.579  12.512
99005W        W71430  37.351  33.191   4.782
99006W        W71431  22.735  34.988  13.938
99007W        W71432  29.907  43.301   2.850
99008W        W71433   5.677   5.475   0.277
99009W        W71434  22.443  42.988   4.070
99010W        W71435  13.591  12.286  11.518
99011W        W71436  25.675  12.052  11.554
99012W        W71437  26.597  20.334  13.744
99013W        W71438  27.448  43.229   1.410
99014W        W71439  34.817  11.927  12.124
99015W        W71440  41.559   8.239   1.457
99016W        W71441   8.793  12.393  12.461
99017W        W71442  28.450  44.855   3.654
99018W        W71443  23.146  18.535   0.010
99019W        W71444  30.053   1.298  11.896
99020W        W71445   7.992   1.210  11.073
99021W        W71446  23.296   8.443   0.312
99022W        W71447   4.386  35.436  13.980
99023W        W71448  27.712   1.904   3.502
99024W        W71449  21.995  15.724  14.946
99025W        W71450  33.794  34.975   2.355
99026W        W71451  27.055  23.461   2.385
99027W        W71452  23.332  30.030  13.406
99028W        W71453   5.756  12.240   4.047
99029W        W71454  19.810   0.021   1.983
99030W        W71455  14.512  28.031   2.208
99031W        W71456  12.789  22.993  10.543
99032W        W71457  40.265   4.836  10.846
99033W        W71458  35.923  27.486  10.677
99034W        W71459  39.054  22.718  10.658
99035W        W71460   8.434  29.517  12.621
99036W        W71461   5.214   3.398  11.170
99037W        W71462  37.632  29.043  14.052
99038W        W71463  41.799  17.190  10.382
99039W        W71464  43.262  21.627   5.692
99040W        W71465  16.044  27.161   3.175
99041W        W71466  18.114  38.391  10.628
99042W        W71467  38.482  14.685  14.091
99043W        W71468   1.207   0.846   0.031
99044W        W71469   9.473  29.038  10.651
99045W        W71470  18.508   6.139  13.519
99046W        W71471  16.665  22.076   0.797
99047W        W71472  26.540   8.472   2.371
99048W        W71473  11.011  43.775  13.107
99049W        W71474  25.897   6.834   0.723
99050W        W71475  20.532  24.471   0.985
99051W        W71476   5.472  40.550   0.785
99052W        W71477  12.180  30.352  10.744
99053W        W71478   6.711   0.409  14.908
99054W        W71479  37.907  14.832   0.786
99055W        W71480  29.944  41.741  10.427
99056W        W71481  21.972  44.954   4.006
99057W        W71482  17.581   8.667  12.400
99058W        W71483  28.826  36.649  11.954
99059W        W71484  41.092  14.642   4.136
99060W        W71485  23.645  17.222  13.830
99061W        W71486   1.337  30.644   1.519
99062W        W71487   9.587   8.240   2.412
99063W        W71488  26.987  35.931   2.688
99064W        W71489   4.899  13.400   1.635
99065W        W71490  24.483   1.813   1.006
99066W        W71491  38.853  28.270   0.454
99067W        W71492  22.197  34.103   0.544
99068W        W71493  38.409  33.692  11.534
99069W        W71494  23.965  41.535  13.347
99070W        W71495   4.219  43.836   2.085
99071W        W71496  18.273  20.088   1.118
99072W        W71497  26.115  21.569  13.651
99073W        W71498  41.887  34.437  11.118
99074W        W71499  41.584  25.499  12.947
99075W        W71500   0.457  28.177   1.155
99076W        W71501  36.736  16.539  13.889
99077W        W71502  24.519  41.505  13.430
99078W        W71503  11.237  43.366  11.112
99079W        W71504  21.167  24.661  14.328
99080W        W71505  41.518  25.528   0.248
99081W        W71506  11.341   3.306   4.900
99082W        W71507  12.762  33.176   2.715
99083W        W71508   2.253  36.416   1.349
99084W        W71509  42.539  18.567  11.030
99085W        W71510  29.393  32.170   4.147
99086W        W71511  32.348  23.615   2.151
99087W        W71512  32.547  27.994   1.693
99088W        W71513   7.260  15.208   4.612
99089W        W71514  41.231  35.036   0.442
99090W        W71515  21.114  24.829  12.318
99091W        W71516   7.198  16.555  13.444
99092W        W71517  25.556  21.001   0.759
99093W        W71518  23.282  29.193  12.532
99094W        W71519  14.041  23.486   4.234
99095W        W71520  35.372  29.590   0.023
99096W        W71521  40.404   0.311   4.621
99097W        W71522  28.382  37.989   2.421
99098W        W71523  32.858  17.442   0.177
99099W        W71524  38.752   8.397   0.554
99100W        W71525  43.838   2.290  14.810
99101W        W71526  12.647  10.805   3.232
99102W        W71527  33.819   9.162   3.156
99103W        W71528   2.384  29.740  11.897
99104W        W71529  39.459   7.608  13.757
99105W        W71530  22.640  37.680  12.512
99106W        W71531  29.749  35.904   2.274
99107W        W71532  21.566  37.961  11.686
99108W        W71533  24.176  25.168   2.781
99109W        W71534  19.557   2.003  14.811
99110W        W71535  11.363  33.031  10.554
99111W        W71536  31.514  32.403   0.937
99112W        W71537  23.894  34.591   3.115
99113W        W71538  13.364   2.898   3.501
99114W        W71539   5.866   7.612  14.792
99115W        W71540  14.884  25.326   4.352
99116W        W71541  40.296  12.193   4.116
99117W        W71542  39.750  36.034  14.499
99118W        W71543   6.751   7.363  13.720
99119W        W71544  37.061  29.664  11.915
99120W        W71545  44.329  11.464  11.166
99121W        W71546  33.220  41.984  14.835
99122W        W71547   9.450  18.446  11.535
99123W        W71548  36.827  27.490   2.421
99124W        W71549  41.114  29.680  12.844
99125W        W71550  34.452  32.449   2.315
99126W        W71551  28.034  33.034  12.742
99127W        W71552  25.290  25.436   0.721
99128W        W71553  42.362  23.647   1.262
99129W        W71554  37.600  29.554  11.999
99130W        W71555  29.032  21.865  10.496
99131W        W71556   8.276  30.664   1.549
99132W        W71557  12.711  25.091  12.215
99133W        W71558   2.412  11.788  10.785
99134W        W71559  15.158  23.551   2.431
99135W        W71560   3.750  25.155  12.997
99136W        W71561  40.300  13.111  13.785
99137W        W71562  31.437  42.409   1.573
99138W        W71563  43.166   5.701  11.992
99139W        W71564  27.596   2.582   1.358
99140W        W71565   7.902   9.409   1.283
99141W        W71566  17.545  44.558  14.856
99142W        W71567  14.467   0.878  12.559
99143W        W71568  16.112  40.376  13.055
99144W        W71569  18.239  33.379   5.428
99145W        W71570  36.820  36.450  13.121
99146W        W71571  20.438  28.933  14.660
99147W        W71572  19.298  22.301  12.478
99148W        W71573  15.618   3.020   0.080
99149W        W71574   1.227  39.405   3.290
99150W        W71575  37.711   9.952  13.690
99151W        W71576  42.572  14.664  11.967
99152W        W71577  37.636  44.369   2.820
99153W        W71578   0.170  34.641  13.849
99154W        W71579  27.566   1.438  11.682
99155W        W71580  32.435  28.102  11.282
99156W        W71581  43.820  42.586  11.063
99157W        W71582  17.044  11.860   2.791
99158W        W71583  33.475  14.776   4.982
99159W        W71584  12.257  30.291   4.571
99160W        W71585  11.194  28.508  11.080
99161W        W71586  17.794  14.509  13.814
99162W        W71587  44.683   5.780  10.501
99163W        W71588   4.002   7.603  12.464
99164W        W71589  22.266  12.698  11.393
99165W        W71590  10.635  15.247   0.339
99166W        W71591  40.352  35.243  12.095
99167W        W71592  23.972  17.781   3.743
99168W        W71593  11.361  14.362  11.039
99169W        W71594  40.841  37.778  13.493
99170W        W71595  28.710  10.148   2.990
99171W        W71596  25.530   5.792  14.812
99172W        W71597  39.065  28.084   2.411
99173W        W71598  25.246  12.408  12.384
99174W        W71599  17.170   6.830  14.520
99175W        W71600  26.023   4.370   2.877
99176W        W71601   1.704   6.355   1.677
99177W        W71602  31.944  40.328   0.749
99178W        W71603   2.995   6.648   3.043
99179W        W71604  20.783  34.892  13.523
99180W        W71605  12.772  24.455   5.167
99181W        W71606   0.386  31.673  11.397
99182W        W71607  36.019  35.525   1.885
99183W        W71608  41.189  39.529  14.627
99184W        W71609  23.202  31.418  11.716
99185W        W71610   8.790   3.327  12.131
99186W        W71611  15.720  21.726  12.599
99187W        W71612   1.752  14.692  13.430
99188W        W71613  23.277  29.970   4.794
99189W        W71614   2.265   9.592  12.075
99190W        W71615   4.968  22.622  13.609
99191W        W71616   5.378  38.072   2.973
99192W        W71617  33.347   9.066  13.555
99193W        W71618  10.664  16.824   1.315
99194W        W71619  18.013  10.791  13.331
99195W        W71620   4.956  44.803   0.771
99196W        W71621  41.486  15.651  12.619
99197W        W71622  20.523  15.035   2.795
99198W        W71623  29.660  43.977  12.938
99199W        W71624  16.199   5.987   3.840
99200W        W71625  37.590  43.344   1.821
99201W        W71626  12.030  20.068   2.721
99202W        W71627  20.312  40.014  13.042
99203W        W71628  24.041  27.986   1.011
99204W        W71629  14.945   6.337   4.605
99205W        W71630  19.278  31.046   0.815
99206W        W71631  12.843  39.507   4.664
99207W        W71632   7.599  12.115   4.651
99208W        W71633  19.316  32.061   3.825
99209W        W71634  44.347  18.242   1.806
99210W        W71635  34.666  41.727   0.354
99211W        W71636  20.672  21.603   2.658
99212W        W71637  15.119  34.424   3.772
99213W        W71638   1.820  22.709   1.132
99214W        W71639  32.593  41.472   1.331
99215W        W71640  22.720  33.598  13.929
99216W        W71641  39.055  10.881   5.053
99217W        W71642  11.547   2.551   2.825
99218W        W71643  36.638  33.439  11.575
99219W        W71644  10.812   0.250   3.354
99220W        W71645  40.296   4.850   4.205
99221W        W71646  17.678   9.818  10.673
99222W        W71647   7.467  29.693  14.784
99223W        W71648   9.252  44.833   0.956
99224W        W71649  32.033  13.146   2.594
99225W        W71650  16.531  11.747  13.639
99226W        W71651  12.156  21.656  12.428
99227W        W71652  41.252   2.344   4.005
99228W        W71653  35.112  28.939  13.080
99229W        W71654   4.691  36.037  11.331
99230W        W71655   1.968  26.513  14.810
99231W        W71656   0.829  38.122   2.842
99232W        W71657  33.913   0.305  12.825
99233W        W71658  13.325  34.359   2.389
99234W        W71659  39.123   7.179   5.049
99235W        W71660  28.774  27.482  14.393
99236W        W71661  41.330   3.963   4.123
99237W        W71662  43.863  39.058   1.858
99238W        W71663  13.093  35.471   3.141
99239W        W71664  43.924  29.949  14.796
99240W        W71665  34.184  37.816  13.927
99241W        W71666  10.099  15.343   3.350
99242W        W71667   3.446   5.683   0.844
99243W        W71668  41.824  21.989   4.076
99244W        W71669  30.390  10.984  12.146
99245W        W71670  44.267  32.242  10.275
99246W        W71671  11.178  23.606   2.202
99247W        W71672   8.664   7.167   3.679
99248W        W71673  27.228  41.431  13.064
99249W        W71674   0.297   6.887  10.718
99250W        W71675  22.599   2.463   1.232
99251W        W71676  37.414  41.564  13.570
99252W        W71677  32.137  43.266  14.581
99253W        W71678   6.993  42.298  12.013
99254W        W71679  11.893  28.611   3.350
99255W        W71680  17.713  35.365  14.743
99256W        W71681  41.781  18.694   1.233
99257W        W71682  10.398   4.750  10.982
99258W        W71683  38.607  34.561   1.814
99259W        W71684   8.241  23.943  11.680
99260W        W71685   2.291  14.175  13.701
99261W        W71686   0.860   2.904  13.061
99262W        W71687  39.646  39.916  12.532
99263W        W71688  10.365   1.977   2.158
99264W        W71689  23.595   8.797   1.349
99265W        W71690  31.414  34.611   4.454
99266W        W71691  11.244   2.411  10.592
99267W        W71692  20.229   0.930  11.164
99268W        W71693   6.477  29.221   0.945
99269W        W71694  36.908  21.967  12.635
99270W        W71695  27.432  36.482   3.821
99271W        W71696  40.027  29.341   2.335
99272W        W71697  34.718   0.829  12.872
99273W        W71698  15.271  15.751  10.957
99274W        W71699   1.363  23.177  13.588
99275W        W71700  40.213  37.347  10.758
99276W        W71701  16.300  23.980   3.358
99277W        W71702   2.861  34.095   1.222
99278W        W71703  29.186  21.058   0.781
99279W        W71704  39.913  28.110  11.614
99280W        W71705  10.647  41.594   0.310
99281W        W71706  32.400  37.520   0.343
99282W        W71707  25.496  31.967   4.252
99283W        W71708   4.062  16.365  13.008
99284W        W71709   4.779   2.744  14.863
99285W        W71710  27.753  30.574  10.080
99286W        W71711  32.114  32.563   4.603
99287W        W71712   1.354  41.882   2.710
99288W        W71713  13.701  19.271  11.577
99289W        W71714   3.286  20.636   2.676
99290W        W71715  31.307  40.717  12.312
99291W        W71716  26.818  27.013  14.024
99292W        W71717  27.036  12.048  10.688
99293W        W71718  18.816  15.616   3.041
99294W        W71719  16.675  14.388   4.357
99295W        W71720  17.194  35.390   3.261
99296W        W71721  40.095   0.708   2.801
99297W        W71722  14.382   4.400  10.605
99298W        W71723   1.984   3.792   1.595
99299W        W71724  17.096   1.751   9.911
99300W        W71725   5.748   1.426  13.492
99301W        W71726  22.084  15.021   3.657
99302W        W71727   1.284  14.061  12.052
99303W        W71728  30.627  16.551  11.654
99304W        W71729  43.215  30.259  11.539
99305W        W71730  21.618  35.411   2.697
99306W        W71731  38.722   8.131   3.780
99307W        W71732   6.902  39.403   1.212
99308W        W71733  12.799  18.233  11.369
99309W        W71734  37.930  14.343  11.965
99310W        W71735  39.841   9.455  12.950
99311W        W71736  42.855  10.896  12.506
99312W        W71737  44.255  41.244  14.378
99313W        W71738   8.589  22.984  11.166
99314W        W71739   6.571   7.841  13.595
99315W        W71740   4.181  12.133  14.418
99316W        W71741  23.245  37.522  11.056
99317W        W71742  16.075   2.641   4.197
99318W        W71743  40.000  15.162   0.255
99319W        W71744  35.976  10.329   3.200
99320W        W71745  11.625  44.717  13.010
99321W        W71746  22.006  36.312  10.747
99322W        W71747  41.072  37.580  13.037
99323W        W71748   1.306  29.914  12.386
99324W        W71749  37.541  35.418   1.790
99325W        W71750  17.157  15.316  11.965
99326W        W71751   2.481  12.860   3.264
99327W        W71752  24.078  24.877   0.888
99328W        W71753  30.773  40.286   1.152
99329W        W71754  12.326   8.066  10.638
99330W        W71755  37.447  22.641   0.092
99331W        W71756  11.833   1.966   1.567
99332W        W71757   3.208   0.532   0.939
99333W        W71758   2.370   5.332   4.939
99334W        W71759  12.703   0.073   4.594
99335W        W71760  26.824  34.027  11.165
99336W        W71761  12.706  20.035  10.621
99337W        W71762  16.665  14.801   0.002
99338W        W71763  17.713   7.740   3.150
99339W        W71764  40.493  26.479  11.951
99340W        W71765  23.521  39.967   4.538
99341W        W71766  30.559  37.999   4.596
99342W        W71767   7.861  43.266  13.122
99343W        W71768   5.407  18.466  14.028
99344W        W71769  34.966   4.640  14.881
99345W        W71770  19.816   3.508  12.908
99346W        W71771   4.514  42.926   3.784
99347W        W71772   5.441  14.220   2.249
99348W        W71773   7.283   4.947   0.942
99349W        W71774  15.111  10.887  13.431
99350W        W71775  10.782  34.511  11.465
99351W        W71776  11.331  33.871  14.822
99352W        W71777  33.978   3.186   3.270
99353W        W71778  35.390   3.291   4.755
99354W        W71779  11.297   0.723  14.196
99355W        W71780  31.795  14.159  12.490
99356W        W71781  36.911  28.050   3.183
99357W        W71782  22.635  22.103  12.137
99358W        W71783  30.932  17.562  12.038
99359W        W71784  30.384   5.740   0.762
99360W        W71785   1.951  44.807   0.364
99361W        W71786  11.683  10.179   1.441
99362W        W71787  32.988  17.513  10.736
99363W        W71788  29.398  27.570  10.934
99364W        W71789  16.075  43.021   3.266
99365W        W71790   1.945  23.976  14.743
99366W        W71791  12.184  21.765   0.514
99367W        W71792   2.458   4.895   3.589
99368W        W71793  11.380  19.599   0.304
99369W        W71794  28.034  27.240  10.983
99370W        W71795  24.101  44.736  11.885
99371W        W71796  41.231   3.858  14.453
99372W        W71797  44.805  14.005   3.296
99373W        W71798  26.680  17.205  10.099
99374W        W71799  40.868   0.914   3.246
99375W        W71800   6.330  27.565   1.356
99376W        W71801  34.311   3.450   1.315
99377W        W71802  28.840  38.836  13.514
99378W        W71803  21.062  28.091   4.149
99379W        W71804  19.640  33.172  11.106
99380W        W71805  34.676   6.313   0.787
99381W        W71806  21.349  14.306   2.695
99382W        W71807  11.849  14.031  11.062
99383W        W71808  18.665  42.506  10.412
99384W        W71809  42.741  10.101   4.910
99385W        W71810  43.495   2.868  11.239
99386W        W71811   1.321   4.945  13.584
99387W        W71812  31.610  38.584   4.324
99388W        W71813  32.614  36.868  11.196
99389W        W71814   9.452  33.016  13.431
99390W        W71815  43.915  14.253  12.982
99391W        W71816  17.222  29.590   4.345
99392W        W71817   2.656  18.855  12.689
99393W        W71818  17.311  17.073   2.751
99394W        W71819  10.920  13.202   3.251
99395W        W71820  30.910   4.439  13.209
99396W        W71821  25.320  40.051   0.714
99397W        W71822  40.972  30.013   4.649
99398W        W71823   6.834  33.369   3.096
99399W        W71824  21.355  35.188  10.942
99400W        W71825   4.487  33.238   2.252
99401W        W71826   6.922   9.244   4.955
99402W        W71827  36.087  18.062  10.190
99403W        W71828   2.815   5.217   4.715
99404W        W71829  37.683  35.238  13.016
99405W        W71830  22.009   1.090  12.491
99406W        W71831  44.965  32.223  12.982
99407W        W71832  22.531   4.414  12.946
99408W        W71833  38.948  36.946   0.737
99409W        W71834  24.613  30.856  13.772
99410W        W71835   2.756   4.124  11.931
99411W        W71836  16.512  43.419  11.423
99412W        W71837   4.722  31.887   4.574
99413W        W71838  39.669  15.251  13.771
99414W        W71839   7.231   8.207  10.528
99415W        W71840   6.896   2.270  14.469
99416W        W71841  29.565  40.484  10.294
99417W        W71842  30.334   4.788   4.673
99418W        W71843  25.438  36.878  13.900
99419W        W71844  19.884  35.270   0.858
99420W        W71845   7.181  41.899   1.371
99421W        W71846  37.881  25.974  14.426
99422W        W71847  38.297  27.071   3.291
99423W        W71848  22.483  23.206   4.650
99424W        W71849  27.255  41.864   4.549
99425W        W71850  16.337  41.308  11.570
99426W        W71851  37.717  36.520   3.734
99427W        W71852  35.357  42.963   0.913
99428W        W71853   5.672  31.134   1.785
99429W        W71854  18.573  26.156  12.030
99430W        W71855  19.824  22.641   4.180
99431W        W71856  13.936  38.405  12.875
99432W        W71857  16.313  17.959   4.903
99433W        W71858  17.718  36.832   0.944
99434W        W71859   0.549  43.917   2.527
99435W        W71860  27.244  40.878  10.422
99436W        W71861   9.589  44.049  10.450
99437W        W71862   9.002  43.061  11.038
99438W        W71863  39.406   9.224   4.094
99439W        W71864   9.301  27.323  12.590
99440W        W71865  42.371  40.838  10.815
99441W        W71866   0.679  11.712   3.618
99442W        W71867  30.926  13.419   0.881
99443W        W71868  36.506  18.055  12.411
99444W        W71869  36.954  20.034  12.523
99445W        W71870  17.051   0.536  14.075
99446W        W71871  23.573  30.805   3.703
99447W        W71872  31.972  32.339   4.137
99448W        W71873  43.871  28.934   1.890
99449W        W71874  37.035  17.053   4.054
99450W        W71875   4.440  35.411   0.795
99451W        W71876  14.947  23.691   1.215
99452W        W71877  12.138   0.516  14.773
99453W        W71878  37.054   7.283  11.911
99454W        W71879  14.269   5.815   1.497
99455W        W71880  21.679  34.856   2.726
99456W        W71881  32.970  30.613   1.630
99457W        W71882   0.279  18.476  12.481
99458W        W71883  22.111   2.736   1.451
99459W        W71884  40.311   9.261  12.061
99460W        W71885   1.739  18.718  13.331
99461W        W71886   2.653  34.557  13.570
99462W        W71887  19.284  31.027  10.760
99463W        W71888  20.715  12.717   3.541
99464W        W71889  38.754   8.858  12.980
99465W        W71890  38.272   0.977  11.035
99466W        W71891  43.385  15.242   4.563
99467W        W71892  37.528  14.275   0.814
99468W        W71893  38.217  10.648   0.259
99469W        W71894  36.660  30.173  14.067
99470W        W71895  37.071  17.906  12.661
99471W        W71896   7.809  10.624   1.936
99472W        W71897  35.861  22.163   4.806
99473W        W71898   1.396  17.663   0.340
99474W        W71899  29.177  33.505   2.935
99475W        W71900   3.362  39.409  13.471
99476W        W71901  19.824  11.602   2.189
99477W        W71902  43.184  10.355   1.025
99478W        W71903  20.060  22.888   0.672
99479W        W71904   5.705  11.930   0.892
99480W        W71905  30.577  35.358   0.749
99481W        W71906  36.047  22.610   2.332
99482W        W71907   3.371   2.412  13.300
99483W        W71908  39.628   3.845   2.865
99484W        W71909  21.050  15.292   4.714
99485W        W71910  15.592  18.587   0.946
99486W        W71911  28.597  11.388  14.982
99487W        W71912  33.306   2.665  12.527
99488W        W71913  34.437  15.378  12.116
99489W        W71914  24.242  33.930  13.363
99490W        W71915  13.887  21.203   4.980
99491W        W71916   2.428  18.973  11.138
99492W        W71917  28.930   8.387   1.407
99493W        W71918  39.557  27.170   0.756
99494W        W71919  14.278  32.498  14.808
99495W        W71920   2.767   9.887   2.152
99496W        W71921  35.964  30.057  13.866
99497W        W71922  33.680  19.263  14.049
99498W        W71923  41.946  33.816   4.967
99499W        W71924  25.848   8.339   1.206
99500W        W71925  27.919  13.864  10.855
99501W        W71926   7.534  27.554   3.308
99502W        W71927  16.501   7.631   0.040
99503W        W71928  43.574  33.933   1.769
99504W        W71929  30.048   5.078  14.470
99505W        W71930  44.966  23.930   2.656
99506W        W71931  31.131   5.322   4.091
99507W        W71932  35.088  18.658   0.830
99508W        W71933  34.528  44.160   4.594
99509W        W71934  19.872  10.221   2.836
99510W        W71935  30.201   6.177   3.788
99511W        W71936  39.148  42.341   3.269
99512W        W71937  39.960  24.449   4.450
99513W        W71938  43.857  43.848   0.930
99514W        W71939  42.393  16.463  14.547
99515W        W71940  14.358  39.853  12.958
99516W        W71941   8.171   4.250   2.382
99517W        W71942  36.403   3.794   1.738
99518W        W71943  21.293  42.668   3.787
99519W        W71944   0.421  20.389  14.509
99520W        W71945  23.519  18.696   0.367
99521W        W71946  33.653  12.087   0.416
99522W        W71947  24.632  17.098  10.517
99523W        W71948  20.158  19.605   2.702
99524W        W71949  28.383  41.071   1.485
99525W        W71950  43.024   9.820   3.181
99526W        W71951  19.232  17.146  14.897
99527W        W71952  42.949   5.358  10.748
99528W        W71953  19.841   7.778   1.935
99529W        W71954  33.168  25.521   4.295
99530W        W71955  32.166   9.243  10.700
99531W        W71956   7.472  33.252   2.141
99532W        W71957  37.097   1.511   3.419
99533W        W71958  26.918   5.233   0.299
99534W        W71959  11.219  32.827   2.969
99535W        W71960  26.415  29.240   2.678
99536W        W71961  36.707  22.885   3.314
99537W        W71962   5.872  26.517  12.973
99538W        W71963  13.537  22.546  13.269
99539W        W71964  17.715  38.708  14.502
99540W        W71965   1.733  10.087  14.212
99541W        W71966  31.052  40.504   2.068
99542W        W71967   0.342  38.411  13.057
99543W        W71968   6.481   7.736  12.618
99544W        W71969   4.508  30.033   3.798
99545W        W71970   4.903   4.099  13.924
99546W        W71971  22.418  18.693   4.363
99547W        W71972  16.848  11.563  14.005
99548W        W71973   3.370  16.690  11.841
99549W        W71974   6.729  43.950   0.656
99550W        W71975  15.873   3.311  13.826
99551W        W71976  29.186  42.067   2.490
99552W        W71977  10.721  42.473  14.392
99553W        W71978   6.233  34.543  11.018
99554W        W71979  14.747   2.119  13.473
99555W        W71980   2.302   6.313   5.067
99556W        W71981   7.412  10.702  14.921
99557W        W71982  18.492  36.053  12.408
99558W        W71983   5.796   2.767  12.264
99559W        W71984  37.622   5.913   0.317
99560W        W71985  22.673   9.111   0.736
99561W        W71986   0.775  24.732  12.062
99562W        W71987  23.997  36.958   2.061
99563W        W71988  16.986  10.275  10.016
99564W        W71989  30.734   4.218  12.516
99565W        W71990  23.386   4.773   3.436
99566W        W71991  17.698   7.922  13.404
99567W        W71992  32.202  30.025  14.335
99568W        W71993   5.507  42.878  12.473
99569W        W71994  42.061  19.336   4.583
99570W        W71995   0.203   4.752   0.011
99571W        W71996   4.774  13.376  11.780
99572W        W71997  27.188  19.875  12.831
99573W        W71998  36.022  40.917   1.294
99574W        W71999  39.556  25.497   1.752
99575W        W72000  24.676  18.253  11.454
99576W        W72001  34.105  30.908  13.137
99577W        W72002  10.058  33.197  14.933
99578W        W72003   6.393  39.043   4.185
99579W        W72004  12.303  26.590  10.008
99580W        W72005  35.422  38.467   0.289
99581W        W72006  38.119   3.963   3.609
99582W        W72007   4.322   6.836   2.270
99583W        W72008  26.755  12.116   2.759
99584W        W72009  43.413  18.610   2.063
99585W        W72010   5.129  19.240  13.555
99586W        W72011  20.745  21.735  10.485
99587W        W72012  14.727  14.392   0.350
99588W        W72013  20.766  27.085   0.478
99589W        W72014  22.679   1.525   2.199
99590W        W72015   0.398  17.714   4.520
99591W        W72016  17.177   9.716   2.344
99592W        W72017  20.236  27.625  13.374
99593W        W72018  20.822  41.819   2.670
99594W        W72019   1.750   6.286  13.688
99595W        W72020  24.169  40.428  13.001
99596W        W72021  24.077  33.409  14.468
99597W        W72022  35.378  32.976  14.872
99598W        W72023  20.533  38.817   3.212
99599W        W72024  30.939  41.407   0.424
99600W        W72025  25.494   9.239   1.315
99601W        W72026  10.667   4.098   1.870
99602W        W72027  29.478  23.965   9.706
99603W        W72028   6.446  43.338   1.657
99604W        W72029  30.447  25.340  11.620
99605W        W72030  15.568   4.382  10.398
99606W        W72031   8.225  33.855   2.306
99607W        W72032  27.485  16.661  12.861
99608W        W72033  11.969  17.619   4.575
99609W        W72034  41.761  25.684   3.406
99610W        W72035  11.291  33.569  13.971
99611W        W72036  21.703  11.363   2.065
99612W        W72037   9.555  29.407   0.729
99613W        W72038   8.440   8.332  13.367
99614W        W72039  17.576  19.261   0.467
99615W        W72040  27.177  13.359  12.995
99616W        W72041  39.491  37.091   4.542
99617W        W72042   0.420   3.994   1.148
99618W        W72043  42.509   4.775  14.442
99619W        W72044  19.505  27.065  13.836
99620W        W72045  28.561   1.856   0.849
99621W        W72046  25.046  35.064   1.456
99622W        W72047  39.901  20.060  12.156
99623W        W72048  26.032   6.759   3.182
99624W        W72049  12.308  17.230  10.656
99625W        W72050   6.160  22.708  14.869
99626W        W72051  33.543  15.274   0.757
99627W        W72052   5.638   9.199  11.484
99628W        W72053  20.272  12.540   4.246
99629W        W72054  34.468  40.094   2.401
99630W        W72055  11.070  16.493   1.261
99631W        W72056  15.346  12.356   4.736
99632W        W72057   9.258  18.450   4.291
99633W        W72058  19.108  19.709  13.021
99634W        W72059  11.915  25.222   4.058
99635W        W72060  22.042  25.147  13.776
99636W        W72061  33.203  20.668  11.677
99637W        W72062   9.922  29.381  11.843
99638W        W72063  13.128   4.187  14.416
99639W        W72064   8.679  25.608   3.058
99640W        W72065  30.006  31.595   3.612
99641W        W72066  19.131  10.246  11.223
99642W        W72067  42.968  25.961   2.231
99643W        W72068   3.433  19.783  12.007
99644W        W72069   2.486  43.751   0.489
99645W        W72070  33.825  41.436   0.247
99646W        W72071  25.675  11.195   4.116
99647W        W72072  19.666  31.951   1.401
99648W        W72073  10.603  17.053   1.783
99649W        W72074  30.237   9.637  12.044
99650W        W72075  37.802  14.405   5.104
99651W        W72076  33.656  17.073  11.417
99652W        W72077  17.873  13.154  13.295
99653W        W72078   5.745  29.871  14.373
99654W        W72079  18.560  10.763   2.827
99655W        W72080   3.822  23.963   1.952
99656W        W72081   9.813  36.021   0.845
99657W        W72082   0.858  23.447  11.906
99658W        W72083  42.934  38.893   4.709
99659W        W72084  36.489  13.295  14.762
99660W        W72085   5.221  11.135  12.425
99661W        W72086  16.002  15.858  11.102
99662W        W72087   3.360  37.356  10.707
99663W        W72088   0.302  31.447  10.382
99664W        W72089  29.201  32.048   1.431
99665W        W72090  40.450  43.842   0.478
99666W        W72091  12.086  36.208   4.748
99667W        W72092  22.251  43.239   4.759
99668W        W72093  41.843  21.479   3.121
99669W        W72094  44.174  22.111   4.826
99670W        W72095  25.970  20.130  14.594
99671W        W72096   7.260   4.882   2.474
99672W        W72097   2.662   5.237  12.856
99673W        W72098   0.718  17.758   1.771
99674W        W72099   6.285  41.539   1.695
99675W        W72100   8.179  12.921   4.369
99676W        W72101  28.560  44.479   1.742
99677W        W72102   5.881   1.514   1.344
99678W        W72103  40.273   1.971   3.190
99679W        W72104   0.986  37.074  11.229
99680W        W72105  13.552  44.883  12.995
99681W        W72106  21.386   2.241   1.663
99682W        W72107  32.317  23.136  13.526
99683W        W72108   9.439  21.698  12.406
99684W        W72109  11.706  28.387   2.940
99685W        W72110   7.568  31.027  11.456
99686W        W72111   6.917  28.675  13.318
99687W        W72112   3.956   7.412   0.826
99688W        W72113  11.249  14.572  14.978
99689W        W72114   5.210  13.311  10.808
99690W        W72115  19.347   3.660   0.018
99691W        W72116  41.999  29.165   0.452
99692W        W72117  34.837  28.049  12.063
99693W        W72118  26.438  36.720  12.502
99694W        W72119  33.949  44.406  10.928
99695W        W72120  43.769  13.098  13.548
99696W        W72121  31.603  17.665  12.451
99697W        W72122  25.549  25.267  11.636
99698W        W72123  39.418  15.951   5.005
99699W        W72124  37.350  41.434   2.843
99700W        W72125  16.693  13.768  11.401
99701W        W72126  24.657  34.921   1.807
99702W        W72127   5.316  15.510  13.480
99703W        W72128  12.450  20.233   3.650
99704W        W72129  33.629  26.580   2.946
99705W        W72130   9.251  30.579   1.729
99706W        W72131  41.611  14.664  12.835
99707W        W72132  34.837  10.234  12.842
99708W        W72133  40.819   1.446   0.573
99709W        W72134   5.720  31.591  14.530
99710W        W72135  15.548  24.386   1.416
99711W        W72136  27.106  10.193  11.277
99712W        W72137   7.385   7.804  13.974
99713W        W72138  24.194  27.184  10.875
99714W        W72139  37.606  10.366   1.862
99715W        W72140  30.589  29.634   1.897
99716W        W72141  36.388  42.860   3.837
99717W        W72142  18.927  27.035   0.775
99718W        W72143  12.721   9.231   4.736
99719W        W72144  10.141  20.166   3.365
99720W        W72145  41.860  29.538   2.264
99721W        W72146  21.681  20.638   2.565
99722W        W72147  17.652  17.786  13.493
99723W        W72148   9.213  30.034   4.322
99724W        W72149  38.739  24.643   4.173
99725W        W72150  37.821  12.673  11.600
99726W        W72151  37.783   7.012   9.750
99727W        W72152  22.200   1.641   3.242
99728W        W72153  21.937  33.816  14.763
99729W        W72154  11.589   2.845   1.256
99730W        W72155  27.420  38.539   2.260
99731W        W72156  21.793  16.712  11.097
99732W        W72157  13.748  20.092  12.130
99733W        W72158  20.144  42.902  12.177
99734W        W72159  14.405   5.380  14.810
99735W        W72160  41.526  21.617  13.762
99736W        W72161  41.009  27.061  13.006
99737W        W72162  42.229  25.541   1.309
99738W        W72163  25.634  42.730  13.849
99739W        W72164  24.079  19.783   3.040
99740W        W72165   7.861  31.340  13.013
99741W        W72166  42.993   4.964  14.448
99742W        W72167  44.320  12.400   0.973
99743W        W72168  38.803  41.454   3.763
99744W        W72169   2.993  25.617   1.121
99745W        W72170  14.338  27.146   1.279
99746W        W72171  13.229  11.043  12.372
99747W        W72172  24.063  40.905  14.964
99748W        W72173  31.292  18.425   3.575
99749W        W72174  15.710  44.243   5.067
99750W        W72175   9.042  38.239  12.341
99751W        W72176  31.931  38.073   1.191
99752W        W72177  31.630  39.524  10.005
99753W        W72178   7.424   7.663   4.099
99754W        W72179   8.175  16.611   4.316
99755W        W72180  23.527  30.972  10.567
99756W        W72181  10.611  35.798  14.453
99757W        W72182  39.466  42.909  11.868
99758W        W72183  29.170  43.067  13.499
99759W        W72184  28.196  40.918   3.188
99760W        W72185  17.777  23.511  12.505
99761W        W72186  12.650  26.204   2.880
99762W        W72187  11.540   0.061   1.246
99763W        W72188  44.794  34.542   2.088
99764W        W72189  44.382  28.718   0.200
99765W        W72190   1.370  41.589   3.154
99766W        W72191   9.583  22.912  14.679
99767W        W72192  13.323  18.590   0.406
99768W        W72193   1.351  33.878  13.278
99769W        W72194   0.318   4.845   3.323
99770W        W72195   6.254  27.691   3.875
99771W        W72196  37.024  38.920   1.431
99772W        W72197  17.271   7.157  11.987
99773W        W72198   1.503  38.994   3.643
99774W        W72199  42.907  17.559  12.507
99775W        W72200  10.194  15.828  11.183
99776W        W72201  33.091  18.526   0.423
99777W        W72202  18.243  27.991  11.072
99778W        W72203  15.406  18.570  11.116
99779W        W72204  37.713  22.679  13.058
99780W        W72205  10.326  20.894   5.045
99781W        W72206  22.624  26.509   4.793
99782W        W72207  42.982  36.538   2.254
99783W        W72208  27.342   7.859  14.564
99784W        W72209  24.260   9.796  10.244
99785W        W72210  20.268   6.316   1.242
99786W        W72211  43.918  28.604  11.895
99787W        W72212  42.836   6.767   2.373
99788W        W72213  19.552  37.777  12.373
99789W        W72214  32.553  27.062  14.887
99790W        W72215  12.784  12.430   1.860
99791W        W72216  19.057  38.863   3.114
99792W        W72217  23.653  28.455  13.427
99793W        W72218  43.421  41.473  14.459
99794W        W72219  22.931  32.970   1.761
99795W        W72220  44.813   9.266  11.561
99796W        W72221   5.181  37.622   1.409
99797W        W72222  32.958  10.616  14.813
99798W        W72223  22.708  38.504  14.341
99799W        W72224  25.151   4.449  14.625
99800W        W72225  16.679  33.616  14.765
99801W        W72226  26.127  32.477  13.024
99802W        W72227  21.633  43.326   1.481
99803W        W72228  39.454  14.888  14.063
99804W        W72229  37.471  38.787  11.432
99805W        W72230  40.821  17.711   2.374
99806W        W72231  31.036  41.983  13.476
99807W        W72232  12.148   9.594  14.339
99808W        W72233  12.726  35.809  14.996
99809W        W72234  23.801  11.580  11.121
99810W        W72235  19.185  10.620   1.818
99811W        W72236  11.397   3.536  14.918
99812W        W72237  20.602  28.475   0.326
99813W        W72238  40.929   6.707   3.165
99814W        W72239  40.334  21.909  12.923
99815W        W72240  35.514  22.022  12.103
99816W        W72241  29.458   8.191   2.192
99817W        W72242  34.923   0.255  11.098
99818W        W72243  10.329  19.513  12.555
99819W        W72244  32.609  11.126   1.608
99820W        W72245  34.957   8.125   4.269
99821W        W72246   9.221  24.448   1.051
99822W        W72247  44.661  41.467   2.785
99823W        W72248  22.644  41.319  14.839
99824W        W72249  22.451  42.859   3.164
99825W        W72250  14.265  29.488  11.109
99826W        W72251   0.796  41.474  13.634
99827W        W72252  40.745   0.314  12.049
99828W        W72253  40.154  34.734   1.305
99829W        W72254  42.460  32.825  10.864
99830W        W72255  22.258  42.272   3.600
99831W        W72256   5.453  26.731  11.368
99832W        W72257  30.546  12.886  12.971
99833W        W72258  40.250  34.578  13.473
99834W        W72259  12.816  36.885  13.621
99835W        W72260  22.783  33.638   4.391
99836W        W72261  20.128  11.605   3.856
99837W        W72262  20.534  36.871   1.434
99838W        W72263   3.424  33.137   4.338
99839W        W72264  29.266   7.898  14.233
99840W        W72265  30.612   4.724  11.082
99841W        W72266  44.898  21.290  14.384
99842W        W72267  32.136   9.844   0.056
99843W        W72268  18.022  16.722  14.934
99844W        W72269  24.205  25.009  14.327
99845W        W72270  18.167  19.738   3.806
99846W        W72271  38.128  43.686  11.051
99847W        W72272  25.252  21.584   4.526
99848W        W72273  32.680   7.783   4.768
99849W        W72274  44.218  23.253  14.428
99850W        W72275  17.054  44.961  10.507
99851W        W72276  14.699  16.053   3.319
99852W        W72277  31.581  44.305  14.413
99853W        W72278  23.986   1.873  10.697
99854W        W72279  37.709  18.254   0.968
99855W        W72280  17.648  13.446  11.889
99856W        W72281  42.319  29.039  11.590
99857W        W72282  34.449   9.227  14.122
99858W        W72283  14.391  43.015   4.322
99859W        W72284  33.580  10.712   2.233
99860W        W72285  26.795  39.785  12.283
99861W        W72286  27.652  19.748   0.932
99862W        W72287  36.042   6.885  14.408
99863W        W72288  39.245  13.386  14.257
99864W        W72289  16.215  15.819   3.312
99865W        W72290  27.900   1.935  12.110
99866W        W72291   0.742   6.827   3.665
99867W        W72292  16.238  13.878  10.706
99868W        W72293   1.282  10.876  12.492
99869W        W72294   9.503  29.599   0.245
99870W        W72295  30.201  19.628   1.167
99871W        W72296  42.645   5.453   1.761
99872W        W72297  41.804  12.782   1.787
99873W        W72298  30.485  12.742  14.939
99874W        W72299  34.755  19.865   2.073
99875W        W72300  24.452  41.508   1.950
99876W        W72301  42.599  30.447   4.208
99877W        W72302  14.048   0.414   9.549
99878W        W72303  26.711  18.078  10.703
99879W        W72304  40.744  15.356   3.739
99880W        W72305   5.660  26.658  13.851
99881W        W72306  21.361  26.635  10.446
99882W        W72307  20.392  39.057  13.139
99883W        W72308  11.592   7.123   5.224
99884W        W72309  16.668  37.529   0.250
99885W        W72310  44.791  27.245  13.021
99886W        W72311  28.250  14.031   4.926
99887W        W72312   3.208  31.222   0.416
99888W        W72313  32.642  42.297   0.285
99889W        W72314  14.704   9.147  12.043
99890W        W72315  38.455  38.889   2.677
99891W        W72316  22.640  24.681   4.761
99892W        W72317  14.667   2.737   2.886
99893W        W72318  30.475  31.916  12.913
99894W        W72319  15.019  27.590  13.653
99895W        W72320  24.631  12.413  14.071
99896W        W72321  16.600   7.947   0.450
99897W        W72322  29.105  34.746  13.913
99898W        W72323   5.677   7.271   2.308
99899W        W72324  23.119  12.173   4.222
99900W        W72325  28.591  14.076  13.496
99901W        W72326  36.789  16.368  14.449
99902W        W72327  40.285  11.822   3.202
99903W        W72328  35.313  28.556  14.485
99904W        W72329  33.385   9.181  10.335
99905W        W72330  36.411  28.858   0.493
99906W        W72331  19.187  41.359   0.268
99907W        W72332  28.598  17.426   2.704
99908W        W72333  35.488  30.090  14.506
99909W        W72334  35.424  11.394   2.787
99910W        W72335  25.492  41.784   3.202
99911W        W72336  10.533  36.944   3.855
99912W        W72337  35.254  44.733   3.576
99913W        W72338  29.619  42.311  14.311
99914W        W72339  42.414  26.395   4.310
99915W        W72340  16.322  32.885   0.566
99916W        W72341  21.605  40.571  12.149
99917W        W72342   4.772  20.122  13.484
99918W        W72343  24.965  17.341   0.988
99919W        W72344  30.975  35.032   2.452
99920W        W72345  28.009   0.952  11.859
99921W        W72346  27.370  24.814   2.225
99922W        W72347  26.264  19.569  11.181
99923W        W72348  34.117   3.384  10.453
99924W        W72349  14.063  35.900   1.058
99925W        W72350  15.143   8.295   2.194
99926W        W72351  13.243  37.876  12.827
99927W        W72352  35.624  41.881   1.457
99928W        W72353  10.810  43.293  12.390
99929W        W72354  11.134  23.960   2.564
99930W        W72355  23.221  13.394  12.514
99931W        W72356  24.795  35.573  14.027
99932W        W72357  26.764  13.064  12.124
99933W        W72358   1.917  24.203  12.009
99934W        W72359  12.385  34.480   1.234
99935W        W72360  15.556  36.785  12.445
99936W        W72361  18.062  29.178   2.415
99937W        W72362  18.070  27.442   4.306
99938W        W72363  34.296  31.404  14.831
99939W        W72364  43.261  21.561  12.988
99940W        W72365  35.789   7.350   3.845
99941W        W72366  10.647  14.622  12.493
99942W        W72367  31.234  21.149  13.016
99943W        W72368   0.581   7.849   2.634
99944W        W72369  20.637  19.517   4.097
99945W        W72370  44.895  16.217   4.981
99946W        W72371  42.331  40.536  14.295
99947W        W72372  31.533  25.031  12.964
99948W        W72373  34.771  37.157   3.214
99949W        W72374   0.587   4.204  10.713
99950W        W72375   9.772  40.482   3.898
99951W        W72376  30.546  35.291   2.296
99952W        W72377   8.382  39.785   3.221
99953W        W72378   0.014   8.108  12.520
99954W        W72379  43.389  20.754   2.849
99955W        W72380  22.740  11.595   4.582
99956W        W72381   1.448   8.194  14.524
99957W        W72382  24.250   6.684   1.797
99958W        W72383  24.082  42.384  10.713
99959W        W72384  12.672   5.925  14.583
99960W        W72385   4.180  10.216  10.591
99961W        W72386  34.959  36.912  14.468
99962W        W72387  21.578  44.320   2.276
99963W        W72388  10.746  20.797   2.470
99964W        W72389   7.147  31.438  14.187
99965W        W72390   0.213   1.918  14.812
99966W        W72391   8.776  31.874  14.765
99967W        W72392  37.808  14.590   0.329
99968W        W72393   3.840  43.287   4.090
99969W        W72394   7.193   2.424   1.772
99970W        W72395  15.808  15.043  14.511
99971W        W72396  17.833   0.367   1.266
99972W        W72397  44.657  10.048  12.893
99973W        W72398  32.737  30.472   0.072
99974W        W72399   5.705  36.718  12.762
99975W        W72400  35.572  35.916  10.653
99976W        W72401  37.495  30.450  14.274
99977W        W72402  31.925   1.366   4.810
99978W        W72403  30.639  28.443  13.983
99979W        W72404  28.072  19.233   3.321
99980W        W72405  30.898  43.395   1.745
99981W        W72406   1.347   6.364  14.026
99982W        W72407  29.386  21.484  11.530
99983W        W72408  34.567   5.989  13.069
99984W        W72409  35.492  41.491   3.275
99985W        W72410   8.916   8.400   0.981
99986W        W72411  35.167  32.007  13.838
99987W        W72412  32.652  28.713  14.021
99988W        W72413   8.998  11.145   0.859
99989W        W72414  34.360  31.078  14.427
99990W        W72415  32.570   2.747   3.171
99991W        W72416  28.645  12.214   1.894
99992W        W72417  43.773  26.648  10.645
99993W        W72418   9.188  14.373   0.308
99994W        W72419   6.849   0.067  12.407
99995W        W72420   1.989  41.978   0.213
99996W        W72421  17.411  41.383   0.905
99997W        W72422  44.920   8.705   1.873
99998W        W72423  22.987  17.688  10.555
99999W        W72424  33.512   2.713  12.052
    0W        W72425   8.293  38.422  10.484
    1W        W72426   8.615  38.891   3.189
    2W        W72427  44.423  26.206   0.884
    3W        W72428  39.246  31.902   4.893
    4W        W72429  29.126  38.448   2.662
    5W        W72430  22.060  17.244  11.581
    6W        W72431  30.637   3.006  14.328
    7W        W72432  19.505  16.152   0.868
    8W        W72433  35.077  12.344   0.563
    9W        W72434  41.020  21.005  13.310
   10W        W72435   2.975  27.152  10.708
   11W        W72436  20.556  42.798  14.498
   12W        W72437  44.017  16.749   3.509
   13W        W72438  22.929   8.406  14.937
   14W        W72439  16.268  13.406  11.650
   15W        W72440  30.435   5.355   2.260
   16W        W72441   9.685  32.903   1.492
   17W        W72442  35.746  10.391  14.896
   18W        W72443  40.528  15.195   2.335
   19W        W72444  28.540   6.670   3.709
   20W        W72445   0.010  17.893  11.685
   21W        W72446  37.281  32.554  11.972
   22W        W72447  28.300   9.780   2.175
   23W        W72448   3.125  29.985  12.022
   24W        W72449   2.483  10.602  12.077
   25W        W72450  18.076   1.674   2.535
   26W        W72451  29.180   9.024   3.626
   27W        W72452  27.920  35.526   2.874
   28W        W72453  35.560  33.745  14.776
   29W        W72454  13.771  13.306  10.585
   30W        W72455  32.519  15.215   4.084
   31W        W72456  39.941  40.550  14.274
   32W        W72457  19.344  11.130   2.876
   33W        W72458   0.677  13.502  11.905
   34W        W72459  10.325  23.302  11.076
   35W        W72460  36.047  38.825   9.957
   36W        W72461  36.634  13.798   3.785
   37W        W72462  41.248  35.673   4.266
   38W        W72463  39.552  43.245   3.600
   39W        W72464   4.225   7.195   0.343
   40W        W72465  38.362  42.402  10.315
   41W        W72466  33.817  39.143   3.098
   42W        W72467  13.853  44.253   0.939
   43W        W72468  34.278   2.013   0.314
   44W        W72469   2.204  24.915  13.044
   45W        W72470  39.864  15.152   1.931
   46W        W72471  44.508  38.303   2.891
   47W        W72472   4.691   7.823  11.065
   48W        W72473  34.612   5.345  14.396
   49W        W72474  41.089  17.528   1.955
   50W        W72475  30.831   3.943   3.843
   51W        W72476  26.021  25.509   4.537
   52W        W72477  42.018  20.419  14.466
   53W        W72478  35.459  19.680  11.641
   54W        W72479  20.453   1.565   4.596
   55W        W72480  18.618  10.176   4.640
   56W        W72481   4.995  25.467  12.594
   57W        W72482  14.069  23.618  13.530
   58W        W72483   4.085  18.166   3.402
   59W        W72484   0.849  11.723  14.333
   60W        W72485  31.546  10.749   4.699
   61W        W72486  42.262   7.859   4.550
   62W        W72487  20.613   6.933  12.892
   63W        W72488  42.455   5.113  11.178
   64W        W72489   5.961  23.193  11.338
   65W        W72490  10.102  30.034  14.848
   66W        W72491  43.686  41.029   0.441
   67W        W72492  19.890  14.800   0.007
   68W        W72493  24.906  38.065  10.564
   69W        W72494  21.939  41.958   4.194
   70W        W72495  16.597  25.258   0.786
   71W        W72496  43.679  25.414  14.022
   72W        W72497  34.899  15.078   4.397
   73W        W72498  33.521  22.144   1.020
   74W        W72499  41.333  16.839   3.638
   75W        W72500  36.901   6.278  14.371
   76W        W72501  33.590  32.555  11.199
   77W        W72502  40.912  35.304   3.747
   78W        W72503  41.247  28.729  10.830
   79W        W72504   0.224  42.960   0.265
   80W        W72505  35.493  16.019   3.676
   81W        W72506  41.964  13.855  13.931
   82W        W72507  30.465  20.848  13.961
   83W        W72508   7.716  31.756  11.595
   84W        W72509   9.425  30.568  14.240
   85W        W72510   2.891  27.364  11.183
   86W        W72511   6.166  11.980   3.187
   87W        W72512   9.239  22.632  14.410
   88W        W72513  15.055   3.852   9.722
   89W        W72514   5.705  28.406  11.847
   90W        W72515  28.457  15.555   4.521
   91W        W72516   8.584  31.510   4.624
   92W        W72517  14.748  21.195   3.532
   93W        W72518  23.088  32.561  12.006
   94W        W72519  32.055  44.744   4.624
   95W        W72520  43.494   5.945   0.791
   96W        W72521  17.027  20.355  10.737
   97W        W72522  18.551  33.823  12.517
   98W        W72523   3.374   0.904  13.834
   99W        W72524  38.465  36.393  10.799
  100W        W72525  40.565  17.315   2.593
  101W        W72526  17.298  10.982   1.959
  102W        W72527   2.747  35.926  13.587
  103W        W72528  35.936  10.554   0.691
  104W        W72529  33.522  43.286   2.860
  105W        W72530  30.425   9.177  11.845
  106W        W72531  31.708  42.462  11.485
  107W        W72532  10.175  26.206  12.167
  108W        W72533  15.600  29.478   4.944
  109W        W72534  36.346  22.165   2.313
  110W        W72535  27.709  29.683   3.716
  111W        W72536  44.520  42.805  10.725
  112W        W72537  27.244  36.516  12.893
  113W        W72538  35.065  16.798   3.653
  114W        W72539  13.777  14.927  13.332
  115W        W72540  43.500  35.339   3.907
  116W        W72541  16.462  35.890   4.655
  117W        W72542  28.387  18.821  14.938
  118W        W72543  36.134  22.222   3.309
  119W        W72544  17.162  19.620   3.607
  120W        W72545  22.677  12.179  12.447
  121W        W72546   6.169   4.273   1.498
  122W        W72547  38.608  41.327  11.168
  123W        W72548  32.599   0.279   4.402
  124W        W72549  44.413  19.212  13.533
  125W        W72550  38.583  32.065   3.392
  126W        W72551  14.588  21.629   3.326
  127W        W72552  23.604   7.689  13.671
  128W        W72553  31.021  35.588   4.512
  129W        W72554  36.182  36.671  14.757
  130W        W72555  34.443  11.252   2.758
  131W        W72556  37.416  40.614   1.568
  132W        W72557  32.557  43.359   3.356
  133W        W72558   2.201   4.719  13.815
  134W        W72559  21.465  23.143   1.387
  135W        W72560  40.764  33.076   0.060
  136W        W72561  25.439   1.698  11.093
  137W        W72562  43.834  18.294   1.970
  138W        W72563  44.343  36.046   1.063
  139W        W72564  44.800  10.858   3.608
  140W        W72565  17.304   6.302   3.644
  141W        W72566  24.142  25.046   4.128
  142W        W72567   6.618  27.302   2.249
  143W        W72568   0.348  12.126  14.471
  144W        W72569  12.387  34.429  14.949
  145W        W72570   9.296  34.945  12.418
  146W        W72571   8.239  18.933   1.356
  147W        W72572   2.127  36.288  11.848
  148W        W72573   7.414   1.351   2.844
  149W        W72574  18.105  21.502  14.935
  150W        W72575  29.000  44.998   4.743
  151W        W72576  26.414  17.200   4.192
  152W        W72577  30.207  35.102   0.326
  153W        W72578  37.403  37.886   2.136
  154W        W72579  33.419   3.125   1.220
  155W        W72580  39.469  43.445   4.365
  156W        W72581  33.324  37.631  10.822
  157W        W72582  31.579  25.577   4.861
  158W        W72583  21.085   7.822   0.853
  159W        W72584  21.080  34.622  14.992
  160W        W72585   4.431  38.912  14.247
  161W        W72586  20.758  16.234  14.047
  162W        W72587  18.621  38.829   1.353
  163W        W72588  40.313  25.960  13.337
  164W        W72589  19.078  30.938   2.340
  165W        W72590  41.021  16.192  13.399
  166W        W72591  11.101  28.672  13.609
  167W        W72592  25.755  24.978   3.754
  168W        W72593  34.953  30.644  11.607
  169W        W72594  40.745  28.037  11.100
  170W        W72595  43.751   4.835  12.581
  171W        W72596   8.691   8.336  14.860
  172W        W72597  22.293  40.684  14.524
  173W        W72598   3.208  26.628   3.305
  174W        W72599  21.860  38.977   1.967
  175W        W72600  43.179  11.368   3.079
  176W        W72601  14.071  11.422  12.816
  177W        W72602  42.799  42.862   1.246
  178W        W72603  44.743  26.909  14.755
  179W        W72604  26.963  23.278  12.286
  180W        W72605   7.314   3.324  10.909
  181W        W72606  44.247  15.304   1.003
  182W        W72607  33.924  34.693   2.764
  183W        W72608  34.620   8.109  13.503
  184W        W72609  27.146  38.957  12.658
  185W        W72610  40.562  38.593  12.313
  186W        W72611  27.971  12.321  13.046
  187W        W72612  10.789  42.879   5.030
  188W        W72613  37.836  40.744   3.758
  189W        W72614  35.998   5.829   0.084
  190W        W72615  29.119   2.895  12.901
  191W        W72616  23.247  25.582  11.159
  192W        W72617   8.453   2.245  13.530
  193W        W72618  17.107  19.116  13.981
  194W        W72619  10.318  22.534   2.444
  195W        W72620  35.675  33.022  14.192
  196W        W72621  23.456   3.481  13.360
  197W        W72622  19.724  31.837   0.358
  198W        W72623  18.121   0.911   4.724
  199W        W72624  35.877  20.285   2.855
  200W        W72625  41.233   8.897  13.593
  201W        W72626  17.208  16.591  11.639
  202W        W72627  21.507  17.389  14.885
  203W        W72628   5.321  25.865   4.079
  204W        W72629  33.892  43.838   4.027
  205W        W72630  27.652  22.232  12.950
  206W        W72631  40.719  27.537   1.961
  207W        W72632   3.335  25.922   0.467
  208W        W72633   2.804  13.204  14.463
  209W        W72634   2.775   8.268  13.106
  210W        W72635   0.266   3.846  11.610
  211W        W72636  11.793  15.156  12.887
  212W        W72637  20.006  43.924  11.149
  213W        W72638  39.384   3.120  13.867
  214W        W72639  43.791  41.910  10.644
  215W        W72640  25.427  41.743  12.922
  216W        W72641  38.561  33.005  14.374
  217W        W72642  39.828  16.896   1.895
  218W        W72643   2.687   3.395   4.349
  219W        W72644  12.629  16.735   1.420
  220W        W72645  16.529  13.810   2.192
  221W        W72646   3.796  38.557   2.259
  222W        W72647  14.255  41.737  14.323
  223W        W72648  32.404  10.606   1.948
  224W        W72649   4.129   4.800  11.363
  225W        W72650  14.175  22.616   4.013
  226W        W72651  41.247  19.630  11.327
  227W        W72652  30.895  17.769   1.051
  228W        W72653  26.923  28.027   4.187
  229W        W72654  40.940  23.804   3.361
  230W        W72655  21.210  23.632  10.973
  231W        W72656  26.515  10.361  10.660
  232W        W72657  23.185  44.892  10.956
  233W        W72658  42.966  33.862  14.034
  234W        W72659  36.009  10.154   5.075
  235W        W72660  33.991   1.990   2.279
  236W        W72661   7.954   0.412   4.735
  237W        W72662  12.949  12.113  14.449
  238W        W72663  10.592  31.521   2.768
  239W        W72664  29.672   8.266  14.911
  240W        W72665  27.614  29.062   2.878
  241W        W72666  12.121   2.880   3.187
  242W        W72667  28.925   2.955  11.143
  243W        W72668  24.668  10.785   4.137
  244W        W72669  13.071  37.413  13.093
  245W        W72670  36.026  35.004   4.570
  246W        W72671   2.891  22.206  14.024
  247W        W72672  42.327   1.658   3.846
  248W        W72673  29.981  34.532  12.785
  249W        W72674  35.564  13.511   4.514
  250W        W72675  31.254   8.003  11.049
  251W        W72676  14.329  11.604  13.389
  252W        W72677  32.897  32.596  12.882
  253W        W72678  30.648  19.691  10.691
  254W        W72679  44.053  19.860   0.942
  255W        W72680  44.351  41.945   3.937
  256W        W72681  22.979  41.258  13.547
  257W        W72682  40.089  34.646  14.753
  258W        W72683  14.357  20.573   0.922
  259W        W72684   2.204  32.556  11.638
  260W        W72685  10.163   8.129   2.750
  261W        W72686  11.693  37.677   2.141
  262W        W72687  29.662  14.841   2.398
  263W        W72688  25.797  32.102   3.842
  264W        W72689  40.016   1.201   2.778
  265W        W72690   4.914   9.093   1.381
  266W        W72691  22.212   9.363   1.144
  267W        W72692   4.507  40.430  10.955
  268W        W72693   1.836  13.993   2.181
  269W        W72694   0.557  35.575   2.437
  270W        W72695   3.276  19.260   2.882
  271W        W72696  43.269  28.167  12.881
  272W        W72697  24.914  20.559  13.418
  273W        W72698  30.001  29.519   0.743
  274W        W72699  13.844   3.974   4.088
  275W        W72700  34.550  36.805   0.830
  276W        W72701   6.326  11.635  13.747
  277W        W72702   1.983  24.961   3.099
  278W        W72703   2.479   0.582   1.805
  279W        W72704  20.110  17.979  11.560
  280W        W72705  17.252  27.450  11.958
  281W        W72706  20.871   2.148  14.394
  282W        W72707   1.462  11.311   3.711
  283W        W72708  41.823  34.308   1.960
  284W        W72709  12.798  12.397   0.927
  285W        W72710  29.624   7.439  11.590
  286W        W72711  15.818  23.474  12.140
  287W        W72712  23.526  41.778  14.816
  288W        W72713  29.693  18.824  11.164
  289W        W72714   3.732  15.544  10.641
  290W        W72715  34.907   3.222   4.882
  291W        W72716   5.285  26.877   1.803
  292W        W72717  26.664  15.287  10.687
  293W        W72718   9.395  18.967  12.379
  294W        W72719  13.082  22.650  14.488
  295W        W72720   1.270   9.510  13.950
  296W        W72721  31.208   7.213  11.615
  297W        W72722  40.779  28.454  12.072
  298W        W72723   0.521  28.038   5.110
  299W        W72724  30.849  15.256   0.463
  300W        W72725  26.205  29.888   0.996
  301W        W72726   8.718  18.538  12.541
  302W        W72727  31.597  21.686   0.331
  303W        W72728  30.072  20.215   4.231
  304W        W72729   8.765  11.181  14.555
  305W        W72730  31.483  14.781   1.705
  306W        W72731  25.698  42.132  11.023
  307W        W72732  29.324  26.584   1.330
  308W        W72733  13.111  18.711   1.474
  309W        W72734  16.306  10.203   4.123
  310W        W72735  26.247   1.362  13.402
  311W        W72736  43.056  32.328  13.695
  312W        W72737  14.190  18.645   1.093
  313W        W72738  20.911  20.919  13.494
  314W        W72739  44.803  25.780  10.401
  315W        W72740  21.373  38.801   4.949
  316W        W72741  19.083  36.834   2.294
  317W        W72742  44.180  41.919  14.984
  318W        W72743   2.937  15.454  12.040
  319W        W72744  44.248  24.259  14.418
  320W        W72745  25.252  31.892   2.331
  321W        W72746  27.094  22.141   3.383
  322W        W72747  13.912  31.533   2.675
  323W        W72748  15.646   7.412   2.858
  324W        W72749   7.470  14.641   0.731
  325W        W72750  35.403  29.127   3.535
  326W        W72751  34.605  14.684   3.803
  327W        W72752   6.212  17.828   4.900
  328W        W72753  24.075  35.029  13.870
  329W        W72754  15.936  10.855   1.774
  330W        W72755  27.620  34.540   1.412
  331W        W72756  37.981  10.664  10.839
  332W        W72757  15.767  11.205  14.486
  333W        W72758  27.503  18.260   4.204
  334W        W72759  12.212   7.177   3.262
  335W        W72760  24.602  32.078   1.817
  336W        W72761   5.456  15.195  12.138
  337W        W72762   9.878  32.350   4.581
  338W        W72763   2.806  15.377   1.802
  339W        W72764  38.400   3.131  13.552
  340W        W72765  14.904  37.314  13.414
  341W        W72766  11.159  11.057  14.894
  342W        W72767  12.315  23.897   4.046
  343W        W72768  40.405  39.806   4.794
  344W        W72769  42.016  42.314   2.754
  345W        W72770   4.061  29.897  13.786
  346W        W72771  19.270  24.909  14.972
  347W        W72772  31.643  27.446  10.583
  348W        W72773  25.783  25.610   0.794
  349W        W72774  34.138  20.063  12.975
  350W        W72775   4.748   6.219  10.191
  351W        W72776  12.326  26.753   2.143
  352W        W72777  18.323  11.236   2.750
  353W        W72778  14.034  26.635  11.960
  354W        W72779   1.833  32.986   1.312
  355W        W72780   2.236  28.144  12.633
  356W        W72781  12.688  33.432  14.801
  357W        W72782  43.503  15.924   1.378
  358W        W72783  36.186  29.672   3.951
  359W        W72784  42.418  17.271   2.751
  360W        W72785   0.500  17.277   0.229
  361W        W72786  32.618  11.068   2.141
  362W        W72787  32.510  33.434   1.256
  363W        W72788  19.617  32.687  13.310
  364W        W72789  27.081  22.099  12.605
  365W        W72790  44.809  40.828  11.945
  366W        W72791   0.691  38.324   0.865
  367W        W72792  18.123  18.070   2.846
  368W        W72793  12.067  10.635  11.646
  369W        W72794  40.939  26.649  10.739
  370W        W72795  44.894  37.813   2.467
  371W        W72796  21.238  12.113   3.874
  372W        W72797  20.103  17.060   3.610
  373W        W72798   7.499   7.045  12.357
  374W        W72799  35.652  21.132   1.196
  375W        W72800  37.558  40.984   0.062
  376W        W72801  39.800  40.019   1.756
  377W        W72802  26.050   1.060   1.240
  378W        W72803  13.094   0.926  11.478
  379W        W72804  20.839  16.268  14.593
  380W        W72805  19.189  16.822  14.384
  381W        W72806  37.200  14.978  11.719
  382W        W72807  19.528  23.192   4.903
  383W        W72808   5.398  14.272  10.707
  384W        W72809  21.576  42.212   3.197
  385W        W72810  43.253   7.187  11.191
  386W        W72811   6.853  18.124  14.724
  387W        W72812   4.940  43.782  10.294
  388W        W72813  13.936   0.836   4.981
  389W        W72814  24.811   2.075   4.135
  390W        W72815  10.186   1.325  12.345
  391W        W72816   3.812  26.064  14.477
  392W        W72817  28.240  13.262   2.329
  393W        W72818   9.627  11.231   4.769
  394W        W72819  23.187  38.569   2.783
  395W        W72820  38.470  35.496  14.788
  396W        W72821   4.190  34.546   4.022
  397W        W72822  23.041  37.995   0.847
  398W        W72823  15.608  26.173   1.082
  399W        W72824  27.324  14.181   1.234
  400W        W72825   7.608  18.652   3.583
  401W        W72826  20.968   2.961  14.712
  402W        W72827  22.476   8.674   0.549
  403W        W72828  30.999  29.072  12.902
  404W        W72829  37.579  21.516   2.304
  405W        W72830  29.340  24.343   1.507
  406W        W72831  24.143  19.694  13.139
  407W        W72832  17.749  27.279  12.983
  408W        W72833   9.717  33.982  10.636
  409W        W72834  30.662  34.571  14.407
  410W        W72835  26.633  41.798   3.175
  411W        W72836  16.077  44.204  11.176
  412W        W72837  37.391  13.812  14.973
  413W        W72838   1.109  19.399   5.396
  414W        W72839   7.253  41.557   0.735
  415W        W72840  17.084  20.072   4.807
  416W        W72841  31.490  37.205   3.777
  417W        W72842   5.197  34.494   1.706
  418W        W72843   9.392   2.769   3.869
  419W        W72844  19.755  10.320   1.327
  420W        W72845  40.919  18.083  14.337
  421W        W72846  20.310  15.154   1.731
  422W        W72847  38.989  29.187   1.695
  423W        W72848   4.631  34.638   4.257
  424W        W72849   1.184  19.551  10.712
  425W        W72850  33.463  43.222  13.260
  426W        W72851  17.083   2.336  12.621
  427W        W72852  14.281  39.725   3.025
  428W        W72853   3.921   9.320  10.816
  429W        W72854   8.649  15.539  10.565
  430W        W72855  14.805   0.666   2.331
  431W        W72856  37.021  38.964   2.447
  432W        W72857  11.724   7.169  11.250
  433W        W72858  31.194  12.687  14.497
  434W        W72859  15.526  16.617   1.319
  435W        W72860  15.330  36.325   2.860
  436W        W72861  15.089   5.397   1.777
  437W        W72862  39.346  20.877   4.405
  438W        W72863  42.324  31.026   0.362
  439W        W72864  24.569  11.900  14.014
  440W        W72865  26.640  20.548   2.996
  441W        W72866   6.648  14.221  14.857
  442W        W72867  18.716  11.399   0.954
  443W        W72868  38.365  34.724  11.693
  444W        W72869  14.290  32.136   4.851
  445W        W72870  11.386   1.728   0.788
  446W        W72871  30.815   6.639  13.058
  447W        W72872  13.204  18.346   2.752
  448W        W72873  28.834  14.188  12.420
  449W        W72874  34.341  37.823  12.090
  450W        W72875  22.520  32.943  10.753
  451W        W72876  27.698  43.363   3.332
  452W        W72877  30.145  14.171  14.430
  453W        W72878  41.286  33.674  13.557
  454W        W72879  32.027  41.514  14.727
  455W        W72880   5.699  40.395   0.322
  456W        W72881  31.854   6.252  12.442
  457W        W72882  15.455  37.472   4.605
  458W        W72883  30.835  26.038   0.715
  459W        W72884  20.767  35.610  12.953
  460W        W72885  39.888  13.930   4.461
  461W        W72886  44.172  27.651   3.119
  462W        W72887  31.483  12.846  12.625
  463W        W72888  15.242  34.890   3.593
  464W        W72889  18.064  20.469   4.119
  465W        W72890   8.713  25.590   3.603
  466W        W72891  18.204   0.681  12.601
  467W        W72892  27.072  37.305   1.227
  468W        W72893   2.013  40.902  12.911
  469W        W72894  17.827  35.873  14.869
  470W        W72895  31.053  15.091  13.175
  471W        W72896  28.490  21.922  14.765
  472W        W72897  21.300  28.586   4.130
  473W        W72898  44.971  21.801   1.756
  474W        W72899  41.234  15.054   2.906
  475W        W72900  43.333  22.978   4.526
  476W        W72901  18.085  24.705  13.749
  477W        W72902  14.236  18.386  11.131
  478W        W72903   8.719  24.627   3.587
  479W        W72904  41.833  27.889  12.551
  480W        W72905   1.919  43.037   2.681
  481W        W72906   6.806  28.235  11.351
  482W        W72907  30.340  21.664  11.267
  483W        W72908  42.468  25.514   1.764
  484W        W72909  14.380   8.295  13.332
  485W        W72910  15.791  25.582   0.402
  486W        W72911   2.209   6.385   3.109
  487W        W72912  27.473  25.704   1.298
  488W        W72913  33.642  17.031   2.651
  489W        W72914  10.657  31.182  10.404
  490W        W72915  25.640  18.498  13.135
  491W        W72916  15.758  34.305  13.914
  492W        W72917  18.089  32.895  10.273
  493W        W72918  25.244  19.470  11.144
  494W        W72919   9.726   5.179   2.780
  495W        W72920  11.131   2.805   5.131
  496W        W72921   6.756  33.619  12.973
  497W        W72922   5.269   6.811   1.020
  498W        W72923  14.799  24.160   5.495
  499W        W72924  33.509   3.290   2.681
  500W        W72925  28.794  41.019   1.783
  501W        W72926  39.428  16.801  11.544
  502W        W72927  16.202  34.632  10.928
  503W        W72928  10.054  11.775   5.038
  504W        W72929  38.890  18.777  10.569
  505W        W72930   7.124  32.955   0.935
  506W        W72931  16.042  18.665   0.718
  507W        W72932  27.110  20.157  12.410
  508W        W72933   0.596  20.753  10.228
  509W        W72934  31.854  29.703  13.446
  510W        W72935  36.630  17.901   4.128
  511W        W72936   7.954  25.988  12.365
  512W        W72937   0.440  25.086   3.113
  513W        W72938   9.747  14.336  13.123
  514W        W72939  29.847  19.512  12.391
  515W        W72940  30.883  10.263   2.277
  516W        W72941  38.265   1.110   0.890
  517W        W72942  33.089  22.491   4.243
  518W        W72943  35.562  24.779   2.130
  519W        W72944   9.033   1.008   4.109
  520W        W72945  44.721  42.329  13.474
  521W        W72946  23.707  15.235  13.640
  522W        W72947  19.629   7.827   2.781
  523W        W72948  32.513  28.463   4.120
  524W        W72949  37.928   0.102   3.797
  525W        W72950  19.043   2.495  10.980
  526W        W72951  31.330  44.202   4.570
  527W        W72952  21.249  33.272  11.635
  528W        W72953  23.053   8.705   2.839
  529W        W72954  28.231  21.021  13.514
  530W        W72955   9.312  16.832  14.395
  531W        W72956   2.720   0.251  13.398
  532W        W72957   2.368  33.857   0.079
  533W        W72958  30.716  42.365   0.906
  534W        W72959   3.274  23.096   1.796
  535W        W72960  11.854   4.620  12.729
  536W        W72961  11.766  13.686  12.780
  537W        W72962  40.468  19.966  10.254
  538W        W72963  23.218  10.213  11.200
  539W        W72964   7.120  22.495  12.118
  540W        W72965   8.415  36.982  10.941
  541W        W72966  31.719  33.903   2.059
  542W        W72967  12.063  32.808   2.318
  543W        W72968   1.016  26.963  12.356
  544W        W72969  16.012  43.384   0.238
  545W        W72970  27.839  13.623  13.497
  546W        W72971  22.648  31.860   3.783
  547W        W72972  36.161  25.012   3.343
  548W        W72973  35.806   3.048   1.286
  549W        W72974  19.316  28.544  12.938
  550W        W72975  10.946  21.750  11.252
  551W        W72976  12.011  38.208   2.257
  552W        W72977  30.053  38.556   0.930
  553W        W72978  34.855  42.990  14.555
  554W        W72979  29.936  31.023  13.834
  555W        W72980   2.959  11.052  11.030
  556W        W72981  35.408  35.896   3.252
  557W        W72982  26.918  32.400   2.636
  558W        W72983  37.660  44.738  12.113
  559W        W72984   9.638  23.991   2.170
  560W        W72985  43.623  42.538   1.908
  561W        W72986  18.275  17.835  14.255
  562W        W72987  40.586  13.884   4.126
  563W        W72988  12.007  29.218  13.412
  564W        W72989  11.883  18.522  12.977
  565W        W72990  17.644  14.420  12.328
  566W        W72991   6.863  39.446  14.744
  567W        W72992  23.916  13.789   4.602
  568W        W72993  38.503  44.485  14.022
  569W        W72994  23.123   9.919   4.059
  570W        W72995  13.693   9.823   4.392
  571W        W72996   8.833  15.607  13.889
  572W        W72997  10.932   2.348   5.011
  573W        W72998   2.007  18.642   2.756
  574W        W72999   1.486  39.229   1.983
  575W        W73000   8.911  43.564  12.223
  576W        W73001   4.711  38.614  13.289
  577W        W73002  25.022  42.602   0.327
  578W        W73003  20.994  13.629  14.853
  579W        W73004  11.190  40.774   0.883
  580W        W73005  35.054   1.343  14.851
  581W        W73006  29.149  17.304   2.757
  582W        W73007  33.093  39.145  11.014
  583W        W73008  41.970  29.846  12.379
  584W        W73009   9.454  29.232  11.965
  585W        W73010   2.399  43.804   4.148
  586W        W73011  42.259  38.489   1.687
  587W        W73012  22.664  41.010  14.426
  588W        W73013  13.219  10.358   4.926
  589W        W73014   8.354  12.393   4.282
  590W        W73015  41.846  34.773   1.677
  591W        W73016  32.452  25.291   2.307
  592W        W73017  42.579  31.075   0.811
  593W        W73018  36.916  16.691   0.291
  594W        W73019   6.676   7.987  12.182
  595W        W73020  42.801  41.533   0.332
  596W        W73021  27.564   9.282  10.760
  597W        W73022  37.391  30.061   3.611
  598W        W73023   8.123   3.857   2.733
  599W        W73024  33.414  10.572   3.140
  600W        W73025  32.135   0.727   5.086
  601W        W73026  38.267  18.625   3.737
  602W        W73027  16.160  32.067  12.956
  603W        W73028  22.153  40.283  14.801
  604W        W73029  21.187  31.177   4.821
  605W        W73030   5.591  37.865  13.464
  606W        W73031  19.842   3.173   0.537
  607W        W73032  32.073  31.482   2.388
  608W        W73033  15.363  15.812   4.057
  609W        W73034  13.809  15.853   2.883
  610W        W73035   0.285  35.409   2.847
  611W        W73036  34.601  25.937  11.017
  612W        W73037  31.423  42.894   0.491
  613W        W73038  39.843  25.489   4.594
  614W        W73039   1.759  34.892  11.328
  615W        W73040  36.279   3.647   3.732
  616W        W73041  30.591  38.656   2.319
  617W        W73042   0.423  29.155   4.473
  618W        W73043  28.222  38.834  11.352
  619W        W73044  16.186  33.141  12.571
  620W        W73045   5.911  30.962   3.159
  621W        W73046   1.678   1.180   3.382
  622W        W73047   8.859   3.197   4.725
  623W        W73048  13.803  39.767  12.108
  624W        W73049  21.894  13.071  11.647
  625W        W73050  32.147  32.482   1.668
  626W        W73051  44.996  44.809   0.412
  627W        W73052  11.217   2.798  12.470
  628W        W73053   9.109   0.406  13.417
  629W        W73054  17.638   7.200  14.974
  630W        W73055  33.398  29.418   2.240
  631W        W73056  30.220   8.195   3.383
  632W        W73057   1.394  11.299  11.884
  633W        W73058  10.826  16.398  11.934
  634W        W73059  20.501  15.608   0.708
  635W        W73060  33.939  12.877  10.686
  636W        W73061   3.760  14.328  11.138
  637W        W73062   4.783  27.079   2.224
  638W        W73063  28.867   1.400   2.878
  639W        W73064  43.167  36.356   0.409
  640W        W73065  18.763   9.178  13.002
  641W        W73066  14.360  15.651   4.141
  642W        W73067  44.918   5.404  13.927
  643W        W73068  25.582   7.348   2.723
  644W        W73069  11.544  18.127   2.728
  645W        W73070  13.532   8.280  12.862
  646W        W73071  37.016   9.599   3.277
  647W        W73072  26.725  40.874   2.457
  648W        W73073   4.739  21.702  10.580
  649W        W73074  16.632  28.151   4.421
  650W        W73075  16.066  19.662   2.386
  651W        W73076   9.912  34.787   4.263
  652W        W73077  30.890   5.125  10.896
  653W        W73078  18.921   0.909  14.981
  654W        W73079   0.093   0.768  11.116
  655W        W73080  10.372  22.089  11.491
  656W        W73081  17.693  41.981  11.690
  657W        W73082  18.695  29.399  12.656
  658W        W73083  33.155  29.426  11.086
  659W        W73084  36.108  18.547  10.406
  660W        W73085   5.371  11.803  13.038
  661W        W73086  19.036  13.804  12.559
  662W        W73087   1.973   5.189   1.795
  663W        W73088  20.312  10.321  10.178
  664W        W73089  43.934  27.301  14.872
  665W        W73090  25.421  34.495  14.873
  666W        W73091   5.100  34.572  13.584
  667W        W73092   2.372  41.950  14.509
  668W        W73093  22.525   7.791   4.143
  669W        W73094  28.176  33.106  11.817
  670W        W73095  17.198   8.617  14.285
  671W        W73096   5.362  31.968  14.388
  672W        W73097  42.003   9.939  14.496
  673W        W73098  12.553  18.951  14.405
  674W        W73099   4.161  38.391   3.806
  675W        W73100  37.914  27.402   0.974
  676W        W73101   1.671   9.945  11.095
  677W        W73102  13.740   1.925   2.776
  678W        W73103  32.842  31.375   0.571
  679W        W73104  43.074  30.516   1.399
  680W        W73105  32.152  22.012   4.767
  681W        W73106  34.068  20.522  14.030
  682W        W73107   4.735  20.695   1.733
  683W        W73108  28.817  40.445   3.014
  684W        W73109  12.605  12.118  14.828
  685W        W73110   9.782  13.552  11.972
  686W        W73111  32.106  28.024   0.780
  687W        W73112   1.275  12.541   1.441
  688W        W73113  33.085   5.109   1.873
  689W        W73114  37.578  20.588  12.634
  690W        W73115  19.932  36.615  14.291
  691W        W73116  20.495  28.004   0.976
  692W        W73117  15.742  36.827   3.683
  693W        W73118   1.722  15.077  14.366
  694W        W73119  35.964  40.488  10.458
  695W        W73120  33.322  26.141  10.801
  696W        W73121   4.711  14.698   0.204
  697W        W73122  42.284  10.735  10.712
  698W        W73123  12.721   2.156  11.964
  699W        W73124   0.601   6.730   2.808
  700W        W73125  14.210  19.803  14.287
  701W        W73126  42.020  41.936  11.555
  702W        W73127   5.223  11.555  11.984
  703W        W73128  24.836  29.109  13.878
  704W        W73129  38.589  35.498   9.869
  705W        W73130  30.999   0.721   0.548
  706W        W73131  32.384  41.597  12.345
  707W        W73132  25.267  38.496   4.104
  708W        W73133   9.897  18.280   1.844
  709W        W73134  33.063   8.387   1.348
  710W        W73135  10.411  25.536  11.125
  711W        W73136  23.958   6.666  11.076
  712W        W73137  17.713   4.848   3.356
  713W        W73138  15.622   0.076  12.530
  714W        W73139   9.792   7.479  13.271
  715W        W73140   1.736  11.773  13.550
  716W        W73141  30.156  10.368  10.968
  717W        W73142  39.520  17.524   4.189
  718W        W73143  27.971  22.183  13.340
  719W        W73144   2.801  37.006   0.863
  720W        W73145  22.028   0.815  13.321
  721W        W73146   5.908  18.781   1.857
  722W        W73147  10.475  22.512  14.889
  723W        W73148   4.199   8.309   2.437
  724W        W73149   9.652  13.650   0.684
  725W        W73150   7.327  24.316  13.040
  726W        W73151  12.315  37.116  14.335
  727W        W73152  20.792  27.438  12.603
  728W        W73153  26.343  37.921   4.588
  729W        W73154  32.161  11.871  10.394
  730W        W73155   2.615   7.066  10.148
  731W        W73156  20.340  33.538  14.122
  732W        W73157  19.033  22.946   0.939
  733W        W73158  30.626  35.783  11.105
  734W        W73159  30.528  11.779   0.051
  735W        W73160   9.979  31.890  12.454
  736W        W73161   8.196  42.955  12.009
  737W        W73162  39.315   3.131   3.423
  738W        W73163  38.472  27.106   0.338
  739W        W73164  11.670  27.193   0.887
  740W        W73165  12.887   1.408  10.716
  741W        W73166  34.057  44.571   0.256
  742W        W73167   5.392   9.226  14.076
  743W        W73168   2.795  13.204   1.409
  744W        W73169  30.664  26.467  14.963
  745W        W73170  26.161  20.121  14.121
  746W        W73171  30.794  40.573  12.334
  747W        W73172  12.684  26.610  11.947
  748W        W73173   0.911  44.990   3.481
  749W        W73174  16.181  32.431   1.437
  750W        W73175  27.402  44.059   3.705
  751W        W73176  21.959  33.925   3.230
  752W        W73177  19.618   5.916  13.061
  753W        W73178  38.398  25.774  12.605
  754W        W73179  40.790   1.305  12.855
  755W        W73180  11.679  14.075   4.592
  756W        W73181  35.046   5.318   1.926
  757W        W73182  17.723  18.083   1.268
  758W        W73183  40.869   0.438   3.479
  759W        W73184  44.377  15.016   2.266
  760W        W73185  20.849   9.181  13.786
  761W        W73186  38.997  42.070   2.555
  762W        W73187  43.931  41.921  12.055
  763W        W73188  32.233  15.203   1.662
  764W        W73189  21.171  32.486   5.086
  765W        W73190  42.339  18.344  12.571
  766W        W73191  38.926   2.721   4.473
  767W        W73192  32.931  29.188   2.343
  768W        W73193  22.720  25.565  12.848
  769W        W73194  41.887  18.215  12.839
  770W        W73195   5.746   2.182   4.219
  771W        W73196  23.278  31.424  10.520
  772W        W73197  40.991  18.006  11.424
  773W        W73198   1.647  31.313  10.603
  774W        W73199  32.170  17.542  10.688
  775W        W73200   0.999  18.283  12.016
  776W        W73201  42.440  32.839   1.419
  777W        W73202   8.449   5.901   4.198
  778W        W73203  36.860  26.705   0.777
  779W        W73204  15.289   3.036  12.500
  780W        W73205  33.590  10.241   2.770
  781W        W73206  38.441  40.513  11.405
  782W        W73207   0.671  19.525   4.604
  783W        W73208  26.705  27.452  14.735
  784W        W73209   2.988  37.888   1.274
  785W        W73210   3.740  35.451   1.661
  786W        W73211  32.278   3.406  14.880
  787W        W73212  41.578  36.278  14.160
  788W        W73213  20.559  44.482   2.401
  789W        W73214   8.896   9.687   1.433
  790W        W73215  26.225  42.593   3.122
  791W        W73216   1.258   6.237   1.450
  792W        W73217  14.912   3.701   2.813
  793W        W73218  30.104  32.794   4.602
  794W        W73219  35.367  13.634  11.624
  795W        W73220  41.250  41.839   2.671
  796W        W73221  44.781  14.732   3.239
  797W        W73222  18.207  10.861   2.014
  798W        W73223  33.788   5.421   2.275
  799W        W73224  18.050  44.153   4.123
  800W        W73225  20.530  42.988   4.408
  801W        W73226  26.204   8.747   4.883
  802W        W73227  18.004   1.470   3.612
  803W        W73228  22.968  18.306   3.127
  804W        W73229  39.344  20.353   1.810
  805W        W73230  25.084  37.417   0.318
  806W        W73231   8.963  40.377  11.131
  807W        W73232  11.005  12.918  11.925
  808W        W73233  12.690  27.876  12.500
  809W        W73234  38.639  37.313   2.756
  810W        W73235  42.569  14.854  14.766
  811W        W73236  25.096  42.982  11.561
  812W        W73237  27.264  16.130  12.522
  813W        W73238  18.530  18.684  12.092
  814W        W73239   2.469  20.608   4.299
  815W        W73240   4.740   9.886  11.563
  816W        W73241   5.184  15.777   1.672
  817W        W73242  22.671  11.887   3.114
  818W        W73243  20.704  37.042   4.492
  819W        W73244  38.465  34.907  12.198
  820W        W73245  21.121  34.502   3.186
  821W        W73246  31.109  18.305  13.444
  822W        W73247  44.336  36.052  12.053
  823W        W73248  33.794  19.153  12.829
  824W        W73249  42.846  16.578  13.891
  825W        W73250  18.762  34.096  11.527
  826W        W73251  22.939  28.110   4.793
  827W        W73252  23.215  41.370   3.185
  828W        W73253  44.305  12.839  12.484
  829W        W73254   8.181  34.081  12.279
  830W        W73255   6.857  38.020   1.416
  831W        W73256  25.222  38.719  13.589
  832W        W73257   3.361  21.435   3.274
  833W        W73258  43.811  26.859  13.896
  834W        W73259  33.395  34.074   0.032
  835W        W73260  22.552  15.148  12.762
  836W        W73261   6.303  42.348   1.236
  837W        W73262  31.916  27.577   0.944
  838W        W73263   7.915  23.661  14.388
  839W        W73264  24.171   6.922   0.171
  840W        W73265   6.260  34.001   3.941
  841W        W73266   9.427  38.103   1.011
  842W        W73267   8.628  31.939  11.170
  843W        W73268  22.206  26.215   4.519
  844W        W73269   9.728  43.909   0.944
  845W        W73270  15.694  19.518  12.491
  846W        W73271  24.292  40.072   2.319
  847W        W73272   5.351  31.561  14.038
  848W        W73273   2.665  38.485  11.537
  849W        W73274  41.806  25.287  11.392
  850W        W73275   6.893  16.186   1.434
  851W        W73276  15.082  36.847  13.595
  852W        W73277  24.989   7.787   1.047
  853W        W73278   3.403   3.896  13.533
  854W        W73279  32.446  15.837   2.261
  855W        W73280  37.329  28.211  10.599
  856W        W73281  38.350  30.484  14.282
  857W        W73282  24.817  20.312   1.858
  858W        W73283  24.968  23.624   4.794
  859W        W73284  32.542  23.959  14.003
  860W        W73285   9.628  34.832   1.328
  861W        W73286  44.165   3.822  11.857
  862W        W73287  42.232  35.561  13.905
  863W        W73288   3.852  21.464  10.061
  864W        W73289  18.815   0.343   3.758
  865W        W73290  17.029  36.989  13.954
  866W        W73291  25.539  17.643   0.891
  867W        W73292  38.349  20.139  11.916
  868W        W73293   6.554  34.471   3.104
  869W        W73294   2.376   7.273  13.581
  870W        W73295  29.139  35.401  11.136
  871W        W73296  40.282  28.352  11.909
  872W        W73297   3.719  44.641  11.311
  873W        W73298  24.836  43.904   4.445
  874W        W73299  37.084  27.723   2.814
  875W        W73300   7.208   2.492  12.864
  876W        W73301  28.865  17.103  11.407
  877W        W73302   1.874  18.210  12.877
  878W        W73303  38.469   5.195   3.241
  879W        W73304  12.929  34.906   0.991
  880W        W73305  24.154  15.773  12.043
  881W        W73306  19.163   1.103  12.931
  882W        W73307  33.855  29.367  14.795
  883W        W73308  13.138   6.905  11.557
  884W        W73309  30.882  42.837  14.327
  885W        W73310  14.107  12.511   1.453
  886W        W73311   9.890  11.682   1.803
  887W        W73312  30.320  17.324   1.294
  888W        W73313  15.299  33.470   2.804
  889W        W73314   5.402   7.835  12.908
  890W        W73315  29.903   6.614   0.960
  891W        W73316  29.740  38.174   9.795
  892W        W73317  34.703  29.188   3.363
  893W        W73318  10.363  29.196  11.108
  894W        W73319   1.563   9.331   2.507
  895W        W73320  28.760  32.428   1.917
  896W        W73321  40.358  16.141  14.355
  897W        W73322  15.212   5.725   1.315
  898W        W73323  29.103  29.484   4.826
  899W        W73324  32.508  30.437   2.874
  900W        W73325  30.746  40.398   5.556
  901W        W73326  12.597  44.818   2.430
  902W        W73327  35.996   1.435  10.473
  903W        W73328  36.055  11.804   1.486
  904W        W73329   6.935  17.667   2.808
  905W        W73330   2.796   5.752   3.468
  906W        W73331  44.511  38.980  14.769
  907W        W73332  24.146  42.806  11.647
  908W        W73333   9.615  12.117   4.464
  909W        W73334  19.522  10.558  11.375
  910W        W73335   8.924  33.278   2.277
  911W        W73336  16.579  14.927   0.924
  912W        W73337  10.790  20.111  12.375
  913W        W73338  21.224  14.190  13.347
  914W        W73339  11.728  28.620  11.989
  915W        W73340  10.460   7.390  10.129
  916W        W73341  40.039  21.539   4.617
  917W        W73342  15.141  39.456  14.015
  918W        W73343  12.310  35.454   2.145
  919W        W73344  44.669  21.788  10.574
  920W        W73345   6.927  34.363   4.085
  921W        W73346  44.224  34.451   0.839
  922W        W73347  39.908  35.595   1.220
  923W        W73348  39.541   5.314  12.338
  924W        W73349  34.472  30.493   3.681
  925W        W73350  13.205   1.256   4.703
  926W        W73351  25.912  24.157   0.768
  927W        W73352  13.083   9.322  11.665
  928W        W73353  25.618  29.633  13.906
  929W        W73354  41.563  43.982  11.443
  930W        W73355  31.606  17.835  13.077
  931W        W73356  44.314  19.442  14.513
  932W        W73357  17.306  19.045   0.848
  933W        W73358  18.525  35.646   2.723
  934W        W73359   9.720  26.317  11.972
  935W        W73360  33.710   3.717   4.887
  936W        W73361   5.277   1.214  13.466
  937W        W73362  21.694  14.101  14.746
  938W        W73363  35.866  36.138   4.290
  939W        W73364  23.933  14.296  10.583
  940W        W73365  19.047  21.030   1.853
  941W        W73366  33.212  25.061   2.759
  942W        W73367  28.217  22.158  10.335
  943W        W73368  35.617  37.783   0.707
  944W        W73369   5.392  39.013   4.298
  945W        W73370   2.917  17.034   2.433
  946W        W73371  42.062  14.727   2.720
  947W        W73372  40.962  34.819  12.779
  948W        W73373  14.647   3.790  14.164
  949W        W73374  37.752  16.217  11.931
  950W        W73375  39.734   7.840   3.685
  951W        W73376  29.184  27.538  13.055
  952W        W73377  41.409  40.844  11.852
  953W        W73378   6.875  22.092   1.665
  954W        W73379  11.138  36.109  13.744
  955W        W73380  24.034  18.310   0.868
  956W        W73381  23.620  39.423   2.257
  957W        W73382   6.734  33.510   3.580
  958W        W73383  30.128  11.383  11.726
  959W        W73384   1.311   0.858   2.385
  960W        W73385   5.349  10.267   4.711
  961W        W73386  10.793  42.374   4.267
  962W        W73387  26.426  20.846   3.795
  963W        W73388  29.390  44.775   1.227
  964W        W73389  19.021  44.501   4.123
  965W        W73390  34.466  14.341  14.794
  966W        W73391  28.713  23.514  11.909
  967W        W73392  44.064  40.100   1.736
  968W        W73393  15.385  35.389   3.693
  969W        W73394  33.667  20.523   3.611
  970W        W73395  26.859  42.834   2.284
  971W        W73396  25.769   2.689  13.441
  972W        W73397  30.907  16.626  14.758
  973W        W73398   4.326  26.189   2.164
  974W        W73399  15.395  22.131  12.458
  975W        W73400  29.438  33.200  11.704
  976W        W73401   9.604   3.197  12.143
  977W        W73402  13.459  21.618   5.200
  978W        W73403   5.275  41.093  11.550
  979W        W73404  18.674   3.595   1.717
  980W        W73405  11.330  32.083  11.928
  981W        W73406  12.052  44.135  13.527
  982W        W73407  40.724  11.599  11.848
  983W        W73408  19.138  29.974  11.155
  984W        W73409  21.949  24.184  11.180
  985W        W73410   2.284  35.175  14.957
  986W        W73411   6.604  12.933  11.188
  987W        W73412  40.383  37.881  14.949
  988W        W73413   1.458  12.174  13.748
  989W        W73414  38.209   7.343  13.985
  990W        W73415  11.219  31.109   0.719
  991W        W73416  27.152  38.118   4.194
  992W        W73417  37.491  41.640   1.397
  993W        W73418  29.603  25.109   2.814
  994W        W73419  13.301  23.964  11.931
  995W        W73420   9.762  14.294  11.611
  996W        W73421  11.717  16.540  11.932
  997W        W73422  34.629   7.392   3.179
  998W        W73423  32.920  37.434   4.618
  999W        W73424  24.268  20.705   4.051
 1000W        W73425  16.515  22.628   3.719
 1001W        W73426   7.194  23.907  12.145
 1002W        W73427  37.613   9.159  11.010
 1003W        W73428  31.604  16.345   2.372
 1004W        W73429  25.612  32.846   5.409
 1005W        W73430  25.279   9.262  14.524
 1006W        W73431  36.950  37.986   1.855
 1007W        W73432  32.989  27.209  14.638
 1008W        W73433  29.633   8.722   3.659
 1009W        W73434  16.790  20.833   0.650
 1010W        W73435   9.745  31.871   0.391
 1011W        W73436  26.340  30.109   0.010
 1012W        W73437  24.777  26.861  13.373
 1013W        W73438  39.034   1.970   2.757
 1014W        W73439  26.716  22.260   4.543
 1015W        W73440  21.958   6.084   2.222
 1016W        W73441  34.400   1.506  10.766
 1017W        W73442  32.401  26.441  14.215
 1018W        W73443   0.502  15.704   3.809
 1019W        W73444  14.052  33.131   1.747
 1020W        W73445  24.887  30.021  14.319
 1021W        W73446  42.908  36.441  11.669
 1022W        W73447   8.789  41.369   0.010
 1023W        W73448  12.294   5.730   2.627
 1024W        W73449   1.192  24.963  11.863
 1025W        W73450   2.322  28.119   0.719
 1026W        W73451  10.216  24.169   3.898
 1027W        W73452   4.253   2.746   2.666
 1028W        W73453  31.241  35.874  13.603
 1029W        W73454  39.840  10.118   1.285
 1030W        W73455  28.749  21.040  13.411
 1031W        W73456  17.295   2.499   2.605
 1032W        W73457  23.553   9.862   1.297
 1033W        W73458  44.361   1.668   3.881
 1034W        W73459  20.100  11.139   1.053
 1035W        W73460  14.242  15.150   0.492
 1036W        W73461  35.987  18.491  13.943
 1037W        W73462  38.281   0.029   4.144
 1038W        W73463  10.123  40.542  13.884
 1039W        W73464  36.596  15.295   4.360
 1040W        W73465  30.005  12.331  14.411
 1041W        W73466  30.533  31.990   0.841
 1042W        W73467  40.785   5.746   2.265
 1043W        W73468  26.929  44.073   0.867
 1044W        W73469  10.183  42.132  12.381
 1045W        W73470  15.055  26.494  12.582
 1046W        W73471  31.541   5.314  13.354
 1047W        W73472  24.288  20.760  11.083
 1048W        W73473  17.673  34.555   3.835
 1049W        W73474  12.866  19.521  12.068
 1050W        W73475   0.396  30.951   0.393
 1051W        W73476  36.366  29.745  14.096
 1052W        W73477  20.776  38.008  13.828
 1053W        W73478  38.844  42.775   3.217
 1054W        W73479  29.481  22.657  10.288
 1055W        W73480   5.427  44.456   3.868
 1056W        W73481  39.811  11.379  13.810
 1057W        W73482  25.027  27.004  11.203
 1058W        W73483  20.195  38.587  13.343
 1059W        W73484  41.708  11.528  14.194
 1060W        W73485   7.235  34.920  12.954
 1061W        W73486  20.158  34.302  10.996
 1062W        W73487  26.197  37.409  14.756
 1063W        W73488  12.687  26.404   4.282
 1064W        W73489  29.463  38.167   4.423
 1065W        W73490  42.029   9.164   4.091
 1066W        W73491  30.979  12.416  11.700
 1067W        W73492  23.783  44.858  12.897
 1068W        W73493  30.451  20.041  12.169
 1069W        W73494  35.031  34.516   0.776
 1070W        W73495  13.638  30.725   3.183
 1071W        W73496   8.434  10.664  11.277
 1072W        W73497  43.394  28.509   1.505
 1073W        W73498  23.457   9.737  10.617
 1074W        W73499  17.856   3.514   1.277
 1075W        W73500  16.818  39.883   3.740
 1076W        W73501   1.325   6.184   1.971
 1077W        W73502   2.161  18.932   1.780
 1078W        W73503  28.131  13.614   4.166
 1079W        W73504   6.352  20.496  11.113
 1080W        W73505  43.675   4.371   1.361
 1081W        W73506  43.010   4.239  14.827
 1082W        W73507  22.360  12.821   2.303
 1083W        W73508  30.955  27.272  13.164
 1084W        W73509  14.353  38.893   3.168
 1085W        W73510  41.700   8.756   3.085
 1086W        W73511  14.577   8.709  14.346
 1087W        W73512  36.103  41.025   0.716
 1088W        W73513  36.792   0.781   1.767
 1089W        W73514  14.569  37.701   1.446
 1090W        W73515  34.140   3.849  12.554
 1091W        W73516  28.699  30.388  11.514
 1092W        W73517  40.780  30.980   1.557
 1093W        W73518  43.316  18.108   0.686
 1094W        W73519  23.313   4.208   4.315
 1095W        W73520  35.428  14.645   2.163
 1096W        W73521  36.725  41.878  12.288
 1097W        W73522  27.717   1.755   2.775
 1098W        W73523  11.066  22.644  12.265
 1099W        W73524  41.093  17.179  14.037
 1100W        W73525  24.566   6.132   2.307
 1101W        W73526  10.836  15.076  11.139
 1102W        W73527  28.604  24.248   1.002
 1103W        W73528  14.078   4.735   1.338
 1104W        W73529  25.198  20.470  11.146
 1105W        W73530  24.706  13.095  10.671
 1106W        W73531  12.745  34.963  11.597
 1107W        W73532  43.394  40.861  11.102
 1108W        W73533  19.737  28.248   0.294
 1109W        W73534  24.950  15.811  10.548
 1110W        W73535   4.480  16.284  10.540
 1111W        W73536  19.790  21.559  13.441
 1112W        W73537  16.370   0.073  14.395
 1113W        W73538  42.533  14.678  11.178
 1114W        W73539  36.036  23.989  14.334
 1115W        W73540  20.596  14.714   4.253
 1116W        W73541  33.814   3.896  12.974
 1117W        W73542  31.322   8.013  11.981
 1118W        W73543  15.134  36.620  14.079
 1119W        W73544  38.408  27.156   1.233
 1120W        W73545   2.802   5.693   4.517
 1121W        W73546  13.837  33.862   1.872
 1122W        W73547  32.359  21.682   1.392
 1123W        W73548  15.763  37.084  12.804
 1124W        W73549  40.857  41.528   1.367
 1125W        W73550   2.153  22.120   0.935
 1126W        W73551  19.236  30.493   2.094
 1127W        W73552  21.682  39.807  13.030
 1128W        W73553   2.308  43.304   0.176
 1129W        W73554  15.419  41.544  14.947
 1130W        W73555  35.331  30.461  14.887
 1131W        W73556  41.875   2.930  10.283
 1132W        W73557  38.243   9.860  13.779
 1133W        W73558  43.258  20.976   3.679
 1134W        W73559  10.863  41.542  14.566
 1135W        W73560  10.982  31.298  13.434
 1136W        W73561  40.112   8.240  14.796
 1137W        W73562  23.805  10.352   5.070
 1138W        W73563  39.081   4.494  13.992
 1139W        W73564  32.381  22.679   0.376
 1140W        W73565   6.964  37.767  14.134
 1141W        W73566  10.877  23.140   9.907
 1142W        W73567  43.904   9.460   4.049
 1143W        W73568  33.986  42.003  11.158
 1144W        W73569   2.277  17.613  10.493
 1145W        W73570  22.970  32.297   1.532
 1146W        W73571   9.963   6.141   3.619
 1147W        W73572  22.365  38.944  13.508
 1148W        W73573  17.769  26.672   0.512
 1149W        W73574   6.789  31.378  11.446
 1150W        W73575  28.835  42.239   0.212
 1151W        W73576  31.497  15.810  11.377
 1152W        W73577   1.949  29.853   0.678
 1153W        W73578  36.572   1.847   3.376
 1154W        W73579   0.283  12.882   1.812
 1155W        W73580  14.571  30.112   1.743
 1156W        W73581  28.431  19.213   3.876
 1157W        W73582  30.631  14.735   3.832
 1158W        W73583  18.102  23.201  14.738
 1159W        W73584   8.629  23.076  14.413
 1160W        W73585  20.743   9.323   1.261
 1161W        W73586  17.288  38.144  13.948
 1162W        W73587  25.978  23.727  12.470
 1163W        W73588  42.602  20.062   4.681
 1164W        W73589  27.207  33.601  14.216
 1165W        W73590  21.033  17.956   0.870
 1166W        W73591  24.581   9.691  13.910
 1167W        W73592  30.674  29.579  13.839
 1168W        W73593  42.540  14.511   4.869
 1169W        W73594  44.564  24.593  11.195
 1170W        W73595  11.303  28.586   2.660
 1171W        W73596  42.559  34.470  13.050
 1172W        W73597  43.567   8.787   3.724
 1173W        W73598  23.614   6.391  10.762
 1174W        W73599   0.425  39.061   4.445
 1175W        W73600  18.183  40.806  12.040
 1176W        W73601  27.957  37.118   0.941
 1177W        W73602  35.292  22.137   4.363
 1178W        W73603   3.067  18.000  12.422
 1179W        W73604  30.567  37.363  14.719
 1180W        W73605  29.490  11.023   1.487
 1181W        W73606  17.295   1.293   4.097
 1182W        W73607  39.483  44.854  12.081
 1183W        W73608  35.091  38.923  12.106
 1184W        W73609  44.859  28.632   0.424
 1185W        W73610  34.827  24.190  14.301
 1186W        W73611  39.983  32.935   4.277
 1187W        W73612   2.214  23.579  10.178
 1188W        W73613   9.090  40.218   1.533
 1189W        W73614  31.334   3.033  13.781
 1190W        W73615  40.434  42.780  10.359
 1191W        W73616   5.423  17.937   3.381
 1192W        W73617  22.133  22.316   1.410
 1193W        W73618  26.692  26.195  14.043
 1194W        W73619  29.598  23.076   4.454
 1195W        W73620  35.580  15.230  13.108
 1196W        W73621  33.158  40.339  13.253
 1197W        W73622   1.833  36.381   2.788
 1198W        W73623  43.976   8.717   1.810
 1199W        W73624   3.459  18.591   0.311
 1200W        W73625  44.378  41.835  12.390
 1201W        W73626   0.216  39.877   1.305
 1202W        W73627  30.685  20.547  13.429
 1203W        W73628  41.945  20.924  12.089
 1204W        W73629  39.780  22.186   0.247
 1205W        W73630  39.588  15.380   0.507
 1206W        W73631  23.659  30.588   3.134
 1207W        W73632  41.001  10.633  12.040
 1208W        W73633  39.454  13.720  12.765
 1209W        W73634   6.394   3.837  13.868
 1210W        W73635  18.866  19.841   3.285
 1211W        W73636  26.672  13.099   4.521
 1212W        W73637  15.705  41.915   2.233
 1213W        W73638  12.797  14.245  11.114
 1214W        W73639   1.494  39.734  11.852
 1215W        W73640  35.148  40.706   1.452
 1216W        W73641  24.124  27.557  12.596
 1217W        W73642  35.860  28.321   1.130
 1218W        W73643   5.152  24.378  13.967
 1219W        W73644  13.795  17.233   1.367
 1220W        W73645  32.917   0.919  13.286
 1221W        W73646  10.782  40.113  10.704
 1222W        W73647  44.472  31.513   9.771
 1223W        W73648   2.421  23.515  10.668
 1224W        W73649  37.372  18.087  12.089
 1225W        W73650  38.642  16.579   1.375
 1226W        W73651   1.759   5.747  10.703
 1227W        W73652  27.181  10.387   1.314
 1228W        W73653  17.957  24.676  11.175
 1229W        W73654  28.424   1.127  11.626
 1230W        W73655  30.863  21.306   1.290
 1231W        W73656   0.327  16.127  14.549
 1232W        W73657  17.833  40.794   3.204
 1233W        W73658  20.662  30.970   0.694
 1234W        W73659  28.896   3.173   3.152
 1235W        W73660  14.282  35.537  13.413
 1236W        W73661  30.598  27.708  11.382
 1237W        W73662  29.515  18.276  12.978
 1238W        W73663   1.735   6.353   4.306
 1239W        W73664  25.004  44.493  11.385
 1240W        W73665  18.268  30.603  12.771
 1241W        W73666   8.924   5.478   3.357
 1242W        W73667   6.291   3.919   0.861
 1243W        W73668  20.620  41.789  13.493
 1244W        W73669  42.592   8.630   1.695
 1245W        W73670   5.010  29.108  11.647
 1246W        W73671  31.419  11.124   2.468
 1247W        W73672  12.277  40.035   2.075
 1248W        W73673  14.689  26.756  13.951
 1249W        W73674  20.064  33.536   0.932
 1250W        W73675  17.784  27.911   0.848
 1251W        W73676  22.252   2.710  13.499
 1252W        W73677  28.994  21.786   0.312
 1253W        W73678   1.212  44.489  14.560
 1254W        W73679  41.760  41.300   3.195
 1255W        W73680  33.452   5.019  14.939
 1256W        W73681   7.260   9.917   4.330
 1257W        W73682  17.892  31.887   3.235
 1258W        W73683   6.358  15.169   2.226
 1259W        W73684  19.860  13.325   4.767
 1260W        W73685  36.234  23.760  11.649
 1261W        W73686  35.202  44.861   2.699
 1262W        W73687  42.302  43.095  12.677
 1263W        W73688  16.376  33.946  14.465
 1264W        W73689  26.128  21.268  10.407
 1265W        W73690  43.564  18.266  14.407
 1266W        W73691  10.893   1.947   2.822
 1267W        W73692  43.237  35.314  13.057
 1268W        W73693   5.801  42.261   3.792
 1269W        W73694   9.375   9.412  11.649
 1270W        W73695  39.536  19.118   3.244
 1271W        W73696  36.383   5.862  13.869
 1272W        W73697  21.293  38.362   0.558
 1273W        W73698  36.579  16.276   4.218
 1274W        W73699  40.262   1.414  12.884
 1275W        W73700  37.371  20.765  12.168
 1276W        W73701  21.743  30.966  11.469
 1277W        W73702   4.023  29.467  12.475
 1278W        W73703  21.601  38.747   2.358
 1279W        W73704   8.123  19.714  13.525
 1280W        W73705  30.978   1.030  12.980
 1281W        W73706  35.033  25.609  12.057
 1282W        W73707  13.883  40.457   0.292
 1283W        W73708   2.559  12.876   0.922
 1284W        W73709  43.477  25.957   2.707
 1285W        W73710  37.538  24.909  10.752
 1286W        W73711  25.788  28.820  14.512
 1287W        W73712  11.194   5.631   4.894
 1288W        W73713  15.846  33.129  10.259
 1289W        W73714  24.770  41.498   0.902
 1290W        W73715  27.623  43.425   2.270
 1291W        W73716  38.397  42.590  10.809
 1292W        W73717  22.187  21.813  12.032
 1293W        W73718  12.176  35.363   1.150
 1294W        W73719  39.950   9.895   4.040
 1295W        W73720  23.875  14.297   3.454
 1296W        W73721  34.533   1.948   3.289
 1297W        W73722  13.664  33.182   3.203
 1298W        W73723  37.463  39.361  14.226
 1299W        W73724   1.243  30.494  14.075
 1300W        W73725  26.614  18.595   4.539
 1301W        W73726  42.198  25.986  11.615
 1302W        W73727  35.529  23.951  14.913
 1303W        W73728  27.451  34.983   1.207
 1304W        W73729  12.212  21.139  11.707
 1305W        W73730   9.391  42.984   2.750
 1306W        W73731  25.062  30.670  11.933
 1307W        W73732  36.886  12.408  14.839
 1308W        W73733  42.002  22.871  11.556
 1309W        W73734  29.091  11.352   1.632
 1310W        W73735   8.859   7.647   0.502
 1311W        W73736  22.782  23.976  14.947
 1312W        W73737   7.398  41.910  14.330
 1313W        W73738  18.284  10.072   1.302
 1314W        W73739  11.546  42.170  10.630
 1315W        W73740  35.598  15.103  12.612
 1316W        W73741  18.345  15.266   3.316
 1317W        W73742  37.640  29.438   0.414
 1318W        W73743  42.431   0.244  13.396
 1319W        W73744  21.200  31.522  12.675
 1320W        W73745  42.166   5.699  12.128
 1321W        W73746  14.676  29.349   3.198
 1322W        W73747  28.910   5.796  12.073
 1323W        W73748  17.457  20.093   4.445
 1324W        W73749  22.243   7.062   4.052
 1325W        W73750   8.211  38.127  11.801
 1326W        W73751  20.512   7.794  10.765
 1327W        W73752   8.366  38.380   2.922
 1328W        W73753  42.087   9.137   5.031
 1329W        W73754  29.495  13.817   3.308
 1330W        W73755  17.065  34.136  11.125
 1331W        W73756  24.210  23.133   4.637
 1332W        W73757  22.732  33.281   3.225
 1333W        W73758  25.147  19.321   0.907
 1334W        W73759  23.315  36.599  11.990
 1335W        W73760  19.580  33.026   0.790
 1336W        W73761  27.889  33.952  12.108
 1337W        W73762  42.508  29.501   4.043
 1338W        W73763  43.843  39.845  12.916
 1339W        W73764  25.438  27.792   0.013
 1340W        W73765   7.583  17.004   3.753
 1341W        W73766  34.361  12.754   3.944
 1342W        W73767  28.476  25.709   4.769
 1343W        W73768   4.777  31.383   2.930
 1344W        W73769  33.913  11.803   3.070
 1345W        W73770  30.240  32.853   0.827
 1346W        W73771  22.739  16.841   3.752
 1347W        W73772   1.287  17.517   0.846
 1348W        W73773  10.376  33.631   4.545
 1349W        W73774  10.922   5.649   3.149
 1350W        W73775  25.452  20.657   4.613
 1351W        W73776  28.583   9.562   1.011
 1352W        W73777  12.182  11.844  12.973
 1353W        W73778   0.538   1.863   1.595
 1354W        W73779  26.040  27.569   1.471
 1355W        W73780  40.793  41.919  12.427
 1356W        W73781  26.673  28.237  12.412
 1357W        W73782  32.138   5.343   1.801
 1358W        W73783   1.877   0.591   0.799
 1359W        W73784  15.524  40.054  13.252
 1360W        W73785  16.351  36.079  12.493
 1361W        W73786  21.623   0.629  12.343
 1362W        W73787  25.630  27.920  12.348
 1363W        W73788  22.506  38.339  13.315
 1364W        W73789  21.540   3.441  14.166
 1365W        W73790  11.858  34.480  14.284
 1366W        W73791  24.735  12.214   1.793
 1367W        W73792   0.841   6.861  10.015
 1368W        W73793  18.483  18.321   1.916
 1369W        W73794  44.918  25.658   4.639
 1370W        W73795  26.140  30.853   2.099
 1371W        W73796  31.362  27.588   3.735
 1372W        W73797   4.936  12.597  14.354
 1373W        W73798  21.525  30.837   4.599
 1374W        W73799  24.479  32.618   0.180
 1375W        W73800  15.144  32.153  14.394
 1376W        W73801  31.122  18.044  12.979
 1377W        W73802  33.614  28.403   1.237
 1378W        W73803  39.813  26.148  13.342
 1379W        W73804  41.460  34.117   2.799
 1380W        W73805  26.539  11.737   3.070
 1381W        W73806  24.038  11.820   0.230
 1382W        W73807  17.862  23.981   4.610
 1383W        W73808  16.334  14.303   2.184
 1384W        W73809  23.291  35.402   3.329
 1385W        W73810  23.494  31.777  11.907
 1386W        W73811  11.715  18.110   3.678
 1387W        W73812  42.301  24.435   2.344
 1388W        W73813  29.599  30.070  13.725
 1389W        W73814   5.210   6.253   0.874
 1390W        W73815  33.013   4.249   4.866
 1391W        W73816   2.989  37.388   0.318
 1392W        W73817  17.607  20.042   2.330
 1393W        W73818  21.090  11.595  10.328
 1394W        W73819  42.063  37.408   4.991
 1395W        W73820  35.387  26.541  13.871
 1396W        W73821  22.609  17.251   2.150
 1397W        W73822  43.524  32.990   0.523
 1398W        W73823  10.253  36.101   1.205
 1399W        W73824  19.225  31.730   1.171
 1400W        W73825   6.895  21.016  11.612
 1401W        W73826  24.072  31.783  10.258
 1402W        W73827  24.933  19.568  12.487
 1403W        W73828  16.323  41.293   2.501
 1404W        W73829   7.230  30.727  11.123
 1405W        W73830  14.626  27.284   4.699
 1406W        W73831   5.970  41.601  12.009
 1407W        W73832  16.425  30.827   2.924
 1408W        W73833   8.115  34.138  14.247
 1409W        W73834   4.150  25.072  10.630
 1410W        W73835  25.667  21.490  13.376
 1411W        W73836  30.770   7.888  14.509
 1412W        W73837  12.134  11.353  10.480
 1413W        W73838  41.242  32.988   0.486
 1414W        W73839  20.230   3.201  13.551
 1415W        W73840  32.507   1.673   4.047
 1416W        W73841  31.948  29.961   1.857
 1417W        W73842   1.200   6.772  14.891
 1418W        W73843   0.872  25.379   3.145
 1419W        W73844   1.965  25.362  13.049
 1420W        W73845   5.621  38.910   4.741
 1421W        W73846   6.789  34.963  13.930
 1422W        W73847  40.390  27.772  13.289
 1423W        W73848  42.250   9.860   3.986
 1424W        W73849  31.747  30.127   2.835
 1425W        W73850  23.183  42.250   0.262
 1426W        W73851  42.317  38.469   0.641
 1427W        W73852  21.718  28.038  10.634
 1428W        W73853  35.711   2.122  11.207
 1429W        W73854  26.185  28.183  10.694
 1430W        W73855  24.860  12.103  10.934
 1431W        W73856  35.026   0.922  13.337
 1432W        W73857  38.491  36.444  14.034
 1433W        W73858  21.692  41.052   4.552
 1434W        W73859  17.689  28.924  11.902
 1435W        W73860  28.580  44.409  13.418
 1436W        W73861  22.118   9.281   3.582
 1437W        W73862  12.670   3.242  14.524
 1438W        W73863  38.480  42.627  11.318
 1439W        W73864  25.654  17.162  11.967
 1440W        W73865  27.912   2.636  12.872
 1441W        W73866  35.418   2.904   0.315
 1442W        W73867  42.703  21.467   0.069
 1443W        W73868   0.078   7.378  13.149
 1444W        W73869  37.500  15.568  11.584
 1445W        W73870  13.170  37.495  10.218
 1446W        W73871  43.530  27.010  13.476
 1447W        W73872  28.257   8.381   4.091
 1448W        W73873  19.249  37.328   4.990
 1449W        W73874  35.548  23.551   0.773
 1450W        W73875  26.567   4.531   3.218
 1451W        W73876   2.894  44.771  14.081
 1452W        W73877   1.677  40.493  12.933
 1453W        W73878  36.585   2.816  10.649
 1454W        W73879  14.102  18.257   3.771
 1455W        W73880  36.003   6.848  10.621
 1456W        W73881   6.384   7.361   4.112
 1457W        W73882  23.338  37.761  13.201
 1458W        W73883  13.760   6.711   2.337
 1459W        W73884   9.397  21.059   2.208
 1460W        W73885  18.572  14.532   0.961
 1461W        W73886  18.153   2.344   4.675
 1462W        W73887  19.351  33.049  13.933
 1463W        W73888  23.657  20.738  13.365
 1464W        W73889  22.654  34.190  11.120
 1465W        W73890  15.327  28.007   3.511
 1466W        W73891   5.149  22.335   3.081
 1467W        W73892  37.612   9.831  10.489
 1468W        W73893   8.184  13.904  14.083
 1469W        W73894  43.269  35.947  14.442
 1470W        W73895  21.670  32.578   1.209
 1471W        W73896  26.842  17.645  12.494
 1472W        W73897  22.554  30.894   2.687
 1473W        W73898  29.355   5.123   1.850
 1474W        W73899   1.176   8.386  13.757
 1475W        W73900  15.596  23.673   4.943
 1476W        W73901  20.609  19.757  11.941
 1477W        W73902  19.759  28.605   4.231
 1478W        W73903   9.898  29.102   1.427
 1479W        W73904  43.944   3.562   3.703
 1480W        W73905  37.457  38.589   4.160
 1481W        W73906  38.816  12.629  12.880
 1482W        W73907   9.743  31.519  12.716
 1483W        W73908  31.141   4.322   3.635
 1484W        W73909  13.186   3.226   2.845
 1485W        W73910   5.625  40.861   1.486
 1486W        W73911  18.988  18.342   1.758
 1487W        W73912  35.761  10.656   4.622
 1488W        W73913  35.012  14.617  11.603
 1489W        W73914  20.254  32.849  13.509
 1490W        W73915  26.782  43.795  13.067
 1491W        W73916  30.962  12.262  13.055
 1492W        W73917  33.081  18.607   2.598
 1493W        W73918  37.960  28.897  14.917
 1494W        W73919  35.169  37.028   1.811
 1495W        W73920  27.618  21.718  10.147
 1496W        W73921  16.103  23.368  13.603
 1497W        W73922  42.399   6.929  14.668
 1498W        W73923  34.955  35.547   0.902
 1499W        W73924  21.637  15.301   3.644
 1500W        W73925   3.670  36.955  12.380
 1501W        W73926  15.584  35.556  14.378
 1502W        W73927  26.926  26.125   3.615
 1503W        W73928   5.667   0.278   4.137
 1504W        W73929  10.686  11.229   1.392
 1505W        W73930  23.510  43.836   2.265
 1506W        W73931  42.878  16.833   4.424
 1507W        W73932   6.232   4.742  14.048
 1508W        W73933   4.855  24.057  14.280
 1509W        W73934   9.365   6.360   3.083
 1510W        W73935   0.416  43.349   3.375
 1511W        W73936  17.827  13.304   4.540
 1512W        W73937  28.166  32.997   0.989
 1513W        W73938  12.629  23.004  14.348
 1514W        W73939  30.570  43.928   2.669
 1515W        W73940  11.067  33.476   0.798
 1516W        W73941  28.338   2.574  14.516
 1517W        W73942  19.858   3.549   0.936
 1518W        W73943  18.992   3.826  11.419
 1519W        W73944  39.588  28.046  12.104
 1520W        W73945  16.510  35.550  13.967
 1521W        W73946  27.233  12.250   4.461
 1522W        W73947  27.005  39.050   1.758
 1523W        W73948  43.313  40.868  11.599
 1524W        W73949  37.570  11.592   3.794
 1525W        W73950  21.243  42.827   2.924
 1526W        W73951  43.119  23.367   4.289
 1527W        W73952  28.660  30.689  14.463
 1528W        W73953  43.390  29.017   1.626
 1529W        W73954  30.750  44.473   1.791
 1530W        W73955  40.918  33.056  14.509
 1531W        W73956  23.560   0.478  13.423
 1532W        W73957  38.324  24.023   3.800
 1533W        W73958  39.476  14.280  13.089
 1534W        W73959  39.454  23.346  13.943
 1535W        W73960  23.805  14.668  14.249
 1536W        W73961  43.998   2.442  13.774
 1537W        W73962  34.531  11.811   4.375
 1538W        W73963  39.820  23.421   1.554
 1539W        W73964  21.054  17.091   2.738
 1540W        W73965  13.058  35.374   1.309
 1541W        W73966  17.772   2.833  13.395
 1542W        W73967  25.768   4.816  10.560
 1543W        W73968  43.907  43.056   0.279
 1544W        W73969  32.067  43.480  11.614
 1545W        W73970  44.566  39.621  11.429
 1546W        W73971  22.143  26.181   3.808
 1547W        W73972  38.362   8.737  11.995
 1548W        W73973   2.023  31.114   0.084
 1549W        W73974   8.260   3.093  13.342
 1550W        W73975  26.880   6.832   2.654
 1551W        W73976   0.181  42.351   0.903
 1552W        W73977  25.353  34.192   1.311
 1553W        W73978  16.139  40.944  14.513
 1554W        W73979  38.485  41.494   3.030
 1555W        W73980  26.271  27.060   3.162
 1556W        W73981  29.445  41.435  11.393
 1557W        W73982  14.304  12.565   2.344
 1558W        W73983  10.506  17.307  12.137
 1559W        W73984  30.468  43.928   0.952
 1560W        W73985  38.327  37.892  11.501
 1561W        W73986  15.268   5.937   4.540
 1562W        W73987  37.538   2.298   2.421
 1563W        W73988  26.566  28.525  12.872
 1564W        W73989  18.129  34.893   9.605
 1565W        W73990   2.482  18.434  11.112
 1566W        W73991   1.216  37.904   1.245
 1567W        W73992   6.647  15.805  13.812
 1568W        W73993  29.918   4.212  14.146
 1569W        W73994  26.475  29.165  12.039
 1570W        W73995  17.119  32.386  14.752
 1571W        W73996   0.959  14.396  12.625
 1572W        W73997  36.506   4.997   1.326
 1573W        W73998  26.745  37.618   3.754
 1574W        W73999  13.132  14.034  12.369
 1575W        W74000  15.385  20.157   3.534
 1576W        W74001  37.012   9.606   4.196
 1577W        W74002  44.699  36.248  11.190
 1578W        W74003   3.997  27.065   1.098
 1579W        W74004  13.740  19.963   1.765
 1580W        W74005  11.674   1.936   3.448
 1581W        W74006  22.925  35.729  14.009
 1582W        W74007  37.657  29.602  12.508
 1583W        W74008   1.804  29.483  14.543
 1584W        W74009   5.647  30.831   2.741
 1585W        W74010   3.364   3.226   2.114
 1586W        W74011  31.516  20.958   3.718
 1587W        W74012  22.707  23.198   0.697
 1588W        W74013  22.533  40.590   1.883
 1589W        W74014  42.273  34.218   2.203
 1590W        W74015   7.440   0.434   4.687
 1591W        W74016  29.119   6.943  14.880
 1592W        W74017  29.702  25.620  12.349
 1593W        W74018  12.718   3.730  11.839
 1594W        W74019  34.686  41.293  13.969
 1595W        W74020  25.085  40.975  14.616
 1596W        W74021   8.317  10.552  12.510
 1597W        W74022  39.347  10.610  10.407
 1598W        W74023   5.462  41.584   4.120
 1599W        W74024  41.984   9.392  14.396
 1600W        W74025  17.541  28.681   0.855
 1601W        W74026  43.713  21.804  14.411
 1602W        W74027  13.421  29.485  14.875
 1603W        W74028  24.223  10.861   4.411
 1604W        W74029   1.423  22.239  13.300
 1605W        W74030   7.828  14.391   1.882
 1606W        W74031  42.326  31.008   1.267
 1607W        W74032  22.011  32.964   0.016
 1608W        W74033  19.196  15.865  12.424
 1609W        W74034  28.377  25.262  13.385
 1610W        W74035  33.569   5.413   4.695
 1611W        W74036  40.110   9.154  12.556
 1612W        W74037  13.165  14.565  12.191
 1613W        W74038  18.544  34.210   3.803
 1614W        W74039   9.010  43.562   4.174
 1615W        W74040  23.660   4.933   3.865
 1616W        W74041   7.849  17.274   3.337
 1617W        W74042   9.180   9.956   0.049
 1618W        W74043  15.523  14.987  14.052
 1619W        W74044   8.886  37.479   4.283
 1620W        W74045  41.801  38.909  12.090
 1621W        W74046  32.982  13.726  14.860
 1622W        W74047   0.680   7.677  14.945
 1623W        W74048  23.005  12.648  10.795
 1624W        W74049   8.169  29.823   2.913
 1625W        W74050  39.804  38.570   0.442
 1626W        W74051  37.067  27.386  14.952
 1627W        W74052   8.285  11.710   1.949
 1628W        W74053   8.773  44.547  13.817
 1629W        W74054  27.609  25.536   0.778
 1630W        W74055  44.057  16.571  12.109
 1631W        W74056  19.586   4.232  12.497
 1632W        W74057   6.950   1.343   3.718
 1633W        W74058  21.249  32.531   0.914
 1634W        W74059  13.644   7.234   2.328
 1635W        W74060  42.366  20.291  14.841
 1636W        W74061  38.521  21.077  12.103
 1637W        W74062  10.800  11.913  14.002
 1638W        W74063  22.470  36.074  12.067
 1639W        W74064   1.892   0.914  11.336
 1640W        W74065  10.533  37.821  14.493
 1641W        W74066  12.889  42.079   0.455
 1642W        W74067  35.306  31.667  14.924
 1643W        W74068  18.773  22.283  12.554
 1644W        W74069   8.230  38.036  14.516
 1645W        W74070   5.454  42.362  12.402
 1646W        W74071  39.407  21.022  12.426
 1647W        W74072  22.300  26.752   4.479
 1648W        W74073  12.010  32.413  11.121
 1649W        W74074  19.255  37.026  12.873
 1650W        W74075  29.679  39.383   1.360
 1651W        W74076  12.779   4.252  13.909
 1652W        W74077  37.983  42.890   4.480
 1653W        W74078  33.970  14.565  14.739
 1654W        W74079  36.452   6.470   4.051
 1655W        W74080   4.771  43.771  10.786
 1656W        W74081  33.094  33.686  12.103
 1657W        W74082  20.478   0.698  12.552
 1658W        W74083  39.179  35.050   1.386
 1659W        W74084  41.928   1.285  14.018
 1660W        W74085   2.753  17.436   0.200
 1661W        W74086  12.079  44.590  13.270
 1662W        W74087   0.531  21.913  10.506
 1663W        W74088   8.827  35.061   1.157
 1664W        W74089  21.550  22.168  12.094
 1665W        W74090  40.441   9.372   1.436
 1666W        W74091  24.719  28.651   4.657
 1667W        W74092  31.178   5.272   0.054
 1668W        W74093  15.131   2.160  12.871
 1669W        W74094  29.036  32.334  14.958
 1670W        W74095   3.432  37.880  11.600
 1671W        W74096  13.574  10.363  11.919
 1672W        W74097  11.730   2.364   1.975
 1673W        W74098  40.777  11.164   1.167
 1674W        W74099   9.304  27.513   0.750
 1675W        W74100   8.947   8.182  11.364
 1676W        W74101  13.059  14.047  14.014
 1677W        W74102  42.018  42.460   4.114
 1678W        W74103  31.278  21.777  10.139
 1679W        W74104  43.026  44.827   1.651
 1680W        W74105   5.676   2.435  14.550
 1681W        W74106  44.220  25.230  11.931
 1682W        W74107  13.238  36.539  10.413
 1683W        W74108  13.174  39.113   4.768
 1684W        W74109  17.477  19.104   2.659
 1685W        W74110  42.079  35.419  13.400
 1686W        W74111  20.473  13.620  10.692
 1687W        W74112  18.723  42.596   0.919
 1688W        W74113  25.049  37.482  10.742
 1689W        W74114  17.271  31.358   4.200
 1690W        W74115   7.208  31.957   1.868
 1691W        W74116   0.882   4.137   0.917
 1692W        W74117   8.754   4.907  13.238
 1693W        W74118   7.847  42.957   1.017
 1694W        W74119  27.875   2.337  14.489
 1695W        W74120  33.992  23.580  11.359
 1696W        W74121  42.511  42.621  10.700
 1697W        W74122   7.744   4.036  11.750
 1698W        W74123  21.715  26.236  10.427
 1699W        W74124  10.766  35.002  10.602
 1700W        W74125  32.817  29.641   3.262
 1701W        W74126  26.489  20.080   3.216
 1702W        W74127  29.599   9.233   1.371
 1703W        W74128  24.983  31.955  11.135
 1704W        W74129  39.265  32.883  10.577
 1705W        W74130   3.782  44.490   4.301
 1706W        W74131  13.558  22.395   0.170
 1707W        W74132  43.065  18.723   3.440
 1708W        W74133   6.643  32.167  11.014
 1709W        W74134   3.011   5.850   0.549
 1710W        W74135  17.067   4.006  12.609
 1711W        W74136  42.733  23.614   4.559
 1712W        W74137  39.523  32.566   2.322
 1713W        W74138  31.423   9.157   3.270
 1714W        W74139   0.882   8.541   3.596
 1715W        W74140  33.823  37.518   1.786
 1716W        W74141  34.199  35.483   1.579
 1717W        W74142  41.799  10.712  13.707
 1718W        W74143   7.150  29.178  14.319
 1719W        W74144  39.834  29.065   1.927
 1720W        W74145   8.838  41.887   3.579
 1721W        W74146   4.449  19.830  13.785
 1722W        W74147  43.057  15.743   3.800
 1723W        W74148  27.449  36.976   2.322
 1724W        W74149  25.985  43.589  13.174
 1725W        W74150  35.127  26.975  13.961
 1726W        W74151  22.692  13.208   2.283
 1727W        W74152  32.691   4.823   3.646
 1728W        W74153  27.827  41.913   1.147
 1729W        W74154  10.705  10.404   3.846
 1730W        W74155  13.284  10.252  13.721
 1731W        W74156  12.745  27.134   3.727
 1732W        W74157  27.679  13.155  13.940
 1733W        W74158  26.222  10.146  12.937
 1734W        W74159  22.299  27.117   4.118
 1735W        W74160  44.937  12.111  14.940
 1736W        W74161  22.035  29.436   4.595
 1737W        W74162   1.820  18.541  14.744
 1738W        W74163  33.376  10.759   3.946
 1739W        W74164  25.491  32.259  11.095
 1740W        W74165  30.444  32.534   1.320
 1741W        W74166  25.645   2.227  14.952
 1742W        W74167  23.126   7.154  12.860
 1743W        W74168  13.742   7.704  13.481
 1744W        W74169  11.120  38.308   3.074
 1745W        W74170  21.747  11.389   0.532
 1746W        W74171  14.352  42.347   0.138
 1747W        W74172  29.564  13.301  10.685
 1748W        W74173  39.707  25.953  12.342
 1749W        W74174  19.549  25.225  11.730
 1750W        W74175  12.691  40.126  10.979
 1751W        W74176  15.089  38.921   5.294
 1752W        W74177  40.098  22.132  11.968
 1753W        W74178  30.828  24.260   4.500
 1754W        W74179  14.377  16.508  14.245
 1755W        W74180   7.475  14.707   4.659
 1756W        W74181   4.407   5.714  11.641
 1757W        W74182  44.406  37.005   0.819
 1758W        W74183  13.459   5.773   3.085
 1759W        W74184   2.394   1.465   1.247
 1760W        W74185  29.956   3.849   0.697
 1761W        W74186  27.779  43.907  12.877
 1762W        W74187  34.928  25.334  10.697
 1763W        W74188   3.983   9.157   5.039
 1764W        W74189  16.033   8.880   0.063
 1765W        W74190  39.445  34.226  14.077
 1766W        W74191  17.308  34.236  11.973
 1767W        W74192  37.621  18.713  13.986
 1768W        W74193   0.532   5.418  11.439
 1769W        W74194  27.204  34.112  14.286
 1770W        W74195  12.107  42.078  12.722
 1771W        W74196  27.348   3.810  14.567
 1772W        W74197  44.899  23.310   1.673
 1773W        W74198  31.558   2.087   4.436
 1774W        W74199  27.929  24.939   1.059
 1775W        W74200   1.016  32.436   0.917
 1776W        W74201  15.836   7.214  13.316
 1777W        W74202   1.611  37.916   0.839
 1778W        W74203  33.559  39.054   0.260
 1779W        W74204  36.744  14.747   1.655
 1780W        W74205  40.504  11.657  13.871
 1781W        W74206  12.362  24.764   9.670
 1782W        W74207  43.294  22.316  10.976
 1783W        W74208  35.525  20.527  12.956
 1784W        W74209  31.611  11.809  11.101
 1785W        W74210  21.224   7.591  10.553
 1786W        W74211  41.331  35.868   1.957
 1787W        W74212  31.656   2.386   3.401
 1788W        W74213   2.866  33.576   3.249
 1789W        W74214   3.274  29.481   0.802
 1790W        W74215  27.415  40.533  13.995
 1791W        W74216   2.406  37.588  11.884
 1792W        W74217  14.439  27.176   4.230
 1793W        W74218  20.599   2.867  10.752
 1794W        W74219  32.504   4.301   0.982
 1795W        W74220  32.125  26.544   2.978
 1796W        W74221  29.580   5.187   3.713
 1797W        W74222  14.031   1.925   4.599
 1798W        W74223   5.235  19.503   3.975
 1799W        W74224   8.265  30.121  14.939
 1800W        W74225   4.976   1.931   0.308
 1801W        W74226  42.399  18.355   1.711
 1802W        W74227  28.621  15.200   1.262
 1803W        W74228  17.269   8.657  13.777
 1804W        W74229   9.752  33.464   1.315
 1805W        W74230   1.819  32.199   3.754
 1806W        W74231   4.363  39.917  11.223
 1807W        W74232   6.294  27.122  12.485
 1808W        W74233   4.490  14.260  10.542
 1809W        W74234  24.517  14.808   0.756
 1810W        W74235  18.963  36.139   3.541
 1811W        W74236  40.248  29.459  13.545
 1812W        W74237  39.261  11.202   2.891
 1813W        W74238   8.719  16.323  13.036
 1814W        W74239  21.678  37.639   4.808
 1815W        W74240  21.306  33.895   0.471
 1816W        W74241   4.724  20.432   2.293
 1817W        W74242  31.118  10.904   2.848
 1818W        W74243   7.350  44.359   2.877
 1819W        W74244  18.048   8.250   4.110
 1820W        W74245  11.198   8.442  13.654
 1821W        W74246  22.568  16.550   3.339
 1822W        W74247  31.932  34.359  10.693
 1823W        W74248  17.189  32.631   3.411
 1824W        W74249  17.815  43.961  13.906
 1825W        W74250  20.744   5.315  13.278
 1826W        W74251  39.510  43.628   3.255
 1827W        W74252  26.046  15.209  13.700
 1828W        W74253  43.320   5.181   3.461
 1829W        W74254  15.739  38.491  14.167
 1830W        W74255  24.017  28.935   1.461
 1831W        W74256  30.610  15.302   0.931
 1832W        W74257  36.525  11.844   4.374
 1833W        W74258  19.514   5.145  11.454
 1834W        W74259  20.133  36.166   1.764
 1835W        W74260  31.069  13.121  11.707
 1836W        W74261  21.189  36.065  14.768
 1837W        W74262  41.254  33.845   1.217
 1838W        W74263  11.539  37.664  14.226
 1839W        W74264  39.006  33.405   0.022
 1840W        W74265  44.419  23.207  10.956
 1841W        W74266  16.591  10.946   3.373
 1842W        W74267  13.884  37.395   2.745
 1843W        W74268  22.487  22.212  13.982
 1844W        W74269  35.743  15.782   3.281
 1845W        W74270   7.534  29.214  12.811
 1846W        W74271  14.131  37.945  14.064
 1847W        W74272   5.359  25.696   4.589
 1848W        W74273  39.856   1.950  14.046
 1849W        W74274  39.087  23.423  14.982
 1850W        W74275  37.531  43.722   9.873
 1851W        W74276  17.782  27.064  11.112
 1852W        W74277   8.866   0.984   0.820
 1853W        W74278   5.439   4.928  13.670
 1854W        W74279   3.757  19.570  14.391
 1855W        W74280   3.211  16.128   3.218
 1856W        W74281   0.672  12.620  14.846
 1857W        W74282  28.654  14.869  13.051
 1858W        W74283  40.269   7.134   3.585
 1859W        W74284  19.948  26.993   2.022
 1860W        W74285  28.282  23.748   2.946
 1861W        W74286  18.612   5.735   1.891
 1862W        W74287   9.675  30.239   2.308
 1863W        W74288  23.301  38.479   0.928
 1864W        W74289  33.609  42.018  11.496
 1865W        W74290  17.292   2.524   0.110
 1866W        W74291  35.139   8.628  13.261
 1867W        W74292  36.032  25.427   4.691
 1868W        W74293  12.213   0.442   2.784
 1869W        W74294  42.389   3.004  12.652
 1870W        W74295  43.329  26.438  12.067
 1871W        W74296   1.719  23.112   1.824
 1872W        W74297  18.859  35.169  14.054
 1873W        W74298   6.300   6.952  14.066
 1874W        W74299  34.547  42.943   2.224
 1875W        W74300   7.856  14.580  11.614
 1876W        W74301  18.361  28.504  12.079
 1877W        W74302  21.260  14.123  14.353
 1878W        W74303  20.720  40.516   3.150
 1879W        W74304  27.431  15.116  13.819
 1880W        W74305  30.555  33.167   3.189
 1881W        W74306   7.135  10.198  12.810
 1882W        W74307  32.928   3.070   1.871
 1883W        W74308  13.077  26.364  11.715
 1884W        W74309   8.941   8.277  14.406
 1885W        W74310  28.145  13.354  13.813
 1886W        W74311  44.463  34.076  14.591
 1887W        W74312   1.624  43.985  13.102
 1888W        W74313  23.689  29.121  11.145
 1889W        W74314   7.679  25.765  11.524
 1890W        W74315   3.856   3.813  13.287
 1891W        W74316  39.000  11.016  11.150
 1892W        W74317  18.830  19.635  12.558
 1893W        W74318   0.678  33.201   3.296
 1894W        W74319  28.376  28.419  14.315
 1895W        W74320  34.356  41.347   0.228
 1896W        W74321  39.107  40.552  14.359
 1897W        W74322  12.702  10.073   0.524
 1898W        W74323  11.518  29.616   3.090
 1899W        W74324  32.810  15.502  11.891
 1900W        W74325  18.864  16.390   1.275
 1901W        W74326   1.793  33.444   4.332
 1902W        W74327  39.755  15.687  12.882
 1903W        W74328   5.615  16.578   2.325
 1904W        W74329  34.862   8.695   3.410
 1905W        W74330  14.066  41.382   0.728
 1906W        W74331  20.270   3.913   2.834
 1907W        W74332   3.181  24.091  10.842
 1908W        W74333  41.091  30.528  12.485
 1909W        W74334  39.812   1.837   1.800
 1910W        W74335  23.130   7.221  14.948
 1911W        W74336  20.618   7.343   4.532
 1912W        W74337  30.841   0.793   1.542
 1913W        W74338  43.035  30.175   4.104
 1914W        W74339  19.837   2.330   4.191
 1915W        W74340  32.466   7.466   3.879
 1916W        W74341  30.007  44.767  12.092
 1917W        W74342   8.946  32.767   2.195
 1918W        W74343  33.107  14.926  10.590
 1919W        W74344  36.923  34.456   4.572
 1920W        W74345  42.694  29.654  11.428
 1921W        W74346   0.111  33.966   4.503
 1922W        W74347  17.453  32.452  12.340
 1923W        W74348  20.605  28.464  14.810
 1924W        W74349   6.916  40.430   4.238
 1925W        W74350  19.550  41.076  12.347
 1926W        W74351  16.354  41.142  13.537
 1927W        W74352  19.063  35.066   0.781
 1928W        W74353  13.669  35.585  11.253
 1929W        W74354  42.026  24.769  11.491
 1930W        W74355   6.391  33.601  14.016
 1931W        W74356  36.109   5.927   1.435
 1932W        W74357  26.067  37.909   0.929
 1933W        W74358  40.275  18.277  10.526
 1934W        W74359  27.564   3.065  11.618
 1935W        W74360  26.115  19.786  12.189
 1936W        W74361  30.222  38.007   0.455
 1937W        W74362  19.403  38.359  11.474
 1938W        W74363   1.955  38.380  12.369
 1939W        W74364  16.286  15.178   2.233
 1940W        W74365  30.856  38.019  14.231
 1941W        W74366  11.202   6.810  14.834
 1942W        W74367   7.630  27.777   4.235
 1943W        W74368  33.031   2.453  12.144
 1944W        W74369  21.935  25.570   0.981
 1945W        W74370  39.264  40.964  13.020
 1946W        W74371  37.500  37.349  14.436
 1947W        W74372  36.556  15.411   2.332
 1948W        W74373   8.175  27.996   0.361
 1949W        W74374  26.496  22.222  11.630
 1950W        W74375  39.834  17.662   3.168
 1951W        W74376   1.984  27.541  12.481
 1952W        W74377   9.490  18.707  12.963
 1953W        W74378  15.383  21.041  11.521
 1954W        W74379  19.265   4.261   3.134
 1955W        W74380  23.807   8.860   1.828
 1956W        W74381  23.737  42.800  13.852
 1957W        W74382  19.635   3.262   1.851
 1958W        W74383  23.136  21.804   2.734
 1959W        W74384  20.181  13.820   3.094
 1960W        W74385   5.465  42.082   0.873
 1961W        W74386  44.805  39.032   1.437
 1962W        W74387  40.597  41.455  14.991
 1963W        W74388  27.603  14.528   0.915
 1964W        W74389   9.451  41.295   2.308
 1965W        W74390  15.784  41.369  11.526
 1966W        W74391  19.863  22.718  12.565
 1967W        W74392  41.800  11.777  11.170
 1968W        W74393  10.939   6.508  12.504
 1969W        W74394  16.038   6.115  12.537
 1970W        W74395  13.799  11.959   0.364
 1971W        W74396  28.178  32.505  14.422
 1972W        W74397  30.970  11.175   2.193
 1973W        W74398  41.727  39.783  13.600
 1974W        W74399  17.960  19.964  13.180
 1975W        W74400  19.671  13.649   0.973
 1976W        W74401   9.095   3.723  13.195
 1977W        W74402  23.616  10.226   2.442
 1978W        W74403   1.752  39.548  13.034
 1979W        W74404   9.225   3.449  12.362
 1980W        W74405  15.355  37.700  10.517
 1981W        W74406  39.024  18.613  13.881
 1982W        W74407  37.669  16.685   3.558
 1983W        W74408  13.643  30.176  12.455
 1984W        W74409  40.420  23.585   0.145
 1985W        W74410   6.210  21.247  13.872
 1986W        W74411   9.231  31.964   0.384
 1987W        W74412  31.952  34.094  13.383
 1988W        W74413  34.224  10.344  11.954
 1989W        W74414  41.782  19.162  10.168
 1990W        W74415  13.859  40.648   4.107
 1991W        W74416   6.584  16.779   0.198
 1992W        W74417  20.058  43.553   3.200
 1993W        W74418  42.486   2.892  11.600
 1994W        W74419  33.976  10.309   1.151
 1995W        W74420   6.505   2.932   0.321
 1996W        W74421  31.840  15.531   1.472
 1997W        W74422  35.790   2.762  13.628
 1998W        W74423  34.556  16.750   1.406
 1999W        W74424  34.338  14.680   1.459
 2000W        W74425   1.483  11.586   4.663
 2001W        W74426  17.168  19.606   5.033
 2002W        W74427  28.972   5.361  12.389
 2003W        W74428  17.136   4.066  12.076
 2004W        W74429  26.108   9.753  11.822
 2005W        W74430  35.380  19.272  14.416
 2006W        W74431  23.990  43.064  11.141
 2007W        W74432  35.379  22.737  14.424
 2008W        W74433   9.745  20.782   2.668
 2009W        W74434   7.111   4.132   2.386
 2010W        W74435  27.804  17.817   1.918
 2011W        W74436   2.020  21.578   2.787
 2012W        W74437  29.592  44.716  11.429
 2013W        W74438  42.732  24.721  14.100
 2014W        W74439   9.843   1.649  13.869
 2015W        W74440  11.931   9.677  13.315
 2016W        W74441  31.853  23.772  14.576
 2017W        W74442  12.035  29.574   1.502
 2018W        W74443  19.337  28.551  13.953
 2019W        W74444  13.373  21.226   4.873
 2020W        W74445  25.010  27.950  11.569
 2021W        W74446  31.095  44.480  14.415
 2022W        W74447  32.190  28.001   4.916
 2023W        W74448  30.978  29.458  13.248
 2024W        W74449  12.645   9.968  12.000
 2025W        W74450  21.163   8.021  12.624
 2026W        W74451  22.837  11.598  11.088
 2027W        W74452   8.384  15.370  13.976
 2028W        W74453  41.474  35.007  13.541
 2029W        W74454  41.802  32.118  11.069
 2030W        W74455  30.101  20.102  11.732
 2031W        W74456  23.614  13.210   4.823
 2032W        W74457  41.407  36.368  14.663
 2033W        W74458  44.545  32.697  10.227
 2034W        W74459  30.159  32.468   3.111
 2035W        W74460  22.895   7.345  13.276
 2036W        W74461  38.414  28.669  14.758
 2037W        W74462   8.474   1.277  11.288
 2038W        W74463   9.553   1.816   0.501
 2039W        W74464  33.365   5.948  11.000
 2040W        W74465   6.755   4.864  13.813
 2041W        W74466  18.106  16.421  12.098
 2042W        W74467  34.457  11.594  13.039
 2043W        W74468  40.327   7.550   0.281
 2044W        W74469  39.518   4.954   3.666
 2045W        W74470  34.136  14.548   4.551
 2046W        W74471  14.085  25.010  10.650
 2047W        W74472   8.303  18.358  12.133
 2048W        W74473  19.030  23.907  11.663
 2049W        W74474  23.486  43.084   4.174
 2050W        W74475  21.601  26.352  12.793
 2051W        W74476  31.107  10.739  14.175
 2052W        W74477   2.756  20.256  11.092
 2053W        W74478  27.025  25.867   3.202
 2054W        W74479  42.361  22.231  11.025
 2055W        W74480  11.262   2.456   2.216
 2056W        W74481   9.928  39.923  11.180
 2057W        W74482  43.907  19.197  13.781
 2058W        W74483  36.325  27.611   0.817
 2059W        W74484  24.707  31.364   1.221
 2060W        W74485  40.213  37.643   9.860
 2061W        W74486  13.612  27.074  11.944
 2062W        W74487  12.751  41.048   0.491
 2063W        W74488  42.040   8.597  14.881
 2064W        W74489  20.314  27.570  14.448
 2065W        W74490  27.608  11.830   1.654
 2066W        W74491  31.887  16.009  13.931
 2067W        W74492  31.089  26.854   1.427
 2068W        W74493  10.662   8.958   4.062
 2069W        W74494  34.265  25.102   0.322
 2070W        W74495  29.133   0.922  10.473
 2071W        W74496   9.873   7.397   2.417
 2072W        W74497  42.290  15.346  10.695
 2073W        W74498  27.086  33.874  13.790
 2074W        W74499   0.741  20.584  12.096
 2075W        W74500   9.112  15.396  14.299
 2076W        W74501  32.400  20.595   3.136
 2077W        W74502  20.354  30.091   2.850
 2078W        W74503  10.129  12.797  11.557
 2079W        W74504   1.896  19.547  14.528
 2080W        W74505   1.288  28.056   0.248
 2081W        W74506  32.524  14.852  12.419
 2082W        W74507  20.644  17.723  12.777
 2083W        W74508  22.266  26.469  10.886
 2084W        W74509   8.329   5.841  12.434
 2085W        W74510  18.178  33.662   9.783
 2086W        W74511   0.524   7.207   0.930
 2087W        W74512  17.804  43.491  12.543
 2088W        W74513  33.399   6.409  10.798
 2089W        W74514  27.257  32.494   4.628
 2090W        W74515  42.462  10.763  13.410
 2091W        W74516   6.952  27.073  14.987
 2092W        W74517  43.663  17.624   4.669
 2093W        W74518  17.241  39.572   3.106
 2094W        W74519  23.552  23.121   3.911
 2095W        W74520  30.963  24.400   3.657
 2096W        W74521  44.002  12.620  13.412
 2097W        W74522   1.433   2.013  13.511
 2098W        W74523  11.851  37.799  12.512
 2099W        W74524   3.248   4.704   0.125
 2100W        W74525  10.690  15.110  12.661
 2101W        W74526  26.995  11.581   1.850
 2102W        W74527  37.934  42.473  12.994
 2103W        W74528  29.747  38.596   4.407
 2104W        W74529   6.302  40.051  11.560
 2105W        W74530  20.179   6.890   4.199
 2106W        W74531   0.271  11.624  14.303
 2107W        W74532  38.768   6.212   4.593
 2108W        W74533   4.986   4.609  14.247
 2109W        W74534  13.673  26.921  14.864
 2110W        W74535  16.850  29.100  12.545
 2111W        W74536  19.711  34.306  14.048
 2112W        W74537  26.493   6.706  14.831
 2113W        W74538  40.943  14.335  10.443
 2114W        W74539  37.708  33.702   0.596
 2115W        W74540   1.253  20.030  14.169
 2116W        W74541  35.949  32.157  11.126
 2117W        W74542   7.826  26.946  13.560
 2118W        W74543  20.825  30.130  14.850
 2119W        W74544  14.244   5.953  10.461
 2120W        W74545  34.428  25.804  12.859
 2121W        W74546  42.979  35.495  14.494
 2122W        W74547  22.033  27.601  10.716
 2123W        W74548  16.282  39.359  11.575
 2124W        W74549  44.540  36.906   4.366
 2125W        W74550  33.762  36.692  14.437
 2126W        W74551  35.139  39.072   4.193
 2127W        W74552  16.693  39.924  14.212
 2128W        W74553   6.235  36.350  12.963
 2129W        W74554  20.655  32.135  13.069
 2130W        W74555  42.790  11.736   0.391
 2131W        W74556  30.736  26.797  13.165
 2132W        W74557   5.412  37.357   2.234
 2133W        W74558   6.967  36.822  13.536
 2134W        W74559  21.779  33.429   0.075
 2135W        W74560  37.632  32.516  11.582
 2136W        W74561  13.582  43.009   1.373
 2137W        W74562   2.310  10.144  14.050
 2138W        W74563  16.799  29.611  12.489
 2139W        W74564   3.680  25.101   4.557
 2140W        W74565  13.770  16.672  10.418
 2141W        W74566  20.586   1.675   3.656
 2142W        W74567  10.181  36.392   0.774
 2143W        W74568  21.531   5.876  13.868
 2144W        W74569  31.630   8.106  12.971
 2145W        W74570  35.447  18.513   2.674
 2146W        W74571  24.693  20.049   0.919
 2147W        W74572   6.179  30.528   3.627
 2148W        W74573   0.879   3.244   0.818
 2149W        W74574  20.931  14.790   1.209
 2150W        W74575  19.673  27.148   3.514
 2151W        W74576  14.115  26.021   0.049
 2152W        W74577  30.432  33.600  13.391
 2153W        W74578  31.642  18.179  14.875
 2154W        W74579   9.220  41.987  12.941
 2155W        W74580   5.105  35.805   2.846
 2156W        W74581   9.855  11.769  10.582
 2157W        W74582   2.635   3.902  14.842
 2158W        W74583   1.254  15.811  11.131
 2159W        W74584  40.816  12.213   4.258
 2160W        W74585  14.757   4.402  10.957
 2161W        W74586  38.497   5.410  14.842
 2162W        W74587   9.333   1.929   1.905
 2163W        W74588  12.836  44.139   3.814
 2164W        W74589   1.279  35.709  14.331
 2165W        W74590  43.275  26.460  14.733
 2166W        W74591  10.328  42.056  11.082
 2167W        W74592  43.346  13.302   2.787
 2168W        W74593  12.041   0.235   1.873
 2169W        W74594  41.909  29.932   0.822
 2170W        W74595   2.292  44.314   2.347
 2171W        W74596  11.198   2.553  13.943
 2172W        W74597   0.716   2.044  14.742
 2173W        W74598  12.810  24.920   3.090
 2174W        W74599  14.857   5.835   3.790
 2175W        W74600  10.068  17.650  10.660
 2176W        W74601  38.534  31.433  14.689
 2177W        W74602  24.320  35.440   3.246
 2178W        W74603  12.631  24.214   3.766
 2179W        W74604  37.792  10.880  13.835
 2180W        W74605  28.990  12.304  12.924
 2181W        W74606   9.938  32.452   1.660
 2182W        W74607  12.434   9.639   4.918
 2183W        W74608   3.157   1.211   2.105
 2184W        W74609  11.160  38.609   4.522
 2185W        W74610  13.693  16.138   0.959
 2186W        W74611  19.718  44.228   1.000
 2187W        W74612  28.142   7.881   4.078
 2188W        W74613   4.832  24.635   0.827
 2189W        W74614  23.290  11.240  14.408
 2190W        W74615  20.031   4.654   1.909
 2191W        W74616  42.536  26.093   2.958
 2192W        W74617  24.158  34.933   1.646
 2193W        W74618  16.084   2.061   3.364
 2194W        W74619  22.054  37.118  11.331
 2195W        W74620  35.612  10.753  14.427
 2196W        W74621  27.172  20.610   0.232
 2197W        W74622  20.034   1.728   0.713
 2198W        W74623  24.179  22.404   1.188
 2199W        W74624  31.441   4.434   3.047
 2200W        W74625  37.960  30.051   1.778
 2201W        W74626   9.451  37.680  12.991
 2202W        W74627   8.264  34.007  12.798
 2203W        W74628  39.939  31.381  13.540
 2204W        W74629  33.601   7.419  12.896
 2205W        W74630  24.901  15.786  12.419
 2206W        W74631   3.253  17.956  14.045
 2207W        W74632  39.027  11.347  12.455
 2208W        W74633  40.481  16.294   2.182
 2209W        W74634  21.595  24.640  11.186
 2210W        W74635  16.199  17.733   4.046
 2211W        W74636  42.784  10.580   5.138
 2212W        W74637   5.194  30.561   0.561
 2213W        W74638  28.062  24.879   1.991
 2214W        W74639  30.906  23.969   0.411
 2215W        W74640  30.929  27.751   3.428
 2216W        W74641  44.283  42.851   1.061
 2217W        W74642   9.944  10.942  13.801
 2218W        W74643  24.939  10.175  12.484
 2219W        W74644  17.605  36.123   0.254
 2220W        W74645  44.756   4.712  10.714
 2221W        W74646  36.823   7.186  11.002
 2222W        W74647  42.217  21.221   2.368
 2223W        W74648  24.507  12.570  11.863
 2224W        W74649  15.254  38.897   1.795
 2225W        W74650  41.336   1.580  11.257
 2226W        W74651  44.000  33.310  14.130
 2227W        W74652  41.363   4.065  11.071
 2228W        W74653   3.684  18.127  14.318
 2229W        W74654  11.151  41.814   0.900
 2230W        W74655   1.754  36.114   5.056
 2231W        W74656  23.189   7.213   3.154
 2232W        W74657  19.521  33.080  12.939
 2233W        W74658  35.622  17.673  12.470
 2234W        W74659  27.050   8.400   3.303
 2235W        W74660  24.179  42.598  11.181
 2236W        W74661  37.617  19.742   3.264
 2237W        W74662  24.683   9.405  11.459
 2238W        W74663  23.446   0.232  12.981
 2239W        W74664   0.476  17.388  14.150
 2240W        W74665  39.204  30.291   4.575
 2241W        W74666  24.567  27.352  12.449
 2242W        W74667  40.404  41.775   4.442
 2243W        W74668   1.957  32.061  11.549
 2244W        W74669   6.819  19.509  13.941
 2245W        W74670  39.380  22.941  14.330
 2246W        W74671   6.669  36.672   0.358
 2247W        W74672   5.766  22.292   4.839
 2248W        W74673  12.445   4.657  14.940
 2249W        W74674  19.273  32.975  12.437
 2250W        W74675  20.102   1.492   4.242
 2251W        W74676  18.710  18.893  12.926
 2252W        W74677  19.368   1.894  13.602
 2253W        W74678  30.476  22.980   2.496
 2254W        W74679  37.871  44.016  11.471
 2255W        W74680  39.635   8.708  11.557
 2256W        W74681  26.167  31.053   2.577
 2257W        W74682   0.017   5.354  11.552
 2258W        W74683  13.768  21.201  12.083
 2259W        W74684  31.067  17.548   2.037
 2260W        W74685   0.929  14.806  11.661
 2261W        W74686  43.519  24.146   0.938
 2262W        W74687  18.824  24.229  14.858
 2263W        W74688  17.229  33.874   1.400
 2264W        W74689   0.957   7.634  13.643
 2265W        W74690   3.431  30.436   0.107
 2266W        W74691  36.989  42.572   0.472
 2267W        W74692  17.871   7.807  12.387
 2268W        W74693  36.446  12.293   1.865
 2269W        W74694  28.460  32.024   1.706
 2270W        W74695  23.485   8.837  11.633
 2271W        W74696  30.547  32.454  10.588
 2272W        W74697  24.944  31.112   3.392
 2273W        W74698  36.483  19.633   1.774
 2274W        W74699   8.390  13.818   4.872
 2275W        W74700  19.163  41.843  14.487
 2276W        W74701  27.249  36.475  13.807
 2277W        W74702  19.353   7.128  11.913
 2278W        W74703   4.922  33.846  14.823
 2279W        W74704  41.373  44.392   0.501
 2280W        W74705   9.937  13.563   4.966
 2281W        W74706  23.715   5.262  11.091
 2282W        W74707   3.721  25.721   3.280
 2283W        W74708  18.570   0.751   4.955
 2284W        W74709  22.047  15.657   2.318
 2285W        W74710  17.964  36.082   0.804
 2286W        W74711  32.362  17.152   3.799
 2287W        W74712   6.337  29.630  14.496
 2288W        W74713  34.036  38.612   3.166
 2289W        W74714   1.170  15.638   0.436
 2290W        W74715  42.302  44.001  13.005
 2291W        W74716  18.130  33.979  13.552
 2292W        W74717   8.794  12.245  11.946
 2293W        W74718  41.313  20.820   3.714
 2294W        W74719  44.758  42.727   4.678
 2295W        W74720  28.485   6.399   4.165
 2296W        W74721  27.043   2.484  10.620
 2297W        W74722  29.485  24.096  14.308
 2298W        W74723  35.965  23.711   2.287
 2299W        W74724   4.929   0.368   4.568
 2300W        W74725  25.255  19.025  13.942
 2301W        W74726  28.978   2.157   1.580
 2302W        W74727  44.024  18.184  12.086
 2303W        W74728  38.105   6.277   1.914
 2304W        W74729  26.522   1.226  12.016
 2305W        W74730  23.433   0.833  12.368
 2306W        W74731  26.993  39.366  11.837
 2307W        W74732   3.226   2.512  14.300
 2308W        W74733  16.056  10.750   0.811
 2309W        W74734   8.060  35.442  11.572
 2310W        W74735  14.798  25.456   0.622
 2311W        W74736  14.308   8.175   4.144
 2312W        W74737   0.914  34.598   5.080
 2313W        W74738  34.255  18.251   1.413
 2314W        W74739  18.182  11.861   1.884
 2315W        W74740  33.811   6.144   2.688
 2316W        W74741  36.128  16.550   4.253
 2317W        W74742   9.935  23.051  14.065
 2318W        W74743  29.042  19.785   2.440
 2319W        W74744  38.640  13.246   1.370
 2320W        W74745  43.461  17.722  12.564
 2321W        W74746  20.662  40.074   2.867
 2322W        W74747  40.749  18.607   4.732
 2323W        W74748  28.939  37.288   3.306
 2324W        W74749  32.081  14.767   0.129
 2325W        W74750  22.027  44.336  11.852
 2326W        W74751  10.463  31.373  13.497
 2327W        W74752  23.698  16.058   3.726
 2328W        W74753   9.162  26.340  13.712
 2329W        W74754   3.840  41.289   1.831
 2330W        W74755  44.113  33.637  13.127
 2331W        W74756  30.002  24.068  11.184
 2332W        W74757  42.878  18.247   3.400
 2333W        W74758  12.366  25.271  10.548
 2334W        W74759  20.123  17.569   3.619
 2335W        W74760  10.853  39.097   4.041
 2336W        W74761   4.397  20.307   3.684
 2337W        W74762  33.103  43.454  14.845
 2338W        W74763  10.066  21.331   4.887
 2339W        W74764  31.049  21.542  12.727
 2340W        W74765  17.464  27.614   1.782
 2341W        W74766  14.168   0.833  10.439
 2342W        W74767   5.383  21.979  13.124
 2343W        W74768  20.805   2.021   2.379
 2344W        W74769  38.283  41.696   0.180
 2345W        W74770  10.919  22.761  11.651
 2346W        W74771  34.421   1.173   4.267
 2347W        W74772  25.163  36.870  12.447
 2348W        W74773   2.377  22.488  13.038
 2349W        W74774   7.408   8.424   3.562
 2350W        W74775   5.162  11.591   2.448
 2351W        W74776   7.773  20.196   1.952
 2352W        W74777  25.640  24.524   0.209
 2353W        W74778   7.729  15.663   1.147
 2354W        W74779  30.741  40.945   3.797
 2355W        W74780   8.447  19.583  12.516
 2356W        W74781  21.023   3.413  12.023
 2357W        W74782  14.722  19.078   2.210
 2358W        W74783  22.523  29.676  10.679
 2359W        W74784  10.638  34.928   3.301
 2360W        W74785  42.846   4.752  12.410
 2361W        W74786  30.416  27.699  10.880
 2362W        W74787  36.355   5.228  12.069
 2363W        W74788  33.741  37.683   3.207
 2364W        W74789  38.883  16.616  14.171
 2365W        W74790  31.428  37.997  13.330
 2366W        W74791  31.881  28.312  11.931
 2367W        W74792  28.676  28.671   0.325
 2368W        W74793  31.566  12.113   4.343
 2369W        W74794  25.687   4.195  13.074
 2370W        W74795  15.294  41.814  10.720
 2371W        W74796  41.579  21.713   4.847
 2372W        W74797   4.821   8.963  14.467
 2373W        W74798  38.016  36.562   0.876
 2374W        W74799   7.784  15.263  14.992
 2375W        W74800  27.578  33.508   4.318
 2376W        W74801  29.928   2.417   3.149
 2377W        W74802  27.412   4.278  10.741
 2378W        W74803  38.533  18.776   2.790
 2379W        W74804  16.095  16.124   2.751
 2380W        W74805  39.483   7.710  11.870
 2381W        W74806  26.755  13.567  12.099
 2382W        W74807  25.545  15.068  13.878
 2383W        W74808  14.326  29.836  13.372
 2384W        W74809   1.419  41.525  10.668
 2385W        W74810  35.423   6.868   2.708
 2386W        W74811  32.434  36.029  14.484
 2387W        W74812  37.004  40.484  14.070
 2388W        W74813  27.739  41.732  12.319
 2389W        W74814  30.366  16.830   1.411
 2390W        W74815  39.047  39.910   4.475
 2391W        W74816   0.066  37.972  13.923
 2392W        W74817  32.612   3.329   0.900
 2393W        W74818  20.223  33.590   1.807
 2394W        W74819   0.871  30.201  12.493
 2395W        W74820  38.885  31.101  13.888
 2396W        W74821  23.660  30.120   0.784
 2397W        W74822   4.658   2.867  13.821
 2398W        W74823  38.914  20.936   0.844
 2399W        W74824   5.199  22.262   0.794
 2400W        W74825   5.383  19.506  13.989
 2401W        W74826  14.097  20.727  11.427
 2402W        W74827   4.488  24.284  14.884
 2403W        W74828  40.827  41.759  14.313
 2404W        W74829  17.139  23.225  14.247
 2405W        W74830   2.908   3.001   0.864
 2406W        W74831  11.654  11.688   1.256
 2407W        W74832  31.913  24.636  12.994
 2408W        W74833  25.731  13.915  12.997
 2409W        W74834  26.546  19.051   3.750
 2410W        W74835  33.087   1.306   0.002
 2411W        W74836  27.292   9.685  12.826
 2412W        W74837   0.590  11.601  12.911
 2413W        W74838  13.388  26.178   1.317
 2414W        W74839  10.541  23.769  14.805
 2415W        W74840  43.378  41.448   4.566
 2416W        W74841   4.717  11.533   3.649
 2417W        W74842  42.857  32.633   1.210
 2418W        W74843  16.444  30.638  10.442
 2419W        W74844  13.837   0.905   2.687
 2420W        W74845  23.882  16.603  12.527
 2421W        W74846  22.148   1.660  13.028
 2422W        W74847   5.830  10.903  11.994
 2423W        W74848  27.917  23.154  11.919
 2424W        W74849  22.182  31.513  12.479
 2425W        W74850  15.246   6.769  13.949
 2426W        W74851   8.887  34.196   3.429
 2427W        W74852  27.612  32.898  13.020
 2428W        W74853  20.293  10.699   3.749
 2429W        W74854   0.027  12.736  11.152
 2430W        W74855  27.642  14.623   4.866
 2431W        W74856  33.624  33.909   3.146
 2432W        W74857  43.583   3.319  10.971
 2433W        W74858  27.968  21.265   3.271
 2434W        W74859  37.625  32.747   3.327
 2435W        W74860  14.359  37.407   1.869
 2436W        W74861  12.445  22.031   3.487
 2437W        W74862  28.584  43.059   0.464
 2438W        W74863   7.728  25.151  10.768
 2439W        W74864   6.620  29.686  12.019
 2440W        W74865  28.227   0.913   0.335
 2441W        W74866  43.643  44.633   0.402
 2442W        W74867  31.164   2.627  12.002
 2443W        W74868  41.372  29.356   2.301
 2444W        W74869  42.904  31.485   3.457
 2445W        W74870   1.161  11.361  12.350
 2446W        W74871  38.312  11.408   1.440
 2447W        W74872  16.300  18.785  14.352
 2448W        W74873  25.497  39.556  12.527
 2449W        W74874  25.991  26.894   2.107
 2450W        W74875  24.802  28.139   4.570
 2451W        W74876  33.518   1.039   3.687
 2452W        W74877  20.747  44.365   4.377
 2453W        W74878  14.786  12.381   1.699
 2454W        W74879   5.359  18.421   3.192
 2455W        W74880  33.353  36.925  12.279
 2456W        W74881  15.078  22.042   0.731
 2457W        W74882   5.300   5.207  10.739
 2458W        W74883  37.238  37.761   3.741
 2459W        W74884  25.237  19.744   0.194
 2460W        W74885  39.361  41.604   2.850
 2461W        W74886  23.909   8.275  13.874
 2462W        W74887  29.989  22.699   4.111
 2463W        W74888  41.040   8.559   3.640
 2464W        W74889  38.509  36.103   3.029
 2465W        W74890  24.931   0.958  12.580
 2466W        W74891  17.515  10.190   2.279
 2467W        W74892  27.711  39.240   2.762
 2468W        W74893  32.820  37.859   3.696
 2469W        W74894  11.318   6.165  14.311
 2470W        W74895  30.931   7.629  10.909
 2471W        W74896  26.479  18.779  13.583
 2472W        W74897  40.934  42.391  14.049
 2473W        W74898  13.044  16.635  11.545
 2474W        W74899  31.949  33.799  11.280
 2475W        W74900  20.276  37.911  14.027
 2476W        W74901  21.592  25.330   1.406
 2477W        W74902   0.296  22.453  12.488
 2478W        W74903  24.022  21.681  14.991
 2479W        W74904  18.246  27.119   3.594
 2480W        W74905   5.378  39.747  10.543
 2481W        W74906  30.489  31.190  11.191
 2482W        W74907   6.831  17.215  10.721
 2483W        W74908   6.429   4.380   1.934
 2484W        W74909   8.712  30.819  13.907
 2485W        W74910  38.474   5.809  12.391
 2486W        W74911  24.546  20.992   3.596
 2487W        W74912  26.417  11.281  11.155
 2488W        W74913  26.466  23.252   0.025
 2489W        W74914  26.066   7.245  13.125
 2490W        W74915  42.539  42.398   0.492
 2491W        W74916  16.107   1.249   3.745
 2492W        W74917  25.171  34.796  14.535
 2493W        W74918   5.996   5.261   2.190
 2494W        W74919   4.123  22.014   2.167
 2495W        W74920  35.436  26.606   2.167
 2496W        W74921  31.550  20.244   3.118
 2497W        W74922   0.406   9.848   0.562
 2498W        W74923  10.156   8.304  12.034
 2499W        W74924   6.152   2.960   0.729
 2500W        W74925  19.175   9.929  12.876
 2501W        W74926   4.846   3.785  12.340
 2502W        W74927  20.934  40.850  11.211
 2503W        W74928   2.403  35.607  13.981
 2504W        W74929  21.055   5.776   2.373
 2505W        W74930  22.379   9.363   2.221
 2506W        W74931  16.714  41.831   0.878
 2507W        W74932  43.867  27.117   3.752
 2508W        W74933  12.519   7.222  13.168
 2509W        W74934   4.359  37.550   0.682
 2510W        W74935  21.083  19.780   3.864
 2511W        W74936   4.800  22.243   1.985
 2512W        W74937   5.462   7.032  11.442
 2513W        W74938  32.709   0.316   2.706
 2514W        W74939  42.443  29.277  12.841
 2515W        W74940  27.098  20.120   2.343
 2516W        W74941  40.027  29.872   2.356
 2517W        W74942  42.991   3.972   4.662
 2518W        W74943  35.893  22.633   3.990
 2519W        W74944  25.442   9.181   0.450
 2520W        W74945  29.173  39.037   0.780
 2521W        W74946  32.428  19.620   0.382
 2522W        W74947   3.472  29.584  12.051
 2523W        W74948  39.800  23.732   2.475
 2524W        W74949   1.519  26.963   4.064
 2525W        W74950  23.865  42.720   1.561
 2526W        W74951  28.152  41.856   3.238
 2527W        W74952  28.878   9.523   1.804
 2528W        W74953  39.390  11.416  14.847
 2529W        W74954  39.272  35.006   3.196
 2530W        W74955  37.634  35.982  11.687
 2531W        W74956  25.189  12.843  10.714
 2532W        W74957   1.085  24.027   2.908
 2533W        W74958   7.600   1.890  13.412
 2534W        W74959   6.893  17.792   1.713
 2535W        W74960  25.506   6.598   3.176
 2536W        W74961  22.085  13.684   1.382
 2537W        W74962   8.711   1.939   0.791
 2538W        W74963  30.087  20.646  14.329
 2539W        W74964  35.177   8.304   2.667
 2540W        W74965  18.261  37.391   4.083
 2541W        W74966  41.109   5.470   4.178
 2542W        W74967  10.856  40.277  11.956
 2543W        W74968  43.418  11.272   0.144
 2544W        W74969  34.373  12.124  11.939
 2545W        W74970  39.539  12.800   2.692
 2546W        W74971   4.826  25.456  13.601
 2547W        W74972  16.317  15.112  13.588
 2548W        W74973  27.223  23.696  12.090
 2549W        W74974  36.051  40.550   0.905
 2550W        W74975  41.421  16.298  13.055
 2551W        W74976  10.286   9.030  11.559
 2552W        W74977  31.431  38.340   4.739
 2553W        W74978  34.829  31.478  14.948
 2554W        W74979  28.827  43.379  11.819
 2555W        W74980  18.129   9.747  13.058
 2556W        W74981  14.227  29.394  11.607
 2557W        W74982  33.685  39.847   1.893
 2558W        W74983  14.168  20.479   4.173
 2559W        W74984  13.866  31.558  12.614
 2560W        W74985   1.977  39.503   3.079
 2561W        W74986  25.953   5.751  12.324
 2562W        W74987  12.122   4.937   0.250
 2563W        W74988  28.473  39.495  13.012
 2564W        W74989  35.960  22.236   1.949
 2565W        W74990  39.010  19.298  11.272
 2566W        W74991  23.733   5.154   0.777
 2567W        W74992  32.963  10.154   3.536
 2568W        W74993  30.701  40.366  14.440
 2569W        W74994  14.021   3.341   1.337
 2570W        W74995  37.066  17.645  11.196
 2571W        W74996   9.762  26.427  13.467
 2572W        W74997  22.550  42.933  13.011
 2573W        W74998  41.133  22.269   2.438
 2574W        W74999  32.052  16.909   1.703
 2575W        W75000  24.457   4.923  10.007
 2576W        W75001  42.964  41.364   2.404
 2577W        W75002  34.047  21.982   1.759
 2578W        W75003  38.837  22.020   4.122
 2579W        W75004  19.990   1.688   2.045
 2580W        W75005  16.984   3.476   0.883
 2581W        W75006  41.348   4.994   1.914
 2582W        W75007  32.251  42.228   4.422
 2583W        W75008  12.347  42.186  11.106
 2584W        W75009  17.009  34.378  10.660
 2585W        W75010  15.399   4.788   1.654
 2586W        W75011  37.463  30.130   1.681
 2587W        W75012  20.616  11.316   2.329
 2588W        W75013  25.539   9.453  12.379
 2589W        W75014   3.317   0.412  10.680
 2590W        W75015  31.623   9.617   0.155
 2591W        W75016  41.921  35.313   3.296
 2592W        W75017  28.927  30.615   2.212
 2593W        W75018   1.909  33.848   3.298
 2594W        W75019  29.673   8.451  11.516
 2595W        W75020  40.781   8.403  12.162
 2596W        W75021  29.593  38.908   2.156
 2597W        W75022  16.330   1.900  12.388
 2598W        W75023   7.105  30.002  13.363
 2599W        W75024  36.878   3.356   2.778
 2600W        W75025  10.152   3.425  12.788
 2601W        W75026  34.439  25.570   0.021
 2602W        W75027  19.016   2.461   2.698
 2603W        W75028  37.588  15.770   3.567
 2604W        W75029  16.509  34.954  11.734
 2605W        W75030  25.029  10.789  10.693
 2606W        W75031   8.469  40.207  13.073
 2607W        W75032  28.707  44.807  11.195
 2608W        W75033  22.696  25.532   0.495
 2609W        W75034  44.726  21.139   2.612
 2610W        W75035  11.828   2.803   3.610
 2611W        W75036  13.702  19.753  14.571
 2612W        W75037  33.096  33.620  10.704
 2613W        W75038  11.882  42.740   2.272
 2614W        W75039  18.585  12.105   4.947
 2615W        W75040  34.904   1.271   2.866
 2616W        W75041  24.400  15.308   3.879
 2617W        W75042  10.426  10.050  14.634
 2618W        W75043  21.131   4.310   2.445
 2619W        W75044  31.919  15.110  11.497
 2620W        W75045  16.554   5.520  14.504
 2621W        W75046  10.811  39.472  14.373
 2622W        W75047  40.860  20.267  14.510
 2623W        W75048  24.069   6.174  10.812
 2624W        W75049  36.688   4.376  13.487
 2625W        W75050   6.678   5.731   0.966
 2626W        W75051   4.846  21.523  11.052
 2627W        W75052   3.893   8.860   0.106
 2628W        W75053  38.707  26.485   2.726
 2629W        W75054  26.164  10.804  11.151
 2630W        W75055  31.902  35.042   3.556
 2631W        W75056   9.147  35.820  14.353
 2632W        W75057  20.576  40.837   1.237
 2633W        W75058  22.095  30.670  14.480
 2634W        W75059  13.242   4.961   3.370
 2635W        W75060  15.151  21.715   1.918
 2636W        W75061  16.018   2.674   0.197
 2637W        W75062  16.929  14.321  11.120
 2638W        W75063  42.477  41.971  14.393
 2639W        W75064  32.840  33.117   4.604
 2640W        W75065  12.706  29.472  11.690
 2641W        W75066  11.730  25.929  10.498
 2642W        W75067  24.140  30.597  13.824
 2643W        W75068   3.857   8.456   4.619
 2644W        W75069  15.692   0.973  10.798
 2645W        W75070  26.100   3.297  12.380
 2646W        W75071  38.805  38.537   0.852
 2647W        W75072   6.758   6.346   2.695
 2648W        W75073   3.016  33.083   4.670
 2649W        W75074   0.965  25.544  14.727
 2650W        W75075  19.353  21.788   0.242
 2651W        W75076   8.762  17.330   0.362
 2652W        W75077  38.765  29.902   3.318
 2653W        W75078  44.959  17.097  13.818
 2654W        W75079  12.656  28.274   4.780
 2655W        W75080   3.859  41.086   3.620
 2656W        W75081   9.077  39.071  13.896
 2657W        W75082  16.574  32.079  13.473
 2658W        W75083  24.979  10.345  14.959
 2659W        W75084  32.758   0.726  11.113
 2660W        W75085  20.552  19.348  12.674
 2661W        W75086  34.278  11.816  13.559
 2662W        W75087  17.810  37.911   4.586
 2663W        W75088  14.803  42.750   2.685
 2664W        W75089  21.775  12.739   3.120
 2665W        W75090   4.185  25.158   4.492
 2666W        W75091  39.377  35.465  13.566
 2667W        W75092  21.656  44.205  13.935
 2668W        W75093  11.716   7.533   0.998
 2669W        W75094  21.228  34.025   3.641
 2670W        W75095  29.642  38.414  10.688
 2671W        W75096  36.786  13.864   2.221
 2672W        W75097  33.353   9.801   2.654
 2673W        W75098   1.291  13.583   1.353
 2674W        W75099  21.603   7.239   1.895
 2675W        W75100  19.127  25.529   1.168
 2676W        W75101  39.214  13.735  11.378
 2677W        W75102  24.239  23.536  13.403
 2678W        W75103  10.249  34.337   0.337
 2679W        W75104  24.418  22.995  14.891
 2680W        W75105  26.205  21.466  14.640
 2681W        W75106  10.363  36.997   3.362
 2682W        W75107   0.262  19.171  13.781
 2683W        W75108  41.703  33.473  12.818
 2684W        W75109  42.968  30.827  12.081
 2685W        W75110   9.804  16.308   2.245
 2686W        W75111  37.665   6.163  13.967
 2687W        W75112  36.979  31.135  10.478
 2688W        W75113  21.279  20.188   1.866
 2689W        W75114  18.584   0.419   4.204
 2690W        W75115   3.761  14.096   2.112
 2691W        W75116  26.027  14.849  14.067
 2692W        W75117  33.469  25.979   1.408
 2693W        W75118  37.450   7.330  10.061
 2694W        W75119  23.689   0.312   0.693
 2695W        W75120   3.415  40.351  12.381
 2696W        W75121   5.448   1.753   4.134
 2697W        W75122   8.251  16.745  11.074
 2698W        W75123   0.477   4.020  11.172
 2699W        W75124  36.786   7.845   2.390
 2700W        W75125   0.301  29.681   4.570
 2701W        W75126  44.861  42.432  14.996
 2702W        W75127  37.410  16.523  10.611
 2703W        W75128  40.901   4.050   0.524
 2704W        W75129   2.410  37.981  10.586
 2705W        W75130  37.853  15.174  14.441
 2706W        W75131   1.810  25.366   2.198
 2707W        W75132  42.887  35.673  13.161
 2708W        W75133  26.968  42.371  13.048
 2709W        W75134  29.988  16.044  12.548
 2710W        W75135  14.610  26.645   1.140
 2711W        W75136  36.977   3.254  11.774
 2712W        W75137  44.744  15.247  14.415
 2713W        W75138  30.927  31.698   1.799
 2714W        W75139   8.397  24.579  14.437
 2715W        W75140  13.736  21.473   1.810
 2716W        W75141  13.372  27.576  12.522
 2717W        W75142  17.299  33.341  11.204
 2718W        W75143  22.477  24.311   3.229
 2719W        W75144  29.131   3.102   1.726
 2720W        W75145  17.343  10.374   4.077
 2721W        W75146  35.420  31.084   3.116
 2722W        W75147  37.431  34.032  12.847
 2723W        W75148   0.286  40.256  12.476
 2724W        W75149  23.005  35.397   1.969
 2725W        W75150   9.263   2.973  12.574
 2726W        W75151  10.578  23.559   0.275
 2727W        W75152  35.980  13.452  11.572
 2728W        W75153   0.853   3.792   3.864
 2729W        W75154  23.022  38.392   0.484
 2730W        W75155  22.250  16.019   0.969
 2731W        W75156  22.710  22.654   1.870
 2732W        W75157  28.249  38.035   1.315
 2733W        W75158   8.805   2.229  14.426
 2734W        W75159   5.946  35.929   2.273
 2735W        W75160   0.751  39.447   0.280
 2736W        W75161  31.817   3.503  12.950
 2737W        W75162  10.790  32.915   1.701
 2738W        W75163   2.188   6.299   2.574
 2739W        W75164   8.791  14.078  14.375
 2740W        W75165  30.107  28.010   0.261
 2741W        W75166  31.775  15.864   4.231
 2742W        W75167  12.861  43.255   2.846
 2743W        W75168  28.555  24.156  11.279
 2744W        W75169  14.698  40.783   3.097
 2745W        W75170  24.490   5.328  10.637
 2746W        W75171  37.123  18.945  13.385
 2747W        W75172  25.438   5.157   4.261
 2748W        W75173  15.205  23.596  13.866
 2749W        W75174  25.734  33.652   2.802
 2750W        W75175  32.123  42.722  11.276
 2751W        W75176  11.226   9.589   3.710
 2752W        W75177  21.269  16.557  14.538
 2753W        W75178  26.953   4.266  10.484
 2754W        W75179  20.648  19.773   0.853
 2755W        W75180   7.198  21.035  12.031
 2756W        W75181   8.609  38.367  13.445
 2757W        W75182  31.920   9.319   2.880
 2758W        W75183  43.991  42.389  10.585
 2759W        W75184  24.419  39.977  12.854
 2760W        W75185   6.391  39.377   0.182
 2761W        W75186  39.311  30.852  11.667
 2762W        W75187  24.559  12.850   4.157
 2763W        W75188  17.656   3.660  14.711
 2764W        W75189  27.932  37.177   2.269
 2765W        W75190   7.485  44.816   3.085
 2766W        W75191  34.546   5.457   2.861
 2767W        W75192  25.115  30.235   3.217
 2768W        W75193   4.055  11.251  14.081
 2769W        W75194  28.587  17.761   0.833
 2770W        W75195   8.893  44.425  12.030
 2771W        W75196   8.372  10.011  13.923
 2772W        W75197   7.628  34.210   2.378
 2773W        W75198  42.845  11.826   4.610
 2774W        W75199  24.959  16.509   3.348
 2775W        W75200  35.192  26.349   9.880
 2776W        W75201   2.680  38.415  10.638
 2777W        W75202  44.735  22.027   3.106
 2778W        W75203   2.980  10.728  11.473
 2779W        W75204  41.205  24.598  13.010
 2780W        W75205  42.932  11.832  12.950
 2781W        W75206   4.940   6.595   2.671
 2782W        W75207  24.611  44.248   2.693
 2783W        W75208  15.170  42.317  13.442
 2784W        W75209  20.742  11.962  10.267
 2785W        W75210  31.724  16.256   4.618
 2786W        W75211   2.357   3.022  14.870
 2787W        W75212  31.915   0.850   4.095
 2788W        W75213  22.099  19.010  13.387
 2789W        W75214  19.484  20.078  12.104
 2790W        W75215  29.906  40.257  10.662
 2791W        W75216  37.376   1.303   4.360
 2792W        W75217  34.847  40.321   1.294
 2793W        W75218   9.640  35.111  14.052
 2794W        W75219  33.861  10.730  12.065
 2795W        W75220  28.706   3.013   3.789
 2796W        W75221   9.653  33.837  14.490
 2797W        W75222  12.111   7.659  14.780
 2798W        W75223   4.370   5.461   2.329
 2799W        W75224   4.717   5.481  12.034
 2800W        W75225  41.797  43.007   9.920
 2801W        W75226  36.021  13.733   2.741
 2802W        W75227  21.153  40.281   4.779
 2803W        W75228  40.544  21.197  12.160
 2804W        W75229  35.123  38.492  14.849
 2805W        W75230  11.910  16.067  11.955
 2806W        W75231  33.703  26.032  13.583
 2807W        W75232  17.981  32.052  10.843
 2808W        W75233  35.488  20.554  10.650
 2809W        W75234   0.019  24.990  12.355
 2810W        W75235  14.672  25.887  12.453
 2811W        W75236  39.851  33.373  12.685
 2812W        W75237  27.547  37.099  11.149
 2813W        W75238  27.710  30.962  14.478
 2814W        W75239  17.895  34.408   2.588
 2815W        W75240  38.562  33.601   1.849
 2816W        W75241  29.944  34.386  11.805
 2817W        W75242  39.615  28.534   3.435
 2818W        W75243  24.439  35.385  10.633
 2819W        W75244  37.411  33.701   4.903
 2820W        W75245  33.947  40.667  13.438
 2821W        W75246   2.212  16.640  11.502
 2822W        W75247  26.383  30.982  14.894
 2823W        W75248  23.989  42.225  12.471
 2824W        W75249  21.039  34.340  14.563
 2825W        W75250  10.543  18.776  12.081
 2826W        W75251  18.037  36.912   4.150
 2827W        W75252  23.972  24.427  14.412
 2828W        W75253  30.182  23.920  13.959
 2829W        W75254   3.467  23.326   1.298
 2830W        W75255   8.439  32.125   1.016
 2831W        W75256  27.497  31.641   2.986
 2832W        W75257  15.314  44.266  11.619
 2833W        W75258   0.633   2.524  12.804
 2834W        W75259  34.385  24.473  14.203
 2835W        W75260  33.594   8.965   2.721
 2836W        W75261  27.652  14.118  11.224
 2837W        W75262  41.367  25.155  11.109
 2838W        W75263  10.332  38.605   2.679
 2839W        W75264  29.389  17.214  13.831
 2840W        W75265  34.195  14.236   1.668
 2841W        W75266   7.750  32.275  10.172
 2842W        W75267  33.488  33.374  14.209
 2843W        W75268  38.077   1.914  10.099
 2844W        W75269  28.888  38.864  10.517
 2845W        W75270  42.079  36.938  14.523
 2846W        W75271  13.322  27.449  13.979
 2847W        W75272   9.153  15.733  12.506
 2848W        W75273  21.959  21.166   2.816
 2849W        W75274  27.527   9.359   2.149
 2850W        W75275  29.599  23.216  14.328
 2851W        W75276  35.628   4.158  11.628
 2852W        W75277  16.728  10.213   1.305
 2853W        W75278  30.924   3.428  14.549
 2854W        W75279  28.057  37.507  11.674
 2855W        W75280  34.627  21.704  14.056
 2856W        W75281  30.642  23.572  13.073
 2857W        W75282  33.107  16.263   4.610
 2858W        W75283  20.609   4.887   1.344
 2859W        W75284  12.322  39.954   2.596
 2860W        W75285   4.818   0.869   4.641
 2861W        W75286  37.883  30.206   0.825
 2862W        W75287   7.764   1.999  13.925
 2863W        W75288  35.106  19.495  10.284
 2864W        W75289  34.971  40.904  14.842
 2865W        W75290  29.493  11.872   1.864
 2866W        W75291  37.802  21.717  11.996
 2867W        W75292  18.426   3.811  11.910
 2868W        W75293   5.198   5.308   4.626
 2869W        W75294  34.607  18.847   0.912
 2870W        W75295  19.628  26.909  14.345
 2871W        W75296  39.437  31.505  12.128
 2872W        W75297   3.539  29.029  11.124
 2873W        W75298   4.230   0.517   2.294
 2874W        W75299  34.017  11.659  10.607
 2875W        W75300  31.238  43.906  14.463
 2876W        W75301  38.167  17.298   2.518
 2877W        W75302  19.588   8.006  11.839
 2878W        W75303  37.921  34.457  14.927
 2879W        W75304  32.171   0.623  14.313
 2880W        W75305  30.904   6.729   4.192
 2881W        W75306  20.452  38.999   4.555
 2882W        W75307  39.845  36.454   1.279
 2883W        W75308  36.722  42.111  11.072
 2884W        W75309  44.730   3.289  12.877
 2885W        W75310   1.883   9.464   2.067
 2886W        W75311  13.822  43.231   0.920
 2887W        W75312  44.183  13.791   1.423
 2888W        W75313  15.560   3.369  14.710
 2889W        W75314  32.958  29.988  12.054
 2890W        W75315   9.409  43.544  13.360
 2891W        W75316  31.446  42.506   3.321
 2892W        W75317   3.752  28.482   4.055
 2893W        W75318  21.067  20.556   4.555
 2894W        W75319  14.040  30.721  12.006
 2895W        W75320  20.793  24.631   3.186
 2896W        W75321  20.355  37.961  12.534
 2897W        W75322   3.491  12.317  11.144
 2898W        W75323  43.468  12.204   0.505
 2899W        W75324  28.969  23.589   4.739
 2900W        W75325  20.983   5.513   0.288
 2901W        W75326  25.627  38.325   0.669
 2902W        W75327  21.970  22.830   2.289
 2903W        W75328  43.949  39.923   2.212
 2904W        W75329  35.377  10.212   0.834
 2905W        W75330  34.323  33.653  13.056
 2906W        W75331  17.798   2.651  12.555
 2907W        W75332  22.163  18.631  12.059
 2908W        W75333  18.816  16.354  14.319
 2909W        W75334  30.645  14.268  14.181
 2910W        W75335  29.052  28.504   2.676
 2911W        W75336  29.394  39.345   9.918
 2912W        W75337  12.761  20.943   4.275
 2913W        W75338   7.158  41.235  12.528
 2914W        W75339  20.270  42.740   1.871
 2915W        W75340  22.753  38.644   4.702
 2916W        W75341   3.977  32.664   0.487
 2917W        W75342  21.985   8.865  10.437
 2918W        W75343  29.022  41.741   4.186
 2919W        W75344   0.525  39.278   2.900
 2920W        W75345  11.474  12.082   2.225
 2921W        W75346  43.038  17.508  11.620
 2922W        W75347   5.206  13.112  12.971
 2923W        W75348  10.694  16.544   1.755
 2924W        W75349   5.215  17.191   4.105
 2925W        W75350  21.693  14.361   1.655
 2926W        W75351   2.385  30.996   1.818
 2927W        W75352   3.654  41.490   2.711
 2928W        W75353  36.959   9.452  14.973
 2929W        W75354  40.837   0.965   0.791
 2930W        W75355  24.102  39.347   0.245
 2931W        W75356  19.276  21.615  13.489
 2932W        W75357  40.031  20.896   9.728
 2933W        W75358  18.269  28.144  14.194
 2934W        W75359  25.753  18.369   0.141
 2935W        W75360  22.253  28.582  13.372
 2936W        W75361   8.502  11.058  12.544
 2937W        W75362   4.709  21.918  10.106
 2938W        W75363  16.220  36.957   3.415
 2939W        W75364  11.159  28.367  14.080
 2940W        W75365  24.675  34.667  14.358
 2941W        W75366   0.868   9.212  11.881
 2942W        W75367  15.901  23.583  10.847
 2943W        W75368  29.156  17.841  13.033
 2944W        W75369  27.635  33.069   3.585
 2945W        W75370  39.747  25.762   4.156
 2946W        W75371  35.853   0.873   0.883
 2947W        W75372  28.416  44.340  11.934
 2948W        W75373  18.887  12.309   0.718
 2949W        W75374  28.519  15.633  14.310
 2950W        W75375  36.263   6.661   3.623
 2951W        W75376  41.674  42.858  11.853
 2952W        W75377  36.636  16.100   1.869
 2953W        W75378  16.013  24.514   0.426
 2954W        W75379   9.891   1.731   3.721
 2955W        W75380  25.499  17.180  11.496
 2956W        W75381  44.849  44.341  13.545
 2957W        W75382  40.560  26.692   4.240
 2958W        W75383   2.181  39.575   0.917
 2959W        W75384  37.566  23.474  12.142
 2960W        W75385   2.323   7.442   0.473
 2961W        W75386  16.193  38.278  14.438
 2962W        W75387   7.811  19.293  13.143
 2963W        W75388  11.292  32.016   2.238
 2964W        W75389  37.264   0.432  11.995
 2965W        W75390   5.149   6.470   3.146
 2966W        W75391  28.499   4.220  14.882
 2967W        W75392   1.937   0.851  14.471
 2968W        W75393  42.536  27.529   2.824
 2969W        W75394  11.689   9.893  11.947
 2970W        W75395   0.160  11.766   3.733
 2971W        W75396  11.736   2.050   2.954
 2972W        W75397  29.099  36.541  11.491
 2973W        W75398  26.339  22.780  14.832
 2974W        W75399  38.030  36.312  14.949
 2975W        W75400  39.310   0.816  14.379
 2976W        W75401  13.350  38.429  10.673
 2977W        W75402  12.595  33.848  13.586
 2978W        W75403  28.550  22.825   1.902
 2979W        W75404  16.589  14.381   0.935
 2980W        W75405  20.816   2.954  12.223
 2981W        W75406   4.701   8.682  14.900
 2982W        W75407  43.337  15.389  13.405
 2983W        W75408  10.782  20.696  11.551
 2984W        W75409  20.044  29.672  14.302
 2985W        W75410  38.286  11.804  12.831
 2986W        W75411  35.858  43.446  13.818
 2987W        W75412  25.973   2.675  14.387
 2988W        W75413  20.551  15.315  12.098
 2989W        W75414  28.417  22.087   0.271
 2990W        W75415   9.094  42.380   1.396
 2991W        W75416  18.491  20.163   0.424
 2992W        W75417  36.896  28.489  14.055
 2993W        W75418  13.808  18.285  14.450
 2994W        W75419   5.906  40.155  12.093
 2995W        W75420   2.352  34.144   3.334
 2996W        W75421  11.905   4.643  10.828
 2997W        W75422   8.561  16.837   0.374
 2998W        W75423  26.523  13.369  10.710
 2999W        W75424  31.045  12.099   4.365
 3000W        W75425  31.903  25.958   0.213
 3001W        W75426  24.072   3.391   3.557
 3002W        W75427  10.716   5.148   0.302
 3003W        W75428  35.646   3.138  11.505
 3004W        W75429  18.301   7.515  12.448
 3005W        W75430  21.628  42.029   1.680
 3006W        W75431  16.318  15.288   3.208
 3007W        W75432  23.085  31.006   0.443
 3008W        W75433  29.520  35.671   3.774
 3009W        W75434  40.984  37.847  14.372
 3010W        W75435  26.510  26.656   1.229
 3011W        W75436  43.712  42.900   1.528
 3012W        W75437  37.315  19.858   3.671
 3013W        W75438   3.219   8.161   3.200
 3014W        W75439  16.509  11.911  12.582
 3015W        W75440  39.283   4.264  14.950
 3016W        W75441  42.872  44.611  12.303
 3017W        W75442  29.329  16.165  11.508
 3018W        W75443   6.871  22.030  13.052
 3019W        W75444  31.124   2.576  13.746
 3020W        W75445  24.501  31.203  12.815
 3021W        W75446  10.565  20.434  12.002
 3022W        W75447  43.703   1.115   4.273
 3023W        W75448  35.562  11.704  10.609
 3024W        W75449  19.500   5.691  12.601
 3025W        W75450  10.569  20.095   0.403
 3026W        W75451  35.794   8.026   2.118
 3027W        W75452  33.602  27.607  10.651
 3028W        W75453  16.222   4.329   1.765
 3029W        W75454  32.939  30.873   0.447
 3030W        W75455   1.629  38.558   4.896
 3031W        W75456  25.149  26.610   4.178
 3032W        W75457  41.750  36.998   4.948
 3033W        W75458  41.623  20.145  13.358
 3034W        W75459  24.516   4.415  11.153
 3035W        W75460  27.513  31.201   1.257
 3036W        W75461  26.781  39.567  14.186
 3037W        W75462  17.087  19.046   1.736
 3038W        W75463  21.767  33.031   0.458
 3039W        W75464   8.845  41.742   2.684
 3040W        W75465  20.644  17.186  11.587
 3041W        W75466  15.113  20.236  11.014
 3042W        W75467  18.204  29.575   2.007
 3043W        W75468  17.258  11.342  13.737
 3044W        W75469  30.538   3.360  11.624
 3045W        W75470   5.257  11.638  12.541
 3046W        W75471  38.934  22.821  11.926
 3047W        W75472  15.517   8.529  12.613
 3048W        W75473  29.936  23.456  13.565
 3049W        W75474  33.454  29.354  14.458
 3050W        W75475   0.556  42.500  13.529
 3051W        W75476  29.673   2.864   3.403
 3052W        W75477  12.267  38.093   2.814
 3053W        W75478   3.060  16.610  12.487
 3054W        W75479  32.042  25.594  10.615
 3055W        W75480  25.502  13.544   3.168
 3056W        W75481  19.155  39.761  11.115
 3057W        W75482  30.952  29.921   0.688
 3058W        W75483  34.320   4.996   2.275
 3059W        W75484  43.310  18.730  11.542
 3060W        W75485  20.568   1.669  12.125
 3061W        W75486  40.349  30.558   3.704
 3062W        W75487   4.097  41.073  12.067
 3063W        W75488   6.084  15.872  12.490
 3064W        W75489   6.881   3.349   2.867
 3065W        W75490  37.321   1.321  12.061
 3066W        W75491   8.602  24.557  11.976
 3067W        W75492   2.435  23.130  13.919
 3068W        W75493  43.540  34.937  13.271
 3069W        W75494  35.223   3.787  11.129
 3070W        W75495  42.465  33.919  11.728
 3071W        W75496  10.137  10.302   0.226
 3072W        W75497  43.428   9.849   2.325
 3073W        W75498  42.511  19.305  11.372
 3074W        W75499  30.595  30.575   4.227
 3075W        W75500  21.920  29.344  14.573
 3076W        W75501   9.697  12.948   1.416
 3077W        W75502   2.901  33.949   4.481
 3078W        W75503  31.054  13.626  11.556
 3079W        W75504   8.319  30.198   3.253
 3080W        W75505  20.084  40.961  13.461
 3081W        W75506  30.670  34.170  11.512
 3082W        W75507  24.160  29.014   2.471
 3083W        W75508   5.500  20.565  10.650
 3084W        W75509  40.100  21.715  13.381
 3085W        W75510  25.172  39.697  13.279
 3086W        W75511  44.583  32.971   1.853
 3087W        W75512   2.815  12.956   4.908
 3088W        W75513  33.625  40.856   3.413
 3089W        W75514  24.624  18.086   2.417
 3090W        W75515   6.629  40.121   0.354
 3091W        W75516  20.337  39.047   3.644
 3092W        W75517  23.037   5.351   2.946
 3093W        W75518   3.273  19.701   2.604
 3094W        W75519  40.088  43.055  12.593
 3095W        W75520  14.149  30.194   0.508
 3096W        W75521  40.985   8.403  13.513
 3097W        W75522  40.659  33.500  10.291
 3098W        W75523  23.031  10.826   2.658
 3099W        W75524   3.851   0.548   1.890
 3100W        W75525  37.664  17.188   2.312
 3101W        W75526   0.068  35.515   2.241
 3102W        W75527  34.567  10.846  13.345
 3103W        W75528   3.107  35.565  11.485
 3104W        W75529  26.948  39.829  10.562
 3105W        W75530  18.332   4.638  13.820
 3106W        W75531  21.247  30.927  12.182
 3107W        W75532   9.254  34.546   1.655
 3108W        W75533  28.619  22.768   3.644
 3109W        W75534  40.601  30.017   1.186
 3110W        W75535   2.958  38.556   2.957
 3111W        W75536  22.225   1.205  14.283
 3112W        W75537  26.147   2.964  14.783
 3113W        W75538  20.290  23.977  12.094
 3114W        W75539  16.600  37.542   3.534
 3115W        W75540  30.688  18.085  10.739
 3116W        W75541  24.047  40.011   4.520
 3117W        W75542  42.764  21.106   3.782
 3118W        W75543  18.335  32.885  14.417
 3119W        W75544  19.984  28.997  14.879
 3120W        W75545  20.677  16.275  11.766
 3121W        W75546   8.882   7.700   1.918
 3122W        W75547  41.501   8.152   4.671
 3123W        W75548  36.472  27.203   2.208
 3124W        W75549  24.494  28.413   4.222
 3125W        W75550  17.294  14.817   1.309
 3126W        W75551   1.987   5.863   0.310
 3127W        W75552   4.283  18.422   3.844
 3128W        W75553  42.010  41.272  11.628
 3129W        W75554  33.670  29.678  11.562
 3130W        W75555  42.705   0.489  11.134
 3131W        W75556  34.396  35.011  10.644
 3132W        W75557   3.912  39.587  14.656
 3133W        W75558  10.929   0.039   2.898
 3134W        W75559   1.831   1.661  14.811
 3135W        W75560  17.096  23.136  13.707
 3136W        W75561   0.374  22.110  10.971
 3137W        W75562  23.528  28.189  13.856
 3138W        W75563  30.021  14.562  12.462
 3139W        W75564  21.519   4.306   2.113
 3140W        W75565   1.289  25.270  13.965
 3141W        W75566  21.854  11.212   3.426
 3142W        W75567  43.803  34.711   1.766
 3143W        W75568  13.050  21.442   3.823
 3144W        W75569  17.196  17.345  14.843
 3145W        W75570  10.086  15.995  11.661
 3146W        W75571  41.286  20.572   1.514
 3147W        W75572  25.119  25.488   2.848
 3148W        W75573  10.956  39.661   4.993
 3149W        W75574  30.922  33.417  13.936
 3150W        W75575  31.960  21.681   3.188
 3151W        W75576  17.628  15.228  11.801
 3152W        W75577   7.208  32.878   1.860
 3153W        W75578   5.488   5.269   1.301
 3154W        W75579  26.250  35.500  14.118
 3155W        W75580  25.674   4.328  10.384
 3156W        W75581  27.027  26.235  13.036
 3157W        W75582  23.743  12.106   4.212
 3158W        W75583  37.477  31.875  12.513
 3159W        W75584  22.451  18.563  12.550
 3160W        W75585  43.383  28.374  12.000
 3161W        W75586  35.512  11.228  14.227
 3162W        W75587   6.427  25.438  11.872
 3163W        W75588  18.814  19.183  13.371
 3164W        W75589  32.666  38.342  14.365
 3165W        W75590  39.411  21.087  13.318
 3166W        W75591  27.201  20.076   4.270
 3167W        W75592  15.633  16.961  13.569
 3168W        W75593  29.332   1.663  12.498
 3169W        W75594  36.065   1.952   2.202
 3170W        W75595  26.671  30.491  12.124
 3171W        W75596  19.166  38.317  12.372
 3172W        W75597  22.790  28.974   3.828
 3173W        W75598  43.851  40.612   3.450
 3174W        W75599  36.660   4.656   5.194
 3175W        W75600  14.681  29.226  10.945
 3176W        W75601  37.606  28.669  12.148
 3177W        W75602  28.404  22.294   3.658
 3178W        W75603  30.448   4.832   2.173
 3179W        W75604  16.675  13.846  10.359
 3180W        W75605  36.997  28.227  12.197
 3181W        W75606   1.406  15.645  13.923
 3182W        W75607  38.485  30.483  11.203
 3183W        W75608  30.899  40.787   4.617
 3184W        W75609  34.645  37.031   1.799
 3185W        W75610  19.054  11.547   3.055
 3186W        W75611  36.380  23.912  13.004
 3187W        W75612  25.179  18.292   3.779
 3188W        W75613  41.068  31.104   2.408
 3189W        W75614   0.584   7.289   2.148
 3190W        W75615  32.712  32.064  12.542
 3191W        W75616  23.736   5.761  11.601
 3192W        W75617  11.770  18.583   4.444
 3193W        W75618  38.906  43.614  13.700
 3194W        W75619   8.424  14.572   4.995
 3195W        W75620   1.041  32.068  11.059
 3196W        W75621  25.953  28.687   0.909
 3197W        W75622  35.657  43.019  12.613
 3198W        W75623  21.658  11.635   3.061
 3199W        W75624  29.084   8.258  11.123
 3200W        W75625  23.906  28.362  12.626
 3201W        W75626  37.033   4.272   3.170
 3202W        W75627   8.273  41.629  11.549
 3203W        W75628  15.569  28.742   0.921
 3204W        W75629   6.288  30.388   9.843
 3205W        W75630  16.779   3.718   4.349
 3206W        W75631  27.479  37.893  13.812
 3207W        W75632  21.481  20.124   3.719
 3208W        W75633  10.613  20.220  13.337
 3209W        W75634  30.412  34.565  11.743
 3210W        W75635  18.079  28.629  14.676
 3211W        W75636  34.507  36.037  14.032
 3212W        W75637   0.850  14.794  13.951
 3213W        W75638  30.592  21.071   2.674
 3214W        W75639  29.920  17.745   0.707
 3215W        W75640   5.809  16.320   0.534
 3216W        W75641   2.173  24.617  13.976
 3217W        W75642  12.729  30.102   3.598
 3218W        W75643  36.914  32.197   2.153
 3219W        W75644  37.392  44.052  11.620
 3220W        W75645  33.107  30.929   4.569
 3221W        W75646  33.958  38.352  11.464
 3222W        W75647  38.712  15.232   0.695
 3223W        W75648  29.058   3.412  14.386
 3224W        W75649  35.950  17.058   3.125
 3225W        W75650   2.508  42.448  11.517
 3226W        W75651   1.481  37.108   3.652
 3227W        W75652  14.574  33.087   4.989
 3228W        W75653  31.016  13.316  10.720
 3229W        W75654  24.775   1.261  11.481
 3230W        W75655   5.453  33.429  11.193
 3231W        W75656  18.686   9.624   3.791
 3232W        W75657  44.450  24.502   1.378
 3233W        W75658  15.599  15.240   0.777
 3234W        W75659  33.915   1.300   2.668
 3235W        W75660   5.369  13.114   0.877
 3236W        W75661   2.193  27.701   4.038
 3237W        W75662  44.820  17.530  12.653
 3238W        W75663  43.402  39.501   3.061
 3239W        W75664   5.879  30.949   2.284
 3240W        W75665   7.718  23.609  13.275
 3241W        W75666  35.498  25.562   2.500
 3242W        W75667  10.669   1.903  13.798
 3243W        W75668  39.929  31.936   1.511
 3244W        W75669  34.456  41.894   0.777
 3245W        W75670  30.847  34.847  11.666
 3246W        W75671  29.569  27.168  14.332
 3247W        W75672  22.295  44.454   0.718
 3248W        W75673  31.292  19.356  13.304
 3249W        W75674   4.862   5.808   4.646
 3250W        W75675  38.557  37.395   3.749
 3251W        W75676  38.315  33.645   3.846
 3252W        W75677  19.016  36.342  11.561
 3253W        W75678  21.591  22.381  13.925
 3254W        W75679   3.931  40.956  14.463
 3255W        W75680  26.017   8.375   0.367
 3256W        W75681  30.951   4.311   2.637
 3257W        W75682  28.664   3.893  14.512
 3258W        W75683  12.946  11.883  12.028
 3259W        W75684  19.645  19.760   3.581
 3260W        W75685  18.808   1.685   0.416
 3261W        W75686  23.891   7.796  14.752
 3262W        W75687  32.994  31.061   2.317
 3263W        W75688   9.175  17.297  14.891
 3264W        W75689   6.387  20.860  10.696
 3265W        W75690   0.291  37.825   4.627
 3266W        W75691  20.122  27.211   1.293
 3267W        W75692  19.370  16.930   4.524
 3268W        W75693  33.579   3.272   1.729
 3269W        W75694  30.323   0.169  10.816
 3270W        W75695  33.174  44.493   2.896
 3271W        W75696  24.268  14.613   0.179
 3272W        W75697  39.752  32.644   2.810
 3273W        W75698   0.148   0.408   4.339
 3274W        W75699  39.783   5.778  13.038
 3275W        W75700   9.200   1.890   2.441
 3276W        W75701   6.466  10.799  12.556
 3277W        W75702  41.563  20.182   1.719
 3278W        W75703  33.369  43.964   2.336
 3279W        W75704  13.616  23.603  10.246
 3280W        W75705  15.060  24.389   4.744
 3281W        W75706  31.649   4.447   0.724
 3282W        W75707  11.527  31.997   4.616
 3283W        W75708  14.665  34.249  11.451
 3284W        W75709   9.274  18.962   4.237
 3285W        W75710  12.816  26.125   3.810
 3286W        W75711  20.225  19.098   1.461
 3287W        W75712  18.091  38.585  13.308
 3288W        W75713  44.083   8.345  14.064
 3289W        W75714  11.645  16.119   4.270
 3290W        W75715  26.034  13.279  11.299
 3291W        W75716  42.331  17.578  11.266
 3292W        W75717  35.693  17.240   2.359
 3293W        W75718  34.627   4.861   0.871
 3294W        W75719  38.419   3.203   0.899
 3295W        W75720  40.024   1.423  12.410
 3296W        W75721  33.243  43.428   4.979
 3297W        W75722  35.688  15.243   1.505
 3298W        W75723  24.354  22.218   3.300
 3299W        W75724   1.971  37.958   1.404
 3300W        W75725  20.662  38.685  14.431
 3301W        W75726  38.857   5.273   1.266
 3302W        W75727  39.238   6.946   0.335
 3303W        W75728  14.193   5.290   4.161
 3304W        W75729  40.886  14.762   2.654
 3305W        W75730   1.973  36.567  12.417
 3306W        W75731  29.906   7.354   1.444
 3307W        W75732  11.402  16.368  10.577
 3308W        W75733  23.170   2.481   4.963
 3309W        W75734   7.817  31.532  12.095
 3310W        W75735   5.193  15.669  12.446
 3311W        W75736  26.923  29.378   2.800
 3312W        W75737  39.512   0.343   1.177
 3313W        W75738  33.608  12.301  11.204
 3314W        W75739  34.620  17.527  12.487
 3315W        W75740  13.775  34.408   4.963
 3316W        W75741  13.535   2.057   4.554
 3317W        W75742  40.363   5.984   3.093
 3318W        W75743   6.139  23.449   0.442
 3319W        W75744  22.771  11.097  10.944
 3320W        W75745  44.912  38.378   1.873
 3321W        W75746   1.965  15.786   0.713
 3322W        W75747   8.399  25.132   2.897
 3323W        W75748  34.548  37.126  12.767
 3324W        W75749  40.991  44.180  14.423
 3325W        W75750  24.132   0.837  13.089
 3326W        W75751   0.037  43.339  11.658
 3327W        W75752   5.570  18.736   2.408
 3328W        W75753  35.445  30.415   0.404
 3329W        W75754  33.878  21.577   2.371
 3330W        W75755  29.462  38.385  13.100
 3331W        W75756   8.028   7.395  10.419
 3332W        W75757  23.254  31.481  12.602
 3333W        W75758  43.568  25.616  11.140
 3334W        W75759  22.588   4.001  11.671
 3335W        W75760   0.552  31.100  12.952
 3336W        W75761  37.329   4.261  12.633
 3337W        W75762  27.143  20.527  12.826
 3338W        W75763   8.261  22.206  14.079
 3339W        W75764  21.122  40.890  14.797
 3340W        W75765  12.960  30.735  12.982
 3341W        W75766  36.810  43.462   2.352
 3342W        W75767  36.375  30.985  12.176
 3343W        W75768  13.553  17.754  11.900
 3344W        W75769  39.041  40.335  13.872
 3345W        W75770  27.621  34.259  11.788
 3346W        W75771   8.514  33.426   2.548
 3347W        W75772  14.929  35.003  10.590
 3348W        W75773   0.537  36.127  11.057
 3349W        W75774  34.639  31.458  12.520
 3350W        W75775  29.041  32.727  13.552
 3351W        W75776  25.154   2.817   4.561
 3352W        W75777  23.501  37.941  11.638
 3353W        W75778  10.393  15.703   1.656
 3354W        W75779  35.416   3.947   4.276
 3355W        W75780  12.122  44.908   4.695
 3356W        W75781  25.460   8.598   2.513
 3357W        W75782  44.999  26.750  13.030
 3358W        W75783  38.835  21.970   3.081
 3359W        W75784  16.244   3.945   3.691
 3360W        W75785   5.404  41.090  12.874
 3361W        W75786   5.948  34.875   2.776
 3362W        W75787  22.406   2.907  14.832
 3363W        W75788  27.131  19.783  11.443
 3364W        W75789  27.482  28.434  12.434
 3365W        W75790  22.249   5.237   0.685
 3366W        W75791  14.159   4.874  13.512
 3367W        W75792  20.092   2.726  10.710
 3368W        W75793   0.186  31.583   4.960
 3369W        W75794  35.855  28.157  12.126
 3370W        W75795  37.110   7.618   0.998
 3371W        W75796  38.133  21.796   2.593
 3372W        W75797   1.881  27.695  11.415
 3373W        W75798  25.746  13.746   2.743
 3374W        W75799  12.202  29.899  13.013
 3375W        W75800  39.144  21.632   2.827
 3376W        W75801  17.090  30.357  12.113
 3377W        W75802   4.930  19.711  12.877
 3378W        W75803  16.827  35.003   3.272
 3379W        W75804  19.262  28.266   3.674
 3380W        W75805  33.508  17.735   1.526
 3381W        W75806  23.276   4.579   1.955
 3382W        W75807  13.693  33.514  14.990
 3383W        W75808  36.408  17.732  10.612
 3384W        W75809  12.199  25.079   4.735
 3385W        W75810  20.825  43.013   2.643
 3386W        W75811  31.087  25.988  11.476
 3387W        W75812  18.303   0.654  10.829
 3388W        W75813  36.009  28.886  13.104
 3389W        W75814   1.965   4.401  12.078
 3390W        W75815  15.168  37.101   0.798
 3391W        W75816   1.769  27.536  11.967
 3392W        W75817   8.353  36.505  11.871
 3393W        W75818  10.720  30.176  11.583
 3394W        W75819  15.158   5.313  11.779
 3395W        W75820  21.280  10.685  12.907
 3396W        W75821  16.641   9.683  11.152
 3397W        W75822   0.702   5.279   1.248
 3398W        W75823  30.908   8.820  12.989
 3399W        W75824  13.849  23.014   4.117
 3400W        W75825   9.979   5.200  11.681
 3401W        W75826  16.372  44.732  11.577
 3402W        W75827  26.564  32.971   0.885
 3403W        W75828  43.951   4.286   4.032
 3404W        W75829   8.794  12.125   4.146
 3405W        W75830  23.184   1.711   4.604
 3406W        W75831  33.848  26.516   0.861
 3407W        W75832   9.273  37.373  13.384
 3408W        W75833  10.084   2.889   1.974
 3409W        W75834   1.772  44.283   4.113
 3410W        W75835  15.379  36.931  14.444
 3411W        W75836  39.251  34.478  13.184
 3412W        W75837  42.514  18.850   1.685
 3413W        W75838   8.550   1.915   3.380
 3414W        W75839  28.746  35.370   1.556
 3415W        W75840   4.656  35.428   2.730
 3416W        W75841  43.281   5.610  11.075
 3417W        W75842  35.579   5.450   2.784
 3418W        W75843  38.839  22.454  12.475
 3419W        W75844  10.040  20.528   0.476
 3420W        W75845  38.356  39.617  14.985
 3421W        W75846  27.617  24.728  12.106
 3422W        W75847  44.484  21.525   0.466
 3423W        W75848  38.351  38.432   3.902
 3424W        W75849  25.194  33.949  13.395
 3425W        W75850  10.582  30.691  12.206
 3426W        W75851  29.306   9.458  10.678
 3427W        W75852   7.129  34.619  11.966
 3428W        W75853  16.267  43.726   0.518
 3429W        W75854   4.869  38.199   4.350
 3430W        W75855  28.988  15.871  14.349
 3431W        W75856  22.763   4.005   1.744
 3432W        W75857  25.155  27.596  13.598
 3433W        W75858  19.023  22.570   2.733
 3434W        W75859   1.117  14.834  13.495
 3435W        W75860   2.841  34.866   2.830
 3436W        W75861   2.529   6.288   3.507
 3437W        W75862  31.379  43.913   3.397
 3438W        W75863  39.980   9.399  14.211
 3439W        W75864  16.348  29.131  11.723
 3440W        W75865  38.370  14.457   1.974
 3441W        W75866   1.394  40.957   1.314
 3442W        W75867   6.661  36.373   2.298
 3443W        W75868  36.823  32.333  11.849
 3444W        W75869  33.197  10.808   1.254
 3445W        W75870  33.676  15.271  14.336
 3446W        W75871   8.336  23.519   0.421
 3447W        W75872   2.843  26.633   2.915
 3448W        W75873  22.990  24.600  13.383
 3449W        W75874  42.812  40.128  10.672
 3450W        W75875  36.055  23.968  13.439
 3451W        W75876  31.617   0.036  14.946
 3452W        W75877  34.653  44.819   2.758
 3453W        W75878  34.591   5.598  14.873
 3454W        W75879  31.695   4.846  14.442
 3455W        W75880  35.309  26.623   3.646
 3456W        W75881  44.933  33.042  10.350
 3457W        W75882  12.691  37.279  13.958
 3458W        W75883  44.171   5.970  10.748
 3459W        W75884  19.597  38.998   1.208
 3460W        W75885  29.882  29.126  14.877
 3461W        W75886  18.353   6.653  12.238
 3462W        W75887   9.384  44.532   3.308
 3463W        W75888   3.928  36.607   0.463
 3464W        W75889  22.663   8.627  14.533
 3465W        W75890  29.614  41.328   1.480
 3466W        W75891   7.285  37.426  11.954
 3467W        W75892  12.639  17.543   3.792
 3468W        W75893   2.056   1.331  10.483
 3469W        W75894  40.834  21.829   5.537
 3470W        W75895  12.145  43.872   3.731
 3471W        W75896   4.667  10.642   2.702
 3472W        W75897  18.732  15.191   2.281
 3473W        W75898  22.025  11.372  10.728
 3474W        W75899  14.279  42.915  12.384
 3475W        W75900  23.090  37.260   2.237
 3476W        W75901   6.776  36.386   0.789
 3477W        W75902  14.347  41.528  13.380
 3478W        W75903   9.330  28.556  11.958
 3479W        W75904  31.127  20.805  13.397
 3480W        W75905   0.157  29.666   0.757
 3481W        W75906  32.488   7.658   2.198
 3482W        W75907  26.469  18.978  12.395
 3483W        W75908  38.605   5.177   0.315
 3484W        W75909  31.039  37.624   2.403
 3485W        W75910  15.669   5.761  12.282
 3486W        W75911  39.029  31.665  13.790
 3487W        W75912  43.077  30.516   0.370
 3488W        W75913  25.797  34.424  13.486
 3489W        W75914  14.465  39.598  11.123
 3490W        W75915  44.847  25.282  11.541
 3491W        W75916  30.414  42.727  11.662
 3492W        W75917  38.066  22.240   0.741
 3493W        W75918   2.958  26.447   1.201
 3494W        W75919   1.376  22.617   3.236
 3495W        W75920  15.621  27.987  10.221
 3496W        W75921  29.503  22.000   2.776
 3497W        W75922  33.880  17.612   4.434
 3498W        W75923  40.857  44.553  12.711
 3499W        W75924   2.844  38.310  11.976
 3500W        W75925  33.459   6.793   0.063
 3501W        W75926  13.784  32.703   3.367
 3502W        W75927   7.422  11.928   2.813
 3503W        W75928  19.662  10.290   3.283
 3504W        W75929  21.300  17.713   1.821
 3505W        W75930   0.310   9.274  13.755
 3506W        W75931  21.130   0.563   4.262
 3507W        W75932   7.470   5.850   2.456
 3508W        W75933  10.087  13.979  10.234
 3509W        W75934  30.608  44.194   4.956
 3510W        W75935  27.897  18.579   4.105
 3511W        W75936  38.099  33.145  14.575
 3512W        W75937  19.347  22.780  12.619
 3513W        W75938  34.841   5.846   0.953
 3514W        W75939  11.752   1.791  14.393
 3515W        W75940  32.922  29.363  14.369
 3516W        W75941  30.210  36.065   3.170
 3517W        W75942   8.979  17.809  14.341
 3518W        W75943  39.997  39.644  13.920
 3519W        W75944  13.532  30.260  13.847
 3520W        W75945  21.502  38.226   3.595
 3521W        W75946  14.584  39.362  13.968
 3522W        W75947  18.616  16.356  11.976
 3523W        W75948  27.947  42.781   3.759
 3524W        W75949  38.699   5.987  11.945
 3525W        W75950  27.591  35.466   2.473
 3526W        W75951  21.044  18.533  13.364
 3527W        W75952   2.450  20.054   4.291
 3528W        W75953   5.252  21.385  12.404
 3529W        W75954  33.989  18.007   2.753
 3530W        W75955  26.644  37.764   1.591
 3531W        W75956  15.213  27.570  13.167
 3532W        W75957  28.904  19.014   2.962
 3533W        W75958  32.636  12.126   1.322
 3534W        W75959  16.856  41.857   2.932
 3535W        W75960  32.359   6.301  12.441
 3536W        W75961  12.336   9.236  13.995
 3537W        W75962  35.954  12.324  11.570
 3538W        W75963  13.530  43.543   4.387
 3539W        W75964   9.546  39.463   1.787
 3540W        W75965  21.037   0.406   0.065
 3541W        W75966  15.980  10.697  12.886
 3542W        W75967  18.104  29.197  11.668
 3543W        W75968  15.032  44.175  12.570
 3544W        W75969  24.732  31.233   2.238
 3545W        W75970   9.673  31.359   0.830
 3546W        W75971  18.307   1.450   4.050
 3547W        W75972  30.437  29.254   0.908
 3548W        W75973  26.270   9.547  14.367
 3549W        W75974   4.454  28.046  13.357
 3550W        W75975  33.411   9.765  12.063
 3551W        W75976  13.173   9.790  12.632
 3552W        W75977   3.689   9.918   2.291
 3553W        W75978  34.905  23.237   4.655
 3554W        W75979  32.527  28.642  14.921
 3555W        W75980  39.302  14.279   1.258
 3556W        W75981  10.877   7.803  11.709
 3557W        W75982   0.751   1.744   4.905
 3558W        W75983  35.431  28.197  10.731
 3559W        W75984  16.269  13.573  14.970
 3560W        W75985  19.614  18.518   1.812
 3561W        W75986   0.991  20.543  10.632
 3562W        W75987  38.392  14.733  12.229
 3563W        W75988  26.819  29.481   4.423
 3564W        W75989   1.859  41.322   0.075
 3565W        W75990  19.489   3.426   2.811
 3566W        W75991  15.463  36.924   0.332
 3567W        W75992   6.202  30.695   0.760
 3568W        W75993  28.145  33.180  10.516
 3569W        W75994  39.865  31.107   1.007
 3570W        W75995  32.415  26.652  11.570
 3571W        W75996   7.949   9.069  11.427
 3572W        W75997  39.471  23.452  14.436
 3573W        W75998  11.089  26.732  11.384
 3574W        W75999  24.172  12.262  12.117
 3575W        W76000  17.088   5.248  13.046
 3576W        W76001  10.645   3.644  10.711
 3577W        W76002  13.858  26.471   0.685
 3578W        W76003  14.366  34.554  12.457
 3579W        W76004   2.537  44.069   2.736
 3580W        W76005  35.067  22.575   5.110
 3581W        W76006  27.927   9.666  11.594
 3582W        W76007  40.078   2.744  14.669
 3583W        W76008  10.608  39.047   2.703
 3584W        W76009  21.506  17.128  11.044
 3585W        W76010  25.678  17.596  13.146
 3586W        W76011  42.988  15.049  14.027
 3587W        W76012  40.858  38.047  13.061
 3588W        W76013   7.337  44.511   4.808
 3589W        W76014  37.607  16.567  14.960
 3590W        W76015   7.786   8.856   0.770
 3591W        W76016  17.348   6.829   4.853
 3592W        W76017   8.815  39.596  14.821
 3593W        W76018  23.858  14.861  12.315
 3594W        W76019  42.506   4.264  14.625
 3595W        W76020  24.376  15.691   1.903
 3596W        W76021  38.041  25.102   4.609
 3597W        W76022  12.119  34.455  12.924
 3598W        W76023  31.652  36.061  13.312
 3599W        W76024  13.142  28.584  13.354
 3600W        W76025  42.131  35.451   2.839
 3601W        W76026  19.025   9.822   2.844
 3602W        W76027  43.819  44.983  11.538
 3603W        W76028  10.289   4.845   0.218
 3604W        W76029  26.335  43.035  13.347
 3605W        W76030  18.839  43.809   2.354
 3606W        W76031  31.848  21.335  11.589
 3607W        W76032   6.400  34.762   3.529
 3608W        W76033  25.916  24.637  10.593
 3609W        W76034   5.321  25.487   2.389
 3610W        W76035  23.464  27.665   4.124
 3611W        W76036   9.820  34.629   0.463
 3612W        W76037  28.867  42.315  14.714
 3613W        W76038  17.777  42.938   3.248
 3614W        W76039   0.480  40.872  13.024
 3615W        W76040  41.361  40.746  12.378
 3616W        W76041  34.504   8.261   0.227
 3617W        W76042  27.105   7.737  14.099
 3618W        W76043  18.410  18.486   4.141
 3619W        W76044   0.368  14.146   2.674
 3620W        W76045   2.926  17.570   0.712
 3621W        W76046   7.744  21.910  13.811
 3622W        W76047   5.950  30.478  13.045
 3623W        W76048  20.117   0.067  14.856
 3624W        W76049  25.008  44.994   0.514
 3625W        W76050  34.336  18.820  13.411
 3626W        W76051  10.353  38.493  12.492
 3627W        W76052  26.732  11.310  11.583
 3628W        W76053  31.000  26.229   2.253
 3629W        W76054   7.953   4.791   0.408
 3630W        W76055  43.106  22.153   3.040
 3631W        W76056  14.339   1.125   0.149
 3632W        W76057  38.446  17.770  11.208
 3633W        W76058  30.134  43.843   4.181
 3634W        W76059  11.640  44.579  11.224
 3635W        W76060  21.916  38.029   3.847
 3636W        W76061  19.729   6.200  13.958
 3637W        W76062  35.396  14.049   3.340
 3638W        W76063  40.448  41.274  10.131
 3639W        W76064  24.024  44.437   1.893
 3640W        W76065  18.290   2.960   2.324
 3641W        W76066   2.768  10.089  14.862
 3642W        W76067  23.918  29.665  14.186
 3643W        W76068  25.991  42.373  11.859
 3644W        W76069   4.517  24.527  12.109
 3645W        W76070   0.561   5.048  11.083
 3646W        W76071  36.971  11.159   1.441
 3647W        W76072  27.244   7.666   4.527
 3648W        W76073  14.250  37.912   4.303
 3649W        W76074  43.381   7.145  13.792
 3650W        W76075  10.962  42.245  13.995
 3651W        W76076  10.461  28.694   0.312
 3652W        W76077  16.177  43.907   4.617
 3653W        W76078  24.377  14.229   3.363
 3654W        W76079  42.037  33.598   1.249
 3655W        W76080  26.190  26.019  10.673
 3656W        W76081   4.769  43.186  12.557
 3657W        W76082  10.108   5.598  13.037
 3658W        W76083   1.990  27.220   4.105
 3659W        W76084  40.401  38.063  13.563
 3660W        W76085  23.493  35.588   1.909
 3661W        W76086  21.969  24.388   4.219
 3662W        W76087  11.252  10.666   0.838
 3663W        W76088   9.645   3.399   1.142
 3664W        W76089   5.342  19.577   2.023
 3665W        W76090  41.618  35.065  11.955
 3666W        W76091  14.284  19.718   1.763
 3667W        W76092  25.969  38.497  11.905
 3668W        W76093  24.773  19.827   1.697
 3669W        W76094  18.187  11.348  11.649
 3670W        W76095  39.952  27.057   4.569
 3671W        W76096  44.960  27.525  11.467
 3672W        W76097   2.313   6.086  12.168
 3673W        W76098  29.121  21.935  11.409
 3674W        W76099  32.518  21.215  11.985
 3675W        W76100  15.097  17.484   1.344
 3676W        W76101  19.115  33.463  10.663
 3677W        W76102  13.735  18.485  13.989
 3678W        W76103   7.222  38.609   4.286
 3679W        W76104  29.419   2.419   3.307
 3680W        W76105  25.537   5.257  10.701
 3681W        W76106  32.346  29.652  14.858
 3682W        W76107  39.497   7.399   4.754
 3683W        W76108   4.750  17.569  14.973
 3684W        W76109  43.914  36.005  14.201
 3685W        W76110  20.158  33.809   2.293
 3686W        W76111   2.097   2.959  14.429
 3687W        W76112  38.156   7.218  12.829
 3688W        W76113  20.670  43.496   5.198
 3689W        W76114  28.721  32.196  12.331
 3690W        W76115  14.104  43.043   4.754
 3691W        W76116   1.482  26.792  14.043
 3692W        W76117  11.748  34.084  12.828
 3693W        W76118  33.084  34.006   4.603
 3694W        W76119  28.247  18.768   3.155
 3695W        W76120  13.511  26.433   4.629
 3696W        W76121  16.652  33.452   3.158
 3697W        W76122  29.526  31.159  12.891
 3698W        W76123  44.479  13.305  12.638
 3699W        W76124  15.014  25.299  13.956
 3700W        W76125  24.014  19.672  14.887
 3701W        W76126  24.774  22.690   2.773
 3702W        W76127  44.802  44.327   2.697
 3703W        W76128  36.931  23.924  12.529
 3704W        W76129   8.764  30.640  13.412
 3705W        W76130  12.025   3.793  14.105
 3706W        W76131   1.327  35.899   3.248
 3707W        W76132  43.546  34.416   3.632
 3708W        W76133  30.834  32.471  11.223
 3709W        W76134  23.265   1.378  13.998
 3710W        W76135  15.771  31.757   5.153
 3711W        W76136  23.041  19.441  14.489
 3712W        W76137  25.205  28.572  12.774
 3713W        W76138  26.645   5.243  10.567
 3714W        W76139  17.306  35.426   2.209
 3715W        W76140  12.389  13.887   0.219
 3716W        W76141  16.224  18.513  12.773
 3717W        W76142  27.022  23.380  13.868
 3718W        W76143  36.026  44.557   0.498
 3719W        W76144  37.181  37.382   0.946
 3720W        W76145  44.257  42.747  10.243
 3721W        W76146  19.557  40.039  10.877
 3722W        W76147   4.635  28.597   4.608
 3723W        W76148  31.304  36.525  14.918
 3724W        W76149   3.465  29.578  11.076
 3725W        W76150   3.199  10.133   1.958
 3726W        W76151  19.518   8.267  13.340
 3727W        W76152   6.696   5.480  13.321
 3728W        W76153  27.801  44.522  11.090
 3729W        W76154  42.345   3.409  11.693
 3730W        W76155  28.522  38.679   0.081
 3731W        W76156  22.257  36.085   0.852
 3732W        W76157   2.506  27.741  12.495
 3733W        W76158  38.525   6.935  13.887
 3734W        W76159  22.736  17.764  11.390
 3735W        W76160  40.954  10.287   4.266
 3736W        W76161   9.817  17.893  10.287
 3737W        W76162  23.903  42.751  10.367
 3738W        W76163  32.775  15.159   1.642
 3739W        W76164  24.598   8.440  14.409
 3740W        W76165   1.834  25.788   4.515
 3741W        W76166  43.670  24.576  11.160
 3742W        W76167  38.911  12.707   1.810
 3743W        W76168   7.291   3.733  14.814
 3744W        W76169  31.925  30.984  12.338
 3745W        W76170  35.467   0.378   4.128
 3746W        W76171  14.816  29.281   4.577
 3747W        W76172  40.411  40.482   2.162
 3748W        W76173  16.467  27.660   1.817
 3749W        W76174  27.160  13.565   2.706
 3750W        W76175   4.893  11.354   0.855
 3751W        W76176  33.519  41.280   1.724
 3752W        W76177  44.465  42.223   1.324
 3753W        W76178  38.173   3.983   2.627
 3754W        W76179  35.678   0.236  10.734
 3755W        W76180  40.590   1.462   1.394
 3756W        W76181  38.532  24.737  13.979
 3757W        W76182  20.554  22.942   2.661
 3758W        W76183  29.322  22.197  11.823
 3759W        W76184  33.601  29.162   4.168
 3760W        W76185  21.314  41.267   0.081
 3761W        W76186   7.441  16.705  13.010
 3762W        W76187  42.204   6.083   3.304
 3763W        W76188   3.435  39.941   0.758
 3764W        W76189  41.113  38.952  10.776
 3765W        W76190  19.401   9.280   0.840
 3766W        W76191  17.052  12.838  14.343
 3767W        W76192  16.924   4.753  10.891
 3768W        W76193  40.030  17.421   2.722
 3769W        W76194  18.672  21.008   4.099
 3770W        W76195  11.279  11.175  13.897
 3771W        W76196  31.514  39.465  13.860
 3772W        W76197   3.467  17.787   0.486
 3773W        W76198  25.193  36.925  10.745
 3774W        W76199   9.905  32.193   2.823
 3775W        W76200  42.206  36.010   4.121
 3776W        W76201  14.292  16.579  12.846
 3777W        W76202   8.767  42.633   2.217
 3778W        W76203   9.387  29.138   1.701
 3779W        W76204   9.852  43.294   3.642
 3780W        W76205   2.501  17.223   0.753
 3781W        W76206  14.795  12.948  11.916
 3782W        W76207  19.543  18.652  13.559
 3783W        W76208  19.330  18.600   2.873
 3784W        W76209  14.108  22.744  10.867
 3785W        W76210   0.442  21.745   3.666
 3786W        W76211  36.446  21.074   3.783
 3787W        W76212  20.215  31.995   0.334
 3788W        W76213  10.035  26.692  13.956
 3789W        W76214  16.323   4.684  14.029
 3790W        W76215   3.987  15.301  11.902
 3791W        W76216  16.765  41.899  13.286
 3792W        W76217   8.455  23.975  13.548
 3793W        W76218  29.182  13.160   4.809
 3794W        W76219  24.909  12.239   3.745
 3795W        W76220  16.076  14.627  14.343
 3796W        W76221   5.675  15.893   4.213
 3797W        W76222  35.509  12.634   3.328
 3798W        W76223  32.931   5.845   0.879
 3799W        W76224  32.933  26.127  14.036
 3800W        W76225   7.662  42.760   1.900
 3801W        W76226  11.862  14.735   2.191
 3802W        W76227   2.662  37.545   2.128
 3803W        W76228  13.369  42.517   3.352
 3804W        W76229  13.365  41.505  10.620
 3805W        W76230   9.117  35.972   1.884
 3806W        W76231  17.972   8.949  11.096
 3807W        W76232  38.065  22.475   3.256
 3808W        W76233  33.040  44.467  14.424
 3809W        W76234  40.127   2.250   1.598
 3810W        W76235   7.491  30.531  14.439
 3811W        W76236  30.196   2.972  12.027
 3812W        W76237  37.545  21.323   3.759
 3813W        W76238   5.468  18.723  14.499
 3814W        W76239   6.636  10.295   9.782
 3815W        W76240  15.777  28.188   1.749
 3816W        W76241  33.284  32.328   0.988
 3817W        W76242  39.360  12.586   3.795
 3818W        W76243  25.023  27.197   3.677
 3819W        W76244  10.110  37.742  13.127
 3820W        W76245  36.214  17.866   2.773
 3821W        W76246  32.672  18.842  11.027
 3822W        W76247  31.890  30.216  13.466
 3823W        W76248  30.684  38.513  10.734
 3824W        W76249  37.271   1.356   0.888
 3825W        W76250  41.312  21.721  10.990
 3826W        W76251  35.407  17.807  11.463
 3827W        W76252  44.990   1.553  10.612
 3828W        W76253  44.938  30.718   3.105
 3829W        W76254  22.748  18.167  12.770
 3830W        W76255  13.583  36.937  12.946
 3831W        W76256  36.589  32.787  11.847
 3832W        W76257   1.276  32.519  11.075
 3833W        W76258   9.704  22.127  13.211
 3834W        W76259  44.797  37.990   4.741
 3835W        W76260  13.220  14.852   2.421
 3836W        W76261  43.769  31.826  14.419
 3837W        W76262  35.233  29.101  14.934
 3838W        W76263  24.943  35.252   5.060
 3839W        W76264  28.662  38.564   4.158
 3840W        W76265  10.881  26.070  11.667
 3841W        W76266  19.640  36.983  14.623
 3842W        W76267   2.051  42.048   4.177
 3843W        W76268   6.304   1.738  10.127
 3844W        W76269  17.431  19.758  13.442
 3845W        W76270  41.446  43.370   0.443
 3846W        W76271  14.692   9.378   0.400
 3847W        W76272   7.970   3.597  11.890
 3848W        W76273  37.889  19.732   4.531
 3849W        W76274  39.036  23.622  14.111
 3850W        W76275  25.954  28.023   2.709
 3851W        W76276  13.635  26.953  11.035
 3852W        W76277  23.458  14.073  11.915
 3853W        W76278  19.782  22.406   1.857
 3854W        W76279  18.046  13.055   3.686
 3855W        W76280  43.485   0.632   0.447
 3856W        W76281  13.727  23.525   2.773
 3857W        W76282  28.982  16.484   3.724
 3858W        W76283   7.758  32.901  13.406
 3859W        W76284   8.351  10.428  14.253
 3860W        W76285   2.658  36.153   3.847
 3861W        W76286  41.476  31.179  12.423
 3862W        W76287   8.744  17.026  13.798
 3863W        W76288   1.121   3.298   2.443
 3864W        W76289  15.331  22.999  14.505
 3865W        W76290  10.352  11.249   4.424
 3866W        W76291  26.507  13.914   0.387
 3867W        W76292  36.334  39.384   2.930
 3868W        W76293   1.881  19.797  13.459
 3869W        W76294  28.616  12.423  12.537
 3870W        W76295  40.032  21.058   3.671
 3871W        W76296   1.762  31.252   4.661
 3872W        W76297  35.332  29.555   4.264
 3873W        W76298  31.158  44.326   3.179
 3874W        W76299  20.441   0.992  12.120
 3875W        W76300  35.203   8.865   2.322
 3876W        W76301   9.809  11.783   0.835
 3877W        W76302   8.693  28.033  13.399
 3878W        W76303  10.632  15.520   0.899
 3879W        W76304  34.166   7.457   3.535
 3880W        W76305  11.075  30.352  13.388
 3881W        W76306  15.154   1.451   4.793
 3882W        W76307  29.123  37.062  12.113
 3883W        W76308  17.138  23.620  11.632
 3884W        W76309  42.367  36.584  14.780
 3885W        W76310   8.652   2.777   4.516
 3886W        W76311  28.169  20.129   4.169
 3887W        W76312   8.410  40.162   2.327
 3888W        W76313  30.220  40.942  11.523
 3889W        W76314   4.486  20.241   1.863
 3890W        W76315  41.248  23.266  12.008
 3891W        W76316  44.850  24.804  11.703
 3892W        W76317  15.274  27.655  14.762
 3893W        W76318  43.328   0.347   3.316
 3894W        W76319  36.128   6.306  13.883
 3895W        W76320   3.887  15.158   3.765
 3896W        W76321   5.843   9.343  11.959
 3897W        W76322  36.332   5.438   0.014
 3898W        W76323  23.493  10.893  14.027
 3899W        W76324  19.863  35.518  14.115
 3900W        W76325  26.149  28.478   4.700
 3901W        W76326  27.486  24.476   1.734
 3902W        W76327  12.902   6.807  10.955
 3903W        W76328  37.966   5.076  14.018
 3904W        W76329  43.042  20.095  10.107
 3905W        W76330  42.936  36.260   5.034
 3906W        W76331  25.018   0.489   4.544
 3907W        W76332  21.458  41.802   4.110
 3908W        W76333   2.937  13.489  11.946
 3909W        W76334  13.846  38.584   0.372
 3910W        W76335  17.757  22.992  10.690
 3911W        W76336   0.440  36.035   1.010
 3912W        W76337  38.228  15.852  14.055
 3913W        W76338  44.886  29.197  11.219
 3914W        W76339  12.277  37.002   3.226
 3915W        W76340  37.070  44.063  12.038
 3916W        W76341   3.449   0.202  12.056
 3917W        W76342  26.269   8.277   2.764
 3918W        W76343   8.265   4.220   3.769
 3919W        W76344   5.041  23.552  14.037
 3920W        W76345  37.514  27.918  12.816
 3921W        W76346   1.939  26.726   0.281
 3922W        W76347  23.219  30.894   1.487
 3923W        W76348  42.773   9.897  10.724
 3924W        W76349  35.095  42.397  10.735
 3925W        W76350  13.799  40.832  13.033
 3926W        W76351   2.139  25.614   4.123
 3927W        W76352  15.302  39.290  14.465
 3928W        W76353   8.211  40.001   4.119
 3929W        W76354  34.769  33.470   0.493
 3930W        W76355  43.740   9.130   3.142
 3931W        W76356   4.373  23.194   2.800
 3932W        W76357  31.251   3.643  13.099
 3933W        W76358  27.878   2.753   2.631
 3934W        W76359  28.573  15.109  11.533
 3935W        W76360  37.075  27.067   4.127
 3936W        W76361  22.801   1.956   2.640
 3937W        W76362  44.430  28.825   4.560
 3938W        W76363  31.504  24.190   2.095
 3939W        W76364  20.184  40.134  14.060
 3940W        W76365  35.584  22.891  11.104
 3941W        W76366  24.945  37.404  13.248
 3942W        W76367  20.437  42.975   3.904
 3943W        W76368  16.103  32.481  10.884
 3944W        W76369  38.451  30.528   0.636
 3945W        W76370   1.916   0.014  14.044
 3946W        W76371   0.005  26.461  13.921
 3947W        W76372  21.283  37.519  12.430
 3948W        W76373  39.477   2.287   1.011
 3949W        W76374  17.262  34.447  14.887
 3950W        W76375   1.568  22.468  12.498
 3951W        W76376   0.029  25.471  14.039
 3952W        W76377  33.040   2.968  10.328
 3953W        W76378  30.481  26.394   0.884
 3954W        W76379  30.498   2.468  10.645
 3955W        W76380  33.706  25.245   2.828
 3956W        W76381  26.365  12.952  13.447
 3957W        W76382  12.873  22.483  11.994
 3958W        W76383  21.567   6.215  12.522
 3959W        W76384  34.101  30.964   0.035
 3960W        W76385   2.194  18.265   4.888
 3961W        W76386  40.955  43.249   2.296
 3962W        W76387  22.120  20.509   4.288
 3963W        W76388  38.067   5.847  14.638
 3964W        W76389   9.858  44.435  12.143
 3965W        W76390   1.997  39.496  14.009
 3966W        W76391  40.468  17.274   0.749
 3967W        W76392  19.056  22.937  11.455
 3968W        W76393  40.097  36.412  11.559
 3969W        W76394  11.562  32.620   0.330
 3970W        W76395  39.337  15.304   1.330
 3971W        W76396  32.415  32.494   2.171
 3972W        W76397   0.969  35.460   4.119
 3973W        W76398  18.624  34.132  13.532
 3974W        W76399  40.060  43.352   2.057
 3975W        W76400  12.243  22.293  10.749
 3976W        W76401  34.374  40.457   3.429
 3977W        W76402  26.538  39.015  13.441
 3978W        W76403  13.139  27.518   3.604
 3979W        W76404   7.856  14.415   2.392
 3980W        W76405  34.106  42.428   2.618
 3981W        W76406  42.706  19.719  12.124
 3982W        W76407  10.151  43.406  10.596
 3983W        W76408  33.271   1.874  13.573
 3984W        W76409   9.378  29.210   3.896
 3985W        W76410  19.293   6.113   2.902
 3986W        W76411  40.984  31.030  12.652
 3987W        W76412  30.753  22.015  10.596
 3988W        W76413   1.189  16.527   0.428
 3989W        W76414  27.713  20.633   1.012
 3990W        W76415  43.470  13.131   1.331
 3991W        W76416  42.493  29.517  14.892
 3992W        W76417  29.466  23.518   4.703
 3993W        W76418  11.588  11.170   1.275
 3994W        W76419   8.084  42.914   4.946
 3995W        W76420  44.310  15.759  12.322
 3996W        W76421  11.709  18.578   0.833
 3997W        W76422   1.504  38.482  12.613
 3998W        W76423  22.027   6.937   0.458
 3999W        W76424  43.380   7.659   4.067
 4000W        W76425  29.389   5.700   0.922
 4001W        W76426  30.547  30.864  12.977
 4002W        W76427  19.534  42.762  10.893
 4003W        W76428  31.119  38.142  14.665
 4004W        W76429  29.951   3.395   3.229
 4005W        W76430   1.464  22.157   4.124
 4006W        W76431  11.116  25.062  12.473
 4007W        W76432  30.220   0.328   2.408
 4008W        W76433  43.889  36.498   1.394
 4009W        W76434   7.640  42.906  13.450
 4010W        W76435  32.408  33.613   3.642
 4011W        W76436   6.701  16.310   2.925
 4012W        W76437   1.270  40.503  14.542
 4013W        W76438  21.349  44.414  13.163
 4014W        W76439  34.949   4.465  13.902
 4015W        W76440  18.129  30.506   0.434
 4016W        W76441  39.865   4.343   4.587
 4017W        W76442  31.259  29.165   1.876
 4018W        W76443  29.336  20.690  10.228
 4019W        W76444  22.079  42.275   1.319
 4020W        W76445  19.526  32.533   4.616
 4021W        W76446  12.149  28.206  11.153
 4022W        W76447  40.029  37.436   2.279
 4023W        W76448  20.587  14.021  13.960
 4024W        W76449  20.585  17.138  14.452
 4025W        W76450   9.670   7.765  14.362
 4026W        W76451  32.331  18.588  10.726
 4027W        W76452  15.796   2.299  11.024
 4028W        W76453  23.753  37.579   3.681
 4029W        W76454  39.079  44.385   1.360
 4030W        W76455  42.258  26.467   3.825
 4031W        W76456  20.941  40.091  11.582
 4032W        W76457  29.316  22.471  13.921
 4033W        W76458  37.043   7.187   1.804
 4034W        W76459   1.975  22.703   4.901
 4035W        W76460  43.726  40.812  12.850
 4036W        W76461  42.486  34.837  13.402
 4037W        W76462  21.589  24.924  12.110
 4038W        W76463  43.537  37.537  10.675
 4039W        W76464  34.500   0.935  13.856
 4040W        W76465  24.426  34.396  13.022
 4041W        W76466  30.021  31.664  10.635
 4042W        W76467  14.149  33.589  14.730
 4043W        W76468  44.062   9.107   4.508
 4044W        W76469  44.335   7.666  14.859
 4045W        W76470  44.401  29.519  13.857
 4046W        W76471  43.036  43.894   4.129
 4047W        W76472  42.022   7.677   0.793
 4048W        W76473  44.981   4.282   0.922
 4049W        W76474  35.435   3.888  12.038
 4050W        W76475  22.089  40.266   3.681
 4051W        W76476  32.593  16.686   1.765
 4052W        W76477  16.364   6.373  13.462
 4053W        W76478  12.579  44.905   0.948
 4054W        W76479  17.672  24.923  12.519
 4055W        W76480  42.710  41.217  13.465
 4056W        W76481  44.806  44.128   0.772
 4057W        W76482   9.387  42.312   3.708
 4058W        W76483  22.977  43.825  12.879
 4059W        W76484  18.611  19.501  12.073
 4060W        W76485   1.433  39.281  11.598
 4061W        W76486  18.362  30.968   1.713
 4062W        W76487  23.624  18.404  10.647
 4063W        W76488  37.652  30.512   4.639
 4064W        W76489   1.933  25.116  12.590
 4065W        W76490   7.458   3.268   4.280
 4066W        W76491  23.466  21.412   4.102
 4067W        W76492   1.487  14.329   3.733
 4068W        W76493   8.424   3.522   4.130
 4069W        W76494  42.522  25.600  11.353
 4070W        W76495  27.268  34.742  12.618
 4071W        W76496  15.358  23.983  13.530
 4072W        W76497  13.050  13.838  14.839
 4073W        W76498  28.363   3.415   3.754
 4074W        W76499   6.286   0.024  12.132
 4075W        W76500  10.738   8.610  11.116
 4076W        W76501   3.309  15.279   1.938
 4077W        W76502  16.356  24.092   0.408
 4078W        W76503  26.724  21.747   4.579
 4079W        W76504   3.531   7.417   2.225
 4080W        W76505   6.616   1.387   0.833
 4081W        W76506   4.623   0.631  13.503
 4082W        W76507  25.320  34.390  13.702
 4083W        W76508  10.133  28.950   3.230
 4084W        W76509  11.728  10.669   2.777
 4085W        W76510  38.849  23.337   1.831
 4086W        W76511   0.415  14.242   0.652
 4087W        W76512   1.886  34.291   3.543
 4088W        W76513  14.166  38.542   2.193
 4089W        W76514  27.395  23.257   4.077
 4090W        W76515  41.146  15.783  10.427
 4091W        W76516   3.742  31.177  12.862
 4092W        W76517  32.785  13.619  11.925
 4093W        W76518   6.594   4.253   2.421
 4094W        W76519   3.937  16.516  13.983
 4095W        W76520  25.152  26.690   5.038
 4096W        W76521  35.877   8.369  11.928
 4097W        W76522  16.205   2.759  14.280
 4098W        W76523  38.385  16.129   4.062
 4099W        W76524  34.227  28.768   0.590
 4100W        W76525  36.439  30.146  13.104
 4101W        W76526  25.527   0.464  13.035
 4102W        W76527  34.319  27.277  13.938
 4103W        W76528   5.151  37.790  14.209
 4104W        W76529  28.103  25.893   4.089
 4105W        W76530   2.744  37.589   2.645
 4106W        W76531   9.181  26.504  11.731
 4107W        W76532  36.925  16.231  12.186
 4108W        W76533   3.051  23.464  11.632
 4109W        W76534  33.414  30.158   4.168
 4110W        W76535  17.190  28.938  13.586
 4111W        W76536  37.804   6.819  12.795
 4112W        W76537  16.062  31.438  12.280
 4113W        W76538  19.577  41.354   3.714
 4114W        W76539  13.536  36.824  13.447
 4115W        W76540  23.949   5.822  13.460
 4116W        W76541  19.077  29.096   0.758
 4117W        W76542   4.203   9.819  13.988
 4118W        W76543   3.230  14.786   3.648
 4119W        W76544  29.918   9.189   0.927
 4120W        W76545  28.131   8.213  13.303
 4121W        W76546  39.365  16.467  14.331
 4122W        W76547  28.128   0.223   2.851
 4123W        W76548  22.038   7.713  12.997
 4124W        W76549  30.786  22.959  14.989
 4125W        W76550  24.156   7.875   4.458
 4126W        W76551  25.730  22.198  13.799
 4127W        W76552  43.213  36.075   2.346
 4128W        W76553  26.385  41.716  12.456
 4129W        W76554  41.159  40.973   3.709
 4130W        W76555   3.823   1.289  14.168
 4131W        W76556  12.632   1.052  11.221
 4132W        W76557   0.804   2.799  14.052
 4133W        W76558   8.965  36.172  14.669
 4134W        W76559  25.757  23.018  10.564
 4135W        W76560   1.727  26.081  11.509
 4136W        W76561  44.263  28.877  10.375
 4137W        W76562  37.955  27.475  12.328
 4138W        W76563   2.218  24.209   2.310
 4139W        W76564  31.602  23.259  10.023
 4140W        W76565  15.728  32.690  14.820
 4141W        W76566   5.992   2.969   3.144
 4142W        W76567  13.197  27.022   2.246
 4143W        W76568  39.046  18.768   2.754
 4144W        W76569  17.133  21.159  13.515
 4145W        W76570  11.279  11.652   2.430
 4146W        W76571   2.094  28.616  11.180
 4147W        W76572  21.509  16.065  13.301
 4148W        W76573  44.427  10.951   2.349
 4149W        W76574  20.786  16.691  11.416
 4150W        W76575  13.488  34.641  10.833
 4151W        W76576  24.275   9.639  11.650
 4152W        W76577  26.758   5.475  11.016
 4153W        W76578  20.059  29.548  11.601
 4154W        W76579  18.821  17.227  11.009
 4155W        W76580  26.222   4.005  13.929
 4156W        W76581  32.606  26.986   4.124
 4157W        W76582  23.529  26.155  12.369
 4158W        W76583  22.275  14.323   0.858
 4159W        W76584  18.286  37.582  11.107
 4160W        W76585  13.218   0.891   5.089
 4161W        W76586   4.392  25.665  12.293
 4162W        W76587   8.687  26.593  11.560
 4163W        W76588  41.724  15.150   2.764
 4164W        W76589  26.277  35.927  10.378
 4165W        W76590  18.441  13.605   4.911
 4166W        W76591  36.147  38.915   0.996
 4167W        W76592  13.843  36.337  14.831
 4168W        W76593  34.900  44.996  10.636
 4169W        W76594  16.834  22.314   1.238
 4170W        W76595  32.457  32.958   0.874
 4171W        W76596  41.527   4.809  12.134
 4172W        W76597   0.755  44.506  12.908
 4173W        W76598  16.509  27.764  13.558
 4174W        W76599  28.058  30.050   1.492
 4175W        W76600  42.063  37.010   0.920
 4176W        W76601  32.377  34.316  14.036
 4177W        W76602  42.922  44.071  13.955
 4178W        W76603  36.958  28.476  11.730
 4179W        W76604   0.904  23.458  13.454
 4180W        W76605  18.658  41.032  13.551
 4181W        W76606   1.739  30.186  11.543
 4182W        W76607  38.542  44.264   4.550
 4183W        W76608  38.725  11.776   4.586
 4184W        W76609   8.801  40.382  12.680
 4185W        W76610   7.647  29.184   2.889
 4186W        W76611  33.902  41.316   0.769
 4187W        W76612   4.437  16.518   0.366
 4188W        W76613   2.366  36.904  13.405
 4189W        W76614  18.752  43.027  11.740
 4190W        W76615  24.451  17.688  14.234
 4191W        W76616   9.852  17.274   4.290
 4192W        W76617  34.913   6.404   3.577
 4193W        W76618  43.787  20.976  12.942
 4194W        W76619  10.005  29.526   0.360
 4195W        W76620  37.088   3.215  13.170
 4196W        W76621  38.314  17.569   3.300
 4197W        W76622  20.786  24.095  12.061
 4198W        W76623   7.005  10.215   4.650
 4199W        W76624   9.315   0.951  13.772
 4200W        W76625   2.914   1.296  12.041
 4201W        W76626  42.845   6.432   2.790
 4202W        W76627  15.809   6.251  12.059
 4203W        W76628  12.672  32.528   4.246
 4204W        W76629  14.349  18.123  13.019
 4205W        W76630   6.304  20.187  14.425
 4206W        W76631  23.463  11.424   4.768
 4207W        W76632  39.842  42.574  11.706
 4208W        W76633  37.867  11.126  12.766
 4209W        W76634  19.562  37.406  14.934
 4210W        W76635  18.660  30.518   3.279
 4211W        W76636  25.729  36.418  13.837
 4212W        W76637  15.477  33.275   3.295
 4213W        W76638  27.209   2.529   4.180
 4214W        W76639  15.246  42.132  11.595
 4215W        W76640  34.508  37.062  10.729
 4216W        W76641  13.822  35.427   3.833
 4217W        W76642   7.775  14.600   0.263
 4218W        W76643  16.196  18.010  13.016
 4219W        W76644  12.629  11.159   4.135
 4220W        W76645   2.381  40.438  13.327
 4221W        W76646  27.751  32.447   0.314
 4222W        W76647  34.448  18.264   2.788
 4223W        W76648  25.036  24.250   1.292
 4224W        W76649  39.428  11.588  13.500
 4225W        W76650  23.639  32.725  11.069
 4226W        W76651   6.631  13.749   4.094
 4227W        W76652  23.549  31.117   0.738
 4228W        W76653  21.509  10.672  11.649
 4229W        W76654   2.651  39.444  12.794
 4230W        W76655  33.062  41.343   3.875
 4231W        W76656  15.149  16.429  13.927
 4232W        W76657  41.401   7.358   4.197
 4233W        W76658  26.990  14.817  13.867
 4234W        W76659  37.062  19.175   1.859
 4235W        W76660   3.700   6.391  14.888
 4236W        W76661  11.376   3.969  10.652
 4237W        W76662  11.137   9.733   1.939
 4238W        W76663  25.097  30.099  13.822
 4239W        W76664  38.379  29.202   1.310
 4240W        W76665  36.010  31.008  14.884
 4241W        W76666  22.499  18.196  11.414
 4242W        W76667  42.300  13.104  12.978
 4243W        W76668  20.092  19.241  11.877
 4244W        W76669  40.047  22.630   3.154
 4245W        W76670  28.696  35.975  14.439
 4246W        W76671  13.367  24.513   3.230
 4247W        W76672  19.314   6.702  12.218
 4248W        W76673  18.332   9.924  11.344
 4249W        W76674  11.703  24.329   2.434
 4250W        W76675  43.087  20.287   4.783
 4251W        W76676  11.534  40.311   2.644
 4252W        W76677  13.160  27.896  10.892
 4253W        W76678  32.933  26.867   3.698
 4254W        W76679   9.145  27.795  11.653
 4255W        W76680   1.800  13.041   3.655
 4256W        W76681  26.564  36.065  11.174
 4257W        W76682  22.141  12.259   3.859
 4258W        W76683  11.818  44.573   2.736
 4259W        W76684  37.480  23.175  11.288
 4260W        W76685  16.862  44.343  12.985
 4261W        W76686  32.268  18.697   3.776
 4262W        W76687  13.668  28.830   3.168
 4263W        W76688  27.610  24.562   4.139
 4264W        W76689  25.160  13.377  12.407
 4265W        W76690   0.274  37.953   0.704
 4266W        W76691   2.829  23.027  12.083
 4267W        W76692  31.417  40.521   5.060
 4268W        W76693  31.659  14.434  12.909
 4269W        W76694  23.854  38.705  13.367
 4270W        W76695  29.268  35.394   4.168
 4271W        W76696  14.664  33.066  13.342
 4272W        W76697  28.830  11.490  13.892
 4273W        W76698  31.583  14.125  11.162
 4274W        W76699  44.674  41.162  12.874
 4275W        W76700  35.990  41.257  14.444
 4276W        W76701  18.465  19.071   2.825
 4277W        W76702  44.288  27.138  13.023
 4278W        W76703   9.456  27.558   3.601
 4279W        W76704  27.678  21.678   1.610
 4280W        W76705  26.724  33.094   3.557
 4281W        W76706  28.914  20.174  13.263
 4282W        W76707  12.244  11.129   0.652
 4283W        W76708   7.859  30.423   1.317
 4284W        W76709  44.311  26.250   4.585
 4285W        W76710  28.329  19.710  13.526
 4286W        W76711  17.121  36.668  14.451
 4287W        W76712  10.229   5.440  13.870
 4288W        W76713   6.761   4.491  14.765
 4289W        W76714  30.196   3.297   3.682
 4290W        W76715  28.515  23.608  13.983
 4291W        W76716  12.750  44.482   1.807
 4292W        W76717  40.559  23.441   3.301
 4293W        W76718  13.702  17.907  11.444
 4294W        W76719  14.861  15.571   2.246
 4295W        W76720  15.328  28.549   2.166
 4296W        W76721  43.046  29.107  12.051
 4297W        W76722  13.563  39.292  10.676
 4298W        W76723  18.687  16.837   1.469
 4299W        W76724  22.606  28.535   2.144
 4300W        W76725  21.975  43.560   3.306
 4301W        W76726  14.232  24.508  14.798
 4302W        W76727  12.949  19.163  13.510
 4303W        W76728   0.547  25.106   0.884
 4304W        W76729  41.795   8.958  11.764
 4305W        W76730  14.145  18.884  11.179
 4306W        W76731  12.827  22.149  10.963
 4307W        W76732  10.147  44.919  11.567
 4308W        W76733   1.904  35.945   3.256
 4309W        W76734  18.459  11.199  12.051
 4310W        W76735   9.970  38.124  12.567
 4311W        W76736  30.970  21.066  12.544
 4312W        W76737   0.791  44.029  12.722
 4313W        W76738  27.203  32.998  12.698
 4314W        W76739  28.743  21.036   3.118
 4315W        W76740   2.261  31.992  13.409
 4316W        W76741  37.562   9.325   3.317
 4317W        W76742  19.495  29.247  13.049
 4318W        W76743  17.681  29.034  11.401
 4319W        W76744  10.139  41.929  12.864
 4320W        W76745  18.533  36.886  14.047
 4321W        W76746  32.169  30.524  11.574
 4322W        W76747   0.716  15.695   1.348
 4323W        W76748  10.080  36.949  11.643
 4324W        W76749  16.728  17.753   3.073
 4325W        W76750  14.268   5.715   2.872
 4326W        W76751  10.332  34.025   4.223
 4327W        W76752   6.415   0.801  10.655
 4328W        W76753   6.944  18.576  14.014
 4329W        W76754  43.791  43.883   4.611
 4330W        W76755   6.822  36.465  14.502
 4331W        W76756  27.860  31.681   1.293
 4332W        W76757  43.527  24.201  13.412
 4333W        W76758  10.397  32.117  10.712
 4334W        W76759  26.737  43.618   2.060
 4335W        W76760  21.187  32.925  10.819
 4336W        W76761  40.428  38.144   4.599
 4337W        W76762   6.723  13.345  12.887
 4338W        W76763  20.211  30.571   5.139
 4339W        W76764  39.591   5.736  14.032
 4340W        W76765  43.395  44.086  12.876
 4341W        W76766  24.686  19.728   3.990
 4342W        W76767  42.799  41.323   3.250
 4343W        W76768  36.339   5.860   1.915
 4344W        W76769  35.820   5.970  10.486
 4345W        W76770  34.444  18.552  12.490
 4346W        W76771   6.112  27.097   1.408
 4347W        W76772  19.813   6.913  12.089
 4348W        W76773  26.163  35.891  12.107
 4349W        W76774  28.896  28.991  13.823
 4350W        W76775  36.967   9.800   2.219
 4351W        W76776  17.752   3.993   1.140
 4352W        W76777  19.787   9.211  11.084
 4353W        W76778  24.238   1.343  11.496
 4354W        W76779   0.761  42.545  12.080
 4355W        W76780   6.714  42.910   4.722
 4356W        W76781  31.132  36.294  10.579
 4357W        W76782  20.732  13.279  11.923
 4358W        W76783  18.043  34.376   3.088
 4359W        W76784  33.988  18.652   1.593
 4360W        W76785  30.424  31.704   0.425
 4361W        W76786  19.574  35.405   3.182
 4362W        W76787  34.796  42.954  13.054
 4363W        W76788   0.918  10.388  13.099
 4364W        W76789  36.980  23.605   2.077
 4365W        W76790  30.071  18.683  14.444
 4366W        W76791  20.632  27.613   3.170
 4367W        W76792  24.196  31.403   2.186
 4368W        W76793   8.684  21.979  13.904
 4369W        W76794  27.754  16.350  14.417
 4370W        W76795   3.225  31.052  10.718
 4371W        W76796  41.387   0.587   2.391
 4372W        W76797  34.150   8.851   4.644
 4373W        W76798   2.910  27.714  12.830
 4374W        W76799  32.443   5.298  14.937
 4375W        W76800  37.007  26.536   4.144
 4376W        W76801  31.057  30.865   2.531
 4377W        W76802   0.865  18.706  14.849
 4378W        W76803  16.896   7.894  14.822
 4379W        W76804  15.810   4.729   3.371
 4380W        W76805  42.830  31.924  12.445
 4381W        W76806  15.614  38.007   4.534
 4382W        W76807   2.378  39.277   0.410
 4383W        W76808   3.283  44.435   3.588
 4384W        W76809  15.187  17.133  11.549
 4385W        W76810   5.430  20.644   1.387
 4386W        W76811   1.687  20.796   1.814
 4387W        W76812  34.432  42.323   3.423
 4388W        W76813  24.636   5.406   1.875
 4389W        W76814  18.718   2.281  10.633
 4390W        W76815   4.400  42.838   1.158
 4391W        W76816  17.227  26.996  11.169
 4392W        W76817  29.645  21.077   3.296
 4393W        W76818  14.892  44.167  13.951
 4394W        W76819  41.015  31.502  12.437
 4395W        W76820   9.587   8.984  13.828
 4396W        W76821  33.196  18.080  11.382
 4397W        W76822  12.673   7.234   0.295
 4398W        W76823  13.166  23.194  13.539
 4399W        W76824  37.994  12.735   1.459
 4400W        W76825  43.769   8.392   2.762
 4401W        W76826  17.528   8.437   0.710
 4402W        W76827   0.752   7.188  13.427
 4403W        W76828  18.651  36.344   1.798
 4404W        W76829  40.326  36.016   0.871
 4405W        W76830  26.129   4.968   0.026
 4406W        W76831   0.891   9.327  10.471
 4407W        W76832   8.728   9.105   3.640
 4408W        W76833  42.204  22.982   2.870
 4409W        W76834  37.118  10.689   2.450
 4410W        W76835  43.448   7.998   0.353
 4411W        W76836   6.171   3.331  10.324
 4412W        W76837  24.292  34.715   4.505
 4413W        W76838  15.325  25.487  11.126
 4414W        W76839  38.191  25.174   3.180
 4415W        W76840   2.317  43.456  13.137
 4416W        W76841  27.226  36.425  11.279
 4417W        W76842   8.771  27.412  11.048
 4418W        W76843  30.562  34.018   0.581
 4419W        W76844  43.067   1.663   1.313
 4420W        W76845  44.256  39.035   4.502
 4421W        W76846  30.101  27.698  11.640
 4422W        W76847  18.740   8.287  12.353
 4423W        W76848  33.945   4.799  14.945
 4424W        W76849  31.538  18.809   0.379
 4425W        W76850   4.093   2.243   1.841
 4426W        W76851  13.199  28.474   4.267
 4427W        W76852  29.685  37.593   1.632
 4428W        W76853   1.640  41.140   3.245
 4429W        W76854  17.738  20.330  12.410
 4430W        W76855  24.179  21.298   0.845
 4431W        W76856   4.619  31.442   0.454
 4432W        W76857  36.058  43.460  11.924
 4433W        W76858  31.573  10.874   3.726
 4434W        W76859  18.307  36.952   4.600
 4435W        W76860  19.534  43.559   3.155
 4436W        W76861  39.351  26.527  13.037
 4437W        W76862  15.687   0.906  14.874
 4438W        W76863  24.901  30.795  10.649
 4439W        W76864  37.835   3.675  12.079
 4440W        W76865  32.364  20.392   2.665
 4441W        W76866   0.455  34.373  12.105
 4442W        W76867  41.852  29.027  10.666
 4443W        W76868  12.803  14.140  10.588
 4444W        W76869  26.130  30.475  13.921
 4445W        W76870  25.891   3.734  12.003
 4446W        W76871  31.922  30.400  14.532
 4447W        W76872   4.166  13.666   0.354
 4448W        W76873  33.050  21.326   3.626
 4449W        W76874  14.281  30.564  14.455
 4450W        W76875  32.969  31.485   4.265
 4451W        W76876  13.855  10.190  11.502
 4452W        W76877  37.133  13.625   4.595
 4453W        W76878   0.276  36.049   3.269
 4454W        W76879   6.420  26.484   0.285
 4455W        W76880   1.905   4.265  13.791
 4456W        W76881  17.690   5.427  12.470
 4457W        W76882  43.829  36.745   1.876
 4458W        W76883  24.687  25.685  12.095
 4459W        W76884  41.314   0.940   1.556
 4460W        W76885  39.342   8.898   4.903
 4461W        W76886  36.093   8.152  13.625
 4462W        W76887  28.118  41.746  14.534
 4463W        W76888   6.302  13.073  14.300
 4464W        W76889  23.893  32.186  13.062
 4465W        W76890   3.939  32.855   3.214
 4466W        W76891  37.835   6.327  11.072
 4467W        W76892  30.001   5.486  13.059
 4468W        W76893  40.299  17.127   4.130
 4469W        W76894   3.269  42.957  11.467
 4470W        W76895   2.559  17.437  14.636
 4471W        W76896   9.662  18.400  12.096
 4472W        W76897  36.003  10.331   4.079
 4473W        W76898  25.280  42.427   0.827
 4474W        W76899  21.534  27.492   2.938
 4475W        W76900   9.039  16.882   0.808
 4476W        W76901  39.779  44.044  11.906
 4477W        W76902  16.473   6.424   4.176
 4478W        W76903  17.586   4.673  14.753
 4479W        W76904  30.642  38.797  13.851
 4480W        W76905  26.465  37.283  10.289
 4481W        W76906  25.944  28.924   4.221
 4482W        W76907  28.265  31.943  11.939
 4483W        W76908  12.273  37.049   0.262
 4484W        W76909   9.375  41.588  10.742
 4485W        W76910  18.180  42.854   4.071
 4486W        W76911  10.468  31.676   1.286
 4487W        W76912   1.282  26.143  11.161
 4488W        W76913   9.182  31.878   4.418
 4489W        W76914  27.708  23.746   1.149
 4490W        W76915   4.154  24.407   4.186
 4491W        W76916  32.830  29.449  10.699
 4492W        W76917  11.943  22.094   3.642
 4493W        W76918  40.580  40.275   0.845
 4494W        W76919   6.711  15.793  10.306
 4495W        W76920  34.842  40.260   2.788
 4496W        W76921  33.602  26.065   0.912
 4497W        W76922  23.536   5.787   4.767
 4498W        W76923   5.472  15.238  13.997
 4499W        W76924  28.105  42.983   0.296
 4500W        W76925   4.458  32.444   0.491
 4501W        W76926  26.625  40.107  11.414
 4502W        W76927  38.779  42.339   1.812
 4503W        W76928  37.556  38.435   4.642
 4504W        W76929  43.317   3.494  12.537
 4505W        W76930   4.661  11.715   1.776
 4506W        W76931  15.708  30.368   1.041
 4507W        W76932  12.101  20.833   1.228
 4508W        W76933   0.373  31.541  14.267
 4509W        W76934  27.920  44.878  12.363
 4510W        W76935   4.350  38.954   3.104
 4511W        W76936  30.958  12.398  13.992
 4512W        W76937  41.100  35.101  11.920
 4513W        W76938  26.434  12.634  11.458
 4514W        W76939  23.000  19.334  13.265
 4515W        W76940  41.072  39.491   3.458
 4516W        W76941  16.073   8.143   2.300
 4517W        W76942   5.494  16.047  12.909
 4518W        W76943  35.415  41.043  10.577
 4519W        W76944  43.831  16.170   3.849
 4520W        W76945  44.633   0.471  11.534
 4521W        W76946  24.159   9.963   4.288
 4522W        W76947   2.686   8.672   3.683
 4523W        W76948  18.885  30.153   4.123
 4524W        W76949  16.759  33.610  11.143
 4525W        W76950  44.446  26.167  10.911
 4526W        W76951  33.015   0.932   4.915
 4527W        W76952   4.961  30.107  11.601
 4528W        W76953  36.010  25.695  12.060
 4529W        W76954   0.122   3.741   0.815
 4530W        W76955   2.681  30.914   3.268
 4531W        W76956  11.627   0.473  14.894
 4532W        W76957   7.186  24.945  13.881
 4533W        W76958  44.791  37.870  10.775
 4534W        W76959  27.186  43.354  12.981
 4535W        W76960  31.308   1.354  14.937
 4536W        W76961  29.973   8.877  10.621
 4537W        W76962  26.502  37.011   2.382
 4538W        W76963  44.916   6.969  14.961
 4539W        W76964   2.204  38.001  11.097
 4540W        W76965  38.871  20.161   1.866
 4541W        W76966  22.588  43.734   2.220
 4542W        W76967  15.237  15.224  10.760
 4543W        W76968  21.175  28.129   2.551
 4544W        W76969   6.894  44.442  11.058
 4545W        W76970   8.751  24.403  13.450
 4546W        W76971   1.530  26.993   0.425
 4547W        W76972  33.050  25.710  12.308
 4548W        W76973  23.851  30.599   9.735
 4549W        W76974  14.549   6.650  12.947
 4550W        W76975  33.734  34.576   3.707
 4551W        W76976  19.073  26.317   4.310
 4552W        W76977  13.262   6.939   2.145
 4553W        W76978   7.320  22.654   0.386
 4554W        W76979  32.584  13.601   4.254
 4555W        W76980  13.392  34.242  12.388
 4556W        W76981  27.147  28.033   1.557
 4557W        W76982  12.245  20.236  12.507
 4558W        W76983   2.794  37.079   2.386
 4559W        W76984  28.452  26.576   4.908
 4560W        W76985   5.409  10.664   3.127
 4561W        W76986  23.156  37.593   1.819
 4562W        W76987  20.115  20.767  11.621
 4563W        W76988  24.005   7.972  13.484
 4564W        W76989  11.799  39.429  13.112
 4565W        W76990  39.020  13.235  14.745
 4566W        W76991   9.148  29.532   2.612
 4567W        W76992  38.012  24.153   0.027
 4568W        W76993  14.298   4.143  14.259
 4569W        W76994  35.797  40.390   3.625
 4570W        W76995  23.334   6.691   3.255
 4571W        W76996   5.352  37.526  14.624
 4572W        W76997  16.842   2.481   0.362
 4573W        W76998  13.765  12.088  14.806
 4574W        W76999  22.433  17.741   3.801
 4575W        W77000   1.881  11.633   0.864
 4576W        W77001  13.783  10.191  13.559
 4577W        W77002  32.842   3.943  14.380
 4578W        W77003   9.906  10.771   2.851
 4579W        W77004  43.589   1.873  12.478
 4580W        W77005  34.178  32.006  14.029
 4581W        W77006  18.223  22.841  13.867
 4582W        W77007  43.726  38.443   1.158
 4583W        W77008  19.139  10.702  13.817
 4584W        W77009  44.787  18.732   4.492
 4585W        W77010   2.134   7.452  11.102
 4586W        W77011  36.073   2.236  14.850
 4587W        W77012  34.862  31.901  12.415
 4588W        W77013  25.159   2.000   1.808
 4589W        W77014  16.741  38.264   2.277
 4590W        W77015   0.198   1.253  14.435
 4591W        W77016   9.886   6.236   0.903
 4592W        W77017  25.482  13.286  13.610
 4593W        W77018  32.441  27.021   0.904
 4594W        W77019  28.852   0.963  11.850
 4595W        W77020  29.980  34.161  14.302
 4596W        W77021  15.102   7.941   1.834
 4597W        W77022   0.919  32.373  11.476
 4598W        W77023  38.592  33.966  14.096
 4599W        W77024  27.451  24.102   3.654
 4600W        W77025  44.485   3.256   2.719
 4601W        W77026  11.936  28.162   4.934
 4602W        W77027  17.222  36.568   4.044
 4603W        W77028   4.149  41.207   2.709
 4604W        W77029  42.609   4.135  11.226
 4605W        W77030  16.580  42.778   0.867
 4606W        W77031  10.613  30.015  14.779
 4607W        W77032  33.034  42.494   1.245
 4608W        W77033   0.956  43.225  13.246
 4609W        W77034  18.588  34.483  10.868
 4610W        W77035  23.076  28.386   3.344
 4611W        W77036  39.059  30.554  14.811
 4612W        W77037  18.572  11.777   1.256
 4613W        W77038   8.564   3.286  14.221
 4614W        W77039   7.584   7.173  11.144
 4615W        W77040   3.890   5.247  14.027
 4616W        W77041  19.051  13.592   2.093
 4617W        W77042  36.427  30.385  11.579
 4618W        W77043  34.100  34.950  13.514
 4619W        W77044   3.765  20.705   2.443
 4620W        W77045  28.734  16.923   2.778
 4621W        W77046   6.413  30.234   2.165
 4622W        W77047  35.209  41.108   0.726
 4623W        W77048  24.904  14.136  12.965
 4624W        W77049  44.819  14.678  13.111
 4625W        W77050  37.920  27.608  13.386
 4626W        W77051   2.451  11.670  14.696
 4627W        W77052  27.875  39.852   1.191
 4628W        W77053  17.871  27.888  14.399
 4629W        W77054  19.125   6.758   1.166
 4630W        W77055  12.891  25.994   1.277
 4631W        W77056  26.420  34.086  12.062
 4632W        W77057  16.740  34.915  10.868
 4633W        W77058  21.449   2.817  14.532
 4634W        W77059  30.111  28.531   4.680
 4635W        W77060   8.849  19.330   2.378
 4636W        W77061   4.753  40.554   4.745
 4637W        W77062  23.940   8.268   4.685
 4638W        W77063  30.016  13.775   3.273
 4639W        W77064  21.959  11.149   4.989
 4640W        W77065  13.894   1.569  11.537
 4641W        W77066  44.832  28.121   0.459
 4642W        W77067   0.796  12.678   2.660
 4643W        W77068  21.284  19.998   5.128
 4644W        W77069  40.309   3.211  13.874
 4645W        W77070  26.494  17.103   3.366
 4646W        W77071  40.884   2.818  13.284
 4647W        W77072  30.632  21.612   4.152
 4648W        W77073  26.640  40.609  11.550
 4649W        W77074   0.879  13.026   4.545
 4650W        W77075  24.464  39.553   0.925
 4651W        W77076  15.837  34.476   2.568
 4652W        W77077  21.534  16.718   3.310
 4653W        W77078   2.481  42.857   0.453
 4654W        W77079  39.990  18.684  12.649
 4655W        W77080  12.766   5.162  10.467
 4656W        W77081  40.477   4.982   4.686
 4657W        W77082  38.527  31.949   2.905
 4658W        W77083  34.972  39.178  13.461
 4659W        W77084  35.182   2.825   4.587
 4660W        W77085  31.625  29.271   1.325
 4661W        W77086   3.934  33.741  10.618
 4662W        W77087  37.388   6.635   1.983
 4663W        W77088  39.526  33.068   2.488
 4664W        W77089  17.282   5.899   3.235
 4665W        W77090  23.035   6.130   1.264
 4666W        W77091  17.106  26.690   3.769
 4667W        W77092  31.645  12.901   0.454
 4668W        W77093  42.021  42.960   2.226
 4669W        W77094   1.209   7.863  11.532
 4670W        W77095  35.258  43.443   0.231
 4671W        W77096  29.959  38.629   3.224
 4672W        W77097   4.981  31.302  12.748
 4673W        W77098  35.911   7.168  13.976
 4674W        W77099   1.650  37.571   1.218
 4675W        W77100   7.198  12.246   3.168
 4676W        W77101  13.500  24.702   4.657
 4677W        W77102  10.282  31.105  13.973
 4678W        W77103  16.809  39.748   4.632
 4679W        W77104   8.226  19.756  12.070
 4680W        W77105  34.592  16.582  11.571
 4681W        W77106  14.368   7.644   0.177
 4682W        W77107  10.757  12.248   3.799
 4683W        W77108  17.806  11.196   3.632
 4684W        W77109  20.300  32.479   1.907
 4685W        W77110  13.385  10.928   3.570
 4686W        W77111   9.906   3.163  13.907
 4687W        W77112  39.123  39.831   3.193
 4688W        W77113  12.911  25.869  11.717
 4689W        W77114  14.307  19.805   2.746
 4690W        W77115   3.206  15.285   0.960
 4691W        W77116   6.214  33.747  10.604
 4692W        W77117   2.673  12.305  10.668
 4693W        W77118   1.778  39.828  14.365
 4694W        W77119  18.623  40.049   2.570
 4695W        W77120  25.694  43.580  11.559
 4696W        W77121  24.903  32.392   2.161
 4697W        W77122  37.228   3.821   3.364
 4698W        W77123  11.517  43.475  13.973
 4699W        W77124  35.483  21.331  14.510
 4700W        W77125  26.262  40.808  13.404
 4701W        W77126  15.975  34.460  13.439
 4702W        W77127   5.419  18.643   0.422
 4703W        W77128  31.281  27.820   1.325
 4704W        W77129  18.300  17.233  11.864
 4705W        W77130  21.135  11.692   4.179
 4706W        W77131  40.852  44.745   4.244
 4707W        W77132  40.336   1.795   1.743
 4708W        W77133  43.319   2.436  13.591
 4709W        W77134  14.784  17.807   3.752
 4710W        W77135  40.581  39.758  11.400
 4711W        W77136  17.502  43.268  14.401
 4712W        W77137  28.349  12.020   0.561
 4713W        W77138  19.642  15.750  12.215
 4714W        W77139  19.677  17.118  14.534
 4715W        W77140  44.479  22.221   0.711
 4716W        W77141  29.419  14.728   3.268
 4717W        W77142  39.288  38.868  11.050
 4718W        W77143  43.040  35.919  11.582
 4719W        W77144  28.370   0.894  12.673
 4720W        W77145  25.681  39.242   1.637
 4721W        W77146   5.242  17.980   3.985
 4722W        W77147  41.256  42.549   4.524
 4723W        W77148  15.178  37.896   0.989
 4724W        W77149  40.308   4.398  12.180
 4725W        W77150  10.906  39.338  14.868
 4726W        W77151  39.927  35.961  14.025
 4727W        W77152  34.945  29.169  11.258
 4728W        W77153  22.302  18.096   5.081
 4729W        W77154  12.088  36.526   3.105
 4730W        W77155  39.515  35.569   1.737
 4731W        W77156   2.786  17.105   3.626
 4732W        W77157  35.892   0.730  14.995
 4733W        W77158   4.939   5.988  12.957
 4734W        W77159  41.796  21.988   3.039
 4735W        W77160  28.491  30.442   0.417
 4736W        W77161   9.257  30.092  12.952
 4737W        W77162  21.272  25.447  11.697
 4738W        W77163  37.136   9.106   4.153
 4739W        W77164   6.815  25.258   0.444
 4740W        W77165  25.008  20.986  13.974
 4741W        W77166  38.724  38.486  10.681
 4742W        W77167  34.999  28.767  10.296
 4743W        W77168   6.464   1.213  13.926
 4744W        W77169  32.857  20.974  13.929
 4745W        W77170  30.904   7.583  14.908
 4746W        W77171  13.118  13.290   1.814
 4747W        W77172  44.427  25.629  12.206
 4748W        W77173   6.252  22.512   4.880
 4749W        W77174  24.610   6.683  13.885
 4750W        W77175  39.286  19.782  13.375
 4751W        W77176  33.691  17.734   2.332
 4752W        W77177  22.536  41.560  13.624
 4753W        W77178  41.539  26.168   3.301
 4754W        W77179  14.055  33.071  12.041
 4755W        W77180   8.739   0.095   4.131
 4756W        W77181  26.715  19.667   1.013
 4757W        W77182  37.979   2.832   0.983
 4758W        W77183  33.091  23.167   4.953
 4759W        W77184  17.869  35.404  13.442
 4760W        W77185   8.403  24.032   0.299
 4761W        W77186  38.754   4.232   2.781
 4762W        W77187  40.023   9.618   2.291
 4763W        W77188  13.659  17.715   2.678
 4764W        W77189  20.922  20.588  14.713
 4765W        W77190  31.802  28.964   0.746
 4766W        W77191   0.735  33.723   1.225
 4767W        W77192  33.450  35.165  10.144
 4768W        W77193  25.553   6.742   4.627
 4769W        W77194  36.125  42.981  12.879
 4770W        W77195  35.573  38.461   3.205
 4771W        W77196  31.812  40.501  10.861
 4772W        W77197   7.190  41.408   1.222
 4773W        W77198   9.113  40.853   3.215
 4774W        W77199  13.259  14.828  12.962
 4775W        W77200  23.012  21.185   1.313
 4776W        W77201  14.939  34.442   5.033
 4777W        W77202   8.759  16.594   4.895
 4778W        W77203  13.374  42.262  14.375
 4779W        W77204  36.265  27.376   4.191
 4780W        W77205   2.783  32.618  14.868
 4781W        W77206   4.891   9.454  14.285
 4782W        W77207  33.991  25.019  13.892
 4783W        W77208  41.336   3.931  11.581
 4784W        W77209  15.263  11.062  14.309
 4785W        W77210  36.633  36.447   4.654
 4786W        W77211  11.323   3.339   3.346
 4787W        W77212  41.890  24.085   2.761
 4788W        W77213  27.028  44.465  14.876
 4789W        W77214  20.976  11.108  13.891
 4790W        W77215  25.015  44.335  10.898
 4791W        W77216   9.536  40.569  10.606
 4792W        W77217  19.354  35.474   0.866
 4793W        W77218  36.335   9.677  14.934
 4794W        W77219  29.531  43.166   1.447
 4795W        W77220  33.633  11.855  12.771
 4796W        W77221   9.967   9.398  13.325
 4797W        W77222  35.893   0.413  14.059
 4798W        W77223  38.989  35.768  11.242
 4799W        W77224  33.007  11.848  10.459
 4800W        W77225  36.005  44.310  14.506
 4801W        W77226  41.778   2.811  11.135
 4802W        W77227  24.017   9.621   1.381
 4803W        W77228  15.233  40.455   4.118
 4804W        W77229  19.698   6.708  12.583
 4805W        W77230   5.912  12.479  10.582
 4806W        W77231   4.221  25.844   3.328
 4807W        W77232  17.119  13.125   0.694
 4808W        W77233  14.729  19.185  12.439
 4809W        W77234  30.427  13.243   1.735
 4810W        W77235  23.031  36.577   0.642
 4811W        W77236  23.380  15.053  13.036
 4812W        W77237  42.266  34.555  13.981
 4813W        W77238  33.549  32.617   4.545
 4814W        W77239  31.022  37.625  10.316
 4815W        W77240   6.441   7.916   1.175
 4816W        W77241  37.438  33.133   2.606
 4817W        W77242  29.890  29.113   1.080
 4818W        W77243  19.333   4.731  14.420
 4819W        W77244  12.666  21.004   2.637
 4820W        W77245  28.035   3.257   0.837
 4821W        W77246  18.449  29.033   2.721
 4822W        W77247  18.951  33.427   1.866
 4823W        W77248  14.639  35.370  14.571
 4824W        W77249  26.475   5.464   0.400
 4825W        W77250  17.751  42.753  11.231
 4826W        W77251  32.169  19.669  12.033
 4827W        W77252  14.211  22.073  12.612
 4828W        W77253   8.900   4.828   0.263
 4829W        W77254  42.092  19.653  13.961
 4830W        W77255  35.648  16.072   1.898
 4831W        W77256  23.789   6.655  11.566
 4832W        W77257  44.824  44.575  14.039
 4833W        W77258  11.599  25.153  11.519
 4834W        W77259  37.281  11.879   0.758
 4835W        W77260  11.398  13.271   4.170
 4836W        W77261  14.730  25.713   1.572
 4837W        W77262  19.667   9.697   3.246
 4838W        W77263  30.145  32.326   4.852
 4839W        W77264   2.771  22.058  13.334
 4840W        W77265  21.589  26.047  10.910
 4841W        W77266  23.492  21.111   1.537
 4842W        W77267   0.092  10.330   2.709
 4843W        W77268  18.391  13.220  13.234
 4844W        W77269  43.937  26.800   2.756
 4845W        W77270  22.118  19.803  14.433
 4846W        W77271  16.078  15.301  10.490
 4847W        W77272  42.496   6.522  12.673
 4848W        W77273  23.193  13.107  12.949
 4849W        W77274  20.750  33.523   4.096
 4850W        W77275   0.561  43.353  12.469
 4851W        W77276  39.089   9.230   4.518
 4852W        W77277  29.184  39.548  10.719
 4853W        W77278  35.596  33.674  11.155
 4854W        W77279  16.691  39.601   3.190
 4855W        W77280   5.367   0.449  14.178
 4856W        W77281  33.658   5.670  13.508
 4857W        W77282   3.655  28.137   0.444
 4858W        W77283  18.887  29.878  13.913
 4859W        W77284  20.792  15.358   1.682
 4860W        W77285  39.491  24.031   4.625
 4861W        W77286  42.903   5.284   2.651
 4862W        W77287  28.924  16.916   4.527
 4863W        W77288   6.741  15.643  14.881
 4864W        W77289  25.892  13.231   3.738
 4865W        W77290  14.630  40.313  13.132
 4866W        W77291  40.478   6.989  12.149
 4867W        W77292   1.803  44.987  12.576
 4868W        W77293  29.791  21.508  14.985
 4869W        W77294   5.177  38.457   0.985
 4870W        W77295  28.621  11.883   0.079
 4871W        W77296  17.480   3.005   2.644
 4872W        W77297   4.493  13.918   3.699
 4873W        W77298   6.830   8.626  11.641
 4874W        W77299  32.508  32.624  14.282
 4875W        W77300  44.374   9.022  11.643
 4876W        W77301  29.582  20.095   2.920
 4877W        W77302   8.671  39.836  11.376
 4878W        W77303  43.002  33.883   0.790
 4879W        W77304  26.462  15.500  11.511
 4880W        W77305   0.003  13.954  11.563
 4881W        W77306   0.068  43.333  13.504
 4882W        W77307   3.979  37.866   0.824
 4883W        W77308  42.665  13.179   5.024
 4884W        W77309  22.516  10.738  11.372
 4885W        W77310   0.877  13.608   2.857
 4886W        W77311   9.746  15.429  12.998
 4887W        W77312  30.192  38.529   4.131
 4888W        W77313  12.261  13.330   3.073
 4889W        W77314  23.614  12.339  13.555
 4890W        W77315  36.030  18.617   0.417
 4891W        W77316  25.532  30.886   1.795
 4892W        W77317  21.801  29.546   2.601
 4893W        W77318  37.405  33.571   1.806
 4894W        W77319   3.131  12.205  11.546
 4895W        W77320  39.029   6.390   1.970
 4896W        W77321  32.970  13.107  11.191
 4897W        W77322  10.641  21.014  10.282
 4898W        W77323   4.336  27.961  11.063
 4899W        W77324   2.306   7.393  12.537
 4900W        W77325  29.596  27.463   0.913
 4901W        W77326   9.668  43.829  13.785
 4902W        W77327  34.408   8.329   5.084
 4903W        W77328  44.408   3.934   2.240
 4904W        W77329  42.901  23.019  14.734
 4905W        W77330  41.379   2.871  11.575
 4906W        W77331   3.741  30.250  12.798
 4907W        W77332  42.337  10.806   0.499
 4908W        W77333  16.127  12.968  13.362
 4909W        W77334  24.421  21.617  13.123
 4910W        W77335  35.998  38.779  13.670
 4911W        W77336  16.900   0.828   3.212
 4912W        W77337  22.323  24.142  12.961
 4913W        W77338   6.276  35.888   1.272
 4914W        W77339  25.998  25.541  10.764
 4915W        W77340  16.207  37.959  11.986
 4916W        W77341  28.698   7.186  13.963
 4917W        W77342  42.067  33.061   1.153
 4918W        W77343   9.274   9.143   0.703
 4919W        W77344  24.737   2.260   0.894
 4920W        W77345  34.023   5.808  12.475
 4921W        W77346  19.132   3.739   2.252
 4922W        W77347  11.343  35.417   0.844
 4923W        W77348  38.534  39.993  11.444
 4924W        W77349  36.241  39.238   1.462
 4925W        W77350   2.559  42.133   4.156
 4926W        W77351  25.452   3.283  12.816
 4927W        W77352  41.901  27.471   2.429
 4928W        W77353   6.638  20.925  13.791
 4929W        W77354  26.653  29.145   1.322
 4930W        W77355   5.169  23.111   0.443
 4931W        W77356  42.018  31.012  10.668
 4932W        W77357  44.006  25.624   1.686
 4933W        W77358  31.301  27.470  11.876
 4934W        W77359   0.835  41.310   5.002
 4935W        W77360   5.536  20.921   0.359
 4936W        W77361  32.754   1.147  14.584
 4937W        W77362  21.130  40.544   3.453
 4938W        W77363  15.115  20.746  13.086
 4939W        W77364  32.410   6.333  13.385
 4940W        W77365  18.770  15.689  14.791
 4941W        W77366  37.363   1.885  14.574
 4942W        W77367  25.667   7.379  13.419
 4943W        W77368  13.266  12.233   0.754
 4944W        W77369   4.451   6.901  13.062
 4945W        W77370  16.727  14.690  10.368
 4946W        W77371   0.280  33.185   9.974
 4947W        W77372  18.844   7.327  12.184
 4948W        W77373  38.581   0.030   1.785
 4949W        W77374   7.391  27.074  13.276
 4950W        W77375  20.259  16.543   0.281
 4951W        W77376  11.340  36.594   4.599
 4952W        W77377  29.223  32.529  12.823
 4953W        W77378  14.610   6.867  14.811
 4954W        W77379  24.516  36.600  11.633
 4955W        W77380  16.631  27.055   4.486
 4956W        W77381  31.942  29.235  12.294
 4957W        W77382  41.072   5.428  10.483
 4958W        W77383  20.266  36.708  10.791
 4959W        W77384  40.673  29.659  12.410
 4960W        W77385  30.549  17.039   0.387
 4961W        W77386  42.989  31.805  12.918
 4962W        W77387  35.639   1.965  14.446
 4963W        W77388  26.408   3.848  12.083
 4964W        W77389  37.946  25.579  12.436
 4965W        W77390  28.768  35.590   4.220
 4966W        W77391  35.465  15.819  14.497
 4967W        W77392  11.774  34.994  12.377
 4968W        W77393  38.136  27.056  10.733
 4969W        W77394  11.127  36.430   0.954
 4970W        W77395  17.275  41.936   2.117
 4971W        W77396  39.908  30.666  11.208
 4972W        W77397   4.818  22.801  14.646
 4973W        W77398  11.920  14.161   4.122
 4974W        W77399  14.694  35.741  12.439
 4975W        W77400  13.834  19.246  13.266
 4976W        W77401  40.342  12.163  13.961
 4977W        W77402  18.986  31.486  14.489
 4978W        W77403  37.565  29.930  14.226
 4979W        W77404  16.134  16.664  14.001
 4980W        W77405  15.305   3.170   4.171
 4981W        W77406   1.384  14.435   0.978
 4982W        W77407   7.921  26.636   2.426
 4983W        W77408  24.951  33.035   1.818
 4984W        W77409  24.544  16.009   1.520
 4985W        W77410   4.235   4.846  14.893
 4986W        W77411  37.160  43.909  13.890
 4987W        W77412  44.142  27.020  11.737
 4988W        W77413  37.883  15.676   1.349
 4989W        W77414  29.910   6.363   0.491
 4990W        W77415  12.714  14.268   4.559
 4991W        W77416  18.023  13.529  10.793
 4992W        W77417  10.136   5.201   3.628
 4993W        W77418  19.056  42.375   0.493
 4994W        W77419  13.386  17.327   2.965
 4995W        W77420   1.113  33.872   0.886
 4996W        W77421  22.754  18.850  13.935
 4997W        W77422   6.435  35.921   2.389
 4998W        W77423   9.469   7.106   4.991
 4999W        W77424  32.446  30.983  14.489
 5000W        W77425  12.997  24.691   4.747
 5001W        W77426  11.124  37.825   4.133
 5002W        W77427  39.870  36.062  13.504
 5003W        W77428  35.351  20.736   1.316
 5004W        W77429  13.584   5.332  11.501
 5005W        W77430  15.373  40.339   1.802
 5006W        W77431  43.378   4.777   1.492
 5007W        W77432   2.468  18.708   3.024
 5008W        W77433  44.538  39.201   0.754
 5009W        W77434  30.384  15.670  14.493
 5010W        W77435  28.983  40.570   3.475
 5011W        W77436  33.945  34.588  14.929
 5012W        W77437  33.515  32.543   1.405
 5013W        W77438   1.727  34.635  10.564
 5014W        W77439   4.765  37.276  12.513
 5015W        W77440   6.992  15.409   4.198
 5016W        W77441  19.206  28.671  10.991
 5017W        W77442  29.935  35.870  14.233
 5018W        W77443  17.592  11.591   0.296
 5019W        W77444  26.813  15.936   0.305
 5020W        W77445  31.475  10.122  12.563
 5021W        W77446  17.283  35.974  14.014
 5022W        W77447  42.665   2.581   3.751
 5023W        W77448   0.298  10.563  13.398
 5024W        W77449  29.639  37.386   1.150
 5025W        W77450  36.358  31.597   2.419
 5026W        W77451   9.357   0.460   4.773
 5027W        W77452   4.784  17.694   0.866
 5028W        W77453  35.164  40.328  12.871
 5029W        W77454  43.309  30.430  12.022
 5030W        W77455  42.774   3.217   2.057
 5031W        W77456   7.790  32.542  13.012
 5032W        W77457  13.392   5.059   2.390
 5033W        W77458  34.417  32.166   0.290
 5034W        W77459  24.377  41.003  11.648
 5035W        W77460  20.535  40.930  12.995
 5036W        W77461  44.022  12.122   1.741
 5037W        W77462   8.133   9.701  13.441
 5038W        W77463  17.983  44.337   3.230
 5039W        W77464  27.202  32.396  13.920
 5040W        W77465  18.882   3.849  13.344
 5041W        W77466  10.923  33.486  12.911
 5042W        W77467   8.595  43.236   4.247
 5043W        W77468  36.378  15.588   2.784
 5044W        W77469  44.827   7.341   1.287
 5045W        W77470  16.812  35.092   4.996
 5046W        W77471  26.552   7.313  12.945
 5047W        W77472  17.300  43.411  12.600
 5048W        W77473  24.796  36.880   1.712
 5049W        W77474  17.979  17.074  12.671
 5050W        W77475  34.020  24.004   3.306
 5051W        W77476  41.056  35.340   3.233
 5052W        W77477  41.347   3.312   1.916
 5053W        W77478  14.400  10.315   3.255
 5054W        W77479  17.532   1.125  14.703
 5055W        W77480  22.294  22.821   1.447
 5056W        W77481  29.515  37.366  13.020
 5057W        W77482  33.167  28.582  13.984
 5058W        W77483  41.930  26.867   3.780
 5059W        W77484   7.831  35.773  12.839
 5060W        W77485  17.540  21.779   1.460
 5061W        W77486  22.734   3.988   0.396
 5062W        W77487  33.094  25.520  12.785
 5063W        W77488   8.007  25.492   2.876
 5064W        W77489  11.562  22.926   4.715
 5065W        W77490  17.849   3.496  10.738
 5066W        W77491  40.971  15.332   0.289
 5067W        W77492   8.935  13.338   4.100
 5068W        W77493  35.058  41.929  14.628
 5069W        W77494  26.007  36.371   3.688
 5070W        W77495  16.325  16.234   4.210
 5071W        W77496  41.508  28.988  13.285
 5072W        W77497  29.017  36.782   3.295
 5073W        W77498  10.333  10.168   3.543
 5074W        W77499  38.325  29.483   4.181
 5075W        W77500  35.318  21.720  13.625
 5076W        W77501  37.463   3.869  14.013
 5077W        W77502   1.198   0.785   1.356
 5078W        W77503  11.924   1.551   2.921
 5079W        W77504  19.504  20.808   2.712
 5080W        W77505   5.200  14.808  12.389
 5081W        W77506  15.516  21.003  13.467
 5082W        W77507  31.978   1.866  11.223
 5083W        W77508  15.793  36.988   0.736
 5084W        W77509  38.530  37.741  11.049
 5085W        W77510  43.233  11.045  14.193
 5086W        W77511   8.585  39.680  13.102
 5087W        W77512  15.888   8.196   4.633
 5088W        W77513  36.088  19.523  12.452
 5089W        W77514  36.840  29.926  12.402
 5090W        W77515  30.927   6.217   4.000
 5091W        W77516  29.078  28.004   0.876
 5092W        W77517  14.570  26.115   0.281
 5093W        W77518  38.817  33.434  11.160
 5094W        W77519   1.940  22.383  14.725
 5095W        W77520  27.253  21.089  13.523
 5096W        W77521  17.437  22.100  10.249
 5097W        W77522  10.297  33.528   5.042
 5098W        W77523  10.237   8.173   4.688
 5099W        W77524  31.183  16.246   2.738
 5100W        W77525  21.169  16.745   3.661
 5101W        W77526  31.203   7.175  10.765
 5102W        W77527   6.160   6.895   1.366
 5103W        W77528  37.406   8.243   0.926
 5104W        W77529  21.694  26.483   0.738
 5105W        W77530  17.884   0.369   0.363
 5106W        W77531   1.323  25.213   2.912
 5107W        W77532  25.566  14.745   4.534
 5108W        W77533  20.126  28.502   0.508
 5109W        W77534  43.594   6.560   2.802
 5110W        W77535  44.392   5.656  12.122
 5111W        W77536   8.227  30.700  12.123
 5112W        W77537  15.306  17.104   1.696
 5113W        W77538  34.892   1.573  11.640
 5114W        W77539  42.304  24.776  11.036
 5115W        W77540  32.589  11.768  13.265
 5116W        W77541   7.323  30.070   2.697
 5117W        W77542  21.974  15.851  12.543
 5118W        W77543  37.966  13.606  12.516
 5119W        W77544  19.178   4.285   4.648
 5120W        W77545  30.462  23.964   3.171
 5121W        W77546  44.899   5.955   0.043
 5122W        W77547  38.646  23.461   0.920
 5123W        W77548  43.882  22.939   4.564
 5124W        W77549  30.047  36.446  12.419
 5125W        W77550  11.371   9.712   1.430
 5126W        W77551  15.549   9.745   0.800
 5127W        W77552  18.131  22.129   1.667
 5128W        W77553  36.018   1.920   4.242
 5129W        W77554  26.888  41.590  12.542
 5130W        W77555  35.009  37.571  14.296
 5131W        W77556   4.087  30.547   1.057
 5132W        W77557  40.035  35.552  12.881
 5133W        W77558  22.655  22.582   4.966
 5134W        W77559   5.869  32.664  11.118
 5135W        W77560  20.275  41.419  13.659
 5136W        W77561   0.526  11.304   2.861
 5137W        W77562  21.587  23.928   1.663
 5138W        W77563  28.521  18.915  11.582
 5139W        W77564  21.102  43.343   4.939
 5140W        W77565  17.156  35.102  10.091
 5141W        W77566  38.609  25.024  14.796
 5142W        W77567  31.216   5.600   1.833
 5143W        W77568   6.924   5.572   1.427
 5144W        W77569  30.030   3.506   4.238
 5145W        W77570   6.319  33.284  10.423
 5146W        W77571   5.545  43.832  10.998
 5147W        W77572  43.853  44.110   0.449
 5148W        W77573  34.464  15.744   2.734
 5149W        W77574  31.070   4.075  12.881
 5150W        W77575  26.749   5.209   3.892
 5151W        W77576  17.815  14.785   4.347
 5152W        W77577   6.299  40.186   2.259
 5153W        W77578  22.783  13.699  14.358
 5154W        W77579  35.720  13.413  13.371
 5155W        W77580  27.985   7.323   0.319
 5156W        W77581  35.368  17.124   1.976
 5157W        W77582  39.335   0.981   1.232
 5158W        W77583  11.594  22.684  13.944
 5159W        W77584   4.029   3.973   3.794
 5160W        W77585  12.973  27.501   2.105
 5161W        W77586  16.763  36.878  11.616
 5162W        W77587  18.305  22.746   2.283
 5163W        W77588  25.005  11.330  11.575
 5164W        W77589  30.642  22.631  12.046
 5165W        W77590  11.410  19.738   3.163
 5166W        W77591  20.580  17.575  14.210
 5167W        W77592  30.633   7.786   4.120
 5168W        W77593  15.242   6.975  14.927
 5169W        W77594   7.197  18.260  14.343
 5170W        W77595   3.811  10.957  14.588
 5171W        W77596  28.014  42.389  14.594
 5172W        W77597  37.474  35.184   2.711
 5173W        W77598  43.241  17.218  13.470
 5174W        W77599   4.798   3.408   1.533
 5175W        W77600  17.162  43.515   4.932
 5176W        W77601  34.806   9.766   2.363
 5177W        W77602  10.795  11.624  13.519
 5178W        W77603  39.005  34.392   0.785
 5179W        W77604  17.065  43.437   2.152
 5180W        W77605  24.558  16.095   0.578
 5181W        W77606   9.057  19.279  14.298
 5182W        W77607  12.840   8.995  14.306
 5183W        W77608  24.784   2.360   1.807
 5184W        W77609   0.957  10.705  11.606
 5185W        W77610  27.945  29.970   4.371
 5186W        W77611  26.038   2.531  12.990
 5187W        W77612  17.272  36.199   4.386
 5188W        W77613   9.052  17.711  13.034
 5189W        W77614  24.995  19.305   3.776
 5190W        W77615  33.409  29.367   1.452
 5191W        W77616  11.200  43.701  12.503
 5192W        W77617  14.501  15.186   3.345
 5193W        W77618  36.364  12.618   3.259
 5194W        W77619  40.859   5.125  12.935
 5195W        W77620   6.320  19.680   1.267
 5196W        W77621   4.373  19.512  10.685
 5197W        W77622  20.320   8.338   4.553
 5198W        W77623  19.238  42.790   2.755
 5199W        W77624  22.508   4.263   4.520
 5200W        W77625  35.358   0.729   0.848
 5201W        W77626   9.186  29.620   1.721
 5202W        W77627   6.921  36.881  12.610
 5203W        W77628   0.189  40.793   1.470
 5204W        W77629  25.753  37.800  11.145
 5205W        W77630   1.459  32.841  12.036
 5206W        W77631  27.595  29.988  13.559
 5207W        W77632  24.465   9.350   1.332
 5208W        W77633  39.283   0.042   3.198
 5209W        W77634  20.514  38.381  14.829
 5210W        W77635  25.587  36.673   3.667
 5211W        W77636  12.245  16.815   2.324
 5212W        W77637  39.468  44.761  13.064
 5213W        W77638   3.949   8.655   2.846
 5214W        W77639  28.734  31.437  14.020
 5215W        W77640   8.437  34.213  13.843
 5216W        W77641  30.125   5.611   2.680
 5217W        W77642   1.408  18.345  13.027
 5218W        W77643  14.814  36.105   4.101
 5219W        W77644  27.174  34.275  12.380
 5220W        W77645  34.325  37.525  10.563
 5221W        W77646  36.843  18.631   0.014
 5222W        W77647   0.022  39.360  12.067
 5223W        W77648  28.674   6.828  11.004
 5224W        W77649  25.419  43.045   2.981
 5225W        W77650  31.461  17.332   0.249
 5226W        W77651  35.163  36.983  11.288
 5227W        W77652  15.895  29.421  12.427
 5228W        W77653  25.878   5.815   4.025
 5229W        W77654  40.383  30.968   4.142
 5230W        W77655  24.761   5.717  11.491
 5231W        W77656   0.641  32.419   9.724
 5232W        W77657  23.566  22.970   4.426
 5233W        W77658   4.002  37.784  12.468
 5234W        W77659  26.991  25.035  14.312
 5235W        W77660   8.322  16.492  14.430
 5236W        W77661  27.539  29.797   2.235
 5237W        W77662   9.178  26.193   4.093
 5238W        W77663  24.965  30.450   2.743
 5239W        W77664   3.522   6.249  12.449
 5240W        W77665  25.925  24.258  11.089
 5241W        W77666  41.758   3.149   4.958
 5242W        W77667  29.424   6.507   1.196
 5243W        W77668  22.609   1.285  10.555
 5244W        W77669  35.362  41.139   2.908
 5245W        W77670  20.485  15.288   1.264
 5246W        W77671  22.133  24.640   0.250
 5247W        W77672   9.897  12.676   1.819
 5248W        W77673  12.867   7.597  13.918
 5249W        W77674  38.774  19.254   2.783
 5250W        W77675  26.739  24.537  11.705
 5251W        W77676  25.356  19.650  11.604
 5252W        W77677  27.947  24.116   3.746
 5253W        W77678  33.477  22.414  12.498
 5254W        W77679  38.360  12.142   4.634
 5255W        W77680  16.370  25.461   1.244
 5256W        W77681  38.483  12.664   4.018
 5257W        W77682  15.848   6.290  13.439
 5258W        W77683  35.167   2.771   3.573
 5259W        W77684  33.050  44.251  11.108
 5260W        W77685  11.182  14.059  13.371
 5261W        W77686  38.084  10.928  13.385
 5262W        W77687  39.173  39.030  10.050
 5263W        W77688  40.781  31.542   0.798
 5264W        W77689  25.521  33.358   4.552
 5265W        W77690  19.650  20.270   4.501
 5266W        W77691  26.057  16.542   0.396
 5267W        W77692   8.940  42.965  14.460
 5268W        W77693  20.304   6.674   0.349
 5269W        W77694  31.219  35.389   1.280
 5270W        W77695   8.865  18.177   1.825
 5271W        W77696  44.887  19.154  10.481
 5272W        W77697   5.797  39.916  10.799
 5273W        W77698  39.156  42.451   0.913
 5274W        W77699  28.567  21.511   2.283
 5275W        W77700   4.851  18.506   3.186
 5276W        W77701  29.648  34.678  13.541
 5277W        W77702   8.403  25.895  12.106
 5278W        W77703  18.586  23.751   2.165
 5279W        W77704  12.210  32.154   1.648
 5280W        W77705  14.599  35.844   0.339
 5281W        W77706  10.421  24.900   0.791
 5282W        W77707  17.918  43.047  13.712
 5283W        W77708  29.690  28.241   0.465
 5284W        W77709  28.829   6.215  13.263
 5285W        W77710  15.738  39.903   3.418
 5286W        W77711  44.064  38.413  12.644
 5287W        W77712   6.878   0.034   0.892
 5288W        W77713  36.840  10.372   0.656
 5289W        W77714  31.085  42.911   3.274
 5290W        W77715   5.985  33.384   3.090
 5291W        W77716  40.853  25.985  13.551
 5292W        W77717  29.771  33.509   4.039
 5293W        W77718  33.540  42.221   3.396
 5294W        W77719  12.303   1.849  14.475
 5295W        W77720   1.676  32.594   4.061
 5296W        W77721   4.941  36.063   3.304
 5297W        W77722  21.397  13.852  12.141
 5298W        W77723  35.586   3.367   1.630
 5299W        W77724   5.367  39.963   1.858
 5300W        W77725   0.070   7.320  14.586
 5301W        W77726  31.015   2.915   3.348
 5302W        W77727  28.591   5.954  14.482
 5303W        W77728  39.371  39.790  14.563
 5304W        W77729  19.632   4.912  13.124
 5305W        W77730   4.324  10.432  13.825
 5306W        W77731  24.546  10.980  11.584
 5307W        W77732  37.116   4.713   3.457
 5308W        W77733  36.601  33.384  12.615
 5309W        W77734   3.870   0.976   2.823
 5310W        W77735  19.514  32.088   0.900
 5311W        W77736  40.915  24.378   3.719
 5312W        W77737  22.185  26.992  10.828
 5313W        W77738   1.957  44.556   0.809
 5314W        W77739  26.151  10.105   4.687
 5315W        W77740  12.613  24.513  14.063
 5316W        W77741  12.046  39.450   3.090
 5317W        W77742  40.793  16.711  14.157
 5318W        W77743  33.564   3.531  11.884
 5319W        W77744  36.831  11.199  14.077
 5320W        W77745  27.750  18.482  12.552
 5321W        W77746  34.575  38.617  13.079
 5322W        W77747  41.065  40.801  14.512
 5323W        W77748  29.600  26.882   4.119
 5324W        W77749  13.758  10.785   4.802
 5325W        W77750  28.140  13.480   3.661
 5326W        W77751  33.124  31.297  12.408
 5327W        W77752  40.454  29.162   0.669
 5328W        W77753  19.025  20.304   1.304
 5329W        W77754  24.491   2.312  14.436
 5330W        W77755  28.530  20.164   3.520
 5331W        W77756  23.202  16.062   3.940
 5332W        W77757  31.442  37.336  11.976
 5333W        W77758  38.082  42.379  14.392
 5334W        W77759  22.714  33.845   1.478
 5335W        W77760   5.769  11.401  14.205
 5336W        W77761  29.685   9.648  11.196
 5337W        W77762  41.645  39.375  14.396
 5338W        W77763   2.386   8.606  14.378
 5339W        W77764  19.062  21.334  13.929
 5340W        W77765  42.481  18.859  13.747
 5341W        W77766  34.566  13.153   2.225
 5342W        W77767   7.343  18.767  14.281
 5343W        W77768  16.190  21.550   2.667
 5344W        W77769   1.177  14.154   3.358
 5345W        W77770  26.464   0.760   5.103
 5346W        W77771  38.944  42.053   1.183
 5347W        W77772  25.577  26.738  10.597
 5348W        W77773  41.955  22.415   3.297
 5349W        W77774  28.241  40.594   4.232
 5350W        W77775  31.012  20.169   4.692
 5351W        W77776   8.735   3.949   4.114
 5352W        W77777   2.129  13.389   1.482
 5353W        W77778   2.205  44.426  11.021
 5354W        W77779   2.405  41.285  12.067
 5355W        W77780  15.212  20.524   3.862
 5356W        W77781  19.733  44.505  11.929
 5357W        W77782   1.212  37.968   4.814
 5358W        W77783  41.262  22.565   9.830
 5359W        W77784  29.101   9.215  11.926
 5360W        W77785  38.653  20.181   0.250
 5361W        W77786  28.476   5.942   2.432
 5362W        W77787  44.493   9.206  10.283
 5363W        W77788  38.412  43.542  13.519
 5364W        W77789  17.052  24.309  10.422
 5365W        W77790   7.142  29.976  10.690
 5366W        W77791  42.262   8.345  13.947
 5367W        W77792   4.431  37.919   3.021
 5368W        W77793  33.375  33.598   5.230
 5369W        W77794  31.021  26.407  11.787
 5370W        W77795  16.917  30.674  12.486
 5371W        W77796   0.766  13.993  12.031
 5372W        W77797  22.704  18.574  10.658
 5373W        W77798  30.014  18.545  12.864
 5374W        W77799  30.379   0.426  14.780
 5375W        W77800  40.992   1.900   3.892
 5376W        W77801  43.846  34.013   3.107
 5377W        W77802  10.252   4.879  12.041
 5378W        W77803  10.351  42.747   2.753
 5379W        W77804  37.432   5.662   0.776
 5380W        W77805  20.972  12.736   1.138
 5381W        W77806  38.930  33.443  14.515
 5382W        W77807  21.587   9.434   4.636
 5383W        W77808  30.623   6.214  14.945
 5384W        W77809  25.060  16.118   0.375
 5385W        W77810  22.567  24.801   3.411
 5386W        W77811  30.003   8.654   0.967
 5387W        W77812   3.801   3.277   2.377
 5388W        W77813  33.366   8.225   2.249
 5389W        W77814  31.048  19.303   3.691
 5390W        W77815  22.493   2.973   1.208
 5391W        W77816  25.078  22.767  11.079
 5392W        W77817  18.735  28.118   1.791
 5393W        W77818  44.004  21.186   4.088
 5394W        W77819  35.227  39.033   2.306
 5395W        W77820  40.324  25.670   2.950
 5396W        W77821  36.947  30.487  11.541
 5397W        W77822  19.194  19.565  11.017
 5398W        W77823  25.928   7.207   0.344
 5399W        W77824  13.807  24.253  10.128
 5400W        W77825  24.418  38.194  10.727
 5401W        W77826   1.396  42.506   4.593
 5402W        W77827  36.606  31.600   3.751
 5403W        W77828  43.348  44.495  10.023
 5404W        W77829  32.239  39.512  12.429
 5405W        W77830  36.582  26.454   1.542
 5406W        W77831  29.828  37.458   2.303
 5407W        W77832   2.425   0.194  11.604
 5408W        W77833   8.069  39.331   4.837
 5409W        W77834  29.960  19.794   2.744
 5410W        W77835  22.169  37.893  12.529
 5411W        W77836  39.947  21.502  14.488
 5412W        W77837  41.998  13.047  13.427
 5413W        W77838  36.652  40.344   3.258
 5414W        W77839  20.432  40.101  11.670
 5415W        W77840  41.502  17.405   0.984
 5416W        W77841   6.804  11.901  11.970
 5417W        W77842  16.804  25.243  10.664
 5418W        W77843  38.448  39.107  14.987
 5419W        W77844   8.219  16.959  14.218
 5420W        W77845  14.111  21.023  10.130
 5421W        W77846   6.615  18.845  13.732
 5422W        W77847  35.639  23.184   1.758
 5423W        W77848  13.052  36.008   4.430
 5424W        W77849  15.743  12.225   4.393
 5425W        W77850  16.782  35.083  13.972
 5426W        W77851  15.276  16.235  11.911
 5427W        W77852   8.637  32.324   2.221
 5428W        W77853   5.741  21.263  12.567
 5429W        W77854  18.022   0.986  14.638
 5430W        W77855  26.535  11.766  12.416
 5431W        W77856  19.482  16.719  14.817
 5432W        W77857   4.162  41.410  13.411
 5433W        W77858  36.936  38.430  10.860
 5434W        W77859  21.716  31.719   3.718
 5435W        W77860  28.423  19.171   2.891
 5436W        W77861  19.720   5.287   3.192
 5437W        W77862   9.399  25.654   2.607
 5438W        W77863  44.072  18.660   0.691
 5439W        W77864   8.650  24.873  12.652
 5440W        W77865  27.400  16.628   3.576
 5441W        W77866  13.701  31.906  14.379
 5442W        W77867  34.386  24.495  12.423
 5443W        W77868   7.646  25.024   0.707
 5444W        W77869  26.616   6.423   2.845
 5445W        W77870  44.003   1.707  11.742
 5446W        W77871  12.082  14.308   1.988
 5447W        W77872  20.168   0.753   2.126
 5448W        W77873  27.554   6.672  12.300
 5449W        W77874  33.384  17.305   3.994
 5450W        W77875  42.857   3.275  11.661
 5451W        W77876   4.222  32.653   4.213
 5452W        W77877  10.763  31.022   2.695
 5453W        W77878  13.182  28.224  11.280
 5454W        W77879  41.312  41.344   0.391
 5455W        W77880  14.560  26.543   3.624
 5456W        W77881   9.349  37.587  14.920
 5457W        W77882  20.956  12.792  11.856
 5458W        W77883   0.415  29.197   2.284
 5459W        W77884  40.913  36.521  10.783
 5460W        W77885  44.529  16.843  10.180
 5461W        W77886  10.228  13.659  13.968
 5462W        W77887  15.584  40.533  10.805
 5463W        W77888   8.158  25.578   0.351
 5464W        W77889  39.705  41.345  10.754
 5465W        W77890  33.967  16.327   4.607
 5466W        W77891  10.709   4.411  13.848
 5467W        W77892   7.367   7.122   2.739
 5468W        W77893  34.671  40.549   2.330
 5469W        W77894   7.886  13.273   0.873
 5470W        W77895   0.851  12.119   4.897
 5471W        W77896  36.785  43.841  10.765
 5472W        W77897   1.116  23.607  12.352
 5473W        W77898  18.776  10.376  13.670
 5474W        W77899  17.142  13.355   2.802
 5475W        W77900  32.009  27.676   0.409
 5476W        W77901  33.481  12.832   4.090
 5477W        W77902  11.356  24.000   1.204
 5478W        W77903  27.526  42.780   0.592
 5479W        W77904  44.222  27.556  10.601
 5480W        W77905  18.080   9.330   0.743
 5481W        W77906  37.771  42.819   0.942
 5482W        W77907  36.561  21.101   1.326
 5483W        W77908  39.558  30.499  13.476
 5484W        W77909  13.546   1.940  10.858
 5485W        W77910   2.745   0.763  12.998
 5486W        W77911  25.545   6.462  12.126
 5487W        W77912  27.416  22.983  13.489
 5488W        W77913  26.728  35.954   4.502
 5489W        W77914  37.463  17.671  13.810
 5490W        W77915   7.924  44.996  13.990
 5491W        W77916  18.659  19.615   4.198
 5492W        W77917  12.657  40.453  12.240
 5493W        W77918  11.008  11.379   2.760
 5494W        W77919   1.706  33.141  10.627
 5495W        W77920  35.337   4.795   1.437
 5496W        W77921  40.113   1.988   0.334
 5497W        W77922  32.238   2.536   2.440
 5498W        W77923  22.599  41.968   3.230
 5499W        W77924  38.398  24.842  11.151
 5500W        W77925  42.306  42.800  13.106
 5501W        W77926  11.710  27.937   3.166
 5502W        W77927   3.480  31.978  14.748
 5503W        W77928  26.643  38.181   0.242
 5504W        W77929  35.834  21.246   3.128
 5505W        W77930  41.252   8.186  13.995
 5506W        W77931  17.630  30.036  11.426
 5507W        W77932  11.359  29.693   0.193
 5508W        W77933   3.040  26.319  13.454
 5509W        W77934  24.125  42.944   0.755
 5510W        W77935  31.540  23.252   1.765
 5511W        W77936  43.614  28.910   3.282
 5512W        W77937  32.113   9.852   2.180
 5513W        W77938  38.895  32.687  12.595
 5514W        W77939  39.807  13.700  10.664
 5515W        W77940   6.397  22.226  13.839
 5516W        W77941   3.196   4.376  13.352
 5517W        W77942  44.031  25.071   3.846
 5518W        W77943  14.192  29.938  14.458
 5519W        W77944   6.650  42.010   0.041
 5520W        W77945  38.719   8.286  12.846
 5521W        W77946  35.968  21.225   4.555
 5522W        W77947   9.191  38.087  10.781
 5523W        W77948  20.208   4.390  13.191
 5524W        W77949  40.199  24.639  12.969
 5525W        W77950  28.994   9.531   3.711
 5526W        W77951  21.257  34.170  13.417
 5527W        W77952   9.339  21.096   1.196
 5528W        W77953  42.762  14.044   4.223
 5529W        W77954  30.049  16.341  12.075
 5530W        W77955   2.962  29.655  13.132
 5531W        W77956   8.651  27.634  11.483
 5532W        W77957  34.562   7.253   2.160
 5533W        W77958  10.363  20.297  13.985
 5534W        W77959  44.722  14.034  10.678
 5535W        W77960   9.275  17.270  12.921
 5536W        W77961  15.249   8.851   0.759
 5537W        W77962   1.843  24.112  13.373
 5538W        W77963  15.146  27.424  14.326
 5539W        W77964  35.058   9.721  14.764
 5540W        W77965  42.764   0.983   0.206
 5541W        W77966  24.242  12.462   1.771
 5542W        W77967   5.569   6.216   3.053
 5543W        W77968   7.256  19.448   5.063
 5544W        W77969   2.795  20.902   2.741
 5545W        W77970   5.448  27.514  12.370
 5546W        W77971  20.247  18.906   1.953
 5547W        W77972  37.535  44.494  12.985
 5548W        W77973   2.032   7.741   2.138
 5549W        W77974  25.692  28.164  10.579
 5550W        W77975  16.411   9.452   0.245
 5551W        W77976  29.075  10.103  12.939
 5552W        W77977  38.806  13.531   2.982
 5553W        W77978  23.421  40.273   1.685
 5554W        W77979   0.503  20.679  14.928
 5555W        W77980  41.313   4.842  14.187
 5556W        W77981  39.634  24.202  13.903
 5557W        W77982  39.395  24.645  14.964
 5558W        W77983  43.773  42.775   1.024
 5559W        W77984  36.299  37.971   4.548
 5560W        W77985  17.498  13.107  11.509
 5561W        W77986  14.164   2.746  10.300
 5562W        W77987  11.093  33.121  11.585
 5563W        W77988   8.418  15.618   4.299
 5564W        W77989  18.223   2.881   4.641
 5565W        W77990  26.878  42.393  14.570
 5566W        W77991   0.018  44.914  10.796
 5567W        W77992   8.604  44.801   4.588
 5568W        W77993   8.701  32.639  10.810
 5569W        W77994   8.162  29.804  10.730
 5570W        W77995  32.877  21.141   1.919
 5571W        W77996  30.647   7.261   4.715
 5572W        W77997   3.983  13.226   2.894
 5573W        W77998  21.841   1.210  11.541
 5574W        W77999  18.531  21.649   3.626
 5575W        W78000   9.107  40.511   2.770
 5576W        W78001   1.937  15.652   3.260
 5577W        W78002  28.403   8.332   1.376
 5578W        W78003  10.491  18.809  12.897
 5579W        W78004  24.181  17.097  11.630
 5580W        W78005  14.730  21.472  10.731
 5581W        W78006  10.613  22.774  10.190
 5582W        W78007  20.603  37.339   1.841
 5583W        W78008  37.927  42.229  13.469
 5584W        W78009  42.482  17.076  13.085
 5585W        W78010  11.232  35.446   2.928
 5586W        W78011  18.811  21.696  11.384
 5587W        W78012   9.407  22.068  12.004
 5588W        W78013  19.421  35.837   3.762
 5589W        W78014   1.727  44.595  11.728
 5590W        W78015   3.896  17.095   0.852
 5591W        W78016  26.013  21.705  10.711
 5592W        W78017  36.480  35.126  13.434
 5593W        W78018  43.762  30.471  12.462
 5594W        W78019   5.262  12.816  12.191
 5595W        W78020  44.557  10.672   0.937
 5596W        W78021  33.843  18.254   2.335
 5597W        W78022  44.566  15.688  11.848
 5598W        W78023  42.834  27.528   2.311
 5599W        W78024   4.212  11.076   0.077
 5600W        W78025  16.838  25.528  13.942
 5601W        W78026  39.395   1.161  13.034
 5602W        W78027  30.289  44.897  13.400
 5603W        W78028  31.635  10.250   2.832
 5604W        W78029  25.133  26.460  14.801
 5605W        W78030  12.489  39.981  13.462
 5606W        W78031  27.689   5.859   3.180
 5607W        W78032  26.556   8.724  13.258
 5608W        W78033  29.038  25.656  10.718
 5609W        W78034   1.524  39.505  14.867
 5610W        W78035   8.143  32.542  13.427
 5611W        W78036  12.344  17.071   4.919
 5612W        W78037   1.412  36.015  10.427
 5613W        W78038  38.727  33.925  11.867
 5614W        W78039  14.895  32.577   2.347
 5615W        W78040  38.997   0.732   4.274
 5616W        W78041   9.912   2.678   2.817
 5617W        W78042  12.169   1.925  12.871
 5618W        W78043  34.411  29.977   3.675
 5619W        W78044  40.193  27.685  11.462
 5620W        W78045  29.147   8.305  11.671
 5621W        W78046  12.004  30.464   4.140
 5622W        W78047  29.397  29.083   1.350
 5623W        W78048  23.208  23.024  12.467
 5624W        W78049  32.950  30.997  11.488
 5625W        W78050   4.833  30.468  14.261
 5626W        W78051  20.931  21.063   4.478
 5627W        W78052  21.515  43.475  12.069
 5628W        W78053  29.640  27.443  14.770
 5629W        W78054  10.036   9.517  11.618
 5630W        W78055   2.385  24.948   1.751
 5631W        W78056  25.961   3.326   3.313
 5632W        W78057  28.188   4.243   2.865
 5633W        W78058  13.116  30.857   3.274
 5634W        W78059  36.354  20.802  11.596
 5635W        W78060  26.571  42.240  11.598
 5636W        W78061  10.304  12.555   2.637
 5637W        W78062  16.603  35.373   4.261
 5638W        W78063  11.256  31.050  12.243
 5639W        W78064  39.470  44.797   0.480
 5640W        W78065  25.611  18.658  11.172
 5641W        W78066  28.846  20.747  12.011
 5642W        W78067  44.991   7.227  11.498
 5643W        W78068  23.237  20.060   0.848
 5644W        W78069  34.293  42.799  11.469
 5645W        W78070  35.023  39.939  14.933
 5646W        W78071  24.794  43.594  14.449
 5647W        W78072  23.651   7.335  14.733
 5648W        W78073   7.377  14.178   2.385
 5649W        W78074   3.934  44.685   0.918
 5650W        W78075   1.750  26.605  10.633
 5651W        W78076  13.752  34.637   2.391
 5652W        W78077   6.265  36.884  10.669
 5653W        W78078  21.638  32.389   1.719
 5654W        W78079  22.669  39.140  10.913
 5655W        W78080  33.405  26.638   3.768
 5656W        W78081  29.980  12.168  10.790
 5657W        W78082  39.095  26.413  13.474
 5658W        W78083   3.210   1.822   3.781
 5659W        W78084  22.773  40.102   0.488
 5660W        W78085   2.398  16.776   3.431
 5661W        W78086   4.002  21.046  10.582
 5662W        W78087  24.619  13.719  12.976
 5663W        W78088  39.751   2.870  10.766
 5664W        W78089  32.949  36.081  14.303
 5665W        W78090   0.843   0.907   2.659
 5666W        W78091  22.764  31.907   0.368
 5667W        W78092  20.935  21.991   4.681
 5668W        W78093  10.950  34.829  14.267
 5669W        W78094   3.490   9.602   2.675
 5670W        W78095  38.435  40.371   2.310
 5671W        W78096  15.268  38.116  10.811
 5672W        W78097  29.347  32.646  11.153
 5673W        W78098  28.547  11.536   0.470
 5674W        W78099   7.589  42.320  13.894
 5675W        W78100  43.960   3.806  13.297
 5676W        W78101   6.997   8.707   3.282
 5677W        W78102   2.613  20.113   0.570
 5678W        W78103  22.227   5.875   2.712
 5679W        W78104   0.355   1.237  13.146
 5680W        W78105  25.732  19.066   2.469
 5681W        W78106  18.208   2.317  14.673
 5682W        W78107  28.761  42.077   2.762
 5683W        W78108  43.794  31.472  12.775
 5684W        W78109  40.169  29.593   2.785
 5685W        W78110  11.380  32.530   4.581
 5686W        W78111  23.924  34.647  12.917
 5687W        W78112  14.578  42.352  10.819
 5688W        W78113  35.207  12.823   3.699
 5689W        W78114  17.359  40.619  14.802
 5690W        W78115  24.090  42.787  12.510
 5691W        W78116  11.293   8.779   3.290
 5692W        W78117  22.269  18.095  10.977
 5693W        W78118  25.069  37.257   3.190
 5694W        W78119   4.198  23.730  12.975
 5695W        W78120  22.009  40.777  10.929
 5696W        W78121  30.574  26.127  10.988
 5697W        W78122  34.758  11.872  13.449
 5698W        W78123  19.630  28.955  12.614
 5699W        W78124  14.089   2.158   1.715
 5700W        W78125  15.287  17.579   2.707
 5701W        W78126  25.568   3.661   3.208
 5702W        W78127  23.908   6.262  12.165
 5703W        W78128   5.237  11.885  10.677
 5704W        W78129  44.750  34.405  14.044
 5705W        W78130  33.490  17.712  13.910
 5706W        W78131  10.611   5.378   3.725
 5707W        W78132  16.361  36.518  12.148
 5708W        W78133  42.392   3.555   3.182
 5709W        W78134  35.252  10.575   4.566
 5710W        W78135  13.380  44.578   3.512
 5711W        W78136  21.012   4.339   1.939
 5712W        W78137  14.943  32.802   9.977
 5713W        W78138   7.239  30.025  11.564
 5714W        W78139  30.921  30.868   3.022
 5715W        W78140  15.306  43.409   1.773
 5716W        W78141  44.226  23.291  12.754
 5717W        W78142  39.134  38.969   4.052
 5718W        W78143  21.395  12.123   4.389
 5719W        W78144   7.917   2.775  10.451
 5720W        W78145   8.981  16.089  13.420
 5721W        W78146  42.297  23.712  11.441
 5722W        W78147   6.763  34.381  11.578
 5723W        W78148  21.231  31.848   1.273
 5724W        W78149  19.383   3.789  13.223
 5725W        W78150  10.446  10.281   0.655
 5726W        W78151   3.580  33.383  12.432
 5727W        W78152  39.333  36.283   2.626
 5728W        W78153  15.566  35.853   3.728
 5729W        W78154  27.566  44.753   1.493
 5730W        W78155  10.336  27.465   0.866
 5731W        W78156  40.836  10.136   2.146
 5732W        W78157   8.143  44.033   3.164
 5733W        W78158  25.213  25.130   3.727
 5734W        W78159  19.315   7.547  13.849
 5735W        W78160  39.279  20.221   3.223
 5736W        W78161  44.271  40.495  14.475
 5737W        W78162   7.596  37.885  13.506
 5738W        W78163  20.178  40.550  13.751
 5739W        W78164  34.463   4.765  14.852
 5740W        W78165  41.804  27.030   0.774
 5741W        W78166  22.709   7.282   3.924
 5742W        W78167  34.499  29.978   2.182
 5743W        W78168   2.385  40.557   0.235
 5744W        W78169  37.246  43.050   5.254
 5745W        W78170  14.143  24.044  12.881
 5746W        W78171  28.678  40.348   2.048
 5747W        W78172  21.652  39.506  13.465
 5748W        W78173  15.761  32.275   2.384
 5749W        W78174  17.031  19.081  10.600
 5750W        W78175  25.735  22.013  12.095
 5751W        W78176   4.875  23.452  11.576
 5752W        W78177   4.212  42.434   0.883
 5753W        W78178   9.898  15.220  14.613
 5754W        W78179  43.437  37.100  12.502
 5755W        W78180  18.214  20.835  13.935
 5756W        W78181  21.829  17.839   1.783
 5757W        W78182  44.321  28.970   2.732
 5758W        W78183  22.221   9.809   0.858
 5759W        W78184  10.861  42.077   0.307
 5760W        W78185   8.851  23.878   0.045
 5761W        W78186  40.519  21.658   3.288
 5762W        W78187  23.452   7.687   0.041
 5763W        W78188   6.401  35.190   1.979
 5764W        W78189   9.805  26.396  12.484
 5765W        W78190  24.004   9.873  11.281
 5766W        W78191  40.070  38.560  11.465
 5767W        W78192  43.346  14.337   2.794
 5768W        W78193  20.498  19.312  10.536
 5769W        W78194  16.557  39.418   3.714
 5770W        W78195  16.212  11.477  12.438
 5771W        W78196  38.389  40.549  10.542
 5772W        W78197  20.104   6.789   3.198
 5773W        W78198  36.963  24.946  12.537
 5774W        W78199   1.416  10.783  14.901
 5775W        W78200  37.466  17.838   1.864
 5776W        W78201  22.765  29.996  11.034
 5777W        W78202  33.592  38.459  12.612
 5778W        W78203  16.797  34.254  12.957
 5779W        W78204   6.448  12.034   2.668
 5780W        W78205  43.331  19.271   0.958
 5781W        W78206  39.456  41.812  13.559
 5782W        W78207  34.062  24.676   3.415
 5783W        W78208   9.773  22.612  14.288
 5784W        W78209  40.945  26.110   0.389
 5785W        W78210  37.132   4.819  14.927
 5786W        W78211  12.370  40.623  14.663
 5787W        W78212  34.461  30.480   4.560
 5788W        W78213  35.846  31.953  10.222
 5789W        W78214  10.196  34.642  14.742
 5790W        W78215  14.388  34.139   2.617
 5791W        W78216  30.523  40.949  11.108
 5792W        W78217  34.208  25.973  13.387
 5793W        W78218  11.387  11.864   4.446
 5794W        W78219  42.797  18.563   1.343
 5795W        W78220   1.269  12.170  14.270
 5796W        W78221  29.239   8.738  11.103
 5797W        W78222  41.994  39.255   3.287
 5798W        W78223  20.194   7.732  14.712
 5799W        W78224  10.145   4.783   2.818
 5800W        W78225  19.951  43.069  10.933
 5801W        W78226  27.203  35.969  10.565
 5802W        W78227  23.557  19.987   0.431
 5803W        W78228  35.850   2.403   2.354
 5804W        W78229  44.509  25.769  13.367
 5805W        W78230  37.043  36.551  10.740
 5806W        W78231  44.906  33.631  13.468
 5807W        W78232   6.739   2.230  13.000
 5808W        W78233  42.787  18.199  12.836
 5809W        W78234  42.322  13.646   0.572
 5810W        W78235  39.831  15.655   2.112
 5811W        W78236  14.117  35.495  11.014
 5812W        W78237  17.238  40.315  14.402
 5813W        W78238  24.223   6.297  12.573
 5814W        W78239  39.307  26.681   4.564
 5815W        W78240  43.227   0.249  14.400
 5816W        W78241  37.934  42.838   1.474
 5817W        W78242   7.764  19.864   5.126
 5818W        W78243  13.825  42.859   5.140
 5819W        W78244   4.106  15.514   2.318
 5820W        W78245   0.907   9.133  13.600
 5821W        W78246   6.418  44.358   0.837
 5822W        W78247  25.164  28.026  12.592
 5823W        W78248  38.330  25.166  10.768
 5824W        W78249   2.249  39.453  13.148
 5825W        W78250  33.545  18.658   2.367
 5826W        W78251  18.333  37.298  13.776
 5827W        W78252  12.340  36.146  11.646
 5828W        W78253  26.823  22.574  12.553
 5829W        W78254  23.102   1.828   2.179
 5830W        W78255   7.814  24.810  10.379
 5831W        W78256  38.612  44.016  11.133
 5832W        W78257  29.131  23.280   0.085
 5833W        W78258  20.570  39.089  11.566
 5834W        W78259  14.769  12.390   0.273
 5835W        W78260  28.077  33.341   4.196
 5836W        W78261   4.808   3.399  11.957
 5837W        W78262  37.978  40.501   2.111
 5838W        W78263   4.163  33.526   1.941
 5839W        W78264  11.229  15.637  11.682
 5840W        W78265  26.183  40.313   0.724
 5841W        W78266  38.610   0.952   2.607
 5842W        W78267  14.870  11.518   4.402
 5843W        W78268  44.989   0.535  12.501
 5844W        W78269  44.491   7.981  12.464
 5845W        W78270  36.419  40.579   1.282
 5846W        W78271   9.206  37.833   4.108
 5847W        W78272   7.802  11.575   2.819
 5848W        W78273  21.809  25.758  13.468
 5849W        W78274  28.456  32.911   4.904
 5850W        W78275  23.872  17.211   4.099
 5851W        W78276  15.527  14.126   1.263
 5852W        W78277   2.879  19.378  11.982
 5853W        W78278  30.180  11.731  10.586
 5854W        W78279  12.339  21.203   4.048
 5855W        W78280   0.023   6.578   1.589
 5856W        W78281  20.629  37.831   1.645
 5857W        W78282  22.516  31.904   0.845
 5858W        W78283  23.976  21.168   1.782
 5859W        W78284   6.940  30.546   2.313
 5860W        W78285  44.116  37.960  11.891
 5861W        W78286  27.519   3.748  11.034
 5862W        W78287  42.381  20.729   1.739
 5863W        W78288  44.310  39.026  12.853
 5864W        W78289  39.229  11.315   3.385
 5865W        W78290  37.312  22.220  10.220
 5866W        W78291  14.785  17.964  11.477
 5867W        W78292  33.973  18.517  13.650
 5868W        W78293  24.135   6.357   0.962
 5869W        W78294  35.758  12.259   4.957
 5870W        W78295  15.733  35.442  14.913
 5871W        W78296  40.407  25.550  11.941
 5872W        W78297  39.136  44.450   2.801
 5873W        W78298  11.575  37.295  11.788
 5874W        W78299   8.756  42.272  12.645
 5875W        W78300   8.246  25.046  10.940
 5876W        W78301  23.932  43.514  11.376
 5877W        W78302   0.181  44.511   0.864
 5878W        W78303  19.060  40.687  12.006
 5879W        W78304  15.353  27.195   1.089
 5880W        W78305  36.341  41.390  11.438
 5881W        W78306  23.380  14.846  12.496
 5882W        W78307  20.847  41.897  13.961
 5883W        W78308  43.812   8.137  13.662
 5884W        W78309   4.378  44.876   4.430
 5885W        W78310   7.712   2.783  10.921
 5886W        W78311   6.909  36.172   1.229
 5887W        W78312  15.025   7.108   4.806
 5888W        W78313  25.739  15.910  11.180
 5889W        W78314   8.131  35.797   0.893
 5890W        W78315  19.008  41.263  11.130
 5891W        W78316  18.085   8.111  11.164
 5892W        W78317  13.733  30.072   1.426
 5893W        W78318   8.549  12.696   1.858
 5894W        W78319  23.962  11.263   4.656
 5895W        W78320   6.709  28.300  14.742
 5896W        W78321  11.133  21.243  11.989
 5897W        W78322  41.052  29.412   1.897
 5898W        W78323   4.235  44.190   9.876
 5899W        W78324  35.797  14.892   3.276
 5900W        W78325   2.831  43.122  14.509
 5901W        W78326   9.178  37.045   1.291
 5902W        W78327  31.138  43.831  11.426
 5903W        W78328  18.495   0.291   3.365
 5904W        W78329   0.126  36.801  14.389
 5905W        W78330  25.720  31.836   4.673
 5906W        W78331  16.809   2.006   4.751
 5907W        W78332  16.518  32.668  14.170
 5908W        W78333  40.323  31.074  11.988
 5909W        W78334  22.632  31.416   0.454
 5910W        W78335   9.139  35.532   1.365
 5911W        W78336   2.507   3.207  10.041
 5912W        W78337   8.275  17.512   0.554
 5913W        W78338   1.986  28.726  13.110
 5914W        W78339  17.533  32.084  14.861
 5915W        W78340  33.446  14.545  13.902
 5916W        W78341  38.527  15.297   1.162
 5917W        W78342   3.096  12.200  13.288
 5918W        W78343  12.827  42.338   0.952
 5919W        W78344  29.794  30.871   1.698
 5920W        W78345  15.663  16.068  10.782
 5921W        W78346  40.793   3.700  12.702
 5922W        W78347  12.242  19.616  14.151
 5923W        W78348  44.855  11.133  14.988
 5924W        W78349  31.361  19.322   3.290
 5925W        W78350  34.275  14.715  13.857
 5926W        W78351  16.574   4.265   2.128
 5927W        W78352   3.479  13.597   3.601
 5928W        W78353  24.734  28.628   3.803
 5929W        W78354  30.452   6.846   4.432
 5930W        W78355  34.188  11.270  13.749
 5931W        W78356  10.652  31.917  10.292
 5932W        W78357  17.183  15.144   4.102
 5933W        W78358  17.307  43.441   4.412
 5934W        W78359   6.748  41.550   1.456
 5935W        W78360  33.560  36.981   0.216
 5936W        W78361   1.995  10.066   2.774
 5937W        W78362   4.066   4.351  11.594
 5938W        W78363  30.572  23.498  12.538
 5939W        W78364  35.065   8.858   4.153
 5940W        W78365  37.154  36.501  12.740
 5941W        W78366  33.109  34.963   0.381
 5942W        W78367  16.266   0.032  11.983
 5943W        W78368   5.388  20.005  14.126
 5944W        W78369  12.450  24.775   2.346
 5945W        W78370  34.031  29.314  13.856
 5946W        W78371  10.692  32.449  10.426
 5947W        W78372  14.645  32.686  12.971
 5948W        W78373  37.821  37.818  11.545
 5949W        W78374  20.135  12.804   0.726
 5950W        W78375  12.096  13.265   3.551
 5951W        W78376  22.687  38.368   2.865
 5952W        W78377   2.863  28.640  13.146
 5953W        W78378  32.060  20.565   0.914
 5954W        W78379  14.214  36.991  11.619
 5955W        W78380  36.040  18.608   1.353
 5956W        W78381   1.358  42.590  10.507
 5957W        W78382  13.681   5.292   2.015
 5958W        W78383   6.128  40.771   3.135
 5959W        W78384  18.319  22.982   1.753
 5960W        W78385  41.432  13.689  12.891
 5961W        W78386  22.793  23.598   1.417
 5962W        W78387  43.408  30.112   0.643
 5963W        W78388  14.775  23.656  11.838
 5964W        W78389  23.590   1.856   4.339
 5965W        W78390  10.554  20.376  12.841
 5966W        W78391   4.705  31.392   4.309
 5967W        W78392  13.708   1.354   2.947
 5968W        W78393   2.902  39.472   4.077
 5969W        W78394  42.533   7.174  13.368
 5970W        W78395   1.409  15.177   0.215
 5971W        W78396  37.010  40.071  12.385
 5972W        W78397   4.215   3.978  10.635
 5973W        W78398  11.604  14.700  10.724
 5974W        W78399  30.654   7.733   1.262
 5975W        W78400  34.592  35.560   1.904
 5976W        W78401  26.610  22.466  12.095
 5977W        W78402  44.956   3.954  11.194
 5978W        W78403  26.179  40.601   1.207
 5979W        W78404   0.950  43.343   3.094
 5980W        W78405  14.282  28.400   1.877
 5981W        W78406   1.561  19.821  14.819
 5982W        W78407  21.548  14.765  10.995
 5983W        W78408  28.809  40.858   1.268
 5984W        W78409  36.604   7.753  14.770
 5985W        W78410   4.829  23.665   3.830
 5986W        W78411  35.372  20.174   0.757
 5987W        W78412  26.441  11.241  13.097
 5988W        W78413  14.546  24.212   3.945
 5989W        W78414  19.112  29.584  10.565
 5990W        W78415  24.189  24.056  10.361
 5991W        W78416  29.160  37.491   2.869
 5992W        W78417  32.996  18.079  13.429
 5993W        W78418   5.860  41.872  13.947
 5994W        W78419  20.454  34.333   0.598
 5995W        W78420  42.991   6.959  13.483
 5996W        W78421  20.587  26.647  13.038
 5997W        W78422  31.438  14.896   4.979
 5998W        W78423  42.971  33.167  12.931
 5999W        W78424  26.004   1.956   2.713
 6000W        W78425  39.794  36.040   0.947
 6001W        W78426  42.827  14.434  13.471
 6002W        W78427  32.690  27.973  12.544
 6003W        W78428  37.070  23.473   4.235
 6004W        W78429  20.377  27.517   4.571
 6005W        W78430  24.485   4.795   0.695
 6006W        W78431  11.207  31.971  13.023
 6007W        W78432  38.920  26.988   4.431
 6008W        W78433  23.003   2.110   0.755
 6009W        W78434  39.840  17.680  13.350
 6010W        W78435  17.781  10.195   0.460
 6011W        W78436  15.203  26.188  13.582
 6012W        W78437  41.768  23.213   3.074
 6013W        W78438  41.729  22.673  11.971
 6014W        W78439   5.946  10.692  12.619
 6015W        W78440  44.270  39.330   0.315
 6016W        W78441  15.752  13.166  14.328
 6017W        W78442   9.160   4.862  11.578
 6018W        W78443   5.431   4.076   0.368
 6019W        W78444   3.857  23.195  13.941
 6020W        W78445  16.778  42.292  13.601
 6021W        W78446  12.144  23.443   2.380
 6022W        W78447   0.832  44.802   4.535
 6023W        W78448  30.455   9.546   3.300
 6024W        W78449   4.481   5.886  14.934
 6025W        W78450  32.576  28.196   4.592
 6026W        W78451  32.673  33.154   4.116
 6027W        W78452  36.378   6.908   0.849
 6028W        W78453  18.642  11.462  14.359
 6029W        W78454  32.303   4.334  14.003
 6030W        W78455  18.031  18.619   1.930
 6031W        W78456  31.177   0.890   4.805
 6032W        W78457   0.851  19.213   3.666
 6033W        W78458  22.021  34.964   0.912
 6034W        W78459  10.928  16.214   2.925
 6035W        W78460  13.337  27.340  14.785
 6036W        W78461   8.587  19.533  14.309
 6037W        W78462  41.505   9.956   3.325
 6038W        W78463  13.099  14.085   2.808
 6039W        W78464  37.294  43.826   0.287
 6040W        W78465  12.230  21.496  14.879
 6041W        W78466  43.072  15.189   4.118
 6042W        W78467  39.845  19.293  10.940
 6043W        W78468  19.627   0.968  14.041
 6044W        W78469  25.933  25.103   0.602
 6045W        W78470  21.152  22.249   1.188
 6046W        W78471  26.011  26.031   2.388
 6047W        W78472   4.422   0.247   2.692
 6048W        W78473  30.285  26.426   4.606
 6049W        W78474  24.228  15.418  14.447
 6050W        W78475  17.027  24.001   2.806
 6051W        W78476  17.831  21.971   2.473
 6052W        W78477   7.677  31.938   4.148
 6053W        W78478  32.198  24.591   1.320
 6054W        W78479  29.560  28.868  12.171
 6055W        W78480  37.480  15.544   2.331
 6056W        W78481  19.463  20.264   2.651
 6057W        W78482  36.539   8.683  14.970
 6058W        W78483  23.492  36.444   2.224
 6059W        W78484  12.243   6.924  12.452
 6060W        W78485  29.609  18.552  12.526
 6061W        W78486  43.522  15.658  11.941
 6062W        W78487  23.749  23.538   3.174
 6063W        W78488  17.713  40.067  11.180
 6064W        W78489  17.579  32.784  10.657
 6065W        W78490  34.201   7.228   2.540
 6066W        W78491  34.947  20.882   2.213
 6067W        W78492   2.289  28.065   3.679
 6068W        W78493  39.823   8.463  11.971
 6069W        W78494  16.209   2.370   1.000
 6070W        W78495  24.461  11.741   0.680
 6071W        W78496  14.299  43.364  10.698
 6072W        W78497  39.419  40.302   3.265
 6073W        W78498  43.822  19.307  11.943
 6074W        W78499  43.911  19.300   4.503
 6075W        W78500  25.457  31.583  10.340
 6076W        W78501   5.071  31.312   0.239
 6077W        W78502  35.751  23.956  11.786
 6078W        W78503   2.692  41.030  14.958
 6079W        W78504   6.451  26.907   5.218
 6080W        W78505  43.993  18.619   3.729
 6081W        W78506   2.932  39.819   1.748
 6082W        W78507  36.381  16.600   0.266
 6083W        W78508  17.328  42.989  11.877
 6084W        W78509   9.433  37.591   1.725
 6085W        W78510  23.451  40.935  12.130
 6086W        W78511  13.061  15.476   1.811
 6087W        W78512  25.543  11.869   1.361
 6088W        W78513   8.380   6.162  11.116
 6089W        W78514  41.418   9.171   2.925
 6090W        W78515  42.743  19.596   0.358
 6091W        W78516   7.226  31.452   4.195
 6092W        W78517  44.308  40.740   0.890
 6093W        W78518  31.252   0.491  12.175
 6094W        W78519  27.629  17.245   4.126
 6095W        W78520  16.542   1.016   3.540
 6096W        W78521   6.718  14.337  13.071
 6097W        W78522  28.821   3.779  14.990
 6098W        W78523  11.865  32.558  12.472
 6099W        W78524  10.398  36.149   3.144
 6100W        W78525  15.087   4.933   3.217
 6101W        W78526  15.298  36.956   3.427
 6102W        W78527  31.098  16.687   1.341
 6103W        W78528   2.289  14.549   4.586
 6104W        W78529  11.699  26.160   1.512
 6105W        W78530  27.145  30.952   2.868
 6106W        W78531  32.795  22.548   4.673
 6107W        W78532  35.457   8.129  12.098
 6108W        W78533   5.924  18.676  11.417
 6109W        W78534   9.505  18.309  11.039
 6110W        W78535  38.365  28.697   1.233
 6111W        W78536  18.076   9.637  14.005
 6112W        W78537  10.170  12.770  14.345
 6113W        W78538  10.746  10.015   1.606
 6114W        W78539   5.181  10.188   3.653
 6115W        W78540   9.746  10.189   3.311
 6116W        W78541  14.212  29.230   1.454
 6117W        W78542  25.441  40.758  12.817
 6118W        W78543   0.889  28.452   1.273
 6119W        W78544  22.025  42.537   3.204
 6120W        W78545  38.398   9.176   1.884
 6121W        W78546  37.440  24.783  11.632
 6122W        W78547   9.645  42.791   3.671
 6123W        W78548  16.316  23.467   3.181
 6124W        W78549   4.961  42.898   0.343
 6125W        W78550   8.390  20.790  13.424
 6126W        W78551   6.915   6.827  12.866
 6127W        W78552  29.672  27.199   2.827
 6128W        W78553  23.634   8.694  12.113
 6129W        W78554  16.296  34.832  14.363
 6130W        W78555  32.346  24.194  14.981
 6131W        W78556  26.002  16.141  13.312
 6132W        W78557  25.542  21.955   0.250
 6133W        W78558  41.332  25.627   1.207
 6134W        W78559   5.440   4.804   0.974
 6135W        W78560   6.853  23.863  13.361
 6136W        W78561  35.827   9.286  11.655
 6137W        W78562   3.264  26.104   2.240
 6138W        W78563  18.662  28.877   3.500
 6139W        W78564  41.871  20.809   0.965
 6140W        W78565  40.999   4.208  13.056
 6141W        W78566  29.180  32.034   0.917
 6142W        W78567  34.430  29.208  10.618
 6143W        W78568  35.505  22.287   3.916
 6144W        W78569  17.409   1.852  12.388
 6145W        W78570  11.277   6.456   1.974
 6146W        W78571  32.859  18.510  10.680
 6147W        W78572   3.862  37.907   2.445
 6148W        W78573  31.346  13.145  14.316
 6149W        W78574  12.900  31.552   4.533
 6150W        W78575  20.247  11.028  12.234
 6151W        W78576  11.060  23.184  13.000
 6152W        W78577   2.947  21.923  14.901
 6153W        W78578  12.871  32.817   0.452
 6154W        W78579  14.061  20.609   1.379
 6155W        W78580  12.474  11.076   3.640
 6156W        W78581   8.626  30.509   4.677
 6157W        W78582  37.458  13.025  10.700
 6158W        W78583  44.904  36.726  13.422
 6159W        W78584  29.143   9.563  11.149
 6160W        W78585  42.218   4.895   0.406
 6161W        W78586  15.581  20.680   4.392
 6162W        W78587  25.234  15.388  12.425
 6163W        W78588  17.128  11.062  10.707
 6164W        W78589  28.228  13.874  13.847
 6165W        W78590  27.936  24.982   3.371
 6166W        W78591  10.071  34.167  14.507
 6167W        W78592   0.752  12.357  11.473
 6168W        W78593   5.929   6.020  13.145
 6169W        W78594  22.705   6.407  14.845
 6170W        W78595   7.744  29.067  11.509
 6171W        W78596  14.691   9.893   3.136
 6172W        W78597  17.717  44.748  11.704
 6173W        W78598  33.198  35.935  12.510
 6174W        W78599   5.405   7.744  14.631
 6175W        W78600  44.259  21.273   3.613
 6176W        W78601   7.394  22.818   1.282
 6177W        W78602  17.286  38.013  13.088
 6178W        W78603  10.625  37.505  13.986
 6179W        W78604   6.991  35.473  11.560
 6180W        W78605  12.167  18.836  10.537
 6181W        W78606   3.925  23.447   2.866
 6182W        W78607  36.502  38.315  12.820
 6183W        W78608   7.201   3.749   3.174
 6184W        W78609  43.280  25.757  10.709
 6185W        W78610  14.676  25.842  14.695
 6186W        W78611  23.616  19.525   0.207
 6187W        W78612  13.928  27.156   4.200
 6188W        W78613  24.581  32.370   3.395
 6189W        W78614  26.721   3.887   1.759
 6190W        W78615  42.845   2.588  14.279
 6191W        W78616   4.310   9.382  11.762
 6192W        W78617   8.971  40.508   0.306
 6193W        W78618  17.064  20.685   0.119
 6194W        W78619  29.261  28.174   4.592
 6195W        W78620  31.627  40.925  13.467
 6196W        W78621   9.148  28.055  13.132
 6197W        W78622  43.951  35.141  13.558
 6198W        W78623  35.397  38.058  14.816
 6199W        W78624  15.025  18.542  11.447
 6200W        W78625  35.330   1.670  10.525
 6201W        W78626  18.634  11.583  11.635
 6202W        W78627  14.297  22.475   1.343
 6203W        W78628   6.414  26.520   4.255
 6204W        W78629   3.124  38.798   1.268
 6205W        W78630  28.839  41.387   4.618
 6206W        W78631   3.688  22.639  11.398
 6207W        W78632  41.550  19.994  11.502
 6208W        W78633  31.493  33.046  14.931
 6209W        W78634  39.857  17.771   4.500
 6210W        W78635  35.516   1.557  14.951
 6211W        W78636  15.092   6.921  13.463
 6212W        W78637  32.192  11.346  11.065
 6213W        W78638  40.385  32.634  13.071
 6214W        W78639  11.181  38.042   4.587
 6215W        W78640  34.112  30.984  11.192
 6216W        W78641  40.890  18.103   4.582
 6217W        W78642   6.676  36.971  13.928
 6218W        W78643  34.568  14.567  13.428
 6219W        W78644  40.552  38.447   1.153
 6220W        W78645  26.550   4.009   3.153
 6221W        W78646  26.249  28.537   5.340
 6222W        W78647  17.588  43.795   4.820
 6223W        W78648  20.723   2.593   1.250
 6224W        W78649   3.855  41.771  14.752
 6225W        W78650   4.467  28.416   0.239
 6226W        W78651  37.106  36.008  10.682
 6227W        W78652  28.984  23.994  13.106
 6228W        W78653  30.398  17.703   0.920
 6229W        W78654  10.860  42.961  13.480
 6230W        W78655  41.613  23.070   2.081
 6231W        W78656  34.098  36.325   2.079
 6232W        W78657  22.933  29.171  14.439
 6233W        W78658  22.490  44.736   4.154
 6234W        W78659  16.209  22.505  10.252
 6235W        W78660  18.639  44.120  13.481
 6236W        W78661  33.942  32.470   3.276
 6237W        W78662   7.223  43.483   3.620
 6238W        W78663  37.555  13.490   3.315
 6239W        W78664  24.240  34.634   5.040
 6240W        W78665  30.415  19.227  13.031
 6241W        W78666  34.047   5.313  13.525
 6242W        W78667  37.875  36.002  11.164
 6243W        W78668  26.631   2.421  13.602
 6244W        W78669  18.170   7.459   4.693
 6245W        W78670   6.951  28.953  12.002
 6246W        W78671  23.240  14.237   4.629
 6247W        W78672  32.069  44.243  11.064
 6248W        W78673  43.226  35.834   0.328
 6249W        W78674   0.884  27.940   1.310
 6250W        W78675  33.388  21.111   0.569
 6251W        W78676  17.009  44.483  10.780
 6252W        W78677  31.445  36.619  12.595
 6253W        W78678  24.484  44.059   1.349
 6254W        W78679  26.181  37.362  13.893
 6255W        W78680   4.284  40.498   2.426
 6256W        W78681   1.192  16.791  11.482
 6257W        W78682  12.314  40.605  12.825
 6258W        W78683  28.222  27.013   4.174
 6259W        W78684  35.615  33.866   1.735
 6260W        W78685  13.204  42.384  14.897
 6261W        W78686   4.815  29.910   2.494
 6262W        W78687   6.602  30.363   0.929
 6263W        W78688  40.805  43.037  11.829
 6264W        W78689   3.255   7.764  10.881
 6265W        W78690   4.293  12.075   1.877
 6266W        W78691  42.899  19.084  12.183
 6267W        W78692  22.174  23.984  13.448
 6268W        W78693   6.877  37.339   1.968
 6269W        W78694  13.231  10.349   2.484
 6270W        W78695   1.895  10.225  13.327
 6271W        W78696  22.125   8.662  13.004
 6272W        W78697  10.328  16.598  13.015
 6273W        W78698  24.934  16.675  12.568
 6274W        W78699  35.436  18.974  13.026
 6275W        W78700   0.748  34.812   0.828
 6276W        W78701   8.907   7.636   3.643
 6277W        W78702  38.870  36.137  14.890
 6278W        W78703  31.135  16.147   1.304
 6279W        W78704   3.264  24.918   2.697
 6280W        W78705   1.384  10.371  10.974
 6281W        W78706  14.092  35.294  10.550
 6282W        W78707  38.624  13.133  13.044
 6283W        W78708  33.111  31.257  11.069
 6284W        W78709  20.652  27.613  13.077
 6285W        W78710  15.282  13.598   0.393
 6286W        W78711  10.344  34.740  11.616
 6287W        W78712  32.516  23.936   0.827
 6288W        W78713  33.982  35.998  14.079
 6289W        W78714   4.721  35.536  10.626
 6290W        W78715  20.424  30.543  11.164
 6291W        W78716  17.077  12.821   2.758
 6292W        W78717  44.868  41.376   3.884
 6293W        W78718  35.795  35.482   4.538
 6294W        W78719  25.157  36.950  13.406
 6295W        W78720  31.370  13.752   3.787
 6296W        W78721   7.474  41.021  12.881
 6297W        W78722  29.640  20.928   9.872
 6298W        W78723  20.144  43.288   4.534
 6299W        W78724  32.011   8.466  13.761
 6300W        W78725  11.141  10.732  13.590
 6301W        W78726  42.122  33.206   0.249
 6302W        W78727  11.492  33.124   0.283
 6303W        W78728  25.926  38.627   2.201
 6304W        W78729  24.950   6.773  10.931
 6305W        W78730  35.559   5.503   4.084
 6306W        W78731  21.229   6.867   4.214
 6307W        W78732   4.784  29.245   4.786
 6308W        W78733  35.439  12.076  12.830
 6309W        W78734  14.415  15.296   2.296
 6310W        W78735  19.338  33.034  11.550
 6311W        W78736  19.533  42.496  11.638
 6312W        W78737  17.837  36.622  13.466
 6313W        W78738  13.723  12.215   1.662
 6314W        W78739  39.389   2.607  13.909
 6315W        W78740  43.451  32.668   4.722
 6316W        W78741  21.216   5.700  10.499
 6317W        W78742   7.698   1.711  14.353
 6318W        W78743  17.748   3.171   2.184
 6319W        W78744  33.140  26.659  12.262
 6320W        W78745  19.125  22.365   1.413
 6321W        W78746   1.577  19.926  10.695
 6322W        W78747  25.045  20.181  14.988
 6323W        W78748   0.303  19.514   2.156
 6324W        W78749  32.065   8.380   2.482
 6325W        W78750  36.253  35.585  11.262
 6326W        W78751   6.445   0.280   1.133
 6327W        W78752  11.569  25.695   0.916
 6328W        W78753  12.270   3.491   2.374
 6329W        W78754  16.699  12.664  12.862
 6330W        W78755  31.214  24.266   2.836
 6331W        W78756  37.102  22.415  12.483
 6332W        W78757  17.724   0.633   2.207
 6333W        W78758  27.892  35.991   3.105
 6334W        W78759  15.245  34.539   0.009
 6335W        W78760   6.715   9.883   2.818
 6336W        W78761  37.111   6.849   1.127
 6337W        W78762   9.457   9.318  13.421
 6338W        W78763  44.417  11.369   4.149
 6339W        W78764  19.934  23.810  11.135
 6340W        W78765  29.729  18.158   1.396
 6341W        W78766  27.937  18.530   5.004
 6342W        W78767   6.158  31.840   0.362
 6343W        W78768  35.070  38.589   3.201
 6344W        W78769  40.728  33.354  13.906
 6345W        W78770  31.133  10.081  12.955
 6346W        W78771  38.450  36.852  13.193
 6347W        W78772  30.051  32.969   3.234
 6348W        W78773  11.138  35.076  14.686
 6349W        W78774  20.654  43.466   4.646
 6350W        W78775   1.828  36.515   3.711
 6351W        W78776   6.447   1.750  13.980
 6352W        W78777   7.909  32.855   3.156
 6353W        W78778  12.766   6.918  11.964
 6354W        W78779   8.709  21.124   1.300
 6355W        W78780  42.484  12.822  13.401
 6356W        W78781  17.785  29.413  11.018
 6357W        W78782  37.566  36.535  14.846
 6358W        W78783  44.594  25.960   4.272
 6359W        W78784  29.947   6.131  12.528
 6360W        W78785   8.298  32.841  12.001
 6361W        W78786  42.341   3.788  14.368
 6362W        W78787  29.078  39.290  13.410
 6363W        W78788  26.152  31.392   2.171
 6364W        W78789  13.776  14.692  12.813
 6365W        W78790  18.483  21.100   2.759
 6366W        W78791   3.578  23.566   4.315
 6367W        W78792  35.715   0.733  12.800
 6368W        W78793  24.753  31.414   5.050
 6369W        W78794  26.202  37.458  11.089
 6370W        W78795  44.753  11.566  12.965
 6371W        W78796  30.396  13.045  11.165
 6372W        W78797  40.890  25.207  13.142
 6373W        W78798   0.979  13.074  13.076
 6374W        W78799  19.077  22.244  10.613
 6375W        W78800  13.863   5.327  13.980
 6376W        W78801  39.462   4.965   2.125
 6377W        W78802  32.099  32.460   0.274
 6378W        W78803  22.184  43.458  14.952
 6379W        W78804   2.764  37.335  12.675
 6380W        W78805  40.322  12.551  11.627
 6381W        W78806  37.650  43.401  14.430
 6382W        W78807  28.651   2.788  12.660
 6383W        W78808  11.526   9.604   0.018
 6384W        W78809  41.871  43.416   2.431
 6385W        W78810   0.757  13.199   1.940
 6386W        W78811  27.052  18.045  14.511
 6387W        W78812  41.112  37.648  11.621
 6388W        W78813   8.467   4.881   0.552
 6389W        W78814  18.960  14.327   3.960
 6390W        W78815  22.048  39.873  10.548
 6391W        W78816  34.390  29.726  13.875
 6392W        W78817  18.656   5.523  11.047
 6393W        W78818   0.913  25.260  12.160
 6394W        W78819  19.164  29.201  12.673
 6395W        W78820  28.079   5.131   2.893
 6396W        W78821  15.823  30.427  12.463
 6397W        W78822  42.029  13.363  12.567
 6398W        W78823  29.179  42.162   3.057
 6399W        W78824  24.666  14.230   2.212
 6400W        W78825  31.976  15.380   4.234
 6401W        W78826  34.159  30.088  14.288
 6402W        W78827  28.459  40.490  13.989
 6403W        W78828   9.253  37.555   1.209
 6404W        W78829  15.065   2.871  11.225
 6405W        W78830   1.343   7.098  12.612
 6406W        W78831  14.054  28.674   4.085
 6407W        W78832  36.256  36.974  12.904
 6408W        W78833  38.452  27.698   4.922
 6409W        W78834  23.969   4.883   1.496
 6410W        W78835   1.025  36.013   2.844
 6411W        W78836   9.839  35.533  11.590
 6412W        W78837  36.007  40.794  14.796
 6413W        W78838  14.624  24.080   4.972
 6414W        W78839   5.722  32.795  13.375
 6415W        W78840  27.464  39.230   4.592
 6416W        W78841  43.917   8.898  11.506
 6417W        W78842  33.047  27.668   3.289
 6418W        W78843   3.596  34.979  14.441
 6419W        W78844  17.188  31.916   0.656
 6420W        W78845  41.967  44.225   4.564
 6421W        W78846  28.729  31.966  13.499
 6422W        W78847   4.369  28.546   1.749
 6423W        W78848   8.925  23.164   3.243
 6424W        W78849  32.714  44.472  13.440
 6425W        W78850  14.976   9.457  10.994
 6426W        W78851  15.385  44.933   2.342
 6427W        W78852  32.575  27.542  14.702
 6428W        W78853  28.716  25.624   0.437
 6429W        W78854  15.594   4.846  12.405
 6430W        W78855   0.358  26.165  14.155
 6431W        W78856  10.197  12.898  13.377
 6432W        W78857   1.001  23.894   0.732
 6433W        W78858  34.488  40.408   4.254
 6434W        W78859   5.323   9.898   4.108
 6435W        W78860  35.337  39.000  10.655
 6436W        W78861  25.134  20.722  14.957
 6437W        W78862  10.336  22.908   3.259
 6438W        W78863  13.554  23.054  11.888
 6439W        W78864  34.227   0.491   1.272
 6440W        W78865  13.856   1.229  10.709
 6441W        W78866  17.704  13.741   3.644
 6442W        W78867  12.848  14.657   1.638
 6443W        W78868  13.814  26.086   4.884
 6444W        W78869  33.734   7.353  14.470
 6445W        W78870  42.817  31.768  11.118
 6446W        W78871  31.067   8.342  10.636
 6447W        W78872   7.925   9.672   1.802
 6448W        W78873  34.404  38.811  14.446
 6449W        W78874  12.703   1.512  13.402
 6450W        W78875   5.553  35.950  14.302
 6451W        W78876   8.639  43.007  10.182
 6452W        W78877   9.143   6.764   0.387
 6453W        W78878  34.321  13.220   3.708
 6454W        W78879  22.030  14.708   1.956
 6455W        W78880  41.616   9.617  12.013
 6456W        W78881  40.258  14.708  11.489
 6457W        W78882  26.325   2.227   1.208
 6458W        W78883  34.108  33.544  14.981
 6459W        W78884   8.627  12.595  11.610
 6460W        W78885   9.411  16.169  12.402
 6461W        W78886  16.595  36.470  14.046
 6462W        W78887  39.722  28.570   0.188
 6463W        W78888  38.508  40.891  14.962
 6464W        W78889   6.065  19.197  14.928
 6465W        W78890  24.425  11.981  10.472
 6466W        W78891   7.615   6.837  11.524
 6467W        W78892   6.933  21.213   2.235
 6468W        W78893  21.466  24.562   1.038
 6469W        W78894  21.735  13.097  14.937
 6470W        W78895  23.035  17.836  12.423
 6471W        W78896  34.388  22.716   3.376
 6472W        W78897  13.247  22.122   4.524
 6473W        W78898  40.380  24.915  14.356
 6474W        W78899  27.595  25.257  12.100
 6475W        W78900  36.481  15.653  14.858
 6476W        W78901   7.466  18.630   0.813
 6477W        W78902   5.403  11.668   0.518
 6478W        W78903  31.212  27.679  13.346
 6479W        W78904  12.380  43.238  14.173
 6480W        W78905   4.490  31.747   3.196
 6481W        W78906   9.797  28.920   2.794
 6482W        W78907  31.065  29.612   1.705
 6483W        W78908  15.783  27.914   2.642
 6484W        W78909  34.047  31.677   2.477
 6485W        W78910  26.031  20.173   0.550
 6486W        W78911   7.604  30.618   0.883
 6487W        W78912  37.454  11.088   2.522
 6488W        W78913  10.735  41.016   0.944
 6489W        W78914  43.009  36.351   0.915
 6490W        W78915  41.237  38.040  12.348
 6491W        W78916   3.125   3.733  12.068
 6492W        W78917   3.483  37.259   1.579
 6493W        W78918   5.542   1.296  13.940
 6494W        W78919  11.105   6.478  12.021
 6495W        W78920  27.504  15.638   3.217
 6496W        W78921  13.412  33.513  13.469
 6497W        W78922   4.833  28.230   1.783
 6498W        W78923  32.845  26.380  11.444
 6499W        W78924  11.592  15.192   2.275
 6500W        W78925  30.983   7.657   0.817
 6501W        W78926  44.926  31.577  12.180
 6502W        W78927  44.886  37.456   4.692
 6503W        W78928  25.499  24.655  14.389
 6504W        W78929  32.310  11.650   3.354
 6505W        W78930  14.095  20.978   3.369
 6506W        W78931  32.483  24.221  13.283
 6507W        W78932  28.485  38.020  12.252
 6508W        W78933  12.390  30.599  13.378
 6509W        W78934   4.436  19.551  12.849
 6510W        W78935  28.994  30.174   0.359
 6511W        W78936  39.206  20.623  13.231
 6512W        W78937  36.478   8.391  10.341
 6513W        W78938  23.317  29.788   4.315
 6514W        W78939  13.445  16.310   4.515
 6515W        W78940  25.650  25.465   0.308
 6516W        W78941  31.544   7.739   2.583
 6517W        W78942  31.996  17.492   2.921
 6518W        W78943  20.742  12.216   2.805
 6519W        W78944  19.967  27.707   1.325
 6520W        W78945   8.870  16.579   3.611
 6521W        W78946   7.234  23.231   2.160
 6522W        W78947  35.408  10.156  10.870
 6523W        W78948  33.316  31.851   1.177
 6524W        W78949  17.570   6.837   0.352
 6525W        W78950   3.911  37.809   3.793
 6526W        W78951  31.158  41.740  10.975
 6527W        W78952  27.949  22.617  14.053
 6528W        W78953  34.619  11.029  13.863
 6529W        W78954   1.708  12.219  13.261
 6530W        W78955  13.595  13.770   4.885
 6531W        W78956  22.127  39.544  11.415
 6532W        W78957  30.557  14.713   1.859
 6533W        W78958  12.332  23.057   4.479
 6534W        W78959  36.832  24.320   3.800
 6535W        W78960  18.864  24.415  12.032
 6536W        W78961   8.654  34.048  14.282
 6537W        W78962  11.785   2.254  12.986
 6538W        W78963  22.170   8.103   2.626
 6539W        W78964  17.285  10.277  12.174
 6540W        W78965  23.479  11.194  14.912
 6541W        W78966  35.898  33.839  12.057
 6542W        W78967  32.503  35.651  14.861
 6543W        W78968  42.584  24.623  12.874
 6544W        W78969  35.117   6.651   3.157
 6545W        W78970  11.408  36.925  10.133
 6546W        W78971  24.972  22.183   1.707
 6547W        W78972  24.530  32.841  10.123
 6548W        W78973  42.770  42.089   4.127
 6549W        W78974  31.959  10.454   0.425
 6550W        W78975  21.570  26.190   1.718
 6551W        W78976  30.637  20.548   3.568
 6552W        W78977  33.710  28.722   1.952
 6553W        W78978   8.223  28.815   1.789
 6554W        W78979   3.287   6.607  12.732
 6555W        W78980  27.473  19.508  12.610
 6556W        W78981  28.536  42.451  11.838
 6557W        W78982   8.334  12.392   2.647
 6558W        W78983  15.353  14.575   0.320
 6559W        W78984  43.279  31.194  14.790
 6560W        W78985  15.105  28.494  12.931
 6561W        W78986  38.058  16.603   3.895
 6562W        W78987  39.434  17.607  12.018
 6563W        W78988  21.604  15.499  12.475
 6564W        W78989  11.805  14.898  13.346
 6565W        W78990  24.057  22.639   4.379
 6566W        W78991  33.728   6.832  11.072
 6567W        W78992  14.018  30.081  13.051
 6568W        W78993  17.786  33.642   5.469
 6569W        W78994   8.144  39.304  10.659
 6570W        W78995  41.333  28.741   3.648
 6571W        W78996  33.033  15.928  12.075
 6572W        W78997   4.382  35.560  12.482
 6573W        W78998  26.023   9.343  12.612
 6574W        W78999  40.912   4.258  14.565
 6575W        W79000  29.902  28.177   1.329
 6576W        W79001  36.069  37.626   4.221
 6577W        W79002  10.599   6.628  10.748
 6578W        W79003  20.203  13.840   0.370
 6579W        W79004  34.544   5.797  10.531
 6580W        W79005  21.921   0.256  13.085
 6581W        W79006   7.282   3.679   2.135
 6582W        W79007  11.814  21.708  13.356
 6583W        W79008  38.426   8.827  10.213
 6584W        W79009  42.563   7.843   1.735
 6585W        W79010  32.329  32.055  11.852
 6586W        W79011  15.174  17.186   0.663
 6587W        W79012   1.184  40.834  11.124
 6588W        W79013  28.664  32.724  14.354
 6589W        W79014  12.806  23.950  12.053
 6590W        W79015  24.217  39.844  14.614
 6591W        W79016  27.497  18.756  14.880
 6592W        W79017  28.411  10.319   2.133
 6593W        W79018  16.804  16.607  11.999
 6594W        W79019  21.405  38.941  13.359
 6595W        W79020   3.866   8.648  12.571
 6596W        W79021  24.914  39.788  14.818
 6597W        W79022  41.951  20.188  10.209
 6598W        W79023  30.951  43.395  11.569
 6599W        W79024  36.082  33.491   3.790
 6600W        W79025  23.179   2.866   3.641
 6601W        W79026  17.822  20.871   2.006
 6602W        W79027  27.546  29.045  13.449
 6603W        W79028  16.312  20.041   0.759
 6604W        W79029  25.502  40.488   3.713
 6605W        W79030  33.114  35.932   0.215
 6606W        W79031  38.822  34.332   3.175
 6607W        W79032   9.215  38.433   0.646
 6608W        W79033  28.931  16.201  11.838
 6609W        W79034  39.410  14.547   3.296
 6610W        W79035  40.892  43.372  14.047
 6611W        W79036   2.110  27.771  13.853
 6612W        W79037  39.917  31.894   3.350
 6613W        W79038  36.060  29.496   4.784
 6614W        W79039   2.873  25.546   4.677
 6615W        W79040  44.285  31.492   2.676
 6616W        W79041  40.571  14.816  11.861
 6617W        W79042   0.012  34.825  11.758
 6618W        W79043   2.501  39.491  14.092
 6619W        W79044  37.927  38.824  10.161
 6620W        W79045  29.452  20.267  11.123
 6621W        W79046  16.766   4.782   3.071
 6622W        W79047  35.918  26.688  13.820
 6623W        W79048   6.285  42.765   2.869
 6624W        W79049  23.121  38.557  12.112
 6625W        W79050  31.244  37.982   3.212
 6626W        W79051  28.363   1.537   2.988
 6627W        W79052  10.191  35.483  12.912
 6628W        W79053   7.780  16.783   3.128
 6629W        W79054  27.912  22.940   0.944
 6630W        W79055  30.140  22.759  11.552
 6631W        W79056  44.903  43.773   4.605
 6632W        W79057  38.858  11.214   3.745
 6633W        W79058  37.842   6.391   4.461
 6634W        W79059  18.797  43.012   3.145
 6635W        W79060  27.140  26.360   0.940
 6636W        W79061  44.533   8.798   3.261
 6637W        W79062  13.683  13.666  13.005
 6638W        W79063   6.459  15.771   3.087
 6639W        W79064  35.718  36.929  11.311
 6640W        W79065   6.436  16.210  12.331
 6641W        W79066  37.799  26.073  12.533
 6642W        W79067  13.974  33.206  14.422
 6643W        W79068  37.877  27.652  11.291
 6644W        W79069  25.466  30.530   2.722
 6645W        W79070  36.052   6.315   2.915
 6646W        W79071  30.331  12.889   2.286
 6647W        W79072  13.716  15.889  14.988
 6648W        W79073   0.720  11.742   0.223
 6649W        W79074  25.474   3.584  11.604
 6650W        W79075  37.499  36.341  13.734
 6651W        W79076  21.288  20.901  13.850
 6652W        W79077   4.856   7.308  13.839
 6653W        W79078   3.689  43.626   0.896
 6654W        W79079   4.348   2.326  13.549
 6655W        W79080  26.782  40.274  12.344
 6656W        W79081   6.253  36.619  14.018
 6657W        W79082  22.280   8.240   0.318
 6658W        W79083  12.895  44.801  12.432
 6659W        W79084  23.743  44.217  10.905
 6660W        W79085   6.470  30.864   4.319
 6661W        W79086   8.821  32.351  12.906
 6662W        W79087   3.478   0.387  13.865
 6663W        W79088  23.070  33.922   2.671
 6664W        W79089  27.970  10.160  12.452
 6665W        W79090  33.128  32.109   1.775
 6666W        W79091   7.251  27.734   4.587
 6667W        W79092  20.021  13.874  10.798
 6668W        W79093  23.477   4.894  11.924
 6669W        W79094  34.148  33.543  11.446
 6670W        W79095   5.260  23.624   0.521
 6671W        W79096  19.314  12.389  14.473
 6672W        W79097  39.466  16.693  14.770
 6673W        W79098  16.115  26.141  13.779
 6674W        W79099  21.829  21.270  11.141
 6675W        W79100  41.082   8.202   0.874
 6676W        W79101  21.774  40.932  11.371
 6677W        W79102  14.621  37.597   3.637
 6678W        W79103  34.860  16.109  13.354
 6679W        W79104   0.846  41.382  12.689
 6680W        W79105  25.287  22.220  12.968
 6681W        W79106  23.386  37.650  14.053
 6682W        W79107   1.980  42.765  13.889
 6683W        W79108  16.139  30.972   0.676
 6684W        W79109  10.877  43.292   1.391
 6685W        W79110  18.756  11.052  10.353
 6686W        W79111  36.462  44.515  11.564
 6687W        W79112  28.636  10.373   1.201
 6688W        W79113   9.911   1.935  14.937
 6689W        W79114  16.715  18.789   3.467
 6690W        W79115   6.788  14.425  13.893
 6691W        W79116  44.795   5.791  12.435
 6692W        W79117   3.366  23.663  12.595
 6693W        W79118   8.646   4.248  11.898
 6694W        W79119  44.964  31.452   5.410
 6695W        W79120  21.501  29.510  10.703
 6696W        W79121  11.186  37.157  14.139
 6697W        W79122  26.938  35.561   2.225
 6698W        W79123  22.781  16.654  14.856
 6699W        W79124  39.797  14.352  11.258
 6700W        W79125  23.838  31.980  14.405
 6701W        W79126   4.535   1.192  11.948
 6702W        W79127  17.239  33.323   2.245
 6703W        W79128  31.400  41.444   1.659
 6704W        W79129  10.941  11.883  14.522
 6705W        W79130  23.641   5.516   0.359
 6706W        W79131  20.029   5.718   2.600
 6707W        W79132  18.101   3.935  11.519
 6708W        W79133  24.998  42.758  14.785
 6709W        W79134  26.346  40.494   1.752
 6710W        W79135  28.843  20.648  14.064
 6711W        W79136  33.681  20.233  13.822
 6712W        W79137   1.559   3.474   1.576
 6713W        W79138  41.429  22.149  14.593
 6714W        W79139  10.763  31.753   3.210
 6715W        W79140  20.278  11.113   4.086
 6716W        W79141  26.657  20.230  14.246
 6717W        W79142  14.536  28.108  14.526
 6718W        W79143  32.349  40.471  13.582
 6719W        W79144   0.737  26.213  13.109
 6720W        W79145  23.551  23.190   2.395
 6721W        W79146  28.922  31.749   0.201
 6722W        W79147  44.206  36.400  12.971
 6723W        W79148   4.514   6.826   0.017
 6724W        W79149   5.850  16.141  10.808
 6725W        W79150  23.631  22.650  10.882
 6726W        W79151  24.058  18.156  12.579
 6727W        W79152   3.759  41.481   4.545
 6728W        W79153  39.342  32.971  13.587
 6729W        W79154   0.287  31.945  13.408
 6730W        W79155  23.567  28.156  12.977
 6731W        W79156  36.379  30.487   1.897
 6732W        W79157  17.100  28.327   4.259
 6733W        W79158  31.699  20.641  11.048
 6734W        W79159  40.069   3.201  13.402
 6735W        W79160  10.837  25.689  14.658
 6736W        W79161  28.855  28.972   0.743
 6737W        W79162  44.782  40.499   0.905
 6738W        W79163  24.083  20.143   4.183
 6739W        W79164  32.357  37.472  11.676
 6740W        W79165  11.734  44.343  10.308
 6741W        W79166  32.648  21.635   1.824
 6742W        W79167  17.233  12.733   3.635
 6743W        W79168  12.237   2.363  11.990
 6744W        W79169  13.179  40.727   1.250
 6745W        W79170  41.439  16.051  12.035
 6746W        W79171   0.912  25.855   2.212
 6747W        W79172  26.142   8.562  11.125
 6748W        W79173  12.941  11.218  14.298
 6749W        W79174  24.014  33.475   3.242
 6750W        W79175  10.724  34.623  14.682
 6751W        W79176  26.140   1.249   0.644
 6752W        W79177  15.700   8.464   2.866
 6753W        W79178   7.414   8.173   0.330
 6754W        W79179  37.322  15.091   0.430
 6755W        W79180  37.927  28.029   4.133
 6756W        W79181  25.596  21.128  14.671
 6757W        W79182   8.594  32.434  11.664
 6758W        W79183   2.422  15.111  13.319
 6759W        W79184   4.154   8.891  11.094
 6760W        W79185  40.094  34.314  12.977
 6761W        W79186  30.285  31.669  11.114
 6762W        W79187  20.712   9.351   3.702
 6763W        W79188  13.974  12.389  12.941
 6764W        W79189  27.645  31.912   3.843
 6765W        W79190  28.960  41.188   2.767
 6766W        W79191  24.551  16.823  13.372
 6767W        W79192  26.294   6.274   0.063
 6768W        W79193  28.467   5.768   1.926
 6769W        W79194  40.846  11.951   3.781
 6770W        W79195   0.460  40.521   2.344
 6771W        W79196  19.206  44.797  13.364
 6772W        W79197  41.556  25.970  12.341
 6773W        W79198  34.345   8.752   1.434
 6774W        W79199  10.250  24.040   3.401
 6775W        W79200   1.479  36.577  13.415
 6776W        W79201  36.021   4.318  12.888
 6777W        W79202  27.342  11.698   3.068
 6778W        W79203  41.874  40.371   4.807
 6779W        W79204  12.565   2.296  12.421
 6780W        W79205  18.793   8.718   1.767
 6781W        W79206  21.638  37.550   1.718
 6782W        W79207  29.425  41.376   5.473
 6783W        W79208  17.771   9.355   4.842
 6784W        W79209  22.492  26.629  10.017
 6785W        W79210  37.430  41.991   1.794
 6786W        W79211  21.261  21.364  11.778
 6787W        W79212  33.561   4.342  14.568
 6788W        W79213  42.337   7.310  11.034
 6789W        W79214  41.106   0.918   4.561
 6790W        W79215  10.807  37.751   4.849
 6791W        W79216  41.414  44.825   3.712
 6792W        W79217  44.218   8.208  13.258
 6793W        W79218  14.153  25.021  12.063
 6794W        W79219   2.316  22.133   0.440
 6795W        W79220  31.455  15.046  12.082
 6796W        W79221  14.482  41.222   4.473
 6797W        W79222  31.009   0.621  14.227
 6798W        W79223  31.877   5.260  12.860
 6799W        W79224  28.071  19.475   1.967
 6800W        W79225  12.114  37.341  12.970
 6801W        W79226   4.277  23.946   0.726
 6802W        W79227  44.399  37.668   4.626
 6803W        W79228  29.313  17.549   3.190
 6804W        W79229  32.142  15.687   3.357
 6805W        W79230  16.175  21.474  11.159
 6806W        W79231  32.790  22.719   0.080
 6807W        W79232  12.343  10.676  14.378
 6808W        W79233  40.629  18.630  10.972
 6809W        W79234   4.076  22.613   1.708
 6810W        W79235  12.730  32.030  12.347
 6811W        W79236   9.294  35.550  11.604
 6812W        W79237  14.422   1.263  13.456
 6813W        W79238  23.644   4.449   3.098
 6814W        W79239  22.248  44.120  11.461
 6815W        W79240  28.950  15.696   0.697
 6816W        W79241   5.727  18.655   4.421
 6817W        W79242  36.101  12.385   0.784
 6818W        W79243  30.445  40.482  12.928
 6819W        W79244   7.390  23.952   4.498
 6820W        W79245  32.545  41.076   0.374
 6821W        W79246  21.479   9.200   4.169
 6822W        W79247  37.131  43.342  10.754
 6823W        W79248  29.967   1.068   4.606
 6824W        W79249   9.703  14.732   2.714
 6825W        W79250  30.436  25.532  14.060
 6826W        W79251  27.244  39.270  13.345
 6827W        W79252   7.379   5.670   0.089
 6828W        W79253  16.820   1.536  11.993
 6829W        W79254   2.670  19.495   1.260
 6830W        W79255  31.042  22.587   5.015
 6831W        W79256  23.581  31.489  14.372
 6832W        W79257  32.446  38.288  12.081
 6833W        W79258  32.064   6.755  12.523
 6834W        W79259  25.173  10.131   5.085
 6835W        W79260   2.031  30.861   2.626
 6836W        W79261  10.658   9.008   3.271
 6837W        W79262  31.903  39.899  12.502
 6838W        W79263  37.055  20.207   2.791
 6839W        W79264  16.907   4.941   1.683
 6840W        W79265  20.738  18.707  14.978
 6841W        W79266  22.676  29.989  12.334
 6842W        W79267  10.797  28.047   0.292
 6843W        W79268  17.383  37.941  14.853
 6844W        W79269  24.904  31.205  14.985
 6845W        W79270  17.634   0.680   4.791
 6846W        W79271  38.911  25.259   2.225
 6847W        W79272  13.738  25.872  14.281
 6848W        W79273  26.056   0.750  14.471
 6849W        W79274  23.824  35.637  13.100
 6850W        W79275  18.170  24.170  11.416
 6851W        W79276  21.603   3.255   3.891
 6852W        W79277  38.951  11.708   3.594
 6853W        W79278  27.905  38.017  10.370
 6854W        W79279  18.094   5.828   4.115
 6855W        W79280   3.551  31.858  11.210
 6856W        W79281   1.229  22.505  12.892
 6857W        W79282   0.434  23.685  14.394
 6858W        W79283  18.972  44.501  14.940
 6859W        W79284  12.423  13.136  12.553
 6860W        W79285  31.575  32.454   3.777
 6861W        W79286  26.670  28.001   3.367
 6862W        W79287  32.954  14.205   2.248
 6863W        W79288  35.835  17.253   1.787
 6864W        W79289  40.422  23.628   2.808
 6865W        W79290  14.752  21.136  13.904
 6866W        W79291  29.474  44.791   4.590
 6867W        W79292  28.160  23.612  10.268
 6868W        W79293   9.105  17.601  10.739
 6869W        W79294  24.591  11.762   4.402
 6870W        W79295  33.709  18.708   3.236
 6871W        W79296   1.024  43.949   3.757
 6872W        W79297  42.507   4.673   4.490
 6873W        W79298   7.452  17.599   3.079
 6874W        W79299  44.240  43.424  12.966
 6875W        W79300  24.544  19.137  11.601
 6876W        W79301  25.462  19.620   0.641
 6877W        W79302  38.834  42.531   1.322
 6878W        W79303  43.067  29.043   2.131
 6879W        W79304  23.089   5.989   0.771
 6880W        W79305  39.840  32.235  10.200
 6881W        W79306  14.551   9.854   0.538
 6882W        W79307   3.917   1.392  11.007
 6883W        W79308  31.853  44.874   1.358
 6884W        W79309  24.075  12.560  13.450
 6885W        W79310  10.218  26.870  14.547
 6886W        W79311  42.867   3.801  11.864
 6887W        W79312  31.698  44.256   3.157
 6888W        W79313  17.349   5.999   0.060
 6889W        W79314  39.326  30.034   0.961
 6890W        W79315  14.198  24.711   0.297
 6891W        W79316   9.524   3.986   1.401
 6892W        W79317  42.372  41.469  10.454
 6893W        W79318  20.400  35.479   4.566
 6894W        W79319   0.714  21.980   4.700
 6895W        W79320   0.291   1.738   4.644
 6896W        W79321  25.955  11.064   0.365
 6897W        W79322  10.752   8.704  12.108
 6898W        W79323  22.092  44.232   4.303
 6899W        W79324   9.496  43.405   4.046
 6900W        W79325  17.578  39.472  12.061
 6901W        W79326   8.428  23.030  13.933
 6902W        W79327  44.853   4.638   3.268
 6903W        W79328  20.010  30.192  14.291
 6904W        W79329  36.024  34.337  13.461
 6905W        W79330  44.245  34.441  12.613
 6906W        W79331  19.073  14.125  12.959
 6907W        W79332   2.321  29.048  10.258
 6908W        W79333  19.028  34.592  11.148
 6909W        W79334  17.085  30.495   4.148
 6910W        W79335  41.153  18.597   3.795
 6911W        W79336   0.792   6.169   4.194
 6912W        W79337  35.853  17.517  11.581
 6913W        W79338   0.901  22.399  13.373
 6914W        W79339  34.028  34.514   2.269
 6915W        W79340  13.750  11.072  13.115
 6916W        W79341  40.383   3.420   5.011
 6917W        W79342   1.042  10.890   1.679
 6918W        W79343   5.315  18.464  13.115
 6919W        W79344  39.794   1.398  14.913
 6920W        W79345  20.679  22.614  11.009
 6921W        W79346  17.309  24.020  13.322
 6922W        W79347  12.705  30.983   3.570
 6923W        W79348  14.037  28.646  12.038
 6924W        W79349  33.162  12.402  11.656
 6925W        W79350  10.761  21.499   4.106
 6926W        W79351  33.359  21.846   1.466
 6927W        W79352  11.347  31.431  10.226
 6928W        W79353   3.963   8.932   2.380
 6929W        W79354   2.446  18.126  14.025
 6930W        W79355  44.739  30.113  11.428
 6931W        W79356   6.145   0.491   0.751
 6932W        W79357  35.889  39.396  14.737
 6933W        W79358  39.248  14.197  12.063
 6934W        W79359   2.347  42.427   3.265
 6935W        W79360  37.797  12.248   1.689
 6936W        W79361  15.621  44.394  11.018
 6937W        W79362  21.633  28.208  14.242
 6938W        W79363   0.189  25.654   1.666
 6939W        W79364  25.684  12.997   2.072
 6940W        W79365  26.453   4.332   5.251
 6941W        W79366  25.001  44.689   0.078
 6942W        W79367  26.653  34.994   0.991
 6943W        W79368   9.130  30.215  11.950
 6944W        W79369  15.385   5.715  14.882
 6945W        W79370  10.113  16.377  14.901
 6946W        W79371  44.328  11.097  11.984
 6947W        W79372   9.510  28.013   0.835
 6948W        W79373   6.383  39.962   4.295
 6949W        W79374  11.119  43.749   1.249
 6950W        W79375  22.173  10.333  10.625
 6951W        W79376  11.109  44.456   4.019
 6952W        W79377  40.894  13.644   1.781
 6953W        W79378  37.554   5.089   4.228
 6954W        W79379   8.773  43.433  10.689
 6955W        W79380  17.707  22.025  14.403
 6956W        W79381  38.380  20.151   3.150
 6957W        W79382  37.808  38.350  10.416
 6958W        W79383  42.952  42.516  10.936
 6959W        W79384   6.894  22.243  10.937
 6960W        W79385  33.125  31.377   2.928
 6961W        W79386  33.884  14.086  14.256
 6962W        W79387   4.445  22.935  11.995
 6963W        W79388  35.499  32.600   2.194
 6964W        W79389  17.642  24.639  14.559
 6965W        W79390  32.207  44.419  13.315
 6966W        W79391  35.196  13.900  13.956
 6967W        W79392  31.554  34.339   2.237
 6968W        W79393  21.802  25.207   4.620
 6969W        W79394  44.223   3.710   2.692
 6970W        W79395  30.943  19.220  10.720
 6971W        W79396   2.900  20.726  10.354
 6972W        W79397   1.480  26.029   2.934
 6973W        W79398  14.202  30.024   4.475
 6974W        W79399   7.724   8.911   3.812
 6975W        W79400  12.828  32.147  14.222
 6976W        W79401   0.734  23.154   1.080
 6977W        W79402  32.075  35.680   1.425
 6978W        W79403   1.792   5.440  12.386
 6979W        W79404  23.776   4.665  14.931
 6980W        W79405  44.705  31.416  12.610
 6981W        W79406  10.104  36.331  14.331
 6982W        W79407  14.228  19.163  10.745
 6983W        W79408   3.850  41.940  12.729
 6984W        W79409  28.649  21.738   4.535
 6985W        W79410  30.637  39.056   0.393
 6986W        W79411  43.964  24.423   2.767
 6987W        W79412  18.857  38.951  11.030
 6988W        W79413  28.156   9.438   1.281
 6989W        W79414  36.410   3.981  13.039
 6990W        W79415  44.454  14.285   2.685
 6991W        W79416  19.571   0.106  12.348
 6992W        W79417  24.075  22.175  14.792
 6993W        W79418  37.714   8.771  13.278
 6994W        W79419  13.642  29.901   0.185
 6995W        W79420  35.006  29.868  14.350
 6996W        W79421   8.381  33.910  11.150
 6997W        W79422   7.294  41.249   2.426
 6998W        W79423  25.517   7.494  11.044
 6999W        W79424  18.310   1.312  12.008
 7000W        W79425  11.173  34.362  11.134
 7001W        W79426  41.926  34.112   2.542
 7002W        W79427   0.300   8.763   3.792
 7003W        W79428  27.405  24.275  14.099
 7004W        W79429  41.771  14.002  10.198
 7005W        W79430   2.683  24.470   3.196
 7006W        W79431  26.086  18.373   0.790
 7007W        W79432   2.504  26.006   2.672
 7008W        W79433  30.228  42.491  10.923
 7009W        W79434  40.164  42.541  12.497
 7010W        W79435  13.568  13.276   3.095
 7011W        W79436   8.428  25.416  11.923
 7012W        W79437   0.758  27.500   3.797
 7013W        W79438  17.795  11.183   2.752
 7014W        W79439  41.029   7.228  13.018
 7015W        W79440  44.010  14.483  14.322
 7016W        W79441  36.633   9.300   4.033
 7017W        W79442  42.418  39.978  10.343
 7018W        W79443   5.420   4.634  10.333
 7019W        W79444   3.370  13.133   0.271
 7020W        W79445  10.733   2.880  14.882
 7021W        W79446  40.547  15.336   1.001
 7022W        W79447  25.666  11.807  14.364
 7023W        W79448  32.956   0.262  12.130
 7024W        W79449  37.476  28.056   3.854
 7025W        W79450  39.970  31.496  10.777
 7026W        W79451  11.252  10.157  11.837
 7027W        W79452  24.136  11.714   4.100
 7028W        W79453  40.304  44.880   2.409
 7029W        W79454  29.371  37.988  10.722
 7030W        W79455   3.841  31.854   4.422
 7031W        W79456  43.405  23.290   1.979
 7032W        W79457  37.423   8.184   4.318
 7033W        W79458  25.142  11.313  10.680
 7034W        W79459  44.381  44.255   1.245
 7035W        W79460  34.132  34.851   0.344
 7036W        W79461  16.286  10.999  12.588
 7037W        W79462  10.234  11.536   1.340
 7038W        W79463  22.175  42.937  14.858
 7039W        W79464  44.202   1.734  13.091
 7040W        W79465  40.474  31.167  11.046
 7041W        W79466  44.578  20.384   1.307
 7042W        W79467  19.033  37.814  12.393
 7043W        W79468  35.819  37.957   3.712
 7044W        W79469  23.694  34.485   2.412
 7045W        W79470  34.004  38.099   1.172
 7046W        W79471  23.063  39.439   0.682
 7047W        W79472  34.238   4.857   0.416
 7048W        W79473  11.266  33.020  13.930
 7049W        W79474  35.315  29.382  12.830
 7050W        W79475   5.178  30.169   1.491
 7051W        W79476   9.670  29.209   3.242
 7052W        W79477  15.223  13.080   0.411
 7053W        W79478  24.602   8.435   2.840
 7054W        W79479  25.222   8.303  11.132
 7055W        W79480  14.142  30.536  12.863
 7056W        W79481  23.466   5.727  11.166
 7057W        W79482  35.808  28.212  14.792
 7058W        W79483   7.886   1.283  11.983
 7059W        W79484  44.780  20.273   3.636
 7060W        W79485   8.172  13.993  12.156
 7061W        W79486  34.042  33.629   4.188
 7062W        W79487  43.202  32.129  11.148
 7063W        W79488   1.646  34.500  13.883
 7064W        W79489  44.086  17.560  13.804
 7065W        W79490  24.668   1.556  12.956
 7066W        W79491  14.106  12.420  11.489
 7067W        W79492  17.447  28.532   4.614
 7068W        W79493  40.368  31.662  13.545
 7069W        W79494  25.941   9.274  12.100
 7070W        W79495  14.219  19.912  12.036
 7071W        W79496  18.483  25.630   2.460
 7072W        W79497  36.794   9.195   4.499
 7073W        W79498  22.311   2.916   3.714
 7074W        W79499  21.251  10.859   3.330
 7075W        W79500  36.727   4.508   2.167
 7076W        W79501  11.447  26.377   4.619
 7077W        W79502  21.035  35.097   3.971
 7078W        W79503  36.631  11.079  10.525
 7079W        W79504  31.702   9.604  10.685
 7080W        W79505  23.255  31.610   3.831
 7081W        W79506  20.854   0.419   0.691
 7082W        W79507  30.992  14.867   1.643
 7083W        W79508  29.634  35.610   1.878
 7084W        W79509   6.414  33.656   3.175
 7085W        W79510  33.499  32.488  14.580
 7086W        W79511  40.560  44.698   1.619
 7087W        W79512  16.158  40.059  14.787
 7088W        W79513  14.986   5.348  11.306
 7089W        W79514  42.458  17.701  10.785
 7090W        W79515  37.320  36.531   2.390
 7091W        W79516  13.261   5.855   2.133
 7092W        W79517  43.935  44.380   4.575
 7093W        W79518  14.876  27.194  13.305
 7094W        W79519  29.242  25.463  12.088
 7095W        W79520  24.181  20.961   1.346
 7096W        W79521  35.491  22.425  12.992
 7097W        W79522   0.160   0.793   1.089
 7098W        W79523  28.122  36.155   0.721
 7099W        W79524  20.749   3.400   3.436
 7100W        W79525  31.474  22.759   4.804
 7101W        W79526  34.576  15.706   1.396
 7102W        W79527  35.193   9.568   4.643
 7103W        W79528  22.252  24.240   1.164
 7104W        W79529  37.785   8.456   4.588
 7105W        W79530  23.424  39.016  12.112
 7106W        W79531  29.357  15.802  13.844
 7107W        W79532  18.756   5.934   0.103
 7108W        W79533  11.896   1.541  11.677
 7109W        W79534  14.942  19.073   3.967
 7110W        W79535  11.777   6.691  14.947
 7111W        W79536  33.245  18.087  12.386
 7112W        W79537  25.419   5.706  12.483
 7113W        W79538  34.868  40.321  12.452
 7114W        W79539  17.446   7.123  11.107
 7115W        W79540  29.066  18.017   4.487
 7116W        W79541  31.230  14.466   0.898
 7117W        W79542  15.803  13.663  11.481
 7118W        W79543  21.190  27.725  12.348
 7119W        W79544  36.845   6.024  11.608
 7120W        W79545  39.440  10.935   1.237
 7121W        W79546  23.623   3.757   4.200
 7122W        W79547  30.469   5.395  10.456
 7123W        W79548   4.992  28.913  13.746
 7124W        W79549  27.285  33.927   3.428
 7125W        W79550  27.314  33.095   4.482
 7126W        W79551  34.658   5.865   0.470
 7127W        W79552  11.097  35.108   0.200
 7128W        W79553  35.432  29.701   2.867
 7129W        W79554  13.727   4.701   5.544
 7130W        W79555  24.470  35.979  13.845
 7131W        W79556  18.569   7.100  11.599
 7132W        W79557  26.524  41.540   4.632
 7133W        W79558  36.244  39.895   2.837
 7134W        W79559  43.476  28.048   4.080
 7135W        W79560  39.442   7.814   0.177
 7136W        W79561  28.441   8.435  12.907
 7137W        W79562   8.709  10.064   3.638
 7138W        W79563   5.362  36.672   3.318
 7139W        W79564  32.020  36.413   4.243
 7140W        W79565  27.293   0.231  13.298
 7141W        W79566  32.175  31.516  10.589
 7142W        W79567  26.903  33.105   0.522
 7143W        W79568  16.057   1.267  11.058
 7144W        W79569  19.755  20.693   0.495
 7145W        W79570   5.416  13.670   4.689
 7146W        W79571  22.226  40.822   1.492
 7147W        W79572  35.969  17.783   1.729
 7148W        W79573   8.463  28.380   2.859
 7149W        W79574  32.474  43.410   3.861
 7150W        W79575  44.779  43.565  13.984
 7151W        W79576   3.825  24.522  11.608
 7152W        W79577  40.398  11.949  13.450
 7153W        W79578   8.264  21.095   0.276
 7154W        W79579  21.511  34.066  14.557
 7155W        W79580  29.140  27.734   3.120
 7156W        W79581  11.684  18.999   3.458
 7157W        W79582   1.390   8.250  13.293
 7158W        W79583  23.263   7.862   1.012
 7159W        W79584  27.716  22.321   5.476
 7160W        W79585  36.129  20.972   1.089
 7161W        W79586  32.527  38.295   2.873
 7162W        W79587   7.790  24.658  12.147
 7163W        W79588  16.435  34.553  10.072
 7164W        W79589  27.983   5.391   2.111
 7165W        W79590  25.617  34.310  11.729
 7166W        W79591  28.680  28.300   2.382
 7167W        W79592  39.518  37.785  14.351
 7168W        W79593  25.204  29.142   5.152
 7169W        W79594  27.536  35.184  12.498
 7170W        W79595  31.702  12.899   1.806
 7171W        W79596  38.497  22.118  14.770
 7172W        W79597  27.341  29.267  10.507
 7173W        W79598  42.976  16.663   4.929
 7174W        W79599  31.552  21.603  12.862
 7175W        W79600  25.154  18.114   3.291
 7176W        W79601  16.081   4.334   1.253
 7177W        W79602  25.964  16.198   2.151
 7178W        W79603  39.608   2.312   2.850
 7179W        W79604   0.784  24.294  11.612
 7180W        W79605   8.835  15.903   4.163
 7181W        W79606  41.353  12.634  12.846
 7182W        W79607  23.821  18.868  13.057
 7183W        W79608  12.316   5.357  12.398
 7184W        W79609  28.359   4.686  11.470
 7185W        W79610  24.574  43.019  11.485
 7186W        W79611  16.902   8.164   4.737
 7187W        W79612   2.632   9.724   3.728
 7188W        W79613   6.117  22.366   3.328
 7189W        W79614  37.494  32.259   4.067
 7190W        W79615  27.531  19.196  10.655
 7191W        W79616  23.074  31.358   2.946
 7192W        W79617  12.837  18.111   1.732
 7193W        W79618  24.880   1.653   4.506
 7194W        W79619  27.614   5.137   2.387
 7195W        W79620  24.068  13.685  11.114
 7196W        W79621  21.077  43.659  12.324
 7197W        W79622   7.454   4.426   3.666
 7198W        W79623  10.974   0.707  10.666
 7199W        W79624   8.193  21.579   0.468
 7200W        W79625  24.807  34.040  12.468
 7201W        W79626  27.297  34.978   3.912
 7202W        W79627  32.007  19.179   3.852
 7203W        W79628  44.867  18.339   2.795
 7204W        W79629  40.388  42.997   3.247
 7205W        W79630  10.484  34.420  14.282
 7206W        W79631   4.638   8.738  11.997
 7207W        W79632  34.012  21.247  14.544
 7208W        W79633  16.522  42.914   4.117
 7209W        W79634  43.206  38.068  12.310
 7210W        W79635  44.844  12.238   0.458
 7211W        W79636  34.164  36.445   0.724
 7212W        W79637   3.190   8.122  12.224
 7213W        W79638  40.074  14.755  11.976
 7214W        W79639   4.865   8.430  14.451
 7215W        W79640  28.513   3.415  11.295
 7216W        W79641   4.305  36.935   2.778
 7217W        W79642  18.045  18.607  13.033
 7218W        W79643  12.609  29.079  12.013
 7219W        W79644  38.053  44.512  11.434
 7220W        W79645  26.272   3.936   2.717
 7221W        W79646  44.436  36.006   3.891
 7222W        W79647  10.324  41.879  11.957
 7223W        W79648   5.383  11.446  13.445
 7224W        W79649   6.391   9.136  12.449
 7225W        W79650  16.532   8.504   3.711
 7226W        W79651  42.485   8.920  13.082
 7227W        W79652  34.796  24.620   4.103
 7228W        W79653   4.677   2.505   1.757
 7229W        W79654  16.180  28.643   1.787
 7230W        W79655  43.309  36.934  11.188
 7231W        W79656  39.488  32.520  13.303
 7232W        W79657  35.023  27.020  11.593
 7233W        W79658  13.533  32.949  11.188
 7234W        W79659   0.313  37.155  10.682
 7235W        W79660  14.530  40.509   1.234
 7236W        W79661  40.791  19.655   4.207
 7237W        W79662   4.344  25.505   0.927
 7238W        W79663  27.066  24.218  12.486
 7239W        W79664  11.981  28.006   4.102
 7240W        W79665  35.173  36.352  10.642
 7241W        W79666  42.574  39.319   1.298
 7242W        W79667  18.280  25.849   1.661
 7243W        W79668  36.949  42.249   5.074
 7244W        W79669   8.959  31.397   3.281
 7245W        W79670   0.466   4.611   1.000
 7246W        W79671   5.519  43.937  11.481
 7247W        W79672  41.949  15.564  12.897
 7248W        W79673   6.417  37.121   2.131
 7249W        W79674  43.953  37.404   2.171
 7250W        W79675  38.529  17.228  12.149
 7251W        W79676   7.661  44.304   2.249
 7252W        W79677  12.791   8.335   1.001
 7253W        W79678  10.687   1.888   4.922
 7254W        W79679  23.733   9.649  12.199
 7255W        W79680  29.364  41.925  12.693
 7256W        W79681  14.841   4.400  12.913
 7257W        W79682   3.977  12.918  14.807
 7258W        W79683   4.889  28.527   3.088
 7259W        W79684  25.021  30.441  11.008
 7260W        W79685   7.616  30.063  13.379
 7261W        W79686  13.796  23.659  14.025
 7262W        W79687  27.382  17.566  12.489
 7263W        W79688  31.691  34.637  14.397
 7264W        W79689   1.522  43.277   2.370
 7265W        W79690  16.213  36.923   4.440
 7266W        W79691   4.857   1.046   0.458
 7267W        W79692  11.094  12.631   3.678
 7268W        W79693   7.474  36.010  13.557
 7269W        W79694  36.873  25.229  11.186
 7270W        W79695  20.598  41.021   2.936
 7271W        W79696  21.216  13.404   2.511
 7272W        W79697  41.085  12.108  14.780
 7273W        W79698  36.112   2.919  11.547
 7274W        W79699   5.673  39.444  14.376
 7275W        W79700  32.406   6.744  14.057
 7276W        W79701  34.969   8.708   2.907
 7277W        W79702  37.229  18.007  11.583
 7278W        W79703   1.326   2.737  13.060
 7279W        W79704  13.206  12.124   1.715
 7280W        W79705  25.535  28.365   4.263
 7281W        W79706  16.620  36.400   2.939
 7282W        W79707   7.908  13.257  14.885
 7283W        W79708   6.475  37.146   0.630
 7284W        W79709  35.984  16.278   0.838
 7285W        W79710   6.181  14.149  14.562
 7286W        W79711  31.649   3.901   1.382
 7287W        W79712  37.442  18.682   0.865
 7288W        W79713  23.162  21.026   3.306
 7289W        W79714  12.654  11.057  11.127
 7290W        W79715  18.960  10.661   1.347
 7291W        W79716  40.652  42.428  12.368
 7292W        W79717  44.423  26.203  12.505
 7293W        W79718  33.811  11.188  10.485
 7294W        W79719   4.899  16.365   2.722
 7295W        W79720   9.335   5.749  12.534
 7296W        W79721   4.390  21.688   2.835
 7297W        W79722  10.229  32.780  12.479
 7298W        W79723   6.111  37.389   0.327
 7299W        W79724  15.736  32.686  10.027
 7300W        W79725  26.126  19.419   1.571
 7301W        W79726  42.351  41.728   1.282
 7302W        W79727   6.834  23.842  10.992
 7303W        W79728  20.297  43.411   0.909
 7304W        W79729  15.307  25.284   2.204
 7305W        W79730  32.929  20.711  13.473
 7306W        W79731   3.921  36.951  11.401
 7307W        W79732  30.865  39.815  13.918
 7308W        W79733   5.271  35.597  10.608
 7309W        W79734  18.108  35.310   0.456
 7310W        W79735  31.617  12.260  11.553
 7311W        W79736  24.133   5.286   3.746
 7312W        W79737  31.560   3.915  10.832
 7313W        W79738  11.969  44.869   1.505
 7314W        W79739  29.569  26.334   4.104
 7315W        W79740  19.964   7.214   0.035
 7316W        W79741  28.517  37.483  13.555
 7317W        W79742  25.220  21.742   1.682
 7318W        W79743   8.697  29.902  14.728
 7319W        W79744   4.387  39.770   3.741
 7320W        W79745  42.844  31.207   1.887
 7321W        W79746  24.266  22.037  12.851
 7322W        W79747  24.075  25.261  11.570
 7323W        W79748  43.288  32.355  10.243
 7324W        W79749  25.289   8.269  14.701
 7325W        W79750   8.355   9.649   1.472
 7326W        W79751  19.193   1.489   3.941
 7327W        W79752  43.922  15.273   4.407
 7328W        W79753  43.230   6.414   3.150
 7329W        W79754  13.150  29.700  12.087
 7330W        W79755   0.923  17.235  12.856
 7331W        W79756   6.914   6.792   4.157
 7332W        W79757  42.037  39.950   4.090
 7333W        W79758  30.991   1.372   4.635
 7334W        W79759   1.260   0.513  13.399
 7335W        W79760  35.478  34.770  14.979
 7336W        W79761  11.909   5.229   0.603
 7337W        W79762  24.692  11.415  12.540
 7338W        W79763  13.399  29.164   2.791
 7339W        W79764  34.732  10.140  14.901
 7340W        W79765  40.855  25.463  13.606
 7341W        W79766  25.374  15.911  14.453
 7342W        W79767  32.887  44.413  14.931
 7343W        W79768  42.348  14.992   1.788
 7344W        W79769   3.310   7.695   4.235
 7345W        W79770  36.041   2.223   4.673
 7346W        W79771   6.346  13.154  10.756
 7347W        W79772  23.631  32.715  13.792
 7348W        W79773  28.037  18.034   3.619
 7349W        W79774  43.075  28.121   3.252
 7350W        W79775   5.395   0.934  13.010
 7351W        W79776  25.041  38.981  12.198
 7352W        W79777  24.066  38.521   4.812
 7353W        W79778   2.792  33.622  13.313
 7354W        W79779  22.193   1.307   4.500
 7355W        W79780   9.116  28.144  13.930
 7356W        W79781  20.996  30.709   3.858
 7357W        W79782  27.507  20.304   3.250
 7358W        W79783  10.828  12.698  12.840
 7359W        W79784  36.140   6.762  11.098
 7360W        W79785  11.205  18.712   0.965
 7361W        W79786  15.334  15.757   3.157
 7362W        W79787  31.905   7.650   0.953
 7363W        W79788  25.470  36.035   4.963
 7364W        W79789  11.308  27.366   1.938
 7365W        W79790  25.341  31.133   4.343
 7366W        W79791  29.591  25.720   1.328
 7367W        W79792  39.499  11.659  14.362
 7368W        W79793  10.305  31.144   1.285
 7369W        W79794   5.359  31.681   2.199
 7370W        W79795  17.925  30.459  11.427
 7371W        W79796  40.995   4.396  14.083
 7372W        W79797  35.183  15.337  12.780
 7373W        W79798  39.318   4.017  13.430
 7374W        W79799  37.846  30.238  13.100
 7375W        W79800  14.238   8.384  14.721
 7376W        W79801  11.252   5.700   0.829
 7377W        W79802  17.053  16.996  13.561
 7378W        W79803  21.837   9.168   3.177
 7379W        W79804  44.999  43.449  10.390
 7380W        W79805  13.642  29.240   4.995
 7381W        W79806  16.381  17.162   0.242
 7382W        W79807  23.579  33.363   3.786
 7383W        W79808  16.352  25.418   3.724
 7384W        W79809  11.877   0.712   5.072
 7385W        W79810   6.183   8.889  12.021
 7386W        W79811  39.422  22.224   1.222
 7387W        W79812  16.857  17.107   3.639
 7388W        W79813  34.933   5.644  12.007
 7389W        W79814   6.334   8.230   0.253
 7390W        W79815  14.360  33.044  10.289
 7391W        W79816  38.042   6.074  11.501
 7392W        W79817  44.893   5.415  12.076
 7393W        W79818  31.783  22.384  14.697
 7394W        W79819  43.008   2.827  11.484
 7395W        W79820  32.922  22.137  13.854
 7396W        W79821   7.863   1.075   2.845
 7397W        W79822  28.110  33.670  10.639
 7398W        W79823   5.860  29.576   3.375
 7399W        W79824   5.288  29.725   2.403
 7400W        W79825  32.601   6.352  11.941
 7401W        W79826  27.379  20.620  13.355
 7402W        W79827  16.631  34.351   2.230
 7403W        W79828  16.873  22.294  14.245
 7404W        W79829  12.890  42.401  14.484
 7405W        W79830  13.652   4.252  11.159
 7406W        W79831  22.173  33.130  13.056
 7407W        W79832  30.141  24.440  14.021
 7408W        W79833   8.914  34.456  10.625
 7409W        W79834  37.514   1.654   2.925
 7410W        W79835  39.424  30.949   3.662
 7411W        W79836  40.126  17.303  13.595
 7412W        W79837  23.221  30.303   3.181
 7413W        W79838  40.992  23.132  12.642
 7414W        W79839  41.032  19.206  11.518
 7415W        W79840   2.954  17.171   1.043
 7416W        W79841  31.817  17.344   3.624
 7417W        W79842  36.851  11.093   3.249
 7418W        W79843   4.456  34.914   2.909
 7419W        W79844  12.672  44.442   0.211
 7420W        W79845  36.291  24.956   2.627
 7421W        W79846  39.849   7.939   4.188
 7422W        W79847  26.719  15.608  12.868
 7423W        W79848  38.057  18.789   1.296
 7424W        W79849  18.216  34.636  14.241
 7425W        W79850  18.224  38.553  11.103
 7426W        W79851  37.084  26.450  10.213
 7427W        W79852  32.078  38.751  11.675
 7428W        W79853  21.614  31.581  13.630
 7429W        W79854  25.963  26.429  10.453
 7430W        W79855  39.976  31.425   1.396
 7431W        W79856   7.841  23.709  14.921
 7432W        W79857  12.300  37.943   1.437
 7433W        W79858  25.647   0.390   1.229
 7434W        W79859   9.348  29.634   3.605
 7435W        W79860   7.738  13.751  13.675
 7436W        W79861   4.930   7.885  14.496
 7437W        W79862  28.044  34.343   4.071
 7438W        W79863  42.055  35.899   0.826
 7439W        W79864  26.939   3.693  13.583
 7440W        W79865  44.383   0.689  10.657
 7441W        W79866   1.129  39.762   0.475
 7442W        W79867  15.338  10.560  14.404
 7443W        W79868   2.722  11.086  12.440
 7444W        W79869  10.759  40.286   2.089
 7445W        W79870  21.217   7.203   3.343
 7446W        W79871  26.965  30.350  11.089
 7447W        W79872  24.429   8.667   2.354
 7448W        W79873  25.078  40.190   3.629
 7449W        W79874  41.041  29.019   2.492
 7450W        W79875   2.684  15.291   0.843
 7451W        W79876  23.135  37.518  13.615
 7452W        W79877  19.129  26.181   0.524
 7453W        W79878  22.873  26.179  14.445
 7454W        W79879  12.399  25.805   1.211
 7455W        W79880  13.923   1.847  12.457
 7456W        W79881  31.178   3.783   4.650
 7457W        W79882  16.723  33.151  12.423
 7458W        W79883  12.152  16.850   0.508
 7459W        W79884  41.576   3.168  14.990
 7460W        W79885  28.743  16.659  14.753
 7461W        W79886   7.933  27.838  13.439
 7462W        W79887  23.644  16.231  14.532
 7463W        W79888  10.113  35.092   1.387
 7464W        W79889  21.590  38.794   4.076
 7465W        W79890   9.667  16.886  10.596
 7466W        W79891  19.450  33.510   1.827
 7467W        W79892  13.042  17.574   1.785
 7468W        W79893  23.060  44.803   4.746
 7469W        W79894  10.152  44.079  11.919
 7470W        W79895  31.866   1.517  13.527
 7471W        W79896  21.781  20.192   1.772
 7472W        W79897   9.218   2.523   1.250
 7473W        W79898  33.104  10.780  11.578
 7474W        W79899  41.368   0.969   2.059
 7475W        W79900  38.093  17.095   3.184
 7476W        W79901  11.823   7.109   1.853
 7477W        W79902  15.054  22.172   4.601
 7478W        W79903  13.938  14.303   4.102
 7479W        W79904  32.851  29.012  11.024
 7480W        W79905  37.023  23.628  12.089
 7481W        W79906  41.236  38.955  14.110
 7482W        W79907  21.709  44.088   2.803
 7483W        W79908  22.892  44.403  10.757
 7484W        W79909  28.617   4.330   4.590
 7485W        W79910  31.157  35.003  13.066
 7486W        W79911  40.803   4.366   3.465
 7487W        W79912  13.683  38.443  14.039
 7488W        W79913   8.093  37.044   0.482
 7489W        W79914  20.010  36.323   3.322
 7490W        W79915  28.391  14.001  14.310
 7491W        W79916  26.119  17.068   4.582
 7492W        W79917  27.939   4.926   4.588
 7493W        W79918  33.559  43.509  12.315
 7494W        W79919   4.146  32.440   2.364
 7495W        W79920  40.317  28.910   2.387
 7496W        W79921  19.798  34.957  12.420
 7497W        W79922  40.980  32.044  14.025
 7498W        W79923   7.365  12.617  14.926
 7499W        W79924  21.010  24.813   0.892
 7500W        W79925  25.052  32.591   3.264
 7501W        W79926  17.207  36.071   2.972
 7502W        W79927   5.934  25.243   0.385
 7503W        W79928  43.200  12.293   1.869
 7504W        W79929   1.027  22.204  14.973
 7505W        W79930  42.100   2.803   3.614
 7506W        W79931   4.973  12.324  11.037
 7507W        W79932  41.040  38.923  11.592
 7508W        W79933  36.476   1.966   0.034
 7509W        W79934  10.648  37.339  12.565
 7510W        W79935  20.527  35.127   3.324
 7511W        W79936  40.517   6.721  10.030
 7512W        W79937  29.546   1.440   1.556
 7513W        W79938  22.160  23.146  10.742
 7514W        W79939  42.197  21.986   1.407
 7515W        W79940  37.453   8.652  14.144
 7516W        W79941  11.632  42.425   0.766
 7517W        W79942  20.114  30.973   3.395
 7518W        W79943  33.434  32.084  13.508
 7519W        W79944  14.811  33.688   2.734
 7520W        W79945  10.334  12.028   1.217
 7521W        W79946  30.766  21.189  10.551
 7522W        W79947  34.399  23.456  12.186
 7523W        W79948  10.234  30.219   3.725
 7524W        W79949  34.958  42.482   0.438
 7525W        W79950  21.181  21.475   4.678
 7526W        W79951  16.311  15.103  14.538
 7527W        W79952  18.602   7.662   0.244
 7528W        W79953  22.880  20.912  10.558
 7529W        W79954   5.784   4.178  14.942
 7530W        W79955  11.353   3.842  13.553
 7531W        W79956  28.472  31.918  13.959
 7532W        W79957  25.303  27.751   2.579
 7533W        W79958  34.409  23.643  11.700
 7534W        W79959  42.235  44.925  11.455
 7535W        W79960   0.272  16.140   1.261
 7536W        W79961  30.069  13.096  14.986
 7537W        W79962  11.216  21.556  14.510
 7538W        W79963  27.617   5.707  13.803
 7539W        W79964  39.838  28.047  12.574
 7540W        W79965   1.205  28.461  13.514
 7541W        W79966  43.694  32.104  14.857
 7542W        W79967  16.102  18.938  10.354
 7543W        W79968   8.123  37.379   3.800
 7544W        W79969   6.871   1.634   1.400
 7545W        W79970   5.656  21.195   2.679
 7546W        W79971   6.413   4.114   3.847
 7547W        W79972  33.560   3.774   2.886
 7548W        W79973  25.987  32.222   0.294
 7549W        W79974  18.149   9.862  14.478
 7550W        W79975   1.278   9.626   0.422
 7551W        W79976  18.397  28.167  10.611
 7552W        W79977   5.748  18.716  12.896
 7553W        W79978  41.011  31.395   4.569
 7554W        W79979  23.654  43.421  12.020
 7555W        W79980  20.790  42.377  14.770
 7556W        W79981   5.205   6.652   3.960
 7557W        W79982  28.144   2.406  13.851
 7558W        W79983  22.326   9.860   9.743
 7559W        W79984  40.997  31.584   2.238
 7560W        W79985   7.864  11.513   1.674
 7561W        W79986  32.352  27.812  13.807
 7562W        W79987  41.971   1.847   4.682
 7563W        W79988  44.883   4.510  13.189
 7564W        W79989  18.560  34.992  13.022
 7565W        W79990   7.177  26.055  14.334
 7566W        W79991  16.532  30.032   2.530
 7567W        W79992  25.384   9.822   4.617
 7568W        W79993   4.887  37.996   0.234
 7569W        W79994  18.819  22.737  13.478
 7570W        W79995   8.463  25.205  14.712
 7571W        W79996  27.868  44.841   3.719
 7572W        W79997  37.897  17.089   0.524
 7573W        W79998  41.040  29.425   2.798
 7574W        W79999   9.273   9.374   3.150
 7575W        W80000  22.710  22.232  11.113
 7576W        W80001   2.923  31.695  14.335
 7577W        W80002   3.452  38.569  11.133
 7578W        W80003   8.258  24.491  13.523
 7579W        W80004  29.201  21.026  11.371
 7580W        W80005  36.962  44.967   0.379
 7581W        W80006  17.970  25.584   0.277
 7582W        W80007  29.633   2.101  12.356
 7583W        W80008  40.644  28.060  12.943
 7584W        W80009  37.748  16.180   1.276
 7585W        W80010  30.893  15.523  11.071
 7586W        W80011  27.323  32.476  11.103
 7587W        W80012  11.299  15.598  14.955
 7588W        W80013  13.539  20.080  13.526
 7589W        W80014  44.386  24.439  12.946
 7590W        W80015  11.743  28.105  11.954
 7591W        W80016  43.071  43.224  14.360
 7592W        W80017   6.368  29.617  11.563
 7593W        W80018   4.545  15.560   0.812
 7594W        W80019  14.568  44.451  12.528
 7595W        W80020   7.226   6.643  11.216
 7596W        W80021  22.323  35.890  10.663
 7597W        W80022   5.760  21.784  14.483
 7598W        W80023  13.170   9.581   0.846
 7599W        W80024  32.014   0.360   1.706
 7600W        W80025  10.395  25.891   1.671
 7601W        W80026  25.950  39.115   3.172
 7602W        W80027  15.353  27.131  14.734
 7603W        W80028  19.629  34.361   3.218
 7604W        W80029  28.064  15.552  14.570
 7605W        W80030  18.737  20.374   3.245
 7606W        W80031   1.500   7.668  14.596
 7607W        W80032  43.366  12.706   4.147
 7608W        W80033  34.673  24.587  11.122
 7609W        W80034  37.193  37.958  10.131
 7610W        W80035   3.519  44.524   2.717
 7611W        W80036  32.691  32.933   2.228
 7612W        W80037  10.346   2.583  11.822
 7613W        W80038  37.072  14.731   1.238
 7614W        W80039   6.401  25.417  11.368
 7615W        W80040   7.216   6.138  14.882
 7616W        W80041  31.788  19.266  14.082
 7617W        W80042  35.875  12.860   1.537
 7618W        W80043  29.673  39.382   2.902
 7619W        W80044  39.529  12.142  10.706
 7620W        W80045  40.555  43.950  13.521
 7621W        W80046  23.776  43.378   3.109
 7622W        W80047  20.480  40.626  14.400
 7623W        W80048   1.668  16.549  11.497
 7624W        W80049   0.334   3.571   1.442
 7625W        W80050  20.000  43.252   3.733
 7626W        W80051  21.555  13.607  14.887
 7627W        W80052   4.765  20.495   3.285
 7628W        W80053  42.832  16.099  10.657
 7629W        W80054  15.987  16.823  10.977
 7630W        W80055  28.474   1.265   0.004
 7631W        W80056  13.245  41.746   1.274
 7632W        W80057  43.502  39.157   2.698
 7633W        W80058  20.128   9.809  10.731
 7634W        W80059  35.113   6.349   5.026
 7635W        W80060  39.315  40.976  10.744
 7636W        W80061  13.603  11.602  12.530
 7637W        W80062  29.783  41.513  10.958
 7638W        W80063  29.380  22.471   2.948
 7639W        W80064  23.677  44.297   0.747
 7640W        W80065  19.132  25.078  12.453
 7641W        W80066   5.031  13.708  14.955
 7642W        W80067   2.415  43.454   1.717
 7643W        W80068  24.816  36.237   2.152
 7644W        W80069  37.326  37.006   4.605
 7645W        W80070  24.906  32.802   0.439
 7646W        W80071  18.682  16.089  11.232
 7647W        W80072  13.315  25.584  14.513
 7648W        W80073   0.097  44.690  12.304
 7649W        W80074   9.672  36.884  11.250
 7650W        W80075   1.829  40.455  13.444
 7651W        W80076  15.196  10.335  13.499
 7652W        W80077  38.801  25.133  10.508
 7653W        W80078   9.641  35.353   1.376
 7654W        W80079  34.267   9.457   3.062
 7655W        W80080  32.649  34.069   1.880
 7656W        W80081  35.647  16.253  12.942
 7657W        W80082   5.493  40.825   2.494
 7658W        W80083  10.705  23.093   4.992
 7659W        W80084  31.200  11.970  11.469
 7660W        W80085  27.563  35.986   1.743
 7661W        W80086   0.925  13.233  11.543
 7662W        W80087  38.615   1.291   3.779
 7663W        W80088   3.368  12.764  10.950
 7664W        W80089  28.148  41.228  14.439
 7665W        W80090  29.188  16.255  12.985
 7666W        W80091  35.854  37.417  10.600
 7667W        W80092  25.437  37.108  12.980
 7668W        W80093   2.724   2.272  11.741
 7669W        W80094  14.560  28.485  12.880
 7670W        W80095  18.016  28.655   1.559
 7671W        W80096  34.490  24.618   2.167
 7672W        W80097   2.837  19.234   0.060
 7673W        W80098  21.539  23.110   3.795
 7674W        W80099  14.306  21.598   1.391
 7675W        W80100  11.734  36.760   3.829
 7676W        W80101  28.003  25.612  10.243
 7677W        W80102  36.005  10.105  13.730
 7678W        W80103  26.285  10.332  13.869
 7679W        W80104   7.485  31.258   1.245
 7680W        W80105  40.044  24.962  11.051
 7681W        W80106  34.325  12.415   2.653
 7682W        W80107  17.869  21.574  13.523
 7683W        W80108  44.301  10.688   1.443
 7684W        W80109  11.386  44.495  14.833
 7685W        W80110  15.557  17.751  13.998
 7686W        W80111  19.388   2.076   2.842
 7687W        W80112  41.342   4.265   3.705
 7688W        W80113  12.173   9.704  11.968
 7689W        W80114  24.016   8.824   2.874
 7690W        W80115  15.212   8.725   2.514
 7691W        W80116   8.660   3.335  11.637
 7692W        W80117  27.896  11.326   4.178
 7693W        W80118  17.706  24.074   1.338
 7694W        W80119   7.154  13.024   4.539
 7695W        W80120  37.258  40.189  12.826
 7696W        W80121  17.760   0.042   0.758
 7697W        W80122   9.116   4.282  12.463
 7698W        W80123  12.824  36.497   1.260
 7699W        W80124  39.800   7.786   4.973
 7700W        W80125   0.932  17.689  10.691
 7701W        W80126  25.770   6.303   4.451
 7702W        W80127  34.647  31.005  14.854
 7703W        W80128  19.490  38.227  14.911
 7704W        W80129  27.383   5.902   2.780
 7705W        W80130  29.045  26.704   2.332
 7706W        W80131  33.902  16.151  11.206
 7707W        W80132  43.909  28.565   0.390
 7708W        W80133  15.670   8.215   3.301
 7709W        W80134  10.781  10.149   4.806
 7710W        W80135  41.816   0.684   3.530
 7711W        W80136   1.984  29.120   4.082
 7712W        W80137   6.946  41.324  12.976
 7713W        W80138  23.934  33.902   2.960
 7714W        W80139  20.059   5.690  12.894
 7715W        W80140  33.842  14.611  14.245
 7716W        W80141   6.487  38.019   0.696
 7717W        W80142  42.796  35.317   1.521
 7718W        W80143  17.352  12.579   3.147
 7719W        W80144  26.984   7.742   2.763
 7720W        W80145  42.507   9.771  14.456
 7721W        W80146   7.381  32.860  13.026
 7722W        W80147  26.800  43.989  14.886
 7723W        W80148  17.576  31.936  11.157
 7724W        W80149  26.129  29.283   1.800
 7725W        W80150  24.200  36.374  14.016
 7726W        W80151  25.050   7.740  11.202
 7727W        W80152  42.714  34.528  14.587
 7728W        W80153  44.903  29.432  13.875
 7729W        W80154  44.501   9.780   0.765
 7730W        W80155  12.666  10.406  13.989
 7731W        W80156  37.417   6.396  14.419
 7732W        W80157   7.455   1.659   0.172
 7733W        W80158  12.354  24.235   0.329
 7734W        W80159  16.799  20.681  13.809
 7735W        W80160  43.930  16.654   1.719
 7736W        W80161  18.033  29.670   3.381
 7737W        W80162  13.214   6.919  12.464
 7738W        W80163  23.229   5.390   4.614
 7739W        W80164  25.108  23.158   4.642
 7740W        W80165  24.813  20.142   3.640
 7741W        W80166  28.090   6.398  13.881
 7742W        W80167   9.124   6.221  12.488
 7743W        W80168  16.317  22.192   2.131
 7744W        W80169  32.430  29.111  10.730
 7745W        W80170  29.572  18.335  11.081
 7746W        W80171   4.511  30.933  10.718
 7747W        W80172  24.933  33.530   3.502
 7748W        W80173  41.792  36.220   3.944
 7749W        W80174  11.876  36.290   1.587
 7750W        W80175  41.173  22.394  13.208
 7751W        W80176   2.980  12.134   2.301
 7752W        W80177  31.547  44.111  12.163
 7753W        W80178  32.948  40.479  13.731
 7754W        W80179   7.219   5.596   2.879
 7755W        W80180   6.754  25.837  13.505
 7756W        W80181  18.363   7.732  10.446
 7757W        W80182  19.068  10.116   4.144
 7758W        W80183  22.688  42.160  12.608
 7759W        W80184  35.615  36.265   0.992
 7760W        W80185  38.355  31.004   3.374
 7761W        W80186  29.009  44.387   1.366
 7762W        W80187   4.612   3.312   3.679
 7763W        W80188  40.057   1.721   2.787
 7764W        W80189  25.160  12.852   5.022
 7765W        W80190  23.586  16.255  13.586
 7766W        W80191  20.754  25.570  13.839
 7767W        W80192  10.896  36.868   4.786
 7768W        W80193  37.862  22.992   0.406
 7769W        W80194  38.524  10.859   2.867
 7770W        W80195  15.493  41.607   4.454
 7771W        W80196  29.705   9.437   0.493
 7772W        W80197  26.240  14.242   1.718
 7773W        W80198  44.950  30.544  11.628
 7774W        W80199  16.745  13.194  10.951
 7775W        W80200  36.113  21.232  10.986
 7776W        W80201  29.238  22.254  14.417
 7777W        W80202   1.248  37.625   3.653
 7778W        W80203  37.158  17.118   2.260
 7779W        W80204   0.351   1.924   2.103
 7780W        W80205  13.363  32.407  12.365
 7781W        W80206   1.687  39.637   4.470
 7782W        W80207  42.303  11.167   4.202
 7783W        W80208  20.916  27.564   0.261
 7784W        W80209  38.103  42.087   0.490
 7785W        W80210  31.826  43.952   2.769
 7786W        W80211  11.873  42.049  13.617
 7787W        W80212  32.099  31.871  13.117
 7788W        W80213  33.504  18.909   2.819
 7789W        W80214  42.925  17.109  13.920
 7790W        W80215  39.527  31.026  13.448
 7791W        W80216   0.247  21.768   2.476
 7792W        W80217  34.948  30.054  11.824
 7793W        W80218  36.173  22.424  12.184
 7794W        W80219  17.487  26.132  14.799
 7795W        W80220   7.714   4.505  12.382
 7796W        W80221  40.404  12.268  13.021
 7797W        W80222  31.574  39.083   1.784
 7798W        W80223  34.597  27.079   0.935
 7799W        W80224  28.407  40.566  11.149
 7800W        W80225   3.344  14.280  10.498
 7801W        W80226  39.851  38.388  12.427
 7802W        W80227  22.375  18.656  13.646
 7803W        W80228  28.585  37.207   1.689
 7804W        W80229  41.590  16.021   4.545
 7805W        W80230  15.083   4.905  12.524
 7806W        W80231   7.740   2.544  13.925
 7807W        W80232  28.672  28.637  11.563
 7808W        W80233  13.290  10.239  10.607
 7809W        W80234  40.431  15.185  14.968
 7810W        W80235   9.349  34.990   2.785
 7811W        W80236  30.038  31.047   3.662
 7812W        W80237  26.972  36.746   2.379
 7813W        W80238  37.895  28.538   4.178
 7814W        W80239  44.909  20.000  13.864
 7815W        W80240  12.296   0.804  10.904
 7816W        W80241  18.408  30.013  14.050
 7817W        W80242  18.945  35.863   3.983
 7818W        W80243  22.564  20.312  12.878
 7819W        W80244  14.300  15.809  14.258
 7820W        W80245  19.549   8.692  11.106
 7821W        W80246  28.000  12.685   1.249
 7822W        W80247  19.036  29.841   4.504
 7823W        W80248  17.069  26.088   3.326
 7824W        W80249  44.963  16.593  13.912
 7825W        W80250   6.740  40.592  12.350
 7826W        W80251  11.876   4.899   4.147
 7827W        W80252  41.739   0.301   3.187
 7828W        W80253   6.626   7.709   3.764
 7829W        W80254   4.880  13.640  11.080
 7830W        W80255  35.605   7.091   9.663
 7831W        W80256   7.999  24.228   1.444
 7832W        W80257  39.621  40.598  12.948
 7833W        W80258  36.609  23.786   0.750
 7834W        W80259   3.276  22.064  13.325
 7835W        W80260   5.385  24.153  14.374
 7836W        W80261  15.626  25.066   2.909
 7837W        W80262   4.333   0.266   1.860
 7838W        W80263   0.266  14.166  11.156
 7839W        W80264  43.875  20.822  14.464
 7840W        W80265  33.602   2.648   1.385
 7841W        W80266   7.233  26.486  13.994
 7842W        W80267  33.987   6.481  13.631
 7843W        W80268  26.003  29.671  10.615
 7844W        W80269  17.860  10.290  12.053
 7845W        W80270  37.989   2.902   0.470
 7846W        W80271  19.426   8.602   4.536
 7847W        W80272  31.825  35.479   4.014
 7848W        W80273  10.840  15.139   4.572
 7849W        W80274  16.570  13.873   0.887
 7850W        W80275  18.716  28.997   0.317
 7851W        W80276   0.476  41.030   2.363
 7852W        W80277   7.216  12.608  14.007
 7853W        W80278  10.552   5.032  13.887
 7854W        W80279   4.373   1.729   3.835
 7855W        W80280   2.610  15.121  11.800
 7856W        W80281  12.790  18.622  12.626
 7857W        W80282  30.948  17.056  11.981
 7858W        W80283  36.473  35.695   1.021
 7859W        W80284  28.793  24.822  13.376
 7860W        W80285  23.381  33.630  12.493
 7861W        W80286  30.435  43.202  14.338
 7862W        W80287  27.094  37.647  14.748
 7863W        W80288  34.134  36.860  11.870
 7864W        W80289  41.002  41.231   1.773
 7865W        W80290  41.432  33.841   0.012
 7866W        W80291  39.922  20.551   2.188
 7867W        W80292  13.303  43.321   4.833
 7868W        W80293  18.625  29.543   4.661
 7869W        W80294  28.520   1.055  14.474
 7870W        W80295  41.224  39.038  14.795
 7871W        W80296   9.422  17.001   2.332
 7872W        W80297  12.887  14.640   0.295
 7873W        W80298  43.444  42.497  14.343
 7874W        W80299  13.940  19.349  14.375
 7875W        W80300  38.174  43.313  14.393
 7876W        W80301   0.375   1.455   1.856
 7877W        W80302  16.012  43.998   1.732
 7878W        W80303  25.459  22.401  11.160
 7879W        W80304  22.814  34.628  14.334
 7880W        W80305   0.992  24.645   3.650
 7881W        W80306  18.178  35.126   4.616
 7882W        W80307  17.616  17.126  11.876
 7883W        W80308  10.886   1.403  10.622
 7884W        W80309   9.707  32.757  11.820
 7885W        W80310  13.317  36.074  10.633
 7886W        W80311  15.250  36.002   1.913
 7887W        W80312  25.684  33.195   1.395
 7888W        W80313  19.098   2.285   4.656
 7889W        W80314  36.363  28.994  10.926
 7890W        W80315   2.986  21.102   0.569
 7891W        W80316  29.578  21.722  11.942
 7892W        W80317  28.227  11.531   3.032
 7893W        W80318  32.555   9.635   2.337
 7894W        W80319  20.552  10.303   4.975
 7895W        W80320  20.903  44.221  13.430
 7896W        W80321  32.189  28.213   2.361
 7897W        W80322  30.904  21.219   3.972
 7898W        W80323  17.254  43.907   1.205
 7899W        W80324   7.763  16.134  11.031
 7900W        W80325  23.697   6.277   4.506
 7901W        W80326  34.046   7.275   0.809
 7902W        W80327  17.049  13.374  12.647
 7903W        W80328   4.288  34.490  12.053
 7904W        W80329  40.550  38.375   2.449
 7905W        W80330  26.090  17.120   2.777
 7906W        W80331   5.224   0.252   1.888
 7907W        W80332   3.974  18.576   0.199
 7908W        W80333  31.019  24.476  13.520
 7909W        W80334  41.564  19.441   9.694
 7910W        W80335  41.873  21.449   4.115
 7911W        W80336   9.876  39.581   0.799
 7912W        W80337  16.291  36.987  14.821
 7913W        W80338  33.614   0.278  11.575
 7914W        W80339   4.368  35.181  13.513
 7915W        W80340  33.982  14.395  11.978
 7916W        W80341  31.622   1.421  13.976
 7917W        W80342  33.893  43.347   1.828
 7918W        W80343  24.121  36.606   1.228
 7919W        W80344  39.393  23.703   1.385
 7920W        W80345   3.299  21.659  11.537
 7921W        W80346  25.215  39.459   1.811
 7922W        W80347  24.114  28.927   0.898
 7923W        W80348  15.014  32.471  13.912
 7924W        W80349   3.221  30.425  11.206
 7925W        W80350  44.870  13.249   1.643
 7926W        W80351   8.364  22.884  12.956
 7927W        W80352  43.769   3.972   2.741
 7928W        W80353  33.436   5.884  12.048
 7929W        W80354   2.969  25.567   3.801
 7930W        W80355  36.895  44.837  13.833
 7931W        W80356  35.374  42.940  14.414
 7932W        W80357  23.631  44.493  11.911
 7933W        W80358  25.070   2.021   3.652
 7934W        W80359   0.503  26.002   1.446
 7935W        W80360  20.517  12.856  12.099
 7936W        W80361  39.633  36.410   2.211
 7937W        W80362  25.011  31.286  10.599
 7938W        W80363  27.461   4.509   3.146
 7939W        W80364  11.098  13.229   0.849
 7940W        W80365  24.747   2.220   2.801
 7941W        W80366   0.830   2.813  10.400
 7942W        W80367   2.020  39.059   3.695
 7943W        W80368  12.598  17.230  14.369
 7944W        W80369  40.770  17.310   4.093
 7945W        W80370  30.096  40.467   1.762
 7946W        W80371   1.719  32.973  12.483
 7947W        W80372  42.937   6.271   2.271
 7948W        W80373  30.976  29.354  11.912
 7949W        W80374  38.452  44.821  14.414
 7950W        W80375  22.461  39.945   1.462
 7951W        W80376  13.764  13.602  14.348
 7952W        W80377  42.161   8.266  12.554
 7953W        W80378   3.331   6.153   5.145
 7954W        W80379  10.609  44.309   2.332
 7955W        W80380  15.013  13.960  11.014
 7956W        W80381   0.315   8.883   0.800
 7957W        W80382  31.830  18.354   3.144
 7958W        W80383  14.899   5.770  11.693
 7959W        W80384  44.308   8.398  14.967
 7960W        W80385  44.037  22.005   3.104
 7961W        W80386  23.124  40.259  11.624
 7962W        W80387  10.264  36.368  14.837
 7963W        W80388  18.437  20.426  13.030
 7964W        W80389  28.062  19.831  10.679
 7965W        W80390  38.409  25.204   1.310
 7966W        W80391   4.650  43.515   4.453
 7967W        W80392  15.146   3.793  14.032
 7968W        W80393  38.670   2.936  14.822
 7969W        W80394  39.864   2.649   4.142
 7970W        W80395  35.593  34.632   4.803
 7971W        W80396  17.555  38.591   2.751
 7972W        W80397  43.487   9.139  11.369
 7973W        W80398  28.414  30.479  12.635
 7974W        W80399  31.843  12.241   0.265
 7975W        W80400  20.802   4.803   1.809
 7976W        W80401  25.395  15.820  12.632
 7977W        W80402   7.749   9.259   4.782
 7978W        W80403   8.350  29.879  13.937
 7979W        W80404   6.262   4.134  12.272
 7980W        W80405  10.820  32.597  11.871
 7981W        W80406   2.724  11.650   4.135
 7982W        W80407  21.711  25.086   3.219
 7983W        W80408  34.147  38.934   2.210
 7984W        W80409  41.579  20.170  12.420
 7985W        W80410  23.706  11.203  12.765
 7986W        W80411  12.713  14.652  14.804
 7987W        W80412  18.696   5.829   3.426
 7988W        W80413  24.237  28.118   2.425
 7989W        W80414  28.538   5.803   4.365
 7990W        W80415  37.828  29.512  14.045
 7991W        W80416  40.481   6.698   3.837
 7992W        W80417  39.702  14.411  14.867
 7993W        W80418  15.033  26.979  12.469
 7994W        W80419  28.603  15.617  14.825
 7995W        W80420  32.034  18.341   1.557
 7996W        W80421  29.702  32.567   2.010
 7997W        W80422  39.918  40.073   4.826
 7998W        W80423  37.023  43.158   0.882
 7999W        W80424  31.905  41.020   2.350
 8000W        W80425  26.587  41.243  10.750
 8001W        W80426   4.994  34.192   3.150
 8002W        W80427  19.892  37.567  11.217
 8003W        W80428   7.243  31.436   1.930
 8004W        W80429   4.440   2.828   4.656
 8005W        W80430  26.240  13.073   0.387
 8006W        W80431  19.534  31.396   4.258
 8007W        W80432  31.603   1.994   0.722
 8008W        W80433   7.466  17.252   4.518
 8009W        W80434  28.772  40.085  13.288
 8010W        W80435  21.959  10.171   3.273
 8011W        W80436  29.577  16.539  14.509
 8012W        W80437  39.087  17.594   0.411
 8013W        W80438   2.430  15.329   4.181
 8014W        W80439   0.167  22.119  11.522
 8015W        W80440  22.466  22.739   0.476
 8016W        W80441  11.251  26.194  14.774
 8017W        W80442  28.609  35.610  12.112
 8018W        W80443  30.947  42.900   4.628
 8019W        W80444   6.804  14.215   2.668
 8020W        W80445  33.113  43.261   4.528
 8021W        W80446   3.917  39.966  12.950
 8022W        W80447  32.009   9.759   3.167
 8023W        W80448  39.171  14.597   1.736
 8024W        W80449  14.540   4.477  11.950
 8025W        W80450  43.628  32.304   4.083
 8026W        W80451  18.694  24.481  10.738
 8027W        W80452  32.525   6.767  12.246
 8028W        W80453   6.722  19.019  14.218
 8029W        W80454  14.789  12.845  13.067
 8030W        W80455  32.548  24.502   1.684
 8031W        W80456  14.571  20.988  13.443
 8032W        W80457  12.531  25.245  11.338
 8033W        W80458  36.843   8.737  10.180
 8034W        W80459  27.732   3.940  13.167
 8035W        W80460   0.895  22.417   4.454
 8036W        W80461  27.128   0.190  14.173
 8037W        W80462   5.368   0.957   0.637
 8038W        W80463  11.722  15.333  14.779
 8039W        W80464  33.558  27.937   3.225
 8040W        W80465  21.793   9.822   9.772
 8041W        W80466  13.326  29.731   1.401
 8042W        W80467  24.554  17.789   2.000
 8043W        W80468  34.416   5.725  12.106
 8044W        W80469  26.642  14.535   1.889
 8045W        W80470  32.990  27.561   1.892
 8046W        W80471  16.577  19.280  12.961
 8047W        W80472   3.313  43.924   3.759
 8048W        W80473  20.483  29.707   3.220
 8049W        W80474  32.064  44.864  13.074
 8050W        W80475  22.341  12.206  14.328
 8051W        W80476  36.009  33.476  13.982
 8052W        W80477  22.638   5.796   2.362
 8053W        W80478  42.334  29.581   2.445
 8054W        W80479  21.466   2.888  12.963
 8055W        W80480  24.621  20.966   0.835
 8056W        W80481  17.535  32.610  11.505
 8057W        W80482  34.458   1.215   0.213
 8058W        W80483  25.890  17.283   4.180
 8059W        W80484  24.715   4.306   3.592
 8060W        W80485  13.839   4.478   3.874
 8061W        W80486  12.824  28.227  14.918
 8062W        W80487  42.709  33.458   4.933
 8063W        W80488   2.038   9.699   1.178
 8064W        W80489   0.711   9.190   5.041
 8065W        W80490  20.757   4.507   2.748
 8066W        W80491  39.333   6.828  11.879
 8067W        W80492  20.001  25.720   2.279
 8068W        W80493  32.833  23.042   3.971
 8069W        W80494  41.518  31.598   3.650
 8070W        W80495  18.719  39.272   2.900
 8071W        W80496  10.210  25.566   0.429
 8072W        W80497   8.391   9.501   4.784
 8073W        W80498  27.786  17.706   3.301
 8074W        W80499  31.952  30.168   1.375
 8075W        W80500   4.290  26.489   1.675
 8076W        W80501  43.807  22.654  11.389
 8077W        W80502   9.925  42.342   3.633
 8078W        W80503  43.922  26.914   0.884
 8079W        W80504  24.007  13.169  14.511
 8080W        W80505  36.854  16.718  12.014
 8081W        W80506  44.671  36.448   3.657
 8082W        W80507  30.490  14.753  11.654
 8083W        W80508  38.771  38.716  14.998
 8084W        W80509  15.696  14.970   2.072
 8085W        W80510  39.842  35.545  14.344
 8086W        W80511  41.520  36.993   2.849
 8087W        W80512  12.997  43.706  13.589
 8088W        W80513   4.675  10.423  14.680
 8089W        W80514  37.048  38.800   4.396
 8090W        W80515  13.129  40.965   3.626
 8091W        W80516  17.531  10.898  12.902
 8092W        W80517   2.785  20.027   2.158
 8093W        W80518  42.878  40.328   3.104
 8094W        W80519  35.506  42.155  12.131
 8095W        W80520  23.024  37.849  12.794
 8096W        W80521  38.271  44.147  14.366
 8097W        W80522   7.904  31.050  11.855
 8098W        W80523  44.299  21.005   5.069
 8099W        W80524  44.480  32.496   0.940
 8100W        W80525  23.452   6.233   3.536
 8101W        W80526  28.603  19.065   0.383
 8102W        W80527  40.837  21.167   2.396
 8103W        W80528   7.173   9.168   1.702
 8104W        W80529  18.695   7.600   4.712
 8105W        W80530  43.237  35.126   2.418
 8106W        W80531  14.852   8.444  13.474
 8107W        W80532  13.555  12.572  14.843
 8108W        W80533  32.995  44.423   3.862
 8109W        W80534  10.372  21.163   2.468
 8110W        W80535  20.900  41.386   3.350
 8111W        W80536   8.191  37.181  14.997
 8112W        W80537  40.864   2.240   0.595
 8113W        W80538  13.669  16.245  11.725
 8114W        W80539  14.604  33.912   4.832
 8115W        W80540   8.884  20.748  13.539
 8116W        W80541  40.363  14.168  12.600
 8117W        W80542  30.451  19.812   4.071
 8118W        W80543   1.995   3.358   2.411
 8119W        W80544  22.623  37.119   0.721
 8120W        W80545   4.215  17.996  10.834
 8121W        W80546  17.320  15.799  11.942
 8122W        W80547  42.129  24.190   0.013
 8123W        W80548  34.367  23.946  14.423
 8124W        W80549   4.357  27.109   1.947
 8125W        W80550  32.390  16.223  13.447
 8126W        W80551  29.133  31.544   2.100
 8127W        W80552  24.560  14.247  12.612
 8128W        W80553  21.271  16.600  12.521
 8129W        W80554  12.432  43.316  10.418
 8130W        W80555   8.406   3.702  12.148
 8131W        W80556  16.345   5.340  11.835
 8132W        W80557  27.625  40.765  12.344
 8133W        W80558  41.110  39.493  12.056
 8134W        W80559  37.389  21.941  11.066
 8135W        W80560   5.007  22.957  11.582
 8136W        W80561   2.355  21.099  12.941
 8137W        W80562   5.841  42.956   2.675
 8138W        W80563   1.419  13.565  13.974
 8139W        W80564   6.319  26.769  10.136
 8140W        W80565  38.415  28.633   4.098
 8141W        W80566  32.028  23.760   4.015
 8142W        W80567  38.578  10.779   3.802
 8143W        W80568  32.877  12.599   0.979
 8144W        W80569   1.937  39.244   1.259
 8145W        W80570   5.325  19.143  10.728
 8146W        W80571   0.994  17.745  12.039
 8147W        W80572  38.783  13.684  10.588
 8148W        W80573   0.652  30.920  11.429
 8149W        W80574  33.715  15.132  13.352
 8150W        W80575  36.281  39.422   4.585
 8151W        W80576  13.283  18.197  14.196
 8152W        W80577  33.358  34.914   2.100
 8153W        W80578  28.207  13.053   5.010
 8154W        W80579  36.667  37.291  14.957
 8155W        W80580  20.503  15.791   1.615
 8156W        W80581  18.259  44.240   0.379
 8157W        W80582  30.343  44.345  12.016
 8158W        W80583   7.476  39.225  13.892
 8159W        W80584  24.413   2.508   3.678
 8160W        W80585  21.065  18.105   2.677
 8161W        W80586  23.630  25.973  12.844
 8162W        W80587  35.510  38.580   2.326
 8163W        W80588  22.982   5.641  12.377
 8164W        W80589  28.099  23.962  11.917
 8165W        W80590  26.765  36.403   1.180
 8166W        W80591   1.476  44.746   3.443
 8167W        W80592  37.311  29.474  11.020
 8168W        W80593  28.705  34.670   2.106
 8169W        W80594  25.934   0.300  13.332
 8170W        W80595  32.092  22.104   2.441
 8171W        W80596   4.624  41.555  13.222
 8172W        W80597  15.650  18.868   2.447
 8173W        W80598  18.090   5.474  12.817
 8174W        W80599  23.460  13.566   1.424
 8175W        W80600  19.607  43.767   1.319
 8176W        W80601  36.922  35.797  11.494
 8177W        W80602  26.895   2.829  11.153
 8178W        W80603  41.934  27.515   3.757
 8179W        W80604  34.579   0.790  11.251
 8180W        W80605  29.900  34.470  10.535
 8181W        W80606   7.211  40.319   3.840
 8182W        W80607  28.146   4.666  13.005
 8183W        W80608  39.829  18.669   3.244
 8184W        W80609  27.110  38.436   0.921
 8185W        W80610  11.687   5.975   0.964
 8186W        W80611  26.683  12.671   1.835
 8187W        W80612  44.907  30.673  13.389
 8188W        W80613  19.787  35.062  11.450
 8189W        W80614  30.210  15.831  12.117
 8190W        W80615  36.481  34.245   4.386
 8191W        W80616  16.261  31.299   2.928
 8192W        W80617  37.290  29.462  14.231
 8193W        W80618   7.824  10.453   1.464
 8194W        W80619  12.645  25.994  10.839
 8195W        W80620  29.916   8.235  13.595
 8196W        W80621  37.185   4.577  13.307
 8197W        W80622  39.277  35.531  12.099
 8198W        W80623   4.595  23.135  10.672
 8199W        W80624  16.142  19.770  12.498
 8200W        W80625   9.368  20.487   0.031
 8201W        W80626  22.458  18.253  11.905
 8202W        W80627  12.100  38.535   3.080
 8203W        W80628  20.981   7.530   1.418
 8204W        W80629  31.273  43.067  13.422
 8205W        W80630   2.173  19.789   0.498
 8206W        W80631  32.528  32.537   3.121
 8207W        W80632  31.615   5.232  14.781
 8208W        W80633  43.326  13.603   4.639
 8209W        W80634   2.005  33.999  10.837
 8210W        W80635  20.376   7.196   0.376
 8211W        W80636  12.376   4.050   9.707
 8212W        W80637  13.348   6.100  14.210
 8213W        W80638   2.720  29.056  10.668
 8214W        W80639  17.777  23.176   4.858
 8215W        W80640  42.400  43.270   2.704
 8216W        W80641  36.872  24.716   1.743
 8217W        W80642  17.164  36.375   0.384
 8218W        W80643  30.668   7.555   0.388
 8219W        W80644  24.580  10.672  12.005
 8220W        W80645  39.709  43.404  12.615
 8221W        W80646   3.913   5.983  12.843
 8222W        W80647  16.775   9.674  14.540
 8223W        W80648  40.373  33.116  12.925
 8224W        W80649  17.917  44.886   2.175
 8225W        W80650  17.163  33.381   1.231
 8226W        W80651   0.667  33.487  11.218
 8227W        W80652  10.154  39.978   0.435
 8228W        W80653  27.641   5.203  10.942
 8229W        W80654  32.587  20.487   0.864
 8230W        W80655  43.621  18.517  11.982
 8231W        W80656  13.008  41.462  13.931
 8232W        W80657  13.445  16.438  13.422
 8233W        W80658  19.564  12.770  11.180
 8234W        W80659  40.135  22.709   4.104
 8235W        W80660  35.915  15.316  10.650
 8236W        W80661  14.517  33.739   4.357
 8237W        W80662  21.457  18.227   1.748
 8238W        W80663  11.645  17.146  14.311
 8239W        W80664  17.670   1.378  13.938
 8240W        W80665   1.481  39.709  11.333
 8241W        W80666  40.859  11.061  12.555
 8242W        W80667  10.198  43.447  13.127
 8243W        W80668  12.761  43.333   3.344
 8244W        W80669  41.141   1.507   3.320
 8245W        W80670   4.961  20.043   1.018
 8246W        W80671  12.086  20.978  13.942
 8247W        W80672  29.519  31.828   3.759
 8248W        W80673  31.489  30.574   0.432
 8249W        W80674  23.954  11.080   2.861
 8250W        W80675   4.710  24.642  13.046
 8251W        W80676  28.393  44.903  14.198
 8252W        W80677   7.319  22.383  10.643
 8253W        W80678  40.273  41.414   3.693
 8254W        W80679   0.383  33.329   1.454
 8255W        W80680  41.305  34.496   0.775
 8256W        W80681   5.455  23.090   2.854
 8257W        W80682  31.838  21.771  14.558
 8258W        W80683  42.929  28.618  14.471
 8259W        W80684  33.403  35.605   0.935
 8260W        W80685  42.856  30.625   4.664
 8261W        W80686  25.706  41.318   4.108
 8262W        W80687   1.545  27.131  11.099
 8263W        W80688  22.775   4.905  13.017
 8264W        W80689  10.868  28.946   4.676
 8265W        W80690   6.642  32.094  13.776
 8266W        W80691  23.483  43.007   1.330
 8267W        W80692  17.503  10.253  14.964
 8268W        W80693  44.502  27.960   2.691
 8269W        W80694  28.429   9.401  14.976
 8270W        W80695   3.441   5.354   1.983
 8271W        W80696  43.237  11.167   1.610
 8272W        W80697  28.549   8.251   3.681
 8273W        W80698  20.689   6.879  14.031
 8274W        W80699  35.645   1.045   1.320
 8275W        W80700  23.465   9.798   3.726
 8276W        W80701  44.363  19.245  14.047
 8277W        W80702  42.018  28.248  10.372
 8278W        W80703  21.046  28.673   3.269
 8279W        W80704  39.646  44.343   2.783
 8280W        W80705   3.339  28.108   0.857
 8281W        W80706  12.386   1.964  14.966
 8282W        W80707  36.818   1.929  12.819
 8283W        W80708  20.208   4.423  14.918
 8284W        W80709  27.430  43.306   0.907
 8285W        W80710  27.678  32.673   4.415
 8286W        W80711  38.060   4.299  10.913
 8287W        W80712  33.565  23.227  11.910
 8288W        W80713  17.158  38.930   3.681
 8289W        W80714  13.348  32.610  14.809
 8290W        W80715  37.058  13.257  11.509
 8291W        W80716  29.063  44.967  12.425
 8292W        W80717  23.704   6.868  14.086
 8293W        W80718  31.901  38.166   1.701
 8294W        W80719  33.925  38.641   0.279
 8295W        W80720  32.968   4.836  10.712
 8296W        W80721  29.952  32.996   4.138
 8297W        W80722   5.919  23.289  14.341
 8298W        W80723  29.469  14.763   1.430
 8299W        W80724  32.097  19.241   0.944
 8300W        W80725  44.295  26.208   2.202
 8301W        W80726  34.830  31.040   1.303
 8302W        W80727  20.084   9.886   4.804
 8303W        W80728   2.310  34.542   4.854
 8304W        W80729  15.879  31.157   0.206
 8305W        W80730  37.800  38.002  14.291
 8306W        W80731   9.382   7.410  11.602
 8307W        W80732  22.157  28.667   2.369
 8308W        W80733  19.248  32.508   4.147
 8309W        W80734   7.726  27.121   2.366
 8310W        W80735   3.782  23.704   2.407
 8311W        W80736   6.830   6.708   3.256
 8312W        W80737  42.890  15.237   3.650
 8313W        W80738  31.088  24.762  14.012
 8314W        W80739  14.548   4.027  14.818
 8315W        W80740  18.598   4.605   1.372
 8316W        W80741  29.606  43.677   1.311
 8317W        W80742  40.363   8.933  10.596
 8318W        W80743   7.952  41.816   4.068
 8319W        W80744  26.113  21.156  13.349
 8320W        W80745   6.525   6.182   2.224
 8321W        W80746  35.463  28.167   1.453
 8322W        W80747   6.803  22.277  13.485
 8323W        W80748  31.564  31.700   1.433
 8324W        W80749  15.233  25.635   4.169
 8325W        W80750  10.220   7.191   3.670
 8326W        W80751  25.602  20.994  13.309
 8327W        W80752  36.690  20.100  11.192
 8328W        W80753  22.483  39.320  12.211
 8329W        W80754  42.222   0.352  11.137
 8330W        W80755  44.567  24.137   0.904
 8331W        W80756  42.464   0.272   2.690
 8332W        W80757  13.100   0.616  14.843
 8333W        W80758   5.768   7.683  13.864
 8334W        W80759  15.081   9.692   0.324
 8335W        W80760  23.236  37.014   3.801
 8336W        W80761  41.667  29.760   3.541
 8337W        W80762  24.892  22.691   0.774
 8338W        W80763  31.495  44.816  14.483
 8339W        W80764  30.246   3.666   2.847
 8340W        W80765  14.179  13.613  12.623
 8341W        W80766   2.819  22.994   0.054
 8342W        W80767  44.547  23.681   1.840
 8343W        W80768  20.590  11.618  10.636
 8344W        W80769   1.108  21.539  12.931
 8345W        W80770  38.964  36.946   2.130
 8346W        W80771  25.241  33.337  11.946
 8347W        W80772  36.828  30.497   2.193
 8348W        W80773  24.638   0.420   1.879
 8349W        W80774  14.695  18.764   1.342
 8350W        W80775   1.431  24.616   4.673
 8351W        W80776  23.855  40.842  13.036
 8352W        W80777   1.368  35.939  12.830
 8353W        W80778  40.817  33.518   2.762
 8354W        W80779  11.603  39.094   1.425
 8355W        W80780   0.562   2.262  10.499
 8356W        W80781  21.261  28.400   0.888
 8357W        W80782  23.083   1.466   3.264
 8358W        W80783  43.005   7.926  13.446
 8359W        W80784  33.684  29.905  14.502
 8360W        W80785  40.439  41.915   2.249
 8361W        W80786   6.509  23.726   0.051
 8362W        W80787  10.149  19.837  11.211
 8363W        W80788  13.599  14.117  14.960
 8364W        W80789  30.757  25.935  14.805
 8365W        W80790  21.722  11.845   5.725
 8366W        W80791  11.103  26.149   0.261
 8367W        W80792  42.498  12.677   2.347
 8368W        W80793  36.614   3.988   2.189
 8369W        W80794   5.248  23.656   1.467
 8370W        W80795  36.010   6.197   4.801
 8371W        W80796  16.474  38.345   3.730
 8372W        W80797  40.463  25.985   4.732
 8373W        W80798   6.182  31.418   4.735
 8374W        W80799  34.886  24.891   2.380
 8375W        W80800   7.245  26.718   1.820
 8376W        W80801   3.589  14.143  14.119
 8377W        W80802   7.262  36.872   0.107
 8378W        W80803  26.943  41.354  11.163
 8379W        W80804  39.927  19.621   4.424
 8380W        W80805  43.700  30.049  13.766
 8381W        W80806  44.420  26.283   3.559
 8382W        W80807  21.555  23.491   2.538
 8383W        W80808   0.555  18.832  14.398
 8384W        W80809  43.029  44.472  11.056
 8385W        W80810   3.518  32.981  13.456
 8386W        W80811  38.182  18.817  14.856
 8387W        W80812   0.940  12.800   1.149
 8388W        W80813  28.499  16.908  12.053
 8389W        W80814  39.431  38.316  12.091
 8390W        W80815  42.509   3.151   1.219
 8391W        W80816  33.139   4.386  10.528
 8392W        W80817  19.872  12.731  13.936
 8393W        W80818  16.104  34.339   2.148
 8394W        W80819  37.605  43.804  11.097
 8395W        W80820  41.153  41.251  14.855
 8396W        W80821   1.996   7.948   1.656
 8397W        W80822  27.837  23.998  12.890
 8398W        W80823   0.554  31.506   1.877
 8399W        W80824  21.887  32.713  12.861
 8400W        W80825   7.363   6.573   4.052
 8401W        W80826  10.359  31.540  10.075
 8402W        W80827  16.522  12.624  13.345
 8403W        W80828  16.160  27.150   0.271
 8404W        W80829  39.111  35.120  10.241
 8405W        W80830  43.378  37.346   3.863
 8406W        W80831   3.910  26.407   4.024
 8407W        W80832  25.276   0.530   3.664
 8408W        W80833  16.305  19.302  14.311
 8409W        W80834  33.337  32.845   0.989
 8410W        W80835  28.861  29.929   4.679
 8411W        W80836  35.652   4.124  12.546
 8412W        W80837  33.473  22.748  14.317
 8413W        W80838  28.745  38.398   2.321
 8414W        W80839  39.445   0.192   2.158
 8415W        W80840   6.385  40.536  13.329
 8416W        W80841  19.647   6.393   2.674
 8417W        W80842  30.855  14.843   0.833
 8418W        W80843   2.017  25.929  10.681
 8419W        W80844  28.204   8.943   1.464
 8420W        W80845  15.788  27.704   4.601
 8421W        W80846  30.807   1.392  14.764
 8422W        W80847  36.935   1.289  13.471
 8423W        W80848  39.894  36.089   3.744
 8424W        W80849  34.914  41.236  12.994
 8425W        W80850   3.845  17.594   0.775
 8426W        W80851  11.626  44.305   0.323
 8427W        W80852  42.706  32.021   5.084
 8428W        W80853  38.932   4.264  11.179
 8429W        W80854  13.265  33.439  11.666
 8430W        W80855  39.348  26.325   3.793
 8431W        W80856   4.597  19.189  11.480
 8432W        W80857  38.033  37.619  11.104
 8433W        W80858  40.428   2.714   0.654
 8434W        W80859   1.425  24.961   2.359
 8435W        W80860  37.519  31.598   2.782
 8436W        W80861  25.708  20.366  13.946
 8437W        W80862  15.606  21.299  10.119
 8438W        W80863  12.160  35.302  13.051
 8439W        W80864  12.341  21.567  13.118
 8440W        W80865  13.861   0.660   2.215
 8441W        W80866   4.828  41.011   3.757
 8442W        W80867  13.267  20.617  13.613
 8443W        W80868  18.285  35.005  12.541
 8444W        W80869  29.119  41.881  10.550
 8445W        W80870  13.035  31.038  11.682
 8446W        W80871  18.284   0.503   3.780
 8447W        W80872  18.688  15.006  13.966
 8448W        W80873   5.263   4.215   1.476
 8449W        W80874  22.022  25.577   2.310
 8450W        W80875  39.360  31.321  13.982
 8451W        W80876  33.167  41.684   3.517
 8452W        W80877  17.621   7.362  12.530
 8453W        W80878  20.999  11.443  14.779
 8454W        W80879  14.051   0.831  11.803
 8455W        W80880  28.745  39.034   1.909
 8456W        W80881  11.870  32.359  14.851
 8457W        W80882  41.307  12.294   3.633
 8458W        W80883  28.903  20.561  12.900
 8459W        W80884  33.927  14.341  13.816
 8460W        W80885  20.788  26.106   4.292
 8461W        W80886  32.683  26.604   3.298
 8462W        W80887  39.450   6.099   1.193
 8463W        W80888  20.809  22.752   4.128
 8464W        W80889  17.603  15.716   4.001
 8465W        W80890  26.697  21.420  14.787
 8466W        W80891  19.251   6.210   2.382
 8467W        W80892  31.620  20.770  14.374
 8468W        W80893  31.606   8.426   1.673
 8469W        W80894  18.363  34.843   0.422
 8470W        W80895  42.131  16.676   4.319
 8471W        W80896  10.940  20.090   1.617
 8472W        W80897   8.469  24.613   4.088
 8473W        W80898  22.215  25.646  14.171
 8474W        W80899  15.525  25.522   2.679
 8475W        W80900  25.234  37.592  12.855
 8476W        W80901  25.114  10.741  13.303
 8477W        W80902  40.004  43.857   3.300
 8478W        W80903  36.392  11.502   2.366
 8479W        W80904  10.034  20.794   2.260
 8480W        W80905  32.366  21.502   0.794
 8481W        W80906  26.486   8.304  11.931
 8482W        W80907  40.307   9.128   2.787
 8483W        W80908  20.699   6.853   4.357
 8484W        W80909  37.960  41.238  12.422
 8485W        W80910  12.264  40.388  10.832
 8486W        W80911  19.603   1.605   2.893
 8487W        W80912  18.213  20.062  14.866
 8488W        W80913   2.240  25.497  12.418
 8489W        W80914   3.524  41.209  12.089
 8490W        W80915  12.266  21.887  13.587
 8491W        W80916  40.291   9.013   4.078
 8492W        W80917  37.604  31.924  10.755
 8493W        W80918  19.233   7.281  10.686
 8494W        W80919  23.079   7.756   1.816
 8495W        W80920  17.087   2.968   0.840
 8496W        W80921  13.804  20.970   1.709
 8497W        W80922   5.827   2.341  12.537
 8498W        W80923  15.442  20.702   0.866
 8499W        W80924  14.307  37.524  14.984
 8500W        W80925  12.155  13.872   3.032
 8501W        W80926  22.008  42.446  13.919
 8502W        W80927   9.003  14.393  13.369
 8503W        W80928   6.741  31.896  11.452
 8504W        W80929  23.719   0.815   0.805
 8505W        W80930  21.852  10.189  10.216
 8506W        W80931  20.612  37.002  13.824
 8507W        W80932  38.807  16.079   1.297
 8508W        W80933   5.170   0.396   2.393
 8509W        W80934  31.096  35.769  10.660
 8510W        W80935   6.862  38.404   3.685
 8511W        W80936   1.184  22.068  11.830
 8512W        W80937   1.393  42.599   3.592
 8513W        W80938  43.291  26.028   0.025
 8514W        W80939  36.007  14.429   3.242
 8515W        W80940   1.923  33.328   4.953
 8516W        W80941  22.137  15.097  11.797
 8517W        W80942  37.368  28.509   0.352
 8518W        W80943  28.597  29.090  12.426
 8519W        W80944  27.146  10.889   4.069
 8520W        W80945  32.091   3.067  12.855
 8521W        W80946  43.820  28.518  10.456
 8522W        W80947  24.442  22.952  12.479
 8523W        W80948  31.133  38.313  11.562
 8524W        W80949  15.714   7.734  10.263
 8525W        W80950   2.464  39.402   2.846
 8526W        W80951  28.018  39.204  13.070
 8527W        W80952  30.510  22.735  13.384
 8528W        W80953  27.439  42.332  13.317
 8529W        W80954   4.887  19.438   3.230
 8530W        W80955  34.702  29.033   4.617
 8531W        W80956  12.157  35.604  13.490
 8532W        W80957  20.328  22.173  12.368
 8533W        W80958  20.204  11.464  14.538
 8534W        W80959  10.592  18.520  14.791
 8535W        W80960  18.801  40.259  12.515
 8536W        W80961  40.283  23.506  14.290
 8537W        W80962  12.505  34.017   2.861
 8538W        W80963  14.541  11.467  11.107
 8539W        W80964  36.076  36.765  13.342
 8540W        W80965   9.770  33.128   1.944
 8541W        W80966  10.395  44.167   4.381
 8542W        W80967   3.887  12.350   0.706
 8543W        W80968  30.874  26.997   0.022
 8544W        W80969  37.477   8.161   3.139
 8545W        W80970   4.342   4.352   3.558
 8546W        W80971  36.691  12.972   4.919
 8547W        W80972  14.558  28.847   3.285
 8548W        W80973  31.649   5.303  10.553
 8549W        W80974  35.877  14.698   0.205
 8550W        W80975   6.210  30.479   0.281
 8551W        W80976  37.496  29.653  14.675
 8552W        W80977  37.025   7.978   2.842
 8553W        W80978   3.716   5.321  13.368
 8554W        W80979   6.645  34.568  14.504
 8555W        W80980  41.919  23.917   4.673
 8556W        W80981  24.639  10.454  11.527
 8557W        W80982  17.138  32.418   5.490
 8558W        W80983  20.136   0.323   2.887
 8559W        W80984  15.184  12.586  11.939
 8560W        W80985  43.024  38.586  13.463
 8561W        W80986  34.674  30.288  10.807
 8562W        W80987   5.617  27.060  11.717
 8563W        W80988  38.145   8.269  12.042
 8564W        W80989   1.554  33.965   1.183
 8565W        W80990  38.596  30.205   2.293
 8566W        W80991   5.290   8.720   1.280
 8567W        W80992  11.970  23.106  13.392
 8568W        W80993  35.215  15.508   9.994
 8569W        W80994   5.292   4.222   4.399
 8570W        W80995  11.467  44.785  10.443
 8571W        W80996   5.706   8.825   2.411
 8572W        W80997  38.552   5.184   4.484
 8573W        W80998  40.841  41.919   0.965
 8574W        W80999  35.368  32.975  13.786
 8575W        W81000  36.254  22.539  10.112
 8576W        W81001   5.309  14.111  14.087
 8577W        W81002  23.061   7.719  11.945
 8578W        W81003   8.727   5.893  11.675
 8579W        W81004   7.484  16.222   3.737
 8580W        W81005  34.567   2.969  14.420
 8581W        W81006  22.519  14.821   3.828
 8582W        W81007  44.051  12.389   4.772
 8583W        W81008  33.628  41.956   0.214
 8584W        W81009  30.231  36.388  10.839
 8585W        W81010  11.388  15.611   3.612
 8586W        W81011  13.004  22.527   4.311
 8587W        W81012  21.501  22.967   2.458
 8588W        W81013  25.103  38.481  12.329
 8589W        W81014  14.859  39.340   2.734
 8590W        W81015  31.202  26.574   1.924
 8591W        W81016  32.367  19.526   1.841
 8592W        W81017  12.666  41.230   4.170
 8593W        W81018  41.798  26.070   2.277
 8594W        W81019  36.174   4.988  14.771
 8595W        W81020   0.957  32.663  11.957
 8596W        W81021  24.876  29.038  14.735
 8597W        W81022  32.957  15.851   3.650
 8598W        W81023   3.499  21.081  10.355
 8599W        W81024  40.336   8.761  12.299
 8600W        W81025  11.478   2.335   4.954
 8601W        W81026  11.722  21.426   2.652
 8602W        W81027  24.931  19.703   0.614
 8603W        W81028  17.867   9.767  11.157
 8604W        W81029  41.000   1.695   2.845
 8605W        W81030   8.468  14.066  11.717
 8606W        W81031   5.222  25.950   1.237
 8607W        W81032  38.676  43.659   3.185
 8608W        W81033  24.218   8.119  11.198
 8609W        W81034  32.916  15.790  14.358
 8610W        W81035  18.268   4.996  12.895
 8611W        W81036  23.092  24.233   4.819
 8612W        W81037  37.828  20.764   4.753
 8613W        W81038  21.324  44.435   5.177
 8614W        W81039   6.253   4.940   4.279
 8615W        W81040  14.211  38.934  10.648
 8616W        W81041   2.461  35.661   3.370
 8617W        W81042  19.705  32.630  14.711
 8618W        W81043  13.337   1.937   4.087
 8619W        W81044  12.409   1.475   2.715
 8620W        W81045  25.175  15.980   0.901
 8621W        W81046  13.405   8.360  11.537
 8622W        W81047  19.581  23.195   2.936
 8623W        W81048  18.803  25.916  10.536
 8624W        W81049  39.176  44.807  13.554
 8625W        W81050  41.340  24.098  11.415
 8626W        W81051   1.895   3.389  11.164
 8627W        W81052   7.755   8.885  11.900
 8628W        W81053  36.590  40.829   0.872
 8629W        W81054  19.048  26.285   0.008
 8630W        W81055  11.860  28.364  10.733
 8631W        W81056  14.541   6.310   2.380
 8632W        W81057  22.580   3.492   0.370
 8633W        W81058   8.252  16.807  14.810
 8634W        W81059  10.179  41.317  13.856
 8635W        W81060   8.140   6.913   4.133
 8636W        W81061   3.925  38.132   4.184
 8637W        W81062  11.691  23.090   3.858
 8638W        W81063  38.375  13.202   2.223
 8639W        W81064  14.200   7.755  11.406
 8640W        W81065  29.173   0.443   3.936
 8641W        W81066   0.296  10.046  11.408
 8642W        W81067  20.769  22.696  14.721
 8643W        W81068  26.170   2.798  12.531
 8644W        W81069  17.977  42.439  11.671
 8645W        W81070   8.289   6.768   1.426
 8646W        W81071  28.638  23.359  14.871
 8647W        W81072  31.180  23.728  14.020
 8648W        W81073  25.031  33.528  13.138
 8649W        W81074  22.566  11.479   5.111
 8650W        W81075  26.736  13.719   0.825
 8651W        W81076  13.544   8.069   1.470
 8652W        W81077  13.840  17.376  12.102
 8653W        W81078  37.585  17.197  14.379
 8654W        W81079   1.337  12.796   4.357
 8655W        W81080  40.781  44.980  14.779
 8656W        W81081   0.193  11.619  13.762
 8657W        W81082  10.989  40.811   1.370
 8658W        W81083  35.710   2.608  14.929
 8659W        W81084  44.380   9.533  11.698
 8660W        W81085  38.384  13.358  10.782
 8661W        W81086  23.627  27.139  10.658
 8662W        W81087   7.903   1.859   1.985
 8663W        W81088  28.605  35.397   0.952
 8664W        W81089  18.556   3.826  12.903
 8665W        W81090  10.242  35.581   1.292
 8666W        W81091  33.545  43.567   3.746
 8667W        W81092   0.583  34.795  10.720
 8668W        W81093  31.439  25.928   1.441
 8669W        W81094   2.325   3.403  14.239
 8670W        W81095  26.345  43.494  14.597
 8671W        W81096  20.484  16.355  12.213
 8672W        W81097   6.730  31.669   4.190
 8673W        W81098  34.314  40.569   4.953
 8674W        W81099  25.039  43.305  14.809
 8675W        W81100   5.222  11.290  12.946
 8676W        W81101  43.360  43.884  13.335
 8677W        W81102  12.505  30.343   4.073
 8678W        W81103   8.007  18.602   2.736
 8679W        W81104  20.516  40.455   0.824
 8680W        W81105  22.404   7.025   3.559
 8681W        W81106  26.684  37.932  12.865
 8682W        W81107  22.071  37.817  13.048
 8683W        W81108  36.385   5.856   4.743
 8684W        W81109  15.511  31.994   2.772
 8685W        W81110  14.108  11.304   1.992
 8686W        W81111  19.854  28.045  14.819
 8687W        W81112  44.685   4.469   2.768
 8688W        W81113   6.139  24.223   2.220
 8689W        W81114  35.071  41.438   4.505
 8690W        W81115  39.562  17.616   1.304
 8691W        W81116  38.597   9.218  14.378
 8692W        W81117  15.570  28.184  13.082
 8693W        W81118   2.297  25.402  10.504
 8694W        W81119  14.730   9.843  11.231
 8695W        W81120  26.217  29.081   3.280
 8696W        W81121  44.616  38.893   0.277
 8697W        W81122  26.244  42.818  11.954
 8698W        W81123   5.769  23.056  14.772
 8699W        W81124   1.239   8.783  11.619
 8700W        W81125  14.479  18.286   1.937
 8701W        W81126  13.164  26.661  14.365
 8702W        W81127   9.860  31.964   1.813
 8703W        W81128  18.652  25.743  11.547
 8704W        W81129  20.330  12.753  10.839
 8705W        W81130  33.996  12.028  14.438
 8706W        W81131  29.562  26.767   2.102
 8707W        W81132  10.412  38.038   9.957
 8708W        W81133  12.548   5.760  12.123
 8709W        W81134  24.109  44.488  12.821
 8710W        W81135  22.125  33.089  14.036
 8711W        W81136  29.961  40.288   4.722
 8712W        W81137  25.666  29.205  11.579
 8713W        W81138  30.969  24.060   3.237
 8714W        W81139  43.775  40.410   2.035
 8715W        W81140   0.851   2.519  11.441
 8716W        W81141  38.927   2.717   3.476
 8717W        W81142  11.882  44.466   4.517
 8718W        W81143  32.367   1.471   0.809
 8719W        W81144   9.267  16.196   4.867
 8720W        W81145  30.570  33.053   1.464
 8721W        W81146  35.757   9.072  13.929
 8722W        W81147  19.098   8.444   3.345
 8723W        W81148  32.092   8.777   1.708
 8724W        W81149  35.695  36.272   1.973
 8725W        W81150  44.420  41.374   1.152
 8726W        W81151  43.931  20.204  11.860
 8727W        W81152  38.807  18.484  13.401
 8728W        W81153   2.678  32.994   1.062
 8729W        W81154  25.199  15.616   2.268
 8730W        W81155  44.413  44.033  11.543
 8731W        W81156   6.177  40.492   4.245
 8732W        W81157  13.706  24.985  14.584
 8733W        W81158  37.797  21.919  14.497
 8734W        W81159  33.349  31.074  14.563
 8735W        W81160  27.239   6.980   2.299
 8736W        W81161   3.192  11.913   4.146
 8737W        W81162  17.312  29.437   1.917
 8738W        W81163  42.284  17.582   2.298
 8739W        W81164  35.185  38.014   0.498
 8740W        W81165  37.874  33.451   4.785
 8741W        W81166  36.414   2.790  14.227
 8742W        W81167   4.018   0.346  13.820
 8743W        W81168  10.985  23.466  14.882
 8744W        W81169   0.394  17.321  13.647
 8745W        W81170  28.970   9.776  13.357
 8746W        W81171  20.291  38.499   0.817
 8747W        W81172   0.137   8.329  13.812
 8748W        W81173  20.036  41.470   0.725
 8749W        W81174  40.102  15.179  11.596
 8750W        W81175  42.402  18.106   4.194
 8751W        W81176  19.536  20.704   0.972
 8752W        W81177   9.319  18.296  14.396
 8753W        W81178  11.568  41.888   0.080
 8754W        W81179  22.620  33.672   3.569
 8755W        W81180  10.421  37.981  13.984
 8756W        W81181  36.405   4.995  12.983
 8757W        W81182  12.841  32.046   4.377
 8758W        W81183  43.371  40.688  12.070
 8759W        W81184  31.322  37.882  12.017
 8760W        W81185  41.343  37.232   3.264
 8761W        W81186   3.973  36.349   1.859
 8762W        W81187  40.798   8.997   1.288
 8763W        W81188  30.101  44.993  14.821
 8764W        W81189   2.236  29.889  12.670
 8765W        W81190  33.866  12.170   2.692
 8766W        W81191   3.793  27.704  13.087
 8767W        W81192   9.068  32.427   0.521
 8768W        W81193   9.313  26.155  14.623
 8769W        W81194  14.497   3.280   4.542
 8770W        W81195  33.106  29.960  12.931
 8771W        W81196  13.650  37.022   0.943
 8772W        W81197   1.500  41.181  12.017
 8773W        W81198  30.392  14.507   1.381
 8774W        W81199   8.212  12.310   3.170
 8775W        W81200  13.728  22.872  14.985
 8776W        W81201  17.064   8.085   5.204
 8777W        W81202  14.705   1.929   2.332
 8778W        W81203  38.399   6.896  11.420
 8779W        W81204  29.713  44.365  12.632
 8780W        W81205   1.950  22.677   1.653
 8781W        W81206  34.870  28.290  14.705
 8782W        W81207  36.016  24.480  13.415
 8783W        W81208  23.632  38.432  14.645
 8784W        W81209  14.624  20.669   0.452
 8785W        W81210   3.648  20.253  12.236
 8786W        W81211   2.266  24.204  12.399
 8787W        W81212   5.359  32.008  12.623
 8788W        W81213  19.209   2.299  13.920
 8789W        W81214  15.915  20.242  11.722
 8790W        W81215  22.928  13.522   1.415
 8791W        W81216   3.501  39.050   2.256
 8792W        W81217  26.586  27.166  11.136
 8793W        W81218  40.892  43.103  13.446
 8794W        W81219  32.038   9.007  13.812
 8795W        W81220  15.571  21.690  13.093
 8796W        W81221  34.532  30.300  11.618
 8797W        W81222  20.492   5.356   0.214
 8798W        W81223  26.103  12.672  12.132
 8799W        W81224  30.777   8.144  11.000
 8800W        W81225   7.903  35.769   0.147
 8801W        W81226  23.255  32.068   0.359
 8802W        W81227  13.536  35.119   1.443
 8803W        W81228  13.884  44.573  14.080
 8804W        W81229  20.904   5.853  11.053
 8805W        W81230   3.642  22.725  13.846
 8806W        W81231   0.324  28.431  10.713
 8807W        W81232   5.304  38.344   4.061
 8808W        W81233  25.655  21.328  11.995
 8809W        W81234  34.282   8.653   1.937
 8810W        W81235  38.482  15.346   3.165
 8811W        W81236  25.123  21.430   2.133
 8812W        W81237  38.272  16.236   2.179
 8813W        W81238  44.928  35.007   2.297
 8814W        W81239   0.416  21.081   3.214
 8815W        W81240   0.779  29.957  14.633
 8816W        W81241  41.271  16.824   2.773
 8817W        W81242  26.209   0.762   1.651
 8818W        W81243  39.919  33.493  12.165
 8819W        W81244  21.544  14.349   2.164
 8820W        W81245  22.112   6.985  14.509
 8821W        W81246  36.570  29.654   4.941
 8822W        W81247  17.443  25.321   1.012
 8823W        W81248   9.202  31.944  11.106
 8824W        W81249  14.719  13.581  10.778
 8825W        W81250  41.578  21.141   0.392
 8826W        W81251  10.846   7.272  14.104
 8827W        W81252  43.373  22.306   1.625
 8828W        W81253  29.463  22.029   3.796
 8829W        W81254  31.836   3.474   2.371
 8830W        W81255   0.350  15.818  13.431
 8831W        W81256  33.899  14.750  10.643
 8832W        W81257  30.246  21.310  12.212
 8833W        W81258   7.366  41.020  11.684
 8834W        W81259  33.393   0.028  11.985
 8835W        W81260  36.323  37.071   2.896
 8836W        W81261  33.004  26.560  13.743
 8837W        W81262  17.314  19.610  10.768
 8838W        W81263  24.321   1.904   0.460
 8839W        W81264  38.934   7.634   2.384
 8840W        W81265  21.397   8.930   3.276
 8841W        W81266  44.892  31.626  13.528
 8842W        W81267  30.248  34.920   1.873
 8843W        W81268   9.052  35.350   4.063
 8844W        W81269  33.330   9.345  14.039
 8845W        W81270  21.676  42.916   0.573
 8846W        W81271  13.138  27.003  10.991
 8847W        W81272  41.705  22.568   5.036
 8848W        W81273  37.079   0.704   3.824
 8849W        W81274   4.330  23.152  13.718
 8850W        W81275   7.919  12.482  12.360
 8851W        W81276   6.621  14.156   1.350
 8852W        W81277  18.746  28.475   0.383
 8853W        W81278  30.424  18.812   5.006
 8854W        W81279  32.124   3.216   0.788
 8855W        W81280  38.479  39.031   3.191
 8856W        W81281  25.707  32.801  13.069
 8857W        W81282  41.969  21.665  14.000
 8858W        W81283  43.651  36.494   0.268
 8859W        W81284  42.427   1.652   2.276
 8860W        W81285  22.039  12.411   2.833
 8861W        W81286  22.291  10.871  14.473
 8862W        W81287  36.819  39.739  11.984
 8863W        W81288  13.658  16.262  11.212
 8864W        W81289  33.482   0.538   0.932
 8865W        W81290  23.992  30.471   4.949
 8866W        W81291  26.977  38.489  12.032
 8867W        W81292  37.345  41.960   2.872
 8868W        W81293  42.016  14.322   4.400
 8869W        W81294   6.285   9.121   1.944
 8870W        W81295  26.619   4.674  11.644
 8871W        W81296   3.981  12.230   2.294
 8872W        W81297  22.611  23.496  10.760
 8873W        W81298   7.832  42.377  12.561
 8874W        W81299   9.241   8.840  13.446
 8875W        W81300  39.926  34.662  12.421
 8876W        W81301  18.410  24.000   3.747
 8877W        W81302  33.377   6.381  11.353
 8878W        W81303   7.735  17.559   2.192
 8879W        W81304  18.452  31.618  11.903
 8880W        W81305  30.254  17.461  14.384
 8881W        W81306  43.497  21.113   1.295
 8882W        W81307  36.986  18.014   2.335
 8883W        W81308   3.426  12.134  13.895
 8884W        W81309  17.217  44.435   1.195
 8885W        W81310  32.551  25.279  11.456
 8886W        W81311  14.902  32.977   0.369
 8887W        W81312  17.141  41.052   0.499
 8888W        W81313  27.211  44.352   1.708
 8889W        W81314   1.461   5.605   1.275
 8890W        W81315  26.791  38.370  11.556
 8891W        W81316  20.707   0.615   1.561
 8892W        W81317  20.311  40.518  13.237
 8893W        W81318  30.458  27.605   3.221
 8894W        W81319   2.940  30.232   4.509
 8895W        W81320  29.558  42.851   1.901
 8896W        W81321  11.273  33.802  10.445
 8897W        W81322  25.755   9.399   0.834
 8898W        W81323  16.573  10.871  12.134
 8899W        W81324  44.365  39.310   3.641
 8900W        W81325   4.910  11.255  14.514
 8901W        W81326  28.925  34.962   4.700
 8902W        W81327  33.884   6.848  12.076
 8903W        W81328  43.130  40.504   4.143
 8904W        W81329  29.601  34.178  14.682
 8905W        W81330  41.823  37.618   1.282
 8906W        W81331   1.188  21.133  13.717
 8907W        W81332  16.745  29.111  10.966
 8908W        W81333   3.822   4.674  13.894
 8909W        W81334   7.360   4.139   2.843
 8910W        W81335  33.616  20.750  13.031
 8911W        W81336   3.477   8.616   4.307
 8912W        W81337  23.294  13.804   0.822
 8913W        W81338  16.719  17.254  13.915
 8914W        W81339  13.102  31.093   2.818
 8915W        W81340  19.744  23.082   4.455
 8916W        W81341   2.383  32.474   0.212
 8917W        W81342  40.567   1.773   4.620
 8918W        W81343  17.644  11.807   4.100
 8919W        W81344   4.784  30.926   3.699
 8920W        W81345  17.069  19.531  11.634
 8921W        W81346  14.098   7.113  12.459
 8922W        W81347  31.160  22.139  13.469
 8923W        W81348  28.097  41.945  12.035
 8924W        W81349  11.433   5.116  11.383
 8925W        W81350   7.188   8.953   2.175
 8926W        W81351  42.477  12.728  12.010
 8927W        W81352   3.207  39.819   2.787
 8928W        W81353  37.550  41.827   2.305
 8929W        W81354  21.734  32.880  13.782
 8930W        W81355   7.796  43.548  13.545
 8931W        W81356  26.154  28.065   1.285
 8932W        W81357  28.790  14.844   2.616
 8933W        W81358  42.747  20.212  10.528
 8934W        W81359   8.157   6.170  10.640
 8935W        W81360  42.087  10.429  11.171
 8936W        W81361  18.481  32.305   4.559
 8937W        W81362  29.191  28.757   0.402
 8938W        W81363  23.562  31.271  10.997
 8939W        W81364  17.095  20.315  14.195
 8940W        W81365  18.635  42.805  12.627
 8941W        W81366  11.882  36.652   0.311
 8942W        W81367  38.950  27.908   2.884
 8943W        W81368   0.712  24.509   4.210
 8944W        W81369  30.458  17.053   4.591
 8945W        W81370  19.117  28.120  14.068
 8946W        W81371  42.543  16.599  12.471
 8947W        W81372  28.686  13.750   0.042
 8948W        W81373  28.012  37.456  13.545
 8949W        W81374   9.691  34.443   3.315
 8950W        W81375   7.300  18.625   1.666
 8951W        W81376  30.880   8.510   2.245
 8952W        W81377  14.718  23.658  11.330
 8953W        W81378  16.263  21.555  13.735
 8954W        W81379  14.739   0.241  11.864
 8955W        W81380   0.572   8.456  12.122
 8956W        W81381  31.122  18.846  13.418
 8957W        W81382  28.328  29.734  13.380
 8958W        W81383  24.982  36.558  14.411
 8959W        W81384  19.914   5.476  12.333
 8960W        W81385  26.709   1.022   4.166
 8961W        W81386  36.581  11.603   4.838
 8962W        W81387  22.919  14.142   3.657
 8963W        W81388  27.180  18.901  12.914
 8964W        W81389  27.856  21.200  11.160
 8965W        W81390  19.079  19.231  12.797
 8966W        W81391  36.889  40.553  13.572
 8967W        W81392  10.348  40.234   2.411
 8968W        W81393  43.677   5.150   4.341
 8969W        W81394  13.330   5.256   4.253
 8970W        W81395  28.659   6.381   0.649
 8971W        W81396  34.477  19.072  14.121
 8972W        W81397  14.344  11.666  11.846
 8973W        W81398  29.717  18.885   2.627
 8974W        W81399  30.186  33.559   2.107
 8975W        W81400  19.690  36.220  13.445
 8976W        W81401  20.492  27.557   1.267
 8977W        W81402  17.620  17.418   4.002
 8978W        W81403  11.400  14.858  13.031
 8979W        W81404  41.462  26.037   1.499
 8980W        W81405  16.816   6.049  12.809
 8981W        W81406  35.866  14.329   2.093
 8982W        W81407  15.210  13.146  13.056
 8983W        W81408   4.012  23.790  12.048
 8984W        W81409  26.373  28.349   1.699
 8985W        W81410  37.170  22.676   1.526
 8986W        W81411  28.587   8.868  13.792
 8987W        W81412  30.665   2.530  14.507
 8988W        W81413  30.407  36.854   3.352
 8989W        W81414  10.943  41.935   1.775
 8990W        W81415   7.682  37.857   2.965
 8991W        W81416  23.995  31.124   4.652
 8992W        W81417  37.225  34.939  13.861
 8993W        W81418  17.223  25.404   0.364
 8994W        W81419  28.548  34.381   1.109
 8995W        W81420  22.595   8.368   1.421
 8996W        W81421  43.615  15.914  11.149
 8997W        W81422  31.959  31.993   3.195
 8998W        W81423  18.811   1.277  11.092
 8999W        W81424   6.127  36.194   0.856
 9000W        W81425  21.127  31.091   1.855
 9001W        W81426  10.255  44.764   1.862
 9002W        W81427  24.623   4.337   1.878
 9003W        W81428  40.678   6.962  12.711
 9004W        W81429   8.092  33.635   2.754
 9005W        W81430  30.056  32.053   0.407
 9006W        W81431  27.934   3.026  12.042
 9007W        W81432  29.688   5.893   2.752
 9008W        W81433  28.902  23.084  10.198
 9009W        W81434  28.110  38.606   3.327
 9010W        W81435  25.730  36.816   1.873
 9011W        W81436  31.325  39.635   0.339
 9012W        W81437  18.621   7.590  14.313
 9013W        W81438  19.797   9.741  12.475
 9014W        W81439  17.705   2.423   2.019
 9015W        W81440  19.271  29.499  13.892
 9016W        W81441  31.932  23.104   1.459
 9017W        W81442  22.503  22.293  12.978
 9018W        W81443  42.808  14.983   0.698
 9019W        W81444  15.328   8.457  11.894
 9020W        W81445  15.875   8.557   4.211
 9021W        W81446  29.612   0.551   4.156
 9022W        W81447  39.646  27.104  11.101
 9023W        W81448  24.126  11.762   4.626
 9024W        W81449  28.304  34.409  12.430
 9025W        W81450  15.624  44.903   1.531
 9026W        W81451  38.721  15.732   3.636
 9027W        W81452  38.861  44.442   2.350
 9028W        W81453  44.352  33.849   3.182
 9029W        W81454  36.194  21.943  10.509
 9030W        W81455  33.854  44.112   0.123
 9031W        W81456  34.100   9.311  12.998
 9032W        W81457  15.017  35.145   5.011
 9033W        W81458   1.360  34.917  13.652
 9034W        W81459   0.780  15.621  11.035
 9035W        W81460  25.253  19.036   3.313
 9036W        W81461  21.803   5.202   3.662
 9037W        W81462  23.535  32.082   1.047
 9038W        W81463  27.649  28.502  10.462
 9039W        W81464   5.397  41.038   0.914
 9040W        W81465  29.414  36.723  11.874
 9041W        W81466  36.918  39.111   3.989
 9042W        W81467  33.049  10.179   0.757
 9043W        W81468  38.429  40.971   2.906
 9044W        W81469   1.487  31.086  11.130
 9045W        W81470   7.411  27.452   0.067
 9046W        W81471  27.197  15.649  13.449
 9047W        W81472  10.859  19.161  11.985
 9048W        W81473   1.842  15.583   4.398
 9049W        W81474  20.797  32.578  11.930
 9050W        W81475  32.851  33.542   2.251
 9051W        W81476  43.936  22.135   0.661
 9052W        W81477  24.739   2.528  11.772
 9053W        W81478   0.760   2.469  14.446
 9054W        W81479   2.629  10.568  12.568
 9055W        W81480  12.140  13.214   1.828
 9056W        W81481  32.267  44.246  14.211
 9057W        W81482  41.777   3.273  13.838
 9058W        W81483   9.698  42.228  12.921
 9059W        W81484   4.736  39.336   1.735
 9060W        W81485  12.374   2.303  11.492
 9061W        W81486   1.533  42.458  11.537
 9062W        W81487   2.481  11.060   4.600
 9063W        W81488  24.419  21.705  10.776
 9064W        W81489  17.077  25.634   2.300
 9065W        W81490  31.660  39.953   3.372
 9066W        W81491  17.998  20.516   2.765
 9067W        W81492  38.179  15.268   0.735
 9068W        W81493   1.201  11.616   2.215
 9069W        W81494  32.931  44.254   2.314
 9070W        W81495  14.195  15.091   4.897
 9071W        W81496   9.224  43.242  11.486
 9072W        W81497  42.356  40.673   4.789
 9073W        W81498  43.424   2.899   3.552
 9074W        W81499   4.531  39.916  11.717
 9075W        W81500  19.218  27.302  14.770
 9076W        W81501  43.008  27.186  10.692
 9077W        W81502  22.265  31.264  13.807
 9078W        W81503  19.332  28.127  13.521
 9079W        W81504   9.230   6.273   4.494
 9080W        W81505  26.782  19.753   1.997
 9081W        W81506   4.666  43.025  12.063
 9082W        W81507  21.501   1.549   2.709
 9083W        W81508  18.297  11.347   1.813
 9084W        W81509  15.367  11.667  10.757
 9085W        W81510  19.801  17.190   0.566
 9086W        W81511   1.207  42.496   0.349
 9087W        W81512  38.111  17.737  11.610
 9088W        W81513  41.926  33.465  12.005
 9089W        W81514  12.293   1.841  13.372
 9090W        W81515   8.900  42.992   2.553
 9091W        W81516  21.661  22.941  10.812
 9092W        W81517   9.944   8.767  12.902
 9093W        W81518  31.999  16.092  14.963
 9094W        W81519  12.659  24.466   1.388
 9095W        W81520  41.340  23.418   0.435
 9096W        W81521  13.859  42.986   2.692
 9097W        W81522  12.199  39.653   1.710
 9098W        W81523   3.273  26.338  14.552
 9099W        W81524   5.895  44.427   1.884
 9100W        W81525  41.373  19.606  11.807
 9101W        W81526  30.092  41.423   4.738
 9102W        W81527  12.385  12.196  13.355
 9103W        W81528  27.952  14.104   0.474
 9104W        W81529   1.828  12.782  14.057
 9105W        W81530  10.349   6.420  12.983
 9106W        W81531   5.982  21.669  13.471
 9107W        W81532  25.493   3.842  13.421
 9108W        W81533  30.496   5.330  14.543
 9109W        W81534  41.413  41.828   0.357
 9110W        W81535   2.679   8.908   3.212
 9111W        W81536  29.380  43.817   4.783
 9112W        W81537  11.597  33.089  11.278
 9113W        W81538   9.848  36.925  12.115
 9114W        W81539  42.550   4.643  11.986
 9115W        W81540  30.424  36.888   1.778
 9116W        W81541  18.794  36.987   4.807
 9117W        W81542  38.504   8.288   5.092
 9118W        W81543   9.784  44.994   1.862
 9119W        W81544  22.979  14.691   4.061
 9120W        W81545  43.447  22.017  14.817
 9121W        W81546  36.073  10.136  10.198
 9122W        W81547  40.291  39.104   3.151
 9123W        W81548  42.366  20.766  10.953
 9124W        W81549  40.956  11.147  11.988
 9125W        W81550  29.381   6.396   4.100
 9126W        W81551  11.345  42.986  14.951
 9127W        W81552  11.263  31.269  11.232
 9128W        W81553  38.765  44.529   1.826
 9129W        W81554  33.356  42.214  10.489
 9130W        W81555  34.439  27.732  12.017
 9131W        W81556   2.524  16.661   2.942
 9132W        W81557  34.865   7.407   0.852
 9133W        W81558  44.860  22.835   1.883
 9134W        W81559  30.585  13.251   2.606
 9135W        W81560  12.176   2.641  11.042
 9136W        W81561  17.324  16.884   1.064
 9137W        W81562   8.169  19.365   4.050
 9138W        W81563  43.979  34.724  11.649
 9139W        W81564  22.300  29.490  13.916
 9140W        W81565  36.523  32.898   4.149
 9141W        W81566   4.645  41.291  12.508
 9142W        W81567   8.143   5.898   3.154
 9143W        W81568  17.086   0.036   2.475
 9144W        W81569  31.514  35.519   4.418
 9145W        W81570  19.185  22.982   3.837
 9146W        W81571  44.943  44.244   1.749
 9147W        W81572  32.099   7.881  13.003
 9148W        W81573  20.340  37.570   4.502
 9149W        W81574  43.924  26.235   2.814
 9150W        W81575   3.382  11.924   0.004
 9151W        W81576  21.516   7.178  14.730
 9152W        W81577  30.143  37.247   3.605
 9153W        W81578  44.568   9.154   2.382
 9154W        W81579  28.547   2.197  11.590
 9155W        W81580  14.220   0.423   3.492
 9156W        W81581  11.415   5.100   4.702
 9157W        W81582   7.725   0.524   4.199
 9158W        W81583  44.803  36.574  11.592
 9159W        W81584  18.785  11.270   4.555
 9160W        W81585  43.820   9.860  13.901
 9161W        W81586  42.742  41.077   2.023
 9162W        W81587  20.756   2.299   5.004
 9163W        W81588   5.418   8.278  11.228
 9164W        W81589  31.469  35.710   2.320
 9165W        W81590  21.036  16.732  12.986
 9166W        W81591   6.527  29.922   1.749
 9167W        W81592  15.560   2.127  13.629
 9168W        W81593   8.959  37.413   1.638
 9169W        W81594  10.841  35.656  13.692
 9170W        W81595   7.632  23.121   3.650
 9171W        W81596  43.836  33.405  10.999
 9172W        W81597  39.091  13.119  11.947
 9173W        W81598  33.341  40.725   0.089
 9174W        W81599  15.674  36.082  14.191
 9175W        W81600  30.412  41.499  14.801
 9176W        W81601  20.531   7.732  13.444
 9177W        W81602  43.857  19.552   0.579
 9178W        W81603   0.999  41.473   4.552
 9179W        W81604   1.085   2.171  11.147
 9180W        W81605  15.901  29.927  13.412
 9181W        W81606  38.550   7.855   5.463
 9182W        W81607   6.205  38.402  13.071
 9183W        W81608   5.062   9.518  13.794
 9184W        W81609  35.862  34.145  14.484
 9185W        W81610  11.904  31.528   2.726
 9186W        W81611  32.555  16.107  10.638
 9187W        W81612  23.662  18.207  11.967
 9188W        W81613  25.092  42.163  12.894
 9189W        W81614  33.903   0.516   4.654
 9190W        W81615  28.896  10.336  12.454
 9191W        W81616  36.498  11.168   4.550
 9192W        W81617  30.145  16.771  13.319
 9193W        W81618  16.737   0.716   4.593
 9194W        W81619   8.680  29.378   1.171
 9195W        W81620  22.751  32.371   0.662
 9196W        W81621  17.581  37.370  10.784
 9197W        W81622  41.861   7.608  12.949
 9198W        W81623   1.414  29.190   0.301
 9199W        W81624   0.529   4.593   3.733
 9200W        W81625  43.039  29.352  14.992
 9201W        W81626  44.784  17.721  11.039
 9202W        W81627   5.446  44.331  13.505
 9203W        W81628  13.401  27.716  14.409
 9204W        W81629  35.819   2.529  12.981
 9205W        W81630  24.540   4.477  14.375
 9206W        W81631  27.150  13.053   2.732
 9207W        W81632   3.866   0.466   0.214
 9208W        W81633  12.620  33.461   4.173
 9209W        W81634   8.481   8.797   4.348
 9210W        W81635  30.461  42.106   1.291
 9211W        W81636  19.772   6.674   4.534
 9212W        W81637   7.833  12.180  13.580
 9213W        W81638  29.800   4.716   4.656
 9214W        W81639  36.165  31.448   0.126
 9215W        W81640  33.396   6.249  12.424
 9216W        W81641   9.748   9.427  10.704
 9217W        W81642  26.640  19.814  13.819
 9218W        W81643  18.253  15.115   1.400
 9219W        W81644  13.137  24.164  13.391
 9220W        W81645  19.128  13.293   4.412
 9221W        W81646  18.296  38.017   4.366
 9222W        W81647  23.826  40.585   0.324
 9223W        W81648  20.049  44.466   3.269
 9224W        W81649   5.928  22.024   3.664
 9225W        W81650  12.616   3.155   2.223
 9226W        W81651  14.541  17.730  13.907
 9227W        W81652   2.528  21.110   4.141
 9228W        W81653  27.218  14.584   0.576
 9229W        W81654  28.212  19.546   4.226
 9230W        W81655  17.026  24.970  13.066
 9231W        W81656  43.442  19.162  10.048
 9232W        W81657   5.223  35.177   3.358
 9233W        W81658  17.558  14.922  12.413
 9234W        W81659   9.414  23.779   1.740
 9235W        W81660  32.406  41.887   0.494
 9236W        W81661  29.551  10.610   4.649
 9237W        W81662   0.181  19.572  12.160
 9238W        W81663   5.818  21.199   0.000
 9239W        W81664   9.367  20.072  10.694
 9240W        W81665  41.089  11.399  10.562
 9241W        W81666   1.246  24.216  14.484
 9242W        W81667  30.061   5.058   2.832
 9243W        W81668  17.810  17.902  10.760
 9244W        W81669  28.396   0.337  13.470
 9245W        W81670  27.201  22.718   0.092
 9246W        W81671  11.132   8.376  11.891
 9247W        W81672  33.603  38.888   2.291
 9248W        W81673  20.521  19.865  13.972
 9249W        W81674  41.130  36.897   1.150
 9250W        W81675  15.123  25.245  14.843
 9251W        W81676   5.170  10.753   2.637
 9252W        W81677  40.410   0.593   3.213
 9253W        W81678  36.138  13.694   3.669
 9254W        W81679  31.451  16.083  14.895
 9255W        W81680  11.167  10.137   3.785
 9256W        W81681  44.611  18.880  11.862
 9257W        W81682  38.196  32.989  10.598
 9258W        W81683  25.261  30.209   1.454
 9259W        W81684   7.605  32.756  11.499
 9260W        W81685  44.806  34.210  10.992
 9261W        W81686  22.957  26.572  10.235
 9262W        W81687  44.953  28.057  13.342
 9263W        W81688   2.015  25.221   0.843
 9264W        W81689  43.269  18.942   0.454
 9265W        W81690   9.623  17.404   1.743
 9266W        W81691  33.966  29.594   2.197
 9267W        W81692   4.263  29.184  14.098
 9268W        W81693   3.947   1.911  13.469
 9269W        W81694   2.953  15.693   2.190
 9270W        W81695  20.073  34.860   2.407
 9271W        W81696   8.766   6.451  11.610
 9272W        W81697   7.307  43.280   2.302
 9273W        W81698  20.472  29.125   4.057
 9274W        W81699  14.533  38.546  10.516
 9275W        W81700   0.850  27.141   1.757
 9276W        W81701  32.603  39.409   2.677
 9277W        W81702  13.765  36.705   0.306
 9278W        W81703  43.381  23.530  13.790
 9279W        W81704  22.955   6.764   4.741
 9280W        W81705  11.273  39.610  14.163
 9281W        W81706  14.125   7.907   0.949
 9282W        W81707   6.962  28.538  12.340
 9283W        W81708  18.992  34.006  13.891
 9284W        W81709  29.987   4.503  12.184
 9285W        W81710  14.385  43.007  11.546
 9286W        W81711  32.535   8.706  14.742
 9287W        W81712  10.514  12.377  10.704
 9288W        W81713   7.365  10.396   1.217
 9289W        W81714  16.549   4.706  13.500
 9290W        W81715  28.515  20.867  10.641
 9291W        W81716  14.124  22.750   1.812
 9292W        W81717   3.979  32.843   1.001
 9293W        W81718  22.975   8.372  13.376
 9294W        W81719  20.161  37.769   1.432
 9295W        W81720   2.292   8.743  13.009
 9296W        W81721   6.031   3.389   2.337
 9297W        W81722   3.540  15.626   0.704
 9298W        W81723  16.210  24.508   3.029
 9299W        W81724  39.927  44.240  12.544
 9300W        W81725  14.411  23.677  10.530
 9301W        W81726  17.094  15.762   2.835
 9302W        W81727  20.160  20.651   4.625
 9303W        W81728  25.622  41.480  10.320
 9304W        W81729  11.300  10.762   3.049
 9305W        W81730   0.058  34.044  11.458
 9306W        W81731  44.035  31.671  10.697
 9307W        W81732  29.689  36.403   4.721
 9308W        W81733   2.385  25.679  13.525
 9309W        W81734  23.519  29.016   1.606
 9310W        W81735  35.023   0.400  12.895
 9311W        W81736   9.613  15.312   0.542
 9312W        W81737  43.914   3.820   2.272
 9313W        W81738  25.244  31.154  10.123
 9314W        W81739  31.998  44.277   2.345
 9315W        W81740   6.998   2.676   3.198
 9316W        W81741  23.041  42.750   1.189
 9317W        W81742   2.361   7.294  10.666
 9318W        W81743   7.147  42.142   0.019
 9319W        W81744  38.623  42.302  14.484
 9320W        W81745  18.281  39.977   3.590
 9321W        W81746  33.536  37.058  14.696
 9322W        W81747  21.052   0.812  12.575
 9323W        W81748   6.691  43.064   2.762
 9324W        W81749  43.080  21.081  12.111
 9325W        W81750  25.010   7.655   0.021
 9326W        W81751  39.337  41.230   1.143
 9327W        W81752  39.966   3.447   3.157
 9328W        W81753  19.258  41.068   0.844
 9329W        W81754   1.256   1.350  11.765
 9330W        W81755  34.455  20.723   2.253
 9331W        W81756  29.197  39.299   3.120
 9332W        W81757   3.395   5.291  14.296
 9333W        W81758  12.225  12.147   2.642
 9334W        W81759  21.586   4.215  10.972
 9335W        W81760  10.251  34.066  10.775
 9336W        W81761   6.054  12.806  11.886
 9337W        W81762  16.591  10.026  10.774
 9338W        W81763  17.816   7.403  14.130
 9339W        W81764   0.234  31.163  14.914
 9340W        W81765   1.213  10.376  12.373
 9341W        W81766  38.495  42.518   4.126
 9342W        W81767  39.943  29.711  12.133
 9343W        W81768  20.000  29.971   3.306
 9344W        W81769  38.479  20.523   4.043
 9345W        W81770  36.593  23.201   0.061
 9346W        W81771   2.233  16.868   1.425
 9347W        W81772  32.036  38.535  13.397
 9348W        W81773   3.754  28.386   4.569
 9349W        W81774   8.132  21.622   3.711
 9350W        W81775  37.307  14.358  14.437
 9351W        W81776  44.450   6.537   2.694
 9352W        W81777  27.788   0.960   2.375
 9353W        W81778  44.408  21.903  11.015
 9354W        W81779  24.211  40.273   0.508
 9355W        W81780  23.272  34.101   3.547
 9356W        W81781   6.716  40.904   3.231
 9357W        W81782   8.919  26.421  12.513
 9358W        W81783  35.414  20.458   3.212
 9359W        W81784  21.595  26.741   0.275
 9360W        W81785   1.789  38.145  12.829
 9361W        W81786   6.795  37.044  13.087
 9362W        W81787   8.511   0.040   1.455
 9363W        W81788  37.510   5.290   1.972
 9364W        W81789  24.888   4.893   2.783
 9365W        W81790  16.646   1.203  11.486
 9366W        W81791  23.186  29.701  11.086
 9367W        W81792  10.185  23.963   2.258
 9368W        W81793   8.429  10.232  12.126
 9369W        W81794  33.978  19.572   4.234
 9370W        W81795  43.277  31.026  14.294
 9371W        W81796  12.794  34.021  14.550
 9372W        W81797   2.661  10.057   2.626
 9373W        W81798  17.390  13.278  10.238
 9374W        W81799   0.004  37.815   3.807
 9375W        W81800  41.437  11.324   1.691
 9376W        W81801   5.455  22.707   1.334
 9377W        W81802   1.902  31.207  13.889
 9378W        W81803   8.711  37.582   3.807
 9379W        W81804  11.080  15.216  13.949
 9380W        W81805  30.527  13.303  12.633
 9381W        W81806  41.220  32.563   1.786
 9382W        W81807  11.123  43.949  10.515
 9383W        W81808  26.918  29.169   2.322
 9384W        W81809  14.581  29.485  13.633
 9385W        W81810  27.862   5.169  14.424
 9386W        W81811  25.440  13.322   4.184
 9387W        W81812  32.282  43.093   5.065
 9388W        W81813  40.804  20.807   2.761
 9389W        W81814   6.329  25.693  12.803
 9390W        W81815  41.377  19.683  13.261
 9391W        W81816  27.400  38.911   0.915
 9392W        W81817  22.797  30.407  13.894
 9393W        W81818   5.671  44.036   4.076
 9394W        W81819  38.128  29.502  12.666
 9395W        W81820  15.093  30.566  10.334
 9396W        W81821   3.427  41.814  13.461
 9397W        W81822  40.856  11.715  14.543
 9398W        W81823   5.666  14.610  12.418
 9399W        W81824  39.243  11.744  10.783
 9400W        W81825  15.793  13.113   2.433
 9401W        W81826  26.221  15.048   0.320
 9402W        W81827  22.989  14.656   1.902
 9403W        W81828  31.840   6.253   1.735
 9404W        W81829  14.812  42.555   1.279
 9405W        W81830  35.469  13.107  11.594
 9406W        W81831  43.753  10.825  13.894
 9407W        W81832  25.068   0.754   1.936
 9408W        W81833   3.964  16.296   3.735
 9409W        W81834   0.886  16.791   2.960
 9410W        W81835   9.226   5.315   2.104
 9411W        W81836  17.112  22.755  14.484
 9412W        W81837  36.013  35.344  13.382
 9413W        W81838  17.106  23.633  13.872
 9414W        W81839  22.466  17.191  14.764
 9415W        W81840  19.546  20.317   1.305
 9416W        W81841  24.004  35.236  10.857
 9417W        W81842  30.085   9.076   3.674
 9418W        W81843   7.272   1.292   0.505
 9419W        W81844  14.835   9.927  13.475
 9420W        W81845  10.609  26.001  11.238
 9421W        W81846  42.826  13.194  14.099
 9422W        W81847  23.666  20.236   3.070
 9423W        W81848   4.898   2.333  11.494
 9424W        W81849  19.103  36.119   1.589
 9425W        W81850   0.494  18.877  11.095
 9426W        W81851  14.102  24.965   0.952
 9427W        W81852   6.234  34.088  13.994
 9428W        W81853  10.116  36.897   4.188
 9429W        W81854  42.321  37.046  14.031
 9430W        W81855  24.524  24.585  12.008
 9431W        W81856   9.402  32.387  12.024
 9432W        W81857  29.415  36.126   2.597
 9433W        W81858  35.478   4.984   4.134
 9434W        W81859  10.842  13.187   4.920
 9435W        W81860  35.437  36.887  10.495
 9436W        W81861  25.849  17.289   4.936
 9437W        W81862  22.228   0.348  13.492
 9438W        W81863  41.115   4.675  11.833
 9439W        W81864  43.955  17.825   0.202
 9440W        W81865  15.717  19.766   4.162
 9441W        W81866  32.318  34.576   2.696
 9442W        W81867  31.557  26.129  12.187
 9443W        W81868  24.023  25.383   1.388
 9444W        W81869  23.566  37.182   1.866
 9445W        W81870  14.722  15.790   3.768
 9446W        W81871   5.292   9.085   2.235
 9447W        W81872   3.610  20.097   2.011
 9448W        W81873  43.421  22.682   0.291
 9449W        W81874   1.013  30.296  13.282
 9450W        W81875   9.873  10.259  11.625
 9451W        W81876   1.182  23.391   1.313
 9452W        W81877  34.901  26.178   2.853
 9453W        W81878  40.111  17.910   2.781
 9454W        W81879  42.447  33.723   2.285
 9455W        W81880  24.242   5.075  12.985
 9456W        W81881   9.512   9.387   2.685
 9457W        W81882  27.942  40.758   3.642
 9458W        W81883   1.297  33.828  11.895
 9459W        W81884  30.147  31.959   2.694
 9460W        W81885  37.530   5.267  11.683
 9461W        W81886  29.099  34.831   2.585
 9462W        W81887  19.815   1.505  11.075
 9463W        W81888   6.666  37.554   1.551
 9464W        W81889  12.178  38.937  11.884
 9465W        W81890   5.680  39.896   0.397
 9466W        W81891   7.910   9.836  12.988
 9467W        W81892  14.092  37.582  13.054
 9468W        W81893  39.435  33.126   1.548
 9469W        W81894  44.390  35.787   9.741
 9470W        W81895  31.645  11.789   0.450
 9471W        W81896  44.447  30.066  13.174
 9472W        W81897  19.725  22.710  13.853
 9473W        W81898  29.013   1.988  14.389
 9474W        W81899  29.502   1.293  14.480
 9475W        W81900  40.071  13.668   2.204
 9476W        W81901  15.562  34.320   1.714
 9477W        W81902  25.798  17.954   4.531
 9478W        W81903  22.800  29.006  12.509
 9479W        W81904  38.618  21.122   0.093
 9480W        W81905  18.841  43.523   4.399
 9481W        W81906  19.556  43.122   5.048
 9482W        W81907  38.411  13.714   1.294
 9483W        W81908  35.361  15.501  10.678
 9484W        W81909  39.403  32.372   3.634
 9485W        W81910   6.703  38.506  13.098
 9486W        W81911   3.962   5.297  12.539
 9487W        W81912  15.282  43.125  13.967
 9488W        W81913  39.119  30.228  13.304
 9489W        W81914  16.721   4.640  11.370
 9490W        W81915  44.777  42.951  10.290
 9491W        W81916  34.767   8.814  14.006
 9492W        W81917  19.000  14.780  14.476
 9493W        W81918   9.227  13.591  11.496
 9494W        W81919   3.026  10.650   4.096
 9495W        W81920  22.508  35.552  14.282
 9496W        W81921  39.046  36.316  12.521
 9497W        W81922  31.699  16.110  14.444
 9498W        W81923  14.379  10.794  12.030
 9499W        W81924   8.251  42.495   4.136
 9500W        W81925  42.508  35.159   3.647
 9501W        W81926  11.795  37.320  11.327
 9502W        W81927  34.913  27.074  12.141
 9503W        W81928   5.925  13.625   4.656
 9504W        W81929  12.696  22.382   2.692
 9505W        W81930  11.840   8.043   2.990
 9506W        W81931   3.311  40.685   2.845
 9507W        W81932  26.548  10.202  13.442
 9508W        W81933  26.234  33.638   0.417
 9509W        W81934  29.823   1.084  12.885
 9510W        W81935  25.458   7.642  11.541
 9511W        W81936   2.010  39.375   2.602
 9512W        W81937   3.813  21.733  11.645
 9513W        W81938  32.031  29.633   1.427
 9514W        W81939   2.010  28.407  12.217
 9515W        W81940   4.736   7.820   3.219
 9516W        W81941   3.753   1.951  14.773
 9517W        W81942  27.457  42.025   2.730
 9518W        W81943   4.495  37.941  14.399
 9519W        W81944  32.196  14.962   5.014
 9520W        W81945  11.887  30.625   0.917
 9521W        W81946  20.503  30.399  14.364
 9522W        W81947  23.525  26.486  12.990
 9523W        W81948   9.305  23.316  13.150
 9524W        W81949  20.167  31.082  13.804
 9525W        W81950  15.593  22.586   4.122
 9526W        W81951   2.353  38.503   2.558
 9527W        W81952  41.336  31.838   4.426
 9528W        W81953  35.979   0.552   4.187
 9529W        W81954  10.102  17.804  14.791
 9530W        W81955  11.107   6.374   0.325
 9531W        W81956  21.181  40.399  13.860
 9532W        W81957  27.013  11.600   3.784
 9533W        W81958   1.383  37.947  10.866
 9534W        W81959  11.207   1.551  11.004
 9535W        W81960  13.296  12.389  11.115
 9536W        W81961  33.137  15.702   4.470
 9537W        W81962  35.298   1.925  10.986
 9538W        W81963  42.904  33.381  13.831
 9539W        W81964  11.938  13.841  11.537
 9540W        W81965  39.291  29.001   2.124
 9541W        W81966  44.315  27.066   4.810
 9542W        W81967  29.893  34.031  12.959
 9543W        W81968  14.833   1.890   3.925
 9544W        W81969  35.991  43.012   4.145
 9545W        W81970   4.276  29.927  10.669
 9546W        W81971  26.961  32.699  10.732
 9547W        W81972   4.183   2.296  11.992
 9548W        W81973  33.124  36.905   1.502
 9549W        W81974  22.823  13.711  10.935
 9550W        W81975  29.564  26.349  11.871
 9551W        W81976  33.451  24.774  11.580
 9552W        W81977  28.919  34.895  14.411
 9553W        W81978   9.869  43.397  13.539
 9554W        W81979  21.550  40.088  14.961
 9555W        W81980   0.990  28.923  13.412
 9556W        W81981  10.796  30.033   1.232
 9557W        W81982  13.074  23.693  13.572
 9558W        W81983  40.918  15.031  12.803
 9559W        W81984  43.830  19.118   0.896
 9560W        W81985  43.735  23.776   4.376
 9561W        W81986  34.028  20.143  14.402
 9562W        W81987  28.250  19.675  11.150
 9563W        W81988  34.122   7.478   4.058
 9564W        W81989  27.960  30.508  11.926
 9565W        W81990   7.967  24.703   4.208
 9566W        W81991  30.974   0.483   3.367
 9567W        W81992  35.490  32.459   0.810
 9568W        W81993  18.546  30.173  12.926
 9569W        W81994  15.114  12.188  12.913
 9570W        W81995  44.203  38.833   0.607
 9571W        W81996  18.545  22.948  11.628
 9572W        W81997   9.140  12.733  11.132
 9573W        W81998   3.785  38.941  11.434
 9574W        W81999  23.074  31.427   0.755
 9575W        W82000   1.309  21.183  13.224
 9576W        W82001  23.780   3.460  12.506
 9577W        W82002   8.377   7.230  13.423
 9578W        W82003  20.557   9.695  13.660
 9579W        W82004  37.410  18.034   4.033
 9580W        W82005  25.185  44.766   0.951
 9581W        W82006  31.709  27.631   2.767
 9582W        W82007  35.593  36.048  14.744
 9583W        W82008  38.355  35.732  14.345
 9584W        W82009  10.654  40.464   4.185
 9585W        W82010  33.188   4.753  11.199
 9586W        W82011  25.814  10.629   0.611
 9587W        W82012  27.978   8.479  10.329
 9588W        W82013   6.616  33.038   4.247
 9589W        W82014  13.367  26.141  12.085
 9590W        W82015  19.079  27.655   0.239
 9591W        W82016  41.779  31.739  11.397
 9592W        W82017   8.937  29.589  13.414
 9593W        W82018   7.959  25.053   2.615
 9594W        W82019  16.142  39.078  12.527
 9595W        W82020  28.775  38.587  10.021
 9596W        W82021  10.781  43.210   4.622
 9597W        W82022  17.000  15.815   2.339
 9598W        W82023  40.735  25.727  12.555
 9599W        W82024  15.387  34.258   4.176
 9600W        W82025  13.620   1.740  11.948
 9601W        W82026  28.735   3.902   0.920
 9602W        W82027  24.140  40.751  12.576
 9603W        W82028   2.244  41.394  13.274
 9604W        W82029  27.864  43.477   4.213
 9605W        W82030  25.146  32.723   4.118
 9606W        W82031  36.650   5.876   2.338
 9607W        W82032  20.049  14.802  11.038
 9608W        W82033  35.845  29.535   1.851
 9609W        W82034  44.397  13.403   0.746
 9610W        W82035   3.829  29.485   0.917
 9611W        W82036  12.768  31.254   1.603
 9612W        W82037  38.856  18.271  14.723
 9613W        W82038  11.414  28.050   2.705
 9614W        W82039   3.993  17.148   2.717
 9615W        W82040   2.511  37.136  10.844
 9616W        W82041  33.813  41.078  14.422
 9617W        W82042   3.776  24.979   2.730
 9618W        W82043  14.178   0.325  14.354
 9619W        W82044  30.670  39.486   4.143
 9620W        W82045  19.676   1.371  12.438
 9621W        W82046  39.455  12.388   1.130
 9622W        W82047  15.475  12.413  13.245
 9623W        W82048  29.530  23.758  12.407
 9624W        W82049   4.682  38.472   3.962
 9625W        W82050  22.729  14.272   4.604
 9626W        W82051  42.056  26.056  13.514
 9627W        W82052  10.808  13.387  14.999
 9628W        W82053   8.380  37.647   2.449
 9629W        W82054  26.105  36.687   2.406
 9630W        W82055  17.615  41.632   3.645
 9631W        W82056  19.332   3.350  14.030
 9632W        W82057  12.813  22.293   0.735
 9633W        W82058  38.555  32.596   4.582
 9634W        W82059   2.210  24.171   4.203
 9635W        W82060  43.367  42.162  11.651
 9636W        W82061  16.821   9.492   3.799
 9637W        W82062  11.358  20.778  12.466
 9638W        W82063  33.587  15.517  11.557
 9639W        W82064  39.323  36.860  11.505
 9640W        W82065   6.991  25.738  10.610
 9641W        W82066   2.426  31.916  11.671
 9642W        W82067  39.273  23.818   4.182
 9643W        W82068  30.430  29.174  14.062
 9644W        W82069   2.791  18.855  13.216
 9645W        W82070   4.783  12.423   3.178
 9646W        W82071  15.231  16.987  14.648
 9647W        W82072  34.052  12.172   1.233
 9648W        W82073  18.545   0.835  12.243
 9649W        W82074  20.344   2.316   4.188
 9650W        W82075   7.269  39.730  14.907
 9651W        W82076  13.889  30.624   0.395
 9652W        W82077  28.040  27.250   4.632
 9653W        W82078  15.565  11.203   1.830
 9654W        W82079  12.567  31.121  12.495
 9655W        W82080  27.192  10.199  12.921
 9656W        W82081  43.714  32.557   2.703
 9657W        W82082  14.108   5.199  14.429
 9658W        W82083   1.483   5.997   2.418
 9659W        W82084   2.351  26.934  11.444
 9660W        W82085   8.362  19.252  13.409
 9661W        W82086  27.687  23.210   1.300
 9662W        W82087   1.828  17.527  11.571
 9663W        W82088  10.627  40.334  12.418
 9664W        W82089  43.488  36.088   4.669
 9665W        W82090  18.480  41.837   0.394
 9666W        W82091  10.465   8.535  11.576
 9667W        W82092  22.191   8.447   1.729
 9668W        W82093  24.927  43.954   2.318
 9669W        W82094   5.301  13.325   0.405
 9670W        W82095  38.402  23.741  12.376
 9671W        W82096  25.213   2.304  13.028
 9672W        W82097  22.019   7.800   0.402
 9673W        W82098   3.022   8.688  10.534
 9674W        W82099  12.620   7.383   2.152
 9675W        W82100  29.540   7.207   4.718
 9676W        W82101  25.989  15.733   0.897
 9677W        W82102  38.370   1.293  12.890
 9678W        W82103  40.621  10.525  14.366
 9679W        W82104  32.379  20.133   0.218
 9680W        W82105  39.717  38.370  13.435
 9681W        W82106  39.929  34.226   1.761
 9682W        W82107  18.754  18.935  11.315
 9683W        W82108  35.959  12.259   4.465
 9684W        W82109  33.973  10.244   3.576
 9685W        W82110   2.260  13.794   4.068
 9686W        W82111  10.198  26.649   1.731
 9687W        W82112  42.374  36.314  14.322
 9688W        W82113  27.503  42.991   2.862
 9689W        W82114  42.866   5.338   3.187
 9690W        W82115  36.285   6.463  12.139
 9691W        W82116  17.224  10.217  13.619
 9692W        W82117   1.203  12.368  13.322
 9693W        W82118  13.927   6.269   4.650
 9694W        W82119   0.224  38.618   4.112
 9695W        W82120   6.764   1.198  14.384
 9696W        W82121  15.091   8.705   3.791
 9697W        W82122  41.499  15.544  14.485
 9698W        W82123   8.265  43.526  10.731
 9699W        W82124  37.110  10.536  10.341
 9700W        W82125  37.871  17.320  10.642
 9701W        W82126   0.240  22.407  14.051
 9702W        W82127   8.167  23.810  13.954
 9703W        W82128  29.817   2.096   4.151
 9704W        W82129  16.813  18.489   3.902
 9705W        W82130  32.962  12.594   4.680
 9706W        W82131  30.165  30.052   2.540
 9707W        W82132   8.950  23.125  12.085
 9708W        W82133  36.424  33.905  10.825
 9709W        W82134  30.348   2.310  12.045
 9710W        W82135  18.304  43.911   4.893
 9711W        W82136  43.227  21.213   2.665
 9712W        W82137  20.485  27.047  13.913
 9713W        W82138  40.576  16.697   1.362
 9714W        W82139  44.055  11.303   1.203
 9715W        W82140  14.219  26.529  13.981
 9716W        W82141  33.493  23.703  14.873
 9717W        W82142  18.324  25.720  11.988
 9718W        W82143  27.715  28.028  10.237
 9719W        W82144   4.283  31.690   4.792
 9720W        W82145  12.200  16.735  12.565
 9721W        W82146  17.607  31.192  14.473
 9722W        W82147   6.643  29.121  10.746
 9723W        W82148  10.129  29.429  12.498
 9724W        W82149  11.664  11.192  14.924
 9725W        W82150   4.981  21.642  13.408
 9726W        W82151  19.149  41.189   2.805
 9727W        W82152   3.186  18.841   4.068
 9728W        W82153  36.526  40.602  11.024
 9729W        W82154  21.017  16.548  10.744
 9730W        W82155   1.735   2.800  11.217
 9731W        W82156  23.403   0.962   2.743
 9732W        W82157  40.900  38.446  11.510
 9733W        W82158  37.537  18.124  14.575
 9734W        W82159  43.511  23.860  11.965
 9735W        W82160  31.606   8.259   2.707
 9736W        W82161  33.001  32.610   1.340
 9737W        W82162  44.364  35.474  13.586
 9738W        W82163   3.749  16.091   0.822
 9739W        W82164  17.022  42.207   1.740
 9740W        W82165  23.026  27.909   0.656
 9741W        W82166   5.351   3.942  13.666
 9742W        W82167  10.309  41.486  11.586
 9743W        W82168  42.551  36.093  11.594
 9744W        W82169  24.206  40.035  13.350
 9745W        W82170  27.395  27.103   1.945
 9746W        W82171  32.705  14.287   3.729
 9747W        W82172  37.984  24.697   3.184
 9748W        W82173  38.420  23.178  11.718
 9749W        W82174  42.548  16.042  11.794
 9750W        W82175  33.969  15.538   4.123
 9751W        W82176  30.542  32.122   4.130
 9752W        W82177  12.625  23.046   3.857
 9753W        W82178  42.773  30.610  10.666
 9754W        W82179  43.852  15.457  14.176
 9755W        W82180  24.559  32.684   2.969
 9756W        W82181  33.175  36.542  14.532
 9757W        W82182  15.186  16.237  10.731
 9758W        W82183   5.044  14.618  14.803
 9759W        W82184   3.880  12.740   2.143
 9760W        W82185  20.046   6.412   1.717
 9761W        W82186  15.742  27.395   0.447
 9762W        W82187   0.300  37.579   4.160
 9763W        W82188  15.655  19.587  14.775
 9764W        W82189  26.972  15.226   2.310
 9765W        W82190  15.299  24.773  10.735
 9766W        W82191  29.183  28.068  12.084
 9767W        W82192  26.525  41.242  12.621
 9768W        W82193   5.838  32.967   0.663
 9769W        W82194  32.082  10.346   2.467
 9770W        W82195  25.957  20.200  11.902
 9771W        W82196  11.010  13.829   0.231
 9772W        W82197  17.782  14.965   1.224
 9773W        W82198  32.396  34.861  14.424
 9774W        W82199  22.538  19.095  11.239
 9775W        W82200  16.832   3.205   4.200
 9776W        W82201  41.559   6.859  10.838
 9777W        W82202  15.306  34.977  12.178
 9778W        W82203  17.326   5.651   1.336
 9779W        W82204  30.691  44.114   1.395
 9780W        W82205  19.149  34.593   0.058
 9781W        W82206  41.510   9.256  14.536
 9782W        W82207  40.456  25.049   4.390
 9783W        W82208  17.806  38.860   3.137
 9784W        W82209  26.611  19.970  12.411
 9785W        W82210  17.962  11.937   0.446
 9786W        W82211  35.761   4.775   4.506
 9787W        W82212  38.037   3.084   2.302
 9788W        W82213   9.832  20.653   4.194
 9789W        W82214  22.459   1.590  12.022
 9790W        W82215  13.826  38.847   3.220
 9791W        W82216   2.914  13.907  13.070
 9792W        W82217  16.032  41.355  14.219
 9793W        W82218  26.617   3.404   1.933
 9794W        W82219  27.440  25.446   3.636
 9795W        W82220  12.157  35.665   4.673
 9796W        W82221  23.766  36.437  14.940
 9797W        W82222   4.962   7.829   4.577
 9798W        W82223  39.048  17.029  12.318
 9799W        W82224  43.809  12.725  14.894
 9800W        W82225  18.406  40.711   4.132
 9801W        W82226   3.047   9.319   2.369
 9802W        W82227  26.440  10.397  12.520
 9803W        W82228  25.677   8.947  14.279
 9804W        W82229  28.455  38.329   3.734
 9805W        W82230  32.685   1.910  13.835
 9806W        W82231   2.976   0.989   4.101
 9807W        W82232  17.712  10.858   2.254
 9808W        W82233  36.804  28.169  10.523
 9809W        W82234  35.784  31.036   0.965
 9810W        W82235  34.029  23.913  13.043
 9811W        W82236  24.526  35.530   2.714
 9812W        W82237  20.526  21.276   0.468
 9813W        W82238  40.245  26.099  10.672
 9814W        W82239  19.669   5.171   4.588
 9815W        W82240  16.976  44.476  14.857
 9816W        W82241  27.659  18.711  13.012
 9817W        W82242   0.894  28.367  10.813
 9818W        W82243  43.891  35.320  10.688
 9819W        W82244  31.905  22.577  11.461
 9820W        W82245  29.105  21.664   2.740
 9821W        W82246  11.690  34.407  11.559
 9822W        W82247  36.431  31.165  13.920
 9823W        W82248  25.800  15.880  12.023
 9824W        W82249  41.430  13.851  11.022
 9825W        W82250  42.688  28.707  11.600
 9826W        W82251  36.088  10.816   4.243
 9827W        W82252  22.075  18.052   2.206
 9828W        W82253  39.287   9.722   0.416
 9829W        W82254  23.791  30.018  10.741
 9830W        W82255  24.706  20.986   2.283
 9831W        W82256   5.882   2.885  11.057
 9832W        W82257  30.986  22.633   3.095
 9833W        W82258  34.475  15.098   3.484
 9834W        W82259  33.968   5.228   4.996
 9835W        W82260  34.438  33.172  13.893
 9836W        W82261  14.747  31.876  10.767
 9837W        W82262  19.208  23.940   3.593
 9838W        W82263  19.196  11.998   1.801
 9839W        W82264  26.906  31.954  13.000
 9840W        W82265   7.639   3.277  12.718
 9841W        W82266  28.931  23.716   3.083
 9842W        W82267  15.140  29.056   0.915
 9843W        W82268  16.404  11.159   0.712
 9844W        W82269   5.211   3.604  14.635
 9845W        W82270  29.455  23.826   1.452
 9846W        W82271  12.806  25.431   3.162
 9847W        W82272  32.064  33.830  12.963
 9848W        W82273  11.768  17.673   2.571
 9849W        W82274  31.986  28.558  13.017
 9850W        W82275  42.869   6.822  12.512
 9851W        W82276  43.823   0.944  10.692
 9852W        W82277   3.730  40.525   1.373
 9853W        W82278  23.671  44.975  12.100
 9854W        W82279  16.578  25.655   2.318
 9855W        W82280  40.872  19.707  12.519
 9856W        W82281  34.832  20.129  14.938
 9857W        W82282  32.691  14.997  11.839
 9858W        W82283   5.399  14.623  13.853
 9859W        W82284  41.331  30.957   4.404
 9860W        W82285  30.704  10.910  11.766
 9861W        W82286   1.185  36.493  14.982
 9862W        W82287  30.593  41.084   1.411
 9863W        W82288  38.821  27.416   0.034
 9864W        W82289   9.302  11.805  14.513
 9865W        W82290  36.111   3.271   4.079
 9866W        W82291  31.165  41.896   1.803
 9867W        W82292   6.263  25.153   4.615
 9868W        W82293  15.717   6.228   1.860
 9869W        W82294   0.291  30.425   2.788
 9870W        W82295  14.377  41.856  13.801
 9871W        W82296  22.533  16.579  12.574
 9872W        W82297  30.094  29.575   4.367
 9873W        W82298   3.653  38.058  12.132
 9874W        W82299  36.622  14.408   2.064
 9875W        W82300  17.964  27.718   1.673
 9876W        W82301  44.051  12.486  11.660
 9877W        W82302  42.733  33.222   4.473
 9878W        W82303  30.515  22.601  14.330
 9879W        W82304  32.952  22.584  11.584
 9880W        W82305   0.275  35.019   4.087
 9881W        W82306  11.202  28.083   3.208
 9882W        W82307  32.027  28.961   1.261
 9883W        W82308   7.892  29.590   4.675
 9884W        W82309  35.015  42.294   2.181
 9885W        W82310  41.946  40.896  14.455
 9886W        W82311  32.003  21.266  10.264
 9887W        W82312  11.280  12.855   0.471
 9888W        W82313  36.586  44.224  10.468
 9889W        W82314   1.986   7.133   0.926
 9890W        W82315  37.603   1.167   0.335
 9891W        W82316  31.717  32.580  13.509
 9892W        W82317  20.335   0.397   4.609
 9893W        W82318   1.942  14.225   1.317
 9894W        W82319  29.995  40.547   0.849
 9895W        W82320  40.490  39.074  12.477
 9896W        W82321  32.418  30.062   4.349
 9897W        W82322   2.648   3.899   4.130
 9898W        W82323   8.881  43.745  14.423
 9899W        W82324  13.792  31.307  11.170
 9900W        W82325  26.882  41.811   0.798
 9901W        W82326  41.279  26.494   2.700
 9902W        W82327  22.429  34.529   3.438
 9903W        W82328   6.202  23.168  13.531
 9904W        W82329   9.582  42.463   4.575
 9905W        W82330   1.294  23.068  12.178
 9906W        W82331  28.432  30.726   2.138
 9907W        W82332  15.537  34.074  13.458
 9908W        W82333  28.987  24.174   0.166
 9909W        W82334   0.088  19.115   4.280
 9910W        W82335  22.854   9.478   3.214
 9911W        W82336   9.866  40.899  12.125
 9912W        W82337  40.394  44.265   1.227
 9913W        W82338  44.878  28.632   1.429
 9914W        W82339  17.118  25.049   0.723
 9915W        W82340  43.414   3.976  14.615
 9916W        W82341   4.723   0.751  11.040
 9917W        W82342  38.702  21.069   9.878
 9918W        W82343  30.479  38.894  11.987
 9919W        W82344  35.503  22.176  11.130
 9920W        W82345  24.766  43.455   4.186
 9921W        W82346  18.997  17.716  11.126
 9922W        W82347  11.196  20.070   0.122
 9923W        W82348  38.385  12.190   2.205
 9924W        W82349  23.379  14.626  11.219
 9925W        W82350  44.426  37.534   0.905
 9926W        W82351  27.483  29.855  12.331
 9927W        W82352  17.712  32.629   2.451
 9928W        W82353  44.627  14.580   0.993
 9929W        W82354  18.798   5.604  14.696
 9930W        W82355  39.811  15.346   4.426
 9931W        W82356   6.796  24.257  14.565
 9932W        W82357   8.501  37.560  12.610
 9933W        W82358  25.012  13.709   1.373
 9934W        W82359  12.862  32.659  11.514
 9935W        W82360  29.560  30.168   0.270
 9936W        W82361  43.591  30.618   1.500
 9937W        W82362  17.165  41.971   4.891
 9938W        W82363   1.245  18.651  14.008
 9939W        W82364  24.854  25.875   3.129
 9940W        W82365   4.256  37.271  11.653
 9941W        W82366  18.754  43.057   2.642
 9942W        W82367  25.442  16.748   1.759
 9943W        W82368  37.541   8.293  11.168
 9944W        W82369  23.451  27.556   1.764
 9945W        W82370  27.953  24.492   4.541
 9946W        W82371  30.387  24.134  11.950
 9947W        W82372  20.129  15.775   2.295
 9948W        W82373  44.488  41.455   1.652
 9949W        W82374  31.623  23.026  11.444
 9950W        W82375  10.071   3.294   0.324
 9951W        W82376  40.350   6.519   0.233
 9952W        W82377  41.952   8.209   4.926
 9953W        W82378  15.124  31.920   1.797
 9954W        W82379  13.868  22.739   2.276
 9955W        W82380  15.545  27.458   9.911
 9956W        W82381   7.334  19.576  13.883
 9957W        W82382  27.517  12.490   0.151
 9958W        W82383  11.138  34.455   4.479
 9959W        W82384  39.777  36.869   0.952
 9960W        W82385  44.556  32.445  10.672
 9961W        W82386  32.699  35.461  10.390
 9962W        W82387  26.060  37.642   2.255
 9963W        W82388   8.679   6.607  11.120
 9964W        W82389   1.319  35.818   0.517
 9965W        W82390  25.260  21.303  13.080
 9966W        W82391  15.139  13.397  12.596
 9967W        W82392  40.326   1.879   1.192
 9968W        W82393  16.708  26.074  10.981
 9969W        W82394  33.488  37.336   1.382
 9970W        W82395  39.925  14.123   1.922
 9971W        W82396  41.937   2.677  12.171
 9972W        W82397  22.505  13.661  10.543
 9973W        W82398   7.848  11.431  11.358
 9974W        W82399  26.083  38.153   2.338
 9975W        W82400  24.524  39.101   3.366
 9976W        W82401  44.342  26.653  10.712
 9977W        W82402  24.447  35.887   1.275
 9978W        W82403  39.969  11.120  11.912
 9979W        W82404  41.635   9.438  11.515
 9980W        W82405  10.949   3.855  12.099
 9981W        W82406  12.823  12.740   3.263
 9982W        W82407  43.641  40.611   4.352
 9983W        W82408  39.521  43.951   4.397
 9984W        W82409  22.224  11.423   2.291
 9985W        W82410  11.655  44.009   4.606
 9986W        W82411  27.688  39.727  13.422
 9987W        W82412  21.775  29.783  11.060
 9988W        W82413  20.691  44.907  12.869
 9989W        W82414  31.048  17.097  14.084
 9990W        W82415   7.796   0.172  14.457
 9991W        W82416  10.635  35.049  14.939
 9992W        W82417  13.379  31.191  10.830
 9993W        W82418  43.767  31.610   0.489
 9994W        W82419  19.824   2.749   1.434
 9995W        W82420  11.660  10.580  13.561
 9996W        W82421   3.462  14.356   1.329
 9997W        W82422  31.155  15.304  12.643
 9998W        W82423   1.508  32.923   0.320
 9999W        W82424  38.947  12.102  11.923
10000W        W82425   8.301  12.228   1.314
10001W        W82426  16.272  44.445  13.804
10002W        W82427  20.599   2.609   4.587
10003W        W82428  13.157  22.035  12.013
10004W        W82429  25.780  33.126   4.164
10005W        W82430   0.975  30.041  11.109
10006W        W82431  26.681  24.899  12.185
10007W        W82432  31.427  24.182   1.584
10008W        W82433   8.645  40.961   0.283
10009W        W82434  23.921  17.548  10.775
10010W        W82435   4.527  40.743  13.007
10011W        W82436  19.022  20.708   0.949
10012W        W82437   0.744  11.385   1.512
10013W        W82438  18.161  35.495  14.972
10014W        W82439  28.688  44.978   1.756
10015W        W82440  42.288   5.205  12.870
10016W        W82441   3.741   0.946   0.048
10017W        W82442  15.724  38.128  10.174
10018W        W82443   7.690   7.365  13.958
10019W        W82444   6.550   6.066   5.116
10020W        W82445   8.468  25.170   0.245
10021W        W82446  39.411  41.915  11.614
10022W        W82447   4.787  41.815   4.241
10023W        W82448   5.890  22.902  10.449
10024W        W82449   1.413  36.012   0.049
10025W        W82450   4.349  44.973   1.405
10026W        W82451   1.557  33.659  12.300
10027W        W82452  25.518   9.174  10.951
10028W        W82453  27.203   2.983  10.780
10029W        W82454  40.758  28.179   3.621
10030W        W82455  21.711  34.368  12.596
10031W        W82456  36.122  10.637   2.333
10032W        W82457  35.852  18.054  11.546
10033W        W82458   6.757   0.793  12.726
10034W        W82459  24.952  32.593  13.353
10035W        W82460  36.902  44.181   1.554
10036W        W82461  16.718  27.590   0.370
10037W        W82462  13.916  37.886  14.917
10038W        W82463  22.152  33.212  11.229
10039W        W82464  28.889  41.423  14.853
10040W        W82465  21.575  12.688  10.519
10041W        W82466  24.588  43.765   0.931
10042W        W82467  21.043  41.077  12.966
10043W        W82468  40.158   5.421   4.548
10044W        W82469  19.122  30.438   0.206
10045W        W82470  38.109  30.618   1.079
10046W        W82471  34.393  38.835  14.960
10047W        W82472  18.678  43.606  13.570
10048W        W82473  41.793  34.718  12.618
10049W        W82474  22.433  41.502  11.774
10050W        W82475  11.641   8.353   4.164
10051W        W82476  31.613   0.927  13.833
10052W        W82477  34.980  20.278   3.518
10053W        W82478   0.244   3.981  13.799
10054W        W82479   7.203  15.598   1.760
10055W        W82480  36.116  43.910  11.656
10056W        W82481  22.244  12.902  13.780
10057W        W82482  10.159  33.313  12.499
10058W        W82483  36.484  43.112   1.430
10059W        W82484  28.978  22.910  13.184
10060W        W82485  29.158  38.385  13.585
10061W        W82486  10.927  26.075  13.458
10062W        W82487  27.965  27.482   0.196
10063W        W82488  24.851  35.794   4.158
10064W        W82489  34.654  32.088  13.827
10065W        W82490   8.926   2.414  10.752
10066W        W82491   1.267  29.595  14.583
10067W        W82492  12.016  43.376  13.793
10068W        W82493  38.563   1.311  11.337
10069W        W82494  15.464  41.400  10.458
10070W        W82495  17.681  17.825   4.717
10071W        W82496  12.693  14.296  13.048
10072W        W82497  11.131  32.470  13.130
10073W        W82498   7.211   1.798   3.793
10074W        W82499   8.387  41.686  12.698
10075W        W82500  13.384  34.147   3.650
10076W        W82501  36.511  39.231   0.791
10077W        W82502  28.589  12.239  10.717
10078W        W82503  44.792  31.185   2.611
10079W        W82504  30.557  13.967   0.484
10080W        W82505  26.535  24.645   4.552
10081W        W82506  28.467  34.355   4.373
10082W        W82507  16.075  20.934  12.068
10083W        W82508   0.383  31.888  12.915
10084W        W82509  18.621  28.725  13.502
10085W        W82510   7.792  11.011   1.605
10086W        W82511  12.625  13.446   1.831
10087W        W82512  21.653  17.287  13.484
10088W        W82513   6.279   4.350  14.951
10089W        W82514  22.762  43.330   4.882
10090W        W82515  19.416  26.260  13.087
10091W        W82516   7.863  18.706  14.609
10092W        W82517   1.427   3.506   2.077
10093W        W82518  33.849  38.855  14.818
10094W        W82519  19.592  17.813   4.291
10095W        W82520   5.891  44.501  13.053
10096W        W82521   4.837  41.740  10.762
10097W        W82522   3.483  34.578  13.794
10098W        W82523  19.722   3.885   2.792
10099W        W82524  31.532  34.849  14.862
10100W        W82525  37.919  27.206   0.414
10101W        W82526  30.076  28.091   1.810
10102W        W82527   1.261  11.247  14.696
10103W        W82528  34.435  40.499  14.279
10104W        W82529  15.128   9.739   1.762
10105W        W82530  38.091  20.660   4.332
10106W        W82531   3.716   4.954   2.701
10107W        W82532  15.048  28.980   3.293
10108W        W82533  33.440   0.306  14.962
10109W        W82534   3.034  13.864   2.748
10110W        W82535   3.702  22.041  14.364
10111W        W82536  14.124  29.139   3.265
10112W        W82537  32.122  22.659   1.658
10113W        W82538  25.481  26.208   4.129
10114W        W82539  20.079  42.983   1.438
10115W        W82540  29.918  19.029   0.821
10116W        W82541   0.758  11.736   3.077
10117W        W82542  15.227   5.448   4.713
10118W        W82543  14.210  40.882   3.304
10119W        W82544  23.070  12.690   4.311
10120W        W82545  13.703   1.030   4.565
10121W        W82546  40.367   9.114   0.422
10122W        W82547  19.232  31.960  14.586
10123W        W82548  29.164  26.010  12.964
10124W        W82549  32.139  25.375  13.526
10125W        W82550   3.045   8.395  12.665
10126W        W82551   2.852   1.051  14.517
10127W        W82552  29.152  26.287  10.651
10128W        W82553  10.181  38.559   3.649
10129W        W82554  31.389   3.724  13.775
10130W        W82555  39.046  39.456  12.966
10131W        W82556  35.553  35.546   1.532
10132W        W82557   2.547  17.914  11.103
10133W        W82558  31.065   6.186   3.087
10134W        W82559  28.362   7.635   2.900
10135W        W82560  20.755  14.355   1.445
10136W        W82561  12.456  34.830  11.179
10137W        W82562  34.970  25.582  11.134
10138W        W82563  27.578  12.344  10.713
10139W        W82564  28.487  37.585  11.974
10140W        W82565  22.162  41.178  14.436
10141W        W82566  30.549   3.972   1.339
10142W        W82567  12.805  37.850   1.294
10143W        W82568  30.962   1.011   1.988
10144W        W82569  28.912   1.542  11.179
10145W        W82570   9.872   8.842   3.663
10146W        W82571  23.753  43.857  11.714
10147W        W82572   1.474  39.277   1.475
10148W        W82573  39.840  17.373  10.792
10149W        W82574   5.154  21.839  11.572
10150W        W82575  41.952  40.540   2.207
10151W        W82576   7.927  20.618  13.489
10152W        W82577   9.668  11.986  11.039
10153W        W82578  15.716   9.266   3.191
10154W        W82579  29.741  26.644  12.496
10155W        W82580  13.823  21.566   0.870
10156W        W82581  17.539  43.518  13.035
10157W        W82582  18.115   9.897  13.558
10158W        W82583  24.089  41.771  11.532
10159W        W82584  25.917  19.374  12.529
10160W        W82585   4.246  21.593  10.397
10161W        W82586  44.886  29.877  12.962
10162W        W82587   4.813   3.677  14.282
10163W        W82588  34.320   3.172   3.689
10164W        W82589   6.728  34.342   3.593
10165W        W82590  16.564  31.512  12.127
10166W        W82591  36.361  29.890  12.630
10167W        W82592  18.145   4.884   3.663
10168W        W82593   7.875  18.174  12.396
10169W        W82594  38.302   1.018  10.528
10170W        W82595  27.961   1.500   2.399
10171W        W82596  11.842   3.772  10.774
10172W        W82597  25.762  23.258   0.620
10173W        W82598  20.116   8.809   2.271
10174W        W82599  25.495  29.942   4.081
10175W        W82600  22.673  36.157  10.274
10176W        W82601  31.290  28.073  14.486
10177W        W82602   4.968  24.733   2.264
10178W        W82603   5.345   2.547  12.409
10179W        W82604   6.220   4.154  13.509
10180W        W82605  13.829  40.107  14.288
10181W        W82606   0.975  29.033   0.051
10182W        W82607   4.916  14.800  11.964
10183W        W82608  34.873  19.183   1.235
10184W        W82609  36.858  21.717   1.785
10185W        W82610  14.758  18.266  11.079
10186W        W82611  30.398  42.768   2.244
10187W        W82612  23.742   6.866   2.662
10188W        W82613   4.407  16.586  12.673
10189W        W82614  32.964  11.770  14.036
10190W        W82615  19.579  23.073  10.633
10191W        W82616  14.065   4.764   4.377
10192W        W82617  42.997  23.042  12.032
10193W        W82618  42.799  43.334   3.081
10194W        W82619  36.954   7.894   3.811
10195W        W82620   7.290  12.405  13.468
10196W        W82621   8.676  20.772  12.624
10197W        W82622   1.304  15.737  12.959
10198W        W82623  30.261  21.959   4.160
10199W        W82624  35.501  23.961   2.368
10200W        W82625  41.643   8.248  14.907
10201W        W82626  21.193  25.488  11.209
10202W        W82627   3.360  27.134  12.477
10203W        W82628  26.730  14.078  12.059
10204W        W82629  30.781  30.860   4.933
10205W        W82630  39.578   2.768   1.227
10206W        W82631  35.952  22.248  10.875
10207W        W82632  14.465   8.522  11.955
10208W        W82633  32.701  35.807   4.089
10209W        W82634  38.905  38.025   0.887
10210W        W82635  34.448  14.349   4.191
10211W        W82636  31.656  33.124  12.106
10212W        W82637  39.929  41.793   3.105
10213W        W82638  20.601   5.715  12.993
10214W        W82639  11.100   8.278   2.466
10215W        W82640  37.605   6.835  10.210
10216W        W82641  22.594  41.334   4.599
10217W        W82642  30.673   1.273   3.085
10218W        W82643  42.287  13.584   4.895
10219W        W82644  33.941  42.475   3.628
10220W        W82645  43.016  13.355   0.457
10221W        W82646  27.836  26.290  11.371
10222W        W82647   2.520  30.911   2.769
10223W        W82648  34.328  40.926   2.250
10224W        W82649  30.924   7.286  13.560
10225W        W82650  44.971  30.638   0.335
10226W        W82651   4.926  43.772   3.645
10227W        W82652   0.912  17.324  13.851
10228W        W82653  31.116  42.627   9.911
10229W        W82654   3.219  37.504   4.286
10230W        W82655  31.879  25.337   5.216
10231W        W82656   2.416   0.939  14.292
10232W        W82657  10.189  26.015  10.951
10233W        W82658  30.417  35.055  14.353
10234W        W82659   5.510  25.952   1.713
10235W        W82660  24.454  44.883   4.318
10236W        W82661  32.770  34.517  14.335
10237W        W82662  33.689  20.526  14.452
10238W        W82663   4.680   7.377  14.370
10239W        W82664  23.702  10.226   0.942
10240W        W82665  35.167  24.943  10.447
10241W        W82666  14.361  19.519   4.623
10242W        W82667   0.391   8.056   0.262
10243W        W82668  19.642  26.383  14.350
10244W        W82669  32.824  14.041  12.965
10245W        W82670   8.759  38.907   1.888
10246W        W82671  44.938  17.548   2.352
10247W        W82672  21.306   5.812   4.622
10248W        W82673  36.766   6.968   4.386
10249W        W82674  23.677   1.471  14.311
10250W        W82675  12.210  14.312  12.313
10251W        W82676  36.587  25.530   0.369
10252W        W82677  43.287  26.087   4.637
10253W        W82678  32.016  35.398   4.497
10254W        W82679  17.218  41.270  12.077
10255W        W82680  16.494  12.381   3.238
10256W        W82681  24.260  43.800  11.643
10257W        W82682  27.464  12.917   2.122
10258W        W82683  44.522  20.587  13.340
10259W        W82684  16.782  27.477  12.164
10260W        W82685  40.416  42.015   3.105
10261W        W82686  11.370  26.179  11.625
10262W        W82687   0.094  15.560   2.193
10263W        W82688  10.562  27.392   1.341
10264W        W82689  10.719  40.627   4.717
10265W        W82690  26.773  41.334  14.431
10266W        W82691   2.222  16.287  12.539
10267W        W82692  38.906  41.360  12.185
10268W        W82693   1.306  25.486  10.843
10269W        W82694  25.030  14.988   3.283
10270W        W82695  30.859   8.657  13.471
10271W        W82696  32.638  23.142   0.375
10272W        W82697   1.675   9.477  12.091
10273W        W82698   9.780  26.558   0.334
10274W        W82699  17.310  20.639   1.898
10275W        W82700   4.327  19.139   1.521
10276W        W82701  38.093  30.068   2.275
10277W        W82702   6.469   9.745   1.544
10278W        W82703  18.821  44.899  12.366
10279W        W82704  17.206  14.134   3.593
10280W        W82705  26.140   8.733  14.086
10281W        W82706  15.675  32.954  12.460
10282W        W82707  29.831  28.525  14.354
10283W        W82708  31.330  10.241   1.362
10284W        W82709  16.137  19.990   3.253
10285W        W82710  29.355  10.943  11.999
10286W        W82711  38.512  15.229  12.308
10287W        W82712  18.676  23.108   3.801
10288W        W82713  22.144   4.380   2.746
10289W        W82714  27.495  37.732   0.485
10290W        W82715   6.417  36.570  14.915
10291W        W82716  17.368   0.509  12.869
10292W        W82717   0.007  32.112   0.260
10293W        W82718  10.061  25.536   3.216
10294W        W82719   7.715  43.603   2.372
10295W        W82720  12.212  34.834   2.804
10296W        W82721  26.946  12.661  11.509
10297W        W82722  31.865   9.351   3.435
10298W        W82723  33.809   8.414   2.066
10299W        W82724  14.828  41.778  11.474
10300W        W82725  18.659  19.610  14.275
10301W        W82726  21.177  10.918   2.735
10302W        W82727  21.007   9.176   1.757
10303W        W82728   3.409   9.113   0.429
10304W        W82729  20.004  38.355  14.955
10305W        W82730  36.219  25.589   3.821
10306W        W82731  19.479   2.745  13.828
10307W        W82732  29.380  19.656   1.741
10308W        W82733  33.653  39.436   3.510
10309W        W82734   3.331  28.725   4.308
10310W        W82735  15.426  44.022  14.061
10311W        W82736  38.584  21.983   4.564
10312W        W82737  25.002  36.880   2.729
10313W        W82738  39.917  21.552  10.695
10314W        W82739   8.859  37.439   2.544
10315W        W82740  27.188  14.287   3.581
10316W        W82741  15.612  42.555  14.222
10317W        W82742  10.855   6.337   4.561
10318W        W82743  36.423   4.446   0.786
10319W        W82744  21.500  29.111   4.109
10320W        W82745  13.183  44.317   0.378
10321W        W82746  37.298  18.029  10.396
10322W        W82747   4.111  25.783   2.445
10323W        W82748  42.380   5.498  11.554
10324W        W82749  32.554  19.478   5.028
10325W        W82750  21.087  35.620  13.385
10326W        W82751  14.423  28.471  11.452
10327W        W82752  23.480  32.625  12.376
10328W        W82753   6.233  22.999   4.646
10329W        W82754  30.490  29.066  13.101
10330W        W82755  22.612  42.519   0.363
10331W        W82756   7.636  13.710   0.734
10332W        W82757  36.578  20.655  10.645
10333W        W82758  19.480  33.896  14.973
10334W        W82759  22.386   2.881   2.430
10335W        W82760  24.181  23.054   0.378
10336W        W82761  10.216   7.635   0.536
10337W        W82762  35.037  27.075   3.736
10338W        W82763  25.012  18.998   4.193
10339W        W82764  21.434  35.235   2.247
10340W        W82765  17.686  10.777   4.011
10341W        W82766  41.482   4.225  12.815
10342W        W82767  11.817  31.112   2.420
10343W        W82768  27.147   8.702   2.892
10344W        W82769   8.371  20.719   4.062
10345W        W82770  25.068   0.932  11.199
10346W        W82771  34.822  39.029   0.931
10347W        W82772  36.973  19.081  14.342
10348W        W82773  37.942   9.681   3.193
10349W        W82774  17.534  20.716  13.325
10350W        W82775  35.797   8.849   1.190
10351W        W82776  19.679  44.483   0.530
10352W        W82777  10.222   2.294  14.732
10353W        W82778  33.392  37.973  13.415
10354W        W82779  17.346  44.956  12.027
10355W        W82780  42.811  42.789  13.439
10356W        W82781  31.704  34.637  11.628
10357W        W82782  36.382  24.436  13.034
10358W        W82783  24.040   0.298   1.490
10359W        W82784  30.419  40.909   2.471
10360W        W82785  39.936   1.819  10.728
10361W        W82786  18.827  35.041   4.215
10362W        W82787  36.826  24.408  13.422
10363W        W82788   2.198   6.863  14.977
10364W        W82789  37.484  20.840   5.113
10365W        W82790  16.556  20.234   2.789
10366W        W82791  33.893  23.675   0.758
10367W        W82792  16.678  39.948  12.912
10368W        W82793  10.326  20.135   1.778
10369W        W82794  38.986  16.217   9.817
10370W        W82795  37.325  30.685  13.857
10371W        W82796  27.119   2.156   0.345
10372W        W82797  35.281  38.389   2.767
10373W        W82798  40.749  23.548  13.573
10374W        W82799  44.622  26.944   2.419
10375W        W82800   2.708  31.608   4.601
10376W        W82801  15.695  42.983   4.022
10377W        W82802  44.342  26.702   0.666
10378W        W82803   1.400  11.863   2.955
10379W        W82804  10.468  37.396   2.659
10380W        W82805  30.877  14.648  12.995
10381W        W82806  22.016   0.499  13.968
10382W        W82807  38.964   3.667  10.481
10383W        W82808   1.279  28.649   2.372
10384W        W82809  10.839  33.844   4.434
10385W        W82810  22.647  20.315   4.595
10386W        W82811  10.254  36.860  12.583
10387W        W82812  40.441  24.029   1.391
10388W        W82813  37.900   2.959   4.657
10389W        W82814  42.461  31.072  10.908
10390W        W82815  31.626  31.473  11.479
10391W        W82816  40.125   0.843   3.605
10392W        W82817  28.450  19.133  12.933
10393W        W82818  19.549  12.602  12.152
10394W        W82819   1.830   1.779  10.621
10395W        W82820  15.144   1.288   4.249
10396W        W82821  14.565   7.201   3.174
10397W        W82822  37.350  15.320   3.757
10398W        W82823  10.424  25.998  13.498
10399W        W82824  22.297  15.315  13.188
10400W        W82825   2.865  33.522  14.389
10401W        W82826   0.776  17.720   0.868
10402W        W82827  11.228   2.931  10.774
10403W        W82828  36.355  23.878   1.785
10404W        W82829   0.327  19.048   3.832
10405W        W82830   2.651  17.289  13.764
10406W        W82831  33.621  35.516  10.506
10407W        W82832   0.795   5.028   3.376
10408W        W82833  18.837  19.096  14.898
10409W        W82834  19.240  31.016  11.661
10410W        W82835  12.187  20.598  11.073
10411W        W82836  19.284   8.650  10.647
10412W        W82837  30.667   9.806   2.117
10413W        W82838  27.564  41.845   4.126
10414W        W82839  44.709  40.774  14.807
10415W        W82840  40.948  24.050   0.685
10416W        W82841   5.122  17.605  12.069
10417W        W82842  15.543  22.751  10.322
10418W        W82843  24.690  24.770   0.529
10419W        W82844   2.266  31.872   4.105
10420W        W82845   6.202  29.250   2.230
10421W        W82846  40.356  33.532  12.628
10422W        W82847  43.743  24.185  14.347
10423W        W82848  17.444  13.063  14.777
10424W        W82849  33.409  41.090   2.208
10425W        W82850  39.008   1.467   1.372
10426W        W82851  15.718  36.583  12.981
10427W        W82852  40.917   1.905   2.362
10428W        W82853  33.197  29.068  11.450
10429W        W82854  21.632   5.911  12.956
10430W        W82855  34.822   7.424  11.570
10431W        W82856  15.654  29.846   1.117
10432W        W82857  15.663   0.248  14.498
10433W        W82858  34.654   8.331   1.841
10434W        W82859  14.527  44.940  11.463
10435W        W82860  40.996  34.144  11.507
10436W        W82861   4.790  12.267  13.583
10437W        W82862   6.126   7.597  10.310
10438W        W82863  25.897  36.586  11.601
10439W        W82864   3.123  11.719   0.383
10440W        W82865  29.417  22.735  14.396
10441W        W82866  41.895  40.375  12.903
10442W        W82867  44.355  11.675  11.629
10443W        W82868  31.949  17.800  10.300
10444W        W82869  15.601  34.555  14.456
10445W        W82870  34.184  22.153   0.303
10446W        W82871  36.176  44.044  12.514
10447W        W82872  25.222   4.454  11.080
10448W        W82873  13.934   1.900   2.148
10449W        W82874  42.801   0.813  11.567
10450W        W82875  38.939  42.446  11.533
10451W        W82876   8.421  44.673  12.983
10452W        W82877  26.126  30.881   0.705
10453W        W82878  26.747  29.994   5.032
10454W        W82879  30.433  23.252  13.454
10455W        W82880  18.290  11.065   4.541
10456W        W82881  40.447  25.941  14.373
10457W        W82882  21.326   8.625   3.745
10458W        W82883  42.498  30.674  13.356
10459W        W82884  29.117  21.638   5.568
10460W        W82885  30.051  32.030  12.276
10461W        W82886   5.325  43.070   2.666
10462W        W82887   4.259  25.580  10.877
10463W        W82888  30.038  18.756   4.643
10464W        W82889  19.580  24.457  14.442
10465W        W82890   9.275   7.164   1.219
10466W        W82891  21.225  35.879   1.269
10467W        W82892  21.557  20.192  12.982
10468W        W82893   8.974  26.050  11.550
10469W        W82894  29.981  30.588  13.463
10470W        W82895  12.607  42.403   2.944
10471W        W82896  36.468   6.354   2.235
10472W        W82897  23.168  44.230  13.217
10473W        W82898  25.527  32.105   5.067
10474W        W82899  36.233   3.278  14.903
10475W        W82900  10.284  33.314   0.397
10476W        W82901  12.188   5.962  11.710
10477W        W82902  11.239   5.325  12.865
10478W        W82903  44.774  38.400  13.965
10479W        W82904  23.164  33.425   4.105
10480W        W82905  18.687   3.265  10.494
10481W        W82906  40.788   4.599  12.222
10482W        W82907  17.082  29.848   2.161
10483W        W82908  23.279   0.797  11.633
10484W        W82909  43.725   0.883   0.022
10485W        W82910  15.871  39.012   3.347
10486W        W82911  29.218   7.183   2.815
10487W        W82912  13.391  27.204  11.420
10488W        W82913   8.311  13.745  10.736
10489W        W82914   3.403  27.915   1.686
10490W        W82915  26.761  41.986   1.273
10491W        W82916  27.198   9.362  14.453
10492W        W82917  25.502  26.255   0.102
10493W        W82918   7.464  21.713   4.263
10494W        W82919  14.658  15.625  11.380
10495W        W82920  14.525   2.278   1.968
10496W        W82921  22.208  20.097  10.839
10497W        W82922  14.755  18.763   4.770
10498W        W82923  40.029  34.171   3.603
10499W        W82924  17.554  15.521  13.845
10500W        W82925  26.416   1.855  13.420
10501W        W82926  13.202  32.968   1.185
10502W        W82927   1.240   2.262   2.949
10503W        W82928  43.043  41.884   4.542
10504W        W82929  43.478  28.204  11.539
10505W        W82930  44.773  21.384  10.131
10506W        W82931  42.408   2.433   1.764
10507W        W82932  32.587  24.285   3.518
10508W        W82933  21.460  13.196  11.228
10509W        W82934   1.461  25.207  11.513
10510W        W82935  23.606   4.400  11.228
10511W        W82936  30.851  18.693  14.882
10512W        W82937  22.635  28.692  12.155
10513W        W82938   2.997  11.153   1.467
10514W        W82939  20.891   4.858   0.888
10515W        W82940   6.728  13.894  13.986
10516W        W82941  24.250  35.083  12.949
10517W        W82942  12.757   5.088  12.476
10518W        W82943  40.580   9.730   3.687
10519W        W82944  16.593  34.509   1.413
10520W        W82945   7.099   6.261  11.970
10521W        W82946   6.465  37.405  11.649
10522W        W82947  10.627   0.497  13.428
10523W        W82948  38.005  21.258  13.891
10524W        W82949  23.188  42.056   2.231
10525W        W82950  25.673  37.176   3.753
10526W        W82951  39.201  26.009  12.164
10527W        W82952  34.421  26.603   4.145
10528W        W82953  23.732  23.240  11.598
10529W        W82954  43.013  20.078  11.890
10530W        W82955  43.352  36.171  14.932
10531W        W82956   5.967  32.637   3.832
10532W        W82957  28.685   7.185   2.830
10533W        W82958  10.524  27.267   3.758
10534W        W82959   3.489  26.279   0.919
10535W        W82960   2.448  36.445  14.470
10536W        W82961   9.231  22.746  11.851
10537W        W82962  42.693   2.643  12.441
10538W        W82963  31.640  17.670  10.700
10539W        W82964  16.253  44.232  11.647
10540W        W82965  30.866   2.302   2.206
10541W        W82966   9.781   6.352  11.260
10542W        W82967   4.687   4.973  12.023
10543W        W82968  31.139  25.076  10.313
10544W        W82969  41.717  14.487   2.325
10545W        W82970  26.422  32.552  13.477
10546W        W82971  24.038  15.990   1.316
10547W        W82972  24.590  10.064   0.845
10548W        W82973   3.649  28.594  14.436
10549W        W82974  33.983  17.662  14.138
10550W        W82975  35.837   9.441   4.532
10551W        W82976  18.115   2.986  11.685
10552W        W82977  31.667   8.092  10.727
10553W        W82978   0.550  31.659   3.149
10554W        W82979  12.820   2.218  12.850
10555W        W82980  10.262   9.768   1.765
10556W        W82981  11.160   8.938  11.157
10557W        W82982   2.704  31.116  10.708
10558W        W82983  42.637  28.762   0.043
10559W        W82984  23.924  12.610   4.215
10560W        W82985  11.086  39.859  13.237
10561W        W82986   1.041  33.965   4.124
10562W        W82987  42.510  22.998  12.211
10563W        W82988  11.530  24.618   0.230
10564W        W82989  18.842  44.009  11.896
10565W        W82990  17.786   6.749  10.977
10566W        W82991   0.386  25.679  14.342
10567W        W82992  34.336  33.207   0.369
10568W        W82993  11.932  40.676  11.141
10569W        W82994  15.485  23.079   4.245
10570W        W82995  25.984   5.936  11.802
10571W        W82996   4.014  23.488   1.972
10572W        W82997  44.813  25.199  13.327
10573W        W82998   2.536  28.142   3.236
10574W        W82999  33.866   7.690  11.472
10575W        W83000   0.912  28.885  10.787
10576W        W83001   3.009  16.820   2.887
10577W        W83002  15.707  17.511  12.106
10578W        W83003  43.638  20.859  10.362
10579W        W83004   6.478   2.425  14.765
10580W        W83005  19.596  29.866  14.054
10581W        W83006  13.559  10.292  11.084
10582W        W83007  23.032  32.483  13.481
10583W        W83008  30.984  30.500   4.578
10584W        W83009  22.791   2.426   0.388
10585W        W83010  22.727  41.850   2.282
10586W        W83011  39.919  43.987  11.038
10587W        W83012  14.766   5.794  11.209
10588W        W83013  24.191  28.457   0.703
10589W        W83014   6.115   5.435   4.173
10590W        W83015   7.262  12.892  12.657
10591W        W83016  25.799  11.973  14.908
10592W        W83017  10.666  43.708   4.481
10593W        W83018  38.423  17.428   4.614
10594W        W83019  38.375   1.938  10.582
10595W        W83020  16.192   6.638  11.373
10596W        W83021  39.961   2.194  14.506
10597W        W83022  28.090   8.912   2.739
10598W        W83023  30.226  20.543  12.522
10599W        W83024   3.304  28.089   2.676
10600W        W83025  39.497  33.056   4.132
10601W        W83026   3.513   4.259  12.891
10602W        W83027   9.127   9.647  11.173
10603W        W83028  16.074  22.796  10.644
10604W        W83029  44.816   6.638   4.351
10605W        W83030  22.952  13.632  13.849
10606W        W83031   0.533  18.529  12.030
10607W        W83032  37.223  12.816   3.632
10608W        W83033  40.287  15.989   0.323
10609W        W83034  33.621  20.493  10.795
10610W        W83035  35.255  18.110  13.652
10611W        W83036  22.665  22.055  13.478
10612W        W83037  22.450  15.843   3.774
10613W        W83038   5.860  32.121  14.528
10614W        W83039  10.898  43.116   3.673
10615W        W83040  25.326  28.052  14.253
10616W        W83041   0.968  14.746   0.422
10617W        W83042  24.935  20.641   3.586
10618W        W83043  25.470   2.962  14.354
10619W        W83044   5.496  42.239  14.615
10620W        W83045  18.457  23.348  13.892
10621W        W83046  43.766   9.188   0.854
10622W        W83047  13.787  13.088   0.840
10623W        W83048   2.234  43.774   2.404
10624W        W83049  43.288  39.989  12.562
10625W        W83050  26.325  31.245   0.361
10626W        W83051  13.087   0.800  13.405
10627W        W83052  39.560   9.662   0.852
10628W        W83053  24.359  22.219   4.122
10629W        W83054  22.588  37.989   0.043
10630W        W83055  22.161  24.657   2.564
10631W        W83056  26.119   2.201  10.780
10632W        W83057  20.397  26.537  13.953
10633W        W83058  33.620  31.389   2.274
10634W        W83059  16.180   1.073   2.468
10635W        W83060  23.105   4.510  12.006
10636W        W83061   9.217  15.907  11.312
10637W        W83062  43.089  24.111  11.848
10638W        W83063  39.341  30.195   1.522
10639W        W83064  11.221  19.263  12.376
10640W        W83065   6.101  29.193  11.533
10641W        W83066  44.970  12.302   4.469
10642W        W83067  30.015   6.613  12.380
10643W        W83068   4.882  12.932   3.364
10644W        W83069  30.325  31.997  13.771
10645W        W83070  34.027  33.004   3.271
10646W        W83071   3.759   1.907   1.324
10647W        W83072  39.933  34.200   0.786
10648W        W83073  14.166  31.136   4.966
10649W        W83074  24.942  19.180  14.356
10650W        W83075  34.091  42.447  12.570
10651W        W83076  43.890  16.867   0.303
10652W        W83077  25.736  26.635  14.777
10653W        W83078  17.650   0.530   4.271
10654W        W83079   2.815  29.108   2.373
10655W        W83080  37.604  30.625  10.474
10656W        W83081   0.944   8.787  13.986
10657W        W83082  11.185  11.230   3.229
10658W        W83083   5.674  24.566  13.996
10659W        W83084  22.467   6.356  12.463
10660W        W83085  38.473  42.841   3.583
10661W        W83086  18.179  39.788   3.104
10662W        W83087  17.894   5.168   1.794
10663W        W83088  14.796  28.764   4.597
10664W        W83089  38.743  34.840   2.314
10665W        W83090  20.073  25.443   0.978
10666W        W83091   1.000   7.021   2.334
10667W        W83092  32.900   7.712   3.730
10668W        W83093  40.941  42.878  10.517
10669W        W83094  16.587  39.645  13.320
10670W        W83095  41.616  16.263   3.648
10671W        W83096  31.714  38.268  10.706
10672W        W83097   4.287  30.538   0.586
10673W        W83098  37.852  11.121  11.774
10674W        W83099  23.611  32.013   9.694
10675W        W83100   8.164  30.167   4.678
10676W        W83101  12.197  26.782   1.254
10677W        W83102  34.036  30.500   0.260
10678W        W83103  36.270   6.809  13.900
10679W        W83104  12.771  22.993  12.872
10680W        W83105  28.202  26.124   3.630
10681W        W83106   8.258  39.511   3.637
10682W        W83107  16.582   7.954  12.011
10683W        W83108  30.772  30.919  10.828
10684W        W83109  23.705  41.122  13.494
10685W        W83110  11.095  32.600   3.554
10686W        W83111  20.588  17.081   4.239
10687W        W83112  23.194  44.955   3.349
10688W        W83113  41.267   3.829  12.569
10689W        W83114  41.656  28.001  13.031
10690W        W83115  30.437  14.592  10.756
10691W        W83116  29.110  13.612  13.047
10692W        W83117   7.146   9.465   2.150
10693W        W83118  44.358  12.261   3.322
10694W        W83119  31.044  11.131  11.241
10695W        W83120   9.069  14.899  14.479
10696W        W83121  18.842  14.717   2.753
10697W        W83122  30.477  40.899  12.631
10698W        W83123  36.466   2.261  12.638
10699W        W83124  16.870  19.779   1.854
10700W        W83125  23.548  26.982  13.275
10701W        W83126   1.989  40.031   4.687
10702W        W83127  17.101  30.104  14.926
10703W        W83128  36.953  30.703   2.961
10704W        W83129  28.478  18.071  13.056
10705W        W83130  34.256   1.378  12.056
10706W        W83131  43.449   9.084  13.839
10707W        W83132   1.027   9.836   1.386
10708W        W83133  42.556  16.390   2.786
10709W        W83134  44.881  43.308   0.488
10710W        W83135  31.135  19.760  10.910
10711W        W83136  27.937  10.821   1.335
10712W        W83137  12.147  27.575   4.386
10713W        W83138  13.407  44.927   2.865
10714W        W83139  26.912  34.453   2.670
10715W        W83140  12.258  29.361  13.931
10716W        W83141  31.069   6.556   2.733
10717W        W83142  26.462  35.384   3.668
10718W        W83143   1.920   2.303  11.215
10719W        W83144   0.988  29.647   3.738
10720W        W83145  23.562  19.703   1.696
10721W        W83146   7.192  40.843   3.862
10722W        W83147   8.333  31.094   2.806
10723W        W83148   4.365  11.267  12.238
10724W        W83149   4.354   6.424  14.047
10725W        W83150  37.723  23.264   3.205
10726W        W83151  43.759   8.818   0.462
10727W        W83152  37.858   1.260  12.069
10728W        W83153  32.427  10.172  10.461
10729W        W83154  37.953  12.061  10.693
10730W        W83155   7.391  15.101  13.198
10731W        W83156  16.736   6.269  10.781
10732W        W83157  28.353   7.388  12.557
10733W        W83158   9.886  21.000  11.569
10734W        W83159  31.814   8.941  12.065
10735W        W83160  32.887  35.791   3.193
10736W        W83161  12.346  31.871  12.061
10737W        W83162  36.095   5.989   0.571
10738W        W83163  20.485   5.704   4.083
10739W        W83164  17.886  30.241  12.679
10740W        W83165  23.537  42.377   4.941
10741W        W83166   7.351  24.381   2.645
10742W        W83167   2.888  44.767   3.734
10743W        W83168  42.344  27.838  11.753
10744W        W83169  20.991  24.271   4.130
10745W        W83170   6.788  23.314  13.389
10746W        W83171  35.586  11.537   4.553
10747W        W83172   4.648  29.015   3.816
10748W        W83173  42.843  14.680   1.565
10749W        W83174  41.415  13.286   4.919
10750W        W83175  25.147  24.051  12.521
10751W        W83176  27.005  28.079  11.919
10752W        W83177  16.504  34.079  14.961
10753W        W83178  23.071   9.683  12.887
10754W        W83179  32.074  14.875  12.154
10755W        W83180  33.564   3.729   2.379
10756W        W83181  43.304  23.203   2.460
10757W        W83182   3.246  12.921   1.277
10758W        W83183  26.284  14.803   1.633
10759W        W83184  18.098  30.589  11.879
10760W        W83185  11.022  32.610   1.332
10761W        W83186  27.559  41.633  13.812
10762W        W83187  23.282  36.144   0.900
10763W        W83188  17.554   7.299   4.709
10764W        W83189  31.364  35.677   2.961
10765W        W83190  36.847   1.790  11.498
10766W        W83191  23.981   1.684   3.629
10767W        W83192  44.875  10.259  13.337
10768W        W83193  40.846   2.326  12.993
10769W        W83194  20.780  22.939  12.537
10770W        W83195  27.094  39.988  10.095
10771W        W83196  13.201   8.638   1.842
10772W        W83197   6.961  11.599   1.422
10773W        W83198   7.339   8.709  13.920
10774W        W83199  34.106   5.399  14.430
10775W        W83200  15.618   5.343  10.450
10776W        W83201  39.093  26.578   5.052
10777W        W83202  25.717  29.092   2.090
10778W        W83203  15.653  37.139   2.673
10779W        W83204   9.599  14.151  13.995
10780W        W83205  44.315  32.595  14.232
10781W        W83206  30.919  29.947   1.332
10782W        W83207   6.030   8.391   3.309
10783W        W83208  26.974  24.588   4.867
10784W        W83209   4.437   6.294   1.274
10785W        W83210  33.793  21.999  12.614
10786W        W83211  15.802  11.536  10.496
10787W        W83212  22.472  21.671   3.318
10788W        W83213  31.595  19.184   4.135
10789W        W83214  42.431  33.898   3.260
10790W        W83215  28.432  23.819   0.819
10791W        W83216   5.751  21.012   1.025
10792W        W83217  22.410  25.164  14.119
10793W        W83218  31.462  34.967  13.493
10794W        W83219  35.233  24.900   4.197
10795W        W83220  26.678  30.435  11.600
10796W        W83221  39.505  15.976  14.382
10797W        W83222  28.097   8.790  10.771
10798W        W83223  23.106  31.482  14.679
10799W        W83224  16.826   3.246   3.227
10800W        W83225   2.191  28.640   4.881
10801W        W83226  16.692   3.782   3.855
10802W        W83227  35.034  15.768   3.800
10803W        W83228   5.460  36.127  13.434
10804W        W83229   5.213  16.209   3.103
10805W        W83230  12.657  13.779  10.950
10806W        W83231  24.583  33.642   1.266
10807W        W83232  43.976   0.380  10.729
10808W        W83233   6.132  39.514   4.158
10809W        W83234  25.234  14.886   1.880
10810W        W83235  32.105  35.089   5.012
10811W        W83236  13.599  27.929  10.640
10812W        W83237  17.161  23.608   2.472
10813W        W83238  39.586   0.148   4.095
10814W        W83239   4.390  37.509   4.841
10815W        W83240  19.821  43.615  14.808
10816W        W83241  18.670  23.006   4.835
10817W        W83242   1.048  36.529   2.386
10818W        W83243  43.218  24.323  11.042
10819W        W83244   3.782  43.679  14.913
10820W        W83245   4.682  33.440  13.854
10821W        W83246  12.544  43.494   1.365
10822W        W83247  27.218  44.107  14.582
10823W        W83248  16.123  11.647  14.266
10824W        W83249   1.096  25.043   9.899
10825W        W83250  36.112  35.687   4.186
10826W        W83251   6.434  42.501   1.719
10827W        W83252   7.144  14.821  12.425
10828W        W83253  28.446  30.644  13.511
10829W        W83254  10.052  29.955  11.689
10830W        W83255  42.391  23.462  13.978
10831W        W83256  43.922  31.522  14.012
10832W        W83257  29.478  29.306   3.267
10833W        W83258  37.388  22.504   2.401
10834W        W83259   7.625  23.226  14.343
10835W        W83260  12.270  28.054   4.522
10836W        W83261  28.755  22.358  14.941
10837W        W83262   3.180   8.173   4.092
10838W        W83263  31.439  19.271  10.981
10839W        W83264  29.015  27.132   4.548
10840W        W83265   5.958  17.426   3.788
10841W        W83266  44.777  17.568   1.029
10842W        W83267  35.918  41.915   4.513
10843W        W83268  28.874  17.167   2.333
10844W        W83269  20.489  10.074   1.760
10845W        W83270  16.511  37.291  11.442
10846W        W83271  34.518  27.465  14.963
10847W        W83272  25.023   5.288   3.121
10848W        W83273  17.820  31.385   0.193
10849W        W83274  16.086  22.113   3.689
10850W        W83275  28.258  19.731   3.417
10851W        W83276  30.518  24.757   0.216
10852W        W83277   3.558   1.420   2.911
10853W        W83278   0.051  31.510   0.942
10854W        W83279   9.308  17.852  11.190
10855W        W83280  39.536  18.798   1.891
10856W        W83281  17.369   7.572   4.310
10857W        W83282  43.481  43.985  14.234
10858W        W83283  25.071  29.959   2.257
10859W        W83284  15.633  29.194  13.979
10860W        W83285  42.374  43.413   2.205
10861W        W83286  42.197   4.747  13.763
10862W        W83287  30.110  13.376  10.911
10863W        W83288  40.945  26.600  14.869
10864W        W83289  22.353  33.220   3.621
10865W        W83290   6.329  25.707  14.781
10866W        W83291   6.140  27.510   2.409
10867W        W83292   6.682   9.345  13.912
10868W        W83293   4.801  10.497   1.150
10869W        W83294  37.024  39.516  12.981
10870W        W83295  16.576   6.894   0.494
10871W        W83296  26.747   2.511   2.857
10872W        W83297  42.458  19.189  11.927
10873W        W83298  15.694  12.137  12.497
10874W        W83299  13.431  38.979  10.286
10875W        W83300  44.373  15.110   3.221
10876W        W83301   0.976  20.833   0.597
10877W        W83302  35.267  14.764  10.452
10878W        W83303  29.946  19.384  11.112
10879W        W83304   2.409  27.717   5.038
10880W        W83305  25.786   4.180   4.151
10881W        W83306  18.069   7.725   3.969
10882W        W83307  14.714   1.502   1.403
10883W        W83308   9.438  11.420   0.850
10884W        W83309  35.881  22.616  11.817
10885W        W83310  41.280  41.716  14.562
10886W        W83311   8.435  27.002   4.696
10887W        W83312  20.278  18.275  11.186
10888W        W83313   2.691  28.685   1.332
10889W        W83314  37.009  32.617   0.412
10890W        W83315   1.561  10.619  12.913
10891W        W83316  13.136   4.377   9.610
10892W        W83317  37.432   4.168   0.501
10893W        W83318  42.801  38.996   4.229
10894W        W83319   8.588  12.797   2.409
10895W        W83320  10.684  17.114   3.983
10896W        W83321  27.432  38.838  14.435
10897W        W83322  43.892  39.745   1.381
10898W        W83323  15.637  42.308  13.755
10899W        W83324  30.977   2.533  11.531
10900W        W83325  29.707  24.617  11.463
10901W        W83326  39.008   7.435  12.121
10902W        W83327  29.901  15.045   4.714
10903W        W83328  17.445   8.363   3.900
10904W        W83329   3.211  29.462   2.782
10905W        W83330  30.987  39.045   0.885
10906W        W83331  33.088  35.890   3.669
10907W        W83332   5.939  36.400   4.570
10908W        W83333  26.170  39.894   2.171
10909W        W83334  21.283  34.823   0.423
10910W        W83335  43.317  24.589   3.906
10911W        W83336  26.997  35.022  12.988
10912W        W83337  30.418  23.468   4.361
10913W        W83338  11.601  26.480   1.934
10914W        W83339  44.543  26.709   4.428
10915W        W83340  32.146  43.954  12.922
10916W        W83341  20.561  23.688   3.748
10917W        W83342  11.112  29.350  11.249
10918W        W83343  27.134   7.177  10.538
10919W        W83344   6.925  23.342  11.103
10920W        W83345  35.197  19.089  11.049
10921W        W83346   9.064  23.962  12.407
10922W        W83347  39.541  14.679   2.808
10923W        W83348  17.207  13.156   5.072
10924W        W83349   7.315  20.191  14.734
10925W        W83350  40.073   7.257  11.385
10926W        W83351  35.098  41.441  14.879
10927W        W83352  43.042  31.306   0.967
10928W        W83353  19.565  32.529  12.433
10929W        W83354  38.329  21.918   3.252
10930W        W83355  14.744  27.016   3.653
10931W        W83356  27.460  39.951   4.094
10932W        W83357  23.525   4.146   0.797
10933W        W83358  34.799  21.629  13.559
10934W        W83359  25.976  42.518  13.461
10935W        W83360  43.440  23.479  12.316
10936W        W83361  16.839  18.289   3.352
10937W        W83362  42.487  24.804   2.741
10938W        W83363  32.098  36.414  13.503
10939W        W83364  39.809  17.164   1.388
10940W        W83365   0.202  43.946  13.442
10941W        W83366  44.270  38.154   4.768
10942W        W83367  38.571  26.715   4.957
10943W        W83368   1.408  26.029   4.277
10944W        W83369  31.601  32.998  13.821
10945W        W83370  14.783  33.988   2.317
10946W        W83371   9.320  17.622   3.608
10947W        W83372   9.273  15.654   2.545
10948W        W83373   5.524   7.211   3.266
10949W        W83374  29.148  42.546   2.674
10950W        W83375  20.478  34.928  14.931
10951W        W83376   4.066   0.346  13.082
10952W        W83377  29.043  16.073   4.049
10953W        W83378  30.795   8.879  12.068
10954W        W83379  12.704  13.373  11.253
10955W        W83380  40.351   9.608  12.483
10956W        W83381  11.164  19.590   2.722
10957W        W83382  13.898   6.181  13.351
10958W        W83383  22.967  34.006  13.738
10959W        W83384   6.373  35.713  14.546
10960W        W83385  17.086   0.127  13.737
10961W        W83386  36.701   8.058   1.654
10962W        W83387  17.362   9.850   0.636
10963W        W83388  29.101  11.571   2.664
10964W        W83389  41.772  18.612  14.477
10965W        W83390  11.548  35.330   0.367
10966W        W83391  24.031  18.609  10.390
10967W        W83392   6.707  38.026  12.815
10968W        W83393  16.626  40.891  11.484
10969W        W83394  16.033  23.550   4.632
10970W        W83395  41.633  38.772  10.693
10971W        W83396  12.798  22.647   2.265
10972W        W83397  26.106  41.365   3.781
10973W        W83398  14.849  44.471  12.962
10974W        W83399  44.599  34.461   4.971
10975W        W83400  18.528  44.439  11.861
10976W        W83401  23.547  39.269  10.633
10977W        W83402  18.207   9.525  14.881
10978W        W83403   1.453  33.291   2.885
10979W        W83404   2.335   7.731   4.919
10980W        W83405   4.334  16.814   0.778
10981W        W83406  38.833  39.338  10.934
10982W        W83407  12.174  28.361  12.978
10983W        W83408  23.393  16.554  12.387
10984W        W83409  16.534  41.382   3.130
10985W        W83410  37.981  23.020   2.211
10986W        W83411  21.115  20.671   2.644
10987W        W83412   1.455  15.547  12.499
10988W        W83413  41.518  43.403   1.825
10989W        W83414  14.816  20.527  14.502
10990W        W83415  26.961  40.930   0.715
10991W        W83416   0.416   4.366  11.552
10992W        W83417   5.272  43.599   1.373
10993W        W83418  12.915  44.603   4.662
10994W        W83419  39.774  40.082  13.020
10995W        W83420   1.001  22.550  11.585
10996W        W83421  19.817  31.454  13.937
10997W        W83422  24.726   6.147   3.205
10998W        W83423  38.575  30.988  13.439
10999W        W83424  19.621  26.038  10.620
11000W        W83425  20.572  10.144   3.135
11001W        W83426  14.212  44.708  13.521
11002W        W83427  12.118  23.129  11.237
11003W        W83428  14.974  17.079  10.282
11004W        W83429  12.090  12.591  13.488
11005W        W83430   2.029  17.231   4.128
11006W        W83431   0.597  16.810   4.318
11007W        W83432  18.579  38.563  13.475
11008W        W83433   5.682   5.935   3.493
11009W        W83434  28.671  14.449  12.003
11010W        W83435  38.349  11.079   2.421
11011W        W83436  41.829   9.827  10.572
11012W        W83437   3.510  28.942  12.469
11013W        W83438  20.642  31.690  10.702
11014W        W83439  24.967  13.222  14.842
11015W        W83440   4.425  33.154   1.737
11016W        W83441   5.640   9.270   0.810
11017W        W83442  28.600  37.331  11.525
11018W        W83443   0.131  20.945  11.983
11019W        W83444  40.801  37.966   2.235
11020W        W83445   6.711   4.276   0.230
11021W        W83446  14.791  19.339   0.282
11022W        W83447  11.664   8.700  11.088
11023W        W83448  19.567  38.839   2.301
11024W        W83449  13.583  18.562  14.946
11025W        W83450  36.950  19.006  11.458
11026W        W83451  19.621   6.836   2.965
11027W        W83452  11.306   7.888  11.986
11028W        W83453  37.059  40.923   1.291
11029W        W83454  26.161   7.916   0.201
11030W        W83455  32.381  40.473   1.493
11031W        W83456  39.891  15.030  14.318
11032W        W83457  15.919  13.682  11.974
11033W        W83458  25.660  21.918  11.210
11034W        W83459  38.107  19.673  13.095
11035W        W83460   4.455   1.292   4.126
11036W        W83461   0.712   5.644  10.824
11037W        W83462   7.486  13.839  11.039
11038W        W83463  16.113   7.283  12.070
11039W        W83464  16.502  19.155  10.625
11040W        W83465  23.815  20.169  14.814
11041W        W83466  41.773   0.277  12.051
11042W        W83467  35.335  21.514  12.089
11043W        W83468   2.043  35.915   2.745
11044W        W83469  41.674  42.798   4.305
11045W        W83470  38.828  11.892   2.182
11046W        W83471  21.617  18.120   3.478
11047W        W83472  29.566  21.177  11.033
11048W        W83473  38.726   6.223  13.460
11049W        W83474  26.452  10.320  14.842
11050W        W83475  15.114  17.020   4.570
11051W        W83476   5.294  28.591  12.878
11052W        W83477  24.196   6.705  14.260
11053W        W83478  18.299  13.899   1.971
11054W        W83479  19.292  39.431   1.264
11055W        W83480  18.186  44.815   2.615
11056W        W83481  14.365  19.428  12.016
11057W        W83482  33.524  26.132   4.600
11058W        W83483  29.613  42.916   0.998
11059W        W83484  31.167   8.123   2.456
11060W        W83485  36.862   7.329  14.928
11061W        W83486   9.594  40.261   2.815
11062W        W83487   7.564  12.402   3.877
11063W        W83488  12.680   6.162  10.665
11064W        W83489  14.594  10.384   4.839
11065W        W83490   1.235   1.699   3.663
11066W        W83491  44.052  13.540  13.490
11067W        W83492   6.480  20.793   2.923
11068W        W83493  24.295   4.388   3.900
11069W        W83494  35.994  14.057  12.159
11070W        W83495  31.939  42.892   0.506
11071W        W83496  20.426  14.121   3.485
11072W        W83497  36.998   1.003   3.392
11073W        W83498   9.730   0.249   1.407
11074W        W83499   4.267  15.005   0.113
11075W        W83500  11.367   6.237  12.922
11076W        W83501  24.821  27.598   4.540
11077W        W83502   0.360  18.553   2.643
11078W        W83503  14.333   5.393   1.184
11079W        W83504   0.820  29.573  14.299
11080W        W83505  32.619  14.595   0.035
11081W        W83506  23.453  30.976  12.549
11082W        W83507  13.402  17.237   4.488
11083W        W83508  37.094   9.302   2.339
11084W        W83509  30.523  39.863   0.484
11085W        W83510   3.258  27.410   1.417
11086W        W83511   4.320  11.300   4.364
11087W        W83512   8.850  29.651  12.377
11088W        W83513  20.079  25.192   0.225
11089W        W83514  40.104  43.308   0.761
11090W        W83515  28.113  17.117   4.122
11091W        W83516   1.522  24.742   2.882
11092W        W83517  24.045  26.255  10.708
11093W        W83518  18.895  23.424   0.187
11094W        W83519  34.887  31.556   1.861
11095W        W83520  36.797  23.648   0.287
11096W        W83521  24.251  26.082  13.436
11097W        W83522  34.962  33.440  11.968
11098W        W83523   1.974  17.988   1.835
11099W        W83524   6.373  37.419   4.171
11100W        W83525  39.314  28.409  14.495
11101W        W83526  21.378  32.546   3.246
11102W        W83527  31.475  19.659  11.289
11103W        W83528  39.101   9.170   2.393
11104W        W83529  29.422  11.485  14.933
11105W        W83530  35.361  41.951  12.598
11106W        W83531  17.043   1.048   3.684
11107W        W83532  33.930  37.985   2.104
11108W        W83533  20.660   7.693   0.527
11109W        W83534  34.600  26.472   0.345
11110W        W83535  43.862   7.388  13.799
11111W        W83536  19.823   4.513  12.870
11112W        W83537   3.152  20.510  12.758
11113W        W83538  23.256   4.794  14.929
11114W        W83539  17.585  34.323  11.078
11115W        W83540  33.367  18.113   0.224
11116W        W83541   5.221  11.125   2.208
11117W        W83542   5.670   3.440   1.303
11118W        W83543   5.833  11.377   3.400
11119W        W83544  34.521   9.889  12.521
11120W        W83545   4.860  30.134  10.702
11121W        W83546   5.091  27.205  14.761
11122W        W83547  22.237  16.782   4.635
11123W        W83548  10.630  35.319   0.372
11124W        W83549  39.116  43.074   2.844
11125W        W83550  41.531  42.079  11.526
11126W        W83551  27.237   3.943  11.715
11127W        W83552   8.390  33.434   4.485
11128W        W83553  29.689  36.432  11.565
11129W        W83554  21.591  17.028   0.409
11130W        W83555  21.973  31.465  13.285
11131W        W83556  19.230  42.798   0.219
11132W        W83557  25.255  11.296   3.262
11133W        W83558   7.292  12.787   3.107
11134W        W83559  29.668  24.525  13.007
11135W        W83560   0.806   2.366  12.336
11136W        W83561  29.410  27.114  13.306
11137W        W83562  22.689  18.363   0.346
11138W        W83563  18.031  13.213   1.613
11139W        W83564  44.315   5.494  10.257
11140W        W83565  20.313  44.885  13.951
11141W        W83566  35.100  26.588   1.614
11142W        W83567  39.996  39.056   0.288
11143W        W83568  31.604   3.400   3.914
11144W        W83569  38.242  17.589   0.828
11145W        W83570  22.225  34.382  11.903
11146W        W83571  10.418  15.226   4.312
11147W        W83572  11.216  38.594  13.896
11148W        W83573  32.455  20.632   0.384
11149W        W83574  14.832  39.502  12.523
11150W        W83575   1.765  25.875   2.203
11151W        W83576   8.088  10.822   3.184
11152W        W83577   2.787  23.641  12.726
11153W        W83578   7.699  26.160   2.302
11154W        W83579   0.756  42.273   0.215
11155W        W83580  34.859  35.110   3.234
11156W        W83581  14.168  25.244  14.439
11157W        W83582  40.965  20.688   4.062
11158W        W83583   2.722  27.018  14.766
11159W        W83584  36.009  23.118   0.842
11160W        W83585  23.982  29.819   1.331
11161W        W83586  40.538  32.357   0.746
11162W        W83587  40.838  41.535   0.449
11163W        W83588  25.269  35.427  13.905
11164W        W83589  10.982  33.149   3.331
11165W        W83590  31.537  27.436   0.323
11166W        W83591   9.322  11.229  13.867
11167W        W83592  39.281  21.725  11.204
11168W        W83593  16.058  16.839   3.143
11169W        W83594  21.978  32.169   3.841
11170W        W83595   1.957  33.435  12.627
11171W        W83596  31.127  43.040   0.905
11172W        W83597  38.464  11.294  13.553
11173W        W83598  21.710  42.787  11.591
11174W        W83599  33.085  16.776  12.077
11175W        W83600  23.091  23.790   4.529
11176W        W83601  43.631  25.082  11.153
11177W        W83602  41.963  17.145   4.553
11178W        W83603   9.859   5.702  12.543
11179W        W83604  26.931  35.998  11.557
11180W        W83605   8.847  42.446  11.821
11181W        W83606  35.397  44.373  10.945
11182W        W83607  37.375  42.925   0.476
11183W        W83608  34.229  40.920   0.970
11184W        W83609   4.853  23.143  13.774
11185W        W83610  13.925   1.298  11.987
11186W        W83611  44.457  19.859  12.498
11187W        W83612  26.015   7.763   1.117
11188W        W83613  20.239  40.686   1.932
11189W        W83614  39.933  11.700   1.355
11190W        W83615  40.953   8.299  11.671
11191W        W83616   5.916  40.530   2.367
11192W        W83617  35.800  43.865  12.138
11193W        W83618  22.131   8.618   2.757
11194W        W83619  16.190   9.126  13.050
11195W        W83620   7.218  16.530  14.908
11196W        W83621  25.292  18.153  10.695
11197W        W83622  33.263  29.988   2.749
11198W        W83623  28.641  33.406   0.402
11199W        W83624  25.290  17.564  13.529
11200W        W83625   0.244  32.507   0.499
11201W        W83626  12.808  17.759   1.360
11202W        W83627  35.530  37.422  11.401
11203W        W83628   6.783  16.746  14.718
11204W        W83629  18.032   2.830  12.156
11205W        W83630   3.863  37.613  11.988
11206W        W83631   4.512   4.697  14.458
11207W        W83632  32.825  27.704  11.339
11208W        W83633  25.189   5.351  13.417
11209W        W83634   4.319   5.601   0.372
11210W        W83635  27.981  24.079   0.805
11211W        W83636   4.411  40.294   3.744
11212W        W83637   1.724  27.554  10.430
11213W        W83638  19.915  25.384   3.310
11214W        W83639  16.124  29.509  11.440
11215W        W83640   6.596  18.121   1.989
11216W        W83641  18.285  12.643  12.588
11217W        W83642  36.607  32.975  13.620
11218W        W83643  23.131  30.058   0.905
11219W        W83644  43.707  17.779  12.090
11220W        W83645  27.992  35.901   0.267
11221W        W83646  28.432  20.442  12.801
11222W        W83647  28.840  26.205  11.589
11223W        W83648  27.885   1.474   1.393
11224W        W83649  21.552  23.121   2.942
11225W        W83650  17.179  43.729  13.466
11226W        W83651  34.215  37.615  14.582
11227W        W83652  30.418  17.127   2.261
11228W        W83653  28.731  25.061   4.705
11229W        W83654   3.192   3.834  10.659
11230W        W83655  35.109   5.700   2.294
11231W        W83656  36.589  25.377   2.583
11232W        W83657   0.537  19.047   0.699
11233W        W83658   6.314  36.334  14.469
11234W        W83659  43.051   3.808  13.818
11235W        W83660  37.295  41.504   3.794
11236W        W83661  30.691  15.109  12.802
11237W        W83662  19.692  36.738  12.090
11238W        W83663  11.150   4.291   0.618
11239W        W83664   3.477  19.703   3.073
11240W        W83665   0.404  28.681   2.322
11241W        W83666   5.399  44.017   3.625
11242W        W83667  29.598  28.996  14.420
11243W        W83668  18.945  23.836  13.894
11244W        W83669  42.524  13.225  10.737
11245W        W83670  23.800  31.439  10.534
11246W        W83671   5.447  30.555  13.004
11247W        W83672   7.274  10.258   2.172
11248W        W83673  40.835  42.706  13.099
11249W        W83674  36.360   4.265   2.607
11250W        W83675  37.918  13.575   0.061
11251W        W83676  40.933  15.188  13.352
11252W        W83677  15.898  19.526  11.156
11253W        W83678   5.326  26.441   1.011
11254W        W83679  32.853  35.408   0.283
11255W        W83680   8.289  30.574  14.160
11256W        W83681  40.503  19.557   3.462
11257W        W83682  37.265  22.743   3.685
11258W        W83683  41.718   8.884   2.595
11259W        W83684   7.621  16.597   4.073
11260W        W83685   6.278  10.594  10.044
11261W        W83686  13.270  40.943   1.709
11262W        W83687  35.965  31.813  11.517
11263W        W83688  15.094   5.818  13.520
11264W        W83689  38.973  28.170   1.885
11265W        W83690  38.851  30.676   2.111
11266W        W83691   1.208  42.775  13.021
11267W        W83692   9.712  10.290   2.772
11268W        W83693  29.419  39.789   2.117
11269W        W83694  28.779  16.957   3.634
11270W        W83695  14.415  17.994   3.401
11271W        W83696   1.545  36.368   2.356
11272W        W83697  12.877   2.314   3.153
11273W        W83698  33.654  14.644  12.448
11274W        W83699   3.411  18.081  14.769
11275W        W83700  20.211  15.064  14.360
11276W        W83701   4.033  36.461   1.354
11277W        W83702  35.083  23.098   0.721
11278W        W83703  14.224  15.070  14.037
11279W        W83704  32.281  36.486  11.120
11280W        W83705   1.610   3.573   5.223
11281W        W83706  39.251  14.764  12.536
11282W        W83707  22.956  33.375  11.567
11283W        W83708   3.466  19.668   4.217
11284W        W83709  10.430  27.049  14.124
11285W        W83710  14.771  37.645   0.181
11286W        W83711  31.163   6.864   1.864
11287W        W83712  14.064   0.678   0.878
11288W        W83713  12.320  30.054   2.709
11289W        W83714  12.388  31.637  12.516
11290W        W83715  15.345  14.197   2.661
11291W        W83716  16.001  36.424   0.737
11292W        W83717   7.317  35.051  13.807
11293W        W83718   7.966  16.713  11.547
11294W        W83719  40.064   8.697  11.297
11295W        W83720  31.496   6.198   2.719
11296W        W83721  10.626  34.446   3.118
11297W        W83722  26.901  44.847  10.471
11298W        W83723  32.443   0.015   2.345
11299W        W83724  43.658   2.844   1.682
11300W        W83725  44.452  30.896  13.462
11301W        W83726  30.057  31.320  12.027
11302W        W83727   8.501   1.060   0.009
11303W        W83728  24.023  34.909  13.375
11304W        W83729  10.591  27.882  11.080
11305W        W83730   4.936  11.212   1.750
11306W        W83731  39.047  32.515   0.409
11307W        W83732  12.604  14.225   0.704
11308W        W83733  29.351  12.784  13.535
11309W        W83734  34.165  24.117   4.986
11310W        W83735  18.281   5.512   4.889
11311W        W83736  19.276  34.057  13.451
11312W        W83737  17.123  42.729   3.394
11313W        W83738   1.931   5.328  11.557
11314W        W83739  40.843  22.123   3.344
11315W        W83740  38.391   9.644  11.973
11316W        W83741  29.079   0.283  12.960
11317W        W83742  11.475  16.728   2.767
11318W        W83743   6.498  14.746   3.644
11319W        W83744  32.535  43.407  11.373
11320W        W83745  12.065   9.298   4.019
11321W        W83746  13.055  16.749   0.453
11322W        W83747  40.846  37.820  12.600
11323W        W83748  17.240   9.187  13.936
11324W        W83749  17.493   9.708  11.513
11325W        W83750  38.438  12.339  12.070
11326W        W83751  19.597  33.985   1.279
11327W        W83752   8.174  21.492   2.856
11328W        W83753   7.136  19.035   0.761
11329W        W83754   5.974  27.224   4.764
11330W        W83755  24.145  33.397   1.473
11331W        W83756  36.311   8.802  11.944
11332W        W83757   7.599  12.160  13.109
11333W        W83758  30.535   4.774  11.973
11334W        W83759  44.806   0.913   3.393
11335W        W83760  38.566   4.628   0.779
11336W        W83761  30.931  35.746   2.572
11337W        W83762  23.002  26.869   4.720
11338W        W83763  30.982  21.914  12.378
11339W        W83764  15.232  38.519  14.810
11340W        W83765  26.994  36.480  11.722
11341W        W83766  17.091  22.470   1.728
11342W        W83767  34.648   6.837   4.201
11343W        W83768  36.789   6.196  10.249
11344W        W83769  22.035  27.585  13.033
11345W        W83770  23.762  37.326   0.872
11346W        W83771  28.805  37.304  12.843
11347W        W83772  19.212  41.622  12.878
11348W        W83773  26.705   4.529   1.449
11349W        W83774  10.510  30.504  14.496
11350W        W83775   8.818  33.619  11.120
11351W        W83776  12.375   3.147  11.033
11352W        W83777  20.579  38.791   4.084
11353W        W83778  12.708  10.605  10.652
11354W        W83779  20.299  43.950  12.007
11355W        W83780  26.032  12.359   3.171
11356W        W83781  13.117  40.184  13.024
11357W        W83782  12.050  27.464   1.699
11358W        W83783  11.068  22.216   4.108
11359W        W83784  34.883   3.466   2.685
11360W        W83785  29.875  35.900  13.729
11361W        W83786  22.607  24.939  14.864
11362W        W83787  42.811  25.724   0.778
11363W        W83788  32.959  40.743  14.332
11364W        W83789  41.690  22.126   2.561
11365W        W83790  30.587  26.603  12.713
11366W        W83791   0.432  30.571  11.717
11367W        W83792  14.703   2.829   0.570
11368W        W83793   3.942  32.972   1.722
11369W        W83794  14.879  32.293  12.554
11370W        W83795  19.806  39.362   2.377
11371W        W83796   2.942  42.006   3.831
11372W        W83797  35.381   9.138  10.709
11373W        W83798   9.654  30.493   0.464
11374W        W83799  20.088  26.668  14.350
11375W        W83800  10.105  11.214   3.449
11376W        W83801  14.809  30.510   2.767
11377W        W83802  20.005  40.861  12.966
11378W        W83803  31.600   8.051   3.748
11379W        W83804  13.183  11.617   5.156
11380W        W83805  14.560  29.234  11.998
11381W        W83806   8.327  29.425  11.627
11382W        W83807  43.509  41.555  11.859
11383W        W83808  37.354  12.460   4.156
11384W        W83809  25.897  40.428  11.079
11385W        W83810  44.345  20.603  14.507
11386W        W83811  32.596  22.677   4.226
11387W        W83812  24.489  43.500  10.569
11388W        W83813   5.810  26.677   4.707
11389W        W83814  10.525  25.457  14.320
11390W        W83815  37.033  31.671  11.871
11391W        W83816   3.700   8.257  11.916
11392W        W83817  37.400  17.360   4.635
11393W        W83818  27.410   6.779   2.758
11394W        W83819   9.345   0.827   0.745
11395W        W83820  11.900   8.561   3.164
11396W        W83821  41.870  17.759   4.673
11397W        W83822  44.392   8.739  14.156
11398W        W83823  39.222  34.855  11.506
11399W        W83824  12.027   5.827   1.735
11400W        W83825   2.158  20.666   1.614
11401W        W83826  21.997  34.542   3.714
11402W        W83827  19.244  30.660  12.909
11403W        W83828  12.835  24.601  10.326
11404W        W83829  35.766  37.194   4.236
11405W        W83830  16.541  44.982   0.400
11406W        W83831  42.574  11.436  13.572
11407W        W83832   2.729  22.615  11.620
11408W        W83833   6.370  25.153  14.801
11409W        W83834  34.346   4.888  14.366
11410W        W83835  33.871  24.984   3.801
11411W        W83836  10.409  15.307   2.866
11412W        W83837  34.566  36.061  11.571
11413W        W83838  40.059  36.826  10.744
11414W        W83839  13.235  14.146   1.342
11415W        W83840  10.730  22.286  10.248
11416W        W83841   8.741  23.942  11.494
11417W        W83842  39.399  22.090   2.780
11418W        W83843  24.108  27.050   0.234
11419W        W83844  13.603  42.454   2.274
11420W        W83845  22.029  43.709  12.906
11421W        W83846  32.199  27.945  14.288
11422W        W83847  16.235  17.157  13.803
11423W        W83848   9.166  10.255   5.066
11424W        W83849  37.649  23.609  13.023
11425W        W83850  20.794  25.251   1.449
11426W        W83851  37.429  11.170  12.425
11427W        W83852  43.960  33.403   2.366
11428W        W83853  24.250  28.824   3.914
11429W        W83854   0.299   0.233   0.328
11430W        W83855  32.476   7.226   1.802
11431W        W83856  14.140  39.874   0.657
11432W        W83857  13.984  17.214   3.768
11433W        W83858   7.892  44.534  13.319
11434W        W83859   0.981  20.435   3.132
11435W        W83860   6.778  33.917   3.886
11436W        W83861  24.076   9.898  14.979
11437W        W83862  44.252  32.064   0.777
11438W        W83863   7.201  21.460  10.942
11439W        W83864  37.825  23.819  14.131
11440W        W83865  28.732   8.219   2.892
11441W        W83866  29.449  41.460  11.916
11442W        W83867   7.634  33.081   4.551
11443W        W83868  29.669  37.433  14.102
11444W        W83869  27.022  40.482  14.972
11445W        W83870  15.437  15.251   4.733
11446W        W83871  35.049   9.880   4.190
11447W        W83872  14.744  11.274  13.392
11448W        W83873   1.486  36.821  12.172
11449W        W83874  33.049  31.914  14.379
11450W        W83875   5.191  19.751   2.971
11451W        W83876  11.725  15.122  12.376
11452W        W83877  19.716  18.665   4.636
11453W        W83878  30.026  16.398  13.827
11454W        W83879   8.363  12.905  13.755
11455W        W83880  20.100   7.245  12.899
11456W        W83881  10.649  13.753   3.268
11457W        W83882  38.852  32.330   4.218
11458W        W83883   6.357  11.212  10.413
11459W        W83884  22.186  30.972   0.963
11460W        W83885  44.825  32.800  12.413
11461W        W83886  37.844  36.324   0.453
11462W        W83887  14.616   1.097   5.589
11463W        W83888  32.882  22.009   4.330
11464W        W83889   8.399  33.391   2.067
11465W        W83890  20.986   9.262   3.247
11466W        W83891  13.031  10.578  12.376
11467W        W83892   0.421  10.253   4.992
11468W        W83893  10.285  31.479   3.207
11469W        W83894  27.636  16.064  11.670
11470W        W83895  31.380  36.997  13.520
11471W        W83896   7.703   7.925   1.171
11472W        W83897  21.226   3.484   3.603
11473W        W83898  19.707  39.586  11.051
11474W        W83899  12.331   8.096  14.332
11475W        W83900  13.210  27.715   1.191
11476W        W83901   9.006  11.518   3.793
11477W        W83902  44.059  12.744   2.160
11478W        W83903  26.112  12.609   0.582
11479W        W83904   5.294  14.012   2.713
11480W        W83905  31.928  37.432   3.617
11481W        W83906   4.691   2.338  14.533
11482W        W83907  41.264   0.323  11.095
11483W        W83908   2.285  42.580   4.166
11484W        W83909  31.868  36.511  13.976
11485W        W83910   4.713  26.380   5.032
11486W        W83911  33.000  16.367   3.650
11487W        W83912  15.535  39.459  11.161
11488W        W83913  12.883  41.322  12.619
11489W        W83914  30.244  20.272  13.006
11490W        W83915  14.541  15.665   1.319
11491W        W83916  11.114  22.600  10.925
11492W        W83917  21.756   7.364   0.510
11493W        W83918  21.435  36.504  12.414
11494W        W83919  31.442  43.604  10.658
11495W        W83920  38.704  11.495  11.578
11496W        W83921  12.829  15.179   0.235
11497W        W83922  39.484  23.743  14.844
11498W        W83923  18.806  43.188  14.074
11499W        W83924  29.684  15.315  13.005
11500W        W83925  15.722  14.521  13.988
11501W        W83926   6.245  38.534  10.283
11502W        W83927  13.102   0.459  10.574
11503W        W83928  35.884  28.160   3.261
11504W        W83929  35.896  13.908  13.438
11505W        W83930  40.325   4.929  12.132
11506W        W83931  23.515  11.779   3.420
11507W        W83932  42.011   8.205   0.740
11508W        W83933   0.986  27.999  13.520
11509W        W83934   7.733  29.025  12.379
11510W        W83935   1.678   1.377  12.688
11511W        W83936  32.697  39.635  12.572
11512W        W83937  41.236  36.529   2.784
11513W        W83938   6.802   0.649  14.438
11514W        W83939  27.621  43.556   1.760
11515W        W83940  17.316  18.190  13.427
11516W        W83941   8.201  33.645   1.119
11517W        W83942   7.291  30.582   1.853
11518W        W83943   1.463  24.024  14.902
11519W        W83944  13.887  14.680   4.678
11520W        W83945  31.377  10.516   3.236
11521W        W83946   6.730  25.153  11.053
11522W        W83947  42.337   1.712   5.189
11523W        W83948  44.349  41.046  10.780
11524W        W83949   1.758  19.642   1.400
11525W        W83950  26.412  15.671  12.473
11526W        W83951  21.434  28.533   1.840
11527W        W83952  30.117  16.327   0.249
11528W        W83953  30.600  18.950   0.421
11529W        W83954   5.828   1.882  12.796
11530W        W83955   4.654  33.999   1.188
11531W        W83956  32.989  20.125  10.700
11532W        W83957   6.807  42.049  12.441
11533W        W83958   2.152  25.083  12.129
11534W        W83959  23.959  16.555   0.456
11535W        W83960  33.492  19.446  13.575
11536W        W83961   9.669  16.241   3.701
11537W        W83962  41.999  18.814   4.574
11538W        W83963  36.292  35.605   2.341
11539W        W83964  21.678   8.922  13.037
11540W        W83965   5.325  26.634  12.350
11541W        W83966   8.823  11.405  10.942
11542W        W83967  40.429   1.926   4.120
11543W        W83968   1.856  26.423  12.048
11544W        W83969  27.747  31.360   2.191
11545W        W83970  34.653  34.076   0.295
11546W        W83971  30.428  11.371   1.413
11547W        W83972  21.244   6.463  14.342
11548W        W83973  41.851  13.381  13.035
11549W        W83974  24.719  32.460  11.842
11550W        W83975   0.962  24.501  13.766
11551W        W83976   7.838   7.424  11.517
11552W        W83977   5.760  21.585  10.879
11553W        W83978   8.746  27.638   2.500
11554W        W83979   4.330  30.410  14.504
11555W        W83980  20.435  31.047  12.420
11556W        W83981  39.083   9.119   0.736
11557W        W83982  38.568  15.044   4.067
11558W        W83983  30.083   4.282   4.729
11559W        W83984  40.279  27.532  13.924
11560W        W83985  43.319  34.561   0.912
11561W        W83986  15.710   3.296   1.935
11562W        W83987  26.270  14.237   1.222
11563W        W83988  25.685  39.478  13.461
11564W        W83989  29.649  38.585  10.197
11565W        W83990  16.551  40.367  14.963
11566W        W83991  34.911  44.517  11.556
11567W        W83992  43.370  11.873  13.218
11568W        W83993  24.245  36.505  12.065
11569W        W83994  34.511  21.238   0.482
11570W        W83995  18.690   1.430  14.979
11571W        W83996  26.177  17.389  11.904
11572W        W83997  17.198   1.999  13.299
11573W        W83998  15.789   5.962   1.218
11574W        W83999  16.218  29.168   1.755
11575W        W84000  29.286  13.752  14.732
11576W        W84001  17.118   4.439  13.601
11577W        W84002  26.896  42.278  11.035
11578W        W84003   2.914  43.605  14.403
11579W        W84004   7.848  14.591   2.935
11580W        W84005  16.791  27.882  14.907
11581W        W84006  23.978   5.291  11.542
11582W        W84007   5.305  27.414   4.113
11583W        W84008   4.732  42.417  12.110
11584W        W84009   3.687  24.930   1.404
11585W        W84010  31.387  19.122  12.053
11586W        W84011  12.149  25.255  14.337
11587W        W84012  33.271  32.799   2.718
11588W        W84013  42.593  11.352   0.794
11589W        W84014  25.722   7.316   0.925
11590W        W84015  37.575  32.688  12.888
11591W        W84016  42.836  11.197  14.463
11592W        W84017  30.440   9.693  14.890
11593W        W84018   8.054  40.875   4.896
11594W        W84019  21.784   6.767   1.791
11595W        W84020  23.178  33.680   1.328
11596W        W84021  17.698  25.167   0.478
11597W        W84022  28.317  11.559  13.917
11598W        W84023  35.899  14.246   2.610
11599W        W84024  14.414  11.423   4.669
11600W        W84025  43.920  11.407  13.985
11601W        W84026  38.691   0.241   0.841
11602W        W84027  13.680  38.921   0.731
11603W        W84028  12.453  29.696   3.780
11604W        W84029  33.853   2.789   1.829
11605W        W84030   7.232   1.567   3.300
11606W        W84031  41.454  43.070  10.569
11607W        W84032  17.496  38.657   0.361
11608W        W84033   5.358   4.286  13.271
11609W        W84034  20.973  28.453   3.752
11610W        W84035   0.495  35.993   0.025
11611W        W84036   5.231  25.516   1.856
11612W        W84037  18.737  36.133  10.535
11613W        W84038  18.049  33.655  10.691
11614W        W84039  16.673  27.492  10.687
11615W        W84040  29.550  26.904  14.793
11616W        W84041  17.718  29.514   2.216
11617W        W84042  10.336  22.372   4.747
11618W        W84043  23.170  24.647  13.931
11619W        W84044  41.298  18.546  13.016
11620W        W84045   2.784   0.479  10.708
11621W        W84046  27.972   5.750   4.520
11622W        W84047   2.264  16.810  12.891
11623W        W84048  36.287  42.384   3.591
11624W        W84049  35.075  41.418   5.017
11625W        W84050  34.369  36.159  13.480
11626W        W84051  29.197   4.456  12.951
11627W        W84052  19.645  14.260  11.945
11628W        W84053  30.122  37.132   0.474
11629W        W84054  31.849   8.634  11.551
11630W        W84055  35.075  16.583   3.198
11631W        W84056  31.396  33.162  10.817
11632W        W84057  16.554  30.696  10.937
11633W        W84058  37.640  40.668  12.967
11634W        W84059  29.285   5.384   4.452
11635W        W84060  18.884   1.927   2.788
11636W        W84061   3.162  11.116   0.981
11637W        W84062  20.942   6.211   3.291
11638W        W84063  35.925  39.161   4.210
11639W        W84064  12.894   5.934  11.107
11640W        W84065   5.814  38.496  12.312
11641W        W84066  21.004  25.137  14.017
11642W        W84067  25.847  41.012   1.223
11643W        W84068  33.366   1.285  11.494
11644W        W84069  42.733  30.172  11.413
11645W        W84070  23.999   7.172  14.375
11646W        W84071  24.678  21.479   3.708
11647W        W84072   8.700  14.589   0.242
11648W        W84073  33.582  35.085   2.814
11649W        W84074   7.535   1.855   9.816
11650W        W84075  37.951  24.161  14.498
11651W        W84076  24.539  16.306  13.499
11652W        W84077   7.823  18.999   3.910
11653W        W84078   5.766  37.265  14.203
11654W        W84079  14.803  24.275   1.955
11655W        W84080  10.380  38.774  14.328
11656W        W84081  22.573  41.239   0.957
11657W        W84082  30.994  31.114   3.925
11658W        W84083   7.242  44.783   0.297
11659W        W84084   1.924   4.304   0.953
11660W        W84085  39.619  25.478   3.720
11661W        W84086   1.250  44.303   2.298
11662W        W84087   2.408   4.839   0.252
11663W        W84088  27.154  43.147  10.717
11664W        W84089  27.741  38.036  14.262
11665W        W84090  25.610  25.527  13.968
11666W        W84091  27.498  44.692  12.113
11667W        W84092  37.062  41.822   3.281
11668W        W84093   0.585  26.232   3.121
11669W        W84094  15.399   9.290  13.380
11670W        W84095   6.139  41.587  14.293
11671W        W84096  40.405  25.553   1.443
11672W        W84097   7.791  14.188   0.951
11673W        W84098  16.725   6.885   4.237
11674W        W84099  10.450  18.614  11.566
11675W        W84100   8.755  38.667  12.521
11676W        W84101   9.350   0.958   3.692
11677W        W84102  26.102  28.964   0.435
11678W        W84103  10.576   9.372   0.099
11679W        W84104  35.886   9.705  12.127
11680W        W84105  24.589  17.755   0.478
11681W        W84106  17.547   3.416  14.284
11682W        W84107   9.312   2.387  13.212
11683W        W84108  13.634  19.282   2.875
11684W        W84109  14.560  12.497   4.973
11685W        W84110  19.841  13.014   5.196
11686W        W84111  25.031  34.923  11.686
11687W        W84112  24.038  37.464   2.195
11688W        W84113  13.671  38.513  10.268
11689W        W84114  14.814   8.623   3.378
11690W        W84115  34.814  31.622  13.033
11691W        W84116   4.879  19.339  10.516
11692W        W84117  35.491  44.084  13.358
11693W        W84118  19.676  25.923  13.414
11694W        W84119   9.303  25.044  10.726
11695W        W84120  18.958  36.892  10.935
11696W        W84121  30.583  14.272  14.688
11697W        W84122  44.635   3.048   2.244
11698W        W84123  12.632   6.508   2.125
11699W        W84124  12.145   6.323  10.957
11700W        W84125  11.627   2.767  10.481
11701W        W84126  27.988  39.085   0.254
11702W        W84127   6.338   8.947  13.860
11703W        W84128   1.258   3.325  14.402
11704W        W84129  21.232  22.234   0.302
11705W        W84130  29.661  28.437   1.756
11706W        W84131  11.592  31.492  13.841
11707W        W84132  28.511  21.951  13.387
11708W        W84133  42.094  25.519  13.038
11709W        W84134  26.131  27.418   2.825
11710W        W84135   8.789   9.161   3.100
11711W        W84136  29.173   9.583  12.923
11712W        W84137  43.545  21.796  12.609
11713W        W84138  11.152  26.733   3.392
11714W        W84139  37.309  30.587   1.417
11715W        W84140  19.300  17.867   2.190
11716W        W84141  28.494  35.060  14.173
11717W        W84142   4.761  44.960   4.844
11718W        W84143  38.936  20.038  14.104
11719W        W84144  42.334  26.425  14.774
11720W        W84145   6.458  19.152   3.397
11721W        W84146  25.762   1.020   1.684
11722W        W84147  28.358  17.010   1.436
11723W        W84148  37.375  41.255   1.026
11724W        W84149  44.403  37.985   1.718
11725W        W84150   6.820   3.536  11.586
11726W        W84151  21.380  12.671   0.786
11727W        W84152  15.912  15.264   1.289
11728W        W84153  25.589   9.841  13.796
11729W        W84154   8.883  38.870   4.049
11730W        W84155   2.669   8.332   3.215
11731W        W84156  28.692  16.069   0.451
11732W        W84157  21.744  34.097   3.648
11733W        W84158  11.237  22.151  10.214
11734W        W84159   1.831   8.951  11.229
11735W        W84160  38.805   8.242   4.646
11736W        W84161  14.159   0.251   1.827
11737W        W84162  11.195  13.738   0.709
11738W        W84163   0.824  30.996   3.430
11739W        W84164  24.199   1.320  12.903
11740W        W84165  36.525   6.666  13.468
11741W        W84166   0.453   9.817  10.455
11742W        W84167   1.481  14.779   1.958
11743W        W84168  41.844  37.851   3.190
11744W        W84169  27.497   3.012   2.858
11745W        W84170  10.361  17.807  11.977
11746W        W84171  25.687  32.491  11.575
11747W        W84172  19.864  26.018   4.225
11748W        W84173  26.194  41.548  11.966
11749W        W84174   5.805  14.608   0.272
11750W        W84175  35.814  10.910  13.943
11751W        W84176  19.486  30.194  12.966
11752W        W84177  34.438  37.379   0.002
11753W        W84178   2.231  13.146  10.732
11754W        W84179  18.222  32.936   5.705
11755W        W84180  22.391  20.477   0.074
11756W        W84181  18.181  32.065   9.894
11757W        W84182   3.611  33.083  10.225
11758W        W84183  42.066  16.585   0.277
11759W        W84184  14.417  21.537  13.888
11760W        W84185  37.860  33.124   4.028
11761W        W84186   7.657  35.835   0.600
11762W        W84187  36.840   4.824  14.502
11763W        W84188  16.025  33.546  12.889
11764W        W84189  41.837   4.754   0.785
11765W        W84190  34.685  35.215  12.160
11766W        W84191  29.825  36.429   2.826
11767W        W84192  38.977  38.876   3.382
11768W        W84193  27.195   6.977   1.384
11769W        W84194  25.480  31.552   3.130
11770W        W84195   3.848   4.328   1.174
11771W        W84196  25.166   1.238   0.738
11772W        W84197  10.238  35.888   2.723
11773W        W84198   2.377  10.060  13.485
11774W        W84199  42.720  25.086  11.088
11775W        W84200  30.490   9.711  10.407
11776W        W84201  34.766  25.033   0.215
11777W        W84202   8.716  28.616   1.845
11778W        W84203  30.043  21.107  11.273
11779W        W84204  15.585  24.893   1.927
11780W        W84205  30.162   0.827   3.283
11781W        W84206  34.427  37.036  13.748
11782W        W84207  18.304   7.371  13.964
11783W        W84208  17.156  26.263  12.534
11784W        W84209  36.405  10.180  12.428
11785W        W84210   2.209  20.753  14.531
11786W        W84211  13.800  36.412  10.875
11787W        W84212   1.961  24.447   3.765
11788W        W84213   5.151  23.689   3.381
11789W        W84214  10.857  15.623  11.348
11790W        W84215  19.500   2.763   1.840
11791W        W84216  15.689  13.791  12.418
11792W        W84217  44.906  30.484  13.883
11793W        W84218  20.402  21.512  12.839
11794W        W84219   5.611  14.190   1.267
11795W        W84220   6.319  20.302   2.913
11796W        W84221  25.976  36.927   2.843
11797W        W84222  17.228  41.729  13.403
11798W        W84223  41.956   9.741   1.259
11799W        W84224  40.777  28.047   1.816
11800W        W84225  38.418  22.998  11.134
11801W        W84226   6.810  18.071   3.690
11802W        W84227  33.969   6.672  14.998
11803W        W84228  22.148  22.916  11.587
11804W        W84229  31.623  38.267  14.461
11805W        W84230  33.612  30.634   9.987
11806W        W84231  26.490  16.601  11.183
11807W        W84232  28.329  26.148  11.521
11808W        W84233  34.088  17.289  13.783
11809W        W84234  27.512  37.408   0.898
11810W        W84235   0.299  41.709  12.497
11811W        W84236  32.572  18.331  11.106
11812W        W84237  35.772  23.549  13.484
11813W        W84238   6.603  14.798  10.980
11814W        W84239  30.531  24.181  14.295
11815W        W84240  33.780  40.193  11.527
11816W        W84241  15.387  38.228   0.644
11817W        W84242  21.437   4.590  13.289
11818W        W84243   3.993  40.450  10.812
11819W        W84244  16.054   0.551   0.816
11820W        W84245  32.550  15.143   3.525
11821W        W84246  13.390   2.554   1.262
11822W        W84247  21.094   1.767  12.479
11823W        W84248   5.952  34.176  12.209
11824W        W84249  44.866  18.632   1.218
11825W        W84250  19.053  10.692   0.272
11826W        W84251  35.560   6.914   3.202
11827W        W84252  36.500  17.893   0.330
11828W        W84253  16.091   1.982   0.293
11829W        W84254  13.643  15.751  12.365
11830W        W84255  18.356  44.381  12.385
11831W        W84256   5.219  32.585   2.172
11832W        W84257  35.005   7.668   1.291
11833W        W84258  35.624  33.671  11.667
11834W        W84259  41.770  13.753   1.817
11835W        W84260  31.895  11.745  14.065
11836W        W84261   3.399  43.708   1.853
11837W        W84262  44.378  23.703  13.544
11838W        W84263  21.515  21.994   1.969
11839W        W84264  29.372  12.254   0.551
11840W        W84265  25.219   2.722   1.267
11841W        W84266  35.404  42.008   0.943
11842W        W84267  18.715  15.393  13.079
11843W        W84268  11.380  30.021  12.473
11844W        W84269   3.548   4.797  10.503
11845W        W84270   5.519  15.034   0.337
11846W        W84271  35.381  15.570  14.050
11847W        W84272   9.272  29.907   2.295
11848W        W84273  14.163  38.708  10.165
11849W        W84274  25.622   4.179   0.779
11850W        W84275  19.259  20.046   1.688
11851W        W84276  20.707   7.750   4.895
11852W        W84277   4.444   7.863  12.476
11853W        W84278  24.909   2.478   3.820
11854W        W84279  11.378   4.711   2.312
11855W        W84280  30.172   5.685   3.638
11856W        W84281  18.506  11.844  11.205
11857W        W84282  23.205  12.142  12.994
11858W        W84283  41.135  38.478  13.061
11859W        W84284  33.382  17.603  12.056
11860W        W84285  13.059   6.761   3.666
11861W        W84286  18.925   7.255   5.086
11862W        W84287  36.227  34.457  14.280
11863W        W84288  13.285  32.784  10.425
11864W        W84289  21.583  22.474   2.274
11865W        W84290   2.964  22.503  13.563
11866W        W84291  39.582  39.841   1.331
11867W        W84292   9.761  12.806  13.762
11868W        W84293  43.005  37.098  14.348
11869W        W84294   4.845  42.791  14.835
11870W        W84295  10.839   3.111   3.374
11871W        W84296  26.451   4.362  10.380
11872W        W84297   5.421   7.355  14.981
11873W        W84298  24.740  40.005  11.552
11874W        W84299  33.189  15.033  13.320
11875W        W84300  32.094   3.326   3.755
11876W        W84301  30.916  23.178   2.315
11877W        W84302  24.025   2.690  13.050
11878W        W84303  12.774  30.871   2.027
11879W        W84304  24.098  37.403   1.671
11880W        W84305  16.056  30.407  13.797
11881W        W84306  22.007  17.718   2.715
11882W        W84307  20.329  24.049  14.803
11883W        W84308  41.049  32.445   0.694
11884W        W84309   0.716   7.241   4.381
11885W        W84310  42.733  34.778   3.304
11886W        W84311  39.708   8.122   1.502
11887W        W84312  25.996  40.445   3.761
11888W        W84313  12.971  31.654   1.868
11889W        W84314  44.628   1.327  11.181
11890W        W84315  19.166  29.574   2.941
11891W        W84316  26.892  16.760   3.521
11892W        W84317  18.503  22.522   2.737
11893W        W84318  18.830  11.570  12.921
11894W        W84319  33.057  27.112  12.514
11895W        W84320  16.507  37.748   2.340
11896W        W84321  17.584   3.240   0.013
11897W        W84322  44.845  16.121  13.699
11898W        W84323  35.572  33.942   2.928
11899W        W84324  33.442   1.000  14.024
11900W        W84325  13.108  23.225   3.858
11901W        W84326   5.936  15.322   1.950
11902W        W84327   2.967   3.944  14.459
11903W        W84328  33.450  40.963  11.684
11904W        W84329  19.264  25.199   4.215
11905W        W84330  42.559   9.742   2.993
11906W        W84331  21.159  21.977   0.746
11907W        W84332   7.471   6.235   3.662
11908W        W84333   9.843  21.616  14.953
11909W        W84334  14.706   5.781   1.203
11910W        W84335  25.041  17.028  11.384
11911W        W84336   5.207  36.506   4.047
11912W        W84337  35.543  33.366   1.677
11913W        W84338   5.188  35.856  13.961
11914W        W84339  41.516  24.452   1.692
11915W        W84340  14.138  14.251  14.982
11916W        W84341  42.785  20.665  14.037
11917W        W84342  39.590  35.052  12.874
11918W        W84343  43.276  16.764  13.195
11919W        W84344  21.775   6.198  14.268
11920W        W84345  38.034  30.797   1.788
11921W        W84346  35.506   2.606   1.326
11922W        W84347  44.501  20.135  13.080
11923W        W84348  10.587  33.105  12.715
11924W        W84349  23.693  13.881  11.472
11925W        W84350   3.914  24.625   3.657
11926W        W84351   7.745   8.289   4.295
11927W        W84352  38.861  11.766  11.150
11928W        W84353   8.281  15.629   2.883
11929W        W84354   5.770  27.134   2.515
11930W        W84355  16.815   2.667  14.883
11931W        W84356  33.668   3.962   4.409
11932W        W84357  38.256  44.460   1.780
11933W        W84358   6.096   4.398  11.029
11934W        W84359  31.331   2.203  11.705
11935W        W84360   3.902  40.610  11.648
11936W        W84361  18.287  37.944   4.886
11937W        W84362  16.362  42.309  10.937
11938W        W84363  19.234  13.798  11.208
11939W        W84364  24.581  38.970   3.872
11940W        W84365  36.493   4.036  11.571
11941W        W84366   2.703  42.198   1.476
11942W        W84367  41.332  31.136   0.224
11943W        W84368  15.778  17.960  12.413
11944W        W84369  10.269   4.271   2.138
11945W        W84370  33.751   4.170  12.358
11946W        W84371   3.023   4.817  14.125
11947W        W84372   9.567  30.744  13.593
11948W        W84373   0.982  27.030  11.850
11949W        W84374  44.158  20.754  10.195
11950W        W84375  20.439  22.043   4.833
11951W        W84376  19.030  43.478   3.249
11952W        W84377  34.971  10.082  12.383
11953W        W84378  38.401  41.999   1.757
11954W        W84379  24.090   3.866  10.480
11955W        W84380  38.023  28.878   2.637
11956W        W84381  41.953  34.134  14.031
11957W        W84382  43.794  13.195   2.208
11958W        W84383  25.760  32.652   0.423
11959W        W84384  34.132  41.277   4.634
11960W        W84385  32.637  44.144  14.553
11961W        W84386  25.106  40.279  14.704
11962W        W84387  19.589  29.453  12.558
11963W        W84388  44.855  11.898  14.481
11964W        W84389  43.912  25.393  14.972
11965W        W84390   4.833  40.018  11.024
11966W        W84391  42.488  36.031   1.702
11967W        W84392  17.030  33.645   1.881
11968W        W84393   0.252  40.616  11.132
11969W        W84394  22.841  39.504   1.756
11970W        W84395  15.845   7.908   1.527
11971W        W84396  42.257  44.729  14.346
11972W        W84397  32.847  24.216  13.638
11973W        W84398  44.315  21.091  14.304
11974W        W84399   0.405   1.223  12.547
11975W        W84400   2.006  25.793  12.752
11976W        W84401  10.369   2.470   2.064
11977W        W84402  24.512  39.456  12.623
11978W        W84403  11.107  44.037   2.310
11979W        W84404  38.665  25.248   3.393
11980W        W84405  21.744   8.615   0.874
11981W        W84406  20.542  25.742  13.358
11982W        W84407  37.047  20.247   1.880
11983W        W84408  43.912  38.816  14.441
11984W        W84409  43.892  32.047   2.666
11985W        W84410  33.849  14.377   0.635
11986W        W84411   1.499   6.183   0.528
11987W        W84412  38.985  17.315  11.914
11988W        W84413   5.116  15.992   1.168
11989W        W84414  28.690  22.576  11.941
11990W        W84415  43.583  39.961   1.847
11991W        W84416  30.012  23.826   1.397
11992W        W84417  43.265   8.951   0.412
11993W        W84418  19.419   2.225   0.292
11994W        W84419  21.022  42.323  12.490
11995W        W84420  24.640  21.726  12.672
11996W        W84421  13.763  10.177  12.496
11997W        W84422  32.219  38.946  13.667
11998W        W84423  42.936  42.442   3.677
11999W        W84424  32.963  28.952  11.929
12000W        W84425   2.964  18.622   2.328
12001W        W84426  10.134   8.845   1.962
12002W        W84427  19.661  23.774  11.883
12003W        W84428  41.908  24.001   2.248
12004W        W84429  17.743  18.218   3.207
12005W        W84430  38.450  22.183   2.763
12006W        W84431  10.765  43.315  11.366
12007W        W84432  10.211  25.633   2.310
12008W        W84433  28.806  14.736  13.749
12009W        W84434  38.320  15.230  13.229
12010W        W84435  39.186   3.774   0.826
12011W        W84436  34.395  22.104   2.721
12012W        W84437  44.218  32.308  12.379
12013W        W84438  12.296  35.599   0.695
12014W        W84439  12.607  34.661   3.573
12015W        W84440  27.069   1.388   4.967
12016W        W84441  27.335   8.101  11.879
12017W        W84442   8.263  39.292  12.930
12018W        W84443  33.185   0.345   1.320
12019W        W84444  35.409  29.082   4.050
12020W        W84445  10.349  40.870  14.850
12021W        W84446  37.625  15.830   2.745
12022W        W84447  44.816  11.210  11.128
12023W        W84448  44.469  18.186  10.533
12024W        W84449  39.839  31.180   4.879
12025W        W84450  13.887  17.591   4.131
12026W        W84451  31.974  37.376  13.570
12027W        W84452  42.880   7.214   4.776
12028W        W84453  25.478  39.449   3.579
12029W        W84454   7.679   0.406   1.295
12030W        W84455  17.247  38.172  11.498
12031W        W84456  16.848  18.106   0.965
12032W        W84457  24.734  38.664  13.872
12033W        W84458  33.388  37.943   3.887
12034W        W84459  43.584  33.552  13.277
12035W        W84460  10.815  38.441   1.362
12036W        W84461  40.890  25.150   3.641
12037W        W84462  43.390  22.891  11.666
12038W        W84463  31.376  18.888  10.644
12039W        W84464  11.380  44.443   3.592
12040W        W84465   4.847  19.581   1.220
12041W        W84466  26.464  32.427   4.569
12042W        W84467  15.661  41.386   1.328
12043W        W84468   0.939  17.977   0.401
12044W        W84469  29.203  27.503   0.052
12045W        W84470  19.719  28.762   0.262
12046W        W84471  15.868  43.322  13.887
12047W        W84472   6.858  23.419   4.114
12048W        W84473  10.716  26.444   3.337
12049W        W84474  36.396  11.153   3.619
12050W        W84475  35.448  34.913   4.371
12051W        W84476  34.362   4.227   1.520
12052W        W84477   4.535  16.171  13.098
12053W        W84478  27.827  14.881  14.023
12054W        W84479  10.309   8.284  11.141
12055W        W84480  19.460   7.676   2.287
12056W        W84481   1.638   1.289  13.972
12057W        W84482  37.869  18.536  12.571
12058W        W84483  12.237  27.224   3.097
12059W        W84484   1.651  22.191  12.023
12060W        W84485  12.276  24.291  10.593
12061W        W84486  39.764  43.834   2.851
12062W        W84487   5.291  17.615   2.737
12063W        W84488  27.592  18.116  14.805
12064W        W84489  44.764  37.942  12.514
12065W        W84490  35.006   7.334  13.990
12066W        W84491   9.176  13.826  13.874
12067W        W84492  15.654  23.737   2.260
12068W        W84493  29.235  31.097   2.373
12069W        W84494  22.056  38.336  10.292
12070W        W84495   6.462  21.090  13.020
12071W        W84496   2.425  37.939  14.881
12072W        W84497  25.915  35.572   4.635
12073W        W84498  32.860   4.957   0.685
12074W        W84499  28.018  43.367  12.514
12075W        W84500  27.500  12.889  14.772
12076W        W84501  25.644  35.951   0.768
12077W        W84502  29.439  24.038  12.862
12078W        W84503  13.017   3.775  12.627
12079W        W84504   8.165  23.532  13.516
12080W        W84505  22.473  33.161   2.762
12081W        W84506   4.371  22.049  12.866
12082W        W84507  11.054  32.618  13.645
12083W        W84508  32.007  10.373  14.344
12084W        W84509   5.679  13.430   3.438
12085W        W84510  30.041   7.643   2.823
12086W        W84511  30.070  40.789  11.985
12087W        W84512  33.605  17.540  10.030
12088W        W84513  38.612  43.556   4.044
12089W        W84514  32.458  42.354  12.990
12090W        W84515  40.386   6.204  12.545
12091W        W84516  27.628  17.385  14.475
12092W        W84517  10.173   4.766  11.498
12093W        W84518  31.388  28.873  14.897
12094W        W84519  20.064  33.485  11.394
12095W        W84520   5.905  26.725  12.495
12096W        W84521  33.066   7.197   0.992
12097W        W84522   9.104   3.151   3.612
12098W        W84523  39.010  38.426   3.631
12099W        W84524   2.360   6.967  11.079
12100W        W84525  13.499  39.904  11.234
12101W        W84526   3.987  15.325   4.653
12102W        W84527  41.876  26.721   1.888
12103W        W84528  16.308   8.367  11.145
12104W        W84529  39.770   3.405   3.641
12105W        W84530   7.417  12.120  13.968
12106W        W84531   5.169   4.439   0.626
12107W        W84532  34.518  12.097  13.054
12108W        W84533  37.325   1.965  12.392
12109W        W84534  33.380  10.344   4.869
12110W        W84535  32.464   6.200   2.536
12111W        W84536  30.630  33.836   2.159
12112W        W84537  29.669  17.486  11.545
12113W        W84538   7.666   4.433   0.050
12114W        W84539  44.419  40.049   2.975
12115W        W84540  10.745  20.057   2.077
12116W        W84541  27.686  12.306   1.898
12117W        W84542   7.422  27.265   2.791
12118W        W84543  24.737  41.830   0.514
12119W        W84544  39.852  38.916  14.195
12120W        W84545  29.457  36.568   3.430
12121W        W84546  37.915   7.585  11.653
12122W        W84547  17.112  35.393   4.229
12123W        W84548  12.144  25.056  12.470
12124W        W84549  40.276  11.169  13.899
12125W        W84550  12.156  43.001  11.575
12126W        W84551   9.729  30.228   3.208
12127W        W84552  22.487  44.060  13.753
12128W        W84553  35.483   3.610   3.792
12129W        W84554   5.641  32.593  14.824
12130W        W84555  21.081   9.723  12.998
12131W        W84556  35.401  23.073   4.604
12132W        W84557  10.234   3.435   1.235
12133W        W84558   3.519  33.695   3.295
12134W        W84559  14.029  16.621   0.676
12135W        W84560  39.127  35.489   3.212
12136W        W84561  12.287  20.266   4.518
12137W        W84562  38.496  35.631   4.080
12138W        W84563   6.383   3.712  10.624
12139W        W84564  35.168  32.035   0.772
12140W        W84565  33.661  18.459  12.069
12141W        W84566  24.509  27.704   1.842
12142W        W84567  27.754   3.425  14.459
12143W        W84568  30.994  38.583  12.892
12144W        W84569   2.895  14.940  12.189
12145W        W84570  33.877  10.506  13.545
12146W        W84571  39.282   7.318  14.986
12147W        W84572  10.849  15.712  13.011
12148W        W84573  21.068  17.641  10.507
12149W        W84574  40.049  34.374   4.500
12150W        W84575  15.588   6.968   2.564
12151W        W84576  14.821  30.214   2.259
12152W        W84577  42.782   6.224   3.330
12153W        W84578  21.155  24.934  11.806
12154W        W84579  16.803   5.691   2.086
12155W        W84580  11.723  13.772   3.286
12156W        W84581  27.962  34.176   2.253
12157W        W84582  39.422  41.840   3.306
12158W        W84583  44.841  14.267  11.934
12159W        W84584  11.451  41.781   1.812
12160W        W84585   5.421  17.673  13.587
12161W        W84586   8.774  35.328  10.773
12162W        W84587  32.707   4.600  11.086
12163W        W84588  28.017  25.200  12.451
12164W        W84589  25.118  30.173  11.992
12165W        W84590  15.758   0.519   4.392
12166W        W84591  11.259  24.635   4.249
12167W        W84592  22.354   7.933  13.404
12168W        W84593  13.394  32.603   4.708
12169W        W84594   9.933  29.541  14.857
12170W        W84595  44.932  31.642  11.678
12171W        W84596   3.925  10.927   3.740
12172W        W84597   2.345  41.850  10.697
12173W        W84598   9.666  26.625  11.592
12174W        W84599  32.505  27.810  12.085
12175W        W84600  32.867  39.989   4.078
12176W        W84601  44.847   7.058   1.714
12177W        W84602  38.854   0.426   2.471
12178W        W84603  44.525  35.607   3.086
12179W        W84604  22.457  22.634   3.225
12180W        W84605  11.148  10.937  13.117
12181W        W84606  17.565  37.649   0.348
12182W        W84607  33.098  22.380  14.299
12183W        W84608   3.446  10.808  14.244
12184W        W84609  13.647   7.683  14.563
12185W        W84610  44.128  24.875  11.099
12186W        W84611  28.060  27.067  13.928
12187W        W84612   7.831   1.793   0.952
12188W        W84613   1.682  14.525   4.198
12189W        W84614  12.663  33.845   3.836
12190W        W84615  31.738  39.438  12.416
12191W        W84616  41.846  25.421   4.568
12192W        W84617  38.482   5.514   2.848
12193W        W84618  30.325  16.079  11.685
12194W        W84619  15.432   2.112   5.579
12195W        W84620  21.981  22.488   4.568
12196W        W84621  32.924  12.286   0.246
12197W        W84622  25.878  19.695  14.318
12198W        W84623  32.129  12.681   0.443
12199W        W84624  33.555  28.984   3.251
12200W        W84625  36.704   3.479  14.821
12201W        W84626   7.963  42.511  12.063
12202W        W84627  35.909  11.020   3.805
12203W        W84628   0.688   2.433   3.712
12204W        W84629  24.678  11.210  14.879
12205W        W84630   4.228  20.600  12.861
12206W        W84631  15.728  35.488   4.093
12207W        W84632   4.669  34.451  12.431
12208W        W84633   0.738  43.980  13.977
12209W        W84634   2.277  10.099   4.450
12210W        W84635  24.926   1.502   3.405
12211W        W84636  27.642  31.052   3.139
12212W        W84637  12.804  24.075   4.228
12213W        W84638  21.581   5.096   4.130
12214W        W84639  34.911  26.958   5.077
12215W        W84640  43.096  32.856  13.862
12216W        W84641  14.658  32.117   2.322
12217W        W84642  26.962   9.576   0.014
12218W        W84643  36.827   1.289  14.979
12219W        W84644   9.579  34.486   0.925
12220W        W84645   4.858  40.333   4.000
12221W        W84646  43.170   5.752  10.195
12222W        W84647  19.026  32.611  11.550
12223W        W84648  12.097  11.418   1.367
12224W        W84649  33.148   6.708   1.536
12225W        W84650  31.091  32.173  13.145
12226W        W84651  44.311  30.249  14.599
12227W        W84652  10.811   3.690   0.591
12228W        W84653  18.245  19.785  10.650
12229W        W84654  23.459  21.728   1.246
12230W        W84655  33.504   5.854   1.527
12231W        W84656  44.489  26.419  14.683
12232W        W84657  40.111  23.502  12.199
12233W        W84658  18.823  11.117   0.531
12234W        W84659  29.832   1.683  12.614
12235W        W84660  14.719  34.613   0.266
12236W        W84661   7.145  27.179   0.454
12237W        W84662  10.239  23.715  13.498
12238W        W84663  15.830  39.802  13.880
12239W        W84664  17.168  20.605  12.049
12240W        W84665  16.069  24.776   2.172
12241W        W84666  34.392   7.044   4.602
12242W        W84667  26.442   8.091   3.759
12243W        W84668  14.489  34.932   4.380
12244W        W84669  11.357  44.001   4.144
12245W        W84670  29.717  26.025   4.588
12246W        W84671  41.799   0.827  11.584
12247W        W84672  33.586  25.616  11.466
12248W        W84673  12.732   2.771  12.592
12249W        W84674  32.121  22.986  11.686
12250W        W84675   5.396  32.313   0.213
12251W        W84676  12.847  24.132   0.214
12252W        W84677  34.672  27.530   2.240
12253W        W84678  16.082  33.573  11.937
12254W        W84679  24.497  28.021   0.305
12255W        W84680  42.541  36.636   0.869
12256W        W84681  12.930  36.425  14.200
12257W        W84682  35.697  44.739  14.353
12258W        W84683  14.457  27.930   3.884
12259W        W84684  20.699  19.142   1.672
12260W        W84685   6.162   9.813  12.003
12261W        W84686  43.307  33.992  13.293
12262W        W84687   0.747  23.641  13.945
12263W        W84688  11.694   9.248   2.223
12264W        W84689  26.804  17.743   2.172
12265W        W84690  38.029  20.677   3.809
12266W        W84691  38.126  44.903  10.499
12267W        W84692  25.214  36.436   2.409
12268W        W84693  21.385  38.610  13.895
12269W        W84694  37.945  38.822  11.600
12270W        W84695  14.706  12.153   0.742
12271W        W84696   9.166  41.028  11.563
12272W        W84697  24.186  35.719  10.280
12273W        W84698  17.219  43.086  14.799
12274W        W84699  42.747  20.677   2.248
12275W        W84700  21.929  19.940   2.681
12276W        W84701  40.772  27.090  14.781
12277W        W84702  21.774  15.391   5.047
12278W        W84703  29.717   4.882   0.579
12279W        W84704  16.167  24.554   3.531
12280W        W84705  13.858  14.616   1.794
12281W        W84706  24.687  27.674   1.322
12282W        W84707  18.597   3.797   4.698
12283W        W84708  40.773  22.995   3.194
12284W        W84709  38.444   6.167   4.174
12285W        W84710  19.221  39.313  13.750
12286W        W84711  13.846   8.858   4.135
12287W        W84712  28.281  15.342  12.048
12288W        W84713  23.612  23.990   1.887
12289W        W84714  14.550  43.768  11.905
12290W        W84715  34.861  18.667  14.826
12291W        W84716  37.229  31.711  15.000
12292W        W84717  28.925   4.700   2.716
12293W        W84718  12.404   1.380  11.613
12294W        W84719  11.701  21.614   5.633
12295W        W84720  12.690  28.676   2.833
12296W        W84721  42.835  26.563  13.617
12297W        W84722   6.662  34.501   0.263
12298W        W84723  42.078  18.560   2.861
12299W        W84724   0.384  12.621  13.518
12300W        W84725  42.844  18.503  11.456
12301W        W84726  28.516  20.512  14.583
12302W        W84727   4.398  31.719  11.343
12303W        W84728  17.842  15.245  13.302
12304W        W84729  33.705   5.381   0.891
12305W        W84730  10.194  36.288  13.801
12306W        W84731  44.739  40.569  11.489
12307W        W84732   7.814  43.619  14.572
12308W        W84733  43.076  41.581   4.147
12309W        W84734  19.100  31.996   2.467
12310W        W84735  31.250  33.591   0.331
12311W        W84736  26.591  19.416   3.409
12312W        W84737   5.674  10.951  10.648
12313W        W84738  35.851   7.059   4.852
12314W        W84739  37.571  39.555   3.164
12315W        W84740  21.601   1.116  12.181
12316W        W84741  22.453   5.791  11.161
12317W        W84742  25.142  16.635   0.370
12318W        W84743  15.008   2.674   9.599
12319W        W84744  12.855   7.491  14.879
12320W        W84745  22.709  17.608  13.441
12321W        W84746  31.336  42.831  14.583
12322W        W84747  22.218   4.702  12.149
12323W        W84748  14.698   4.467   1.353
12324W        W84749  19.219  18.373  14.327
12325W        W84750  14.095  15.581   5.128
12326W        W84751  11.302  26.513   2.497
12327W        W84752  31.993  18.299  13.814
12328W        W84753  30.481  29.049   2.364
12329W        W84754   5.031  35.975   2.028
12330W        W84755   4.220  44.351  13.798
12331W        W84756  39.930  11.487   0.479
12332W        W84757  43.223  42.845  14.736
12333W        W84758  24.423  33.774  14.372
12334W        W84759  26.961  38.978   4.046
12335W        W84760  34.167  34.364  12.493
12336W        W84761  42.208  16.816   0.954
12337W        W84762  11.814  22.657   1.257
12338W        W84763  24.214  19.953   4.819
12339W        W84764  38.621  43.442  11.772
12340W        W84765  38.131  32.035  12.037
12341W        W84766  11.800   8.901  11.533
12342W        W84767   6.504  10.937  14.949
12343W        W84768  15.540  36.928  13.965
12344W        W84769  32.006  23.772   0.924
12345W        W84770   7.300  36.452   4.132
12346W        W84771   1.386   9.831   1.776
12347W        W84772  16.647  31.191  14.325
12348W        W84773   8.952   1.297  11.492
12349W        W84774  29.026  22.815   4.310
12350W        W84775  15.874  29.651  13.859
12351W        W84776  37.621  32.991   1.337
12352W        W84777  14.403  25.484   4.228
12353W        W84778  23.284  20.890   4.197
12354W        W84779   9.714   0.763   1.421
12355W        W84780  12.931  23.472  12.815
12356W        W84781  43.804   6.310   1.442
12357W        W84782  22.515  19.460  10.830
12358W        W84783  29.633  20.678   3.651
12359W        W84784  25.160  36.054   0.946
12360W        W84785  34.607  20.714  11.472
12361W        W84786  26.787  22.966  10.568
12362W        W84787  21.100  19.756   2.631
12363W        W84788   5.366   1.868   2.653
12364W        W84789  20.248  30.997  13.315
12365W        W84790  25.174  23.562   4.321
12366W        W84791  27.081  17.553  14.312
12367W        W84792  23.294  20.120   1.854
12368W        W84793  20.049  28.456   3.396
12369W        W84794  12.852  18.670  11.091
12370W        W84795  13.914  17.107  11.130
12371W        W84796  25.005  12.298   0.399
12372W        W84797   0.462  10.138  10.921
12373W        W84798  44.162  27.189   2.460
12374W        W84799  15.034  34.351  13.428
12375W        W84800  20.509   9.837  11.855
12376W        W84801  34.541  16.134   0.578
12377W        W84802  27.059  20.787   1.704
12378W        W84803   3.378   4.687   3.744
12379W        W84804   5.288  12.606   1.626
12380W        W84805  22.580  37.497   4.726
12381W        W84806  15.241   0.764   1.202
12382W        W84807  21.834  30.407   2.077
12383W        W84808  19.921  20.043   2.697
12384W        W84809  28.523  22.242   4.491
12385W        W84810  12.786   2.011  13.304
12386W        W84811  40.643  29.770   2.788
12387W        W84812  22.759  31.071   3.239
12388W        W84813  42.669  41.935   1.684
12389W        W84814  28.739   0.135  12.015
12390W        W84815  41.538  32.119   1.816
12391W        W84816   5.826  32.056   3.342
12392W        W84817  20.467  11.145  13.827
12393W        W84818  41.226  13.289   3.491
12394W        W84819  33.565  31.318  10.582
12395W        W84820  26.907  32.608  12.499
12396W        W84821  16.472  17.519  11.171
12397W        W84822   6.945  14.661  14.714
12398W        W84823  28.640   4.432   1.363
12399W        W84824  15.100  31.306   4.674
12400W        W84825  38.450  28.558   2.705
12401W        W84826  26.373  36.784  11.641
12402W        W84827  37.060  17.311  14.380
12403W        W84828   9.717  27.024  14.609
12404W        W84829   9.714  41.917   3.427
12405W        W84830  32.591   5.317  13.350
12406W        W84831  21.114  31.967  11.946
12407W        W84832   5.898  13.312   1.899
12408W        W84833  16.074  19.544   1.593
12409W        W84834  32.606  21.354  14.862
12410W        W84835   0.813  40.240   2.102
12411W        W84836  39.304  42.965  10.842
12412W        W84837  24.233  14.354   2.893
12413W        W84838  39.435  40.444  10.657
12414W        W84839   9.574   4.956   4.865
12415W        W84840  17.270  21.132  14.802
12416W        W84841   5.618   8.754   4.711
12417W        W84842  12.746  38.784   1.813
12418W        W84843  20.616  19.845   1.376
12419W        W84844   9.970  42.364   4.879
12420W        W84845  19.891  42.013  12.347
12421W        W84846  37.448  42.005   4.725
12422W        W84847  26.510  34.185   2.446
12423W        W84848  25.688  44.255   3.365
12424W        W84849  17.283  28.132  12.519
12425W        W84850  16.946  28.693   4.663
12426W        W84851  18.176  39.960  10.979
12427W        W84852  22.151  14.585  11.613
12428W        W84853  22.463  40.712  10.644
12429W        W84854  16.602  16.304   0.938
12430W        W84855  40.170  39.776   3.302
12431W        W84856  35.897  30.203   2.247
12432W        W84857  10.844  14.559   0.757
12433W        W84858   5.311  15.504  10.243
12434W        W84859   5.949  43.402   1.759
12435W        W84860   4.801  26.493   0.145
12436W        W84861  20.175  35.932   2.416
12437W        W84862  43.360  18.153  13.521
12438W        W84863  25.671  37.027  13.448
12439W        W84864   5.874  39.777  14.793
12440W        W84865  12.315  44.619   0.637
12441W        W84866  11.020   5.313  13.832
12442W        W84867   8.394  40.885   1.786
12443W        W84868  35.053   1.740  12.124
12444W        W84869   5.416  40.258  12.968
12445W        W84870  36.488   6.992   3.945
12446W        W84871  25.544   8.152  11.655
12447W        W84872  38.833   4.378  13.552
12448W        W84873  33.905  25.707   3.391
12449W        W84874  37.305   2.969  12.642
12450W        W84875  20.307   3.853   1.648
12451W        W84876  29.422  29.936  11.483
12452W        W84877  19.532  21.986  13.155
12453W        W84878  43.761  41.590  11.066
12454W        W84879  21.677  41.953  11.857
12455W        W84880  10.388   2.474  12.332
12456W        W84881  15.020  17.861  12.625
12457W        W84882  33.406  26.266   4.124
12458W        W84883  42.425  28.569  14.617
12459W        W84884   0.014  24.870  11.195
12460W        W84885  14.875  33.142   5.419
12461W        W84886  25.243  39.777   3.226
12462W        W84887  20.502  25.083  10.652
12463W        W84888  22.814  12.863   4.746
12464W        W84889   2.231  40.915  13.469
12465W        W84890   4.204  32.007   3.551
12466W        W84891  21.271  35.078  11.436
12467W        W84892  26.428   4.812  14.619
12468W        W84893  28.122   5.554   2.596
12469W        W84894  29.559  38.088   1.703
12470W        W84895  42.533  26.339  10.671
12471W        W84896   4.375   8.290   1.196
12472W        W84897  26.601  17.616  10.432
12473W        W84898  34.485  36.065   2.708
12474W        W84899   2.971  10.265   3.353
12475W        W84900   6.359  11.755  14.742
12476W        W84901  31.390   4.843  10.679
12477W        W84902  43.687  13.041  14.488
12478W        W84903  23.745  31.524   4.795
12479W        W84904  39.019  21.342  14.254
12480W        W84905   1.750  33.486   1.204
12481W        W84906   2.285  20.131  12.295
12482W        W84907  26.539  29.964  13.599
12483W        W84908  32.464  18.093  13.722
12484W        W84909   7.759  10.471  10.829
12485W        W84910  29.950  29.023   2.290
12486W        W84911  34.764  38.401   2.767
12487W        W84912  26.176  30.832   1.226
12488W        W84913  16.272  29.414  10.970
12489W        W84914  18.169  34.913  13.443
12490W        W84915  12.098  35.997   4.287
12491W        W84916  14.040  39.872   3.861
12492W        W84917   1.684  17.744  13.605
12493W        W84918   8.645  34.636   1.413
12494W        W84919  17.516  10.075   3.583
12495W        W84920  25.612  11.259  14.331
12496W        W84921  35.947  15.193  13.845
12497W        W84922   2.589  29.203   1.347
12498W        W84923  26.161  29.961  13.991
12499W        W84924   1.412  36.339   0.440
12500W        W84925  41.937   5.936   1.567
12501W        W84926  25.602  24.934   2.401
12502W        W84927  34.896  10.115  11.452
12503W        W84928  19.778  18.616   3.817
12504W        W84929  18.561   5.710   3.906
12505W        W84930  11.345  18.506  13.022
12506W        W84931  10.825  35.538  11.620
12507W        W84932   7.956  36.497  10.414
12508W        W84933   4.920   2.262  10.605
12509W        W84934  37.244  39.749  11.175
12510W        W84935  32.478  34.346   2.272
12511W        W84936  29.141  15.610   4.642
12512W        W84937  20.560   3.717   0.335
12513W        W84938  16.392  23.583  10.999
12514W        W84939   1.822  23.176   5.028
12515W        W84940  23.646  27.978  14.321
12516W        W84941  16.698  27.543   4.253
12517W        W84942  42.124  23.729   1.719
12518W        W84943  31.667  41.451   2.219
12519W        W84944  44.075   7.265  12.861
12520W        W84945   0.606  36.989   0.349
12521W        W84946   1.805  41.129  12.465
12522W        W84947  42.884  31.786  11.956
12523W        W84948  24.219  38.455  14.260
12524W        W84949  25.457  35.923  12.508
12525W        W84950   0.709  44.529  12.024
12526W        W84951   8.376   0.237  12.157
12527W        W84952   1.758  20.171   2.249
12528W        W84953  38.483  39.057  13.583
12529W        W84954  37.063  36.651  11.241
12530W        W84955  14.926  13.350   2.917
12531W        W84956   8.345   6.375   3.263
12532W        W84957   4.180  19.044   0.311
12533W        W84958   7.727  33.917  12.482
12534W        W84959  34.537  17.041   2.401
12535W        W84960  21.068  31.035   3.438
12536W        W84961   6.405  17.752   9.994
12537W        W84962  16.877  28.148  13.469
12538W        W84963  24.178  17.653   4.197
12539W        W84964  41.381  40.422  14.281
12540W        W84965  36.495  38.913   3.212
12541W        W84966  28.719  22.146  14.358
12542W        W84967  27.498  40.394   0.238
12543W        W84968  24.925  36.428  12.498
12544W        W84969   0.307  30.946   1.804
12545W        W84970  22.926  22.520   4.473
12546W        W84971  11.803  23.938  12.895
12547W        W84972  39.612  10.580   3.646
12548W        W84973   7.276   4.220   4.646
12549W        W84974   2.830  44.888   2.060
12550W        W84975   0.294  19.746   0.302
12551W        W84976  35.120  29.523   3.744
12552W        W84977  42.432  29.312   2.894
12553W        W84978  34.037  36.405   3.434
12554W        W84979  29.322  39.248   0.312
12555W        W84980  27.735  16.051   0.766
12556W        W84981  44.525  34.599   0.458
12557W        W84982  11.404   7.325  15.000
12558W        W84983  15.809   9.627  14.398
12559W        W84984   6.704   7.285  12.753
12560W        W84985   3.519  27.104   3.272
12561W        W84986  16.738  15.120   0.459
12562W        W84987  26.512  17.114   1.313
12563W        W84988  23.649  17.554  12.135
12564W        W84989  42.506  23.653  14.435
12565W        W84990  24.507  41.733   0.060
12566W        W84991  27.455  35.980   3.700
12567W        W84992  14.246  18.003  14.532
12568W        W84993  16.584  43.788  12.251
12569W        W84994  19.679   2.223   1.304
12570W        W84995  35.561   1.244  12.669
12571W        W84996  13.167  20.376   2.173
12572W        W84997  10.848  38.879   1.768
12573W        W84998  29.621  41.285   2.381
12574W        W84999  13.865  31.175  13.957
12575W        W85000  19.836  18.321  13.307
12576W        W85001   6.545  40.281   3.924
12577W        W85002  41.821  14.821  12.386
12578W        W85003  28.895  11.290   4.045
12579W        W85004  33.875  31.102  14.597
12580W        W85005  34.619  44.827  11.025
12581W        W85006  15.194  43.134   3.245
12582W        W85007   3.343  29.081  11.988
12583W        W85008  38.326  18.024  10.748
12584W        W85009   5.489   0.294  10.747
12585W        W85010  39.592   3.835  11.066
12586W        W85011  11.169  29.181   1.870
12587W        W85012  27.532  26.610   0.189
12588W        W85013  41.982  21.670   2.652
12589W        W85014  23.878  44.042  12.664
12590W        W85015  26.101  19.117   2.011
12591W        W85016  32.785  33.626   4.387
12592W        W85017  34.481  24.588   3.125
12593W        W85018  41.007  40.695  11.197
12594W        W85019   0.766  33.999  10.100
12595W        W85020  36.409  18.258  14.374
12596W        W85021  15.169  28.852  14.056
12597W        W85022  19.704  41.593   4.236
12598W        W85023   3.427  21.678   0.545
12599W        W85024   2.881   9.636  12.523
12600W        W85025  30.932  28.185  14.871
12601W        W85026  21.991  16.628   0.175
12602W        W85027  28.711   0.806   2.276
12603W        W85028  11.891  25.691   1.337
12604W        W85029  34.292   8.844  13.830
12605W        W85030   7.535  25.128   2.322
12606W        W85031  21.991  13.393   0.262
12607W        W85032  20.958   1.919  11.911
12608W        W85033  13.288  31.180   0.197
12609W        W85034  35.791  43.835   3.685
12610W        W85035  27.039  33.770  12.375
12611W        W85036   8.841  31.169  10.710
12612W        W85037  12.305  40.080  12.131
12613W        W85038  36.030  43.544   0.571
12614W        W85039  31.663  43.545  12.823
12615W        W85040  33.158  24.295   0.458
12616W        W85041  37.858  19.281   1.229
12617W        W85042   4.870  26.986   3.264
12618W        W85043  43.129  28.593   4.744
12619W        W85044  31.945  27.809   4.387
12620W        W85045  41.098   3.304  12.539
12621W        W85046  42.672   7.319  14.487
12622W        W85047  30.330   0.997  13.019
12623W        W85048  30.118  42.066   0.895
12624W        W85049  43.842  30.399   1.918
12625W        W85050  15.161  29.242   2.326
12626W        W85051  44.791  39.598   3.202
12627W        W85052  31.150  23.701  13.125
12628W        W85053  15.117   1.733  14.755
12629W        W85054   7.260  15.528  14.768
12630W        W85055   2.958  17.151  10.749
12631W        W85056   5.721  43.515  13.899
12632W        W85057  19.192  26.000   2.052
12633W        W85058   6.468  23.952  11.623
12634W        W85059  17.180  35.123   0.875
12635W        W85060  44.369  41.910   1.857
12636W        W85061   0.777  22.525  12.044
12637W        W85062  40.416   0.934  10.709
12638W        W85063   3.788  17.729  14.788
12639W        W85064   1.663   1.614  11.920
12640W        W85065  22.203   6.737  14.996
12641W        W85066   6.753  24.024  10.516
12642W        W85067  38.824  42.472  10.015
12643W        W85068  33.066   0.012   1.744
12644W        W85069  35.410  16.747   1.336
12645W        W85070  28.050  37.441   4.676
12646W        W85071  15.560  38.501  10.546
12647W        W85072   9.179  18.048   2.250
12648W        W85073  13.143  19.075  10.977
12649W        W85074  29.221  10.670   4.266
12650W        W85075  38.216  15.559   4.829
12651W        W85076  28.126  12.579  12.612
12652W        W85077  39.434  41.197  14.862
12653W        W85078  32.439  14.106   3.302
12654W        W85079   0.542  36.485   3.283
12655W        W85080   6.015  29.384   0.380
12656W        W85081   5.896  32.134  11.036
12657W        W85082  28.544  43.562  12.639
12658W        W85083  23.975  19.948   1.374
12659W        W85084  43.224  29.437  13.319
12660W        W85085  12.095  16.856   1.845
12661W        W85086  18.992  23.291   2.373
12662W        W85087  26.114  16.213  10.700
12663W        W85088   3.885   5.322  14.555
12664W        W85089   7.979   5.713   0.831
12665W        W85090  35.117   3.507   0.869
12666W        W85091  18.145  22.682  10.546
12667W        W85092  40.262  37.500   4.107
12668W        W85093  38.570  27.944   1.590
12669W        W85094  43.480  26.506   2.730
12670W        W85095  38.703  42.375   4.581
12671W        W85096  23.686   3.827  14.316
12672W        W85097  41.269  15.085  12.093
12673W        W85098  27.115   7.459   4.072
12674W        W85099  44.973   3.861  12.834
12675W        W85100  38.330   2.683  14.487
12676W        W85101  44.690  22.215   4.782
12677W        W85102  18.579  15.181   3.794
12678W        W85103  12.177  18.234  14.857
12679W        W85104  34.694  37.471  11.977
12680W        W85105   2.837  30.083  13.459
12681W        W85106  30.850  30.438   1.477
12682W        W85107  26.396  34.474  14.816
12683W        W85108   1.247   2.621  14.300
12684W        W85109  11.208  42.899   1.447
12685W        W85110  27.694  27.505   1.796
12686W        W85111   6.610  26.604  10.602
12687W        W85112   2.155  32.530   2.741
12688W        W85113  20.132  12.706  13.035
12689W        W85114  20.078  10.919   4.529
12690W        W85115  15.090  33.863  13.673
12691W        W85116  42.811   1.710   1.930
12692W        W85117  18.250  22.556   1.347
12693W        W85118   7.945   6.776  12.175
12694W        W85119  20.120  34.834   3.192
12695W        W85120  43.504  16.453   2.686
12696W        W85121  35.454   6.915  14.847
12697W        W85122  25.603  28.604   2.261
12698W        W85123   6.768   7.220   4.422
12699W        W85124  42.644   9.413   1.865
12700W        W85125   5.292  17.089   0.339
12701W        W85126  16.332  41.946  12.450
12702W        W85127  43.973  25.755  11.499
12703W        W85128  27.552  33.051  14.951
12704W        W85129   7.782  39.284   2.888
12705W        W85130  19.733  12.762  11.699
12706W        W85131   1.980  21.246  10.959
12707W        W85132  15.150  31.692   3.423
12708W        W85133   1.723   0.860   4.677
12709W        W85134  42.954  24.850   3.661
12710W        W85135  33.999   1.965  12.770
12711W        W85136  21.980  33.041  10.767
12712W        W85137  39.572  27.682  10.630
12713W        W85138  33.138   8.777   2.879
12714W        W85139  41.558  16.737   0.404
12715W        W85140  43.066  25.032   4.161
12716W        W85141  41.966  42.921  12.277
12717W        W85142  23.990  28.937  13.857
12718W        W85143  13.559   2.447   4.191
12719W        W85144  38.782  27.483  11.245
12720W        W85145  25.084   3.330   1.918
12721W        W85146  18.110  35.913   2.534
12722W        W85147  16.544  30.815   3.664
12723W        W85148  34.956   0.832  10.480
12724W        W85149  20.570  34.598  11.234
12725W        W85150   2.866  42.511   1.079
12726W        W85151  13.263  25.600   3.417
12727W        W85152   1.676  11.661   3.354
12728W        W85153  15.416  27.140   4.205
12729W        W85154  36.575   6.885   3.256
12730W        W85155  26.122   5.333  12.632
12731W        W85156   2.567  29.061  12.445
12732W        W85157  36.023   0.251  13.586
12733W        W85158  26.353  38.342  12.854
12734W        W85159  28.066  32.200  10.613
12735W        W85160   5.798  35.973   3.377
12736W        W85161  37.805  44.638   0.958
12737W        W85162  31.159  38.976  14.814
12738W        W85163  15.666  25.845   1.505
12739W        W85164  21.017  13.191   1.979
12740W        W85165   2.521   4.780  14.249
12741W        W85166   4.868  21.427   4.977
12742W        W85167  39.023  20.577   4.783
12743W        W85168  30.131  14.793  12.021
12744W        W85169  16.099   3.549  13.422
12745W        W85170   9.883  35.463   0.925
12746W        W85171   9.216  31.687  14.940
12747W        W85172  43.305  31.101   2.180
12748W        W85173  33.650   9.613   0.843
12749W        W85174  38.127  13.095  11.548
12750W        W85175  37.153  31.725   3.698
12751W        W85176  27.433  11.300   3.937
12752W        W85177  35.458  17.039   3.853
12753W        W85178  10.948  28.247   2.813
12754W        W85179  43.519   5.711   4.982
12755W        W85180  44.798  21.248  11.514
12756W        W85181  37.097   3.986   2.381
12757W        W85182   3.746  21.055  12.339
12758W        W85183  36.391  31.861   0.374
12759W        W85184   2.322   8.407  12.202
12760W        W85185  30.376  10.838  13.007
12761W        W85186  22.063   6.253  13.255
12762W        W85187  28.536   1.237   4.800
12763W        W85188   0.567  19.209   1.201
12764W        W85189  32.225  39.825   1.856
12765W        W85190   5.731   4.903   2.440
12766W        W85191   5.783  38.065  13.908
12767W        W85192  43.784   6.770   0.963
12768W        W85193  13.369   9.371   1.280
12769W        W85194  41.391   2.281  12.916
12770W        W85195   0.588  35.524  13.845
12771W        W85196  39.892  22.417  14.110
12772W        W85197  17.759  18.123  14.708
12773W        W85198  43.396  11.695  13.677
12774W        W85199  13.195  32.137  11.124
12775W        W85200  10.166   3.885  13.077
12776W        W85201  22.419  41.868   1.782
12777W        W85202   5.986  42.112  12.114
12778W        W85203  35.885  16.550   1.258
12779W        W85204  43.623   0.520   2.837
12780W        W85205  25.367   2.168  12.504
12781W        W85206  36.948  44.904  14.844
12782W        W85207  29.220  20.140   0.290
12783W        W85208  31.872  44.975   2.894
12784W        W85209  17.742  40.079   3.659
12785W        W85210  35.152  26.172  13.567
12786W        W85211  13.126   0.751   0.962
12787W        W85212   3.392  37.090   4.609
12788W        W85213  40.146   8.670   3.724
12789W        W85214  14.733  34.112   3.577
12790W        W85215   4.255  43.980  10.725
12791W        W85216  36.081  21.735  10.956
12792W        W85217  18.336  24.450   4.561
12793W        W85218   7.609  35.396  14.942
12794W        W85219  43.282  32.052   3.744
12795W        W85220  11.435  39.414  12.418
12796W        W85221  21.912  18.493  12.464
12797W        W85222  40.943  14.812  10.658
12798W        W85223  40.468  44.807   3.621
12799W        W85224   9.172   5.027  12.059
12800W        W85225   5.742  43.509  11.652
12801W        W85226  18.672  10.664   2.324
12802W        W85227  17.009  36.540  12.868
12803W        W85228  30.993  42.507   4.263
12804W        W85229  21.672  14.337  10.708
12805W        W85230  15.738  23.560   4.218
12806W        W85231  42.066  38.574  10.946
12807W        W85232  22.241  15.224   3.199
12808W        W85233  26.605  26.654  13.269
12809W        W85234  26.209  12.388  14.207
12810W        W85235  32.301  42.982  12.522
12811W        W85236  12.145  10.564  12.396
12812W        W85237  35.222   7.621  14.350
12813W        W85238  32.985   1.682   0.408
12814W        W85239   4.206   5.354   3.238
12815W        W85240  34.669   4.943   2.701
12816W        W85241   8.186  12.321  14.586
12817W        W85242  24.939  35.024  13.583
12818W        W85243  30.700  13.177   4.640
12819W        W85244  38.154  29.815  10.805
12820W        W85245  11.776   7.593   1.669
12821W        W85246  14.833  24.964  14.320
12822W        W85247  20.054  32.091  10.010
12823W        W85248  32.436  38.766  14.915
12824W        W85249  41.555   7.959   0.768
12825W        W85250   5.938  17.054  10.981
12826W        W85251  30.746  32.428  12.599
12827W        W85252   3.131  14.748  10.434
12828W        W85253   0.375  37.879  13.083
12829W        W85254  19.629   4.884   0.439
12830W        W85255  38.246   0.748  14.359
12831W        W85256  27.162   3.495   4.269
12832W        W85257  41.475  28.303  12.627
12833W        W85258  17.694  26.613  14.989
12834W        W85259  19.612  36.548  14.888
12835W        W85260  19.474  29.151  12.136
12836W        W85261  43.231  12.829  14.120
12837W        W85262   4.722  31.412  11.654
12838W        W85263  11.563  37.601  10.948
12839W        W85264   4.169  33.627  13.009
12840W        W85265  33.659  14.112   4.463
12841W        W85266   9.587  26.555  14.406
12842W        W85267  11.150  31.767  11.072
12843W        W85268   1.793  30.856  10.780
12844W        W85269  38.192   5.811  11.946
12845W        W85270  36.936  33.366   1.750
12846W        W85271  21.453  29.185  14.344
12847W        W85272   9.854  17.300   4.801
12848W        W85273  16.171  36.288  14.327
12849W        W85274  21.267  14.895  11.494
12850W        W85275  42.341  10.130  14.845
12851W        W85276  27.374  15.595  13.998
12852W        W85277  41.934  38.295   3.419
12853W        W85278  42.813   3.343   3.414
12854W        W85279  37.556  11.448  12.017
12855W        W85280   9.035   8.117   1.457
12856W        W85281  17.756  26.604  11.944
12857W        W85282  34.082  16.274   3.672
12858W        W85283  27.444  28.438   3.437
12859W        W85284   1.894  17.770  12.010
12860W        W85285  40.842  21.247  14.218
12861W        W85286  26.495  40.280  12.769
12862W        W85287  23.386  27.363   0.891
12863W        W85288  28.172  23.112  13.778
12864W        W85289  12.011  15.599  13.041
12865W        W85290  15.074  33.511   2.322
12866W        W85291  16.650  14.892   4.162
12867W        W85292  41.462  29.514   0.900
12868W        W85293  41.318  23.288   0.928
12869W        W85294  37.506   9.659   2.313
12870W        W85295   5.165  14.766  10.951
12871W        W85296  22.726   3.486  11.545
12872W        W85297  20.729  27.967   1.912
12873W        W85298  13.575   9.272  11.475
12874W        W85299  11.527  32.614  11.135
12875W        W85300  29.342  10.825  13.118
12876W        W85301   8.286  21.104  14.748
12877W        W85302  26.916  11.918   3.391
12878W        W85303  12.837  40.071   0.308
12879W        W85304  22.042  44.860  13.433
12880W        W85305  39.228  19.579   2.284
12881W        W85306  43.729  13.563  14.515
12882W        W85307  23.560   1.722   2.425
12883W        W85308   1.453  24.114   4.777
12884W        W85309  31.920  19.781  11.551
12885W        W85310  43.563  11.168   1.143
12886W        W85311  25.173  36.440   3.434
12887W        W85312  28.145  40.898  13.980
12888W        W85313  42.864   4.119   2.887
12889W        W85314   6.261  40.407  12.418
12890W        W85315  12.664  16.774  12.311
12891W        W85316  35.584  18.616   0.690
12892W        W85317  38.023  20.326  10.782
12893W        W85318  42.781   4.285  11.675
12894W        W85319  26.261  25.661  14.501
12895W        W85320  14.621  27.112  12.162
12896W        W85321  35.020  34.617  13.585
12897W        W85322  17.567  35.577  13.842
12898W        W85323  40.944  35.136   0.001
12899W        W85324  41.440  17.128   1.779
12900W        W85325  43.351  16.284   4.752
12901W        W85326  31.105  19.126   1.842
12902W        W85327   5.721  37.506   0.684
12903W        W85328  18.174  34.635   3.979
12904W        W85329  44.649  29.627  11.499
12905W        W85330  15.793   1.661  11.983
12906W        W85331   3.996   4.507   2.643
12907W        W85332  17.089  21.110  11.203
12908W        W85333  27.448  38.762   1.782
12909W        W85334  40.569  17.964  12.580
12910W        W85335   4.301  33.067  14.010
12911W        W85336  43.567  38.344  12.551
12912W        W85337  17.748  43.204   1.262
12913W        W85338  33.873   8.622  14.020
12914W        W85339  17.570   3.740  13.022
12915W        W85340  41.551  14.860  14.934
12916W        W85341  16.959  41.953   4.377
12917W        W85342  19.021  21.600   0.968
12918W        W85343   8.699  21.651   2.786
12919W        W85344  33.149  23.668   4.789
12920W        W85345  26.968  34.955   1.404
12921W        W85346  39.002   6.671   3.648
12922W        W85347   0.084  28.142   1.496
12923W        W85348   3.144   6.414  14.880
12924W        W85349   3.397  37.071   4.079
12925W        W85350   0.872   8.939   0.405
12926W        W85351  16.995   8.778  11.174
12927W        W85352  12.750  22.737   4.730
12928W        W85353   3.918  36.836  10.906
12929W        W85354  32.441  42.442  14.800
12930W        W85355   1.506  15.356  11.114
12931W        W85356  27.264  37.812  14.276
12932W        W85357  16.113   3.232  10.766
12933W        W85358  26.954  21.903  11.544
12934W        W85359  27.511  31.474   9.726
12935W        W85360   0.753   3.931   1.703
12936W        W85361  44.080  34.438   5.072
12937W        W85362   5.291  28.239  14.807
12938W        W85363  15.787  30.565   0.568
12939W        W85364  43.222  32.628   2.846
12940W        W85365  27.462  15.069  14.752
12941W        W85366   0.971   5.829  12.023
12942W        W85367  17.747  44.959  13.014
12943W        W85368  35.296   5.788   1.829
12944W        W85369  10.954  30.968   3.584
12945W        W85370  42.372  42.251  13.977
12946W        W85371   6.662  41.570  12.575
12947W        W85372  17.970  25.636   2.594
12948W        W85373  33.022  39.967   3.591
12949W        W85374  31.139  39.583  10.213
12950W        W85375  28.451  42.976   3.727
12951W        W85376  14.413  32.094  11.984
12952W        W85377  33.549  21.997   2.413
12953W        W85378  10.893   9.071   0.422
12954W        W85379   0.538  16.975  11.957
12955W        W85380  27.062   5.981  11.569
12956W        W85381  20.328  39.781  12.072
12957W        W85382  10.229   1.461   4.536
12958W        W85383   4.794   2.011   3.459
12959W        W85384  20.496  21.055  12.013
12960W        W85385   9.270  19.031  10.616
12961W        W85386  43.369  30.936   0.243
12962W        W85387  40.757  25.208  12.620
12963W        W85388   2.186  32.492   4.067
12964W        W85389  13.271  42.287   1.881
12965W        W85390   6.341  32.872  11.185
12966W        W85391  33.535   3.790   3.402
12967W        W85392  26.532  32.685   2.452
12968W        W85393  40.368  21.087  14.503
12969W        W85394  25.240  11.640  13.431
12970W        W85395  35.266  27.054   4.705
12971W        W85396   7.305  43.321  10.956
12972W        W85397   2.564  35.342   5.140
12973W        W85398  34.117  18.864  11.083
12974W        W85399  33.813  19.658   3.240
12975W        W85400  44.867  14.232   1.919
12976W        W85401  31.964  16.572   2.651
12977W        W85402   5.263  14.555  14.342
12978W        W85403  13.676  44.938   3.285
12979W        W85404  37.168  26.333   3.613
12980W        W85405  42.297  16.228   0.958
12981W        W85406  17.778  29.379   3.747
12982W        W85407  32.538  27.063   0.408
12983W        W85408   4.137  36.081   0.981
12984W        W85409  35.977  18.355   0.903
12985W        W85410  14.699   1.420   0.379
12986W        W85411  39.927  44.424   3.740
12987W        W85412  29.307   1.057  14.014
12988W        W85413  36.424  44.461  14.854
12989W        W85414  39.853  12.872  14.917
12990W        W85415  14.246  31.372   0.507
12991W        W85416  33.825  20.970  14.125
12992W        W85417   1.221   6.333   3.340
12993W        W85418  10.744  25.080   3.646
12994W        W85419   1.473  25.010  10.692
12995W        W85420  35.984   4.825  11.617
12996W        W85421  15.307  27.422  12.666
12997W        W85422  42.447  44.379   4.604
12998W        W85423  34.130  23.654   2.194
12999W        W85424  24.495  15.366  13.972
13000W        W85425  10.180  10.560   1.140
13001W        W85426  11.834  34.847   0.969
13002W        W85427  35.598  26.261  11.106
13003W        W85428   4.706  26.790  10.687
13004W        W85429  38.444   3.010   3.510
13005W        W85430  19.967  21.090  11.980
13006W        W85431  40.618   9.780  12.065
13007W        W85432  43.445  22.938  13.023
13008W        W85433  18.086  23.470  13.480
13009W        W85434   3.851  24.931  12.554
13010W        W85435  19.174  34.764   4.627
13011W        W85436  37.914  43.102  10.183
13012W        W85437  40.021  40.372  10.549
13013W        W85438  21.795  17.258  10.636
13014W        W85439  32.671   6.345  12.919
13015W        W85440  36.795   5.612   4.557
13016W        W85441  11.780  11.691  14.404
13017W        W85442  11.407  23.402   0.912
13018W        W85443  14.212  25.765  14.453
13019W        W85444  42.929  19.866  10.890
13020W        W85445  39.434  10.758  10.899
13021W        W85446   4.153  19.002   2.574
13022W        W85447   1.011   2.524   3.331
13023W        W85448  44.360  35.915  13.074
13024W        W85449  23.986  22.775  12.610
13025W        W85450   4.739  14.230  14.938
13026W        W85451  15.679  40.555  11.909
13027W        W85452   7.269  38.042   2.256
13028W        W85453  25.520   8.714  12.926
13029W        W85454  37.473  33.615  14.625
13030W        W85455  12.405  10.278   3.202
13031W        W85456   7.493  25.104   1.394
13032W        W85457  31.144  13.305  12.511
13033W        W85458  25.488  40.870   4.245
13034W        W85459  31.897  33.417  13.685
13035W        W85460   6.976  33.864   4.352
13036W        W85461   1.062  13.582  13.206
13037W        W85462  34.102  39.814  12.481
13038W        W85463  35.097   8.268  12.430
13039W        W85464   5.089   3.197   2.173
13040W        W85465  37.833  28.468  12.602
13041W        W85466  29.820  43.946   0.849
13042W        W85467  41.031  15.647  14.716
13043W        W85468  31.589  42.940  12.079
13044W        W85469  43.920  29.975   0.969
13045W        W85470  13.672   1.831   1.659
13046W        W85471  29.952  43.196  13.264
13047W        W85472   7.755  17.125  12.983
13048W        W85473  11.756   8.205  13.338
13049W        W85474   4.958  16.043  10.456
13050W        W85475  25.711  25.694   1.613
13051W        W85476  15.873  28.457  13.412
13052W        W85477  33.674   2.871   4.619
13053W        W85478  24.452  25.062   1.422
13054W        W85479  38.442  27.590  12.974
13055W        W85480  12.677  39.100  10.765
13056W        W85481  29.664  35.488  14.792
13057W        W85482  34.059  11.468  14.489
13058W        W85483  36.560  14.482  11.626
13059W        W85484  21.780  32.374  10.574
13060W        W85485   7.780   1.047   4.122
13061W        W85486  41.274  16.646   1.875
13062W        W85487  42.955  11.662  10.985
13063W        W85488   8.534  40.133   1.477
13064W        W85489  36.912  28.442   2.248
13065W        W85490  22.262   9.990  13.945
13066W        W85491  28.203  36.943   1.879
13067W        W85492  23.689  24.604  13.857
13068W        W85493  15.055   9.043  13.042
13069W        W85494  37.655  31.597  14.722
13070W        W85495  43.538  28.317   2.357
13071W        W85496  34.970  30.701  10.666
13072W        W85497   9.978  23.119   0.846
13073W        W85498   3.326   4.703   0.656
13074W        W85499  42.995  31.491  13.312
13075W        W85500  28.998  13.929  11.052
13076W        W85501  19.804  29.026   2.365
13077W        W85502  17.872  18.994   0.872
13078W        W85503  10.455  21.803  11.059
13079W        W85504  15.712  15.291   2.724
13080W        W85505   5.437  16.316  14.833
13081W        W85506  20.728  39.059   2.693
13082W        W85507   9.859   2.608   0.766
13083W        W85508  31.124  28.855  11.903
13084W        W85509  16.354  16.826   3.567
13085W        W85510  21.316  30.490   0.272
13086W        W85511  37.402  29.018   3.121
13087W        W85512   1.302   4.818   1.622
13088W        W85513  43.749  38.871   0.855
13089W        W85514   0.259  34.548  14.876
13090W        W85515  43.353  13.951   1.846
13091W        W85516  33.432  27.721   0.432
13092W        W85517   3.817  19.006   1.703
13093W        W85518   1.559  20.660   2.315
13094W        W85519  27.758  44.844   2.835
13095W        W85520  42.499  31.612  13.505
13096W        W85521  11.042   8.236   3.603
13097W        W85522  14.582  25.040   0.825
13098W        W85523  27.935  30.924  13.994
13099W        W85524  25.322  22.090  10.758
13100W        W85525  34.736  24.238  12.062
13101W        W85526  21.114  22.155  14.004
13102W        W85527  31.617  29.861   3.473
13103W        W85528   7.371   1.955  11.644
13104W        W85529  36.903  30.989  14.065
13105W        W85530  20.698  28.645  12.837
13106W        W85531   8.597  24.135   4.281
13107W        W85532   5.898  19.891  11.503
13108W        W85533   3.551  36.441  13.619
13109W        W85534  41.479  20.532   4.156
13110W        W85535  15.209  30.497  12.117
13111W        W85536  39.812  43.810  12.945
13112W        W85537  22.140  12.596   0.673
13113W        W85538  33.696  34.738   4.203
13114W        W85539  35.565  27.439   1.773
13115W        W85540   2.278  32.448  10.665
13116W        W85541   6.203  12.204   0.444
13117W        W85542  31.625  36.577   0.447
13118W        W85543  34.591   8.950  10.735
13119W        W85544  16.259  28.418  14.338
13120W        W85545  38.440   0.734   0.345
13121W        W85546  28.171  13.095   1.500
13122W        W85547  20.754  30.071   4.613
13123W        W85548  17.859   0.452  13.054
13124W        W85549  43.034  34.585  11.543
13125W        W85550   6.941  37.929  14.885
13126W        W85551  18.801  30.093   1.357
13127W        W85552  42.590  40.366   0.899
13128W        W85553  24.027   4.841   2.401
13129W        W85554  18.802  41.218   1.761
13130W        W85555  35.131  42.449  11.942
13131W        W85556  36.935  18.192  14.280
13132W        W85557   0.865  18.520   9.825
13133W        W85558  42.328   2.754  14.311
13134W        W85559  15.546  15.095  11.207
13135W        W85560   0.687  32.085  10.227
13136W        W85561   9.071  17.656   3.131
13137W        W85562  10.377  22.116   2.128
13138W        W85563  28.235  23.499  12.125
13139W        W85564  26.609  14.391  12.446
13140W        W85565  24.647  12.664   3.519
13141W        W85566  41.083  29.427  14.814
13142W        W85567  23.479  35.150   4.127
13143W        W85568  23.230  14.241   4.092
13144W        W85569  35.400  13.086  12.975
13145W        W85570  24.058   2.342   4.588
13146W        W85571  31.340   1.209   1.714
13147W        W85572  19.547  36.349   1.739
13148W        W85573  17.303  16.747   2.352
13149W        W85574   4.965  37.017   3.402
13150W        W85575  41.333  17.565  11.178
13151W        W85576  29.735  16.500  12.477
13152W        W85577  34.104  33.538  14.094
13153W        W85578   1.063  32.020   5.005
13154W        W85579  19.118   7.994   3.053
13155W        W85580   8.361  43.605  11.608
13156W        W85581   3.345  16.551   2.598
13157W        W85582   1.724   5.783   0.761
13158W        W85583  34.452   3.730  12.077
13159W        W85584   2.859  18.580   4.384
13160W        W85585  30.071  41.099  12.397
13161W        W85586   2.781  11.338  10.611
13162W        W85587  44.275  21.784  14.002
13163W        W85588  11.358  44.425   0.778
13164W        W85589  41.748  34.186   4.236
13165W        W85590  35.403  25.589   1.205
13166W        W85591  43.297  36.814  11.712
13167W        W85592  35.103   1.499  13.443
13168W        W85593   5.638  30.424   3.097
13169W        W85594  11.491  43.515   0.504
13170W        W85595  14.662  26.587   1.637
13171W        W85596  13.541  35.866   3.757
13172W        W85597  28.470   8.563  10.497
13173W        W85598  41.975  36.508   2.062
13174W        W85599  11.230  30.169   0.370
13175W        W85600  20.502  13.237   1.892
13176W        W85601  17.027  10.757  13.069
13177W        W85602  18.544  31.904   0.693
13178W        W85603  28.267   6.351  11.601
13179W        W85604  36.965  11.997   1.159
13180W        W85605   8.715  17.512  14.006
13181W        W85606   0.273  35.999   4.200
13182W        W85607  10.344  24.089  11.773
13183W        W85608   4.415   9.899   4.564
13184W        W85609  38.947  20.248  11.064
13185W        W85610  17.856  28.237  13.881
13186W        W85611  11.784  15.035  11.085
13187W        W85612  23.775  42.692   1.029
13188W        W85613  10.740  29.353  13.974
13189W        W85614  21.152   5.936   5.099
13190W        W85615  39.944  33.405   2.236
13191W        W85616  23.095   2.023  14.808
13192W        W85617  32.035  34.254  11.687
13193W        W85618  11.149   4.313   2.067
13194W        W85619  17.593   0.818  13.261
13195W        W85620  32.630  11.185   4.086
13196W        W85621   7.034  26.260  13.593
13197W        W85622   9.993  26.015   1.316
13198W        W85623   2.057  18.048  12.418
13199W        W85624  42.398  24.140   4.527
13200W        W85625  14.796   0.102  10.663
13201W        W85626  31.042  28.081  10.745
13202W        W85627   3.279  16.848   1.314
13203W        W85628  40.422  37.296  13.885
13204W        W85629   4.268  19.773   0.042
13205W        W85630  30.376  40.751  10.636
13206W        W85631  44.010  21.270   0.656
13207W        W85632   2.937  34.111  10.864
13208W        W85633   7.499  31.359   2.370
13209W        W85634  24.589  31.604  10.433
13210W        W85635  15.494  27.865   0.388
13211W        W85636   3.060  38.911   4.659
13212W        W85637  13.924   7.331  11.501
13213W        W85638  23.725  34.118  14.675
13214W        W85639   6.662  10.337  13.905
13215W        W85640  24.730  20.075  11.556
13216W        W85641  42.630   3.435  12.122
13217W        W85642   1.002  30.592  11.219
13218W        W85643  11.878  16.172   1.197
13219W        W85644  19.849  27.860   1.855
13220W        W85645   4.685  41.866   3.227
13221W        W85646  17.394  28.033  13.493
13222W        W85647  27.646  28.521  12.929
13223W        W85648  24.744  28.627   1.624
13224W        W85649  43.989  36.876  14.508
13225W        W85650  43.276  13.233   2.291
13226W        W85651   5.433  38.000  11.663
13227W        W85652  42.970  35.618   2.374
13228W        W85653  38.028  26.609  10.969
13229W        W85654  42.898  22.614  11.127
13230W        W85655  32.125  29.751   0.320
13231W        W85656  14.657  21.141  10.263
13232W        W85657  30.016  42.205   2.046
13233W        W85658  30.898   0.445  14.693
13234W        W85659   3.009  23.277   2.200
13235W        W85660  13.260  25.989   0.677
13236W        W85661  28.132  22.236  10.824
13237W        W85662  10.316  23.448   2.586
13238W        W85663   2.546  41.536   0.829
13239W        W85664  32.853  17.276   3.874
13240W        W85665  15.062  13.801   2.375
13241W        W85666  24.988  12.721   3.903
13242W        W85667   2.376  23.998   4.708
13243W        W85668  35.402  19.566  11.121
13244W        W85669  13.987  18.254   1.375
13245W        W85670  42.074  20.338   4.701
13246W        W85671  21.589  23.396   1.828
13247W        W85672  13.706  39.149   1.877
13248W        W85673  33.452  16.649   4.530
13249W        W85674  40.134  32.490   4.795
13250W        W85675  34.358   1.548  11.580
13251W        W85676  18.200  16.305  13.534
13252W        W85677  35.410  24.418   4.110
13253W        W85678   0.949   3.721   2.161
13254W        W85679  14.681   2.021   1.468
13255W        W85680   6.462  18.252   1.235
13256W        W85681  39.360   5.701   4.060
13257W        W85682   5.883  18.130  12.059
13258W        W85683  30.370  38.351   3.214
13259W        W85684  21.366  25.165   0.563
13260W        W85685  44.525  27.643   1.730
13261W        W85686  40.631  10.793  12.961
13262W        W85687  36.134  39.860   1.834
13263W        W85688   7.651  28.932  14.953
13264W        W85689  19.145   9.787  14.200
13265W        W85690  31.677   1.308   3.939
13266W        W85691  31.770  42.754  12.531
13267W        W85692  12.629  37.841  10.751
13268W        W85693  27.644  22.965  11.531
13269W        W85694  13.856  34.433  12.523
13270W        W85695  19.727  16.847   1.480
13271W        W85696  28.986  38.690  11.256
13272W        W85697  12.161  32.851  12.839
13273W        W85698  29.119   5.177   4.006
13274W        W85699  32.908   5.704   4.110
13275W        W85700   0.902  23.116  13.864
13276W        W85701  34.700  18.536   3.268
13277W        W85702  32.647  24.235   0.418
13278W        W85703   4.762   3.277   4.752
13279W        W85704   7.727  10.749  13.077
13280W        W85705  22.079  36.141  13.303
13281W        W85706  35.496  41.107   4.178
13282W        W85707  34.381  40.135   3.827
13283W        W85708  20.797   7.424  11.702
13284W        W85709  38.610  36.288   0.365
13285W        W85710  40.916  32.251   4.087
13286W        W85711  29.631  21.479   5.480
13287W        W85712  11.749  42.209   2.375
13288W        W85713  18.828  37.993   1.785
13289W        W85714  41.440  24.901  13.925
13290W        W85715  26.788   0.492  13.249
13291W        W85716   2.395  26.831   3.831
13292W        W85717  11.648   8.834   1.935
13293W        W85718  20.839  37.525   4.629
13294W        W85719  35.564  43.520   1.817
13295W        W85720  13.139  43.576   3.694
13296W        W85721  17.838   0.913  13.734
13297W        W85722  13.232   3.376  12.938
13298W        W85723   7.691  36.126  10.115
13299W        W85724  17.212  20.195  13.292
13300W        W85725  14.759  31.669  13.102
13301W        W85726  21.635  31.862  10.673
13302W        W85727   3.431   5.364  12.440
13303W        W85728  24.977  27.647  10.657
13304W        W85729  35.367   7.798  13.100
13305W        W85730  32.564  33.877  12.902
13306W        W85731  12.194  32.509  14.467
13307W        W85732  25.209  19.481  12.057
13308W        W85733  41.073  25.250   3.170
13309W        W85734  42.108  38.903  12.525
13310W        W85735  21.164  38.850   0.643
13311W        W85736  28.967  30.686   0.341
13312W        W85737  11.226  35.593   3.436
13313W        W85738  36.339  11.155   3.113
13314W        W85739  18.253   1.831  14.446
13315W        W85740  35.312  31.114  11.956
13316W        W85741  35.021  31.933   4.996
13317W        W85742  36.910  14.092   1.758
13318W        W85743  18.408  11.027   0.219
13319W        W85744   0.041  42.991  12.142
13320W        W85745  11.346  19.299  10.882
13321W        W85746  10.723  41.585  13.013
13322W        W85747  12.373  13.567  11.652
13323W        W85748  42.238   4.117   1.420
13324W        W85749  22.858  15.070   0.409
13325W        W85750  16.727  12.305  14.501
13326W        W85751   9.379  15.712   1.527
13327W        W85752  40.809  39.452   3.012
13328W        W85753  33.492  23.159  14.884
13329W        W85754   4.685  17.057   2.124
13330W        W85755   6.156  12.083  10.365
13331W        W85756  21.801   2.013  14.432
13332W        W85757  24.162  24.980  12.043
13333W        W85758  39.825  41.227   1.304
13334W        W85759  11.881  29.452  10.720
13335W        W85760  20.396   8.669   5.440
13336W        W85761  13.269  35.813  11.510
13337W        W85762   4.458   4.131   0.373
13338W        W85763  34.017  11.249   0.969
13339W        W85764  43.177  28.626  11.582
13340W        W85765  41.384  24.443  12.499
13341W        W85766  11.713  13.541  11.077
13342W        W85767  40.226  26.215  14.787
13343W        W85768  40.750  40.413   2.587
13344W        W85769  17.586  12.766  14.325
13345W        W85770  19.305  29.624  11.958
13346W        W85771  13.630  15.498   4.918
13347W        W85772   4.911  10.735  11.139
13348W        W85773  31.055  23.728  12.423
13349W        W85774  39.554  22.104   1.717
13350W        W85775   0.086  35.402  11.200
13351W        W85776  40.177  22.981  11.138
13352W        W85777   7.713  16.615   1.617
13353W        W85778  31.648  25.459  10.917
13354W        W85779   8.204   3.285   1.005
13355W        W85780  21.772  44.411  13.452
13356W        W85781  23.021  39.264  11.612
13357W        W85782  12.467  44.039   3.318
13358W        W85783  29.131  36.249  14.369
13359W        W85784  30.628  39.022   4.438
13360W        W85785  44.436   5.705   3.256
13361W        W85786  36.922  16.811   1.405
13362W        W85787   6.319   0.299   2.844
13363W        W85788  10.093  33.463   1.724
13364W        W85789  43.457   0.809  12.496
13365W        W85790  34.899  12.274   4.635
13366W        W85791  27.496  20.501  13.919
13367W        W85792  11.052  36.889   2.179
13368W        W85793  32.973   0.716  12.429
13369W        W85794   9.717  39.374  10.592
13370W        W85795  21.770  16.716  12.667
13371W        W85796  36.353  17.933  12.889
13372W        W85797  33.655  11.662   2.627
13373W        W85798  23.047  38.829   0.209
13374W        W85799  32.140  23.271   4.774
13375W        W85800  17.729  20.735   0.372
13376W        W85801  20.018  10.091  12.124
13377W        W85802  40.938  11.698   1.542
13378W        W85803  17.660  38.952   3.611
13379W        W85804  27.173  38.282   1.443
13380W        W85805  35.906  32.539  10.739
13381W        W85806  20.485   5.645  11.548
13382W        W85807   3.418  40.089  13.630
13383W        W85808  30.935  10.619   1.306
13384W        W85809  23.042  16.696  10.592
13385W        W85810  41.797  36.306  13.159
13386W        W85811  36.832  34.398   3.621
13387W        W85812   7.362  18.604   2.170
13388W        W85813   9.808  14.340   3.675
13389W        W85814  11.257  25.212   0.252
13390W        W85815  26.280  29.589   3.301
13391W        W85816  43.663  33.750  12.469
13392W        W85817  15.107  42.318  10.666
13393W        W85818  32.875  13.222  14.811
13394W        W85819   7.658  38.277   2.593
13395W        W85820  12.807  26.973  12.284
13396W        W85821  30.179  41.327  13.808
13397W        W85822  44.887   3.283   3.672
13398W        W85823   5.592  35.082   4.551
13399W        W85824  12.127  26.225   2.163
13400W        W85825   4.871  10.899  11.648
13401W        W85826  15.569  42.688   0.920
13402W        W85827  29.170  30.558  11.502
13403W        W85828  41.961  40.806   4.456
13404W        W85829  36.861  13.789   0.019
13405W        W85830   4.724  27.564   2.416
13406W        W85831   0.973  34.645   2.778
13407W        W85832  25.009  12.128   1.329
13408W        W85833   2.235  37.659   2.412
13409W        W85834   7.403   0.029  13.071
13410W        W85835  17.270  37.140   0.971
13411W        W85836  43.071  18.687   2.929
13412W        W85837  26.450  41.504  11.163
13413W        W85838  39.240  26.838   3.664
13414W        W85839  33.875  36.615   1.723
13415W        W85840  27.760  27.732   4.924
13416W        W85841  36.437   5.681   3.824
13417W        W85842  12.856  28.415   2.383
13418W        W85843  17.901  24.769   3.348
13419W        W85844   9.307  13.520   2.337
13420W        W85845  43.418  20.988  14.297
13421W        W85846  11.384  41.364  13.301
13422W        W85847  33.922  43.817   2.148
13423W        W85848  38.232  40.274   1.399
13424W        W85849  44.262   2.742   0.935
13425W        W85850  21.298  27.750  14.739
13426W        W85851  28.080   8.695   1.037
13427W        W85852  32.540  25.635  13.343
13428W        W85853   3.992  25.542   3.685
13429W        W85854  17.165  12.639   4.901
13430W        W85855  39.018  34.863   1.852
13431W        W85856  37.945  20.988   1.228
13432W        W85857   6.634   0.936  11.094
13433W        W85858  39.911  24.194  14.338
13434W        W85859   0.629  36.235   4.553
13435W        W85860  17.960  24.526   2.894
13436W        W85861  16.871  26.875  13.886
13437W        W85862  17.902  40.767   4.102
13438W        W85863  13.326   4.702  13.666
13439W        W85864  10.796  10.282   2.435
13440W        W85865   7.221   1.810  14.742
13441W        W85866  39.800   7.175  12.575
13442W        W85867  18.824   1.166  14.558
13443W        W85868  15.374  20.747  14.861
13444W        W85869  38.777  20.112   4.619
13445W        W85870  27.225  23.260  10.535
13446W        W85871  40.056  24.878   0.764
13447W        W85872  41.624  42.394   0.939
13448W        W85873  20.825  15.878   3.645
13449W        W85874  24.479  12.380   2.224
13450W        W85875   1.213   4.278   1.308
13451W        W85876   3.625  11.500  13.428
13452W        W85877  41.598   8.214  12.596
13453W        W85878  25.007  31.520   1.701
13454W        W85879  11.127  15.750   0.881
13455W        W85880  34.300  42.531   1.333
13456W        W85881  42.533   0.366  12.495
13457W        W85882  11.867  34.409   1.247
13458W        W85883  19.850  33.937  11.232
13459W        W85884  23.201  32.562   1.920
13460W        W85885  43.284  21.928  11.363
13461W        W85886   3.487  25.577   3.812
13462W        W85887   5.038  43.388   0.966
13463W        W85888  30.091  10.835  14.279
13464W        W85889   6.262  18.021   0.259
13465W        W85890  20.667  20.018   2.414
13466W        W85891  12.707  26.284  12.969
13467W        W85892  41.263  14.391  11.585
13468W        W85893  41.139  26.633   2.206
13469W        W85894  38.225  18.244  11.598
13470W        W85895  18.035   6.906   0.574
13471W        W85896  19.578  30.530  14.332
13472W        W85897  30.853  35.882   1.270
13473W        W85898  19.540  44.220   2.340
13474W        W85899  20.631   0.546   2.066
13475W        W85900  16.677  23.174   2.899
13476W        W85901  24.435  43.762  14.056
13477W        W85902  43.972   7.221  10.604
13478W        W85903  13.131  10.673   2.103
13479W        W85904  29.063  35.664   1.054
13480W        W85905  26.941   7.739  14.965
13481W        W85906  13.859  12.191  13.434
13482W        W85907  34.202  34.116  10.744
13483W        W85908  42.826  10.159  14.640
13484W        W85909  22.656  38.484  11.468
13485W        W85910  20.262  36.167   0.415
13486W        W85911   2.564   0.437  11.176
13487W        W85912  24.298  38.918  14.490
13488W        W85913  43.602  38.073  11.892
13489W        W85914  23.568  10.458  14.436
13490W        W85915  23.702  36.282  14.036
13491W        W85916  15.733  44.747   3.431
13492W        W85917   4.889  16.273   3.838
13493W        W85918  10.138  38.965  13.911
13494W        W85919  20.461   2.437  10.447
13495W        W85920  43.408   2.145  14.567
13496W        W85921  30.171  30.182   3.458
13497W        W85922  23.107  31.495   0.209
13498W        W85923  10.378  21.627  14.914
13499W        W85924  44.602  36.036   1.846
13500W        W85925  14.193  39.380  12.941
13501W        W85926  25.586  41.448  11.671
13502W        W85927  37.453  39.430  12.081
13503W        W85928  27.023  28.566  10.635
13504W        W85929  19.934  21.300   3.634
13505W        W85930  15.036  38.082  13.888
13506W        W85931  10.887  43.739  11.131
13507W        W85932  34.521  25.679  10.485
13508W        W85933   4.956  25.616   3.751
13509W        W85934   5.550  32.315   4.574
13510W        W85935  11.385  39.574  11.912
13511W        W85936  38.843   4.193   0.439
13512W        W85937  15.484  34.594  13.505
13513W        W85938  27.003  23.736  11.632
13514W        W85939   8.203  44.784  11.231
13515W        W85940  44.371  39.040  14.270
13516W        W85941   1.462  26.974  11.662
13517W        W85942  41.616  36.872  10.724
13518W        W85943   9.400   1.403  11.714
13519W        W85944  15.226  38.382   4.544
13520W        W85945  43.986   5.817   4.594
13521W        W85946  10.346  13.334   0.221
13522W        W85947  23.074  32.342  12.469
13523W        W85948  17.297  43.301   3.888
13524W        W85949  19.021   5.441  12.555
13525W        W85950  15.463  23.035   0.380
13526W        W85951   9.791  14.954  13.193
13527W        W85952  26.072   8.347  11.590
13528W        W85953  38.774  20.670   1.308
13529W        W85954  14.786  24.517   2.900
13530W        W85955  23.167  17.532  12.025
13531W        W85956  38.388   9.865   3.620
13532W        W85957  36.573   5.861   3.344
13533W        W85958  40.350  21.008   2.317
13534W        W85959  29.539  28.197  14.088
13535W        W85960  18.173  35.428  11.927
13536W        W85961  35.414  14.285   1.808
13537W        W85962  22.198   8.807   3.254
13538W        W85963  32.416  42.022   3.613
13539W        W85964  26.845  32.491   4.931
13540W        W85965  36.458  20.505   4.480
13541W        W85966  28.187  44.927   4.101
13542W        W85967  36.875  22.122   2.196
13543W        W85968  41.488  22.106   0.106
13544W        W85969   7.604   0.438  14.860
13545W        W85970  33.324  24.019  13.534
13546W        W85971  26.766  43.485  10.729
13547W        W85972  28.781  14.717  12.448
13548W        W85973  26.439  16.804  14.382
13549W        W85974  14.653  30.869   3.271
13550W        W85975  42.460   6.406   1.631
13551W        W85976  38.890   3.210   4.602
13552W        W85977  37.479   7.822  14.258
13553W        W85978  22.041  23.499  14.638
13554W        W85979   6.828   6.739   0.070
13555W        W85980   7.439  24.538  14.579
13556W        W85981  39.561  21.342   4.194
13557W        W85982  10.280  29.671  12.051
13558W        W85983  36.480   0.333   2.002
13559W        W85984   7.190  43.867  14.271
13560W        W85985  20.338  34.561   2.767
13561W        W85986  14.333  27.033   1.806
13562W        W85987   6.310  30.866  11.873
13563W        W85988  32.194  27.456  13.440
13564W        W85989   4.959  41.043   4.683
13565W        W85990   5.514  11.733  11.554
13566W        W85991  41.534  22.737   3.295
13567W        W85992   5.736  31.162   0.849
13568W        W85993  37.640   1.426  11.642
13569W        W85994  41.142   2.671  12.054
13570W        W85995  10.970  24.732  11.691
13571W        W85996  21.138  41.581  13.038
13572W        W85997  13.747   8.113   2.378
13573W        W85998  16.065  36.119  11.966
13574W        W85999  25.526  21.531  10.876
13575W        W86000   7.675  25.604  14.800
13576W        W86001  42.338  16.887  11.699
13577W        W86002  31.973  32.838   4.204
13578W        W86003  22.481  24.856  11.687
13579W        W86004  35.428   2.880   1.771
13580W        W86005  39.471  24.159   3.230
13581W        W86006  34.067  12.254   0.735
13582W        W86007   2.717   1.766   2.869
13583W        W86008  10.574  28.612  13.406
13584W        W86009   8.688  29.697   1.619
13585W        W86010   4.764  27.614   0.928
13586W        W86011  12.557  41.150   3.683
13587W        W86012   9.323  19.567   2.331
13588W        W86013  30.578   0.639  12.268
13589W        W86014  34.256  14.398  13.000
13590W        W86015  14.226  20.707  10.919
13591W        W86016  14.088  37.035   1.659
13592W        W86017  41.424  12.232  10.959
13593W        W86018  38.758  18.660   2.310
13594W        W86019   3.998  18.090   4.168
13595W        W86020  15.575  18.465   3.597
13596W        W86021  25.691  15.263   1.780
13597W        W86022  43.711  34.519   3.151
13598W        W86023  22.273  23.810   2.153
13599W        W86024  17.707  19.663  10.404
13600W        W86025  16.392  40.487  11.263
13601W        W86026  23.967   1.554  11.096
13602W        W86027  39.436  21.798   0.868
13603W        W86028  24.817  35.511   3.148
13604W        W86029   3.720  38.422  10.726
13605W        W86030  14.674  41.231   0.213
13606W        W86031  40.279  11.280   4.180
13607W        W86032  40.461   6.155   0.579
13608W        W86033  29.085   3.963   0.391
13609W        W86034  29.716   2.013  11.094
13610W        W86035  35.483   6.205   4.704
13611W        W86036  12.628   0.451  14.599
13612W        W86037  44.499  10.354   4.076
13613W        W86038  33.458  27.888   1.290
13614W        W86039  14.570   1.784  10.589
13615W        W86040  44.433  40.985   4.384
13616W        W86041  23.987  42.296   1.871
13617W        W86042  25.410  31.451  14.451
13618W        W86043   0.542   2.996  12.637
13619W        W86044   8.716   2.738  11.375
13620W        W86045   7.242  22.686   1.774
13621W        W86046  16.874  34.910   4.103
13622W        W86047  28.337  19.217   0.803
13623W        W86048  20.769  10.065  12.714
13624W        W86049   7.508  12.823   1.225
13625W        W86050  40.861  39.528   4.384
13626W        W86051   7.288   7.344  11.574
13627W        W86052  38.573   8.499  13.303
13628W        W86053  30.010  26.122  12.543
13629W        W86054   7.444   7.666  13.031
13630W        W86055  36.530  14.784  12.893
13631W        W86056  30.963  15.200  14.962
13632W        W86057   8.244  15.709   0.986
13633W        W86058  40.853  25.038   0.071
13634W        W86059   8.633  13.699   1.817
13635W        W86060   7.741  10.126   0.497
13636W        W86061  40.541  26.404  13.513
13637W        W86062  13.195  19.393  10.593
13638W        W86063  25.060  38.513   1.254
13639W        W86064  37.557  20.024   1.138
13640W        W86065  41.773  43.803   2.091
13641W        W86066  22.711   4.252  12.497
13642W        W86067  35.612  11.151   4.202
13643W        W86068   6.936  20.323   4.136
13644W        W86069  32.110  35.890  13.555
13645W        W86070  13.373  27.836  12.062
13646W        W86071   6.181  34.394  14.406
13647W        W86072   4.712  28.568   4.080
13648W        W86073  18.316  29.637  11.838
13649W        W86074   4.205  31.012   1.936
13650W        W86075  23.208  20.019   3.171
13651W        W86076  43.818  21.508  12.925
13652W        W86077  33.178  31.400  13.567
13653W        W86078   2.848   2.448   2.337
13654W        W86079  17.805  38.405   1.280
13655W        W86080  29.957   8.905   2.288
13656W        W86081  44.660  41.767  11.146
13657W        W86082  24.781  19.311   1.718
13658W        W86083  17.110  38.308  10.671
13659W        W86084  12.268  30.193  12.564
13660W        W86085   9.646  20.060  12.969
13661W        W86086  15.528  12.687   1.266
13662W        W86087  10.208  32.608  10.615
13663W        W86088  16.951  15.354  11.051
13664W        W86089  34.976  43.806  13.454
13665W        W86090  22.762  13.391  14.821
13666W        W86091  34.652   7.242   0.325
13667W        W86092  16.238  23.291  10.569
13668W        W86093   2.968  35.997  10.688
13669W        W86094  36.953   3.317  11.268
13670W        W86095  25.968  41.751   0.031
13671W        W86096   3.188  36.162   0.827
13672W        W86097   3.315  38.466   4.784
13673W        W86098  17.158  30.610   2.203
13674W        W86099  33.054   4.997   2.784
13675W        W86100   3.775  20.488  13.086
13676W        W86101  37.567   5.118  14.858
13677W        W86102  23.503   0.728  13.873
13678W        W86103  21.073   6.653  12.984
13679W        W86104  43.403  34.329   4.115
13680W        W86105  21.037  33.868  11.140
13681W        W86106  32.007  37.747   5.006
13682W        W86107  13.215   4.891  12.677
13683W        W86108  25.183   9.080  14.999
13684W        W86109  33.494   2.247  12.284
13685W        W86110   3.518  37.443   0.325
13686W        W86111  38.319  20.166   4.368
13687W        W86112  38.842  36.428  14.436
13688W        W86113   2.504  14.709  10.520
13689W        W86114  39.387   0.682   2.271
13690W        W86115  27.088   4.402  12.950
13691W        W86116   4.377  37.559  12.063
13692W        W86117   2.688  43.542  14.879
13693W        W86118   6.153  36.379   2.457
13694W        W86119   3.382   6.366   1.227
13695W        W86120  36.268  16.702  13.719
13696W        W86121   6.652   6.352  10.604
13697W        W86122  12.600   2.819  10.700
13698W        W86123  27.690  29.589   1.777
13699W        W86124  44.286   6.285   1.269
13700W        W86125  26.916  44.049  12.307
13701W        W86126  41.529  28.891   4.741
13702W        W86127  13.281   5.862   3.582
13703W        W86128  37.400  24.664  12.469
13704W        W86129  41.729  35.076   4.175
13705W        W86130  36.171  20.039  11.238
13706W        W86131  21.581  15.918  11.014
13707W        W86132  39.809  10.751  12.658
13708W        W86133  32.652  33.473  11.585
13709W        W86134  11.147  14.212   3.722
13710W        W86135  29.136  10.254  12.004
13711W        W86136  24.529  33.897   4.745
13712W        W86137  39.549  18.201   1.055
13713W        W86138  18.506  11.128  10.806
13714W        W86139  10.822   0.041   0.853
13715W        W86140  28.407  12.130   2.400
13716W        W86141  19.047  27.871   1.033
13717W        W86142   3.811   3.001  14.995
13718W        W86143  27.110  31.232  10.645
13719W        W86144  24.500  29.051  14.402
13720W        W86145  44.280   4.237  13.303
13721W        W86146   8.455  36.256  14.648
13722W        W86147   2.685  28.209   0.375
13723W        W86148  34.917  32.914  11.146
13724W        W86149  26.184  10.731   0.059
13725W        W86150   0.760   8.664  12.557
13726W        W86151  19.285  35.885  13.381
13727W        W86152  33.100   6.717  12.374
13728W        W86153  41.535  22.497  11.494
13729W        W86154   1.623  13.660   0.524
13730W        W86155   6.266  19.306  10.672
13731W        W86156  12.335  38.695  12.625
13732W        W86157   1.259  40.847   3.048
13733W        W86158  33.053  34.913   3.082
13734W        W86159  40.591  43.953  11.639
13735W        W86160  23.093  39.357   2.208
13736W        W86161  28.934   2.951   1.276
13737W        W86162  44.285  14.494  11.179
13738W        W86163  18.150  18.130   3.868
13739W        W86164  41.831  42.984  12.960
13740W        W86165   1.202  18.743   1.838
13741W        W86166  24.600  29.671   2.306
13742W        W86167   0.462   9.057  12.679
13743W        W86168  31.780  30.084  12.009
13744W        W86169  30.135  14.552  14.870
13745W        W86170  27.872  28.260  11.594
13746W        W86171  32.288  25.094  12.431
13747W        W86172  22.936  43.386   3.490
13748W        W86173  42.555  20.227  11.044
13749W        W86174   3.157  18.516  14.861
13750W        W86175   3.188  18.569  13.485
13751W        W86176   4.515  40.403  14.283
13752W        W86177  25.597   0.201  11.144
13753W        W86178  33.559  33.146   4.517
13754W        W86179   8.748  11.659   2.877
13755W        W86180   7.447  35.644  14.461
13756W        W86181  43.909   3.857   4.317
13757W        W86182  27.430  40.712   2.799
13758W        W86183  40.959  18.084  13.324
13759W        W86184  12.860  37.049  11.853
13760W        W86185  44.520  12.093   4.699
13761W        W86186  22.113  41.822  12.104
13762W        W86187  36.600  41.358  12.324
13763W        W86188  34.910  31.439   2.382
13764W        W86189  21.207  41.780  12.088
13765W        W86190  24.592   7.176   0.930
13766W        W86191  16.500  36.977  13.909
13767W        W86192  40.309  37.023  14.412
13768W        W86193  34.377  13.452   2.616
13769W        W86194  22.180   8.291  12.071
13770W        W86195  43.108  23.775  12.603
13771W        W86196   7.864  29.579  11.506
13772W        W86197  17.658  26.957  13.422
13773W        W86198  29.674  44.714   2.838
13774W        W86199   8.189   8.192   2.137
13775W        W86200  24.851  15.700   9.860
13776W        W86201  18.788  27.990  10.908
13777W        W86202  25.172  42.113   0.414
13778W        W86203  12.163  41.872  14.383
13779W        W86204  19.148   6.058  14.799
13780W        W86205   4.974  16.558  14.911
13781W        W86206  10.031  15.469  11.634
13782W        W86207  36.760  38.751  12.920
13783W        W86208  13.788  23.057   5.007
13784W        W86209  33.563  27.908  14.940
13785W        W86210  10.681   1.803   4.405
13786W        W86211  13.653  24.350   9.655
13787W        W86212  24.789   1.410   1.069
13788W        W86213  21.981  28.210   3.120
13789W        W86214  13.937   7.394   0.964
13790W        W86215   6.098  28.169  12.529
13791W        W86216   4.740  10.398  11.706
13792W        W86217  33.673  17.697   0.023
13793W        W86218  27.316  14.658   0.062
13794W        W86219  27.418  44.939  12.574
13795W        W86220  32.875  17.688   2.890
13796W        W86221  11.823  14.533  11.172
13797W        W86222  15.826   8.650  12.008
13798W        W86223  12.385   2.728   1.391
13799W        W86224   0.303  43.738  12.873
13800W        W86225  36.443  37.372   2.484
13801W        W86226   2.494   6.141   1.243
13802W        W86227  20.512  25.183  14.303
13803W        W86228  16.855  26.578   3.330
13804W        W86229  27.748  39.307   9.742
13805W        W86230  16.530   5.939   4.544
13806W        W86231  23.197  18.825   3.981
13807W        W86232  32.701  11.872   0.445
13808W        W86233  11.120  39.031   2.741
13809W        W86234  24.818   4.427   4.593
13810W        W86235   6.641  11.890  10.417
13811W        W86236   0.445   6.470  13.561
13812W        W86237  27.002  42.969   2.760
13813W        W86238  15.675  16.897  10.178
13814W        W86239  29.336  30.064   4.518
13815W        W86240  21.497   3.774   2.265
13816W        W86241  23.512   1.097  11.049
13817W        W86242  27.975  31.522  13.366
13818W        W86243   3.605  37.460  12.483
13819W        W86244  14.238   4.320   3.597
13820W        W86245  29.097  11.574  12.512
13821W        W86246   2.551  20.085   1.711
13822W        W86247  13.106  29.531  11.003
13823W        W86248   9.811  34.089  14.957
13824W        W86249  41.003  29.711   1.023
13825W        W86250  11.419  36.333  11.453
13826W        W86251  40.257  37.705   1.845
13827W        W86252  10.968  43.512   0.429
13828W        W86253  22.003  23.003   4.663
13829W        W86254  17.270  11.880  14.017
13830W        W86255  17.336  42.504  11.047
13831W        W86256  36.371  34.725   4.219
13832W        W86257   4.223  44.313   0.249
13833W        W86258   7.993  35.125   2.317
13834W        W86259  28.860   8.664  11.420
13835W        W86260  23.617  21.128   4.508
13836W        W86261  15.210  12.072   1.943
13837W        W86262  33.955   8.924  11.930
13838W        W86263   0.235  41.833   0.720
13839W        W86264   6.446   7.841   2.650
13840W        W86265  44.081  12.680  12.902
13841W        W86266   5.863  28.418   0.364
13842W        W86267  21.541  17.742  12.540
13843W        W86268  12.617  38.383  12.977
13844W        W86269  34.868  42.570  14.912
13845W        W86270  35.228  21.521   3.823
13846W        W86271  27.650   3.874   4.945
13847W        W86272  30.479  27.272  13.392
13848W        W86273  35.402  26.707  12.557
13849W        W86274  28.507  27.574   3.769
13850W        W86275   7.886  31.415  14.110
13851W        W86276  39.860   6.324   0.197
13852W        W86277  35.456  19.240   3.823
13853W        W86278  32.895  20.915   0.380
13854W        W86279  31.133   4.852   0.363
13855W        W86280  12.650   8.276   4.197
13856W        W86281   3.270   6.653  14.437
13857W        W86282  24.253   3.699  14.097
13858W        W86283  13.111  44.550  10.332
13859W        W86284  29.570  39.342   1.887
13860W        W86285  23.616  39.539   4.826
13861W        W86286   0.654   7.403  11.182
13862W        W86287  13.293  39.192  12.776
13863W        W86288   7.461  44.872   1.314
13864W        W86289  27.497  37.488   2.300
13865W        W86290  32.632  16.076   2.698
13866W        W86291  38.442   3.601  13.364
13867W        W86292  32.335   1.715  13.464
13868W        W86293  35.108  31.902   2.620
13869W        W86294   9.636  27.491   0.338
13870W        W86295  37.101  32.866  13.512
13871W        W86296   9.799   0.996   0.964
13872W        W86297  38.446  38.082   0.253
13873W        W86298  37.963  13.704   3.565
13874W        W86299  29.153  32.796   1.909
13875W        W86300  21.541  26.705  14.483
13876W        W86301  27.563   5.232  14.008
13877W        W86302  13.199   4.961  11.163
13878W        W86303  13.429  31.574   2.884
13879W        W86304  36.355  44.877   0.219
13880W        W86305  17.445  34.682  10.128
13881W        W86306  28.007  29.186  12.565
13882W        W86307  18.713  28.939  10.465
13883W        W86308  34.208  11.263   1.804
13884W        W86309  23.861  19.451   1.293
13885W        W86310   5.283  37.135  10.471
13886W        W86311   8.388  29.700   4.607
13887W        W86312   8.809  35.128  12.498
13888W        W86313  13.097   3.914  11.050
13889W        W86314  44.332  25.162  10.653
13890W        W86315  18.595  18.089  14.867
13891W        W86316  35.907  23.184  13.862
13892W        W86317  25.535  24.786  13.546
13893W        W86318  21.625   7.794  11.606
13894W        W86319  42.980  43.175   1.597
13895W        W86320  30.742  28.807   3.862
13896W        W86321  26.021   0.555  12.878
13897W        W86322   2.508  44.008   0.046
13898W        W86323   5.650   9.400  12.821
13899W        W86324  12.593  42.536  14.063
13900W        W86325  19.283  42.072  14.002
13901W        W86326  36.548   2.262   4.599
13902W        W86327  39.405  31.169  11.216
13903W        W86328  36.396   9.761  13.920
13904W        W86329  30.041   9.159  13.377
13905W        W86330  19.257   8.771   0.993
13906W        W86331   7.336  32.680   4.806
13907W        W86332   4.841  22.533   1.046
13908W        W86333  21.487  10.114   1.925
13909W        W86334  23.812   0.935  10.647
13910W        W86335  18.017  19.596  14.800
13911W        W86336  43.746  10.339   4.642
13912W        W86337  40.621   8.901   4.468
13913W        W86338  23.305  35.715  13.094
13914W        W86339  38.371  37.178  13.584
13915W        W86340  39.837   3.253   2.686
13916W        W86341  33.550  21.707   0.025
13917W        W86342  35.648  13.324   1.556
13918W        W86343  31.278  34.014  14.749
13919W        W86344  28.038  33.925   2.701
13920W        W86345   4.524  10.737  10.393
13921W        W86346  38.265  36.764   1.720
13922W        W86347  15.681  24.206  12.870
13923W        W86348  18.203  28.023   3.362
13924W        W86349   6.503  34.979   0.780
13925W        W86350  34.398   7.121  11.850
13926W        W86351  25.497   0.839  14.415
13927W        W86352  27.150  35.899  12.035
13928W        W86353  26.693  41.285  13.909
13929W        W86354  13.616   1.347   9.858
13930W        W86355  37.787  19.531   0.317
13931W        W86356  36.111  41.903   1.331
13932W        W86357  37.445  35.559  14.989
13933W        W86358  32.618  30.978   0.862
13934W        W86359   9.938   3.675   0.683
13935W        W86360   7.119   7.995   4.969
13936W        W86361  20.761  34.343   1.007
13937W        W86362  13.090  34.648   3.741
13938W        W86363  30.973  21.013   0.479
13939W        W86364  26.638  17.839   0.247
13940W        W86365  33.345  42.214  11.996
13941W        W86366  33.332  39.853  12.974
13942W        W86367   6.782  36.737   3.588
13943W        W86368  42.203   4.527   3.204
13944W        W86369  12.315  43.161  13.435
13945W        W86370   1.052  20.997  12.060
13946W        W86371   8.526  31.660  13.449
13947W        W86372  37.401  16.564  12.600
13948W        W86373  19.023  33.040  11.983
13949W        W86374   8.124  11.416   0.707
13950W        W86375  17.301   3.839  11.090
13951W        W86376  40.740   3.067   4.865
13952W        W86377  33.977   1.014  13.295
13953W        W86378  14.261  15.308  10.592
13954W        W86379  35.499   4.641  11.661
13955W        W86380  34.484  12.559   0.781
13956W        W86381  41.524  35.490   2.278
13957W        W86382  24.158   4.968  10.485
13958W        W86383  15.019  12.732   1.365
13959W        W86384  28.977  28.181  12.907
13960W        W86385  26.960  17.437   5.057
13961W        W86386  38.843  18.534   3.167
13962W        W86387  38.562  12.202  13.077
13963W        W86388  35.542  38.322   4.238
13964W        W86389  12.286  11.673   3.362
13965W        W86390   4.211   1.782  12.127
13966W        W86391  20.447  31.886   1.735
13967W        W86392  17.125  41.276   1.352
13968W        W86393  24.952  16.824  14.299
13969W        W86394  31.653   1.908   3.974
13970W        W86395  20.348  16.068  13.174
13971W        W86396  31.624  12.550   4.067
13972W        W86397  24.898  35.158  14.305
13973W        W86398  35.013   5.800  12.854
13974W        W86399  41.326  32.137  13.154
13975W        W86400   2.556  15.597  13.260
13976W        W86401  43.621  16.746   2.283
13977W        W86402   7.410  12.339  11.501
13978W        W86403   2.693  43.972   2.216
13979W        W86404  42.429  44.856  12.508
13980W        W86405   2.639   9.601  13.411
13981W        W86406  12.900  30.524   2.843
13982W        W86407   7.486   2.436  10.410
13983W        W86408   5.392  42.064   2.600
13984W        W86409   5.864   1.494   4.710
13985W        W86410  14.983  34.971   4.509
13986W        W86411  29.845  10.922  12.987
13987W        W86412  24.479  37.610  11.615
13988W        W86413   0.138  37.595  10.432
13989W        W86414  16.114  33.004   1.056
13990W        W86415  15.824  29.556   3.019
13991W        W86416  11.123  16.757   4.617
13992W        W86417  37.401   5.050  13.319
13993W        W86418  32.145   0.014   0.925
13994W        W86419   2.762  32.015   4.235
13995W        W86420  38.500  33.333  13.416
13996W        W86421  16.784  28.192   2.653
13997W        W86422  24.462  17.707   3.650
13998W        W86423  15.378  22.121   1.686
13999W        W86424  17.095   8.442   0.997
14000W        W86425  39.592   7.262  13.038
14001W        W86426  26.309  42.226  12.561
14002W        W86427  40.886  40.811  11.683
14003W        W86428  37.594  27.495   1.839
14004W        W86429   9.264  30.685   0.118
14005W        W86430  21.082  20.257   1.395
14006W        W86431  10.718  31.375  14.006
14007W        W86432  21.751  43.044   2.778
14008W        W86433  16.854   2.218   4.296
14009W        W86434  36.794   2.396  13.039
14010W        W86435   1.245  22.049   2.752
14011W        W86436  37.294  18.579  14.517
14012W        W86437  15.862  23.201   3.902
14013W        W86438   8.694  17.927  11.544
14014W        W86439   4.293  17.182   0.306
14015W        W86440  30.129  11.824   4.218
14016W        W86441  20.598  17.572  12.255
14017W        W86442  41.836  15.224  10.461
14018W        W86443  19.265  16.241   0.415
14019W        W86444  22.050  31.519   1.668
14020W        W86445  23.950   1.314   3.256
14021W        W86446  41.349   4.487   0.871
14022W        W86447   6.185  37.463   1.349
14023W        W86448   8.108  18.666   3.594
14024W        W86449  20.880   7.260   4.075
14025W        W86450  11.064   0.559  13.737
14026W        W86451  20.064  33.419  14.562
14027W        W86452  15.996  34.206  11.141
14028W        W86453  44.454  31.526  11.981
14029W        W86454  13.810   8.176  14.542
14030W        W86455   8.170  36.118  10.657
14031W        W86456  36.246  15.657  13.857
14032W        W86457  32.546  33.695  12.050
14033W        W86458  39.043   1.452  13.376
14034W        W86459  31.480  39.493   4.871
14035W        W86460   2.188  43.997  12.394
14036W        W86461  18.096  41.240   3.218
14037W        W86462   5.728   4.922  10.655
14038W        W86463  12.649  14.074   3.714
14039W        W86464  17.120  13.180   0.189
14040W        W86465  26.434  14.259   3.073
14041W        W86466   2.128  21.115  11.440
14042W        W86467   3.686  38.557   3.132
14043W        W86468  40.410  20.315  13.890
14044W        W86469  29.462  11.887   4.678
14045W        W86470  27.472  26.550  12.564
14046W        W86471  27.662  27.614   3.936
14047W        W86472  44.206   7.248  11.070
14048W        W86473  26.057   3.807  12.497
14049W        W86474  19.573  21.674   3.627
14050W        W86475  34.967  22.137   0.729
14051W        W86476  15.306  28.597   0.190
14052W        W86477   3.294   3.253  12.894
14053W        W86478  33.940   7.343  11.059
14054W        W86479  15.035   5.058  13.547
14055W        W86480  42.903  41.024   2.847
14056W        W86481  32.856  15.125  13.721
14057W        W86482  18.386  25.311   3.689
14058W        W86483   9.347  33.476  12.103
14059W        W86484   1.428   9.076  13.008
14060W        W86485  26.640  26.223  10.924
14061W        W86486   2.488  15.248  12.293
14062W        W86487  36.757   7.621   1.927
14063W        W86488  28.549  12.009  13.999
14064W        W86489  26.986   5.595  14.378
14065W        W86490  32.669  43.385  12.896
14066W        W86491  26.646  15.713  13.368
14067W        W86492  35.976  26.193  12.148
14068W        W86493  23.564   1.646   3.314
14069W        W86494  27.013  22.731   0.613
14070W        W86495  29.663  25.639   3.658
14071W        W86496  23.992  21.989  13.256
14072W        W86497  22.810  25.397  14.980
14073W        W86498  13.193  36.524  13.739
14074W        W86499  27.611  42.447  14.195
14075W        W86500  12.082  12.478   0.686
14076W        W86501   7.350  42.910   1.277
14077W        W86502   3.920  14.092  11.601
14078W        W86503  21.184   5.003  11.221
14079W        W86504  12.855  33.362   3.738
14080W        W86505  34.616  12.644   2.270
14081W        W86506  21.640  39.403  11.583
14082W        W86507  23.201   3.908  10.964
14083W        W86508  28.368   9.107   0.897
14084W        W86509   7.179  31.244  11.129
14085W        W86510  26.485  12.608   1.330
14086W        W86511  41.200  38.086  11.326
14087W        W86512  30.040  33.519   2.600
14088W        W86513  36.633   5.816   0.552
14089W        W86514  20.143  39.578   0.856
14090W        W86515  18.118  31.867   0.969
14091W        W86516  41.484  42.323   0.435
14092W        W86517  11.656  36.532  11.944
14093W        W86518  10.743   2.361  14.093
14094W        W86519  41.929  14.398   0.515
14095W        W86520  20.708  20.027   3.262
14096W        W86521   6.804  44.406   2.803
14097W        W86522  42.216  35.121   2.448
14098W        W86523  13.859  43.987   2.848
14099W        W86524  29.173  13.780   1.324
14100W        W86525  44.586  22.510   1.139
14101W        W86526  15.140   5.682  12.128
14102W        W86527  12.092   7.280  12.867
14103W        W86528  17.390   3.109   3.821
14104W        W86529  35.399  17.288  11.524
14105W        W86530   7.905   9.809  14.788
14106W        W86531  43.350  16.235   3.139
14107W        W86532  28.963  23.497   2.252
14108W        W86533  14.140   2.899   2.165
14109W        W86534  23.237  16.902  13.755
14110W        W86535  33.532  41.674   0.680
14111W        W86536  18.713  42.999  10.533
14112W        W86537  29.172   1.238   3.368
14113W        W86538  25.639  15.064  12.461
14114W        W86539  37.471   8.094  10.187
14115W        W86540  33.509  27.427   3.205
14116W        W86541  40.006   4.207   1.825
14117W        W86542  22.115  25.185   1.325
14118W        W86543  20.686  40.336   1.805
14119W        W86544  28.485  24.210   2.439
14120W        W86545  30.030  23.706  10.437
14121W        W86546  10.821  12.865  14.838
14122W        W86547  23.569  28.131  11.066
14123W        W86548  10.866  22.247  11.558
14124W        W86549   8.587  37.316   0.363
14125W        W86550  30.076  41.628   4.267
14126W        W86551  18.257  33.508  12.779
14127W        W86552  25.338  16.592  14.020
14128W        W86553  40.266   1.483   4.335
14129W        W86554   6.942  24.598  14.211
14130W        W86555  41.927  11.193   1.836
14131W        W86556  30.412  20.202  11.053
14132W        W86557  32.105   7.012  12.080
14133W        W86558  15.761  13.151   0.921
14134W        W86559  39.890  17.336  12.100
14135W        W86560   1.856  15.410  13.975
14136W        W86561   6.738  17.200  14.485
14137W        W86562  43.209  18.018  13.059
14138W        W86563  33.096  28.993  13.356
14139W        W86564  19.755  22.036   3.283
14140W        W86565  21.064  43.796  14.801
14141W        W86566  33.979  36.835  14.917
14142W        W86567   4.790   8.586   1.323
14143W        W86568  27.568  44.464  13.753
14144W        W86569  22.231   7.523   1.288
14145W        W86570   7.122  31.611   1.463
14146W        W86571  21.193  14.649  14.418
14147W        W86572  16.734  15.797   4.541
14148W        W86573   9.942  31.675   2.850
14149W        W86574   4.986  35.922  13.498
14150W        W86575   6.735   3.780   2.607
14151W        W86576  12.762  12.848  11.170
14152W        W86577   4.329  32.107  13.841
14153W        W86578  33.454   6.070   3.522
14154W        W86579  33.994   4.386   3.881
14155W        W86580  36.995   7.949   4.803
14156W        W86581  41.976  31.595   2.363
14157W        W86582  23.036   8.891  13.359
14158W        W86583   6.354  26.313  14.316
14159W        W86584  12.727  24.460  10.797
14160W        W86585   4.363  26.708  12.391
14161W        W86586  13.072  37.175  11.085
14162W        W86587  29.391  34.144   1.771
14163W        W86588  23.030  14.178   0.552
14164W        W86589  38.840  28.399   5.107
14165W        W86590  15.200  40.781  14.493
14166W        W86591  43.332  38.543   4.607
14167W        W86592  11.349  10.782  12.042
14168W        W86593  37.803  41.941   4.365
14169W        W86594  42.192   2.804   4.968
14170W        W86595   3.473  15.457  13.291
14171W        W86596   5.096   7.755   3.603
14172W        W86597  12.744  19.769  11.620
14173W        W86598   9.753  17.032  14.219
14174W        W86599  24.453   9.160   2.215
14175W        W86600  34.135  12.316   3.128
14176W        W86601  38.828  28.262  14.361
14177W        W86602  26.983  14.590   4.266
14178W        W86603  13.487  44.899  14.818
14179W        W86604  16.245  33.813   1.424
14180W        W86605  42.736  43.379   3.623
14181W        W86606   4.783   1.439   0.047
14182W        W86607  29.902  17.083  10.639
14183W        W86608  25.327   3.540   0.495
14184W        W86609   5.770   0.211  14.419
14185W        W86610  44.765  37.275  12.029
14186W        W86611   0.407  15.672   4.338
14187W        W86612  27.994  39.218   4.662
14188W        W86613  27.485   8.799   3.293
14189W        W86614  16.657  36.517   0.539
14190W        W86615  17.134   1.362  11.598
14191W        W86616  13.690   1.021  10.280
14192W        W86617  41.238   2.411  14.373
14193W        W86618  21.769   7.333  11.389
14194W        W86619   7.280  29.174   1.256
14195W        W86620  10.866   0.960  13.456
14196W        W86621  36.067   0.261   1.194
14197W        W86622  23.451  15.774   1.930
14198W        W86623  35.536  27.253   4.292
14199W        W86624  29.952  44.885   1.137
14200W        W86625  38.008   6.575  11.500
14201W        W86626  23.437   2.969  14.722
14202W        W86627  15.027   6.498   2.353
14203W        W86628   0.679  42.294  13.071
14204W        W86629  26.284   9.107   1.660
14205W        W86630   0.365  27.239   1.114
14206W        W86631  41.731   2.758  13.858
14207W        W86632  37.584  30.136  11.372
14208W        W86633  22.580  17.336  11.606
14209W        W86634   8.532  41.389   1.742
14210W        W86635  25.966  17.145   3.276
14211W        W86636  30.450  42.779  14.036
14212W        W86637  35.818  43.863  14.267
14213W        W86638  36.431   3.069   0.892
14214W        W86639  32.923  40.568   4.535
14215W        W86640  23.525  39.496   3.739
14216W        W86641   7.009   0.815   3.549
14217W        W86642  16.756   9.655  13.523
14218W        W86643  12.185  29.372  12.954
14219W        W86644   7.712  21.211  12.080
14220W        W86645  16.828  12.998   4.716
14221W        W86646  19.170  43.732   0.363
14222W        W86647  28.688  44.019   2.730
14223W        W86648  38.425   9.483  13.348
14224W        W86649  34.588   6.430   1.628
14225W        W86650   8.966  33.448   2.818
14226W        W86651  24.042   4.295   0.734
14227W        W86652   9.485  25.430  10.424
14228W        W86653  29.432  16.820  12.164
14229W        W86654   8.464   6.150   3.723
14230W        W86655  15.618  17.082   3.213
14231W        W86656   9.343   3.521   3.294
14232W        W86657  28.591   7.710   4.549
14233W        W86658   9.172  39.975  14.834
14234W        W86659  16.327   3.194  14.040
14235W        W86660   3.984  32.342   3.172
14236W        W86661   6.362   8.565   4.643
14237W        W86662   5.614  34.418  14.318
14238W        W86663  43.273  11.210  10.343
14239W        W86664  16.413   1.399  13.972
14240W        W86665   8.404  21.169   1.718
14241W        W86666  25.985  11.406   2.723
14242W        W86667   1.521   7.915   0.869
14243W        W86668  22.099  14.796  12.613
14244W        W86669  12.746  42.288   4.252
14245W        W86670  19.575  35.991  14.056
14246W        W86671  42.678  15.617  14.542
14247W        W86672  12.240  17.875   3.757
14248W        W86673  40.278  14.821  12.441
14249W        W86674  20.326  32.945   4.580
14250W        W86675  12.805   1.796  14.240
14251W        W86676  41.264  31.699   4.929
14252W        W86677  38.370  16.102  14.489
14253W        W86678   1.237  15.411   3.205
14254W        W86679  16.878  29.331  12.026
14255W        W86680  34.680  37.872  11.230
14256W        W86681   3.481  37.776   1.458
14257W        W86682  13.157  42.494   3.814
14258W        W86683  35.223   8.485   0.422
14259W        W86684  21.928  18.172  11.967
14260W        W86685   2.390   7.223  11.527
14261W        W86686   2.300   4.934  14.721
14262W        W86687  10.247  32.956  10.990
14263W        W86688   5.345  44.480   2.280
14264W        W86689  32.384  21.036   2.852
14265W        W86690   1.274   5.209  13.013
14266W        W86691  31.050  30.932  12.203
14267W        W86692  31.572  14.777   0.224
14268W        W86693   8.593   4.358  13.886
14269W        W86694  27.003  44.689  11.174
14270W        W86695  28.711  20.458   3.110
14271W        W86696  19.146  44.910  14.314
14272W        W86697  25.942  38.397  13.175
14273W        W86698  13.256  18.717  12.351
14274W        W86699  26.923  33.116  11.610
14275W        W86700  25.289  12.303  12.920
14276W        W86701  37.324  16.596   2.227
14277W        W86702  41.998  33.383   4.241
14278W        W86703  13.127  28.080  10.407
14279W        W86704  32.596   5.900  12.689
14280W        W86705  22.970  14.056  10.570
14281W        W86706  25.737  36.393   1.030
14282W        W86707   6.341  43.020  13.361
14283W        W86708  12.042  33.984   1.498
14284W        W86709  39.914  20.163   4.416
14285W        W86710  38.314  40.966  13.905
14286W        W86711   8.886  42.444   2.718
14287W        W86712  35.241  13.768  11.135
14288W        W86713  34.848  20.780   1.322
14289W        W86714  38.957   1.643   4.540
14290W        W86715   8.701  10.174   0.098
14291W        W86716  31.340  44.752   1.829
14292W        W86717  14.251  41.991  12.843
14293W        W86718  14.889  23.182  13.136
14294W        W86719  24.526  42.000  11.437
14295W        W86720  12.191  39.112  14.856
14296W        W86721   2.280   2.531   1.904
14297W        W86722  37.455  23.655   3.762
14298W        W86723   0.842  15.726   0.043
14299W        W86724  37.817  10.504   3.559
14300W        W86725   2.986  32.407  12.969
14301W        W86726   4.306   3.216   5.072
14302W        W86727   6.357  27.525   4.371
14303W        W86728  17.387   7.869  14.953
14304W        W86729  26.903  34.869  13.460
14305W        W86730  38.857  37.943   4.654
14306W        W86731   2.948  14.534   1.976
14307W        W86732  20.970  10.223   4.688
14308W        W86733   3.859  36.087   0.542
14309W        W86734  40.509  43.421  12.454
14310W        W86735   2.818   4.793   4.423
14311W        W86736  40.566   8.002   1.346
14312W        W86737  11.128  34.906  13.764
14313W        W86738   0.687  36.485  13.866
14314W        W86739  25.117  15.332  11.419
14315W        W86740  23.660   9.158  11.294
14316W        W86741  19.345  17.333  11.084
14317W        W86742  38.383  19.564   3.690
14318W        W86743  16.526   2.332  13.535
14319W        W86744  17.969  39.844  13.441
14320W        W86745  37.012  35.386   2.767
14321W        W86746  17.879  29.486  12.577
14322W        W86747  31.139  22.252  10.344
14323W        W86748  41.075  28.720  11.757
14324W        W86749   8.803  25.601  12.875
14325W        W86750  40.996  16.761   3.241
14326W        W86751  39.648  15.621  11.198
14327W        W86752  28.733   9.425   3.264
14328W        W86753   5.988  36.062  12.041
14329W        W86754  24.474  19.454   0.531
14330W        W86755  36.183  31.977   0.842
14331W        W86756  34.407  16.361   3.267
14332W        W86757  34.795  35.994   1.138
14333W        W86758   5.989  44.310  14.408
14334W        W86759  14.764  33.748  11.491
14335W        W86760  28.939  22.584  11.302
14336W        W86761  24.395  38.597  13.470
14337W        W86762  38.865  31.213   0.685
14338W        W86763   0.427  42.362   2.351
14339W        W86764  19.235  26.096   3.492
14340W        W86765  31.714  20.425  14.747
14341W        W86766  20.848  32.968   4.550
14342W        W86767  43.331  16.273  13.007
14343W        W86768  18.115   0.196   4.170
14344W        W86769  31.932   8.892   3.174
14345W        W86770  25.449  14.564   4.022
14346W        W86771  15.362  39.760  13.643
14347W        W86772  27.598   8.130   1.733
14348W        W86773  11.403  23.541   2.670
14349W        W86774  31.506  30.606  13.356
14350W        W86775  30.658  35.352   1.785
14351W        W86776   3.688   5.092   3.276
14352W        W86777  27.086  41.996   1.687
14353W        W86778   3.998  44.746  10.877
14354W        W86779   8.115  38.185   1.637
14355W        W86780  31.504  26.438  11.103
14356W        W86781   8.620  38.079  12.582
14357W        W86782  13.351  36.671   2.314
14358W        W86783  44.868  31.137  13.629
14359W        W86784  32.562  12.225  10.323
14360W        W86785  17.297   4.438  10.722
14361W        W86786   6.806  29.939   4.361
14362W        W86787  12.255  17.785  11.491
14363W        W86788  16.184   4.053  11.164
14364W        W86789  14.283   9.104   0.241
14365W        W86790  23.786   4.483   3.611
14366W        W86791   1.485  33.944   9.540
14367W        W86792  29.581  13.720   0.674
14368W        W86793  11.589   5.730   4.552
14369W        W86794  28.689  26.205  13.011
14370W        W86795  40.931  34.795  14.207
14371W        W86796   3.901  32.428   3.675
14372W        W86797  39.831   1.915   1.283
14373W        W86798   3.330  13.094   3.629
14374W        W86799  41.395  20.970  11.505
14375W        W86800  18.166  32.202   1.346
14376W        W86801  26.015  31.443   0.736
14377W        W86802   9.343  36.951  12.408
14378W        W86803  41.989   1.365   0.699
14379W        W86804   9.943  36.560   2.659
14380W        W86805  16.159   0.036   0.803
14381W        W86806  43.964  28.585   4.550
14382W        W86807   9.210   1.236   1.693
14383W        W86808  34.856  29.545  13.658
14384W        W86809  34.787  36.474   3.583
14385W        W86810  37.740  27.829  12.049
14386W        W86811  41.294  23.642   1.311
14387W        W86812  31.163  36.858  10.710
14388W        W86813  37.336   6.872   0.462
14389W        W86814  31.966  25.442   0.360
14390W        W86815  30.849  11.105   4.556
14391W        W86816  27.924  40.779   0.771
14392W        W86817  24.410  25.916  11.698
14393W        W86818  10.781   3.253   2.083
14394W        W86819  44.547  33.889   0.060
14395W        W86820  19.807  14.169   1.087
14396W        W86821  11.729  22.730   2.118
14397W        W86822  25.560  32.456  10.629
14398W        W86823   8.720  31.692  10.680
14399W        W86824  37.048  37.480  14.242
14400W        W86825  27.002   9.320   0.478
14401W        W86826   9.675  12.178   1.827
14402W        W86827  14.555  23.166  11.922
14403W        W86828  38.007  27.852  14.556
14404W        W86829  39.537  42.882   0.240
14405W        W86830  24.622  14.754   3.529
14406W        W86831  13.823  40.269  13.567
14407W        W86832  12.428   9.855  13.339
14408W        W86833  41.848   5.231  12.011
14409W        W86834  37.587  29.687   5.075
14410W        W86835  42.855  29.040   4.718
14411W        W86836   2.755  33.922  12.344
14412W        W86837  31.654  20.043   1.766
14413W        W86838   1.425   2.464   1.493
14414W        W86839  34.028  14.627  13.399
14415W        W86840   1.022  31.714   5.444
14416W        W86841  38.613  41.475  12.667
14417W        W86842  23.812  41.587   0.521
14418W        W86843  19.702  23.648  12.366
14419W        W86844  18.379  39.012   0.928
14420W        W86845   5.662  19.636   3.696
14421W        W86846   8.168   8.852   0.355
14422W        W86847  38.272  32.994   4.351
14423W        W86848  42.614   5.689   4.528
14424W        W86849  40.108  39.424  11.983
14425W        W86850  35.501   2.414   4.668
14426W        W86851   3.603   8.769  13.436
14427W        W86852  19.132  14.093   4.423
14428W        W86853  29.411  17.683   4.705
14429W        W86854   0.923  14.509  12.101
14430W        W86855  20.556  18.565  12.099
14431W        W86856  44.102  19.061   1.433
14432W        W86857  29.527  23.281  11.139
14433W        W86858  29.026  33.686  12.531
14434W        W86859  17.230  39.979   3.440
14435W        W86860   8.809  30.386   3.161
14436W        W86861   7.788   1.866   4.111
14437W        W86862  18.341  44.288  11.021
14438W        W86863  10.415   6.760  11.980
14439W        W86864  33.054  32.317   4.499
14440W        W86865  34.988  12.526   1.886
14441W        W86866  24.264  41.420   4.564
14442W        W86867  24.256  27.548  13.458
14443W        W86868   0.761  19.652   2.379
14444W        W86869  35.015  11.144  14.966
14445W        W86870   7.220  16.792   4.341
14446W        W86871   6.922  18.052  13.370
14447W        W86872  41.440  27.115   4.603
14448W        W86873   8.176  36.613   4.745
14449W        W86874  28.746  31.633  12.664
14450W        W86875   3.882  29.233  12.933
14451W        W86876  23.634  22.360   2.774
14452W        W86877  28.466  35.837   4.814
14453W        W86878  23.825   5.341  13.728
14454W        W86879  17.744  14.200  13.397
14455W        W86880  42.821   4.765  12.936
14456W        W86881  37.661  13.573   1.736
14457W        W86882  38.816  41.238  13.603
14458W        W86883  13.137  26.055  10.999
14459W        W86884  19.991  43.742  13.427
14460W        W86885  27.878  32.297  12.024
14461W        W86886   4.261  26.766  11.476
14462W        W86887  26.401   5.096  10.988
14463W        W86888  34.315  30.726  12.074
14464W        W86889  10.879   8.798  13.131
14465W        W86890  28.646   5.258   0.864
14466W        W86891  43.152  38.674   5.124
14467W        W86892  42.434   5.817   0.878
14468W        W86893  43.032  13.678   0.050
14469W        W86894  37.382  35.851  11.233
14470W        W86895  40.940  10.696  13.361
14471W        W86896  43.899  42.937   4.893
14472W        W86897  26.954   9.580  13.757
14473W        W86898  39.752  11.629  10.802
14474W        W86899  41.391  20.279   0.135
14475W        W86900   6.807  22.081   0.240
14476W        W86901  11.592  27.395   0.317
14477W        W86902   9.506  39.024   3.454
14478W        W86903  31.335  24.623  10.490
14479W        W86904  11.664  35.550  10.730
14480W        W86905   9.748  40.817  12.628
14481W        W86906  24.245  23.577   4.021
14482W        W86907   5.320   9.231  11.883
14483W        W86908  32.480  26.594   1.254
14484W        W86909  10.063   3.924   2.963
14485W        W86910  29.227  43.772  13.103
14486W        W86911  33.586  33.426   3.999
14487W        W86912  42.251  29.067  14.840
14488W        W86913   7.774  43.116   1.528
14489W        W86914   4.730  16.620   1.859
14490W        W86915  29.654  30.218  13.225
14491W        W86916  42.322  30.477   3.732
14492W        W86917  35.009  15.297  13.796
14493W        W86918  44.750  12.067  10.619
14494W        W86919   5.423  23.610  13.647
14495W        W86920   7.868   6.060   0.388
14496W        W86921  29.143  20.607  12.439
14497W        W86922   2.642  13.374   4.073
14498W        W86923  11.618   5.531   1.883
14499W        W86924  10.750   6.533  14.925
14500W        W86925  14.673  41.318  12.898
14501W        W86926  37.057  37.358  12.796
14502W        W86927  27.111  15.430  11.039
14503W        W86928   9.166   3.614   1.276
14504W        W86929  37.438  16.336   2.716
14505W        W86930  14.373  17.825   9.842
14506W        W86931  36.006  44.049   0.489
14507W        W86932  27.152   5.272   0.790
14508W        W86933   6.715  27.703  13.934
14509W        W86934   9.162  38.505   3.755
14510W        W86935  43.554  12.230  11.470
14511W        W86936  22.575  18.207   3.599
14512W        W86937  43.024  18.696  14.955
14513W        W86938  38.995  15.294   4.955
14514W        W86939  19.334  16.790  11.619
14515W        W86940   6.082   8.475  13.877
14516W        W86941  25.940  19.972  11.014
14517W        W86942  15.393  37.442   1.123
14518W        W86943  15.636  22.820  11.390
14519W        W86944  18.586   9.380   0.788
14520W        W86945  31.421  25.640   4.357
14521W        W86946   8.705  35.747   4.032
14522W        W86947  30.455  29.536   3.231
14523W        W86948  26.243  22.432   3.346
14524W        W86949  40.030   8.284   0.686
14525W        W86950  24.502  11.912  14.537
14526W        W86951  44.544  20.530  10.613
14527W        W86952  16.218  31.067   2.229
14528W        W86953  44.989  11.819   4.753
14529W        W86954   0.820  14.198  11.166
14530W        W86955  26.107   3.051   5.021
14531W        W86956   9.113  31.999  10.207
14532W        W86957  14.725  10.645   1.858
14533W        W86958  23.716  35.907  14.414
14534W        W86959   5.280  39.279  14.042
14535W        W86960  16.256  33.170   4.214
14536W        W86961   8.932  23.656   2.602
14537W        W86962  42.984  21.794   5.297
14538W        W86963  42.862  40.876  14.860
14539W        W86964  29.254  16.702  14.885
14540W        W86965  18.792  10.138   3.713
14541W        W86966   3.602  40.129   4.065
14542W        W86967  32.152  43.005   3.641
14543W        W86968  20.234   7.838   4.682
14544W        W86969   3.518  22.142  11.589
14545W        W86970  23.128   8.490   3.783
14546W        W86971  41.434   4.409  13.310
14547W        W86972  37.359  26.998  12.362
14548W        W86973  31.563  25.420  13.897
14549W        W86974  41.766  21.201   2.621
14550W        W86975  24.382   2.349  12.862
14551W        W86976   6.264   9.729  10.632
14552W        W86977  19.097  17.394   4.562
14553W        W86978  41.771  13.442   2.351
14554W        W86979   7.817  25.211   3.263
14555W        W86980   4.837  29.280  12.959
14556W        W86981   3.579  43.398   4.506
14557W        W86982  39.317   9.371  13.862
14558W        W86983  34.502  16.214   1.447
14559W        W86984  33.044  13.999  14.418
14560W        W86985  38.407  26.643  12.934
14561W        W86986  21.022  39.634   3.926
14562W        W86987  20.946  23.059  12.049
14563W        W86988  36.652  27.177   0.860
14564W        W86989  13.885  25.356  11.000
14565W        W86990   4.902  31.328  12.182
14566W        W86991  11.703  36.987  13.454
14567W        W86992  42.491  17.318   3.270
14568W        W86993  40.320  20.256  12.980
14569W        W86994  16.544  12.102  12.079
14570W        W86995  22.221  43.940   2.715
14571W        W86996  31.909  11.114   4.650
14572W        W86997  43.723  22.044   4.521
14573W        W86998   7.324  35.220  12.559
14574W        W86999  26.595  12.234  13.089
14575W        W87000  20.256   3.027  11.114
14576W        W87001   8.767  15.803  12.961
14577W        W87002  17.073  43.910  14.406
14578W        W87003  35.440  24.106   3.671
14579W        W87004   0.095   2.808  12.837
14580W        W87005  23.130  40.566   2.820
14581W        W87006  31.792  16.252  11.688
14582W        W87007  19.627   3.307  10.906
14583W        W87008   1.799   8.686   4.378
14584W        W87009   6.064  38.827   3.756
14585W        W87010  18.212  23.312  11.438
14586W        W87011  27.923  13.102   1.944
14587W        W87012  31.413  41.633   0.225
14588W        W87013  39.378   8.766   3.884
14589W        W87014  12.880  35.518   1.763
14590W        W87015  21.373  23.997  12.145
14591W        W87016  29.528   6.681   4.910
14592W        W87017  26.194   4.366   1.119
14593W        W87018   1.181   3.593  13.461
14594W        W87019  41.123  23.208   2.226
14595W        W87020  34.812  21.110   0.891
14596W        W87021  37.172  37.112  11.426
14597W        W87022  32.916  19.754   4.052
14598W        W87023  27.201  36.875   4.197
14599W        W87024  34.295  14.641   0.533
14600W        W87025   3.812  26.057  11.286
14601W        W87026  10.323  43.748   1.882
14602W        W87027  44.918  20.188  13.380
14603W        W87028  13.662  16.224  10.691
14604W        W87029   8.593   5.941  13.116
14605W        W87030  26.091  27.635  14.082
14606W        W87031  10.274  21.547   4.364
14607W        W87032   6.095  32.078   0.849
14608W        W87033  30.626   9.311  13.993
14609W        W87034  16.439  24.208   3.786
14610W        W87035   9.281  25.568   0.528
14611W        W87036  34.098   4.452   2.243
14612W        W87037  17.308   5.988   0.944
14613W        W87038  16.658   0.694  11.192
14614W        W87039  41.097   9.299  11.461
14615W        W87040  13.090  44.098   1.790
14616W        W87041  44.742  11.923  13.634
14617W        W87042   9.115  23.146   2.746
14618W        W87043   7.444  10.276  14.305
14619W        W87044  10.361  14.733   1.779
14620W        W87045  21.824  12.276  14.448
14621W        W87046  30.198  42.995   3.264
14622W        W87047  27.002  34.095   4.870
14623W        W87048  44.343  35.986  13.637
14624W        W87049  22.248   2.686   0.273
14625W        W87050   5.429   0.181   4.595
14626W        W87051  21.077  19.774   2.128
14627W        W87052  22.137  32.611  12.422
14628W        W87053  14.918  24.347   3.395
14629W        W87054   2.926  40.551  12.461
14630W        W87055  17.043  38.523   2.838
14631W        W87056  27.425  27.169  12.143
14632W        W87057  42.397  38.811  13.358
14633W        W87058   6.989  23.810   0.195
14634W        W87059  34.132  22.061   3.242
14635W        W87060   7.176  42.872  13.781
14636W        W87061  22.196  17.552   4.204
14637W        W87062  11.914  13.078  11.133
14638W        W87063   7.698   7.908   1.668
14639W        W87064   2.312  24.271  11.160
14640W        W87065  15.392   3.346   3.286
14641W        W87066  28.185   7.809   0.407
14642W        W87067   0.840  29.635   4.594
14643W        W87068  42.763  43.324  11.932
14644W        W87069   8.857  42.933   3.052
14645W        W87070  37.168   9.108   0.369
14646W        W87071  12.738   3.199  11.989
14647W        W87072  34.304  33.731   0.409
14648W        W87073  33.829  22.978   4.413
14649W        W87074  36.558  20.983   2.869
14650W        W87075  16.291   1.393  13.328
14651W        W87076  33.592   6.387   4.464
14652W        W87077  28.796  10.711  14.939
14653W        W87078  41.524  41.566  14.111
14654W        W87079  42.236   9.940   0.813
14655W        W87080  25.001  42.827  13.439
14656W        W87081   1.849   7.406   1.779
14657W        W87082  40.504  40.991  13.059
14658W        W87083  43.503  32.364   3.399
14659W        W87084   3.004  23.508  12.263
14660W        W87085  15.423  28.548   4.534
14661W        W87086  35.151  32.969  12.016
14662W        W87087  42.073  29.520  10.618
14663W        W87088  16.689  44.076   1.421
14664W        W87089  23.818  12.386  11.762
14665W        W87090  23.852  11.580   5.072
14666W        W87091   7.451  19.082  11.138
14667W        W87092  11.722  39.999  14.855
14668W        W87093  36.949  15.073  12.802
14669W        W87094  16.010  40.266   9.822
14670W        W87095  42.504  27.690  10.933
14671W        W87096  30.935   3.201   2.226
14672W        W87097  18.552  11.673   3.738
14673W        W87098   5.684  19.564   4.217
14674W        W87099  21.792   5.367  13.865
14675W        W87100   7.455  14.582  14.851
14676W        W87101  38.488  32.368  11.833
14677W        W87102  25.670  19.027  13.068
14678W        W87103  14.624   2.754  11.495
14679W        W87104  16.160  34.412   3.704
14680W        W87105  27.491   0.523  14.341
14681W        W87106  13.376  24.558   0.825
14682W        W87107   8.121   1.862   0.136
14683W        W87108  33.374  27.165   3.712
14684W        W87109  30.353   9.919   3.729
14685W        W87110  32.392   4.934  14.214
14686W        W87111  35.309  44.334   1.189
14687W        W87112  38.043  44.285   1.342
14688W        W87113   2.480  12.703  11.936
14689W        W87114  15.224  22.761  13.086
14690W        W87115  24.056  14.646   4.164
14691W        W87116  44.719  43.453   2.807
14692W        W87117  34.868  31.958   4.509
14693W        W87118   1.785  14.106   0.813
14694W        W87119  42.874  18.986  11.665
14695W        W87120  11.329  15.722  12.189
14696W        W87121   5.818  42.324  11.292
14697W        W87122  20.667  18.532   4.445
14698W        W87123  14.223  25.663   1.800
14699W        W87124  23.697  16.758  13.592
14700W        W87125  13.657  14.397  10.617
14701W        W87126  41.403   7.073  12.096
14702W        W87127  12.129  34.043   0.132
14703W        W87128  39.064  23.954  10.246
14704W        W87129  37.327  33.154  14.856
14705W        W87130   0.078  37.676  12.156
14706W        W87131  44.335   4.213   1.798
14707W        W87132  43.088  31.555  11.517
14708W        W87133   7.736   4.846  14.096
14709W        W87134  37.026  27.500   1.468
14710W        W87135  27.189  11.188  11.904
14711W        W87136  10.347  43.289   2.756
14712W        W87137  40.709  21.574   5.089
14713W        W87138   2.111  42.970  11.496
14714W        W87139  12.139  23.561   4.470
14715W        W87140  18.382  10.172  12.040
14716W        W87141  41.418  23.606  14.931
14717W        W87142  40.253  28.393  10.638
14718W        W87143  42.708   6.928   4.158
14719W        W87144  17.659  43.293   2.708
14720W        W87145  28.481  24.729  12.101
14721W        W87146  16.688  31.527   1.243
14722W        W87147   0.895  28.476   3.094
14723W        W87148   5.472  16.193   1.590
14724W        W87149  14.014  26.115  11.140
14725W        W87150  37.737  11.320  13.219
14726W        W87151  43.946  13.351   1.303
14727W        W87152  23.017   5.994  11.994
14728W        W87153   1.701  18.886  13.802
14729W        W87154  23.056  28.533  11.095
14730W        W87155  10.312  34.512  13.810
14731W        W87156  28.757  27.735  14.851
14732W        W87157  43.301  10.798   3.991
14733W        W87158  34.167  10.084  13.767
14734W        W87159   6.145  18.170   0.752
14735W        W87160  43.438  16.582   0.057
14736W        W87161  43.937   3.428   4.596
14737W        W87162   9.723  12.863  11.244
14738W        W87163  34.079   2.936   4.277
14739W        W87164  35.995  21.278   4.047
14740W        W87165  32.481  19.169   3.086
14741W        W87166  15.781  16.208   4.708
14742W        W87167  28.649   1.787   3.351
14743W        W87168  40.457  35.014   3.671
14744W        W87169  27.217   7.310  14.351
14745W        W87170  23.462  42.775   2.348
14746W        W87171  42.511  28.220  13.288
14747W        W87172  31.450  11.636   0.002
14748W        W87173  12.242  43.075   4.181
14749W        W87174  25.543  31.867   9.911
14750W        W87175   2.275   9.639   4.792
14751W        W87176  21.455  34.723   2.266
14752W        W87177  42.837  10.382  12.384
14753W        W87178  26.711  29.101  11.088
14754W        W87179  12.358   6.825  11.053
14755W        W87180   4.252  26.180   0.336
14756W        W87181  26.681   7.957   2.382
14757W        W87182  32.405  17.706   2.124
14758W        W87183  39.447  43.861  10.890
14759W        W87184  23.706  17.687  13.039
14760W        W87185  24.278  25.669  11.236
14761W        W87186   4.988  10.980  14.048
14762W        W87187   9.752   2.227  13.018
14763W        W87188  21.200   5.172   0.585
14764W        W87189  12.170  21.621   3.727
14765W        W87190  24.992  18.632  10.825
14766W        W87191   8.611  24.942  10.256
14767W        W87192  30.491   1.043  11.934
14768W        W87193  24.755  14.213   3.699
14769W        W87194   3.078  37.464  11.166
14770W        W87195   9.723  10.099  14.314
14771W        W87196   8.868  43.556   0.954
14772W        W87197  43.182  42.424  13.429
14773W        W87198  23.136   7.138   3.668
14774W        W87199  27.989  40.243  12.871
14775W        W87200   2.732  12.648  12.421
14776W        W87201  30.149  38.996   0.128
14777W        W87202  36.985  36.420  13.604
14778W        W87203  13.629  31.997  12.522
14779W        W87204   0.994  21.282  14.580
14780W        W87205  24.119   0.383   2.864
14781W        W87206  28.658  42.872   3.249
14782W        W87207  42.596   2.119  12.184
14783W        W87208  12.244  10.127  13.901
14784W        W87209  37.653  40.413   4.126
14785W        W87210  34.876  17.749  12.891
14786W        W87211  22.937  25.114  13.996
14787W        W87212   7.507  38.154   3.385
14788W        W87213   9.389  17.145  11.478
14789W        W87214  10.717  16.086   1.978
14790W        W87215  15.114  39.880   0.572
14791W        W87216   9.287  36.955  14.349
14792W        W87217   1.401  28.433  14.014
14793W        W87218  18.325  19.158  14.879
14794W        W87219   4.007  42.008   3.746
14795W        W87220  38.922  14.729  13.422
14796W        W87221  31.483   9.704   4.535
14797W        W87222   0.272   6.429  10.464
14798W        W87223   2.958  43.490  10.580
14799W        W87224   8.002  13.692  14.633
14800W        W87225  39.664  26.684   1.000
14801W        W87226  39.042  17.531  12.512
14802W        W87227  38.007  38.802   0.453
14803W        W87228  15.551   0.912  13.450
14804W        W87229  12.078  26.447   0.409
14805W        W87230  15.196  31.626  10.576
14806W        W87231   7.755  42.311   3.342
14807W        W87232   3.374  23.991   2.670
14808W        W87233   4.858  44.859  14.874
14809W        W87234  27.373  43.819   0.813
14810W        W87235  16.515  11.784  14.588
14811W        W87236  35.576  30.139   1.284
14812W        W87237   6.301   5.510  11.030
14813W        W87238  36.161   8.110   4.456
14814W        W87239  21.676  11.158   4.248
14815W        W87240  11.115  42.604  14.682
14816W        W87241  40.871  30.427  10.925
14817W        W87242  13.758   5.597   0.312
14818W        W87243  28.861  12.103   0.471
14819W        W87244  14.103  38.969   3.643
14820W        W87245  35.803   3.828   3.112
14821W        W87246  31.078   1.845   4.446
14822W        W87247  31.691  42.729  13.451
14823W        W87248  36.720   8.397   3.702
14824W        W87249  20.486  36.278  14.753
14825W        W87250  27.785  30.668  12.913
14826W        W87251  43.112  32.438   5.026
14827W        W87252  37.036  41.292  11.062
14828W        W87253   4.419  40.366  11.463
14829W        W87254  26.350  10.721   0.543
14830W        W87255  17.373  35.909   1.977
14831W        W87256  37.545  32.167  12.931
14832W        W87257   9.358  12.270  14.837
14833W        W87258   1.042  20.027  10.553
14834W        W87259   8.871  28.494  12.685
14835W        W87260  38.288   2.910  12.575
14836W        W87261  32.152  24.675  14.874
14837W        W87262  44.512  29.176   4.107
14838W        W87263  33.067  43.034   4.077
14839W        W87264  28.973   3.385  12.938
14840W        W87265  25.302  15.378   2.718
14841W        W87266   9.456  21.599   1.092
14842W        W87267  39.994  13.159  12.014
14843W        W87268   1.680  21.704  14.587
14844W        W87269  39.551  41.967   4.771
14845W        W87270  24.216  29.843   0.434
14846W        W87271  11.325  24.560   1.178
14847W        W87272  44.376   1.488  13.979
14848W        W87273   1.835  34.957   4.188
14849W        W87274  12.077  26.518   1.722
14850W        W87275  33.352  12.674   3.222
14851W        W87276  20.854  28.194   3.304
14852W        W87277  33.898   6.782   0.953
14853W        W87278  42.277  10.277   4.709
14854W        W87279  15.140  34.360   2.288
14855W        W87280  36.521  41.863  11.480
14856W        W87281  38.862  12.403   2.245
14857W        W87282  37.573  13.226  12.907
14858W        W87283  10.415  16.535   0.837
14859W        W87284  43.022  37.079   3.554
14860W        W87285  14.605  36.401   1.786
14861W        W87286   6.247  35.756  11.245
14862W        W87287  21.775  33.443   3.260
14863W        W87288  20.204  41.343  13.097
14864W        W87289  10.860  17.217  10.640
14865W        W87290  38.471  40.512   1.800
14866W        W87291  25.418  25.489   1.232
14867W        W87292  22.660   0.054   1.959
14868W        W87293  44.004  43.447  10.737
14869W        W87294  35.214  36.517   1.747
14870W        W87295   2.336  13.706  13.917
14871W        W87296  39.459  19.985  12.442
14872W        W87297  11.547   1.255   4.325
14873W        W87298  18.632  32.692  13.384
14874W        W87299   5.923  36.487  12.354
14875W        W87300  16.376   7.889   1.410
14876W        W87301  17.307   6.674   2.693
14877W        W87302  42.006   4.774   4.564
14878W        W87303  43.286  18.006   4.122
14879W        W87304  34.152  42.282  11.623
14880W        W87305   8.261  22.927   1.436
14881W        W87306  39.357  20.340   4.442
14882W        W87307  10.390  16.162  12.060
14883W        W87308  33.203  25.861   3.869
14884W        W87309   4.296   0.795   3.380
14885W        W87310  22.478  27.577   3.169
14886W        W87311  35.498  32.483  14.850
14887W        W87312  14.152  12.721   3.742
14888W        W87313  23.488  26.923  11.616
14889W        W87314  17.960  31.350   0.823
14890W        W87315  24.824  32.252   2.951
14891W        W87316   2.743  36.083   2.154
14892W        W87317  19.087  24.769  12.851
14893W        W87318  12.348  25.717  14.371
14894W        W87319  43.352  26.568  11.008
14895W        W87320  25.209  25.561   3.355
14896W        W87321  43.729  33.495   3.857
14897W        W87322  13.147   3.424  14.759
14898W        W87323  36.642   3.188   4.068
14899W        W87324  15.244  43.638   2.907
14900W        W87325  41.934  22.560   2.808
14901W        W87326  39.425  34.356  11.578
14902W        W87327  28.205   4.140  12.887
14903W        W87328   3.323   6.255   4.633
14904W        W87329  19.255  36.027  14.476
14905W        W87330  11.412  30.986  12.742
14906W        W87331  10.376  34.837  13.428
14907W        W87332  42.890  38.828  12.895
14908W        W87333  26.753  42.005   4.545
14909W        W87334  21.612   8.547   2.317
14910W        W87335  15.157  26.619  11.225
14911W        W87336  29.140  14.506   2.822
14912W        W87337  25.916   9.375  13.125
14913W        W87338  39.550  29.678   4.101
14914W        W87339  16.264  12.470  14.262
14915W        W87340  17.101  32.477  10.627
14916W        W87341  36.102  44.280   3.679
14917W        W87342  30.584  41.470   9.768
14918W        W87343   7.313  40.720  14.965
14919W        W87344  28.166  12.929  10.352
14920W        W87345   9.247   5.295   1.602
14921W        W87346  41.315  25.721  14.294
14922W        W87347   5.268  39.816   0.054
14923W        W87348   5.706  43.345   4.645
14924W        W87349  15.341  30.477   1.754
14925W        W87350  26.552   4.276  14.799
14926W        W87351  17.099  19.780   4.095
14927W        W87352  35.116  34.110  13.419
14928W        W87353  41.031  42.378   1.813
14929W        W87354  28.405  23.976  14.346
14930W        W87355   3.339  20.200   4.380
14931W        W87356   5.472  36.882   2.824
14932W        W87357   4.275  20.017  10.618
14933W        W87358   0.328  22.977   1.665
14934W        W87359   6.786   5.202  12.888
14935W        W87360  24.671  23.274  13.327
14936W        W87361   5.915   4.360  14.472
14937W        W87362  40.695   7.877   4.684
14938W        W87363   1.530  33.936   4.318
14939W        W87364  12.565  20.172  14.955
14940W        W87365   0.988  38.860  14.530
14941W        W87366  39.977  39.606   2.828
14942W        W87367  14.308   3.662   4.860
14943W        W87368  22.586   7.219  14.546
14944W        W87369  30.642  32.913  12.883
14945W        W87370  40.277  43.112  11.166
14946W        W87371  24.042   2.496  12.075
14947W        W87372   1.493  19.626   3.242
14948W        W87373  30.905  42.956  11.289
14949W        W87374   1.265  36.172  14.585
14950W        W87375  14.293  39.932   4.861
14951W        W87376  31.991  22.541   3.559
14952W        W87377   4.333  13.230   4.658
14953W        W87378  40.777  22.799   0.203
14954W        W87379  44.138  24.145   3.623
14955W        W87380  41.992   9.126  14.894
14956W        W87381  12.677  22.228  11.445
14957W        W87382  35.432  27.561  10.979
14958W        W87383  14.717  21.548   1.707
14959W        W87384   2.330  34.484   0.767
14960W        W87385  15.627  25.768   3.235
14961W        W87386  28.855  17.099   1.424
14962W        W87387  25.035  40.403  12.155
14963W        W87388  27.920   2.871  14.683
14964W        W87389  23.734  32.438  10.663
14965W        W87390  35.533  36.450   4.544
14966W        W87391  34.331  44.523   1.412
14967W        W87392   0.957  15.210   2.806
14968W        W87393   3.439  42.182   4.388
14969W        W87394   2.097   6.643  12.828
14970W        W87395  28.373  36.190   3.828
14971W        W87396  11.850  20.966   3.065
14972W        W87397  20.811   1.780  11.095
14973W        W87398  14.129  28.169   1.391
14974W        W87399  43.830  34.450  11.054
14975W        W87400   2.483  10.125   0.528
14976W        W87401  32.341  36.374   2.771
14977W        W87402  19.248  15.368  13.329
14978W        W87403   8.187  37.957  12.836
14979W        W87404  35.452  15.759  11.575
14980W        W87405  43.897  37.732  10.986
14981W        W87406  42.664  29.492  10.696
14982W        W87407   3.581  38.430   1.749
14983W        W87408  15.308  27.895   1.785
14984W        W87409  11.286  20.638  13.845
14985W        W87410   6.912   1.442  12.620
14986W        W87411   2.415  21.320   4.972
14987W        W87412  15.383   4.353   0.191
14988W        W87413  22.167  35.344  14.614
14989W        W87414  13.786  21.402   3.589
14990W        W87415  29.606  26.825  12.039
14991W        W87416  43.477  31.158   0.698
14992W        W87417  44.861  41.382  12.005
14993W        W87418  29.850  17.772  14.236
14994W        W87419  15.625  39.440   3.227
14995W        W87420   0.900   9.950   0.506
14996W        W87421  17.565  39.514  11.127
14997W        W87422  15.665  32.499   0.284
14998W        W87423  36.455   8.827   4.404
14999W        W87424  30.930   8.315   4.765
15000W        W87425  42.422  28.288  11.506
15001W        W87426  43.966  12.773  12.102
15002W        W87427  42.377  31.518  11.163
15003W        W87428  22.655   6.687  11.612
15004W        W87429  22.722  26.837  11.578
15005W        W87430  42.763  13.351   1.412
15006W        W87431  41.764  44.305  12.983
15007W        W87432  27.676  26.078  14.871
15008W        W87433  12.901   7.907  12.390
15009W        W87434   1.060  37.131  12.166
15010W        W87435  26.958  36.458   2.802
15011W        W87436  43.513  21.236   5.462
15012W        W87437  21.296  37.282   4.766
15013W        W87438  16.973   5.244   2.975
15014W        W87439  28.282  33.474   2.644
15015W        W87440  19.309  16.152   1.353
15016W        W87441  15.246  34.630   1.380
15017W        W87442  34.619  12.130  11.501
15018W        W87443  41.946  36.665  11.335
15019W        W87444  31.082  37.858   4.573
15020W        W87445  23.118  41.569  11.110
15021W        W87446  13.861  13.689   1.724
15022W        W87447   5.412   0.581   3.811
15023W        W87448  30.971  12.166  12.158
15024W        W87449   4.807  18.041  12.044
15025W        W87450   8.936  21.706  12.514
15026W        W87451  41.830   6.809   4.331
15027W        W87452  34.939  14.218  13.629
15028W        W87453  38.260  29.951  12.898
15029W        W87454   4.346  25.044  11.908
15030W        W87455   4.249  32.155   4.574
15031W        W87456  34.501   8.347  11.673
15032W        W87457   7.272   5.745   3.717
15033W        W87458  19.614  41.583  12.305
15034W        W87459  27.542  42.967   5.083
15035W        W87460  15.722   5.473   3.958
15036W        W87461  24.679   6.411   1.677
15037W        W87462   6.224  10.653   2.778
15038W        W87463  33.029   0.996  11.999
15039W        W87464  31.667   0.812  12.511
15040W        W87465  39.418  32.901  12.361
15041W        W87466  39.816  39.621   3.640
15042W        W87467  38.246  40.675  12.874
15043W        W87468   7.747  14.367  10.368
15044W        W87469   5.137  42.874   1.677
15045W        W87470   3.278  13.279   1.661
15046W        W87471  38.946  37.549  11.965
15047W        W87472  15.567  11.159  10.782
15048W        W87473  22.523  11.067   2.667
15049W        W87474  40.415  35.115   0.720
15050W        W87475   7.161  41.435  10.799
15051W        W87476   8.710  14.052   0.038
15052W        W87477   5.425  44.000  13.914
15053W        W87478  28.581   1.738   4.645
15054W        W87479  35.631   3.741   4.705
15055W        W87480  17.300  11.286   3.665
15056W        W87481   8.999   7.614   2.430
15057W        W87482  12.686   1.516   4.275
15058W        W87483  10.283  10.772   1.846
15059W        W87484  12.286   0.148   0.567
15060W        W87485  20.153  36.712  14.741
15061W        W87486  23.697  20.759   1.206
15062W        W87487  13.277  21.247   1.991
15063W        W87488  41.318  37.601  14.056
15064W        W87489  24.718  19.758  13.775
15065W        W87490  20.903  12.422  13.081
15066W        W87491  19.262  16.881  12.491
15067W        W87492   6.494   5.496   3.548
15068W        W87493  21.051  22.480   4.979
15069W        W87494  42.552  19.318   9.947
15070W        W87495  11.483  43.378  10.637
15071W        W87496  20.586  12.682   2.593
15072W        W87497   7.974  39.077   3.587
15073W        W87498  20.698  43.985   4.729
15074W        W87499  12.107  42.720  11.986
15075W        W87500  41.385  34.933   4.612
15076W        W87501  36.180  32.970  14.099
15077W        W87502  28.714   8.437  14.733
15078W        W87503   0.313  24.043  13.167
15079W        W87504  21.487  24.214   2.073
15080W        W87505  32.484  28.624  13.165
15081W        W87506  37.970  16.328  13.256
15082W        W87507  31.758  22.325   4.350
15083W        W87508  31.065  34.547   2.269
15084W        W87509  22.867   6.138  13.978
15085W        W87510  25.421  21.274   1.690
15086W        W87511  14.616   7.623  14.026
15087W        W87512   8.513   2.464   4.133
15088W        W87513   3.819  29.446   3.382
15089W        W87514  43.310   6.405   1.652
15090W        W87515   7.333  37.050   4.730
15091W        W87516   7.220  27.494   4.107
15092W        W87517  35.349  36.931   4.387
15093W        W87518  35.897  16.710  12.943
15094W        W87519   6.901  13.146  11.599
15095W        W87520  32.578   8.522   3.696
15096W        W87521   2.333  34.310   1.797
15097W        W87522  15.127  41.438   0.363
15098W        W87523  27.680   6.662   3.377
15099W        W87524   0.497  38.613   0.461
15100W        W87525  13.090  44.169  13.381
15101W        W87526  25.078  17.561  12.413
15102W        W87527  29.376   9.410   1.798
15103W        W87528  40.417   9.862   3.223
15104W        W87529  33.783   6.222  11.082
15105W        W87530   2.690   0.442   1.333
15106W        W87531  41.705  19.513   0.357
15107W        W87532  15.595  21.824   3.706
15108W        W87533  44.412  11.248   3.627
15109W        W87534  40.353   1.817  10.366
15110W        W87535  21.641  31.474  12.379
15111W        W87536  41.471   1.897   4.657
15112W        W87537  30.229  28.169  12.639
15113W        W87538   7.758  43.255   0.467
15114W        W87539  43.255  31.467   1.427
15115W        W87540  34.096  41.573   2.671
15116W        W87541  19.761  11.105   2.048
15117W        W87542  26.898  27.195   1.932
15118W        W87543  39.044   9.886  13.137
15119W        W87544  44.852  24.218  12.999
15120W        W87545  11.891  23.085   0.687
15121W        W87546  30.197  42.888   2.733
15122W        W87547   2.484   2.892  10.575
15123W        W87548   5.376  41.753  14.781
15124W        W87549  26.203  37.358  13.060
15125W        W87550  38.410  19.725   4.617
15126W        W87551   8.114   7.738   1.417
15127W        W87552  13.685  21.594  13.491
15128W        W87553  14.381   2.817   3.755
15129W        W87554  15.212  18.285   0.764
15130W        W87555  30.459  10.049   3.147
15131W        W87556  43.578   9.373   4.440
15132W        W87557  43.117   1.505  11.686
15133W        W87558  28.530  40.788   0.651
15134W        W87559   0.857  41.502   1.392
15135W        W87560  34.423  23.651   3.251
15136W        W87561  22.894  38.943  12.922
15137W        W87562  37.545  44.287  14.083
15138W        W87563  44.516  13.090   0.350
15139W        W87564   0.372  16.981  11.129
15140W        W87565   4.712  32.982  11.676
15141W        W87566   4.075  12.624  10.417
15142W        W87567  20.152   1.700  10.754
15143W        W87568  20.810  15.790  14.762
15144W        W87569   4.771  16.515   0.854
15145W        W87570  33.358   9.550   4.062
15146W        W87571  39.829  29.215  12.056
15147W        W87572  38.258  39.924  13.022
15148W        W87573   9.492  41.566  12.138
15149W        W87574  20.204  18.388   2.111
15150W        W87575  39.061   0.327  14.325
15151W        W87576   8.666  40.083  14.056
15152W        W87577  40.451  18.871   4.384
15153W        W87578  21.714  14.528   3.063
15154W        W87579  41.456  41.245  12.319
15155W        W87580  27.106  21.185  12.256
15156W        W87581  35.468  26.684   4.146
15157W        W87582  42.468  26.172  12.450
15158W        W87583   2.445  41.835  12.993
15159W        W87584   7.443   9.291  11.603
15160W        W87585  12.100   0.355  10.421
15161W        W87586  11.878   3.807   2.291
15162W        W87587  44.701   8.735  10.493
15163W        W87588   4.254  21.925  11.838
15164W        W87589  41.091  20.086  13.469
15165W        W87590  23.633  23.722  13.877
15166W        W87591  31.018  11.659  12.162
15167W        W87592  10.187  23.220   3.758
15168W        W87593   1.479  31.007   0.857
15169W        W87594  44.909  30.528   4.194
15170W        W87595   6.863  32.641  11.971
15171W        W87596  11.330  13.102   1.412
15172W        W87597   8.411   8.891  13.014
15173W        W87598  23.133  34.531   3.802
15174W        W87599  14.586  10.348  11.842
15175W        W87600  28.757  30.025   2.400
15176W        W87601  12.646  28.074  12.039
15177W        W87602  35.317  35.827   1.162
15178W        W87603  18.306  42.804   2.735
15179W        W87604   7.416  28.795  10.324
15180W        W87605  38.815  16.247  10.385
15181W        W87606  24.595  32.004   4.305
15182W        W87607  24.159  40.605   0.886
15183W        W87608  22.355   0.976  14.874
15184W        W87609  14.896  44.211   4.581
15185W        W87610   2.981  20.653   1.778
15186W        W87611  29.035  35.977   0.241
15187W        W87612  19.245  39.047  12.853
15188W        W87613   8.832  43.438  11.717
15189W        W87614   4.498  12.739  14.134
15190W        W87615  40.333   9.201  13.866
15191W        W87616  44.716  43.629   3.665
15192W        W87617  40.571  33.900  12.345
15193W        W87618  42.781  29.599   0.365
15194W        W87619  37.488   6.977   3.784
15195W        W87620  23.050  26.240   1.766
15196W        W87621   2.035  30.124  13.973
15197W        W87622  29.994  43.441  13.725
15198W        W87623   7.272  11.304   0.310
15199W        W87624  34.942  12.307  13.715
15200W        W87625  37.144  42.897  13.110
15201W        W87626   1.943  25.987  14.956
15202W        W87627  41.406  18.800   2.145
15203W        W87628   3.207   7.280   1.256
15204W        W87629  41.954  29.985  10.858
15205W        W87630  33.152  44.078   3.230
15206W        W87631  12.726   2.350   0.046
15207W        W87632  41.019  36.637  14.939
15208W        W87633  42.306  23.744   0.285
15209W        W87634  33.683   9.931  13.550
15210W        W87635  19.182   7.886  14.278
15211W        W87636  12.301  19.979   2.256
15212W        W87637  19.245  20.663   0.472
15213W        W87638  36.327   7.328  14.904
15214W        W87639   4.676  37.505   1.507
15215W        W87640  34.113  14.288   0.195
15216W        W87641  26.200  43.806  10.903
15217W        W87642  43.333  22.176  12.371
15218W        W87643  31.954  16.335   0.999
15219W        W87644  29.498   0.396  14.504
15220W        W87645   8.339  42.484   1.572
15221W        W87646  17.207  24.457   0.938
15222W        W87647   8.374   1.963  11.734
15223W        W87648  27.018   4.292   3.336
15224W        W87649   8.776   3.625   2.673
15225W        W87650  27.568  39.487  12.962
15226W        W87651   4.015  11.755  11.524
15227W        W87652  40.878  16.156  14.363
15228W        W87653  30.074  33.991  12.110
15229W        W87654  24.660  37.403  11.117
15230W        W87655  27.708  23.279  14.460
15231W        W87656  41.973  16.877  13.278
15232W        W87657  34.014  43.131  14.915
15233W        W87658  17.357  34.958  11.448
15234W        W87659   5.159  36.867  12.698
15235W        W87660  41.619   3.844   2.659
15236W        W87661   9.677  18.765  10.847
15237W        W87662  12.760  14.777   2.147
15238W        W87663  40.011  38.583  13.811
15239W        W87664  28.191  14.276  10.543
15240W        W87665  42.533  23.529  10.411
15241W        W87666  11.203   8.824  14.711
15242W        W87667  21.471  28.051  12.059
15243W        W87668  29.525  26.713  14.115
15244W        W87669  34.713  19.722  13.495
15245W        W87670  42.332  38.476   1.184
15246W        W87671  41.879  42.018   2.369
15247W        W87672  39.474  42.436   0.496
15248W        W87673  15.562   6.365  13.895
15249W        W87674  43.818  37.354  14.585
15250W        W87675  38.329   0.753   1.274
15251W        W87676  30.041   2.936   0.816
15252W        W87677  40.796  31.876   3.682
15253W        W87678   9.766  19.192   4.151
15254W        W87679  41.812  25.455   1.001
15255W        W87680  39.364  35.962  13.431
15256W        W87681  35.857   1.155   3.824
15257W        W87682   8.416  10.715   2.784
15258W        W87683   1.404   4.802  12.690
15259W        W87684  23.937  26.629   0.501
15260W        W87685  24.994   1.377   1.796
15261W        W87686  17.351  26.937   2.418
15262W        W87687  13.070   3.794  14.015
15263W        W87688  29.586   9.259   2.244
15264W        W87689  25.370  10.369  12.672
15265W        W87690   1.033   3.381   3.640
15266W        W87691   1.430  26.647   4.913
15267W        W87692  12.636   4.163  12.512
15268W        W87693  19.740  19.068   2.401
15269W        W87694  15.739  16.332   1.892
15270W        W87695  23.120  26.845  12.988
15271W        W87696  40.168  15.280  13.956
15272W        W87697  29.930  31.494   0.466
15273W        W87698  30.494   8.085   1.764
15274W        W87699  17.971  20.265  10.804
15275W        W87700  39.518   0.645  12.782
15276W        W87701  26.217  36.430  11.236
15277W        W87702  27.431  42.068   3.674
15278W        W87703  33.828  24.452  10.782
15279W        W87704  11.642  26.539  13.763
15280W        W87705  33.144  38.918   3.615
15281W        W87706   8.635  27.082   0.314
15282W        W87707   7.567  25.274  10.283
15283W        W87708   2.193  18.760   5.037
15284W        W87709  16.536  34.964   4.537
15285W        W87710  18.409  44.783  13.615
15286W        W87711  24.025  33.919   0.386
15287W        W87712  16.160  10.738   4.738
15288W        W87713  40.251   7.948  13.364
15289W        W87714  33.787  27.921  10.276
15290W        W87715  37.979  36.286  13.923
15291W        W87716  30.219  30.725   0.002
15292W        W87717  38.581  26.224  13.881
15293W        W87718  14.331  36.897   2.529
15294W        W87719  32.138  14.075  14.077
15295W        W87720   1.657  11.699  12.028
15296W        W87721  15.145  29.473  13.289
15297W        W87722  38.107  10.644   2.260
15298W        W87723  36.348  16.639  14.236
15299W        W87724  21.506  30.847  13.960
15300W        W87725   3.674  34.712   4.154
15301W        W87726  13.672  32.192   0.411
15302W        W87727  38.580  23.623  14.464
15303W        W87728  12.676  34.891  12.497
15304W        W87729  33.633   4.534  14.090
15305W        W87730  36.810  14.259   9.709
15306W        W87731   5.082  44.668   0.295
15307W        W87732  43.195  21.839  14.403
15308W        W87733  35.053  19.155   0.740
15309W        W87734  21.047  40.362   2.196
15310W        W87735  13.080  26.465   3.507
15311W        W87736  39.191   9.071  11.069
15312W        W87737  36.852  33.698   1.337
15313W        W87738  21.814  24.001   0.969
15314W        W87739  34.524   0.360  13.003
15315W        W87740  23.195  21.810   4.527
15316W        W87741  38.553  43.051   4.045
15317W        W87742  26.558   1.504   4.111
15318W        W87743   5.979   9.807   1.385
15319W        W87744  10.618  23.616   4.995
15320W        W87745  14.660  23.255   4.552
15321W        W87746  25.842  14.789   1.916
15322W        W87747  34.547  41.441   2.885
15323W        W87748  29.573  32.173  11.961
15324W        W87749  33.733  35.586  12.958
15325W        W87750  17.396   3.535  10.426
15326W        W87751  20.399  11.142   1.501
15327W        W87752   5.853  30.105   0.374
15328W        W87753   8.169  40.317  11.888
15329W        W87754  39.151   2.212  12.875
15330W        W87755  11.156  17.262  14.453
15331W        W87756  12.470  11.294  13.411
15332W        W87757  28.219  30.132   2.392
15333W        W87758   6.698  29.017  14.140
15334W        W87759  11.749  27.877   4.534
15335W        W87760  24.257  41.346  14.766
15336W        W87761  16.498  43.470  13.055
15337W        W87762  31.349  26.100   0.882
15338W        W87763  27.365  19.590   4.433
15339W        W87764  39.444  35.854   3.343
15340W        W87765  12.182  17.582  14.187
15341W        W87766  21.778  40.493   0.989
15342W        W87767   5.129  40.862   1.374
15343W        W87768  13.828   2.171  12.878
15344W        W87769  41.050  16.180  14.850
15345W        W87770  28.777  17.304  14.903
15346W        W87771   8.631  13.409  10.947
15347W        W87772  25.452  25.278  13.555
15348W        W87773  33.629  11.218  12.176
15349W        W87774  32.994  43.230   2.785
15350W        W87775   7.150  40.298   2.014
15351W        W87776  14.548  34.521  11.949
15352W        W87777  24.061  29.799  10.333
15353W        W87778  33.356  21.148  13.946
15354W        W87779  44.388   6.118   0.755
15355W        W87780   4.905  40.124   4.507
15356W        W87781   0.719  20.733   1.928
15357W        W87782  30.529  26.476   4.135
15358W        W87783   2.337  25.473   1.728
15359W        W87784  17.273  32.678   0.488
15360W        W87785  34.351  36.241   4.678
15361W        W87786  38.287  29.429  11.150
15362W        W87787  34.424  12.334  14.417
15363W        W87788  31.912  23.439  11.609
15364W        W87789  16.668   3.641  11.515
15365W        W87790   0.223  40.374  11.586
15366W        W87791  33.618   9.390  12.413
15367W        W87792  24.720  36.365  12.971
15368W        W87793  27.764  41.943  14.179
15369W        W87794  37.352  14.711   5.115
15370W        W87795  44.919  18.650  13.082
15371W        W87796   6.360  42.904   1.391
15372W        W87797   9.914  24.518   4.979
15373W        W87798  44.117  30.419   3.357
15374W        W87799  28.101  37.488   5.207
15375W        W87800  13.460  28.033   3.672
15376W        W87801  23.933  34.002   0.913
15377W        W87802  38.630  37.639  12.438
15378W        W87803  12.139  26.190   3.151
15379W        W87804  44.449  35.491   0.398
15380W        W87805  41.267   9.659  14.759
15381W        W87806   2.938  40.454   2.358
15382W        W87807  37.499   0.306  11.070
15383W        W87808  25.736  33.928  13.353
15384W        W87809  13.898  28.434  11.577
15385W        W87810  28.704   9.570  12.070
15386W        W87811  34.890   3.701   3.135
15387W        W87812  31.686   7.434  13.812
15388W        W87813  30.168   0.273  12.040
15389W        W87814  14.313  23.540   0.768
15390W        W87815  23.207  31.213   1.888
15391W        W87816   1.289   6.980   1.047
15392W        W87817  14.251  42.087   2.077
15393W        W87818   6.730  44.712   3.227
15394W        W87819  13.718   7.689   4.680
15395W        W87820  25.170  22.928  14.261
15396W        W87821  24.303  28.944   3.404
15397W        W87822  44.334  13.591   4.621
15398W        W87823  18.875  33.715  13.398
15399W        W87824  23.066   6.399   2.886
15400W        W87825  32.559  20.766  10.949
15401W        W87826  40.588  19.744  12.086
15402W        W87827  42.305  15.762   2.795
15403W        W87828  34.449  10.312  10.545
15404W        W87829  21.476  34.441   4.842
15405W        W87830   1.507  18.618   4.192
15406W        W87831   6.261  24.078  10.643
15407W        W87832  26.071  10.729  13.633
15408W        W87833   6.302  43.983  10.664
15409W        W87834   5.614   7.482  11.285
15410W        W87835  41.967  36.907   3.939
15411W        W87836  31.355  42.912   1.430
15412W        W87837   7.935  11.364   1.181
15413W        W87838  17.987  19.046   2.654
15414W        W87839  40.706  38.512  13.962
15415W        W87840  38.040  20.045   2.533
15416W        W87841   3.707  14.568  11.597
15417W        W87842  23.953  30.154  14.479
15418W        W87843   8.183  30.375   3.762
15419W        W87844  22.549   5.273  13.382
15420W        W87845  39.536  24.606   2.452
15421W        W87846  44.250   0.965   5.092
15422W        W87847   3.136   5.662  14.530
15423W        W87848   5.635  14.195  12.119
15424W        W87849  10.282  29.201   1.793
15425W        W87850  43.042  40.844   2.366
15426W        W87851  17.610   4.106   3.852
15427W        W87852  17.140   1.498  13.270
15428W        W87853  18.348  17.049   1.806
15429W        W87854   7.919  43.782  13.087
15430W        W87855   1.880  28.539  10.711
15431W        W87856   4.617  38.991  11.897
15432W        W87857  30.921   2.788  10.602
15433W        W87858  35.993   0.381  13.090
15434W        W87859  12.569  38.331  11.975
15435W        W87860  35.594  11.611  11.903
15436W        W87861   0.769   3.678  10.666
15437W        W87862  39.152  38.035   4.254
15438W        W87863  19.243  33.476  13.666
15439W        W87864   2.952  42.672   2.772
15440W        W87865  30.754  21.624   4.653
15441W        W87866  36.379  30.651  13.973
15442W        W87867   9.864  10.691   0.462
15443W        W87868  15.822  35.436   0.442
15444W        W87869  28.700  36.510   2.179
15445W        W87870  27.242  32.406   0.289
15446W        W87871  26.215  17.258   1.725
15447W        W87872   2.081  31.657   2.316
15448W        W87873  29.227  38.755  14.924
15449W        W87874  36.112  26.369   4.794
15450W        W87875   3.294   9.125   2.786
15451W        W87876  33.381  25.648  13.441
15452W        W87877  40.824   6.666   2.201
15453W        W87878  32.723   5.312  10.586
15454W        W87879  25.197  31.894   2.861
15455W        W87880  28.877  28.383  12.408
15456W        W87881  29.943  12.678   4.608
15457W        W87882   3.288   9.854  12.321
15458W        W87883  19.996  31.701  14.378
15459W        W87884  24.070  27.947   4.157
15460W        W87885  24.050  36.876   0.770
15461W        W87886  14.181  17.574  13.011
15462W        W87887  15.678  34.494   4.540
15463W        W87888  34.046  36.488   1.249
15464W        W87889  29.522   8.674  13.707
15465W        W87890  33.204  12.709  12.088
15466W        W87891  28.024  17.883  12.818
15467W        W87892  11.858  19.501   1.206
15468W        W87893  10.824   0.506  14.229
15469W        W87894  25.442  35.087   0.643
15470W        W87895  44.455  33.537   1.794
15471W        W87896  20.242  13.205  13.132
15472W        W87897  37.387  18.431  13.099
15473W        W87898  30.480  23.707   0.237
15474W        W87899  21.519  11.275   2.532
15475W        W87900  44.743  20.781   1.666
15476W        W87901  29.389   7.847  14.776
15477W        W87902  15.152  37.758   3.174
15478W        W87903  16.203  21.300   4.071
15479W        W87904  30.704  35.939  13.555
15480W        W87905   3.371  44.228  14.249
15481W        W87906  12.293  14.807   1.919
15482W        W87907  33.868  24.539   1.080
15483W        W87908  39.326   6.270   4.263
15484W        W87909  34.895  11.695  14.284
15485W        W87910  23.167  29.622   1.244
15486W        W87911   1.075  12.777  11.312
15487W        W87912  24.616  40.898   3.578
15488W        W87913  31.005   4.720   1.916
15489W        W87914  24.675   2.687  11.292
15490W        W87915  37.835  23.497   2.309
15491W        W87916  25.411  10.901   1.542
15492W        W87917  18.134  36.541   1.875
15493W        W87918  34.012   3.213  13.872
15494W        W87919  28.945   5.423  11.369
15495W        W87920  31.128  32.701   1.680
15496W        W87921  28.429  37.701   1.684
15497W        W87922  28.644  43.456   3.695
15498W        W87923  27.020  16.375   2.634
15499W        W87924  43.895  11.680  13.528
15500W        W87925  20.492   0.180  12.477
15501W        W87926   7.480  31.585   0.001
15502W        W87927  12.624   2.242   3.651
15503W        W87928   5.471  17.711  13.077
15504W        W87929   0.750  37.314  13.517
15505W        W87930  26.003  42.396  13.961
15506W        W87931  11.434  20.139   1.453
15507W        W87932  41.549  23.770   0.817
15508W        W87933  44.940  25.207   1.436
15509W        W87934  36.066  24.747  13.865
15510W        W87935  38.583  19.779  14.883
15511W        W87936  11.829  42.766  14.941
15512W        W87937  22.058  17.307  12.482
15513W        W87938  11.280   3.689   1.298
15514W        W87939  30.101  12.818   2.787
15515W        W87940  28.581   9.608   0.484
15516W        W87941   4.310  28.942  10.627
15517W        W87942   3.403  17.894   2.318
15518W        W87943  19.435   2.906  11.549
15519W        W87944  24.650  11.162   5.629
15520W        W87945  28.917  22.672   2.786
15521W        W87946  32.117   7.273   0.659
15522W        W87947   8.191  23.774  10.630
15523W        W87948  19.828  37.398   1.300
15524W        W87949  34.236  22.572   2.892
15525W        W87950  23.032  36.420  10.665
15526W        W87951   5.123   1.813   2.151
15527W        W87952  14.483  30.240   0.910
15528W        W87953  31.155   0.405   5.251
15529W        W87954  14.014  26.803  14.449
15530W        W87955  42.408  29.962  10.601
15531W        W87956  36.308  11.044   2.627
15532W        W87957   1.300   3.782   0.304
15533W        W87958  28.890  25.536   1.884
15534W        W87959   8.286  29.401   3.754
15535W        W87960  17.033  19.272   0.484
15536W        W87961   1.538  42.882  10.898
15537W        W87962  32.668  10.523  11.523
15538W        W87963  27.520  34.731  11.612
15539W        W87964  19.267   5.023  11.909
15540W        W87965  41.734  43.994  10.577
15541W        W87966  31.591  41.487   1.151
15542W        W87967  28.895  43.478  13.369
15543W        W87968  27.552  28.492   4.300
15544W        W87969   9.304  23.529   4.581
15545W        W87970  21.149  43.273   1.695
15546W        W87971   1.407  17.240  11.587
15547W        W87972  40.671  39.829   0.308
15548W        W87973  29.002  36.272   3.361
15549W        W87974  27.166  39.362  10.456
15550W        W87975   0.103  44.974   2.206
15551W        W87976  39.403  15.762  13.316
15552W        W87977  13.118  15.753   2.281
15553W        W87978  42.902   3.435  10.769
15554W        W87979   1.475  42.994   4.003
15555W        W87980  20.597  18.554   3.379
15556W        W87981   6.335  41.290   3.230
15557W        W87982  18.577   5.092  14.730
15558W        W87983   2.736  28.191   2.756
15559W        W87984  32.316  44.666  12.639
15560W        W87985  35.016  20.795  13.976
15561W        W87986  33.049  19.148  13.570
15562W        W87987   1.988   6.412  12.390
15563W        W87988  25.271   5.150   0.931
15564W        W87989  14.220  10.754   4.110
15565W        W87990  10.121   3.875  12.551
15566W        W87991   6.804  10.417   1.956
15567W        W87992  35.164   1.238   1.375
15568W        W87993  31.146  35.159   1.742
15569W        W87994  34.066  10.201   4.097
15570W        W87995  28.122   9.723   0.817
15571W        W87996  31.024  15.746   4.582
15572W        W87997   4.667  27.040  11.305
15573W        W87998  14.030  42.465  10.694
15574W        W87999  35.566  25.942  13.835
15575W        W88000  19.393   5.468   1.883
15576W        W88001  32.021  27.607  12.981
15577W        W88002   7.885  27.495   2.909
15578W        W88003  27.375  24.240  12.932
15579W        W88004  36.034  32.856   2.798
15580W        W88005  11.396  13.362  10.719
15581W        W88006   1.865  33.944  11.323
15582W        W88007  21.317  16.726   1.399
15583W        W88008  35.903   8.966   1.693
15584W        W88009  27.463  24.146   0.903
15585W        W88010  35.176  32.315  12.463
15586W        W88011  17.510  21.751   3.704
15587W        W88012  11.628  24.684   4.854
15588W        W88013  10.266   5.211  13.395
15589W        W88014  36.854  20.943   0.504
15590W        W88015  35.446  36.894   2.648
15591W        W88016  17.532  38.495   3.811
15592W        W88017  23.343  29.663  14.985
15593W        W88018   6.877  10.246  11.958
15594W        W88019  33.824  31.591  14.771
15595W        W88020  44.803   0.039   1.350
15596W        W88021  37.082  43.354   0.397
15597W        W88022  26.386  15.834   3.520
15598W        W88023  11.670   1.331  10.033
15599W        W88024   7.805  44.411   3.133
15600W        W88025  26.231  15.368  10.989
15601W        W88026  11.770   9.441  12.191
15602W        W88027   8.313   1.882   2.898
15603W        W88028  22.904  20.588  12.586
15604W        W88029  13.382  13.249  13.571
15605W        W88030  42.356  40.950  11.844
15606W        W88031  36.753  29.525   0.610
15607W        W88032   5.986  27.971  12.041
15608W        W88033   0.272  25.645  10.681
15609W        W88034   1.701  42.438   0.834
15610W        W88035   9.463  33.949   4.175
15611W        W88036  12.746  26.049   4.677
15612W        W88037  25.772   0.428  10.718
15613W        W88038  12.042  16.506  11.179
15614W        W88039  40.016   2.656  12.055
15615W        W88040  43.452  15.796   4.604
15616W        W88041   6.268  38.806  13.877
15617W        W88042  37.982   8.185   5.034
15618W        W88043  19.706  10.089  13.087
15619W        W88044  44.782  16.643   0.573
15620W        W88045  14.734  20.715   2.173
15621W        W88046  35.853  12.443  12.836
15622W        W88047  18.020   3.382   1.770
15623W        W88048  20.823  38.100  12.936
15624W        W88049  44.570  38.520  12.536
15625W        W88050  37.204  36.066   3.148
15626W        W88051  34.285  44.576   2.310
15627W        W88052  17.056  17.315   2.366
15628W        W88053   2.063   5.147  12.015
15629W        W88054  26.545   1.287   1.285
15630W        W88055  44.781  22.105   3.612
15631W        W88056  11.330   9.672   2.849
15632W        W88057   1.744  44.372  11.257
15633W        W88058  44.420  35.539  12.192
15634W        W88059  20.068  31.840  11.144
15635W        W88060   3.442  22.299  12.886
15636W        W88061  15.754   3.854   4.584
15637W        W88062  34.106   8.276   3.322
15638W        W88063  40.622  25.992  12.117
15639W        W88064  33.417  22.187   3.767
15640W        W88065  40.781  26.141   2.272
15641W        W88066   6.519  34.907  13.292
15642W        W88067  36.896  14.476  10.670
15643W        W88068  20.192  41.056  14.452
15644W        W88069  19.600  38.514  12.613
15645W        W88070  32.851   1.435  12.234
15646W        W88071  11.125  39.743  11.490
15647W        W88072  10.223  22.534  14.026
15648W        W88073  21.747  18.453   1.300
15649W        W88074   4.463  40.002  13.045
15650W        W88075  12.786  37.325   1.787
15651W        W88076   8.373   0.946   0.998
15652W        W88077  38.903  17.291  11.405
15653W        W88078  36.008  18.366  11.155
15654W        W88079  42.986  42.426  12.427
15655W        W88080  27.570   7.868   3.309
15656W        W88081   3.370  22.473   3.191
15657W        W88082  20.905  32.170   4.732
15658W        W88083  36.896  29.759  13.887
15659W        W88084  15.694   4.454   2.458
15660W        W88085  28.554  11.282  13.067
15661W        W88086  41.430  18.052   4.430
15662W        W88087   4.674  10.043   1.394
15663W        W88088  32.050  35.953   0.950
15664W        W88089  33.027  32.367  13.385
15665W        W88090  20.334  21.263  11.564
15666W        W88091  20.613   1.429  10.748
15667W        W88092   8.652  34.528   3.800
15668W        W88093  13.119  42.701   0.323
15669W        W88094  16.262  34.571  13.875
15670W        W88095  12.691  39.023   4.588
15671W        W88096  11.127  42.546   0.686
15672W        W88097  10.957   3.257  12.416
15673W        W88098  11.230  36.765   3.115
15674W        W88099   4.860  25.616  13.102
15675W        W88100  17.557   8.375  10.677
15676W        W88101   1.722   5.478  13.223
15677W        W88102  29.079  43.859   1.371
15678W        W88103  31.591  40.838  11.181
15679W        W88104  13.083   8.584  12.920
15680W        W88105  37.914  42.843   3.479
15681W        W88106   2.273  44.927   4.568
15682W        W88107  39.067  26.593   4.118
15683W        W88108  35.348  35.309  11.437
15684W        W88109   3.316   4.231   2.798
15685W        W88110  20.627   3.462  12.988
15686W        W88111   2.951  43.351  11.476
15687W        W88112  42.704  20.745  10.565
15688W        W88113   4.256   6.192   4.133
15689W        W88114  18.668  17.160   4.252
15690W        W88115  30.119  24.543   2.385
15691W        W88116  39.089  22.312  12.037
15692W        W88117  22.021  10.209  11.945
15693W        W88118  13.747  40.982   1.407
15694W        W88119   2.296  21.136   2.848
15695W        W88120  31.710  18.125   1.225
15696W        W88121   3.525  39.805   1.677
15697W        W88122  41.287  24.132  14.804
15698W        W88123  33.932  34.065  14.956
15699W        W88124  31.621   6.251  12.942
15700W        W88125  17.830   6.117  11.741
15701W        W88126  25.667  18.539   2.531
15702W        W88127  39.871  33.220   3.851
15703W        W88128  21.732  43.023  11.124
15704W        W88129  28.074  10.301  14.479
15705W        W88130  23.681   9.470   1.733
15706W        W88131  36.979  12.231  13.896
15707W        W88132  34.354  37.369  14.131
15708W        W88133   2.844  28.765  14.544
15709W        W88134  15.232   1.991   4.754
15710W        W88135   9.371  38.934   3.935
15711W        W88136  41.270  25.952  11.528
15712W        W88137  18.142   4.763   1.126
15713W        W88138  14.363  13.162   3.548
15714W        W88139  41.779  35.845  11.245
15715W        W88140  36.824   6.306  11.135
15716W        W88141  36.125  16.755  11.037
15717W        W88142  35.784  31.533  12.813
15718W        W88143  42.249  25.641   3.272
15719W        W88144  22.133  39.443   2.602
15720W        W88145  38.041  40.041  14.841
15721W        W88146  29.675  30.885  10.775
15722W        W88147  15.381   5.258  12.808
15723W        W88148  26.360  29.001  10.689
15724W        W88149  24.101  44.156   4.080
15725W        W88150   6.601  26.189   4.604
15726W        W88151  34.941  14.207  12.403
15727W        W88152  28.134  43.546  12.980
15728W        W88153  29.435   8.416  10.731
15729W        W88154  13.766  22.688   3.656
15730W        W88155  24.367  31.979  13.043
15731W        W88156  14.274  32.594   0.826
15732W        W88157   3.264  21.043   4.623
15733W        W88158  29.998  42.922   1.369
15734W        W88159  15.146  21.052   1.141
15735W        W88160  22.798  16.983  12.890
15736W        W88161  39.631  31.790  12.516
15737W        W88162  26.007  17.860   0.755
15738W        W88163  38.493  41.781   4.733
15739W        W88164  14.273   8.877   4.668
15740W        W88165   3.788  29.096  10.658
15741W        W88166   8.314  43.551   3.108
15742W        W88167  30.386  24.576   2.821
15743W        W88168  14.263   0.371  11.685
15744W        W88169   5.410  26.440   2.702
15745W        W88170  42.348  30.440  14.765
15746W        W88171   0.503  41.288  10.598
15747W        W88172  42.872   8.874   2.639
15748W        W88173  34.066  16.638   0.831
15749W        W88174  37.081  17.676  13.439
15750W        W88175  18.522  29.344  14.839
15751W        W88176  18.168  26.881  13.621
15752W        W88177  20.176  17.191  14.771
15753W        W88178   7.603  14.815   2.119
15754W        W88179  18.099  43.341  10.645
15755W        W88180  13.139   8.360   1.393
15756W        W88181   7.954  25.593  11.985
15757W        W88182  35.432   0.954  13.693
15758W        W88183  31.173  18.027   3.916
15759W        W88184  17.489  21.201   0.269
15760W        W88185  22.895  17.128   0.067
15761W        W88186  44.231  18.999  11.509
15762W        W88187  33.997  42.313   0.177
15763W        W88188  18.206  18.701   0.569
15764W        W88189  12.715  44.278  10.111
15765W        W88190   4.452  44.883  10.687
15766W        W88191   1.193  39.944   2.565
15767W        W88192  35.609   9.856  12.655
15768W        W88193  14.132   2.861   4.581
15769W        W88194   3.199   2.782  11.236
15770W        W88195  34.032   5.908   2.232
15771W        W88196  12.298  25.482   1.624
15772W        W88197  20.794  24.794  13.456
15773W        W88198  20.788  31.168  14.832
15774W        W88199  17.811  33.367  12.471
15775W        W88200  34.031  16.365   1.276
15776W        W88201  11.481   2.922  12.916
15777W        W88202   9.677  36.625  14.374
15778W        W88203  14.243  21.692   1.903
15779W        W88204   9.920  12.382  14.018
15780W        W88205  11.279  21.431   2.338
15781W        W88206  38.627  16.630   0.852
15782W        W88207  16.742  39.072   2.776
15783W        W88208  30.476  22.096   1.413
15784W        W88209  35.921   3.854  12.197
15785W        W88210  34.787  43.928   0.033
15786W        W88211  32.831  11.787   0.936
15787W        W88212  15.704  31.163  14.362
15788W        W88213  29.399  23.527   0.957
15789W        W88214  32.576  20.365  14.778
15790W        W88215  11.975   1.528   2.388
15791W        W88216  18.751  27.058  10.774
15792W        W88217  39.443  16.177  14.862
15793W        W88218  17.256  42.758   3.891
15794W        W88219  41.032   5.245   2.292
15795W        W88220   0.757  31.223   2.482
15796W        W88221  18.468  43.463  11.589
15797W        W88222  22.396  28.643  10.797
15798W        W88223  34.966   5.991  12.383
15799W        W88224  40.342  26.550   3.812
15800W        W88225  34.076  25.060  10.738
15801W        W88226   8.331  10.354   0.891
15802W        W88227  13.399   1.472  10.629
15803W        W88228  23.176   3.222  11.534
15804W        W88229  15.331  29.432   4.345
15805W        W88230  36.861   4.369   2.677
15806W        W88231   5.934  15.491   1.424
15807W        W88232  30.783  14.171  12.702
15808W        W88233  27.678  23.434  10.336
15809W        W88234  44.729   6.173   3.386
15810W        W88235  31.681  39.866   9.574
15811W        W88236  17.827  10.276  13.309
15812W        W88237  26.811  29.054  14.030
15813W        W88238  27.036  26.341   1.834
15814W        W88239  43.057   6.635  12.039
15815W        W88240  41.834  27.915   1.399
15816W        W88241  43.689   0.999   2.502
15817W        W88242   1.353  15.041  11.499
15818W        W88243  37.376   9.587   0.465
15819W        W88244  44.898  14.179   2.431
15820W        W88245  12.850  42.480   3.381
15821W        W88246  18.851  25.004  13.222
15822W        W88247   7.385  18.720  10.507
15823W        W88248  25.255  21.922  12.543
15824W        W88249  11.429  13.346   3.243
15825W        W88250  28.590   1.655  13.605
15826W        W88251   2.224  32.260  12.936
15827W        W88252  13.009   6.556  10.465
15828W        W88253   9.053   2.360   4.060
15829W        W88254  33.032  32.798   4.209
15830W        W88255  18.705  32.966   1.625
15831W        W88256  40.846  38.298  11.022
15832W        W88257  42.259   2.468  10.680
15833W        W88258  19.092  31.269   0.388
15834W        W88259  34.363  35.621   2.391
15835W        W88260  35.144  33.553  13.107
15836W        W88261   4.205   4.582   0.356
15837W        W88262  34.593  35.583   3.762
15838W        W88263  43.293   7.759   3.116
15839W        W88264  34.162  11.156  12.222
15840W        W88265  40.525  43.789   3.618
15841W        W88266  38.822  33.616  13.149
15842W        W88267  31.654   0.299   0.390
15843W        W88268  44.442  35.782   4.764
15844W        W88269   4.209  23.515  14.678
15845W        W88270   0.417  29.908  12.537
15846W        W88271  30.162  41.039   0.846
15847W        W88272   9.158  28.436   2.341
15848W        W88273   2.766  31.419   0.214
15849W        W88274  13.875  36.343  12.349
15850W        W88275   1.768  39.862   0.777
15851W        W88276  19.169  14.275   2.852
15852W        W88277  27.460  32.596   1.243
15853W        W88278  31.657  22.728  12.950
15854W        W88279  15.406  29.896   3.072
15855W        W88280  35.459  16.862   0.340
15856W        W88281  41.027   7.207   4.556
15857W        W88282  15.774  30.287   3.831
15858W        W88283  37.102  28.668   1.813
15859W        W88284  25.571  11.617   3.833
15860W        W88285  36.774  21.024   3.365
15861W        W88286  36.972  15.807   0.011
15862W        W88287  20.528  36.830  12.460
15863W        W88288  36.377  10.677  12.113
15864W        W88289  16.828   3.995   0.816
15865W        W88290  34.703   0.519   1.464
15866W        W88291  22.588   9.905  12.861
15867W        W88292  42.897  20.639   2.767
15868W        W88293  20.571  28.238   4.146
15869W        W88294  25.431  25.183  10.336
15870W        W88295  43.926  38.789  10.951
15871W        W88296  37.465  13.477  14.511
15872W        W88297  25.075  18.348   0.661
15873W        W88298  20.965   4.234  14.033
15874W        W88299  22.748  27.034  11.071
15875W        W88300   8.878  41.728  12.549
15876W        W88301  21.958  41.709   1.899
15877W        W88302  29.376   8.075   0.316
15878W        W88303   1.019  39.955  12.646
15879W        W88304   6.142  19.166   4.961
15880W        W88305  18.332  25.442   1.215
15881W        W88306   7.786  18.141   1.412
15882W        W88307  43.959  29.428  14.781
15883W        W88308  22.165   6.198   0.897
15884W        W88309  33.017  36.298   0.605
15885W        W88310   2.478  38.359  12.463
15886W        W88311  39.128   4.352   1.431
15887W        W88312   1.919  21.281   1.862
15888W        W88313  25.707  12.642   1.711
15889W        W88314  31.891  27.438  11.651
15890W        W88315  35.885  17.549  13.749
15891W        W88316  31.323  16.111   3.285
15892W        W88317  19.821  11.695  12.926
15893W        W88318  14.162  41.207   2.887
15894W        W88319  17.373  10.732  11.031
15895W        W88320  40.755   2.803   0.245
15896W        W88321  18.098   3.833  14.911
15897W        W88322   1.220  20.753   4.214
15898W        W88323  17.215  33.635   3.851
15899W        W88324  35.790  14.424  13.363
15900W        W88325  30.748  26.472   3.645
15901W        W88326  28.977  42.506   4.532
15902W        W88327  12.165  25.063   3.652
15903W        W88328  14.103  11.361   0.906
15904W        W88329  29.842  16.797   3.658
15905W        W88330   8.363  42.590  11.684
15906W        W88331  27.883   3.214   3.786
15907W        W88332  34.943   2.082  11.748
15908W        W88333  10.775  10.973   1.851
15909W        W88334  13.575  38.845   4.519
15910W        W88335  16.858  36.489   1.361
15911W        W88336   1.494  13.191   0.769
15912W        W88337  43.382  32.476   0.063
15913W        W88338  17.718  40.042  13.905
15914W        W88339  14.146  25.921   3.176
15915W        W88340   4.259  25.649   1.430
15916W        W88341  30.176   3.754  12.901
15917W        W88342  16.765  35.930   2.700
15918W        W88343  27.991  37.839   0.188
15919W        W88344   9.318  36.017   1.415
15920W        W88345  24.910  38.370  14.857
15921W        W88346  38.152  36.874   4.212
15922W        W88347  26.625  21.315  10.077
15923W        W88348  31.454  39.985  13.121
15924W        W88349   9.445  43.171   1.813
15925W        W88350   5.030  17.928  13.320
15926W        W88351  22.089  12.457   3.396
15927W        W88352  43.237  34.840   0.393
15928W        W88353  38.881  20.264  10.563
15929W        W88354  32.288  26.216   0.435
15930W        W88355  38.211   8.304   0.488
15931W        W88356  42.277  12.464   0.107
15932W        W88357  17.638  10.630  12.371
15933W        W88358  15.525  14.715  13.346
15934W        W88359  19.710  36.266   0.857
15935W        W88360  33.608  33.795  10.672
15936W        W88361   1.372  35.618   0.989
15937W        W88362  25.428  23.554   1.787
15938W        W88363  13.596  15.786   0.487
15939W        W88364   1.905   8.991   3.947
15940W        W88365  25.744   1.023  11.569
15941W        W88366  21.021  16.796   3.168
15942W        W88367  40.899  10.768  14.960
15943W        W88368  29.447  44.983   1.890
15944W        W88369   7.859  39.013  13.561
15945W        W88370  22.995  17.324  12.489
15946W        W88371  17.028  15.210   0.044
15947W        W88372  15.371  26.454  13.052
15948W        W88373   0.699   2.781   4.116
15949W        W88374  16.793   6.422   4.567
15950W        W88375   7.479   2.636  12.172
15951W        W88376  12.867  36.586   0.726
15952W        W88377  16.593  42.500  10.511
15953W        W88378   1.904  42.751   3.845
15954W        W88379  24.096  22.057  13.768
15955W        W88380  25.544  21.442   3.236
15956W        W88381  30.004   1.769  11.699
15957W        W88382  20.946   5.691   3.252
15958W        W88383  33.939  42.461   4.158
15959W        W88384  27.151   3.294   3.142
15960W        W88385  20.522  30.549  13.449
15961W        W88386  41.921   5.918  12.527
15962W        W88387  38.386   9.965  11.548
15963W        W88388  21.485  40.415  14.310
15964W        W88389   3.098   0.895   5.040
15965W        W88390  31.124  40.081   5.004
15966W        W88391  25.051  33.068   4.696
15967W        W88392  31.727   4.452   2.130
15968W        W88393  38.263   6.074   4.645
15969W        W88394  34.692  16.203   2.795
15970W        W88395  23.669  36.012  11.472
15971W        W88396  37.835  13.375  11.948
15972W        W88397  37.895  44.872  12.985
15973W        W88398  34.420   7.419   1.141
15974W        W88399  21.040  21.798   2.119
15975W        W88400   7.182   9.724  12.143
15976W        W88401   9.774  36.075  12.405
15977W        W88402   9.379  11.316  11.949
15978W        W88403  32.411   6.765  13.093
15979W        W88404   4.726   1.898  11.687
15980W        W88405  18.311   2.369  12.853
15981W        W88406  21.721   5.402  14.729
15982W        W88407  27.019  39.187  14.548
15983W        W88408  34.515  39.096   4.542
15984W        W88409  12.150  12.239   4.195
15985W        W88410  14.049  19.589   5.088
15986W        W88411  30.415  31.062   1.783
15987W        W88412   5.953  32.621   4.667
15988W        W88413   0.739   4.653   4.232
15989W        W88414  19.565   7.766  13.431
15990W        W88415  14.463  17.071  11.071
15991W        W88416   5.713  25.281   4.683
15992W        W88417   4.734  26.770   4.677
15993W        W88418   6.241  31.953  14.853
15994W        W88419  19.254  30.526   2.616
15995W        W88420   9.283  14.773  14.935
15996W        W88421  19.060  30.121  12.681
15997W        W88422  43.974  32.471  13.838
15998W        W88423  17.721  13.595   1.394
15999W        W88424  27.461  21.080  14.789
16000W        W88425  42.166  33.504  13.057
16001W        W88426  31.058  13.655   4.352
16002W        W88427   3.292   4.202   4.513
16003W        W88428  12.246  40.618   0.799
16004W        W88429  39.940   0.415   3.358
16005W        W88430  42.585  32.125   3.181
16006W        W88431  25.752  11.782  13.504
16007W        W88432   5.749  11.183   2.342
16008W        W88433  41.831  14.701   3.661
16009W        W88434  43.782  15.181   0.833
16010W        W88435  39.901  40.585  11.471
16011W        W88436  21.597  29.196  13.333
16012W        W88437  26.069  21.591  11.198
16013W        W88438   9.684   7.142   3.706
16014W        W88439  14.968   6.016  14.741
16015W        W88440   1.184  40.395  12.972
16016W        W88441  32.647   2.669  13.236
16017W        W88442  19.431  15.647   0.871
16018W        W88443   3.793  35.722  12.979
16019W        W88444   0.729  31.233   0.068
16020W        W88445  22.731  36.938   1.282
16021W        W88446  32.490   6.900   3.777
16022W        W88447  30.335  32.467  13.550
16023W        W88448  33.180  40.578   2.132
16024W        W88449  18.282  43.876  14.988
16025W        W88450   6.397  14.671  14.724
16026W        W88451  39.008  23.221  10.446
16027W        W88452  13.337  13.289   3.557
16028W        W88453  36.511  12.740   0.894
16029W        W88454   1.781  37.732  14.673
16030W        W88455   9.433  18.375   0.913
16031W        W88456  42.121   9.903  11.912
16032W        W88457  28.375   0.021   1.351
16033W        W88458  39.552  23.758   1.876
16034W        W88459  44.361  37.602  10.593
16035W        W88460  11.113  19.154   0.197
16036W        W88461  15.556  39.900   3.997
16037W        W88462   7.691  25.851   0.249
16038W        W88463  12.109  15.891   1.824
16039W        W88464   2.251  31.984   5.143
16040W        W88465  15.861   4.580  12.006
16041W        W88466  29.487  26.696  10.692
16042W        W88467  29.933   5.130   1.851
16043W        W88468  11.644  27.358  10.873
16044W        W88469   9.354   1.435   3.904
16045W        W88470  42.252  44.491  11.741
16046W        W88471  20.311  14.043  14.417
16047W        W88472  16.186  10.258  11.010
16048W        W88473  21.562  17.213  12.536
16049W        W88474  24.043  37.010   2.582
16050W        W88475  20.899   2.215   2.858
16051W        W88476  41.726  38.985  13.967
16052W        W88477  27.648  20.701  12.911
16053W        W88478  27.287  40.405  13.407
16054W        W88479  36.791  10.655   1.482
16055W        W88480   2.897  22.676   3.263
16056W        W88481  20.309   5.306  13.536
16057W        W88482  33.638   6.315  14.418
16058W        W88483   7.210  28.041   4.073
16059W        W88484  42.114  44.099  11.444
16060W        W88485   9.095  44.889  10.718
16061W        W88486   5.857  14.182   2.644
16062W        W88487   3.913  29.391   4.376
16063W        W88488  27.382  40.216   9.712
16064W        W88489  22.448  24.561   4.294
16065W        W88490   8.886  10.938  11.139
16066W        W88491  41.788  11.906   3.371
16067W        W88492  41.515  42.395  14.467
16068W        W88493   0.057  23.965   0.842
16069W        W88494   6.599  40.818  11.929
16070W        W88495  44.795   9.768  11.482
16071W        W88496  13.950  23.832   5.403
16072W        W88497  44.983  10.892   4.624
16073W        W88498  29.412  28.884   1.848
16074W        W88499  20.768  39.620   0.293
16075W        W88500  15.048  34.876  13.524
16076W        W88501  17.622  15.595   2.677
16077W        W88502  37.867   1.747  10.571
16078W        W88503   7.979  42.517  13.563
16079W        W88504   9.496   5.226  12.446
16080W        W88505   0.841  29.493   2.235
16081W        W88506  14.754   9.235   1.976
16082W        W88507  30.709  40.312   0.273
16083W        W88508  33.714  39.711  11.309
16084W        W88509  26.019   0.261  13.869
16085W        W88510  21.631  22.592   2.824
16086W        W88511  17.977   6.972  13.911
16087W        W88512  14.098  10.411  14.825
16088W        W88513  44.117  44.426   3.731
16089W        W88514  42.353  25.097   0.018
16090W        W88515   6.925  27.727   2.183
16091W        W88516  24.869  36.930   0.299
16092W        W88517   9.152  20.750  12.424
16093W        W88518  40.872  21.967  13.375
16094W        W88519  33.391  30.476   4.592
16095W        W88520  41.620  39.414  12.006
16096W        W88521  31.722  23.596   1.377
16097W        W88522  10.411  26.620   3.706
16098W        W88523   5.829   9.652   4.212
16099W        W88524  35.045  38.847   2.751
16100W        W88525  12.104  11.222   1.849
16101W        W88526  23.751   3.865   0.416
16102W        W88527  25.263  40.599   5.143
16103W        W88528   8.711   5.047  11.393
16104W        W88529   2.857  26.505  14.844
16105W        W88530  31.506  25.067   3.693
16106W        W88531  40.618  43.300   0.804
16107W        W88532  39.789   5.490  14.616
16108W        W88533  22.636   3.333   2.335
16109W        W88534   1.080  19.652   1.976
16110W        W88535  26.691  13.529  12.966
16111W        W88536  14.532  35.030  14.947
16112W        W88537   7.283  14.733   1.692
16113W        W88538  10.261  35.658  10.653
16114W        W88539  18.988  39.122   4.059
16115W        W88540  10.309  28.644   0.823
16116W        W88541   3.448  36.377   0.413
16117W        W88542  11.047   0.450   0.542
16118W        W88543  37.014  37.579  12.346
16119W        W88544   6.677  40.902  13.096
16120W        W88545  35.392  23.013   2.168
16121W        W88546   9.408   2.309  12.077
16122W        W88547   5.244  34.619  14.616
16123W        W88548   9.859  24.646  11.414
16124W        W88549  13.631  10.626   2.277
16125W        W88550  33.010   2.919   0.052
16126W        W88551  44.553   7.279  14.566
16127W        W88552   9.813  26.967  11.929
16128W        W88553   2.440  25.090  12.632
16129W        W88554   2.747  14.009  13.953
16130W        W88555  14.040  23.204  11.932
16131W        W88556  36.843  31.976  11.477
16132W        W88557  43.399  21.833   1.817
16133W        W88558  32.166   5.276  12.432
16134W        W88559  32.017  35.084   2.089
16135W        W88560  25.441  23.239  12.456
16136W        W88561  36.921   4.797   2.984
16137W        W88562  43.145   3.753   0.020
16138W        W88563  26.113  25.937   1.813
16139W        W88564  18.211  27.145   2.097
16140W        W88565  32.951  19.129   3.344
16141W        W88566  25.744  27.846   0.491
16142W        W88567  10.190  40.609  12.452
16143W        W88568  18.007  12.679  10.655
16144W        W88569  41.162  13.800  11.635
16145W        W88570  16.799  42.329   2.716
16146W        W88571  24.311  37.513  10.254
16147W        W88572  28.714   0.861   1.362
16148W        W88573  12.288  35.404  13.993
16149W        W88574  17.562  41.940  14.246
16150W        W88575  28.240  27.720  13.372
16151W        W88576  24.264  27.507   3.311
16152W        W88577  44.886  19.797   2.299
16153W        W88578  35.495  43.955   3.266
16154W        W88579  29.701   7.730   2.244
16155W        W88580  27.034  31.199  11.555
16156W        W88581   3.766  10.332  13.134
16157W        W88582  37.890   7.944   3.658
16158W        W88583   4.037   7.259   2.195
16159W        W88584  25.820  19.882  12.610
16160W        W88585   7.261   2.895  11.193
16161W        W88586  13.251   4.144   0.322
16162W        W88587  23.498   4.895  14.440
16163W        W88588  26.149  11.230  14.915
16164W        W88589  40.950  34.325  13.036
16165W        W88590  29.497  41.907  10.222
16166W        W88591  42.860  23.354  13.755
16167W        W88592  30.178  37.050   4.302
16168W        W88593  31.947   9.447  14.748
16169W        W88594  32.903  31.548   1.059
16170W        W88595   4.923  18.694   2.305
16171W        W88596  37.025  32.371  14.927
16172W        W88597  11.774  33.743  13.216
16173W        W88598  40.311  22.110   3.225
16174W        W88599  15.864  16.364  11.167
16175W        W88600  23.190   9.095   3.284
16176W        W88601  37.359  11.849  11.701
16177W        W88602  16.646  35.203  12.173
16178W        W88603  14.067  20.801   4.577
16179W        W88604  23.042  15.389  13.893
16180W        W88605  27.553  19.732  10.658
16181W        W88606  33.611  39.318  10.994
16182W        W88607  41.281  30.375  11.215
16183W        W88608  21.417  13.537   3.356
16184W        W88609   5.006  15.908  13.559
16185W        W88610  14.806  40.936  14.187
16186W        W88611   8.875  23.811   5.161
16187W        W88612  25.967  10.655  14.166
16188W        W88613  43.239   3.486   1.157
16189W        W88614   2.840  40.841   4.265
16190W        W88615  18.814  20.065   1.999
16191W        W88616  26.169  11.492  12.653
16192W        W88617  41.814  12.848  13.890
16193W        W88618  14.109  40.935  11.647
16194W        W88619  28.616   4.434  12.077
16195W        W88620  11.791   0.824  14.049
16196W        W88621   8.059  31.907  11.113
16197W        W88622  44.223  14.335   0.181
16198W        W88623  27.487  19.524   3.584
16199W        W88624  15.477   0.771  12.073
16200W        W88625  20.634  27.471   2.673
16201W        W88626  36.868  25.745  13.864
16202W        W88627  20.359   0.115   3.810
16203W        W88628   2.652  20.988  11.509
16204W        W88629  12.601  11.403   1.847
16205W        W88630  16.621  43.434   0.319
16206W        W88631  42.111  41.510   0.866
16207W        W88632  21.114  17.203   1.402
16208W        W88633  15.587   7.709  14.545
16209W        W88634  26.120  14.005  14.486
16210W        W88635   2.010  43.840   0.331
16211W        W88636  31.414  15.634  14.556
16212W        W88637   6.912   1.455   2.742
16213W        W88638  15.707   2.729  12.478
16214W        W88639  24.032  37.284  14.489
16215W        W88640   4.915  13.973  13.807
16216W        W88641   5.847  39.379  12.168
16217W        W88642  12.959  31.982   3.644
16218W        W88643  10.044   2.912  12.051
16219W        W88644  39.442   7.876   4.549
16220W        W88645   1.936  38.584   4.485
16221W        W88646  30.174  43.274   2.239
16222W        W88647  36.391  20.160  10.779
16223W        W88648  31.226   3.340   3.584
16224W        W88649  42.556  37.155   0.853
16225W        W88650   3.931  28.974   3.193
16226W        W88651  32.895  38.011  14.829
16227W        W88652  15.735  18.312   1.768
16228W        W88653  23.551  14.091  12.883
16229W        W88654  44.729  41.804   3.632
16230W        W88655   1.459  23.964  12.106
16231W        W88656  10.073  19.182  14.458
16232W        W88657   8.445  13.211   3.184
16233W        W88658   5.799  33.746   2.693
16234W        W88659   8.462  38.579   1.626
16235W        W88660  21.493   9.063   2.330
16236W        W88661   2.048  21.231  10.453
16237W        W88662  32.861  11.254   1.166
16238W        W88663  37.144   2.508   0.694
16239W        W88664  20.276  44.397  11.183
16240W        W88665  33.145  14.811  11.690
16241W        W88666  22.009  11.333   3.915
16242W        W88667   1.999   6.759   2.360
16243W        W88668  33.552  34.822  14.420
16244W        W88669  23.832   2.126   1.732
16245W        W88670   9.387  36.101   2.311
16246W        W88671  39.623  22.786   4.187
16247W        W88672  13.590   0.842   0.736
16248W        W88673  44.447  20.144  13.604
16249W        W88674  23.863  42.179  14.770
16250W        W88675  19.006  43.248   0.330
16251W        W88676  22.097   6.002  12.381
16252W        W88677   5.753   1.908  13.289
16253W        W88678  28.213  19.794  12.743
16254W        W88679  37.549  33.421  12.088
16255W        W88680  43.289  41.076  13.027
16256W        W88681  40.492  11.353   0.102
16257W        W88682  36.942  35.439   0.962
16258W        W88683  26.607  44.860   1.318
16259W        W88684  24.131   9.577   3.319
16260W        W88685  29.363  39.871  11.516
16261W        W88686  10.419  30.421   0.039
16262W        W88687  23.330  27.713  11.205
16263W        W88688  28.495   6.241  12.829
16264W        W88689  22.455   4.780  13.478
16265W        W88690  30.925  42.894   0.415
16266W        W88691  28.514  26.874  14.036
16267W        W88692  25.149  24.363   4.160
16268W        W88693  26.626  30.558   5.027
16269W        W88694   6.362  44.242   4.191
16270W        W88695  11.260  23.076   1.322
16271W        W88696   2.225  39.765  12.738
16272W        W88697  36.758  37.286   4.091
16273W        W88698   5.376  40.837   1.956
16274W        W88699  16.558  42.885   3.346
16275W        W88700   2.162  36.042   3.705
16276W        W88701  27.086   0.664  11.545
16277W        W88702  43.509  28.100   0.588
16278W        W88703   2.902  21.139   5.115
16279W        W88704   5.767  15.811   1.874
16280W        W88705  24.773  33.164  13.422
16281W        W88706  39.878   1.313   1.932
16282W        W88707   0.055  29.172  13.470
16283W        W88708  42.493   1.674  13.458
16284W        W88709   3.450  31.068   4.524
16285W        W88710  30.184  22.507   1.286
16286W        W88711  26.300  13.441  13.330
16287W        W88712   2.530   9.224  14.503
16288W        W88713  42.416   8.721  12.547
16289W        W88714  17.793  43.809  14.824
16290W        W88715  17.525   4.471  14.277
16291W        W88716  15.773   8.750   3.311
16292W        W88717  26.748  12.124  12.135
16293W        W88718  36.544   2.752   4.353
16294W        W88719  11.225  14.078   1.394
16295W        W88720  28.953  20.061   3.843
16296W        W88721  32.698   6.567   1.218
16297W        W88722  26.184  39.075  12.615
16298W        W88723  23.040  23.137   2.547
16299W        W88724  35.991  29.960  14.381
16300W        W88725  17.143  11.910   4.144
16301W        W88726   5.309  17.642   4.394
16302W        W88727  11.139   3.897   1.775
16303W        W88728  34.210  23.552   1.259
16304W        W88729  22.544  20.233  12.004
16305W        W88730  11.887  24.012   4.306
16306W        W88731   6.804  37.435   3.875
16307W        W88732  29.161  11.912   2.278
16308W        W88733  13.236  16.513  11.071
16309W        W88734   9.862  44.973  12.476
16310W        W88735  40.366  12.412   4.987
16311W        W88736  20.746  25.107  12.063
16312W        W88737  22.158  16.445   4.187
16313W        W88738  32.932  35.963   4.549
16314W        W88739  21.957  39.856   0.849
16315W        W88740  12.656   9.202   2.362
16316W        W88741  37.569  10.053   0.323
16317W        W88742  15.691  24.165  13.905
16318W        W88743   2.285  20.766   0.574
16319W        W88744  18.799  22.086   2.806
16320W        W88745  20.095  27.162   4.858
16321W        W88746  36.560  43.996  11.407
16322W        W88747  32.508  39.386   1.799
16323W        W88748  38.014  25.624   4.324
16324W        W88749  43.980  44.033  11.249
16325W        W88750  36.262  10.715   4.727
16326W        W88751   4.429  39.594   2.133
16327W        W88752  22.077   8.238  13.986
16328W        W88753  20.188  29.620   2.764
16329W        W88754  12.575  44.978  11.133
16330W        W88755  44.115   2.494  11.956
16331W        W88756   6.463  14.232   3.930
16332W        W88757  17.791  26.401  14.499
16333W        W88758  16.177  43.795  12.567
16334W        W88759  22.664  30.370  11.379
16335W        W88760  24.136  11.419   1.753
16336W        W88761  39.364  24.443  14.453
16337W        W88762   0.749   5.005   0.303
16338W        W88763  33.905  39.363  13.040
16339W        W88764  14.712  24.783  14.835
16340W        W88765  33.447   2.849   2.955
16341W        W88766  18.203   0.219  13.388
16342W        W88767   3.265  43.232  11.887
16343W        W88768  31.454  28.358  14.880
16344W        W88769  21.257  35.619  13.866
16345W        W88770  33.061  14.414  10.608
16346W        W88771  14.630  28.475   4.183
16347W        W88772  31.574  37.048   4.247
16348W        W88773  15.830  26.693   3.290
16349W        W88774  11.721  21.613   0.324
16350W        W88775  38.292  30.365   4.115
16351W        W88776  37.564   6.941   2.374
16352W        W88777  12.109  43.886  12.062
16353W        W88778  17.318   6.354   4.565
16354W        W88779   6.677  39.297  10.678
16355W        W88780  27.026   0.309   0.142
16356W        W88781  24.100  43.588  10.906
16357W        W88782  40.436  33.597  13.174
16358W        W88783  10.723  44.190  10.181
16359W        W88784  16.404  28.489  10.895
16360W        W88785   9.457  15.777   3.755
16361W        W88786   9.425   2.878  13.050
16362W        W88787  11.730  32.607  10.671
16363W        W88788  25.492  13.616  14.002
16364W        W88789  13.680  16.287   2.338
16365W        W88790   1.998  19.200  14.126
16366W        W88791  41.805   6.961   0.403
16367W        W88792  31.479  24.686   0.918
16368W        W88793  37.030  13.725  11.206
16369W        W88794  29.673  37.392   2.837
16370W        W88795  34.157  19.471   3.707
16371W        W88796  38.668  34.982   1.451
16372W        W88797   8.788  14.983  14.924
16373W        W88798   5.867   4.316   2.793
16374W        W88799  42.626  28.106   0.858
16375W        W88800  16.592  16.135  14.812
16376W        W88801  12.575  22.511   1.807
16377W        W88802  27.162  15.052   4.090
16378W        W88803  16.283  41.731   3.773
16379W        W88804  18.426  40.439   2.878
16380W        W88805  11.228  36.357   2.352
16381W        W88806  40.393   8.688   0.747
16382W        W88807  22.580  14.711  12.450
16383W        W88808  22.122  42.702   0.360
16384W        W88809  40.927  10.810   0.471
16385W        W88810   1.021  30.687   0.371
16386W        W88811  34.816   9.216  11.131
16387W        W88812   2.934   2.037   4.172
16388W        W88813  42.431   4.655   2.315
16389W        W88814  40.218  42.235  10.801
16390W        W88815  27.748  24.556   0.768
16391W        W88816  14.367  23.593  12.139
16392W        W88817   6.019   1.468  13.957
16393W        W88818  39.598  27.336   2.880
16394W        W88819  21.517  40.022   4.541
16395W        W88820  41.180  22.507   0.000
16396W        W88821  13.202  26.915   3.748
16397W        W88822  42.298   3.837   0.443
16398W        W88823   1.281  42.832  14.942
16399W        W88824   8.022  40.089   1.335
16400W        W88825  10.919  26.380   4.609
16401W        W88826  43.145  44.546  12.776
16402W        W88827   6.192  17.200  13.090
16403W        W88828   3.924  13.565   4.699
16404W        W88829  17.445  33.474   0.787
16405W        W88830  43.109  42.448   1.154
16406W        W88831  17.210  28.928   2.525
16407W        W88832  15.702   3.193   0.677
16408W        W88833   7.183  38.457   1.940
16409W        W88834  11.834  18.470   1.328
16410W        W88835   5.752  28.930   0.434
16411W        W88836  43.103   2.878  14.969
16412W        W88837  39.735   3.007   2.229
16413W        W88838  43.061  21.275  13.427
16414W        W88839  29.855  33.475  14.996
16415W        W88840  18.374  26.726  10.600
16416W        W88841  28.725  29.869  14.803
16417W        W88842  25.998   6.582  14.755
16418W        W88843  41.065   5.783  13.545
16419W        W88844  41.850  10.606   4.626
16420W        W88845  26.635  18.096   3.397
16421W        W88846  32.510  28.952  13.563
16422W        W88847  10.447   3.854   0.992
16423W        W88848  42.205  26.204  11.083
16424W        W88849   0.702  26.480  14.413
16425W        W88850  13.579  35.527   3.387
16426W        W88851  17.328  24.550  13.053
16427W        W88852  33.033  42.948  14.941
16428W        W88853  11.068   4.868   1.326
16429W        W88854  26.930  43.891   3.722
16430W        W88855  17.741  41.453  13.446
16431W        W88856  13.181  40.213   1.239
16432W        W88857  44.921  38.485  11.638
16433W        W88858  34.371  37.091   2.893
16434W        W88859  13.638  34.125  13.455
16435W        W88860  43.207   1.047  14.365
16436W        W88861  33.463   3.819   0.893
16437W        W88862  30.988  36.404   3.830
16438W        W88863  10.179  39.971  14.898
16439W        W88864   0.891   3.932  14.397
16440W        W88865  26.544  23.721   0.282
16441W        W88866  12.241   6.443  11.454
16442W        W88867  24.601  10.983  14.418
16443W        W88868   4.115  39.034   4.447
16444W        W88869  26.024  19.509   2.342
16445W        W88870  39.308   7.729   3.270
16446W        W88871  26.414  44.404   1.455
16447W        W88872  24.570  24.999   3.828
16448W        W88873  18.585  32.098  12.022
16449W        W88874  33.493  28.138   2.758
16450W        W88875  14.294  32.339   1.647
16451W        W88876  30.570  41.898  12.164
16452W        W88877  43.924  31.885   4.184
16453W        W88878  19.618   4.193  13.805
16454W        W88879  27.891  22.743   4.646
16455W        W88880  23.951  19.010   4.606
16456W        W88881   9.697   4.912   3.242
16457W        W88882  17.835  25.587   1.229
16458W        W88883  29.461   9.183   2.737
16459W        W88884  23.678   4.389   0.362
16460W        W88885  14.240  31.870   2.905
16461W        W88886  28.854  28.962  14.783
16462W        W88887  19.575   5.434  14.702
16463W        W88888  30.332  17.797  13.329
16464W        W88889  28.115  40.942  14.892
16465W        W88890  10.274  31.803   0.325
16466W        W88891  41.250  38.076  13.416
16467W        W88892   5.646   9.853  12.017
16468W        W88893  16.288  13.884   0.412
16469W        W88894  41.689   8.078  11.031
16470W        W88895  21.837  12.051  14.918
16471W        W88896  40.243  44.123  10.661
16472W        W88897  11.706  17.668  14.498
16473W        W88898  23.255   5.486   0.684
16474W        W88899  38.594   6.497  14.786
16475W        W88900  44.898  14.421   1.436
16476W        W88901  36.406  33.815   4.694
16477W        W88902  41.757  40.374   4.242
16478W        W88903   8.164  24.711   0.914
16479W        W88904   4.615   6.884  14.042
16480W        W88905  36.380  28.747  14.369
16481W        W88906  12.677  13.775  12.963
16482W        W88907  24.568   5.874   2.803
16483W        W88908  35.492  33.093  12.396
16484W        W88909  36.368  29.177  11.918
16485W        W88910  17.743  40.538  12.135
16486W        W88911  18.093   3.951  13.069
16487W        W88912  43.029  30.741   4.153
16488W        W88913  24.929  44.840   4.128
16489W        W88914  32.747   0.008   5.075
16490W        W88915  42.841  31.725   0.262
16491W        W88916   1.860  29.375   4.514
16492W        W88917  36.660  10.781  11.149
16493W        W88918  20.501  36.827  13.355
16494W        W88919  38.777  28.489   2.300
16495W        W88920  32.305  27.233  13.891
16496W        W88921  18.002  21.197   0.325
16497W        W88922  41.222  33.402   4.577
16498W        W88923  44.433  23.196  11.844
16499W        W88924   9.295  42.781   3.259
16500W        W88925  40.925   4.819   0.955
16501W        W88926  17.735  43.275  14.866
16502W        W88927   5.693   6.492  12.026
16503W        W88928  13.242   8.131   3.227
16504W        W88929   8.889  40.959   1.649
16505W        W88930  26.015   1.972   9.861
16506W        W88931  32.865  40.370   1.734
16507W        W88932   5.169  15.218  12.688
16508W        W88933  15.656  17.886  11.756
16509W        W88934   0.420  23.939  14.969
16510W        W88935  36.851  26.076  14.304
16511W        W88936   5.327  28.878  11.316
16512W        W88937   3.293  36.623   2.191
16513W        W88938  37.725  33.924  12.060
16514W        W88939   1.233   8.780  13.387
16515W        W88940  40.066   6.173   4.231
16516W        W88941  36.356   2.147   1.801
16517W        W88942  10.134  13.359   0.678
16518W        W88943  33.114   6.661   2.058
16519W        W88944  28.934   6.276   0.236
16520W        W88945  21.706  31.152   0.797
16521W        W88946  33.943  38.844   4.668
16522W        W88947  37.883  30.729  12.923
16523W        W88948  25.072  29.589  13.824
16524W        W88949   7.797  35.334   0.433
16525W        W88950   0.210  16.709   1.429
16526W        W88951  40.807  17.119   1.113
16527W        W88952  26.866  34.938   2.425
16528W        W88953  32.653  38.979  13.939
16529W        W88954  19.103  20.705  10.794
16530W        W88955  29.909  11.375   4.098
16531W        W88956  15.203  14.575   3.958
16532W        W88957  37.354   4.271   3.595
16533W        W88958   4.528  36.106  14.513
16534W        W88959   7.684   9.101  12.532
16535W        W88960  16.698  41.540   4.126
16536W        W88961   9.423   5.298   1.130
16537W        W88962  24.077  16.225   4.481
16538W        W88963  13.323  28.645  14.312
16539W        W88964   9.771  12.425   1.366
16540W        W88965  25.953  31.082  12.041
16541W        W88966  19.739  28.727  10.834
16542W        W88967   2.568  43.702  11.503
16543W        W88968  34.300  36.019  14.509
16544W        W88969  33.462  42.741   0.328
16545W        W88970   2.933   3.442  10.361
16546W        W88971  15.114  43.581  11.077
16547W        W88972  15.644  24.605  11.073
16548W        W88973  37.810  25.655  11.945
16549W        W88974  33.663   6.328  12.871
16550W        W88975  26.274  19.066   2.503
16551W        W88976  21.482  18.525  12.065
16552W        W88977   6.572  16.759  11.530
16553W        W88978   2.440  36.695   2.464
16554W        W88979  16.010  27.649  12.022
16555W        W88980  21.973  13.824  12.902
16556W        W88981   1.301  38.485  13.984
16557W        W88982   9.743  38.106  13.016
16558W        W88983   7.276  36.855   2.415
16559W        W88984  39.930  34.536  11.577
16560W        W88985  29.646  21.525   3.660
16561W        W88986  43.165  42.097   3.199
16562W        W88987  40.278  16.603  13.015
16563W        W88988  33.986  28.344  10.592
16564W        W88989  15.680   0.996   2.790
16565W        W88990  19.317  42.248   1.468
16566W        W88991  43.292  13.114  13.331
16567W        W88992  20.320   1.191  12.814
16568W        W88993   1.245  39.371  13.600
16569W        W88994   1.686   2.210  12.602
16570W        W88995  31.507  10.245   4.618
16571W        W88996   9.937  23.694   3.807
16572W        W88997  32.599  10.287   0.034
16573W        W88998  28.127   6.866   0.563
16574W        W88999  37.247  14.475   1.681
16575W        W89000  20.605  24.079   3.381
16576W        W89001  10.450  30.926   2.200
16577W        W89002  28.171   9.143  13.562
16578W        W89003  24.334  29.314  14.002
16579W        W89004   5.921  35.386   2.827
16580W        W89005  27.453  38.789   2.726
16581W        W89006  40.182  35.999  10.436
16582W        W89007  39.490  20.666   0.885
16583W        W89008  39.025  16.661   3.095
16584W        W89009  26.211   0.256  14.353
16585W        W89010   6.153   1.170  10.935
16586W        W89011  44.937  16.500   1.032
16587W        W89012   8.358  38.559  14.494
16588W        W89013   3.269  33.657   0.482
16589W        W89014  14.567  11.139  14.834
16590W        W89015  38.943   8.142  12.375
16591W        W89016  27.520  18.214   2.821
16592W        W89017  32.667  43.907   3.245
16593W        W89018  22.230  14.308  12.450
16594W        W89019  40.597  16.417  11.666
16595W        W89020  27.587  28.017   1.819
16596W        W89021   3.976  14.324  10.671
16597W        W89022  16.165   1.500  11.505
16598W        W89023  11.689  29.876   1.800
16599W        W89024  40.352  40.206   1.313
16600W        W89025  12.609   9.349   1.059
16601W        W89026  43.486  12.898   0.861
16602W        W89027  16.830  44.701   4.822
16603W        W89028   9.670  24.629   3.395
16604W        W89029  17.083  23.498   2.955
16605W        W89030  14.157  40.854   1.883
16606W        W89031  41.257   2.141   5.046
16607W        W89032  43.754  18.780   4.555
16608W        W89033   0.568  31.768   4.132
16609W        W89034   7.153  27.641   1.041
16610W        W89035   0.389  17.273   3.163
16611W        W89036  21.550  34.761   0.880
16612W        W89037  24.463   3.897   2.226
16613W        W89038  39.963   0.521   1.417
16614W        W89039   7.693  23.540  12.765
16615W        W89040   9.900   9.097   2.844
16616W        W89041  17.329  28.983  12.700
16617W        W89042  27.388  31.075   3.702
16618W        W89043  37.971  26.104  11.126
16619W        W89044   9.127  40.229   4.224
16620W        W89045  10.866   4.466   1.049
16621W        W89046  40.922  36.752  11.244
16622W        W89047   4.668  19.646  14.206
16623W        W89048  37.910  19.337   4.172
16624W        W89049  34.958   8.283  11.934
16625W        W89050  35.937  19.034   3.756
16626W        W89051  34.390  14.842   2.993
16627W        W89052   0.627  36.932   2.662
16628W        W89053  37.343   1.359  14.902
16629W        W89054  25.470   9.217   4.713
16630W        W89055  36.775  22.814   3.804
16631W        W89056   8.269  24.001   4.645
16632W        W89057  11.010   3.278   2.925
16633W        W89058  13.197   3.970   5.484
16634W        W89059  35.659  36.054   3.669
16635W        W89060  25.556  39.355  14.872
16636W        W89061  17.554  39.504   1.770
16637W        W89062  26.656  19.150  11.954
16638W        W89063  25.689  38.708   0.293
16639W        W89064  15.066  33.009   4.514
16640W        W89065  23.149  13.118  13.916
16641W        W89066  20.131   9.121  14.219
16642W        W89067  41.340  11.783   3.781
16643W        W89068   1.190  21.757  14.755
16644W        W89069  29.990  37.071   3.134
16645W        W89070  12.100  33.573   1.883
16646W        W89071  30.679  13.261   3.740
16647W        W89072  39.007  20.441   0.898
16648W        W89073  27.824   5.600   4.039
16649W        W89074  39.886  12.715   1.250
16650W        W89075  21.530  27.357  13.922
16651W        W89076  33.379  27.145  10.695
16652W        W89077  33.188   6.546  12.861
16653W        W89078  25.637  16.651  14.912
16654W        W89079  42.858  23.323  12.456
16655W        W89080  26.996  41.786  13.403
16656W        W89081  21.084  27.648  13.842
16657W        W89082   3.668   7.680  11.171
16658W        W89083  32.560  17.348  12.843
16659W        W89084  11.043  16.822  13.553
16660W        W89085  39.591   6.750   3.017
16661W        W89086  16.223  31.139  11.390
16662W        W89087  10.172  12.034  11.966
16663W        W89088  16.473  34.052  11.286
16664W        W89089  16.717  12.736   3.740
16665W        W89090   2.953  42.771  14.095
16666W        W89091  21.666  19.521  14.450
16667W        W89092  42.341  25.063   1.040
16668W        W89093  23.158  41.896  14.396
16669W        W89094  30.776  39.296  13.760
16670W        W89095  41.227  23.651  12.845
16671W        W89096   9.382  30.647  11.003
16672W        W89097  38.573  33.892   0.515
16673W        W89098  36.365  44.469  13.837
16674W        W89099   5.524  35.838   2.011
16675W        W89100   7.068  30.960  11.550
16676W        W89101  24.775   1.633   0.564
16677W        W89102   7.717   0.977  12.356
16678W        W89103   0.919   9.981   2.792
16679W        W89104  19.565  11.356   1.211
16680W        W89105  39.582  38.193   4.508
16681W        W89106   0.331   4.796  13.296
16682W        W89107  16.835  30.862   1.821
16683W        W89108  35.436  17.252  13.468
16684W        W89109  18.076  12.252  10.922
16685W        W89110  44.750  22.614   3.386
16686W        W89111  24.537  15.022   3.085
16687W        W89112  33.098  24.204   3.187
16688W        W89113  13.827  32.551   2.479
16689W        W89114  42.036  44.821  12.109
16690W        W89115  36.466  19.464   2.780
16691W        W89116  18.762  13.097  10.925
16692W        W89117  15.668   7.415  12.781
16693W        W89118  14.332   1.321  10.567
16694W        W89119  42.893  26.184  13.274
16695W        W89120  30.872  12.241  11.211
16696W        W89121  32.053  23.772   1.750
16697W        W89122  28.752  42.064  13.409
16698W        W89123   6.309  26.529  11.930
16699W        W89124  37.378  18.386   4.649
16700W        W89125  19.437   9.302   4.178
16701W        W89126  30.979  21.886  11.034
16702W        W89127  30.730  18.780   1.736
16703W        W89128  34.387  15.785  13.018
16704W        W89129   6.309  12.853   9.669
16705W        W89130  37.906  10.275   4.070
16706W        W89131  33.921  31.896  13.562
16707W        W89132  17.066  25.240   1.968
16708W        W89133  30.366  43.427   0.896
16709W        W89134  18.838  41.207  10.321
16710W        W89135  18.975   9.247   1.759
16711W        W89136  12.656  41.272   2.416
16712W        W89137  43.462  28.585  14.352
16713W        W89138  33.430   8.726   2.266
16714W        W89139  34.607  40.269   1.859
16715W        W89140  37.521  16.321  13.023
16716W        W89141  20.213   7.878   1.254
16717W        W89142  31.650  41.036   1.889
16718W        W89143  35.108  40.356  11.963
16719W        W89144  10.194  32.584  14.268
16720W        W89145  16.638  29.898  14.856
16721W        W89146   3.752  40.534  14.723
16722W        W89147  23.573  14.578   4.869
16723W        W89148  29.340  13.596   3.746
16724W        W89149   5.686   1.987   3.261
16725W        W89150   8.342   3.404   2.841
16726W        W89151  32.196  37.849  13.839
16727W        W89152   1.928  42.771  13.370
16728W        W89153  41.401  16.169   2.710
16729W        W89154  39.100  43.299  11.928
16730W        W89155   2.984  35.419  12.793
16731W        W89156  41.931  20.679  14.022
16732W        W89157  15.778  17.314   1.869
16733W        W89158   8.952  35.789  11.949
16734W        W89159  27.901  23.575   1.993
16735W        W89160  15.926   2.931   3.796
16736W        W89161  26.705   7.446   3.747
16737W        W89162  12.624  30.461  14.955
16738W        W89163  43.400  13.355   1.817
16739W        W89164   7.737  15.129   1.027
16740W        W89165  21.776  28.767   3.800
16741W        W89166  31.420  27.990  13.961
16742W        W89167   6.732  32.369   3.131
16743W        W89168  25.980  11.114  13.969
16744W        W89169  16.995  28.546  12.302
16745W        W89170   9.695  42.737  12.937
16746W        W89171  41.869  25.135  12.416
16747W        W89172   4.452  28.715  12.447
16748W        W89173  38.434  30.010  14.927
16749W        W89174  13.276  44.085   3.569
16750W        W89175   0.186  36.553  13.906
16751W        W89176  37.780  43.323  11.173
16752W        W89177  25.477  43.605   3.667
16753W        W89178  19.178   6.240   1.397
16754W        W89179  25.440  16.844  14.466
16755W        W89180   6.859  39.401   2.132
16756W        W89181   5.839   5.661  12.761
16757W        W89182  33.346  18.092  11.867
16758W        W89183  40.817  16.832  10.724
16759W        W89184  27.743   7.131   0.817
16760W        W89185  14.788  37.646  10.669
16761W        W89186  25.072  10.633  12.315
16762W        W89187  39.687  24.759  11.369
16763W        W89188   7.877  17.631   1.289
16764W        W89189  11.720  23.180  10.932
16765W        W89190  22.759  21.492   2.433
16766W        W89191  19.206  42.750   1.422
16767W        W89192  42.142  27.922  11.269
16768W        W89193  18.895  34.084   4.143
16769W        W89194  37.571  10.907  14.542
16770W        W89195  44.311   9.109   2.845
16771W        W89196  16.329   1.192  10.624
16772W        W89197  16.522  19.214  11.137
16773W        W89198  38.953  17.578  13.059
16774W        W89199  24.505  42.253  11.000
16775W        W89200  35.144  35.137  13.606
16776W        W89201  39.416   3.918   1.445
16777W        W89202  30.513  31.461  11.626
16778W        W89203   9.530   1.329   2.308
16779W        W89204  21.010  34.422   2.293
16780W        W89205   3.001  35.979   4.200
16781W        W89206   6.599  39.142  13.578
16782W        W89207  27.800  14.712  14.908
16783W        W89208  13.720   8.271  12.394
16784W        W89209   0.329  32.636  11.627
16785W        W89210  33.531   8.818  10.701
16786W        W89211  20.778  41.956  11.399
16787W        W89212  42.468  44.400  10.526
16788W        W89213   6.676   7.488  13.227
16789W        W89214   0.350  13.231  12.624
16790W        W89215   4.893  43.951  13.775
16791W        W89216   8.707   6.198   5.070
16792W        W89217  37.741  18.285   2.729
16793W        W89218  39.597  39.824   2.204
16794W        W89219  13.094  32.005  13.143
16795W        W89220  30.631  34.822  14.862
16796W        W89221   2.673  28.542   4.672
16797W        W89222  26.723  41.527  13.027
16798W        W89223  18.358  14.843  12.014
16799W        W89224  23.504  29.409  14.458
16800W        W89225  38.985   6.216  14.916
16801W        W89226  40.810  14.781  14.403
16802W        W89227   4.657  40.995   3.268
16803W        W89228  38.583   3.549  10.825
16804W        W89229  41.381  38.074   2.963
16805W        W89230  16.718  38.977   0.276
16806W        W89231  36.349  43.734  10.502
16807W        W89232  12.839   7.955  14.352
16808W        W89233  15.292   9.717   3.823
16809W        W89234  18.153  36.013   4.673
16810W        W89235  20.649   9.314  10.565
16811W        W89236  10.303  37.513   0.719
16812W        W89237   0.262  20.391   4.446
16813W        W89238   4.505  43.450  11.373
16814W        W89239   9.912  35.466   2.689
16815W        W89240   0.760  16.597  11.235
16816W        W89241  18.079  24.614   4.140
16817W        W89242   9.345  43.478  11.924
16818W        W89243  37.148  20.746   1.742
16819W        W89244   4.876  20.217  12.898
16820W        W89245   0.201  22.273   4.739
16821W        W89246  12.285  42.569   4.212
16822W        W89247  13.269   5.406   0.505
16823W        W89248   6.946  42.152   3.915
16824W        W89249  16.767  16.325   4.543
16825W        W89250  41.081  15.677  11.954
16826W        W89251  21.875   8.123  13.265
16827W        W89252   2.270  19.733   1.466
16828W        W89253  12.820   3.459  11.022
16829W        W89254  29.976   7.772  11.340
16830W        W89255  15.081  18.618   3.717
16831W        W89256  28.424   8.040  14.953
16832W        W89257  12.574  42.774  12.176
16833W        W89258  17.235   4.042   1.740
16834W        W89259   7.729  40.153  12.430
16835W        W89260  16.648  28.484   1.967
16836W        W89261  22.631  23.559  10.245
16837W        W89262  12.771   3.645   2.316
16838W        W89263  13.847  43.735   0.833
16839W        W89264  30.942  29.387   3.298
16840W        W89265  35.551  29.209   2.988
16841W        W89266  23.147  13.971   1.309
16842W        W89267  20.135  24.699   0.278
16843W        W89268  13.189  23.397   5.197
16844W        W89269   0.239  23.033   1.141
16845W        W89270  13.318  19.819  10.324
16846W        W89271  18.072   7.675  11.409
16847W        W89272  41.912  20.216   2.826
16848W        W89273  43.991  20.597   5.308
16849W        W89274  21.683  18.522  12.914
16850W        W89275  32.973   4.480   0.827
16851W        W89276  44.888   4.529  11.207
16852W        W89277  36.926  32.555  12.336
16853W        W89278  25.160  10.464   1.802
16854W        W89279  26.433  44.931   2.237
16855W        W89280  31.052  27.957  11.230
16856W        W89281  38.980   3.663  12.056
16857W        W89282   5.540  32.954   2.977
16858W        W89283  21.826  41.899   3.673
16859W        W89284   4.833   6.889   2.204
16860W        W89285  13.400  28.949  13.893
16861W        W89286  14.386  20.331   2.220
16862W        W89287  11.152  20.711  11.161
16863W        W89288  35.899  13.926   3.202
16864W        W89289   0.235   3.852  14.298
16865W        W89290  44.347  31.154  10.128
16866W        W89291   8.877  25.149   2.678
16867W        W89292  10.734  12.748   1.262
16868W        W89293   4.901   3.008  11.282
16869W        W89294  15.865  15.144  12.195
16870W        W89295  19.456  43.346   3.606
16871W        W89296  38.825  39.349  12.480
16872W        W89297  16.046  37.249   0.355
16873W        W89298  41.983   9.295   2.812
16874W        W89299  36.116   6.848   1.467
16875W        W89300  12.020   8.168  14.730
16876W        W89301  10.272   6.090  12.534
16877W        W89302  23.586  21.120  12.023
16878W        W89303   5.435   3.591   3.013
16879W        W89304  11.269   8.207  14.940
16880W        W89305  24.567  13.575  11.998
16881W        W89306   1.480  15.613   0.872
16882W        W89307   3.268  35.432   1.413
16883W        W89308   3.403   8.685  12.887
16884W        W89309  42.601  43.353   0.132
16885W        W89310   6.660  11.258  13.103
16886W        W89311  32.037  44.488  12.040
16887W        W89312  42.544  11.264   0.286
16888W        W89313  16.580  34.122   3.694
16889W        W89314  42.966  25.077  11.536
16890W        W89315  40.347   1.665   0.690
16891W        W89316  16.329  37.317  14.314
16892W        W89317  13.172  30.160   1.659
16893W        W89318  31.371  28.017   2.661
16894W        W89319  17.452  24.632  11.148
16895W        W89320   6.307  24.664   0.981
16896W        W89321   9.636  25.180  14.420
16897W        W89322  17.150  27.899  11.664
16898W        W89323  33.891  11.101  12.660
16899W        W89324  12.663  30.978   0.707
16900W        W89325  38.561   3.808   4.833
16901W        W89326   4.446  18.758   1.885
16902W        W89327  14.085  23.261   3.137
16903W        W89328  27.149  20.704   2.202
16904W        W89329   9.213  43.864   0.724
16905W        W89330   4.201   5.244  11.108
16906W        W89331  14.206  19.216   3.406
16907W        W89332  26.733  14.715   0.691
16908W        W89333  10.316  41.814   4.157
16909W        W89334  17.011  37.395   4.697
16910W        W89335  14.286  31.554  12.902
16911W        W89336   2.339  23.219   3.700
16912W        W89337  34.488  19.370  14.548
16913W        W89338  44.695  44.222   4.958
16914W        W89339  44.830  40.292  11.901
16915W        W89340  36.115  36.446   1.721
16916W        W89341  42.772  32.746   2.229
16917W        W89342  38.889   7.661  14.986
16918W        W89343  11.557  28.915   4.158
16919W        W89344  25.171  36.660  12.940
16920W        W89345  25.476   5.758   1.353
16921W        W89346   7.106  27.967  10.522
16922W        W89347   9.642   1.094  12.538
16923W        W89348   6.669  35.467   2.326
16924W        W89349  38.609  31.578   2.576
16925W        W89350   9.115  32.806  13.028
16926W        W89351   3.083  24.954   9.991
16927W        W89352  33.550  37.186   4.541
16928W        W89353  36.811  36.358  11.624
16929W        W89354  26.750  44.867  11.809
16930W        W89355  26.946  21.141   0.798
16931W        W89356  37.362  43.224   4.172
16932W        W89357  33.142  32.658   3.684
16933W        W89358  22.781  30.495   0.937
16934W        W89359  37.727  42.456  11.151
16935W        W89360  30.523  44.712   2.235
16936W        W89361  19.338  32.600  11.968
16937W        W89362   8.779  26.121  14.303
16938W        W89363  26.146  33.054  12.922
16939W        W89364  10.074  31.593  12.024
16940W        W89365  22.203   5.990   3.877
16941W        W89366  33.613  10.417  12.375
16942W        W89367  25.131  32.675  12.341
16943W        W89368   6.947  41.954   0.479
16944W        W89369  34.457  40.286   0.457
16945W        W89370   3.583  16.127   2.820
16946W        W89371  43.223   5.010  11.470
16947W        W89372  43.348   9.377  12.023
16948W        W89373   3.771  29.978   3.289
16949W        W89374   1.765  11.191  14.838
16950W        W89375  31.106  39.482  14.217
16951W        W89376   3.262  31.748   3.284
16952W        W89377  13.323  17.712   0.511
16953W        W89378  27.050  28.653   3.189
16954W        W89379   4.992  40.750   2.956
16955W        W89380  19.293  41.628   1.750
16956W        W89381  10.438  31.067   3.578
16957W        W89382  23.633   5.405   3.677
16958W        W89383  38.494  24.957   2.813
16959W        W89384  33.592  26.945   3.315
16960W        W89385   6.169  15.040   1.210
16961W        W89386  42.535  38.370   2.104
16962W        W89387  42.422  13.361  13.405
16963W        W89388  21.279  23.322   0.338
16964W        W89389  21.868   9.443   2.334
16965W        W89390  19.310  23.275   4.238
16966W        W89391   4.198  20.487   0.198
16967W        W89392   6.700  21.548   0.990
16968W        W89393   1.301  17.640   4.033
16969W        W89394  13.975  22.103   2.790
16970W        W89395  18.651  31.653   2.449
16971W        W89396  34.924  41.447  14.398
16972W        W89397  20.804   7.333  10.780
16973W        W89398  23.982  30.745   1.782
16974W        W89399   2.778  16.415   1.764
16975W        W89400  11.199  21.504   0.400
16976W        W89401  36.483   7.914   3.565
16977W        W89402   1.056  12.805  13.546
16978W        W89403  31.219  26.656  13.413
16979W        W89404  15.705  40.431   0.278
16980W        W89405  33.245   5.266  10.649
16981W        W89406  33.626   0.045   3.660
16982W        W89407   5.467   4.791  13.178
16983W        W89408  29.935  33.899  11.198
16984W        W89409  43.632   6.496   0.118
16985W        W89410  42.258   4.694  12.855
16986W        W89411   7.769   5.390   2.614
16987W        W89412  21.933  21.522  13.830
16988W        W89413  40.233   0.372  11.204
16989W        W89414  15.110  37.365  14.489
16990W        W89415  18.099  17.193   3.112
16991W        W89416  15.784  18.570  10.618
16992W        W89417   4.736   6.370  14.829
16993W        W89418  22.496   4.774   2.320
16994W        W89419   7.375  29.393   1.720
16995W        W89420  16.089  15.052   1.742
16996W        W89421  25.886  31.615  13.501
16997W        W89422  39.947   4.509  14.325
16998W        W89423  17.250  20.201  12.448
16999W        W89424  42.981  43.648  12.578
17000W        W89425  28.617  43.079  13.548
17001W        W89426  30.420  17.710  13.930
17002W        W89427  10.048  15.506   4.577
17003W        W89428  10.632  37.814   4.279
17004W        W89429  30.146  28.151   3.193
17005W        W89430  12.702  21.193  12.454
17006W        W89431  13.885   6.132   3.780
17007W        W89432  11.833  39.486   4.353
17008W        W89433   4.672  42.769   3.335
17009W        W89434  36.495  33.942   3.230
17010W        W89435  32.267  13.313  13.146
17011W        W89436   5.273  19.133   1.755
17012W        W89437  34.903   5.713  11.155
17013W        W89438  43.556  33.913   3.605
17014W        W89439   6.240   7.561   4.565
17015W        W89440  44.896  15.268   1.503
17016W        W89441  14.510  28.942   0.141
17017W        W89442  20.781  43.258  11.117
17018W        W89443   0.238  38.387   3.278
17019W        W89444  41.512  15.810  13.086
17020W        W89445  25.927  36.894  12.995
17021W        W89446   4.214  28.034  11.982
17022W        W89447  19.151   0.482   0.961
17023W        W89448  31.791  21.064  10.712
17024W        W89449   8.171  38.466   1.199
17025W        W89450  18.583  16.360  12.874
17026W        W89451  43.386  36.502   1.708
17027W        W89452  34.949  23.496  11.382
17028W        W89453  30.416   1.299  13.418
17029W        W89454  20.489  36.602   3.628
17030W        W89455  18.781  18.047  12.482
17031W        W89456  37.313  27.081  12.858
17032W        W89457  19.808   7.253   3.241
17033W        W89458  20.454  44.703   0.734
17034W        W89459  41.518  41.375  11.031
17035W        W89460   5.509  32.455  14.332
17036W        W89461  26.467   8.656  14.521
17037W        W89462  18.507  36.991  12.420
17038W        W89463  14.495  35.896   2.284
17039W        W89464  34.568  35.528  10.834
17040W        W89465   4.063  17.759   1.845
17041W        W89466  24.767   6.759   4.179
17042W        W89467  11.168  40.011   4.584
17043W        W89468  35.863  12.909  12.418
17044W        W89469  38.770  30.408   0.233
17045W        W89470  20.782  17.923  14.620
17046W        W89471  41.701   4.866  10.826
17047W        W89472   3.448   6.353   3.109
17048W        W89473  25.182   7.215  13.401
17049W        W89474  38.813  34.326   0.270
17050W        W89475  44.903  13.558  10.633
17051W        W89476  27.482  10.334  12.500
17052W        W89477  27.119  18.572   1.952
17053W        W89478  26.717  27.049  12.676
17054W        W89479  38.960   4.383  11.675
17055W        W89480  22.672  13.592  11.429
17056W        W89481  33.462  39.910  12.079
17057W        W89482  40.467  31.996   4.070
17058W        W89483  43.811  13.333  14.024
17059W        W89484  37.162  35.005   3.101
17060W        W89485  34.179  40.570   0.123
17061W        W89486  31.657  18.124   3.787
17062W        W89487  43.305   3.819  12.127
17063W        W89488  17.796  31.944  10.278
17064W        W89489   3.956  12.074  11.093
17065W        W89490   7.029  41.814  12.836
17066W        W89491  24.486  14.576  13.500
17067W        W89492   3.311  43.882   4.401
17068W        W89493   8.723  37.851  10.708
17069W        W89494  14.330  29.670   3.433
17070W        W89495   2.138  42.431  12.432
17071W        W89496  30.445  32.480  14.065
17072W        W89497   0.453  17.699  11.545
17073W        W89498  29.695  13.349   2.116
17074W        W89499  22.545   4.457   1.543
17075W        W89500  31.394  27.473  11.022
17076W        W89501  22.756  35.016  10.703
17077W        W89502  11.366  11.921   4.958
17078W        W89503  41.891  38.447  12.400
17079W        W89504  22.004  36.967  12.167
17080W        W89505  11.645  20.640   2.233
17081W        W89506  23.977  40.789  11.428
17082W        W89507  30.145  35.457   1.904
17083W        W89508  44.125   3.718   0.927
17084W        W89509   6.837  30.164   0.038
17085W        W89510  37.823  33.463   3.155
17086W        W89511  21.227  38.386  13.051
17087W        W89512  21.184  28.786  14.680
17088W        W89513  13.369  15.274   0.289
17089W        W89514  16.230  28.621   3.292
17090W        W89515   1.907  39.092   0.356
17091W        W89516  31.946  42.970   2.741
17092W        W89517   4.756  15.078  12.376
17093W        W89518  19.752  10.263  12.588
17094W        W89519  16.839  41.981  12.561
17095W        W89520  35.588  33.371   0.157
17096W        W89521   7.859  28.201  14.277
17097W        W89522   8.124  29.725   0.901
17098W        W89523  25.161  42.540   4.417
17099W        W89524  23.215  19.539   0.735
17100W        W89525  10.686  22.352   5.403
17101W        W89526  12.118  36.858   0.745
17102W        W89527  23.063  28.701   2.912
17103W        W89528  19.446  34.238  11.141
17104W        W89529  38.807  41.994  13.906
17105W        W89530   3.227  43.291   0.247
17106W        W89531  10.330   9.874  10.358
17107W        W89532   7.437   0.367  11.231
17108W        W89533  28.579   2.822   4.274
17109W        W89534  13.168  40.763  14.394
17110W        W89535  20.966  39.002   4.658
17111W        W89536  30.849  28.907   0.779
17112W        W89537  38.212  14.526   3.486
17113W        W89538  44.464  11.909   1.884
17114W        W89539  23.972  29.034   2.974
17115W        W89540  37.808  29.428   4.172
17116W        W89541   5.962  15.795   0.447
17117W        W89542  22.209  21.011   3.282
17118W        W89543   0.480  44.645   2.338
17119W        W89544  24.087  44.779  12.403
17120W        W89545   8.368  36.239   0.961
17121W        W89546  22.656  33.811   2.362
17122W        W89547   1.018  36.602  12.113
17123W        W89548  26.106  40.547   0.266
17124W        W89549  12.545  27.225  14.390
17125W        W89550  44.377  22.310  13.941
17126W        W89551  42.062  19.072   4.120
17127W        W89552  13.132  13.348  13.120
17128W        W89553   6.845  24.234  11.407
17129W        W89554  16.002  35.540   5.121
17130W        W89555  26.664  29.458  14.949
17131W        W89556  11.089  21.664   4.873
17132W        W89557  29.471  23.960  11.938
17133W        W89558   4.891  23.180  12.027
17134W        W89559  39.269  42.003  12.596
17135W        W89560  23.776  27.672   3.153
17136W        W89561   9.130  41.930  13.921
17137W        W89562   4.295   1.328   0.387
17138W        W89563  13.839  39.869  12.942
17139W        W89564  15.553  33.542  10.472
17140W        W89565  24.020  35.043   1.136
17141W        W89566  36.430  24.133   2.918
17142W        W89567  19.313  25.626  10.755
17143W        W89568  37.460  22.762  14.589
17144W        W89569  22.027  44.208   0.284
17145W        W89570  39.213  36.415  12.001
17146W        W89571  26.360  13.395   4.155
17147W        W89572   0.005  27.903  13.825
17148W        W89573  31.323  11.711   4.048
17149W        W89574   0.713  30.815  10.797
17150W        W89575  19.767  34.952   1.316
17151W        W89576  39.420  17.802   3.686
17152W        W89577   2.740  23.992  12.382
17153W        W89578  32.955  42.531   9.991
17154W        W89579  29.727   0.980   0.329
17155W        W89580   1.064  15.215  10.932
17156W        W89581  24.719   3.389  12.696
17157W        W89582  17.628  11.140  12.444
17158W        W89583   8.658   8.443  13.980
17159W        W89584  12.868  29.855  11.356
17160W        W89585  23.650   4.343  14.504
17161W        W89586  32.385  29.136  12.529
17162W        W89587  34.030  24.391   2.955
17163W        W89588  13.046  25.946  14.764
17164W        W89589  28.603  28.488   1.682
17165W        W89590  25.638   4.449  11.381
17166W        W89591   3.466  41.492  14.972
17167W        W89592  30.911  40.147  11.611
17168W        W89593  40.480  12.782  12.975
17169W        W89594  31.467  35.472  12.134
17170W        W89595  44.909  40.374   4.156
17171W        W89596   1.882  38.328   3.306
17172W        W89597   4.731  26.945   4.176
17173W        W89598  43.050  12.756   3.695
17174W        W89599  14.155  36.771   4.121
17175W        W89600  22.499  42.109  11.901
17176W        W89601   5.607  19.875   3.232
17177W        W89602  32.996  43.301  11.177
17178W        W89603   7.681  27.885  14.660
17179W        W89604  37.804  19.170   2.661
17180W        W89605  34.169  36.890  12.553
17181W        W89606  36.028  23.456   3.559
17182W        W89607   2.986  19.816   4.261
17183W        W89608  43.325  10.347  13.446
17184W        W89609   4.694  27.008  13.385
17185W        W89610  10.952  42.407   2.466
17186W        W89611   1.554  16.937   2.338
17187W        W89612   0.706   8.995   2.770
17188W        W89613  36.035  40.157   2.426
17189W        W89614  19.023   7.363  11.174
17190W        W89615  18.756  22.786   3.126
17191W        W89616  29.484   9.173  11.102
17192W        W89617  24.019   9.347   0.932
17193W        W89618   2.889  39.941  14.790
17194W        W89619  27.978  21.000   2.798
17195W        W89620  26.660   2.452   0.395
17196W        W89621  43.884  40.114  13.363
17197W        W89622  23.022  30.861  10.559
17198W        W89623   2.577  15.349  14.475
17199W        W89624  14.985  14.463  11.132
17200W        W89625   5.436  39.021   1.819
17201W        W89626  21.704   5.394  12.951
17202W        W89627  30.515  23.387  14.806
17203W        W89628  41.439  24.151  10.404
17204W        W89629  31.548  36.504  13.551
17205W        W89630  20.263   7.192  14.100
17206W        W89631  26.076   2.960  11.582
17207W        W89632  34.558  18.496   3.872
17208W        W89633  23.989  23.716   3.605
17209W        W89634  15.536   3.449   1.479
17210W        W89635  20.775  27.181  11.806
17211W        W89636  21.146  25.171   4.391
17212W        W89637  17.992   0.260   3.367
17213W        W89638  39.276  12.295   4.224
17214W        W89639   2.914  10.803  14.339
17215W        W89640  11.193  12.341   1.854
17216W        W89641  40.403  36.051  13.419
17217W        W89642  21.289  33.007   2.328
17218W        W89643  23.681  16.894   3.631
17219W        W89644  24.767  41.279  10.810
17220W        W89645  34.858  28.007   3.361
17221W        W89646  30.248  13.590   0.285
17222W        W89647   7.958  21.834   4.145
17223W        W89648  27.754  30.826   5.291
17224W        W89649  37.620   9.418  12.400
17225W        W89650  43.569  13.660   2.223
17226W        W89651  30.925  24.721  12.126
17227W        W89652  32.319  17.799  12.880
17228W        W89653  32.035   9.358  14.228
17229W        W89654  15.040  41.291   2.770
17230W        W89655  14.688  16.806  10.697
17231W        W89656   2.282  26.879   2.018
17232W        W89657  26.746   5.809  13.950
17233W        W89658  39.284  40.053   1.817
17234W        W89659  26.420  17.978  12.551
17235W        W89660  16.338  22.127  12.968
17236W        W89661  31.977  35.925  10.689
17237W        W89662  31.454  34.507  12.502
17238W        W89663   9.284  19.696   1.447
17239W        W89664  44.266   3.894  10.610
17240W        W89665  18.970   3.051  14.293
17241W        W89666  10.558  26.608  13.813
17242W        W89667  30.879  16.112  14.869
17243W        W89668  21.682   3.376   4.857
17244W        W89669  13.530  24.256   1.689
17245W        W89670  41.781  36.203  12.661
17246W        W89671   2.534   8.373  12.676
17247W        W89672  13.317  33.527   4.448
17248W        W89673  17.747   7.760  12.893
17249W        W89674  31.733  11.311  11.259
17250W        W89675   2.860  28.141   4.983
17251W        W89676  18.799   6.205   3.777
17252W        W89677  20.649  26.928   3.711
17253W        W89678   4.486  30.948   5.003
17254W        W89679  14.244  22.968   0.993
17255W        W89680  34.128  28.697   4.034
17256W        W89681  36.724  35.054  13.880
17257W        W89682  36.041  26.699  12.781
17258W        W89683   0.360   9.308  10.554
17259W        W89684   7.408  11.420  11.636
17260W        W89685  17.302   5.872  14.561
17261W        W89686  42.003  17.023   0.530
17262W        W89687  32.977  26.544   0.281
17263W        W89688  17.313  44.426  11.197
17264W        W89689   6.748   5.003   3.650
17265W        W89690  40.528  12.657  14.448
17266W        W89691  12.867  31.546  13.363
17267W        W89692  12.351   4.290   0.772
17268W        W89693  23.650  24.945   4.304
17269W        W89694  39.409  35.999  11.050
17270W        W89695  11.436  24.017  14.097
17271W        W89696  43.367  11.081   3.546
17272W        W89697  26.002  13.243  13.727
17273W        W89698  21.846  10.663  12.069
17274W        W89699  31.531  27.197   0.851
17275W        W89700   6.730  35.400   4.069
17276W        W89701  13.169   0.682  11.036
17277W        W89702  38.622   5.895  13.941
17278W        W89703  35.156  27.397   2.601
17279W        W89704  26.758  44.340  14.416
17280W        W89705  39.856   4.479  11.594
17281W        W89706   9.301  35.712   0.140
17282W        W89707   3.584  26.133  10.411
17283W        W89708  18.036  11.697  13.423
17284W        W89709   5.022  20.755  13.261
17285W        W89710   5.931  26.643   2.628
17286W        W89711  19.547  23.219  13.958
17287W        W89712   7.094  20.406  14.311
17288W        W89713  21.773   3.642  14.583
17289W        W89714  24.548   0.535   0.764
17290W        W89715  44.920   1.337  13.408
17291W        W89716  38.141  25.541  11.577
17292W        W89717   9.143   5.899  10.549
17293W        W89718  38.895   5.934  14.428
17294W        W89719  24.481  27.415   0.896
17295W        W89720  18.098  41.434  14.818
17296W        W89721   6.284  35.182  14.638
17297W        W89722   3.848  29.755  12.876
17298W        W89723  15.812  19.339   0.818
17299W        W89724  13.609   5.680   0.806
17300W        W89725   8.319  12.208   1.824
17301W        W89726  23.066  43.053   2.135
17302W        W89727   6.397  22.764   3.149
17303W        W89728  16.365   9.787   0.646
17304W        W89729  17.800  12.146  12.509
17305W        W89730  36.182  40.138   3.308
17306W        W89731  10.417  33.905  13.574
17307W        W89732   7.963  15.179   4.293
17308W        W89733   6.295   1.909   2.960
17309W        W89734  37.137  43.486   2.772
17310W        W89735  43.939   1.579   4.280
17311W        W89736  33.162  15.105  11.067
17312W        W89737   2.132  36.518  14.056
17313W        W89738  14.561  33.493  10.603
17314W        W89739  36.376  13.244   3.609
17315W        W89740   9.924   9.652  12.865
17316W        W89741   6.733  15.410   1.945
17317W        W89742  20.625  12.607   0.748
17318W        W89743   7.973  38.357  14.189
17319W        W89744  10.862  22.088   3.620
17320W        W89745  10.831  13.307  14.493
17321W        W89746  37.067  20.563   0.836
17322W        W89747  15.660  38.524   4.273
17323W        W89748   0.248   7.409   4.619
17324W        W89749  15.728  11.078   2.783
17325W        W89750  19.657  39.596  12.588
17326W        W89751  34.944   8.860   0.190
17327W        W89752  35.600   1.113  13.185
17328W        W89753  14.097  43.477  13.800
17329W        W89754  25.898  13.923   4.403
17330W        W89755  17.859  23.678  12.990
17331W        W89756  22.945  20.780   4.581
17332W        W89757   0.262  11.474  11.157
17333W        W89758  41.821  14.702  10.563
17334W        W89759  40.979  41.250  12.994
17335W        W89760  19.661  11.402  13.327
17336W        W89761  17.671  43.875  13.409
17337W        W89762  14.379  37.629  12.434
17338W        W89763  17.581   0.197   2.448
17339W        W89764  37.992   2.978  11.428
17340W        W89765  11.334  34.084   3.115
17341W        W89766  14.242  12.809  14.456
17342W        W89767  11.585  12.390   0.760
17343W        W89768   0.368  28.167   2.388
17344W        W89769   0.434  12.928   0.279
17345W        W89770  14.280  23.737   1.819
17346W        W89771  19.688  39.285  12.076
17347W        W89772  15.892  31.035   1.788
17348W        W89773   8.267  26.704  13.741
17349W        W89774  39.904  41.050   3.634
17350W        W89775   8.849  39.840   4.719
17351W        W89776   2.204  10.852   2.260
17352W        W89777  12.817  10.247   2.143
17353W        W89778  17.457  34.030   1.836
17354W        W89779  41.884  24.689  13.803
17355W        W89780  28.917   0.354   4.375
17356W        W89781  38.003  11.295   4.637
17357W        W89782  12.197  38.162  13.858
17358W        W89783  21.172  31.595   1.740
17359W        W89784  43.983  37.985   3.863
17360W        W89785   2.753  23.025   1.839
17361W        W89786  14.540  24.487  13.328
17362W        W89787  15.609  33.631   2.310
17363W        W89788  23.121  39.709  12.498
17364W        W89789  17.323   1.138   3.216
17365W        W89790  30.143  43.192  10.794
17366W        W89791  28.386  43.853   2.359
17367W        W89792  25.418  39.345   4.820
17368W        W89793  40.588  28.633  11.619
17369W        W89794  14.062  32.930   2.227
17370W        W89795  25.162   9.932   4.137
17371W        W89796  44.862  40.557  12.372
17372W        W89797  27.305  29.652   3.324
17373W        W89798  27.514  42.855  10.938
17374W        W89799  22.496  35.998  14.027
17375W        W89800  30.545  41.503   4.975
17376W        W89801  23.156  12.199   9.773
17377W        W89802  10.397  15.423  10.327
17378W        W89803   9.584  12.603  12.260
17379W        W89804  16.995   1.661  11.029
17380W        W89805  31.709   0.703  13.384
17381W        W89806  18.393  27.868  13.293
17382W        W89807  25.451   6.698  10.773
17383W        W89808  41.912  12.200   0.412
17384W        W89809  14.064  32.989   4.647
17385W        W89810  23.611   2.599   3.526
17386W        W89811  17.705  20.471  11.918
17387W        W89812  34.632   2.708  12.064
17388W        W89813   7.638  23.638   3.798
17389W        W89814  29.656  13.432  14.917
17390W        W89815  15.089   5.715  14.339
17391W        W89816   6.864  29.383   2.929
17392W        W89817  37.770   2.872  12.469
17393W        W89818  29.048  38.021   1.847
17394W        W89819   6.413  21.723  13.833
17395W        W89820  17.614  39.348   4.433
17396W        W89821  35.337  20.812   4.303
17397W        W89822  44.270  35.114   4.235
17398W        W89823  32.210  25.492   1.372
17399W        W89824  12.551  12.693   2.819
17400W        W89825  26.671  25.285   0.383
17401W        W89826   6.979  14.538   4.541
17402W        W89827   9.102  31.000  13.612
17403W        W89828  11.330  14.740  13.913
17404W        W89829  11.327  23.034  10.144
17405W        W89830  12.311  10.218   2.299
17406W        W89831  14.740  29.937   1.248
17407W        W89832  31.912  28.642   4.206
17408W        W89833  34.062  26.701   2.609
17409W        W89834  17.600  11.105   1.425
17410W        W89835  20.141   1.854   3.465
17411W        W89836  24.457  31.165  14.193
17412W        W89837  12.904  40.029  14.410
17413W        W89838   3.345  15.260  14.864
17414W        W89839  35.051  30.271   4.191
17415W        W89840  29.307   4.888   4.738
17416W        W89841   0.720  40.791   1.350
17417W        W89842  19.287   7.098   3.326
17418W        W89843  21.569  34.978  12.077
17419W        W89844  37.521   8.084   5.324
17420W        W89845   5.844  40.286   2.986
17421W        W89846  14.231  40.052  12.013
17422W        W89847  33.652  24.733  13.306
17423W        W89848  41.266   0.273  12.061
17424W        W89849  13.614  14.822  12.307
17425W        W89850  27.001   5.414  13.037
17426W        W89851   6.515  23.427   4.891
17427W        W89852   7.188  18.746   3.857
17428W        W89853  39.515  21.750   3.170
17429W        W89854   1.396  32.086   4.119
17430W        W89855   4.851  11.383   3.144
17431W        W89856  23.061  37.113   2.835
17432W        W89857  36.483   4.776   2.704
17433W        W89858  38.017  41.490   3.243
17434W        W89859  18.556  31.395  10.759
17435W        W89860  14.699   3.533   2.376
17436W        W89861  17.258  10.238   1.422
17437W        W89862  36.562  23.340   5.039
17438W        W89863   7.988  39.986   0.749
17439W        W89864  17.992  37.507   3.667
17440W        W89865  37.442  23.507   1.052
17441W        W89866  23.710  30.215  13.906
17442W        W89867  32.922  36.916   4.598
17443W        W89868  10.574  36.889   1.321
17444W        W89869  14.995  19.660   2.373
17445W        W89870   9.384  28.365   4.486
17446W        W89871  15.394   2.032   1.536
17447W        W89872  16.209  35.991  13.906
17448W        W89873  29.221  34.019  13.987
17449W        W89874  13.727  35.920   2.852
17450W        W89875   8.201  38.387  13.130
17451W        W89876  33.846  17.061  10.933
17452W        W89877  26.549   2.131  14.940
17453W        W89878  44.907  17.102  14.411
17454W        W89879  31.935   4.308   1.651
17455W        W89880  43.193  17.991  11.539
17456W        W89881  30.844  36.111   1.725
17457W        W89882  38.116  31.986  14.122
17458W        W89883  28.977   2.631   4.586
17459W        W89884   6.805  27.129  12.417
17460W        W89885  12.352  34.134  11.618
17461W        W89886  10.441   1.319   2.410
17462W        W89887   9.155  21.971   1.285
17463W        W89888  10.825  10.607   0.469
17464W        W89889  27.155  25.547  12.125
17465W        W89890  34.942  26.451   4.158
17466W        W89891  37.451  39.019  10.405
17467W        W89892  44.381  32.041   2.863
17468W        W89893   1.948  41.696  14.729
17469W        W89894  36.035  19.658  13.881
17470W        W89895  14.757  20.285   1.263
17471W        W89896  35.942  33.988  10.590
17472W        W89897   4.470  39.343   0.064
17473W        W89898  35.406  20.058  10.823
17474W        W89899  34.478  12.858   1.229
17475W        W89900   1.336  12.635  10.502
17476W        W89901  10.336  34.519   4.123
17477W        W89902  15.060  43.066  11.143
17478W        W89903  23.379  20.732  14.858
17479W        W89904  41.267   8.616   1.247
17480W        W89905  27.008  13.981  14.483
17481W        W89906  28.870  16.285  11.333
17482W        W89907  15.528  16.611  12.127
17483W        W89908  41.833  10.706  10.387
17484W        W89909  27.676   8.880   1.345
17485W        W89910  26.131  38.745  14.976
17486W        W89911  44.927  33.117  13.315
17487W        W89912  10.890  35.150   4.351
17488W        W89913  39.394  35.515   1.210
17489W        W89914  13.703  20.196   1.269
17490W        W89915   9.938  11.608   4.496
17491W        W89916  23.659  19.787   3.325
17492W        W89917  43.917  24.450   1.262
17493W        W89918  28.154  23.126  10.936
17494W        W89919   1.861  16.646   1.739
17495W        W89920  41.822  24.115   0.441
17496W        W89921  44.232  10.224   0.879
17497W        W89922  15.609  31.805  11.620
17498W        W89923   4.801  26.764   1.527
17499W        W89924  41.006  21.721  14.430
17500W        W89925   8.243  13.619   3.786
17501W        W89926  39.252  22.093   0.266
17502W        W89927  11.920  28.567   1.935
17503W        W89928  28.285  20.792   3.178
17504W        W89929  16.831  27.731   4.702
17505W        W89930   5.231   6.929   2.965
17506W        W89931  37.001  37.420   4.569
17507W        W89932  15.336   0.750   4.107
17508W        W89933  19.075  26.070  11.734
17509W        W89934  16.554   8.117  10.306
17510W        W89935  34.519   5.927  14.481
17511W        W89936   5.941  22.117  12.550
17512W        W89937  32.893  27.056   1.148
17513W        W89938  22.994  44.702  12.494
17514W        W89939  25.048  42.708   1.198
17515W        W89940  31.250   5.687  12.483
17516W        W89941  27.060  37.104  12.075
17517W        W89942   1.388  14.396   4.633
17518W        W89943  32.546   4.468  12.606
17519W        W89944  13.885  21.313   1.326
17520W        W89945  26.909  39.944  12.796
17521W        W89946   0.388  41.043   4.666
17522W        W89947  43.846   9.603  13.308
17523W        W89948  17.141   4.836   5.055
17524W        W89949   3.272  44.317  11.420
17525W        W89950  40.705  35.198   2.293
17526W        W89951  39.645  10.052  12.080
17527W        W89952  42.405  12.545  11.083
17528W        W89953   1.455  28.934   0.758
17529W        W89954  10.706  34.151  11.038
17530W        W89955  25.959  37.138   2.237
17531W        W89956  24.547  20.856  13.187
17532W        W89957   7.856  37.486  13.272
17533W        W89958  14.040   8.424   4.518
17534W        W89959  43.833  44.080  13.439
17535W        W89960   0.328  23.451   1.412
17536W        W89961  11.209  28.077  10.779
17537W        W89962  17.795  19.137  14.819
17538W        W89963   0.480  44.798   3.731
17539W        W89964   9.419  11.354  12.471
17540W        W89965   1.840   8.615   2.332
17541W        W89966  20.619  40.733  10.845
17542W        W89967  19.163  17.163   4.102
17543W        W89968  41.336   3.273   2.469
17544W        W89969   7.927  16.002   3.593
17545W        W89970  41.308  25.298  14.825
17546W        W89971   6.102   2.005   2.469
17547W        W89972  38.753  25.035  12.948
17548W        W89973  38.842   1.913  13.609
17549W        W89974  36.840  17.054   1.864
17550W        W89975  18.801  36.533   1.342
17551W        W89976  37.957   7.977   4.568
17552W        W89977  43.025  12.888   1.437
17553W        W89978   5.256  30.593  13.976
17554W        W89979  30.143  15.866  11.269
17555W        W89980  18.119  33.911  10.230
17556W        W89981   7.210  35.817  10.748
17557W        W89982  35.070   7.680   3.205
17558W        W89983  28.496  17.485   1.264
17559W        W89984   9.886  13.126  10.777
17560W        W89985  13.383   7.623  13.861
17561W        W89986  40.887  34.515   1.753
17562W        W89987  44.109  12.624   1.633
17563W        W89988  34.083  23.152   2.331
17564W        W89989   6.919   6.412   4.979
17565W        W89990  18.494  32.259   3.732
17566W        W89991  18.557   9.383   4.286
17567W        W89992   8.320  38.033   4.566
17568W        W89993  27.716  25.769   0.323
17569W        W89994  39.228  38.619   2.740
17570W        W89995  14.631   7.740   1.925
17571W        W89996  23.413  12.072   3.810
17572W        W89997  31.146  31.377  13.624
17573W        W89998   3.200   4.871   4.773
17574W        W89999  32.500   6.489  10.434
17575W        W90000  29.671   9.145   3.348
17576W        W90001  14.252  16.143  13.153
17577W        W90002  35.962  33.157   0.457
17578W        W90003  36.889  17.855   0.647
17579W        W90004  43.788  33.424   1.075
17580W        W90005  42.580  37.908  13.792
17581W        W90006   1.022  27.529  13.054
17582W        W90007  41.838  24.714   3.224
17583W        W90008  33.903  16.325   2.370
17584W        W90009  11.749  24.965   4.463
17585W        W90010  35.619  27.506  12.283
17586W        W90011  42.480  28.706  11.141
17587W        W90012  42.342   5.203   3.638
17588W        W90013  11.297  24.490  13.975
17589W        W90014   8.395  13.175  10.563
17590W        W90015  29.488   3.720  12.129
17591W        W90016  32.641  17.253   0.980
17592W        W90017  13.113  33.045  14.602
17593W        W90018  24.518  28.200   2.010
17594W        W90019  38.848  42.990   2.428
17595W        W90020   6.823  39.653   0.213
17596W        W90021  18.870   7.796   1.615
17597W        W90022   9.691  15.660   2.856
17598W        W90023  28.003  33.534  14.208
17599W        W90024  44.575  37.605   5.115
17600W        W90025   6.360  28.481   0.234
17601W        W90026   8.600  26.260   0.921
17602W        W90027  20.097  40.776  11.879
17603W        W90028  16.266  19.241  13.411
17604W        W90029   3.100  20.135   1.748
17605W        W90030   4.700   5.444  11.222
17606W        W90031   5.398  25.075  10.747
17607W        W90032  31.143   7.611   4.202
17608W        W90033  35.006  19.568   2.408
17609W        W90034  24.636  36.427   4.053
17610W        W90035  42.305  33.538   1.827
17611W        W90036   3.265  19.972  14.992
17612W        W90037  31.505  10.739  13.822
17613W        W90038  24.097  36.295  11.551
17614W        W90039  25.437  32.360   5.495
17615W        W90040  39.837  27.039  13.334
17616W        W90041  31.649  39.006  11.397
17617W        W90042  40.845   1.423  10.682
17618W        W90043  35.383  23.965   0.477
17619W        W90044  28.490  25.497   2.711
17620W        W90045  29.880  36.011   1.241
17621W        W90046  14.318  13.641   0.293
17622W        W90047   4.082  31.498   3.452
17623W        W90048  24.158   1.259   4.764
17624W        W90049  11.194  43.188  11.609
17625W        W90050  42.863  13.102   2.755
17626W        W90051   7.350  26.251  12.577
17627W        W90052   6.207  13.648  13.805
17628W        W90053   6.653  16.610   3.687
17629W        W90054  39.364  24.097  10.653
17630W        W90055  32.432  37.689   4.680
17631W        W90056  36.817  22.997  12.019
17632W        W90057  33.933  32.890   0.506
17633W        W90058   2.792  20.718  10.857
17634W        W90059  42.512  32.321   1.479
17635W        W90060  41.534  16.870  14.158
17636W        W90061  10.038  33.594   4.154
17637W        W90062  44.264  26.503   3.112
17638W        W90063  30.925  44.503   4.672
17639W        W90064   5.678  43.437   2.828
17640W        W90065  22.112  42.528  12.445
17641W        W90066  29.702  13.561  11.128
17642W        W90067  23.335  35.527  11.093
17643W        W90068  29.161   0.609  13.748
17644W        W90069  36.378  21.774  11.561
17645W        W90070  10.531  15.475  10.974
17646W        W90071  14.729   4.776  10.555
17647W        W90072  33.498  18.264  11.007
17648W        W90073  17.616  41.343   0.412
17649W        W90074  41.500  17.136  12.634
17650W        W90075  12.958  33.907   0.460
17651W        W90076  12.846  24.608   0.923
17652W        W90077   7.340  41.763  12.431
17653W        W90078  41.442  36.490   0.228
17654W        W90079  44.956  42.691   3.835
17655W        W90080  15.036   1.537   0.756
17656W        W90081  40.958   6.715   4.751
17657W        W90082  13.562  24.565   2.363
17658W        W90083  19.621  23.964   0.297
17659W        W90084   7.853   2.992   2.258
17660W        W90085  27.678  44.510   1.938
17661W        W90086   1.281   9.276   1.543
17662W        W90087  18.846  34.940   0.316
17663W        W90088  41.880   9.119   2.139
17664W        W90089  15.811  38.274  12.808
17665W        W90090  25.496  22.952  13.446
17666W        W90091  27.525  41.374   0.690
17667W        W90092  31.044  32.374   0.288
17668W        W90093  17.697   6.781  12.875
17669W        W90094  26.590  12.396  13.845
17670W        W90095   8.712  28.626  11.652
17671W        W90096  12.441   5.718   4.117
17672W        W90097  33.034   9.804   1.823
17673W        W90098  22.824  19.064  10.802
17674W        W90099  35.932   0.742  14.477
17675W        W90100  10.340  12.338  11.597
17676W        W90101  39.541  20.692  14.879
17677W        W90102  44.253  15.164   0.520
17678W        W90103  41.468  17.295  14.420
17679W        W90104  43.258  42.762  13.863
17680W        W90105  44.407  38.886   1.135
17681W        W90106  42.914   7.879  14.595
17682W        W90107   7.970  41.344  11.166
17683W        W90108   4.235   5.752  11.158
17684W        W90109  26.879  41.881  11.371
17685W        W90110  23.009  32.843  12.489
17686W        W90111   0.995  38.781  10.906
17687W        W90112  17.441  36.242  13.583
17688W        W90113  44.902  41.082   2.513
17689W        W90114  15.351  40.974   1.389
17690W        W90115  10.056  44.729  12.890
17691W        W90116  15.781  44.766   2.034
17692W        W90117  43.266  22.118   9.687
17693W        W90118  30.122  16.134   0.722
17694W        W90119   6.204  11.231  11.432
17695W        W90120  22.553  41.232  12.223
17696W        W90121   6.494   6.746   0.467
17697W        W90122  36.699  25.169   4.186
17698W        W90123  14.819  15.635  10.058
17699W        W90124   7.689  41.270   0.999
17700W        W90125  23.290  12.289   5.031
17701W        W90126   5.873  42.776   1.325
17702W        W90127  19.558  31.421   2.300
17703W        W90128  21.194  36.111   2.470
17704W        W90129   6.728   1.703  13.027
17705W        W90130  10.851  40.732  14.812
17706W        W90131  36.410  33.952  11.867
17707W        W90132  38.888  12.933   4.686
17708W        W90133  24.089  42.274   3.679
17709W        W90134  29.395   2.927   2.504
17710W        W90135   6.722  31.166  11.907
17711W        W90136  11.264  31.152  11.734
17712W        W90137  44.164   8.932   0.158
17713W        W90138   2.851  13.611   2.336
17714W        W90139  37.160  21.649   2.805
17715W        W90140  39.005  15.683   3.161
17716W        W90141   3.317   3.515   5.053
17717W        W90142  19.547   7.325   1.859
17718W        W90143  35.785  37.845   2.414
17719W        W90144  43.400  44.499   1.239
17720W        W90145  27.663  42.932  14.035
17721W        W90146  14.528  30.649   2.324
17722W        W90147   2.387  42.512  13.377
17723W        W90148  30.988  27.928   0.458
17724W        W90149  18.671   4.719   3.877
17725W        W90150   2.710  21.429   1.259
17726W        W90151  16.434  34.081   9.857
17727W        W90152   5.765  43.767   0.336
17728W        W90153   2.406  25.935  14.010
17729W        W90154  39.109  22.020   4.566
17730W        W90155  27.258  19.482  11.008
17731W        W90156   3.799  11.726   3.761
17732W        W90157  13.909  18.629   4.165
17733W        W90158  14.119  14.108   1.997
17734W        W90159  16.793  27.572   1.428
17735W        W90160  33.697  11.415   3.333
17736W        W90161  32.920   4.824   2.267
17737W        W90162  21.163  38.983  14.217
17738W        W90163  44.912  14.896   4.745
17739W        W90164  33.744  38.409   2.813
17740W        W90165  26.039  26.651   2.926
17741W        W90166  14.379  38.989   2.277
17742W        W90167  41.098   6.770  13.970
17743W        W90168   6.065   2.824  13.315
17744W        W90169  16.236   4.427  11.671
17745W        W90170  24.718   0.042   1.499
17746W        W90171  25.268  28.669  14.491
17747W        W90172  42.421  31.885  10.424
17748W        W90173  37.167  16.839  13.469
17749W        W90174  44.885   7.367   2.600
17750W        W90175  12.711  39.825   4.227
17751W        W90176  10.430  20.688  13.259
17752W        W90177   8.862  10.211  13.550
17753W        W90178   1.492  36.887  13.859
17754W        W90179  38.006   4.663  11.724
17755W        W90180  21.469  14.067  13.891
17756W        W90181  40.138  12.416   0.007
17757W        W90182  40.196   8.170  13.881
17758W        W90183   0.462  23.649  12.846
17759W        W90184  25.430  16.232  12.924
17760W        W90185  42.773   6.752   3.196
17761W        W90186   7.783  22.097   4.556
17762W        W90187   1.815  38.806  12.085
17763W        W90188   8.695   1.785  13.569
17764W        W90189  18.252   4.464   4.072
17765W        W90190  13.627   0.838   5.396
17766W        W90191  25.260   6.250  14.955
17767W        W90192   7.737  20.807  13.047
17768W        W90193  43.030  42.840   4.937
17769W        W90194  38.467   9.442   0.493
17770W        W90195  38.050  29.763  12.182
17771W        W90196  10.230  40.653  11.199
17772W        W90197  21.718  29.612  14.959
17773W        W90198  16.756  23.188  11.696
17774W        W90199  40.122  19.597  12.070
17775W        W90200  17.788  25.008   2.281
17776W        W90201  34.448  34.436  14.953
17777W        W90202  22.703  23.013  12.415
17778W        W90203  16.678  26.044   0.110
17779W        W90204  11.162   4.705  11.545
17780W        W90205  17.593  26.182  12.842
17781W        W90206  31.226   3.916   2.916
17782W        W90207  27.863  29.745   2.651
17783W        W90208   1.315  12.852   0.349
17784W        W90209  37.897   7.072  11.543
17785W        W90210  18.824  22.524  11.674
17786W        W90211  25.984  16.772  10.937
17787W        W90212  18.073   8.254   4.651
17788W        W90213  35.853   3.331  13.478
17789W        W90214  32.825  16.709  13.920
17790W        W90215  34.098   8.527   9.907
17791W        W90216  41.097  30.910  12.140
17792W        W90217  30.211   0.451   2.911
17793W        W90218   9.804   4.891  13.325
17794W        W90219  24.982   7.590  12.530
17795W        W90220  13.235  15.384  13.331
17796W        W90221   2.036  14.285   3.024
17797W        W90222  16.172  36.835  12.964
17798W        W90223  26.623  34.455  14.349
17799W        W90224  18.209  35.529  12.533
17800W        W90225   6.270   6.284  13.455
17801W        W90226   2.856  37.338  12.164
17802W        W90227   2.323   9.164   1.996
17803W        W90228  12.651  43.001   1.223
17804W        W90229   7.798  24.683   1.308
17805W        W90230  11.367   2.525   1.658
17806W        W90231  25.913  27.980  12.808
17807W        W90232  13.267  29.878   2.361
17808W        W90233  35.970  42.394  12.026
17809W        W90234  38.989   5.708  14.883
17810W        W90235   5.212  29.254   2.171
17811W        W90236  27.842  26.881   4.959
17812W        W90237  24.617  10.634  14.039
17813W        W90238   5.979   4.639   3.909
17814W        W90239  38.592  37.515   4.602
17815W        W90240   5.240  43.552  11.671
17816W        W90241   0.622   3.713   0.757
17817W        W90242   7.140  16.621   3.873
17818W        W90243   3.950  42.536  12.526
17819W        W90244   8.071  20.242  10.641
17820W        W90245  11.079  41.406   1.855
17821W        W90246   2.678   6.362  13.989
17822W        W90247  39.878  21.548   2.288
17823W        W90248  44.932   2.716  14.675
17824W        W90249  18.607  24.842   3.695
17825W        W90250   6.721  44.028   3.870
17826W        W90251   1.639  39.033   2.684
17827W        W90252  38.799  19.143  13.021
17828W        W90253  37.558  10.473  14.270
17829W        W90254  36.504  24.450  13.961
17830W        W90255  35.001  21.989   3.765
17831W        W90256   9.598  38.094  11.583
17832W        W90257   6.917   3.269   0.346
17833W        W90258  38.283   3.632  14.480
17834W        W90259  24.016  13.937   3.093
17835W        W90260  44.002   5.975  12.355
17836W        W90261  26.515  33.728   1.298
17837W        W90262  28.443  25.676  10.548
17838W        W90263  43.918   6.134  11.405
17839W        W90264  17.231   3.295   2.290
17840W        W90265  44.992  35.618   3.328
17841W        W90266  15.758  31.575   1.155
17842W        W90267  38.983  38.098  13.093
17843W        W90268   7.802   9.567  14.328
17844W        W90269   6.499  34.046   1.905
17845W        W90270  19.060  40.928  12.442
17846W        W90271  12.949  22.213  13.847
17847W        W90272  12.482  41.295  13.913
17848W        W90273  26.858  23.129  13.349
17849W        W90274  40.350  35.939  12.584
17850W        W90275   0.298   9.671   1.288
17851W        W90276  10.564   3.975   3.842
17852W        W90277  14.196   6.623   2.095
17853W        W90278  11.215  13.190  11.167
17854W        W90279   4.235  25.733  11.406
17855W        W90280  36.546  40.316   0.798
17856W        W90281  10.289   5.759  14.869
17857W        W90282  37.426   1.402  13.982
17858W        W90283  42.866  20.307   4.283
17859W        W90284  17.464  28.801   2.945
17860W        W90285  43.270  40.984   3.210
17861W        W90286  39.272  39.958  12.905
17862W        W90287  35.895  10.412   1.701
17863W        W90288   9.955   9.876   4.719
17864W        W90289   5.021  17.609  14.463
17865W        W90290  25.241  30.926  11.021
17866W        W90291  38.495  13.620   3.911
17867W        W90292  19.451   8.755  12.750
17868W        W90293  10.292  27.055  11.653
17869W        W90294  22.027  16.830   2.758
17870W        W90295  35.524  35.325  15.000
17871W        W90296  42.108   0.236   0.290
17872W        W90297  10.308   2.379   0.669
17873W        W90298  41.051  22.553   3.081
17874W        W90299  28.348  14.446  12.463
17875W        W90300   1.337  10.928   2.781
17876W        W90301  19.235  24.780   3.386
17877W        W90302  42.127  24.678  12.652
17878W        W90303  42.190  22.133   2.729
17879W        W90304  13.811  34.137   1.406
17880W        W90305  13.709  37.010  11.508
17881W        W90306  24.191  36.296   0.821
17882W        W90307  13.970  28.022   3.751
17883W        W90308  22.201  44.442   2.871
17884W        W90309  30.356   7.533   3.727
17885W        W90310   7.651  35.106  11.160
17886W        W90311  21.756   8.011   2.331
17887W        W90312  20.377   5.648  14.504
17888W        W90313  19.199  16.996   3.164
17889W        W90314  25.929  10.850   1.486
17890W        W90315  26.737  17.764   1.165
17891W        W90316  33.208  30.395  10.636
17892W        W90317  42.150  14.620   0.905
17893W        W90318   3.237  22.105  12.016
17894W        W90319  41.838  19.629  13.497
17895W        W90320  36.982  44.374  13.263
17896W        W90321  24.053  35.690   4.258
17897W        W90322  41.411  41.487   2.322
17898W        W90323   8.806   8.638   3.084
17899W        W90324  24.976  32.525   0.878
17900W        W90325  36.898   2.679  14.374
17901W        W90326  35.870  37.928  13.164
17902W        W90327  35.620  29.058   1.817
17903W        W90328  13.859  23.128  10.292
17904W        W90329  37.298  44.657   0.152
17905W        W90330  31.057  37.066   2.579
17906W        W90331  30.424   4.114   0.349
17907W        W90332  22.743  31.040  13.368
17908W        W90333  29.744  36.355   0.019
17909W        W90334   1.695  39.719   1.311
17910W        W90335  10.485   1.260   3.303
17911W        W90336  15.650  40.540  14.307
17912W        W90337  30.583  27.764   2.730
17913W        W90338   2.267  40.255   3.254
17914W        W90339  17.617   6.318  14.452
17915W        W90340  33.125   9.952   3.104
17916W        W90341  31.488  17.160  13.282
17917W        W90342   2.287  11.132   0.475
17918W        W90343   9.603   6.496   0.237
17919W        W90344  41.952  36.618   1.538
17920W        W90345   2.422  13.353   2.292
17921W        W90346  33.479  35.064  10.696
17922W        W90347  30.870  34.581   4.460
17923W        W90348  33.070  25.887   4.639
17924W        W90349   3.006  20.636  11.328
17925W        W90350  21.509  18.378   2.660
17926W        W90351  13.307  31.457  11.887
17927W        W90352  10.894  44.301  14.899
17928W        W90353   1.700  38.969  14.914
17929W        W90354  33.616   0.314   0.459
17930W        W90355  34.992  27.942  10.637
17931W        W90356   8.115  36.571  13.233
17932W        W90357  22.462   2.931  13.077
17933W        W90358  44.295  18.088  14.896
17934W        W90359  35.169  33.810  10.904
17935W        W90360  42.963   5.648  13.444
17936W        W90361  34.422  43.719   4.365
17937W        W90362   7.367   9.674  13.941
17938W        W90363  15.608  27.206  11.880
17939W        W90364  27.509  32.875   2.201
17940W        W90365  13.545  23.439   4.105
17941W        W90366  21.139   2.411   0.728
17942W        W90367   6.408  13.759  11.991
17943W        W90368  21.622  11.748  13.610
17944W        W90369  13.919  32.450   1.989
17945W        W90370   8.592   0.302   3.670
17946W        W90371   1.042   7.724   3.737
17947W        W90372  29.032  23.533  13.988
17948W        W90373  40.892   4.366   2.074
17949W        W90374  26.082   9.731   3.189
17950W        W90375  44.494  25.108   2.676
17951W        W90376  15.215  42.037  13.885
17952W        W90377  32.858  11.767  12.028
17953W        W90378   7.408  26.800  11.072
17954W        W90379  21.846  42.494  14.785
17955W        W90380   0.950  37.587  11.938
17956W        W90381  40.553  31.307  14.391
17957W        W90382  43.547  28.142  12.436
17958W        W90383  37.344  38.431  11.854
17959W        W90384  27.458  32.029   2.018
17960W        W90385  10.292   9.358   3.104
17961W        W90386  23.746  15.762  13.579
17962W        W90387  12.292   6.213  12.163
17963W        W90388  32.123  15.559  13.934
17964W        W90389   1.599  38.825   1.223
17965W        W90390   4.425  11.104   1.896
17966W        W90391  16.988  21.237  14.384
17967W        W90392  38.304  19.205  12.972
17968W        W90393   5.402  33.430   1.147
17969W        W90394  31.519  32.500  13.021
17970W        W90395  23.161  13.122  10.648
17971W        W90396  13.561  32.530   2.914
17972W        W90397   0.650  33.849   5.389
17973W        W90398  43.261  40.017  14.483
17974W        W90399  33.980   4.923   4.109
17975W        W90400  23.552  31.605  11.394
17976W        W90401   6.919   0.292  11.906
17977W        W90402  15.161  22.946  14.986
17978W        W90403  40.455  27.577  12.263
17979W        W90404  36.638   6.739  10.792
17980W        W90405  28.777  37.825   0.166
17981W        W90406  14.546  33.081   4.454
17982W        W90407   4.334  44.802  14.962
17983W        W90408   6.974   5.978  13.921
17984W        W90409  37.566  17.367   0.214
17985W        W90410  24.053  17.874  12.101
17986W        W90411  30.679   0.824  13.343
17987W        W90412   9.805   3.311   1.977
17988W        W90413  13.726  39.921   2.319
17989W        W90414   9.156  29.118   3.442
17990W        W90415   5.920  39.747  13.414
17991W        W90416  20.270   3.010   2.856
17992W        W90417  22.838  44.050  11.979
17993W        W90418  11.286  20.227  11.992
17994W        W90419  42.003  14.849  13.320
17995W        W90420   4.164  33.413   3.752
17996W        W90421   4.880  37.904   3.356
17997W        W90422   1.748  43.036   3.193
17998W        W90423  12.219  10.819  10.653
17999W        W90424  39.565  18.039   4.140
18000W        W90425  35.114  17.748   0.683
18001W        W90426  18.443   8.849  14.773
18002W        W90427  33.082  36.837   0.502
18003W        W90428  10.684   9.386  11.007
18004W        W90429   1.003  21.549   1.436
18005W        W90430   6.487  33.521   4.054
18006W        W90431  17.870  37.833  14.539
18007W        W90432  11.912  13.783   2.520
18008W        W90433   5.180  13.303   3.587
18009W        W90434  38.779  26.957   3.945
18010W        W90435  43.461  19.157  14.479
18011W        W90436   5.737  21.548  11.403
18012W        W90437  23.695  23.759   0.258
18013W        W90438  19.268  44.765   0.319
18014W        W90439  12.642   6.784   4.460
18015W        W90440   2.169  29.891  11.457
18016W        W90441   2.200  44.714   9.791
18017W        W90442  21.772  41.781  13.983
18018W        W90443   5.807  12.461   3.053
18019W        W90444  19.130  27.208  11.111
18020W        W90445  42.398  16.081   2.386
18021W        W90446  38.380  15.807  14.957
18022W        W90447   8.023  12.868   1.167
18023W        W90448  39.610  17.049  12.897
18024W        W90449  27.519   6.273   1.186
18025W        W90450   3.743  44.409   4.868
18026W        W90451   3.308  19.062  13.302
18027W        W90452  23.906  43.208   3.866
18028W        W90453  29.209   6.008   3.757
18029W        W90454  37.331  44.487   1.484
18030W        W90455  26.591  35.589   2.766
18031W        W90456  24.094   4.832   4.101
18032W        W90457  19.192  26.021  12.678
18033W        W90458  22.620   0.819  12.932
18034W        W90459   8.372  37.399  11.277
18035W        W90460   6.153  19.216   1.998
18036W        W90461  15.878  41.478   2.654
18037W        W90462  36.172  31.816  13.450
18038W        W90463  23.689   2.396  13.396
18039W        W90464  28.965   9.296  14.927
18040W        W90465  26.259  39.262  14.996
18041W        W90466  11.703  21.150   2.192
18042W        W90467   6.878  39.904   2.282
18043W        W90468   0.372  25.907   0.959
18044W        W90469   4.688  16.085  14.897
18045W        W90470  22.815   3.999   3.329
18046W        W90471   9.322   8.029  14.715
18047W        W90472   1.499  17.096   1.833
18048W        W90473  20.468  34.464  13.463
18049W        W90474  19.052  23.336   4.725
18050W        W90475  13.646  13.380   0.408
18051W        W90476  40.395  21.581  14.781
18052W        W90477  38.842  43.924  11.686
18053W        W90478  18.474  29.923   3.146
18054W        W90479  42.882  35.733   1.823
18055W        W90480  23.397  18.719  12.815
18056W        W90481  17.683  11.689  13.791
18057W        W90482   5.380   6.793  12.374
18058W        W90483  21.173  18.089   3.754
18059W        W90484   9.687  38.593   4.174
18060W        W90485  26.656  19.976  11.457
18061W        W90486   6.905  19.822   4.149
18062W        W90487  38.721   6.632  11.066
18063W        W90488  16.754   0.396   2.734
18064W        W90489  32.911  43.735  11.826
18065W        W90490   6.194  10.574  12.203
18066W        W90491  24.217  30.651  13.320
18067W        W90492  32.967  26.122  14.942
18068W        W90493   0.469   6.220   2.897
18069W        W90494  26.204  26.531   2.440
18070W        W90495  16.168  22.599   2.412
18071W        W90496   1.368   6.755   1.504
18072W        W90497  35.610   1.029   0.457
18073W        W90498  16.370  29.084   4.664
18074W        W90499  27.136  34.985   0.806
18075W        W90500  10.760  14.141   1.131
18076W        W90501  22.625  25.949   1.841
18077W        W90502  31.334  38.878   2.833
18078W        W90503  32.878   3.472  13.035
18079W        W90504  14.321  31.588   0.043
18080W        W90505  34.902  29.451  14.700
18081W        W90506   3.934   9.464  13.023
18082W        W90507  29.591   5.157  11.734
18083W        W90508  43.006  16.032   1.267
18084W        W90509  19.302  25.578  13.880
18085W        W90510   3.252  21.366   3.769
18086W        W90511  36.399  28.789   2.197
18087W        W90512  39.600   5.589   1.086
18088W        W90513   7.206  21.408  10.413
18089W        W90514  39.405  44.524   3.256
18090W        W90515  24.676   9.151  14.848
18091W        W90516  31.749   9.775   3.743
18092W        W90517   6.659  24.981  12.983
18093W        W90518   7.794   4.918  11.595
18094W        W90519  13.632  23.283   4.578
18095W        W90520   2.989   3.500   0.641
18096W        W90521   5.323  28.921   4.175
18097W        W90522   9.424  23.306   3.134
18098W        W90523  25.129  18.446  11.310
18099W        W90524   3.299  22.161   0.255
18100W        W90525   2.845   2.188  13.990
18101W        W90526   9.591  17.692  12.915
18102W        W90527  21.390  14.258   1.208
18103W        W90528  15.028  44.222  10.276
18104W        W90529  28.733  16.369  13.225
18105W        W90530  27.276  39.468   4.179
18106W        W90531  30.420  15.174  13.741
18107W        W90532  14.319  11.351  14.419
18108W        W90533  14.383  39.184  14.972
18109W        W90534  13.323   4.881   2.869
18110W        W90535   5.399  36.330  12.484
18111W        W90536   0.568   2.839   2.269
18112W        W90537  26.107  31.509  13.030
18113W        W90538  40.451  34.567   3.013
18114W        W90539  36.212  35.741  14.241
18115W        W90540  18.729  32.572   4.157
18116W        W90541  43.738  20.241   3.749
18117W        W90542  42.524  27.229  13.600
18118W        W90543  20.526  21.967  11.940
18119W        W90544  34.020   8.674  12.364
18120W        W90545  23.729  40.458   4.576
18121W        W90546   4.788  18.278   2.628
18122W        W90547  41.458  36.454   4.759
18123W        W90548  38.656  11.627  13.174
18124W        W90549  24.695  34.647   2.249
18125W        W90550  26.631   5.232  14.392
18126W        W90551  10.121  14.965  11.586
18127W        W90552  25.542   9.299   3.685
18128W        W90553   8.209  40.123  14.366
18129W        W90554   8.632  35.509   1.329
18130W        W90555  20.338  32.637  13.053
18131W        W90556  42.668   4.413   4.077
18132W        W90557  40.285  27.927   3.652
18133W        W90558  40.497  25.208   1.873
18134W        W90559  23.517  32.202  11.098
18135W        W90560  14.263  41.370   3.414
18136W        W90561  17.212  16.820   0.570
18137W        W90562   7.952  15.133  12.498
18138W        W90563  27.316  29.095  13.908
18139W        W90564  16.768  13.291  14.393
18140W        W90565  11.468  30.836  14.251
18141W        W90566  43.214   7.651  10.236
18142W        W90567  21.038  44.963   4.916
18143W        W90568  30.930  43.859   4.707
18144W        W90569  40.899  36.595   2.389
18145W        W90570   3.846  14.798  14.870
18146W        W90571  19.792  11.801   4.231
18147W        W90572  33.609   4.003   1.366
18148W        W90573  33.628  35.612   2.757
18149W        W90574   5.152  11.880  13.577
18150W        W90575   8.460  18.724  11.681
18151W        W90576  18.558  35.064  12.015
18152W        W90577  40.812  16.868  11.534
18153W        W90578  41.935  21.553  14.506
18154W        W90579  14.098  40.460  10.780
18155W        W90580  18.188  34.254  12.578
18156W        W90581  26.048   0.240   4.064
18157W        W90582  17.152   7.918   1.734
18158W        W90583  36.073  13.624   1.797
18159W        W90584  17.170  33.627   4.368
18160W        W90585  12.178  18.801  12.133
18161W        W90586  43.688  17.017  14.001
18162W        W90587  34.987  39.817   1.281
18163W        W90588  42.405   8.390   4.625
18164W        W90589  36.017  14.825  12.513
18165W        W90590  31.198  13.889  14.817
18166W        W90591  22.064   7.309  13.867
18167W        W90592  33.149  42.278  14.413
18168W        W90593  16.255  13.253  14.526
18169W        W90594  30.547  36.606  12.439
18170W        W90595   4.517  28.152   4.978
18171W        W90596   0.197   6.379   3.386
18172W        W90597   1.681  16.075   1.026
18173W        W90598  36.363  17.974  11.924
18174W        W90599   7.879  16.717  10.646
18175W        W90600   6.168  21.043   4.859
18176W        W90601  17.138   1.433   2.390
18177W        W90602  10.476  16.094  13.070
18178W        W90603  18.248  24.035   0.245
18179W        W90604  33.869  22.095  14.884
18180W        W90605  13.703  32.868  13.828
18181W        W90606  16.382  29.454  13.969
18182W        W90607  40.107  32.081  12.395
18183W        W90608   7.244  31.992  11.455
18184W        W90609  37.114  32.045   5.039
18185W        W90610   2.813   9.565  14.819
18186W        W90611  11.271  23.458  10.907
18187W        W90612  29.030  11.389   2.149
18188W        W90613  27.047  23.032   3.306
18189W        W90614  41.043  17.729  13.876
18190W        W90615  18.584  15.714   0.769
18191W        W90616  30.676  36.311   2.238
18192W        W90617  29.053  21.710  11.875
18193W        W90618  31.224  32.365  12.409
18194W        W90619  17.857   7.468   2.238
18195W        W90620   8.371   2.438   3.245
18196W        W90621   7.190  28.292  13.541
18197W        W90622   6.544   3.142  12.476
18198W        W90623  36.110   1.786  12.041
18199W        W90624  12.903  17.329  13.939
18200W        W90625  41.782   0.380  12.869
18201W        W90626  33.148   3.755   1.324
18202W        W90627  35.392  44.888  13.937
18203W        W90628  41.837  44.883  14.597
18204W        W90629  11.370  35.354   4.334
18205W        W90630  19.708  19.854  11.400
18206W        W90631  30.799  32.653  13.719
18207W        W90632  29.990   6.895   4.206
18208W        W90633   5.872  44.834   2.769
18209W        W90634  23.575   1.973   3.840
18210W        W90635  39.675  13.827  11.166
18211W        W90636  26.907  18.705  10.628
18212W        W90637   5.861   7.337   4.120
18213W        W90638  30.852   9.065   1.805
18214W        W90639  34.908  35.355  11.164
18215W        W90640  40.912  39.972   4.685
18216W        W90641  25.155  28.008   4.188
18217W        W90642  34.378  42.338   4.403
18218W        W90643  19.682  27.543   0.899
18219W        W90644   9.039  40.249   3.699
18220W        W90645  16.575  21.148  11.144
18221W        W90646  39.388   1.794   0.842
18222W        W90647   6.304  11.648  10.105
18223W        W90648   0.228  43.692   2.162
18224W        W90649  22.176  38.953  14.001
18225W        W90650  23.283  25.657   2.798
18226W        W90651   5.679  27.988  11.573
18227W        W90652  10.320  18.647   4.535
18228W        W90653  29.338  39.438  11.802
18229W        W90654  18.191   8.819  14.291
18230W        W90655  25.797  37.656   3.588
18231W        W90656  22.550  34.038   4.156
18232W        W90657  26.270  20.612   2.390
18233W        W90658  32.205  19.986   4.320
18234W        W90659  31.882  16.850   3.716
18235W        W90660  14.626  34.863   1.981
18236W        W90661  44.831  28.731  11.560
18237W        W90662  22.064  37.631   3.040
18238W        W90663  38.863  21.845   1.832
18239W        W90664  44.785  17.112  12.328
18240W        W90665   7.758  34.144   3.645
18241W        W90666  27.930  38.482   3.792
18242W        W90667  39.299  32.872   3.703
18243W        W90668  30.107  27.767   1.055
18244W        W90669  15.888  32.191   0.644
18245W        W90670  20.995  16.299   3.360
18246W        W90671   3.755  18.985  12.949
18247W        W90672  28.287  23.727   3.786
18248W        W90673  33.626  32.508   3.673
18249W        W90674   7.909  29.500  12.521
18250W        W90675  21.054  44.053   1.257
18251W        W90676  32.088   3.942  13.087
18252W        W90677   6.884  24.350  10.913
18253W        W90678   2.673  12.458   0.314
18254W        W90679  42.768  10.933   1.619
18255W        W90680  17.483  27.880  12.109
18256W        W90681  19.238   5.706  14.420
18257W        W90682  10.329  29.154   1.051
18258W        W90683  29.322  18.056  12.562
18259W        W90684  12.869  14.099   0.279
18260W        W90685  40.529  10.568   3.701
18261W        W90686  17.190   0.199   1.643
18262W        W90687   9.861  32.889  14.546
18263W        W90688  43.858  16.052  12.213
18264W        W90689  21.315  27.415   2.449
18265W        W90690  43.184  27.630   4.037
18266W        W90691  35.312  15.207   0.084
18267W        W90692  30.595  37.848   1.928
18268W        W90693  21.144  12.314  11.166
18269W        W90694   9.297  26.940  11.446
18270W        W90695  16.726  19.613  14.223
18271W        W90696  41.803  34.068  10.550
18272W        W90697  30.453  21.093  10.951
18273W        W90698   4.792  35.656   4.130
18274W        W90699  29.419  11.317  10.810
18275W        W90700  35.478  17.328   3.350
18276W        W90701  31.418  31.917   1.896
18277W        W90702  26.719  36.377  13.790
18278W        W90703  38.839   7.389  10.150
18279W        W90704  20.547  18.060  12.150
18280W        W90705  26.684  23.679   3.759
18281W        W90706  40.602  33.787  13.633
18282W        W90707   0.715  20.191  10.964
18283W        W90708  36.713  17.280  11.433
18284W        W90709  25.223  34.683   1.150
18285W        W90710  13.328  36.340   3.650
18286W        W90711   4.156  35.923  14.046
18287W        W90712   4.696  22.124   0.192
18288W        W90713   1.276   6.246  11.952
18289W        W90714  44.414   7.262   4.099
18290W        W90715  13.079  13.089   4.869
18291W        W90716  44.997  12.857  12.077
18292W        W90717  24.862  20.897  12.515
18293W        W90718  29.607  26.274  12.850
18294W        W90719   9.623   2.402  14.246
18295W        W90720   8.767  37.949   2.301
18296W        W90721  19.745  40.020  14.385
18297W        W90722  16.076  36.916  12.409
18298W        W90723   9.206   3.480   5.004
18299W        W90724  39.305  32.272   4.544
18300W        W90725  21.774  40.085  12.024
18301W        W90726  24.734  32.142  10.268
18302W        W90727  22.713  10.010  14.963
18303W        W90728  24.260  22.541  12.119
18304W        W90729  36.451  30.642   2.901
18305W        W90730  30.928  28.039  14.100
18306W        W90731  36.121  40.182  13.115
18307W        W90732  25.762   4.006  11.594
18308W        W90733  31.568  40.375  12.810
18309W        W90734  38.798  40.346  13.404
18310W        W90735  12.868  16.348  12.079
18311W        W90736   2.907   9.804   1.661
18312W        W90737  12.582  27.497   1.750
18313W        W90738  22.950   5.704  14.860
18314W        W90739  28.222   1.903  11.289
18315W        W90740  13.278  25.527   0.908
18316W        W90741  15.222  21.619  10.815
18317W        W90742  12.295  23.151   1.029
18318W        W90743  16.140  30.545  11.180
18319W        W90744   8.184   9.199   3.706
18320W        W90745  27.541  22.202   3.076
18321W        W90746   7.065  39.103   3.415
18322W        W90747  15.194  37.345  10.870
18323W        W90748   7.867  11.664  13.150
18324W        W90749  37.650  13.425   4.055
18325W        W90750  17.823  37.959  13.065
18326W        W90751  43.412   8.303   0.793
18327W        W90752  31.443  37.423   2.137
18328W        W90753   2.525  38.966   3.750
18329W        W90754   3.386  24.925   0.723
18330W        W90755   1.029   9.763   3.256
18331W        W90756  28.652  11.348   1.348
18332W        W90757  15.156  40.779   2.797
18333W        W90758  23.742  42.321   4.308
18334W        W90759  34.405  40.786  10.761
18335W        W90760   2.375  28.192   2.391
18336W        W90761  20.752  22.247   3.867
18337W        W90762  21.497  34.516   3.833
18338W        W90763  11.752  26.854   4.624
18339W        W90764  35.213  31.576  12.587
18340W        W90765   4.952  32.479   3.872
18341W        W90766  32.442  35.042  10.219
18342W        W90767  16.679  32.993  10.674
18343W        W90768  23.051  32.615  13.985
18344W        W90769  37.175   0.380  14.943
18345W        W90770  44.539  11.202  11.538
18346W        W90771  41.910  15.865  12.428
18347W        W90772   6.928  15.864   2.778
18348W        W90773  31.151  39.416   1.237
18349W        W90774  14.151  26.030  13.047
18350W        W90775   7.724   4.263   4.935
18351W        W90776  19.022   5.830   1.127
18352W        W90777  11.302  23.918  12.207
18353W        W90778  21.200  19.263  11.177
18354W        W90779   0.975  28.362   3.981
18355W        W90780  44.354  40.181   0.893
18356W        W90781   6.276   7.478  13.909
18357W        W90782   1.938  32.162   0.886
18358W        W90783  28.437  27.918   4.162
18359W        W90784   8.020   7.724  12.406
18360W        W90785  18.525  35.628   0.349
18361W        W90786  23.098   1.896  14.003
18362W        W90787  25.077  19.688  10.706
18363W        W90788  23.856  12.152  12.537
18364W        W90789   0.201  39.842  13.925
18365W        W90790   8.960  10.910   0.373
18366W        W90791  19.209   5.602   0.072
18367W        W90792   5.043  44.603  14.434
18368W        W90793  35.987  26.902   4.134
18369W        W90794   4.855  18.676   4.229
18370W        W90795   7.213  44.247  13.924
18371W        W90796  29.728  32.549  12.763
18372W        W90797  21.809  30.671   3.146
18373W        W90798   2.644  24.599  12.891
18374W        W90799   8.691  38.345   1.246
18375W        W90800  24.096   0.698  12.124
18376W        W90801  26.645   5.147  11.947
18377W        W90802  38.526  42.807  13.110
18378W        W90803  36.537  39.778  11.488
18379W        W90804  44.590  16.639   4.205
18380W        W90805  16.743  32.467   2.661
18381W        W90806  40.774  18.858  12.384
18382W        W90807  35.106  19.741  13.854
18383W        W90808   9.635  30.690  12.439
18384W        W90809  37.297  14.539   0.398
18385W        W90810  39.496  44.914  11.073
18386W        W90811  42.064  11.245   2.364
18387W        W90812  13.889   5.652  11.249
18388W        W90813  40.003  24.540  12.414
18389W        W90814  31.057  20.259   3.846
18390W        W90815  13.646  33.448  12.969
18391W        W90816   3.002   5.789   0.027
18392W        W90817  44.010  12.626  14.414
18393W        W90818  17.048  43.713   4.082
18394W        W90819   5.424  35.009  12.509
18395W        W90820  23.285  12.114  13.890
18396W        W90821  25.566  25.559  12.040
18397W        W90822  14.058   9.189   5.034
18398W        W90823  24.618  26.999  14.267
18399W        W90824  23.163  11.655  14.688
18400W        W90825   7.084   6.430   4.476
18401W        W90826  15.706  23.103  13.809
18402W        W90827  33.646  29.562   0.320
18403W        W90828  31.763  14.593  13.385
18404W        W90829  25.635   0.592  13.949
18405W        W90830  14.012  21.841   2.349
18406W        W90831  25.457  31.748  11.130
18407W        W90832   5.605   6.223  10.777
18408W        W90833   6.335   5.518   2.826
18409W        W90834  38.270   0.985   1.730
18410W        W90835  12.436  19.183   3.859
18411W        W90836  24.998  33.107  11.387
18412W        W90837  15.380  30.445   4.634
18413W        W90838  27.567  34.527   4.006
18414W        W90839  25.228  13.610   0.896
18415W        W90840  33.988  28.186  11.086
18416W        W90841  37.946  40.606   0.811
18417W        W90842  10.563  19.119  14.588
18418W        W90843  42.221   9.677   1.722
18419W        W90844  18.544  19.573   1.264
18420W        W90845  42.948  41.732  14.411
18421W        W90846  25.164  40.618  11.232
18422W        W90847   0.895  16.921   3.908
18423W        W90848   4.855  19.215   4.167
18424W        W90849   5.898   6.439   1.431
18425W        W90850  42.936   3.883   3.336
18426W        W90851  19.324  40.414  13.458
18427W        W90852  43.725  40.327   4.798
18428W        W90853  40.897  36.981   0.318
18429W        W90854   1.558  12.676  13.517
18430W        W90855  43.411   1.575   0.434
18431W        W90856  42.541  42.041  12.173
18432W        W90857  14.092  10.360  11.978
18433W        W90858  11.173   1.924   3.616
18434W        W90859  19.043  20.593   2.769
18435W        W90860  29.713  36.984   3.554
18436W        W90861   6.694  14.162  12.125
18437W        W90862  22.049  42.329  11.934
18438W        W90863  43.367   7.332   1.625
18439W        W90864   0.209  37.626   0.291
18440W        W90865  28.444  25.634   2.203
18441W        W90866  10.826   4.659   3.361
18442W        W90867  28.086  32.851  12.245
18443W        W90868  11.626  43.207   4.956
18444W        W90869  11.316  14.754   0.882
18445W        W90870  10.375   6.480   4.793
18446W        W90871  30.432   2.108  14.337
18447W        W90872   6.300  33.383   1.306
18448W        W90873   7.250  37.136   1.080
18449W        W90874   1.455  43.463   3.229
18450W        W90875  40.905  20.268   0.381
18451W        W90876   9.374  20.636   0.921
18452W        W90877   2.201  41.298  11.288
18453W        W90878  31.360   4.363  13.526
18454W        W90879  35.525  20.250  12.510
18455W        W90880  44.330  38.858   4.022
18456W        W90881  12.828  43.236  13.402
18457W        W90882  37.743   7.710   4.981
18458W        W90883  23.074  38.250  11.712
18459W        W90884  34.293   7.689   2.342
18460W        W90885  23.210  18.311  12.554
18461W        W90886  40.999  27.172  13.764
18462W        W90887  37.495   0.461  13.524
18463W        W90888  23.253  15.892  13.813
18464W        W90889  26.725  10.207  12.117
18465W        W90890   9.299  41.907  10.322
18466W        W90891  12.787   8.349   0.437
18467W        W90892  23.088  16.506   2.153
18468W        W90893  17.580  29.984   3.345
18469W        W90894  22.208  19.540   4.872
18470W        W90895  39.256  29.975  12.369
18471W        W90896   5.977  36.845   2.663
18472W        W90897  11.801  38.321   2.737
18473W        W90898  13.258  18.088   0.881
18474W        W90899   6.612  30.248  10.243
18475W        W90900  22.666  21.817   4.455
18476W        W90901  28.678   4.903  12.320
18477W        W90902  35.569  43.803   0.462
18478W        W90903  33.534  17.796   4.086
18479W        W90904   6.189  13.488  12.897
18480W        W90905  42.383  34.542  12.512
18481W        W90906  25.067  14.143   4.101
18482W        W90907  17.274  17.580   2.829
18483W        W90908  32.220  23.751  10.668
18484W        W90909  13.051  36.077  11.955
18485W        W90910   9.463  12.810  14.837
18486W        W90911  39.828  32.398   1.255
18487W        W90912  13.525  44.759   2.356
18488W        W90913  35.153  41.062  13.957
18489W        W90914  27.453  12.636  11.534
18490W        W90915   8.658  14.915  11.879
18491W        W90916  18.691  36.484   4.637
18492W        W90917  42.389  44.002  14.011
18493W        W90918  44.894  27.878  14.971
18494W        W90919  36.876  15.841  14.479
18495W        W90920   2.418  31.874   0.850
18496W        W90921  16.661  22.267   4.819
18497W        W90922  10.707  12.118   3.288
18498W        W90923  40.749  41.920   1.821
18499W        W90924  30.548  21.496  14.608
18500W        W90925  21.651  40.199  10.708
18501W        W90926  20.384  35.952  10.179
18502W        W90927  18.685   7.786   2.838
18503W        W90928  11.099   7.716  14.832
18504W        W90929  19.501   6.231  13.499
18505W        W90930  44.305  12.370  12.124
18506W        W90931  17.641  20.684   4.490
18507W        W90932   4.819  17.987   4.906
18508W        W90933  44.420   3.820   0.491
18509W        W90934  33.964  34.959  10.942
18510W        W90935  18.041  26.011  12.632
18511W        W90936  33.803  43.030  14.430
18512W        W90937  29.758  28.217   4.435
18513W        W90938  41.834  38.520   0.427
18514W        W90939  37.861   1.898  14.670
18515W        W90940   0.494   4.472  12.379
18516W        W90941  42.062  17.709   1.835
18517W        W90942  27.518   6.330   3.020
18518W        W90943  40.815  41.536  11.989
18519W        W90944  37.934  34.925  11.514
18520W        W90945  39.970  24.676  14.148
18521W        W90946   1.292  24.917   1.476
18522W        W90947  10.634  43.267   2.306
18523W        W90948   7.472  21.510  13.443
18524W        W90949  18.710  19.827  11.181
18525W        W90950  22.701   3.344  14.889
18526W        W90951   2.980  30.136  11.555
18527W        W90952  40.215   9.332   3.689
18528W        W90953  43.837  30.646  10.694
18529W        W90954  38.453   1.851   1.370
18530W        W90955  24.674  25.685   2.662
18531W        W90956  18.976  35.094  14.828
18532W        W90957  37.946  35.060  11.019
18533W        W90958  12.294   1.211   1.703
18534W        W90959  12.284   6.629   4.126
18535W        W90960  36.145  27.821  14.917
18536W        W90961  18.060   6.192  10.435
18537W        W90962  13.844  25.611   1.197
18538W        W90963  22.655  22.147   3.243
18539W        W90964   7.943  40.911   3.969
18540W        W90965  28.154  44.136   3.380
18541W        W90966  23.649   1.765  11.611
18542W        W90967  13.731  20.559  10.992
18543W        W90968  35.073  26.119  11.962
18544W        W90969   0.993  10.891   0.751
18545W        W90970  22.805   1.396  11.709
18546W        W90971   1.439  32.712   1.137
18547W        W90972  25.569  43.419   2.692
18548W        W90973  26.638  15.053  11.733
18549W        W90974   0.738  33.619   0.262
18550W        W90975  12.460  28.148  11.577
18551W        W90976   9.427  36.150  13.047
18552W        W90977  33.325   1.487   3.464
18553W        W90978  35.564  28.529  11.109
18554W        W90979   3.911  22.995   1.276
18555W        W90980  14.522  25.011   4.525
18556W        W90981  39.496  12.241  11.675
18557W        W90982  29.864  40.498  14.787
18558W        W90983  12.177   1.003   2.744
18559W        W90984  22.759  27.170  14.483
18560W        W90985  30.927  37.152   0.647
18561W        W90986  14.871  14.685   1.737
18562W        W90987  13.276  21.311  14.342
18563W        W90988   9.728  42.034  14.814
18564W        W90989  13.675   9.726  12.793
18565W        W90990  39.516  12.392  11.174
18566W        W90991  27.564  11.081  14.852
18567W        W90992  25.519  42.614   1.422
18568W        W90993  40.568  16.355  10.691
18569W        W90994  39.098   3.821   2.841
18570W        W90995   2.648   8.277  14.025
18571W        W90996  15.157  43.090  13.011
18572W        W90997  44.217  22.473  11.663
18573W        W90998  43.094  34.496  13.137
18574W        W90999  40.374  44.398  12.782
18575W        W91000  30.608  35.279  11.182
18576W        W91001   0.784  17.809  14.120
18577W        W91002  11.609  25.743  13.223
18578W        W91003   1.672  17.773  11.157
18579W        W91004  15.892  24.240  14.452
18580W        W91005  33.283   1.212  14.513
18581W        W91006   0.774  25.972  14.503
18582W        W91007  14.249   6.704   2.614
18583W        W91008  20.905  26.649  13.996
18584W        W91009  35.925  29.902  12.323
18585W        W91010   6.254  25.691   0.659
18586W        W91011   4.830  26.733  12.684
18587W        W91012  19.549  23.093   3.452
18588W        W91013  26.590  31.919   0.925
18589W        W91014  34.767  17.608   3.304
18590W        W91015  37.003  33.881   1.877
18591W        W91016  20.951  23.129   1.295
18592W        W91017  42.055  29.587  11.964
18593W        W91018  19.228  10.246  14.430
18594W        W91019   9.303   0.508   3.339
18595W        W91020  10.756  33.967  13.044
18596W        W91021  15.845  25.246  14.280
18597W        W91022  22.471  21.134  12.374
18598W        W91023   8.666  14.080  13.868
18599W        W91024  17.184  34.664  11.038
18600W        W91025  35.664   3.924   0.179
18601W        W91026   5.296  27.409   1.792
18602W        W91027  31.147  44.694   3.799
18603W        W91028  20.422  37.274   2.753
18604W        W91029  21.276  14.819   3.106
18605W        W91030  11.194   4.904   2.762
18606W        W91031  26.505  32.454   0.879
18607W        W91032  28.956  18.290   0.297
18608W        W91033   6.607   9.386  14.758
18609W        W91034  44.381  11.650  13.365
18610W        W91035  31.125  13.790   2.441
18611W        W91036  28.667  31.191  11.987
18612W        W91037   2.040  31.131  12.003
18613W        W91038   9.254  31.554  11.419
18614W        W91039  44.995  35.122   3.684
18615W        W91040  26.684  38.459   3.183
18616W        W91041  28.947  20.043  10.482
18617W        W91042  40.508  42.373  12.869
18618W        W91043   0.871  24.539  14.788
18619W        W91044  19.635   9.524  11.499
18620W        W91045  25.635   8.029   0.372
18621W        W91046  18.170   2.517  13.328
18622W        W91047  35.863  39.668   2.244
18623W        W91048   5.188   3.202   1.252
18624W        W91049  27.378  41.499  12.581
18625W        W91050  28.518  21.143  11.972
18626W        W91051  20.203  11.568   2.541
18627W        W91052  15.699  18.472  13.428
18628W        W91053  36.504   2.312   1.342
18629W        W91054  40.292  36.110   4.527
18630W        W91055  31.705  35.028  11.978
18631W        W91056  15.115  36.496  14.580
18632W        W91057  13.637   1.310   0.937
18633W        W91058  38.843  25.691  14.141
18634W        W91059  35.473  21.918   3.573
18635W        W91060  42.313  24.046  12.165
18636W        W91061  34.033  11.728  14.002
18637W        W91062  33.657   0.497  13.517
18638W        W91063  11.959  43.723  12.912
18639W        W91064   4.460  17.078  12.522
18640W        W91065   5.011  24.549  14.420
18641W        W91066  32.855  29.242   0.692
18642W        W91067  21.264  17.864   4.352
18643W        W91068  17.311  22.278  10.717
18644W        W91069   9.973  26.570   2.216
18645W        W91070  39.163   2.798  14.776
18646W        W91071  39.853   6.465  10.260
18647W        W91072  10.554  33.603   4.043
18648W        W91073  10.396  39.934  13.092
18649W        W91074  18.424  42.689   1.713
18650W        W91075  28.391  39.012   1.541
18651W        W91076  16.167  24.103  12.985
18652W        W91077  21.171  31.020   0.828
18653W        W91078  24.157  35.792  11.522
18654W        W91079  26.061  22.479   0.224
18655W        W91080   8.186  39.886  13.385
18656W        W91081  23.709  28.121   3.381
18657W        W91082  18.749   0.084  13.356
18658W        W91083  24.176  35.659   4.786
18659W        W91084  25.255  17.683   0.466
18660W        W91085  32.844  14.857   3.847
18661W        W91086  32.421  29.262  12.016
18662W        W91087  21.248   6.405  12.142
18663W        W91088  31.530  26.899   3.900
18664W        W91089  20.134  11.344   4.810
18665W        W91090  36.290  42.807   1.847
18666W        W91091  14.131   5.381   3.295
18667W        W91092   3.888  30.689  14.363
18668W        W91093   4.992  19.252  14.836
18669W        W91094  41.621  30.609   2.989
18670W        W91095  33.012  26.925   0.654
18671W        W91096  34.527  14.883   0.912
18672W        W91097  25.532  33.449  13.334
18673W        W91098   2.322  29.575   4.365
18674W        W91099  25.673   1.765  12.246
18675W        W91100   2.941  25.957  10.771
18676W        W91101   3.357   5.909  11.022
18677W        W91102  32.530  39.394   4.666
18678W        W91103  11.773  21.949   2.614
18679W        W91104  22.289   1.816   4.514
18680W        W91105  39.123  36.348   0.296
18681W        W91106  22.733   7.665  13.647
18682W        W91107  17.586  35.404  12.992
18683W        W91108   7.229  19.922   2.879
18684W        W91109  35.158   7.016  11.599
18685W        W91110  33.283  43.703   0.743
18686W        W91111   9.083  26.481  11.237
18687W        W91112  40.695  39.660   3.883
18688W        W91113  10.089  26.092  14.810
18689W        W91114  11.427  35.901   0.266
18690W        W91115  35.775  39.779   0.559
18691W        W91116  43.998  20.220   0.572
18692W        W91117  15.141  26.026  14.140
18693W        W91118  44.821  39.786  11.850
18694W        W91119  22.618  13.044  14.481
18695W        W91120   8.907  26.447  14.713
18696W        W91121   9.804   5.334   4.474
18697W        W91122  13.528  30.571   1.405
18698W        W91123  24.144  27.123  11.370
18699W        W91124  33.884  31.397   4.621
18700W        W91125  13.780  37.804  11.137
18701W        W91126  44.463  30.738  14.478
18702W        W91127  32.061  10.964   0.600
18703W        W91128   4.000   4.493  12.951
18704W        W91129   0.807  21.064   1.465
18705W        W91130  41.890  33.226  14.262
18706W        W91131   4.893  19.799   4.198
18707W        W91132  37.264  24.229   1.843
18708W        W91133  38.062  36.881  11.406
18709W        W91134  24.960   1.934  10.998
18710W        W91135  12.133   7.721   1.309
18711W        W91136  21.824  22.103   3.848
18712W        W91137  20.366   2.663  12.103
18713W        W91138  10.931  39.353  12.487
18714W        W91139  15.630  33.862  11.374
18715W        W91140  39.377   3.635  13.820
18716W        W91141   6.457  27.536   0.071
18717W        W91142  37.210   5.368  11.308
18718W        W91143  41.833  43.781   4.338
18719W        W91144  19.705  40.508  11.073
18720W        W91145   7.438  24.886   3.346
18721W        W91146  26.772  16.733   2.952
18722W        W91147  11.611   1.889  10.722
18723W        W91148  38.514  13.394   0.873
18724W        W91149  16.799  16.563  13.375
18725W        W91150   5.512  16.033  11.614
18726W        W91151  31.167   8.672   4.459
18727W        W91152   9.264  20.507   4.334
18728W        W91153   4.923  28.205   3.761
18729W        W91154  31.386  14.705  14.321
18730W        W91155  36.350   3.119   3.626
18731W        W91156  41.446   4.716   4.573
18732W        W91157  23.603  38.965   1.910
18733W        W91158  13.540  36.908  11.029
18734W        W91159   3.731  11.659   0.303
18735W        W91160  36.930   8.454  10.644
18736W        W91161  29.520  29.741   3.588
18737W        W91162  30.028  39.876   0.304
18738W        W91163  39.247   7.372  11.159
18739W        W91164   3.192   1.444  11.613
18740W        W91165  26.181   2.437   4.239
18741W        W91166  41.904   9.545  12.837
18742W        W91167  42.075  31.367  12.906
18743W        W91168   9.765  44.749  13.853
18744W        W91169  34.534  24.465   4.871
18745W        W91170  27.546  19.179   3.190
18746W        W91171  36.334  22.580   3.640
18747W        W91172   5.510  20.622   4.281
18748W        W91173   3.946  35.630  14.780
18749W        W91174  44.537  30.081  12.659
18750W        W91175  16.613   7.619  11.622
18751W        W91176  19.254  38.820  12.389
18752W        W91177  20.140  25.092   4.547
18753W        W91178  10.492  14.738   0.408
18754W        W91179  19.289   2.796   0.719
18755W        W91180  19.342   1.101  12.132
18756W        W91181  38.810  17.150   0.364
18757W        W91182  14.023   1.330  14.231
18758W        W91183  32.073  29.673  12.070
18759W        W91184  28.692   2.725  13.159
18760W        W91185  10.595   3.400   4.580
18761W        W91186  29.688  29.922   2.705
18762W        W91187  21.917  22.168   2.665
18763W        W91188  22.611  17.636  10.904
18764W        W91189   1.805  28.482   0.774
18765W        W91190  23.771  38.395   3.732
18766W        W91191  37.388  10.825   0.022
18767W        W91192  41.063  19.676  13.837
18768W        W91193   3.958  14.250   3.702
18769W        W91194  42.819   8.957  14.347
18770W        W91195   9.421  13.792   4.776
18771W        W91196   0.912  18.487  12.940
18772W        W91197  42.364   8.418  13.000
18773W        W91198  21.989  28.624  14.028
18774W        W91199  28.289  21.056   4.117
18775W        W91200  28.092  41.406  12.123
18776W        W91201  36.006  23.820   1.405
18777W        W91202  41.538  37.460   5.098
18778W        W91203   6.836  19.713  11.976
18779W        W91204  43.190  23.703   0.743
18780W        W91205   0.956  31.873  11.544
18781W        W91206  11.630  36.143   1.100
18782W        W91207  25.012   5.997   4.403
18783W        W91208  38.814  26.072  10.792
18784W        W91209  32.933  40.550  11.094
18785W        W91210  22.884  11.802  13.733
18786W        W91211  36.402  11.138   0.682
18787W        W91212   9.600  21.759  14.169
18788W        W91213  18.979   2.948  13.268
18789W        W91214   2.744  18.800  14.759
18790W        W91215   3.189   7.677  11.386
18791W        W91216  34.300  31.811   2.927
18792W        W91217   8.255   4.822  11.355
18793W        W91218  40.499  15.739   4.113
18794W        W91219  17.292  28.506  13.295
18795W        W91220  24.589  38.929   4.388
18796W        W91221   8.472  41.970   0.337
18797W        W91222  40.506   7.496  12.070
18798W        W91223  38.336  28.788   2.214
18799W        W91224  14.985  12.270   2.780
18800W        W91225  38.332  41.984  14.144
18801W        W91226   6.341  40.813  13.865
18802W        W91227  36.046  34.373   0.958
18803W        W91228  39.560  43.275   2.178
18804W        W91229   8.448  20.475  13.939
18805W        W91230  20.670  10.647   5.350
18806W        W91231   6.183   5.238   3.241
18807W        W91232   0.176  35.433  10.695
18808W        W91233  24.463  30.525   1.721
18809W        W91234  24.822  18.271   2.856
18810W        W91235  43.453  24.057  14.993
18811W        W91236  24.995  23.807   2.017
18812W        W91237  30.997  41.504   5.200
18813W        W91238  31.937  16.459  13.622
18814W        W91239   3.248  30.394   2.745
18815W        W91240  30.486  43.111   1.278
18816W        W91241  21.684  37.708   3.514
18817W        W91242   2.749  17.309  11.975
18818W        W91243   8.774   9.351   2.196
18819W        W91244  28.178  33.502   1.735
18820W        W91245   8.896  36.555   0.039
18821W        W91246  22.565  18.301   4.661
18822W        W91247  19.142  33.928  12.958
18823W        W91248   3.673   1.824  13.013
18824W        W91249  14.143   6.335   4.187
18825W        W91250  43.986  12.236  14.787
18826W        W91251  29.923   3.969   2.563
18827W        W91252  20.215   0.801   2.624
18828W        W91253   6.212  28.077   5.029
18829W        W91254   0.424  38.300  11.591
18830W        W91255  24.394  12.209   3.634
18831W        W91256  43.534   1.519   3.953
18832W        W91257   7.846  10.585   2.768
18833W        W91258  12.181  10.629  13.868
18834W        W91259  30.518  40.506   2.125
18835W        W91260  29.592   2.627   5.092
18836W        W91261   1.149   5.365   0.328
18837W        W91262  28.530  36.835   0.285
18838W        W91263  13.376  28.407   3.302
18839W        W91264   7.818  24.290   4.576
18840W        W91265  11.340  34.848   1.896
18841W        W91266  27.643  33.818  14.433
18842W        W91267   3.450  30.502  14.096
18843W        W91268   7.237  20.121   1.892
18844W        W91269  43.973  11.180   2.119
18845W        W91270  20.222  12.375   0.413
18846W        W91271   5.184  32.989   1.384
18847W        W91272  11.193  27.223  13.429
18848W        W91273  33.596  38.260   0.148
18849W        W91274  42.625  44.273   2.312
18850W        W91275  22.666  44.015  13.258
18851W        W91276  26.177  11.243   1.230
18852W        W91277   8.754  10.595   1.561
18853W        W91278  20.168  31.424   4.706
18854W        W91279   8.501  30.103  10.990
18855W        W91280  37.507  40.607  14.250
18856W        W91281  24.001  28.493   3.608
18857W        W91282  31.574   1.352  11.223
18858W        W91283  29.160  37.027   0.454
18859W        W91284   7.357  36.649   0.943
18860W        W91285  13.874  34.514  11.148
18861W        W91286  31.424  26.417   1.292
18862W        W91287  26.479   5.750  14.431
18863W        W91288  40.531   1.237  13.797
18864W        W91289  41.421  16.200   1.659
18865W        W91290   1.357   9.832  12.496
18866W        W91291  17.251  32.357   2.479
18867W        W91292  43.151   3.357   4.178
18868W        W91293  38.586  29.594   0.195
18869W        W91294   1.299  32.301  11.981
18870W        W91295  34.571  30.146  14.623
18871W        W91296  17.192   5.433   3.940
18872W        W91297   1.045  21.821   0.326
18873W        W91298  17.156  29.833  13.220
18874W        W91299  15.329  22.042   0.269
18875W        W91300   5.927  28.909  12.081
18876W        W91301  22.991  21.704  10.620
18877W        W91302  26.146  20.649  13.944
18878W        W91303   6.575  42.335  13.800
18879W        W91304  30.147  42.355  13.337
18880W        W91305   4.830  32.279   0.906
18881W        W91306   2.376  24.315  13.284
18882W        W91307  12.876  21.625  12.189
18883W        W91308  14.099   1.482   4.308
18884W        W91309   6.472   6.765   1.959
18885W        W91310  12.376  21.688   4.209
18886W        W91311  32.999  19.643  13.346
18887W        W91312  25.191  10.974   4.230
18888W        W91313   4.925   9.320   1.882
18889W        W91314  30.833  31.147   0.951
18890W        W91315  30.049  20.204   4.752
18891W        W91316  13.228  18.249   2.252
18892W        W91317  14.685  13.811   4.099
18893W        W91318  31.039  35.614   0.865
18894W        W91319  43.969  38.510   3.797
18895W        W91320  34.478  27.941  14.772
18896W        W91321  26.479  44.005  14.012
18897W        W91322   0.945  40.841  10.665
18898W        W91323  40.550  30.470   4.207
18899W        W91324  34.142  30.021   0.660
18900W        W91325  26.924  32.319  12.029
18901W        W91326  24.290  26.927   4.169
18902W        W91327   9.425  24.616  12.974
18903W        W91328  34.786  26.622   3.685
18904W        W91329  15.875   5.788  10.537
18905W        W91330   0.706  25.645  12.422
18906W        W91331   0.482  12.785  12.115
18907W        W91332  32.675  18.462   0.878
18908W        W91333  26.172  31.957  14.354
18909W        W91334  33.728  33.413   3.173
18910W        W91335  20.554  15.423  14.497
18911W        W91336   5.290  21.995  14.383
18912W        W91337  13.622  21.680   4.690
18913W        W91338   8.360  44.469   3.375
18914W        W91339  35.154   7.644  13.568
18915W        W91340  35.112  29.965  13.852
18916W        W91341   3.260  18.197  12.855
18917W        W91342  31.078   3.504   4.049
18918W        W91343  11.703  19.317  12.573
18919W        W91344  22.574  20.531  14.601
18920W        W91345  29.310  28.746  13.532
18921W        W91346  43.254  38.540  13.953
18922W        W91347  39.095  29.872   4.292
18923W        W91348  11.858  23.531   1.816
18924W        W91349   2.034  21.561   4.596
18925W        W91350  24.959  25.092   0.235
18926W        W91351  19.670  18.295   1.317
18927W        W91352   6.169   6.998   0.820
18928W        W91353  20.547   3.746  12.162
18929W        W91354   0.590  36.775   4.531
18930W        W91355  23.747  38.650  14.178
18931W        W91356  23.115   8.777  11.976
18932W        W91357  29.327  41.524   4.572
18933W        W91358  34.821  10.656  14.947
18934W        W91359  12.522  40.391  13.813
18935W        W91360  19.528  41.850   3.776
18936W        W91361  27.930  30.679  12.415
18937W        W91362  23.434  20.366  11.110
18938W        W91363  33.952   7.412   1.377
18939W        W91364  31.118  16.836   0.848
18940W        W91365  40.472  43.319   1.727
18941W        W91366  30.731   3.454   3.635
18942W        W91367   0.493  33.646  13.912
18943W        W91368  11.315  24.185   2.126
18944W        W91369  28.637  43.380   2.346
18945W        W91370  44.544   7.750  13.353
18946W        W91371  40.073   5.470   2.265
18947W        W91372   5.383  29.670  14.958
18948W        W91373  28.715  20.781   0.899
18949W        W91374   4.013  28.940  12.539
18950W        W91375  34.322  24.308   1.609
18951W        W91376  32.436  29.223   2.213
18952W        W91377  35.889  17.708  12.915
18953W        W91378  19.101  40.234   4.738
18954W        W91379  11.040  42.346  12.661
18955W        W91380  18.221  41.115  11.624
18956W        W91381  18.772  43.924   3.328
18957W        W91382  44.761  15.825   4.289
18958W        W91383  25.113  26.296   2.276
18959W        W91384   0.001  23.070   4.073
18960W        W91385  42.772  22.478   0.319
18961W        W91386  31.673  37.889   4.537
18962W        W91387  38.098  42.437   2.707
18963W        W91388  22.938  31.195  12.919
18964W        W91389  40.108   4.354   4.114
18965W        W91390   3.447  32.777  13.938
18966W        W91391  19.082  27.808  14.757
18967W        W91392   0.553  11.026  11.725
18968W        W91393  14.628  41.935   3.339
18969W        W91394  27.705  18.017  13.792
18970W        W91395  28.433   6.934   4.138
18971W        W91396  34.497   5.340   0.535
18972W        W91397  18.165  36.447   2.414
18973W        W91398  35.808  43.975   1.869
18974W        W91399   5.081  36.327  11.083
18975W        W91400  28.699  30.497   3.577
18976W        W91401  19.198  27.507   0.719
18977W        W91402   8.433  30.485   4.207
18978W        W91403  25.372  41.147   1.373
18979W        W91404  12.320  14.563   2.875
18980W        W91405  21.979  27.649   3.161
18981W        W91406  40.524   7.078  14.323
18982W        W91407  36.889   8.093   0.929
18983W        W91408  19.555   7.432   3.684
18984W        W91409  22.896  40.803  13.863
18985W        W91410  11.631  43.886  10.585
18986W        W91411  36.660  31.974   2.635
18987W        W91412  36.711   9.655   4.711
18988W        W91413  21.174  17.014  14.766
18989W        W91414  36.673  13.346  11.182
18990W        W91415  33.181  42.730   3.676
18991W        W91416  19.678  44.838   1.514
18992W        W91417  18.322   3.661  13.913
18993W        W91418   2.918  20.737   3.892
18994W        W91419  26.998  30.813   3.961
18995W        W91420  37.503  27.172  14.800
18996W        W91421  43.055  39.998   4.116
18997W        W91422  10.527  26.572  10.659
18998W        W91423   6.984   3.262  14.378
18999W        W91424  41.886  27.763   0.217
19000W        W91425  14.790  20.083  12.554
19001W        W91426  23.700  32.700   2.777
19002W        W91427  40.509  40.514  12.461
19003W        W91428  10.571  35.545   4.229
19004W        W91429  29.190   3.431  14.898
19005W        W91430  28.143  21.724  12.465
19006W        W91431   4.172  10.119   3.446
19007W        W91432  34.618  21.238  11.545
19008W        W91433  27.451  42.225   1.345
19009W        W91434   8.259  44.572   0.391
19010W        W91435  40.532   5.930  12.070
19011W        W91436  41.314   3.135   3.975
19012W        W91437  39.359  41.288  14.336
19013W        W91438  34.766  35.857  13.567
19014W        W91439   8.888  28.833  11.117
19015W        W91440  34.243  33.504   3.301
19016W        W91441  36.982   0.707  12.739
19017W        W91442  24.118  21.062   4.432
19018W        W91443   6.697   1.356  10.682
19019W        W91444   4.375  31.211  11.120
19020W        W91445  35.914  19.009   2.342
19021W        W91446  25.623  38.919  13.283
19022W        W91447  40.369   9.352  14.922
19023W        W91448  36.500   0.826   3.321
19024W        W91449  22.072  33.729   1.834
19025W        W91450   6.541  13.148  10.033
19026W        W91451   9.036   3.299  14.420
19027W        W91452  26.001  27.105  11.780
19028W        W91453  40.095  36.935   1.370
19029W        W91454  10.425   6.214   3.849
19030W        W91455  10.770  36.510   3.160
19031W        W91456  43.811   7.363  12.413
19032W        W91457   0.266  27.846   0.335
19033W        W91458  22.814  41.572   3.487
19034W        W91459  42.598  24.309   2.739
19035W        W91460  30.467   4.964   5.212
19036W        W91461  26.220   6.758   0.271
19037W        W91462   0.127  39.944   0.231
19038W        W91463  44.512  20.273   1.837
19039W        W91464  38.040   5.328  10.745
19040W        W91465  41.594  14.868  11.549
19041W        W91466  11.666  18.575  10.379
19042W        W91467  42.855  41.472  12.482
19043W        W91468  22.133  43.018  13.317
19044W        W91469  33.208  23.194   2.228
19045W        W91470  44.311  19.785   3.672
19046W        W91471  36.546   1.851   2.385
19047W        W91472  10.608  10.297  10.442
19048W        W91473  17.243   9.963   1.894
19049W        W91474   7.953  44.241  11.242
19050W        W91475   9.688  42.217   2.213
19051W        W91476  19.096   2.352  13.396
19052W        W91477  14.086  26.578  10.000
19053W        W91478  40.387  17.019   3.641
19054W        W91479  18.562  13.682  13.476
19055W        W91480  37.052  18.160  11.114
19056W        W91481  20.683  23.454   2.549
19057W        W91482  17.139  12.642   0.899
19058W        W91483  40.962  18.590   3.311
19059W        W91484  43.333  19.095  10.575
19060W        W91485  11.359  24.876  12.019
19061W        W91486  28.491  30.554  11.067
19062W        W91487   2.733  39.437  13.303
19063W        W91488  44.439  32.048   5.066
19064W        W91489  37.583   4.901  11.343
19065W        W91490  16.245   3.730   2.696
19066W        W91491   0.478  32.507   0.014
19067W        W91492  16.560  32.586  12.161
19068W        W91493  22.929  14.875  11.196
19069W        W91494   9.464  29.545  13.408
19070W        W91495   0.211  43.336  11.180
19071W        W91496  43.833  38.866   4.255
19072W        W91497  11.305   6.087  11.730
19073W        W91498  10.563  30.816   0.362
19074W        W91499  36.122  36.876   3.336
19075W        W91500   6.273  14.153   0.914
19076W        W91501  27.928  29.882   4.879
19077W        W91502  25.092  31.967   0.242
19078W        W91503   7.956  44.126   4.155
19079W        W91504  10.414  17.605  14.325
19080W        W91505  33.119  17.563  13.456
19081W        W91506  31.131  42.071   0.956
19082W        W91507   4.425   8.315  12.205
19083W        W91508  27.661  41.018  13.880
19084W        W91509  34.019  25.477   3.845
19085W        W91510  24.103  11.120  14.166
19086W        W91511  33.621   6.323   0.908
19087W        W91512  31.996  38.484  14.844
19088W        W91513  38.001  40.815   0.317
19089W        W91514  44.383  25.979   1.730
19090W        W91515  23.107  34.477  12.130
19091W        W91516  31.002  44.145  14.018
19092W        W91517  28.884  25.314  13.419
19093W        W91518   6.754   5.768  11.099
19094W        W91519   6.187  29.665  12.558
19095W        W91520  17.104  37.352   0.503
19096W        W91521  24.689   4.763  13.881
19097W        W91522  35.422   5.323   1.259
19098W        W91523  37.078  34.054  14.053
19099W        W91524  44.390   8.912  12.537
19100W        W91525  11.644  17.144  11.266
19101W        W91526   2.736  28.643   2.560
19102W        W91527  44.624   2.868  12.563
19103W        W91528   3.802  29.422   1.723
19104W        W91529  36.094  25.472  12.513
19105W        W91530  16.129  20.611   4.550
19106W        W91531   1.239  34.647   0.904
19107W        W91532  35.388   2.477  10.971
19108W        W91533  26.693  15.129  11.185
19109W        W91534  33.007   7.353   2.938
19110W        W91535  29.888  21.538  11.468
19111W        W91536  20.296  12.698   3.203
19112W        W91537  17.120  11.766   0.424
19113W        W91538  11.728  40.692   3.420
19114W        W91539  38.467   7.178  14.384
19115W        W91540  39.287  32.384  12.427
19116W        W91541  35.167  20.650   1.791
19117W        W91542  38.384  12.838  10.769
19118W        W91543   4.157   8.042  14.794
19119W        W91544   7.075  25.367  14.165
19120W        W91545  27.067  34.465   4.166
19121W        W91546  23.229  42.844  14.042
19122W        W91547   6.339  30.733   2.271
19123W        W91548  43.611  44.233  11.588
19124W        W91549  24.046  31.697  11.349
19125W        W91550  38.868  12.627  13.922
19126W        W91551  43.943  39.859   0.889
19127W        W91552   5.615  27.083   4.415
19128W        W91553  31.406  24.601  12.295
19129W        W91554  25.208  13.323   0.298
19130W        W91555   1.674  10.279   1.776
19131W        W91556  29.353  37.010   0.939
19132W        W91557  32.649  23.515   4.703
19133W        W91558  39.300  25.621  13.870
19134W        W91559   3.282  15.578  11.493
19135W        W91560  28.235  17.772  11.963
19136W        W91561  11.676   8.404  13.859
19137W        W91562  25.382  29.215  11.125
19138W        W91563  12.772  10.075  10.690
19139W        W91564  16.675  12.587  11.976
19140W        W91565  39.462  24.690   0.469
19141W        W91566  12.825  27.026   1.868
19142W        W91567  30.519  25.550   4.179
19143W        W91568  16.814  32.004   0.987
19144W        W91569  17.577  26.619  10.136
19145W        W91570   9.218  25.341   4.701
19146W        W91571   9.340  25.916  10.549
19147W        W91572  33.493   1.414  12.875
19148W        W91573  15.782  26.395  14.804
19149W        W91574  27.834  32.110  14.946
19150W        W91575  21.120   4.861  10.730
19151W        W91576   1.344  12.607  14.012
19152W        W91577   6.512  40.313  11.960
19153W        W91578  20.606   9.682  10.921
19154W        W91579  19.587  29.778  11.436
19155W        W91580  28.162  28.558  12.986
19156W        W91581   3.990  16.761   4.522
19157W        W91582  13.636   3.839  10.826
19158W        W91583   8.209  38.982   2.261
19159W        W91584   5.672  31.466   4.553
19160W        W91585  27.671  21.123  11.619
19161W        W91586  29.428  21.794  13.296
19162W        W91587   7.763   3.536  14.770
19163W        W91588  34.383  34.034   2.649
19164W        W91589  15.168  37.439  11.376
19165W        W91590  36.930  38.334   0.644
19166W        W91591  21.984  19.619  13.983
19167W        W91592  39.551   1.461   1.285
19168W        W91593  18.303  34.407   2.262
19169W        W91594  33.536   2.235  13.845
19170W        W91595  38.858  21.603   3.802
19171W        W91596  25.544  13.642  12.591
19172W        W91597  38.976  22.028   0.718
19173W        W91598   1.383  31.877   3.591
19174W        W91599  38.899  19.556   4.564
19175W        W91600   6.854   6.189   3.194
19176W        W91601  32.815  33.019   1.678
19177W        W91602  38.740  25.114   1.712
19178W        W91603  13.204  31.663   1.316
19179W        W91604  40.412  24.033  14.279
19180W        W91605  42.903   4.103  13.402
19181W        W91606  12.631  30.912   1.242
19182W        W91607  44.400   9.430  12.580
19183W        W91608  36.412  32.075   2.191
19184W        W91609  33.947  28.877  12.991
19185W        W91610   3.229  39.956   3.273
19186W        W91611  10.335  11.428  13.431
19187W        W91612   9.187  31.530  12.564
19188W        W91613  21.671   6.791   0.114
19189W        W91614  29.626   8.352   1.224
19190W        W91615  24.182  12.312  14.394
19191W        W91616  43.223  17.165  10.525
19192W        W91617  25.098  30.781  13.255
19193W        W91618  44.400  22.593   4.627
19194W        W91619  42.956  30.106  14.404
19195W        W91620  17.837  44.362  11.099
19196W        W91621  23.407  35.689  12.217
19197W        W91622   3.540  22.007  10.740
19198W        W91623  34.109  15.115  10.338
19199W        W91624  15.693  23.965   4.537
19200W        W91625  11.009  23.990  14.907
19201W        W91626  42.981  40.383  14.718
19202W        W91627   1.569  17.749   1.438
19203W        W91628  30.638  42.876   3.612
19204W        W91629  28.986  36.019   2.902
19205W        W91630  34.314   8.738   3.436
19206W        W91631  13.255  35.081  14.663
19207W        W91632   2.538  42.991   2.707
19208W        W91633  25.164  37.514   4.931
19209W        W91634  40.349   1.495   3.807
19210W        W91635  11.815  21.557  10.568
19211W        W91636  32.845  11.867   2.216
19212W        W91637  34.271  21.724  13.663
19213W        W91638  40.045  41.397  12.649
19214W        W91639  26.006  43.960   0.308
19215W        W91640   8.325   3.778   0.910
19216W        W91641  39.030  29.938   2.337
19217W        W91642  42.445  15.497   1.839
19218W        W91643  39.526  40.298  14.526
19219W        W91644  42.992  22.714  14.323
19220W        W91645   3.635  22.195   0.852
19221W        W91646  40.924  23.778   0.034
19222W        W91647  11.388  26.927   1.689
19223W        W91648  26.821  33.671  10.014
19224W        W91649   9.705   1.990   2.272
19225W        W91650  10.725  19.383   4.276
19226W        W91651  42.025  21.491   1.372
19227W        W91652  19.577   5.693   2.897
19228W        W91653  43.544  20.480  14.683
19229W        W91654  13.867   2.016   4.110
19230W        W91655   7.147   9.372   3.653
19231W        W91656  25.466  31.172   3.482
19232W        W91657  32.455   2.549  14.971
19233W        W91658  34.131   7.392   0.287
19234W        W91659  44.484  32.470   1.908
19235W        W91660  15.258  12.597  14.369
19236W        W91661  15.697  19.483   3.703
19237W        W91662  31.686  28.501  11.024
19238W        W91663  13.844  17.560   2.183
19239W        W91664  33.671  37.382   0.926
19240W        W91665  32.964  10.359   4.519
19241W        W91666  39.959  29.182   3.338
19242W        W91667  38.776   0.834  11.155
19243W        W91668  31.665  24.003   0.614
19244W        W91669   7.621  15.275   3.341
19245W        W91670  24.650  41.779   4.536
19246W        W91671  21.288  10.104  13.914
19247W        W91672  12.150  32.521   4.274
19248W        W91673   6.126   8.767   0.180
19249W        W91674  29.077  37.780   3.305
19250W        W91675  41.974  34.787   3.791
19251W        W91676   7.873  33.103   0.316
19252W        W91677  33.409  11.976  11.535
19253W        W91678  23.037  24.274  12.109
19254W        W91679   6.043  39.865   0.771
19255W        W91680  31.613   8.077   2.185
19256W        W91681  21.092   4.575  11.689
19257W        W91682  14.583   2.965  14.079
19258W        W91683  31.967   3.729  13.984
19259W        W91684  16.794  28.012  11.274
19260W        W91685  29.650  11.763  10.686
19261W        W91686  29.006  30.693   2.720
19262W        W91687   6.333  15.675  12.940
19263W        W91688  18.220  39.266   3.090
19264W        W91689  38.609  20.179   1.124
19265W        W91690  26.215  44.409  13.565
19266W        W91691  14.854   1.398  11.960
19267W        W91692  20.915   6.542   2.822
19268W        W91693   6.419  40.896   4.516
19269W        W91694  18.600  13.862   0.353
19270W        W91695  17.212  34.588   0.896
19271W        W91696  23.097  14.728  11.679
19272W        W91697  19.619  42.450   2.634
19273W        W91698  14.580  22.453  10.721
19274W        W91699  44.837  26.664  10.939
19275W        W91700  44.497  19.624  12.957
19276W        W91701  18.542   3.390   0.324
19277W        W91702  30.596  19.956  11.676
19278W        W91703  34.347  33.213  11.839
19279W        W91704  12.440  31.387   0.379
19280W        W91705  12.173  44.538   1.143
19281W        W91706  42.102  28.972   3.124
19282W        W91707   5.983  23.783   5.003
19283W        W91708   4.241  19.818   3.753
19284W        W91709  24.622   2.058  14.884
19285W        W91710   0.388   7.786  10.943
19286W        W91711  13.735  44.430  11.908
19287W        W91712  13.563  19.799   4.276
19288W        W91713  18.585  32.819   4.593
19289W        W91714  14.613   6.268   0.430
19290W        W91715  21.300  12.606   3.215
19291W        W91716  33.660  16.562   0.514
19292W        W91717  14.101   3.449   2.766
19293W        W91718  22.540  38.662   0.560
19294W        W91719  34.346  38.569   4.447
19295W        W91720  41.778  24.759  14.317
19296W        W91721   7.040  17.764  14.250
19297W        W91722  35.378   6.148   3.528
19298W        W91723  22.721   5.773  10.726
19299W        W91724  21.618   9.360   3.672
19300W        W91725  33.891  19.663   0.668
19301W        W91726   5.222  31.177   1.429
19302W        W91727   3.787  22.067   0.343
19303W        W91728  34.943  40.830  10.739
19304W        W91729   7.686  18.663  12.356
19305W        W91730  22.746  17.655   4.240
19306W        W91731  16.558  25.494  11.614
19307W        W91732  38.017  42.991  12.959
19308W        W91733  20.624  33.583  11.459
19309W        W91734   0.542  41.042  14.341
19310W        W91735  27.081  36.029  12.948
19311W        W91736  38.281  29.065  12.860
19312W        W91737  37.545  42.167  13.944
19313W        W91738  18.320   6.453   4.644
19314W        W91739  12.167  10.697   2.515
19315W        W91740  39.268  44.425   1.856
19316W        W91741   0.575  23.432  12.385
19317W        W91742  35.353  39.121   3.119
19318W        W91743  40.013  22.074   4.493
19319W        W91744   4.189  24.602  13.073
19320W        W91745  17.021  37.811   2.390
19321W        W91746  38.906  32.900   1.752
19322W        W91747  34.628  11.727   0.471
19323W        W91748  37.361  30.821   4.303
19324W        W91749  13.795  24.626  13.691
19325W        W91750  32.468   4.758  11.884
19326W        W91751   3.044   1.335  13.838
19327W        W91752   7.638  33.905  11.573
19328W        W91753   4.871  23.302  14.749
19329W        W91754   0.961  23.038   3.822
19330W        W91755  28.729  40.888   3.962
19331W        W91756  35.417  27.851   2.685
19332W        W91757  15.572  22.322   3.699
19333W        W91758  17.645  34.925  13.459
19334W        W91759  31.904  41.378  13.263
19335W        W91760  11.435  23.492   3.619
19336W        W91761  11.808  33.948  10.502
19337W        W91762   2.869  10.185  11.452
19338W        W91763   3.173  14.892   2.714
19339W        W91764  31.396  10.973   1.952
19340W        W91765  27.717  22.588  12.535
19341W        W91766  14.660  41.071  12.441
19342W        W91767  41.503  17.998  13.897
19343W        W91768  37.566  17.551  13.308
19344W        W91769  18.548  40.512  11.234
19345W        W91770  38.447  40.752   1.317
19346W        W91771  30.468  12.169  14.260
19347W        W91772  29.582  37.909   1.207
19348W        W91773   7.736  29.963   4.371
19349W        W91774   2.381  33.734  12.686
19350W        W91775   8.174  22.674  11.163
19351W        W91776  22.122  34.120  12.782
19352W        W91777  27.747  10.268   2.830
19353W        W91778   1.248   1.410   3.228
19354W        W91779   7.722  44.160  13.959
19355W        W91780  23.938  15.547   4.217
19356W        W91781  32.033  20.082   0.643
19357W        W91782  31.065  35.090  14.838
19358W        W91783  34.408  26.997   4.671
19359W        W91784  34.407  43.813  12.981
19360W        W91785   5.961  31.011   4.500
19361W        W91786  22.224  16.190  14.994
19362W        W91787  30.184   1.313   4.219
19363W        W91788   1.217  14.389   1.700
19364W        W91789  14.370  29.506   4.410
19365W        W91790   5.751  30.670  12.144
19366W        W91791  29.008   7.122  14.381
19367W        W91792  34.462  29.580   3.020
19368W        W91793  34.765  16.494   1.797
19369W        W91794  28.926  40.998  12.515
19370W        W91795   4.086   3.743   0.522
19371W        W91796  10.682  36.437  12.146
19372W        W91797  12.960  43.821   3.274
19373W        W91798  21.727  42.487   0.834
19374W        W91799  20.996  18.230  10.393
19375W        W91800  17.007  10.147   0.874
19376W        W91801   6.171  13.893   4.255
19377W        W91802  37.181  22.712  12.980
19378W        W91803  36.850   8.756   2.076
19379W        W91804   5.171  39.387  13.193
19380W        W91805  19.620  20.662  10.747
19381W        W91806   6.885  16.697  10.653
19382W        W91807  27.781   9.490  12.067
19383W        W91808  18.373   2.304   4.184
19384W        W91809  27.019  19.291   3.654
19385W        W91810   4.299  41.252  13.954
19386W        W91811   3.997  21.498   1.188
19387W        W91812  29.975  18.119  13.162
19388W        W91813  19.771   1.467  13.952
19389W        W91814   5.478   9.664  11.026
19390W        W91815   8.713  42.952  11.966
19391W        W91816  16.146  44.535  12.056
19392W        W91817  33.441   1.484   3.986
19393W        W91818   9.935  22.231   3.899
19394W        W91819  12.296  29.023   0.285
19395W        W91820  26.918  23.120   0.249
19396W        W91821  27.130  19.994   4.751
19397W        W91822  36.385  32.984  12.839
19398W        W91823   5.386  44.849  12.649
19399W        W91824  26.024  22.559   3.794
19400W        W91825  36.420  11.612   3.306
19401W        W91826   2.542  31.424   3.421
19402W        W91827  39.816   6.434  14.209
19403W        W91828   5.916  32.591   1.748
19404W        W91829  13.596  13.772  10.779
19405W        W91830   5.240  12.249   4.377
19406W        W91831  14.810  27.609  12.868
19407W        W91832  17.338   6.174  12.894
19408W        W91833  14.813  40.964   4.093
19409W        W91834  12.078  27.017  14.894
19410W        W91835   4.820   8.868   2.369
19411W        W91836  34.973   0.714  13.816
19412W        W91837  26.518   8.411   0.385
19413W        W91838  10.315  31.143  12.129
19414W        W91839  15.704  33.206   0.775
19415W        W91840  22.474   7.138  13.579
19416W        W91841  36.493   0.424   1.488
19417W        W91842   7.322  23.207  13.928
19418W        W91843  27.023  30.056  12.289
19419W        W91844  23.512  41.271   2.413
19420W        W91845  42.809  17.673  13.025
19421W        W91846   7.800  26.230  14.421
19422W        W91847  22.944  19.858   0.463
19423W        W91848   2.828  37.408  11.633
19424W        W91849  36.300  16.372   3.797
19425W        W91850  37.276  13.672  13.638
19426W        W91851  29.743  35.604   4.240
19427W        W91852  38.450   6.682  14.339
19428W        W91853  18.433  32.901  10.662
19429W        W91854  27.774  42.543  13.686
19430W        W91855  17.218  39.845  10.504
19431W        W91856  44.124  36.930  12.987
19432W        W91857  39.161  23.305  13.529
19433W        W91858  40.046  26.361   0.900
19434W        W91859  10.625   6.292  12.111
19435W        W91860  26.070  36.109  10.820
19436W        W91861  18.164  42.864  14.836
19437W        W91862  42.627  39.226  14.483
19438W        W91863  42.568  44.316  13.637
19439W        W91864  31.455  28.917   2.291
19440W        W91865  17.594  19.706   2.748
19441W        W91866   7.120  13.618  10.763
19442W        W91867  40.601  33.086   3.223
19443W        W91868   3.990  25.617   4.666
19444W        W91869  18.785  39.360   1.987
19445W        W91870   5.444   5.520   3.719
19446W        W91871  42.820  30.393   3.699
19447W        W91872  34.069  11.601  12.619
19448W        W91873  37.026  16.171  12.677
19449W        W91874  12.397   8.545   0.706
19450W        W91875  27.960  25.422   3.652
19451W        W91876  13.571  33.664  10.210
19452W        W91877  34.327   7.824   5.025
19453W        W91878  20.151  38.938  10.667
19454W        W91879  17.790  30.701  12.501
19455W        W91880  41.437   4.459  13.833
19456W        W91881  43.359  44.789   2.399
19457W        W91882   4.662  20.251   2.813
19458W        W91883   3.900  44.847  13.024
19459W        W91884   6.148  17.043   5.008
19460W        W91885   8.548  26.065   1.724
19461W        W91886  15.441  27.433  13.921
19462W        W91887  24.177  15.572   0.194
19463W        W91888   0.357  16.397  11.021
19464W        W91889   4.250  17.207   3.151
19465W        W91890  36.699  18.129   2.771
19466W        W91891  32.240  28.977   1.782
19467W        W91892  17.241  37.781  10.707
19468W        W91893  42.597  34.098  14.852
19469W        W91894  18.801  37.048   3.450
19470W        W91895   0.635  21.429  10.688
19471W        W91896  29.224  26.604   3.767
19472W        W91897  37.461  18.902  11.431
19473W        W91898   6.753  20.109   4.576
19474W        W91899  25.107  42.440   3.559
19475W        W91900  20.347  33.857  11.146
19476W        W91901  11.085  25.647   4.173
19477W        W91902  20.632  20.819  10.362
19478W        W91903  15.526  11.661  13.763
19479W        W91904  42.118  43.600  11.491
19480W        W91905  43.599  40.410  11.046
19481W        W91906   0.823  15.861  13.119
19482W        W91907   1.789  34.605   3.131
19483W        W91908  34.951   5.178  11.097
19484W        W91909  15.212  31.390  12.934
19485W        W91910  10.813  32.370   1.745
19486W        W91911  44.691  18.075   2.377
19487W        W91912  41.431   9.862   1.264
19488W        W91913  43.738   8.927   4.183
19489W        W91914  33.854  35.486   2.303
19490W        W91915  32.192   4.960   4.981
19491W        W91916  14.265  18.581   0.557
19492W        W91917   6.348   1.324   4.554
19493W        W91918  10.377   2.184  10.060
19494W        W91919  21.547  36.532  13.336
19495W        W91920  18.294  12.174  12.328
19496W        W91921  28.723  17.877  11.819
19497W        W91922  44.961  28.187   2.785
19498W        W91923   4.918   7.207  14.842
19499W        W91924  22.607  16.544  13.956
19500W        W91925  21.223  34.501  12.671
19501W        W91926   3.036   9.374   4.282
19502W        W91927  39.792  40.552   2.682
19503W        W91928  20.166   6.307  14.929
19504W        W91929  11.379   8.629  11.517
19505W        W91930   8.675  41.982   3.096
19506W        W91931  32.230  17.287   4.556
19507W        W91932  33.957  34.722  11.968
19508W        W91933   3.441  18.403   2.332
19509W        W91934   7.928  27.461  13.783
19510W        W91935  16.385  35.972  10.665
19511W        W91936  34.407  44.213   1.938
19512W        W91937  18.167  41.255   1.274
19513W        W91938  14.793   7.597  12.147
19514W        W91939  11.746  42.389  11.455
19515W        W91940  18.647  13.190   1.542
19516W        W91941  41.039   8.644  14.010
19517W        W91942   1.346  12.720   3.364
19518W        W91943  13.121  14.670  11.667
19519W        W91944  18.109  15.704   2.453
19520W        W91945  10.295  14.208   3.806
19521W        W91946  29.491  39.057   5.063
19522W        W91947  38.836  10.573  10.188
19523W        W91948   6.775  21.200  14.841
19524W        W91949   0.018  10.212  12.554
19525W        W91950  29.544  41.842   4.168
19526W        W91951  19.495  44.037  14.784
19527W        W91952  11.242  34.745  10.757
19528W        W91953  26.107   7.044   4.602
19529W        W91954  44.454  11.878  12.085
19530W        W91955  30.789  13.380   2.139
19531W        W91956  11.221  40.601  14.453
19532W        W91957  19.793  43.251  13.467
19533W        W91958  26.161  40.779   2.577
19534W        W91959  30.330  27.547   2.312
19535W        W91960  43.913  32.907  12.804
19536W        W91961  41.810  39.890   1.296
19537W        W91962  28.255  16.997   3.647
19538W        W91963  24.032  21.523   2.751
19539W        W91964  13.289  20.188  12.347
19540W        W91965  24.110  29.502   2.763
19541W        W91966  14.336   6.997   3.594
19542W        W91967  42.162   7.312  14.405
19543W        W91968  18.270  42.395  14.643
19544W        W91969  31.595  25.453  11.428
19545W        W91970   5.797  29.383  14.221
19546W        W91971  35.402   0.455  11.123
19547W        W91972  38.131  36.266   3.335
19548W        W91973  23.990   1.878  14.161
19549W        W91974  44.009  27.551  11.840
19550W        W91975   1.320   3.937   1.736
19551W        W91976   9.172  16.774  14.891
19552W        W91977   5.650  40.006   4.099
19553W        W91978  25.499  12.858  11.126
19554W        W91979  23.842  11.640  13.333
19555W        W91980  29.171  24.093  10.128
19556W        W91981   5.814  10.877  13.073
19557W        W91982  30.080  16.853  12.309
19558W        W91983   2.623  18.663  11.569
19559W        W91984  42.360  23.781   4.899
19560W        W91985  41.999  22.313  11.667
19561W        W91986  33.847  21.748   1.355
19562W        W91987  38.579  21.633   2.791
19563W        W91988  38.115  29.613   3.340
19564W        W91989  19.602  23.949   2.368
19565W        W91990   6.151   0.671  11.103
19566W        W91991  29.646  42.303   4.662
19567W        W91992  32.288  22.141  11.252
19568W        W91993  37.419  32.354   3.574
19569W        W91994  21.912  11.404   1.416
19570W        W91995  28.471  26.637   0.696
19571W        W91996  23.997  22.651   2.185
19572W        W91997  41.993  17.541   0.508
19573W        W91998  29.120  25.162  14.239
19574W        W91999  39.699   4.306   3.165
19575W        W92000  26.179  43.422   0.450
19576W        W92001   5.989   2.985  11.830
19577W        W92002  42.003   1.524  13.571
19578W        W92003   6.329  34.924   4.941
19579W        W92004  19.991  20.784  13.579
19580W        W92005   7.894  28.247  12.009
19581W        W92006  19.150   6.635   3.109
19582W        W92007  31.348  44.363   0.809
19583W        W92008  15.748  21.542   4.100
19584W        W92009  37.047   0.055   2.910
19585W        W92010  15.775  36.112  14.734
19586W        W92011  37.936  26.428   1.445
19587W        W92012  23.033  19.993  11.106
19588W        W92013  25.740  16.842  13.591
19589W        W92014  16.303  42.269   2.761
19590W        W92015  36.107  18.823  10.878
19591W        W92016   9.894  33.221  13.597
19592W        W92017   0.769   8.954  10.090
19593W        W92018  36.916  27.518  13.453
19594W        W92019  10.141  36.603   1.253
19595W        W92020   1.751   0.293  13.418
19596W        W92021  15.333  18.682   1.740
19597W        W92022  19.632  41.455   2.888
19598W        W92023  33.766  12.109  10.562
19599W        W92024   7.883  23.195   3.213
19600W        W92025  34.306  20.045  11.642
19601W        W92026  32.134  14.129  11.175
19602W        W92027   6.680  19.612   3.728
19603W        W92028  31.184  34.583  14.547
19604W        W92029  12.773  20.242  12.493
19605W        W92030  28.917  17.912  11.359
19606W        W92031  34.329  17.090  12.408
19607W        W92032  20.984  19.135   0.255
19608W        W92033  30.433  43.695   3.125
19609W        W92034  26.949   8.255  12.174
19610W        W92035   3.178  13.327  14.812
19611W        W92036  28.488  12.123   3.788
19612W        W92037  33.545  42.946  14.866
19613W        W92038   7.275  30.187  14.770
19614W        W92039  25.984  14.816  14.898
19615W        W92040   2.176  40.803  12.047
19616W        W92041  13.111  28.291  12.023
19617W        W92042  17.487  11.657  13.319
19618W        W92043  39.449  42.401   2.423
19619W        W92044  12.101  36.419  13.947
19620W        W92045  12.657  11.920  11.611
19621W        W92046  23.520   9.230   4.595
19622W        W92047   3.502  41.731  11.984
19623W        W92048  15.256  11.557   2.023
19624W        W92049  28.239  35.345   1.330
19625W        W92050  44.527   9.757  14.461
19626W        W92051  29.599  24.582   4.193
19627W        W92052  25.644  16.312  11.480
19628W        W92053  10.315  21.571   3.307
19629W        W92054   1.747  33.046  13.999
19630W        W92055  11.669  17.193   2.693
19631W        W92056   8.143  14.809   2.137
19632W        W92057  11.620   3.525  11.522
19633W        W92058   7.493  42.394  13.378
19634W        W92059  30.860  14.763  14.373
19635W        W92060  21.247   8.189  12.142
19636W        W92061  18.255  32.317  13.283
19637W        W92062  27.430  33.278  11.624
19638W        W92063  12.339  32.023  14.363
19639W        W92064  27.049   6.425  13.038
19640W        W92065  20.176  26.738   2.806
19641W        W92066  25.258  13.922   2.715
19642W        W92067  16.294  20.620  11.740
19643W        W92068  13.818  23.942  14.456
19644W        W92069  35.916  31.527   4.698
19645W        W92070  40.418  38.363   3.738
19646W        W92071   6.923   4.220  13.018
19647W        W92072  37.422  42.453  11.560
19648W        W92073  38.739  15.718  14.029
19649W        W92074  44.457  12.182  11.629
19650W        W92075  44.331  44.228   2.908
19651W        W92076  39.912  17.777  11.168
19652W        W92077   8.714  27.943  12.879
19653W        W92078  31.991  23.311   4.264
19654W        W92079  22.558  15.646   0.785
19655W        W92080  29.547   0.803  10.767
19656W        W92081  25.413  32.967  12.672
19657W        W92082   0.867  37.551   2.834
19658W        W92083   8.667  40.890  11.553
19659W        W92084  43.440   6.199   2.126
19660W        W92085  32.810  39.058  10.590
19661W        W92086  22.906  15.806  12.330
19662W        W92087  43.750  37.570  11.930
19663W        W92088  29.796  38.476   1.948
19664W        W92089  29.396  15.707   0.991
19665W        W92090  10.293  38.092  14.938
19666W        W92091  40.783  23.592   0.510
19667W        W92092   2.901  27.083  13.108
19668W        W92093  30.450   4.381  10.719
19669W        W92094  30.465  19.778   1.640
19670W        W92095  16.872   9.753   0.544
19671W        W92096  32.435  22.963   0.824
19672W        W92097   6.906   3.355   2.342
19673W        W92098  16.444  16.620  10.916
19674W        W92099  41.507  41.817   1.321
19675W        W92100  14.339  39.071   1.300
19676W        W92101  23.557  11.963   0.394
19677W        W92102  36.127  25.152   0.901
19678W        W92103  14.042  10.362   5.068
19679W        W92104  16.268  36.497   2.091
19680W        W92105  41.105  37.183  14.892
19681W        W92106  39.491  27.164   2.407
19682W        W92107  23.591   8.330  11.725
19683W        W92108  30.999  19.346   2.362
19684W        W92109  44.905  20.742  11.550
19685W        W92110  22.189  15.849   2.950
19686W        W92111  22.556  26.494   1.910
19687W        W92112   1.671  35.639  11.686
19688W        W92113  10.169  31.323  11.014
19689W        W92114  12.321  12.834  13.062
19690W        W92115  10.768   9.769  12.626
19691W        W92116   6.125  44.791   0.309
19692W        W92117  43.351  15.335   1.810
19693W        W92118  32.701  41.752   3.285
19694W        W92119  41.773  19.176   1.879
19695W        W92120   7.827  12.497   1.785
19696W        W92121  32.706  33.541  12.520
19697W        W92122  17.259  15.613  10.595
19698W        W92123  33.544  28.455   3.173
19699W        W92124   5.976  15.274   0.378
19700W        W92125   8.841  19.522   3.283
19701W        W92126  44.443  18.400  14.516
19702W        W92127  22.760  25.510   4.073
19703W        W92128  32.430   3.466   0.411
19704W        W92129  42.728  35.929  14.377
19705W        W92130  10.241   5.621   1.397
19706W        W92131  34.863   0.836   4.619
19707W        W92132  30.608   4.847   0.314
19708W        W92133   8.815  18.807  10.711
19709W        W92134  29.134  23.194  14.575
19710W        W92135   6.472  31.717   0.792
19711W        W92136   0.824  20.465  12.990
19712W        W92137  29.943  41.905   9.932
19713W        W92138  36.053   2.943  13.198
19714W        W92139   8.452   5.422   0.896
19715W        W92140  37.424  33.190  13.819
19716W        W92141  12.224  44.460  14.780
19717W        W92142  22.801   6.761   1.810
19718W        W92143   4.817  28.910  12.077
19719W        W92144   8.413   7.743  12.061
19720W        W92145  32.382   8.255   1.651
19721W        W92146  18.896  44.727  13.803
19722W        W92147  43.540  23.612   3.199
19723W        W92148  36.855   5.805   1.875
19724W        W92149   9.129  34.531   0.642
19725W        W92150  37.261  22.609  11.113
19726W        W92151  38.574  33.836  13.580
19727W        W92152  39.276  23.172   4.245
19728W        W92153  34.200  38.975  12.614
19729W        W92154   2.963  35.460   4.199
19730W        W92155  37.524  14.614  13.148
19731W        W92156  43.869  37.671   0.540
19732W        W92157  36.559  42.287  13.259
19733W        W92158   2.751  12.799   2.797
19734W        W92159  20.225   5.385   3.390
19735W        W92160  27.227  36.094   4.567
19736W        W92161  15.327  40.937   4.279
19737W        W92162  25.201  24.805   2.097
19738W        W92163   8.816   8.901   0.756
19739W        W92164  18.048  15.361   3.751
19740W        W92165  23.536  30.148  11.713
19741W        W92166   4.393  44.328   2.261
19742W        W92167  17.158  15.214  14.039
19743W        W92168  34.428  31.226  12.095
19744W        W92169  10.824  41.457  11.601
19745W        W92170  17.567  13.711  10.482
19746W        W92171  27.283  34.657   2.331
19747W        W92172  33.970   1.504  13.019
19748W        W92173  31.883  23.701  11.171
19749W        W92174  20.642  25.929   2.693
19750W        W92175   2.602  39.881   4.140
19751W        W92176  12.534  36.763  14.029
19752W        W92177  36.849  22.659   4.644
19753W        W92178   8.304  35.817  11.259
19754W        W92179  16.333  42.789   2.862
19755W        W92180  22.987   2.709   1.666
19756W        W92181  41.922  12.728  10.389
19757W        W92182  22.449   0.837   1.205
19758W        W92183   1.650  16.307  13.995
19759W        W92184  18.485  42.067  11.914
19760W        W92185  33.900  13.936  11.689
19761W        W92186   8.351  42.827  14.847
19762W        W92187  19.259  15.670   2.803
19763W        W92188  32.167  31.526  11.439
19764W        W92189   9.892  21.102   1.876
19765W        W92190   4.364  40.848  11.661
19766W        W92191   9.192  18.098   1.409
19767W        W92192  36.059   2.526  12.418
19768W        W92193  27.387  44.484   2.779
19769W        W92194  18.063  32.103   1.832
19770W        W92195  29.012   1.061   4.672
19771W        W92196  41.939   3.487   0.243
19772W        W92197  13.573  39.624  11.673
19773W        W92198  32.506  20.145   1.685
19774W        W92199  43.323  10.326   0.524
19775W        W92200  11.087  12.334   1.200
19776W        W92201  32.492  17.733   1.105
19777W        W92202  31.856  37.858  14.242
19778W        W92203   4.814   6.729  12.525
19779W        W92204   0.285   6.213  13.116
19780W        W92205  22.810  31.378   4.641
19781W        W92206  20.788  11.184  13.417
19782W        W92207  28.736  42.358   2.319
19783W        W92208   1.823   1.140   2.487
19784W        W92209  36.639  44.454   3.685
19785W        W92210   8.855   4.725  12.330
19786W        W92211   1.629  40.536  11.195
19787W        W92212  39.923  23.351  13.720
19788W        W92213  32.883   8.136   1.757
19789W        W92214  29.588  33.784   2.710
19790W        W92215  44.855  39.279  13.521
19791W        W92216  30.189  10.409   3.818
19792W        W92217   9.571  23.998  12.488
19793W        W92218  17.764  23.078   4.348
19794W        W92219  23.925   4.296  10.835
19795W        W92220  27.681  27.584  11.354
19796W        W92221   2.712  29.236   3.675
19797W        W92222   0.930  33.071  12.840
19798W        W92223  43.882  24.226   4.115
19799W        W92224  31.087  34.940   3.344
19800W        W92225  44.370   1.692   2.601
19801W        W92226  37.532  26.439  11.025
19802W        W92227  41.754  16.690   3.358
19803W        W92228  40.067  21.325   9.436
19804W        W92229  18.443  28.938  13.954
19805W        W92230  34.315  12.934   2.617
19806W        W92231   6.768  29.646   3.891
19807W        W92232  40.789  35.396   0.428
19808W        W92233  39.886  37.612  11.181
19809W        W92234   7.427  41.532  13.005
19810W        W92235  13.796  34.658   0.487
19811W        W92236  43.599  14.151  12.514
19812W        W92237   3.604   1.748   4.708
19813W        W92238  18.314  13.662   0.773
19814W        W92239  10.215  13.123   3.704
19815W        W92240  20.158  28.310  12.811
19816W        W92241  41.412  24.600  11.162
19817W        W92242  33.890  23.681  11.835
19818W        W92243   2.352  44.998  12.481
19819W        W92244  35.365  25.203   3.797
19820W        W92245   2.746   0.868   2.320
19821W        W92246   1.810  14.859  12.920
19822W        W92247   4.374  15.991   2.409
19823W        W92248  29.624  36.590   3.891
19824W        W92249   7.348  14.602  12.881
19825W        W92250  12.637   5.656  11.631
19826W        W92251  27.345  44.233   3.218
19827W        W92252  35.961  27.757   2.931
19828W        W92253  26.787  12.178   4.764
19829W        W92254  14.034  37.083   4.542
19830W        W92255  22.165  23.808   3.700
19831W        W92256  44.011  14.303  13.841
19832W        W92257  29.237  35.863  10.268
19833W        W92258   1.808  33.867  11.839
19834W        W92259  12.719  35.501  14.566
19835W        W92260  29.891  40.800   0.391
19836W        W92261  10.829   8.685   4.467
19837W        W92262  34.040  20.947   3.635
19838W        W92263  26.216  22.013  13.946
19839W        W92264  44.105  41.531   2.627
19840W        W92265  30.861   9.930  11.449
19841W        W92266  22.962  39.880   0.948
19842W        W92267   8.124  35.152   1.815
19843W        W92268   5.877  40.934  11.582
19844W        W92269  19.218   0.749   0.375
19845W        W92270  41.817  27.900  14.495
19846W        W92271   4.336  16.894   4.147
19847W        W92272  19.194  41.847   4.180
19848W        W92273  14.171  18.320   2.368
19849W        W92274  21.191   9.055   2.755
19850W        W92275  35.919  34.485   3.664
19851W        W92276  39.460  29.394   1.756
19852W        W92277  27.060  39.276  13.839
19853W        W92278  43.042  43.563   0.359
19854W        W92279   3.372  34.167  11.548
19855W        W92280  24.501  39.865  11.071
19856W        W92281  20.260   7.893  12.507
19857W        W92282  41.053  37.508   2.920
19858W        W92283   3.389  10.429  13.463
19859W        W92284  28.495  12.074  12.143
19860W        W92285   0.687  24.143  14.373
19861W        W92286  18.616   4.612  12.366
19862W        W92287  15.876  33.859   0.238
19863W        W92288  38.458  22.786  12.549
19864W        W92289  37.257  10.762   4.899
19865W        W92290  23.423  44.037  14.771
19866W        W92291  25.659  40.725   4.773
19867W        W92292  10.297  37.591   5.057
19868W        W92293  35.985  41.769   1.831
19869W        W92294  24.053   7.347   5.127
19870W        W92295  43.779  23.215   0.215
19871W        W92296  24.010  33.906  10.875
19872W        W92297   0.361   7.732  12.372
19873W        W92298  33.581   6.102  10.435
19874W        W92299  32.592  44.807   4.637
19875W        W92300  41.381   7.283   3.151
19876W        W92301   3.871  23.144   4.191
19877W        W92302  19.766  26.272   0.723
19878W        W92303  19.011  34.849  12.801
19879W        W92304   3.520   4.792  14.302
19880W        W92305  16.586   8.704  10.880
19881W        W92306  44.861  31.860   1.673
19882W        W92307  30.620  17.288  11.161
19883W        W92308  44.731  28.054  12.095
19884W        W92309  22.512  15.598  13.984
19885W        W92310  21.612  22.867  14.871
19886W        W92311  37.181  40.349   3.255
19887W        W92312  35.542  13.321  12.505
19888W        W92313  18.259  17.465  12.852
19889W        W92314  37.105  21.103  11.169
19890W        W92315  22.453  40.807  11.927
19891W        W92316  14.579  39.475   2.289
19892W        W92317  39.538  20.660   4.831
19893W        W92318  42.724  10.549   4.626
19894W        W92319  23.017  23.074   3.109
19895W        W92320  33.361   8.632   4.138
19896W        W92321  17.757  21.339   1.655
19897W        W92322  28.126  39.539   2.380
19898W        W92323  44.926  36.232  13.594
19899W        W92324   3.774  39.409  12.027
19900W        W92325   8.697  31.459   1.724
19901W        W92326  25.225   7.165  11.634
19902W        W92327  34.383  20.273  12.543
19903W        W92328  38.517  17.854  12.993
19904W        W92329  35.658  41.337  14.828
19905W        W92330  41.057  12.679   4.203
19906W        W92331  28.337  28.192  10.394
19907W        W92332  18.508  12.584  12.136
19908W        W92333  18.637   2.710   3.843
19909W        W92334   4.576   4.650   3.173
19910W        W92335  25.913   7.928   4.602
19911W        W92336  18.104  22.304   3.082
19912W        W92337  22.954  42.850   4.102
19913W        W92338  37.513  41.044  14.546
19914W        W92339  24.999  33.163  10.883
19915W        W92340  29.613  23.111  13.805
19916W        W92341  23.747   4.896   2.864
19917W        W92342  36.631  40.097  11.097
19918W        W92343   8.354  34.086   0.921
19919W        W92344  20.732  14.078  10.452
19920W        W92345  37.130  38.555  12.614
19921W        W92346  22.550  25.625  11.935
19922W        W92347  28.032  33.655   2.217
19923W        W92348   7.565  34.902  13.344
19924W        W92349  10.480  43.874  13.113
19925W        W92350  30.429  29.997  11.583
19926W        W92351  44.487   5.453  11.615
19927W        W92352  42.462  22.499  11.473
19928W        W92353  11.832   0.082   2.837
19929W        W92354  20.335  21.124   0.931
19930W        W92355  29.029  22.595   2.153
19931W        W92356  16.956  44.044  11.049
19932W        W92357   3.724  26.878  13.575
19933W        W92358   9.122  10.303   1.751
19934W        W92359   5.132  39.894   4.085
19935W        W92360  29.101  27.388   1.550
19936W        W92361  35.350   6.372  11.451
19937W        W92362  38.931  42.502   2.289
19938W        W92363  38.470   0.322  13.393
19939W        W92364  19.692  13.244  11.991
19940W        W92365  14.043  28.667   2.830
19941W        W92366  39.987  28.588   2.641
19942W        W92367   5.861  40.833  10.705
19943W        W92368  42.015  14.162   4.896
19944W        W92369   8.706  33.391  13.744
19945W        W92370  15.112  39.396   3.190
19946W        W92371  27.638   2.490   2.259
19947W        W92372  26.033   5.460   0.117
19948W        W92373  19.235  15.351   2.394
19949W        W92374  38.902  35.333   2.419
19950W        W92375  40.170   6.687   4.278
19951W        W92376   0.733  15.376   3.328
19952W        W92377  18.971  25.595  14.328
19953W        W92378  25.640  26.264  13.315
19954W        W92379   0.728   8.661  13.437
19955W        W92380  25.876  18.357  10.538
19956W        W92381  14.103  27.372  13.467
19957W        W92382  27.621  29.541  13.934
19958W        W92383  33.643  34.191  12.405
19959W        W92384  36.045   3.835  12.708
19960W        W92385  20.617  17.568   2.415
19961W        W92386  42.382  40.840  11.322
19962W        W92387  30.052  40.820   4.714
19963W        W92388  24.984   8.510   4.150
19964W        W92389  20.022   8.189  14.456
19965W        W92390  39.475   8.603  14.312
19966W        W92391  13.106  17.206  14.448
19967W        W92392  13.225  22.919  13.121
19968W        W92393   5.228  12.855  11.688
19969W        W92394  24.249  42.740  13.940
19970W        W92395  26.462  41.069  14.769
19971W        W92396  16.817  15.118  14.582
19972W        W92397  18.647  21.097   5.058
19973W        W92398   3.319  27.686  14.009
19974W        W92399  31.977  31.168  13.858
19975W        W92400   9.085  41.349   1.905
19976W        W92401   9.947  25.465  10.949
19977W        W92402   6.285   0.124  14.868
19978W        W92403  21.177  10.634  13.905
19979W        W92404  17.193  44.611   2.798
19980W        W92405  12.850  25.649   2.200
19981W        W92406  34.537  35.012   2.806
19982W        W92407  29.927  32.591   1.226
19983W        W92408  38.729  15.744  14.553
19984W        W92409  41.437  15.379  11.679
19985W        W92410  30.241  12.339   2.576
19986W        W92411  37.868  18.183   4.631
19987W        W92412  34.054   5.800   3.259
19988W        W92413  21.638  18.244   4.438
19989W        W92414  28.477  13.286  10.607
19990W        W92415  42.212  15.841   5.045
19991W        W92416  40.850  33.432  12.397
19992W        W92417   8.857  22.098  12.994
19993W        W92418  33.691  20.318  11.288
19994W        W92419   7.829  26.046   1.737
19995W        W92420  13.398  30.622   2.741
19996W        W92421   0.716  24.900  13.488
19997W        W92422  28.076  43.908   2.920
19998W        W92423  26.110   9.591   1.753
19999W        W92424   2.968   6.220  11.098
20000W        W92425   9.057  17.363   2.693
20001W        W92426  21.099  19.760  14.689
20002W        W92427  39.480  35.989  12.003
20003W        W92428  41.907  22.183  14.806
20004W        W92429   5.192  30.622   0.062
20005W        W92430  26.519  29.493  10.657
20006W        W92431  37.827   3.554  13.841
20007W        W92432  25.105   9.934  12.017
20008W        W92433  40.794  18.613  11.486
20009W        W92434   6.962  11.644   3.249
20010W        W92435  37.425   2.771   4.630
20011W        W92436  19.320   2.675   1.346
20012W        W92437  30.377   9.453   0.823
20013W        W92438  41.919  32.176   0.543
20014W        W92439   9.724  25.777   0.367
20015W        W92440  28.775  15.963   4.489
20016W        W92441  28.052  14.121  13.438
20017W        W92442  41.019  41.762   0.014
20018W        W92443  37.270   8.595   3.380
20019W        W92444  23.675  18.740  11.948
20020W        W92445  38.634  19.690   4.148
20021W        W92446  37.638   0.947  12.408
20022W        W92447  39.927  28.601  12.815
20023W        W92448   6.834  24.684  11.686
20024W        W92449   6.664   8.647   0.291
20025W        W92450  22.395   7.439  13.191
20026W        W92451  42.931  13.626   2.746
20027W        W92452  12.347  17.331   0.014
20028W        W92453  31.617  40.840  14.868
20029W        W92454  35.153  18.794   3.148
20030W        W92455  44.621  13.588   2.375
20031W        W92456  12.808  40.436  13.370
20032W        W92457  16.739  12.160  13.393
20033W        W92458  27.879  39.611   0.330
20034W        W92459  42.396   5.597  14.076
20035W        W92460  22.643   4.503   0.346
20036W        W92461  10.401  22.598  11.555
20037W        W92462  42.817  21.759  12.796
20038W        W92463  35.413  31.474   1.806
20039W        W92464  17.391  41.771   3.010
20040W        W92465  35.789   8.870  11.983
20041W        W92466  20.156  21.289   1.398
20042W        W92467  15.131  29.002  14.550
20043W        W92468   3.342  32.814  12.982
20044W        W92469  33.027  39.245  12.549
20045W        W92470  29.866  27.449   3.840
20046W        W92471   3.182  31.951   5.493
20047W        W92472  28.728  40.452   4.249
20048W        W92473   5.462  17.270  11.094
20049W        W92474  34.520  44.241   2.622
20050W        W92475  40.057   0.090  10.359
20051W        W92476  15.139  37.456   3.612
20052W        W92477  23.537  35.577   0.459
20053W        W92478  16.688  43.240   2.746
20054W        W92479  23.383   9.600   3.249
20055W        W92480   2.189  20.288   0.289
20056W        W92481   1.255  27.477  10.623
20057W        W92482  10.902  19.072  11.009
20058W        W92483  18.110  42.687   3.588
20059W        W92484  44.748  32.091  14.814
20060W        W92485   2.417  20.553  10.449
20061W        W92486   4.426  26.638   3.865
20062W        W92487  44.873  40.034   2.740
20063W        W92488  31.498  35.225   3.238
20064W        W92489   2.659  10.573   2.743
20065W        W92490  20.257  10.660  14.378
20066W        W92491   7.218  14.312  11.048
20067W        W92492  44.919  32.414  14.108
20068W        W92493  34.002   7.840  12.412
20069W        W92494  13.172  44.087   0.855
20070W        W92495  18.276   8.827   0.891
20071W        W92496  15.118  41.154  12.670
20072W        W92497  22.542  38.112   3.331
20073W        W92498  28.480  11.635   1.892
20074W        W92499  39.010   4.242   3.707
20075W        W92500  34.649  39.965   0.885
20076W        W92501  15.280  22.579  12.029
20077W        W92502  25.229  41.478  10.718
20078W        W92503  31.900  39.809  14.035
20079W        W92504  19.971  40.035  11.174
20080W        W92505  32.957  18.297  12.949
20081W        W92506   2.715   6.800  13.561
20082W        W92507  39.909  28.556  10.998
20083W        W92508   7.130  26.552  10.724
20084W        W92509  41.980  44.505   2.746
20085W        W92510   1.825  33.354   3.255
20086W        W92511  12.392  23.518   3.726
20087W        W92512  14.518  43.453   4.087
20088W        W92513  31.398  11.385  10.875
20089W        W92514  17.242  31.153  13.125
20090W        W92515  10.834  17.956   0.850
20091W        W92516   5.895   8.315   4.626
20092W        W92517   3.523  28.993   1.775
20093W        W92518  23.307   0.814   3.824
20094W        W92519  19.431  32.995   4.871
20095W        W92520  16.058  34.010   0.711
20096W        W92521  10.913  26.875   2.463
20097W        W92522  20.572  23.605   4.618
20098W        W92523  17.746  14.477   1.384
20099W        W92524  44.853   9.753  14.883
20100W        W92525  43.484  37.858   3.717
20101W        W92526  41.348  26.956  11.531
20102W        W92527  20.507  24.890   3.635
20103W        W92528  14.576  14.327  13.365
20104W        W92529   1.067   4.241  13.463
20105W        W92530  13.350  13.684   3.892
20106W        W92531  16.335   1.998  11.388
20107W        W92532  11.756  20.047  10.847
20108W        W92533   8.717  17.039  14.915
20109W        W92534  21.618  32.150   3.472
20110W        W92535   0.409   8.163  11.312
20111W        W92536  38.123  16.724   0.824
20112W        W92537  14.359  10.652   0.429
20113W        W92538  15.597   3.297   2.455
20114W        W92539  32.558   5.882  12.177
20115W        W92540   9.828  35.154   3.889
20116W        W92541  21.038   5.666   1.451
20117W        W92542   1.445  42.638   3.084
20118W        W92543  33.660  20.928  13.556
20119W        W92544  39.045  44.730  10.555
20120W        W92545  43.153  23.247  13.345
20121W        W92546  41.140  41.740  11.559
20122W        W92547  43.363  26.118  13.534
20123W        W92548   9.478   9.178  14.368
20124W        W92549  27.704  10.596  14.754
20125W        W92550   8.325  21.295  13.540
20126W        W92551  15.718  12.900  13.015
20127W        W92552  37.956  23.502   3.601
20128W        W92553   5.157  13.317  12.117
20129W        W92554   8.340  32.679   4.103
20130W        W92555  36.945  34.537  12.992
20131W        W92556  15.625  34.145   2.218
20132W        W92557  43.270  18.234  12.601
20133W        W92558  31.504  41.014  14.367
20134W        W92559  39.322  22.569  12.590
20135W        W92560   0.912   4.932   4.682
20136W        W92561  12.077  20.219  13.534
20137W        W92562  12.791  20.666  14.957
20138W        W92563  33.080   2.972  14.549
20139W        W92564  17.050  15.684  12.385
20140W        W92565  41.099   2.835   3.598
20141W        W92566  30.455  42.273   3.394
20142W        W92567  14.629  43.497   0.498
20143W        W92568  18.621  40.804  10.766
20144W        W92569  43.248  32.578   3.830
20145W        W92570  24.641  42.786   0.886
20146W        W92571   3.983  41.574  11.967
20147W        W92572  28.213   1.818   3.622
20148W        W92573   3.683   4.864  14.827
20149W        W92574  22.470   7.075  14.082
20150W        W92575  33.913  12.072   3.517
20151W        W92576  39.901  42.864  12.143
20152W        W92577  20.956  36.597  13.308
20153W        W92578  10.803  19.980  11.871
20154W        W92579  28.002   9.948   3.965
20155W        W92580  11.243  13.701   4.435
20156W        W92581   0.036  20.640   1.235
20157W        W92582  39.384  19.477  12.475
20158W        W92583  37.943  28.030  10.646
20159W        W92584  27.014  29.736   9.658
20160W        W92585  41.685  31.187  13.404
20161W        W92586  10.907   0.457  11.659
20162W        W92587  34.878  41.266   0.342
20163W        W92588  36.786   9.915  14.834
20164W        W92589  41.818  30.206  13.825
20165W        W92590  23.019  36.524  13.429
20166W        W92591   5.317  41.138   2.876
20167W        W92592  18.216  22.720  11.062
20168W        W92593   1.764   1.053   0.980
20169W        W92594  35.554  21.425   1.981
20170W        W92595  13.645  43.843  14.964
20171W        W92596  42.381  33.280  14.434
20172W        W92597  14.297  41.912   5.164
20173W        W92598  12.655  14.328  11.604
20174W        W92599  17.573  43.792  14.349
20175W        W92600  22.662   0.345   1.129
20176W        W92601  28.170  31.414  11.963
20177W        W92602  31.936   5.350   0.434
20178W        W92603  30.927   5.710  14.860
20179W        W92604  23.679   9.577  11.031
20180W        W92605  29.198  13.282  13.839
20181W        W92606  34.159  18.705   1.123
20182W        W92607  44.417  40.362  13.506
20183W        W92608   9.506  44.681  12.737
20184W        W92609  15.282  25.484  11.981
20185W        W92610  38.854  22.545   3.706
20186W        W92611  12.057  28.664   0.006
20187W        W92612  12.002  16.697   4.638
20188W        W92613  39.569  37.125   1.878
20189W        W92614  10.170   5.872   0.368
20190W        W92615   8.771  16.835   1.810
20191W        W92616  11.862  33.540   3.674
20192W        W92617  15.253  23.169  11.492
20193W        W92618  43.443   6.928   0.422
20194W        W92619   1.349   5.727   3.809
20195W        W92620  17.219  34.156   2.764
20196W        W92621  34.300  32.360  13.535
20197W        W92622  36.891  40.510   1.607
20198W        W92623  15.525  14.666   3.132
20199W        W92624   8.311  21.999   2.804
20200W        W92625  18.111  28.522   2.070
20201W        W92626  41.682  41.231   2.691
20202W        W92627  31.012  11.882  14.906
20203W        W92628  27.151  15.700   2.226
20204W        W92629  34.126  41.851  13.739
20205W        W92630  36.007  32.181  12.514
20206W        W92631   3.391   8.913   0.900
20207W        W92632  10.167  41.262   4.870
20208W        W92633  19.962  28.420  10.475
20209W        W92634  30.249  34.487  14.724
20210W        W92635  21.680   9.646  14.983
20211W        W92636   9.645  43.914   4.543
20212W        W92637  27.716  34.292  14.245
20213W        W92638  10.635  39.701   4.580
20214W        W92639  37.336  33.042   1.747
20215W        W92640  14.165   9.021  14.292
20216W        W92641  16.814  40.954  13.252
20217W        W92642  26.052   9.049  11.104
20218W        W92643  13.332   5.889   0.379
20219W        W92644  14.748  35.873   1.824
20220W        W92645  25.455  38.903   4.432
20221W        W92646  42.576  24.563  12.338
20222W        W92647  16.745  35.153   1.917
20223W        W92648   6.334  19.163   1.509
20224W        W92649  37.202   8.226  14.401
20225W        W92650  29.196  37.709   1.478
20226W        W92651  42.778  20.962   0.278
20227W        W92652  30.058  32.297  11.833
20228W        W92653  37.503  42.568   1.382
20229W        W92654  35.507  15.037  10.831
20230W        W92655  21.508   1.252  14.832
20231W        W92656  12.900   2.945   5.007
20232W        W92657   0.441  38.501   1.903
20233W        W92658   6.494   2.311   3.771
20234W        W92659   4.975   2.420  13.843
20235W        W92660  19.900  31.524  12.921
20236W        W92661  12.150  15.072  14.641
20237W        W92662  11.330  40.960   3.654
20238W        W92663  12.286  34.649   4.357
20239W        W92664  28.755  38.017   1.430
20240W        W92665   1.251  25.775  13.870
20241W        W92666   6.489  21.332   3.617
20242W        W92667  12.587  33.547  10.615
20243W        W92668   2.420  43.798   3.166
20244W        W92669   7.588   1.911   3.140
20245W        W92670  36.595  44.717   3.225
20246W        W92671  33.253  24.743   3.213
20247W        W92672  27.016  39.801   1.228
20248W        W92673  14.547   1.515  10.123
20249W        W92674  13.252  14.609   3.866
20250W        W92675  26.592  39.556   1.402
20251W        W92676   8.691  21.756   0.321
20252W        W92677   9.648   2.723  12.330
20253W        W92678  29.117  23.749  14.870
20254W        W92679  15.819   8.162  11.741
20255W        W92680  26.647  39.616   2.870
20256W        W92681  25.795  24.158   1.746
20257W        W92682   2.893  20.286   4.113
20258W        W92683  13.623  22.358   9.647
20259W        W92684   6.443  30.600   1.763
20260W        W92685   4.946  28.419  13.889
20261W        W92686  31.817  20.135   0.171
20262W        W92687  12.227  35.684   2.991
20263W        W92688   3.643  18.624  14.811
20264W        W92689   9.542  43.885  12.887
20265W        W92690  18.502  30.906  12.404
20266W        W92691  11.302   4.706   0.865
20267W        W92692  13.903  44.999   1.259
20268W        W92693  17.895  20.194   1.473
20269W        W92694  11.828  36.777   4.687
20270W        W92695  42.866  24.742   0.018
20271W        W92696  27.283  36.962  10.599
20272W        W92697  23.712  41.038  12.560
20273W        W92698   6.196   9.683   1.972
20274W        W92699  32.094  18.799   3.177
20275W        W92700  29.390  29.944  12.896
20276W        W92701  32.144  43.181   0.082
20277W        W92702  39.730   2.648  11.217
20278W        W92703  23.715   4.697  10.524
20279W        W92704  40.222   6.729  12.570
20280W        W92705  22.961   6.431   2.306
20281W        W92706  17.749  33.474   0.309
20282W        W92707  34.825  17.053  12.588
20283W        W92708  33.548  44.185   0.545
20284W        W92709  28.712  12.567  14.449
20285W        W92710   7.705  38.397   4.252
20286W        W92711  23.167  21.127   2.385
20287W        W92712  23.793  26.507  13.435
20288W        W92713  13.087  23.128  10.944
20289W        W92714   2.889  23.701  14.320
20290W        W92715   1.935  19.836  11.993
20291W        W92716  19.181  14.651   0.687
20292W        W92717   0.862   4.186  12.639
20293W        W92718  30.015  36.339  14.500
20294W        W92719  41.845   6.447   4.695
20295W        W92720   6.072  44.482  11.395
20296W        W92721   6.727  39.534  11.953
20297W        W92722  31.632  41.038  12.975
20298W        W92723  28.042  17.509  13.565
20299W        W92724  30.548  10.622   4.665
20300W        W92725  41.560  16.368  14.872
20301W        W92726  35.111  13.091   4.157
20302W        W92727  42.045  18.138   1.299
20303W        W92728  29.608  39.063  12.031
20304W        W92729  14.577  35.040   2.485
20305W        W92730  12.686  37.026  11.378
20306W        W92731  26.012  30.507   4.760
20307W        W92732  25.687  18.744   2.042
20308W        W92733  30.216  35.330   4.128
20309W        W92734  43.115  44.951   4.730
20310W        W92735  39.407   8.746   1.243
20311W        W92736  38.277  22.659  13.020
20312W        W92737  38.569  42.013   3.883
20313W        W92738  31.941  15.637  11.584
20314W        W92739  32.498  37.297  12.147
20315W        W92740   3.198  33.039  12.472
20316W        W92741   5.739  21.762   4.863
20317W        W92742  28.964  37.962   2.832
20318W        W92743   3.200   1.819  13.938
20319W        W92744  33.317  16.834   0.892
20320W        W92745  27.451   1.194  14.787
20321W        W92746  19.807  20.679  11.237
20322W        W92747  21.479  19.672  12.401
20323W        W92748  23.263  15.133   4.120
20324W        W92749  32.731   5.908  14.497
20325W        W92750   8.371  36.707   0.758
20326W        W92751   9.220  34.631  14.866
20327W        W92752  10.219   5.029   5.069
20328W        W92753  26.948   3.819  12.139
20329W        W92754  35.071  26.806  13.040
20330W        W92755  24.103  42.489  12.058
20331W        W92756  27.082   3.945   0.411
20332W        W92757  19.290  34.908  11.478
20333W        W92758  41.775   9.365   1.653
20334W        W92759  36.174  21.485   2.814
20335W        W92760  42.497   8.648  10.674
20336W        W92761   7.308  14.147   0.755
20337W        W92762  43.294  37.316   1.326
20338W        W92763  37.893  11.936   4.550
20339W        W92764  14.118  33.438  13.725
20340W        W92765   4.738   1.545   0.569
20341W        W92766  20.328  19.201  14.902
20342W        W92767   3.254  24.172   4.584
20343W        W92768  36.207  35.199   4.060
20344W        W92769  14.666  18.762  11.076
20345W        W92770  17.051   8.133  12.164
20346W        W92771  22.064  40.998   4.176
20347W        W92772  16.869   6.174   3.307
20348W        W92773  25.637  41.568   3.662
20349W        W92774   5.092  13.752  11.531
20350W        W92775   9.228  33.500  14.410
20351W        W92776  29.846   4.406  11.190
20352W        W92777  19.312  40.836   3.257
20353W        W92778  38.868  21.114  12.487
20354W        W92779  28.443   5.582  14.813
20355W        W92780  30.159  21.183   3.248
20356W        W92781  44.296  14.514   2.181
20357W        W92782  14.424  10.944  11.136
20358W        W92783  17.158  15.190  12.532
20359W        W92784  12.916  19.136   3.682
20360W        W92785  11.797  16.547   2.403
20361W        W92786   9.721  44.349  13.094
20362W        W92787   2.913  41.836  12.773
20363W        W92788  33.024  22.743  13.360
20364W        W92789  28.056  27.019   3.292
20365W        W92790   3.165  23.690  13.870
20366W        W92791  29.176  18.880  11.178
20367W        W92792  14.257  35.463  12.371
20368W        W92793  29.902   5.699   0.955
20369W        W92794  19.371   3.236   1.352
20370W        W92795  14.051  15.722   1.694
20371W        W92796   9.506  41.712  13.471
20372W        W92797  37.821  28.940   0.458
20373W        W92798  43.005  32.428   3.259
20374W        W92799  17.652   2.354  11.251
20375W        W92800  39.880  16.306   3.733
20376W        W92801  16.539  19.732   1.453
20377W        W92802  22.940  31.629   1.756
20378W        W92803   6.738  44.932  13.601
20379W        W92804   7.079  21.363   1.348
20380W        W92805  26.606   7.094  12.041
20381W        W92806   6.838  34.902  11.535
20382W        W92807  34.203  11.300   3.231
20383W        W92808  27.259  37.129  12.548
20384W        W92809  28.201  32.857  10.924
20385W        W92810  32.635  32.701  13.423
20386W        W92811   5.053  42.879   3.927
20387W        W92812  19.065  32.169  12.915
20388W        W92813  19.621  31.412  12.511
20389W        W92814  42.555  18.819   4.187
20390W        W92815  37.502  41.121   1.513
20391W        W92816  23.637  11.402   3.108
20392W        W92817  21.793  13.812  14.333
20393W        W92818  21.918  31.035  12.382
20394W        W92819  12.082  38.907  13.488
20395W        W92820  43.425   5.447  13.527
20396W        W92821  14.787  37.016   2.729
20397W        W92822  18.867  29.776  14.794
20398W        W92823  16.327   2.766  14.771
20399W        W92824   3.578  18.047  12.449
20400W        W92825  15.634   0.576   1.469
20401W        W92826  26.566  29.984   5.508
20402W        W92827  43.940  20.351   4.714
20403W        W92828  43.414  25.142   4.591
20404W        W92829  40.375  40.632   0.524
20405W        W92830  32.873   5.586  12.977
20406W        W92831   3.288  37.198   0.726
20407W        W92832  26.138  43.881  11.400
20408W        W92833  41.987  16.655  13.754
20409W        W92834   5.552  26.169   4.471
20410W        W92835  38.418  18.715  10.878
20411W        W92836  28.938  38.988   4.233
20412W        W92837  34.160  15.696   0.049
20413W        W92838  13.628  13.753   4.337
20414W        W92839   0.921  12.670  12.314
20415W        W92840  18.093  10.555  14.963
20416W        W92841  21.101  29.348  11.553
20417W        W92842  22.689  18.786   0.017
20418W        W92843  16.356  16.206   1.389
20419W        W92844  30.982  40.804  14.298
20420W        W92845  41.480  36.818   1.585
20421W        W92846   9.725  28.629  13.749
20422W        W92847  27.642  12.977   0.273
20423W        W92848  18.269   3.719  10.996
20424W        W92849  26.747  32.547   5.425
20425W        W92850  32.058  31.595   1.460
20426W        W92851   5.722  31.045  11.093
20427W        W92852  10.245  41.600  12.454
20428W        W92853  23.087   9.443  14.496
20429W        W92854  25.266  28.397  11.432
20430W        W92855  39.829   4.437  12.547
20431W        W92856  24.119   3.198   3.064
20432W        W92857  14.211  24.925   3.236
20433W        W92858  36.405   7.301  13.974
20434W        W92859  34.498  37.373   4.039
20435W        W92860   9.288   6.681   1.443
20436W        W92861   2.950  39.306   1.167
20437W        W92862   2.413  33.367   5.111
20438W        W92863  23.889   7.413   4.265
20439W        W92864  22.042  44.002  12.487
20440W        W92865  22.469  18.208   3.088
20441W        W92866  44.878  19.342   3.162
20442W        W92867  14.490  23.424   1.232
20443W        W92868  36.075  29.438   3.502
20444W        W92869  34.996  20.552  14.437
20445W        W92870   4.459  23.123  14.226
20446W        W92871  20.141  18.974   4.696
20447W        W92872  22.816  30.566   1.474
20448W        W92873  43.813  33.956   9.587
20449W        W92874   4.252  24.227   1.751
20450W        W92875  34.411  35.549  12.435
20451W        W92876  18.537  18.405  12.914
20452W        W92877  25.238  40.485   2.800
20453W        W92878  36.514  10.633  11.618
20454W        W92879  39.785  10.884  14.062
20455W        W92880   5.283  43.073  10.754
20456W        W92881  43.788  31.164  11.602
20457W        W92882  25.530   8.124   3.241
20458W        W92883  27.144  14.892  13.004
20459W        W92884  13.248  39.913   2.130
20460W        W92885  29.948  38.179  11.980
20461W        W92886  27.950   2.367  10.510
20462W        W92887  13.709   2.127  14.711
20463W        W92888   9.173   8.578   2.323
20464W        W92889  23.196  41.958  10.743
20465W        W92890  31.997  26.209  13.020
20466W        W92891   0.265   0.294   1.323
20467W        W92892  20.238   4.784  12.784
20468W        W92893  30.013  26.587  14.805
20469W        W92894  28.585  29.037  11.918
20470W        W92895  35.957  39.876  11.167
20471W        W92896  34.042   6.032  11.479
20472W        W92897  44.379  16.830  12.495
20473W        W92898  42.498  33.344  10.699
20474W        W92899   9.591   2.903  11.311
20475W        W92900  27.036  31.699  11.633
20476W        W92901  43.888  21.171  11.422
20477W        W92902  44.702  26.693  14.309
20478W        W92903  27.133   2.744   1.184
20479W        W92904   2.094   1.761   2.872
20480W        W92905  25.446  35.096  13.536
20481W        W92906  11.398  25.467   4.581
20482W        W92907  44.988  31.047   4.141
20483W        W92908  38.963  20.248   3.640
20484W        W92909   1.950  44.380  13.073
20485W        W92910  37.927  35.129  13.504
20486W        W92911  16.465  40.139  13.371
20487W        W92912  27.972  39.893   4.094
20488W        W92913  22.514  17.675  14.974
20489W        W92914   3.468  39.314   2.868
20490W        W92915  30.147  32.383   1.722
20491W        W92916  38.586  43.874   3.647
20492W        W92917   5.608  34.879   3.148
20493W        W92918  44.379   8.483  11.626
20494W        W92919   4.759  43.352   0.511
20495W        W92920  36.916   1.246  13.999
20496W        W92921  25.993   8.749  14.978
20497W        W92922   0.930  20.967  14.984
20498W        W92923  43.191  32.011  14.910
20499W        W92924  30.024  44.222  10.703
20500W        W92925  16.753  35.409   9.999
20501W        W92926  34.752  16.917  10.423
20502W        W92927   9.894  37.858   0.871
20503W        W92928  14.833  12.556  11.118
20504W        W92929   5.359  33.007   2.454
20505W        W92930  18.142  20.548  13.482
20506W        W92931  26.785  14.737   2.365
20507W        W92932  36.894  36.798   3.652
20508W        W92933   8.090  34.814  11.098
20509W        W92934  16.879  16.800   2.673
20510W        W92935   2.935  12.147  12.414
20511W        W92936  29.233  24.056  13.851
20512W        W92937  12.339  16.205  10.898
20513W        W92938   8.229  14.477  11.966
20514W        W92939   4.431  40.241   2.841
20515W        W92940   8.932   6.461   4.097
20516W        W92941   8.624  27.585   1.002
20517W        W92942  20.858  41.771   1.103
20518W        W92943  40.936  23.888   3.883
20519W        W92944  15.201   4.314  14.011
20520W        W92945  20.520  23.419   1.237
20521W        W92946  33.509   2.387   3.169
20522W        W92947  39.762  22.989   1.833
20523W        W92948  34.000  22.415  12.868
20524W        W92949   8.700  22.169   4.297
20525W        W92950  41.491   1.314  14.808
20526W        W92951  16.731  14.582   3.749
20527W        W92952  31.418  24.129  10.609
20528W        W92953  13.337  25.567   3.934
20529W        W92954  23.446  13.242   0.724
20530W        W92955   1.866  38.622   2.486
20531W        W92956  43.401  35.655  14.874
20532W        W92957  16.509   0.429  14.856
20533W        W92958  42.418  26.671  11.049
20534W        W92959   6.725  36.634  10.950
20535W        W92960  13.901  27.206  13.004
20536W        W92961  20.568  15.030  13.986
20537W        W92962  26.232  28.553  14.463
20538W        W92963  21.285   9.977  12.580
20539W        W92964  41.911  18.567  11.501
20540W        W92965   9.864  33.593   0.227
20541W        W92966   9.770   9.611   2.009
20542W        W92967  33.142  15.441  10.651
20543W        W92968  14.235  31.741  10.719
20544W        W92969   7.207  14.143  13.069
20545W        W92970  18.632  18.093  11.076
20546W        W92971  25.090   2.975  11.116
20547W        W92972   3.386  36.816  10.736
20548W        W92973  12.784  11.075   4.750
20549W        W92974  22.099  24.731   1.074
20550W        W92975  37.552   7.853  11.427
20551W        W92976   1.215   2.794  11.179
20552W        W92977  18.166  15.460   0.542
20553W        W92978  40.547  27.494  11.771
20554W        W92979  28.000  37.624   3.082
20555W        W92980   9.922   3.737  10.948
20556W        W92981  39.415  37.527  10.963
20557W        W92982  40.506  10.435  13.437
20558W        W92983  38.994  29.746  11.073
20559W        W92984  12.857  28.086   4.325
20560W        W92985  12.481  36.182  11.103
20561W        W92986  39.015   6.719  13.836
20562W        W92987  35.478  26.601  10.680
20563W        W92988  21.557  19.639   2.939
20564W        W92989  19.039   2.529   1.834
20565W        W92990   9.858  13.786  13.275
20566W        W92991  37.879  28.456   0.238
20567W        W92992   8.848  27.085   4.387
20568W        W92993  39.343  37.547   4.324
20569W        W92994  27.649  21.527   5.080
20570W        W92995   8.340  35.368  14.375
20571W        W92996  19.671  23.926  14.349
20572W        W92997  14.500  16.554  13.447
20573W        W92998  13.820   1.324   5.527
20574W        W92999   5.381  21.443   2.229
20575W        W93000  10.664  30.531   4.546
20576W        W93001   8.754   2.755   1.474
20577W        W93002  21.543  43.945   0.485
20578W        W93003   5.923  10.691  11.020
20579W        W93004  36.934  40.501   2.825
20580W        W93005  26.376   1.774   1.453
20581W        W93006   9.090  42.357   4.652
20582W        W93007  17.899  24.046   3.701
20583W        W93008  16.592  35.129   3.733
20584W        W93009  28.904  41.296   5.451
20585W        W93010  24.689  30.037  10.995
20586W        W93011  40.353  29.358  12.047
20587W        W93012  34.971   2.423   0.710
20588W        W93013   5.318  12.778   3.672
20589W        W93014  15.171  23.940  11.094
20590W        W93015   3.177   7.090  12.581
20591W        W93016  16.518  13.395   4.477
20592W        W93017  39.454  21.333  12.011
20593W        W93018   8.407  11.083  11.018
20594W        W93019  24.719  44.020  11.584
20595W        W93020  43.859  35.006   3.193
20596W        W93021  25.070  35.876  11.532
20597W        W93022   6.244  34.408   1.229
20598W        W93023  15.801  12.868  12.107
20599W        W93024  31.375  43.760   0.864
20600W        W93025  35.016  29.470  10.841
20601W        W93026  25.421  26.490   1.090
20602W        W93027  31.641   2.714   2.645
20603W        W93028  31.583  25.144  14.339
20604W        W93029  37.984   7.466  10.635
20605W        W93030  32.491   2.336   2.845
20606W        W93031  25.977  28.660  10.759
20607W        W93032  11.291   5.251   3.758
20608W        W93033  39.842   0.929   3.188
20609W        W93034  14.920   3.711  14.592
20610W        W93035  34.104   5.251  11.092
20611W        W93036   7.187  25.237  10.793
20612W        W93037   7.000  25.124   2.299
20613W        W93038  24.303  19.992  12.028
20614W        W93039  38.028  26.557   1.955
20615W        W93040  32.435   5.762   0.832
20616W        W93041  28.578  40.980  13.720
20617W        W93042  32.818   2.913   4.171
20618W        W93043  23.126  36.942  10.550
20619W        W93044  38.440  14.819   3.010
20620W        W93045  21.061  10.920  10.514
20621W        W93046  41.240   0.379   0.232
20622W        W93047  42.706   2.032   3.782
20623W        W93048  26.125  18.621   2.307
20624W        W93049  29.620  22.491   1.336
20625W        W93050  23.493  10.332  12.750
20626W        W93051   4.246  16.353  14.910
20627W        W93052  37.367  36.417   1.258
20628W        W93053  32.364  40.585   3.703
20629W        W93054  15.879  30.304  14.686
20630W        W93055  36.092   6.889   9.668
20631W        W93056  38.622  25.742   0.404
20632W        W93057  21.674   1.516   0.287
20633W        W93058  13.806   8.311   4.046
20634W        W93059   8.661  35.363  12.008
20635W        W93060  34.347  15.564   3.754
20636W        W93061   1.930   1.460  11.480
20637W        W93062  44.407   6.946  10.692
20638W        W93063   1.319   5.278   4.671
20639W        W93064  27.832  15.603   3.693
20640W        W93065   4.767  19.170   1.930
20641W        W93066   5.780  13.174   0.306
20642W        W93067   9.901  23.450   2.909
20643W        W93068  36.926   3.283   1.817
20644W        W93069  21.205  19.176   1.296
20645W        W93070  32.491   3.772  13.881
20646W        W93071  41.876  28.816   2.688
20647W        W93072   8.657   6.454   1.143
20648W        W93073   9.890   4.127   1.783
20649W        W93074  25.069   3.263  11.546
20650W        W93075  13.673  42.845   3.643
20651W        W93076   9.735  18.752  14.049
20652W        W93077  39.293   3.444  11.271
20653W        W93078  34.161  22.151   1.225
20654W        W93079   8.167  40.890   0.497
20655W        W93080  26.621  15.330  12.159
20656W        W93081   1.960  37.456   1.640
20657W        W93082   9.323   2.528   3.081
20658W        W93083  17.041  41.415   3.133
20659W        W93084  34.901  39.886  10.752
20660W        W93085  17.362  13.091  13.462
20661W        W93086  29.564  18.081   0.894
20662W        W93087  21.167   9.508   4.948
20663W        W93088   4.230  44.782   0.489
20664W        W93089  43.236  17.589  12.099
20665W        W93090  36.869  30.953   2.520
20666W        W93091  23.516  19.157  11.513
20667W        W93092  28.339   8.397  13.907
20668W        W93093  11.810  28.400  12.437
20669W        W93094  17.083   0.722  12.473
20670W        W93095  11.146  36.346   4.193
20671W        W93096  26.275  36.147  13.583
20672W        W93097  36.114   6.113  12.614
20673W        W93098  27.581  11.549  11.126
20674W        W93099  38.903  30.127   9.858
20675W        W93100  23.600  33.503   1.651
20676W        W93101  37.974  34.427  11.390
20677W        W93102  43.716  31.902   2.176
20678W        W93103  12.702  10.894   0.872
20679W        W93104  36.970  29.953   0.405
20680W        W93105  42.260  16.160  11.391
20681W        W93106  18.809  23.253  13.472
20682W        W93107  23.145  19.193   3.608
20683W        W93108  43.012  12.367   1.397
20684W        W93109  20.096  26.894  10.886
20685W        W93110  35.628  28.690   3.729
20686W        W93111  22.631  27.538  10.193
20687W        W93112  44.793   7.129  12.391
20688W        W93113  40.583   3.692   3.752
20689W        W93114  34.142  38.943   1.699
20690W        W93115  16.883  15.104   1.425
20691W        W93116  21.477  22.800   3.363
20692W        W93117  32.886  22.257  13.143
20693W        W93118  21.952  13.441   2.803
20694W        W93119  42.073  11.629  12.501
20695W        W93120  29.825  13.529  12.297
20696W        W93121  14.660  33.944   0.834
20697W        W93122  37.886  11.228   1.189
20698W        W93123  14.305   9.302  12.374
20699W        W93124  13.874  27.975  12.007
20700W        W93125  16.676  33.946  13.400
20701W        W93126   1.438  42.846  13.885
20702W        W93127   3.245   0.870  10.912
20703W        W93128  43.397   7.856  14.361
20704W        W93129   1.689  24.256  11.542
20705W        W93130   1.183  38.803  11.391
20706W        W93131  44.214  32.579   2.856
20707W        W93132  32.054  43.877  13.925
20708W        W93133  17.151  14.108   1.857
20709W        W93134   6.777   1.183  11.526
20710W        W93135   2.376  26.269  12.116
20711W        W93136  42.948   8.449  13.387
20712W        W93137  22.013  29.740   2.143
20713W        W93138   1.274   9.127  14.336
20714W        W93139  21.737  28.483  11.990
20715W        W93140  12.805   5.720   0.464
20716W        W93141   8.603   1.001   3.326
20717W        W93142   9.801   0.200  12.970
20718W        W93143  24.556  24.266   0.407
20719W        W93144  41.410  34.564  12.939
20720W        W93145  43.804  27.510  12.482
20721W        W93146  36.906  12.151   1.682
20722W        W93147   4.018  34.366  14.972
20723W        W93148   8.933  42.253  14.695
20724W        W93149  23.743  14.523   1.193
20725W        W93150  34.820  28.122  13.355
20726W        W93151  25.136  32.445  14.537
20727W        W93152  37.801  36.009  13.484
20728W        W93153  35.129  10.781  10.688
20729W        W93154  22.983  25.490   1.151
20730W        W93155  42.278   4.459  12.404
20731W        W93156  23.449   0.922   1.235
20732W        W93157   8.280  25.769  13.525
20733W        W93158  25.691  12.197  12.639
20734W        W93159  23.457   1.988  10.753
20735W        W93160  43.530   2.940  13.464
20736W        W93161  36.747  15.656  13.981
20737W        W93162  22.123  10.645  10.218
20738W        W93163  13.674  32.072   2.302
20739W        W93164  15.606  26.974  11.091
20740W        W93165  25.552  27.689   1.573
20741W        W93166  44.319  39.940   4.749
20742W        W93167  25.943  24.653   4.919
20743W        W93168  14.227  11.654   0.478
20744W        W93169  11.631  40.378   4.209
20745W        W93170  25.134  34.828   2.931
20746W        W93171  24.074  33.619  12.919
20747W        W93172  28.575  10.468  11.426
20748W        W93173  31.913   4.899  11.627
20749W        W93174  20.938  24.019  11.214
20750W        W93175  25.908  25.076  13.358
20751W        W93176  35.619   4.798   3.313
20752W        W93177  23.987  23.897   4.972
20753W        W93178  34.499  37.275   4.540
20754W        W93179  19.528   9.797   1.455
20755W        W93180  44.318   4.364  12.398
20756W        W93181  16.338  29.363   0.321
20757W        W93182   7.339  15.726  12.055
20758W        W93183   1.620  29.156   1.623
20759W        W93184  26.142  22.032   2.363
20760W        W93185  15.293  29.090  13.613
20761W        W93186  38.899  36.246   4.433
20762W        W93187  34.962  17.538  11.625
20763W        W93188  42.960   9.524   1.471
20764W        W93189  21.110   6.718   2.288
20765W        W93190   1.016  40.086   0.040
20766W        W93191  43.031  20.019   0.358
20767W        W93192  10.550  29.602   1.049
20768W        W93193  21.482  33.402   2.043
20769W        W93194   7.523  15.639  13.829
20770W        W93195  27.974  20.994   3.715
20771W        W93196  22.450  18.162  14.865
20772W        W93197  30.525  37.573  10.609
20773W        W93198  38.802   8.171  11.419
20774W        W93199  27.709  13.320   2.365
20775W        W93200  25.680  24.289  11.547
20776W        W93201  34.596  18.040  12.483
20777W        W93202  25.936  10.372  14.778
20778W        W93203  15.811   9.283  10.898
20779W        W93204   8.807  32.790  12.606
20780W        W93205  20.213  11.613  13.919
20781W        W93206  31.491  29.272   4.936
20782W        W93207  32.424  11.738   0.021
20783W        W93208  18.263  15.637   1.508
20784W        W93209   2.470  41.407   3.767
20785W        W93210  19.487   1.885  14.112
20786W        W93211  19.220  39.344   0.374
20787W        W93212   4.310   6.451   3.176
20788W        W93213  17.131   9.113   3.657
20789W        W93214   8.292  25.224   0.744
20790W        W93215  29.117   4.118   4.076
20791W        W93216   1.422  19.072  12.049
20792W        W93217  13.304  32.067  14.048
20793W        W93218   8.836  24.846  14.701
20794W        W93219   4.818   4.965   4.542
20795W        W93220  42.631  35.547   2.782
20796W        W93221  37.504   8.602   5.011
20797W        W93222   7.865  11.676  13.655
20798W        W93223  18.856  36.684  13.694
20799W        W93224  17.338  28.112   1.845
20800W        W93225  29.652  30.966   4.154
20801W        W93226   7.421   3.350   3.441
20802W        W93227   7.281  29.475  10.700
20803W        W93228   1.301   1.044   1.805
20804W        W93229  43.863  44.223   1.319
20805W        W93230   5.241  34.162  10.672
20806W        W93231  18.498  43.996   3.778
20807W        W93232  23.415  14.654   4.358
20808W        W93233   2.955  16.063   0.338
20809W        W93234   9.018   0.940   5.001
20810W        W93235  21.571  27.423   3.450
20811W        W93236  43.950  28.329  13.359
20812W        W93237   4.247  23.174   4.600
20813W        W93238  20.188  28.181  13.304
20814W        W93239   1.401  18.513  14.462
20815W        W93240   7.621  34.845  14.594
20816W        W93241  40.232   0.960  12.450
20817W        W93242  37.009  33.509  13.982
20818W        W93243  36.372  37.004  14.286
20819W        W93244  24.942  11.503  12.079
20820W        W93245  31.439  21.267   0.625
20821W        W93246   2.924  42.357  12.719
20822W        W93247   9.315   1.901   4.150
20823W        W93248  34.084   5.257  12.591
20824W        W93249  17.147  13.736  10.160
20825W        W93250  35.950  22.024  11.340
20826W        W93251  32.872  41.807   3.971
20827W        W93252  36.437  28.278   2.262
20828W        W93253  30.341  26.409  13.975
20829W        W93254  29.124  13.293  14.906
20830W        W93255  26.747  28.053  13.023
20831W        W93256  10.350   7.600   3.978
20832W        W93257  34.322  39.454  12.751
20833W        W93258  30.473  30.262   1.174
20834W        W93259  23.735  18.020   1.430
20835W        W93260  33.354  22.632  11.265
20836W        W93261  14.799  32.339   1.866
20837W        W93262  36.602  18.644   3.366
20838W        W93263   9.775  25.644  14.829
20839W        W93264  43.414  24.020   1.909
20840W        W93265  43.002  34.932   2.872
20841W        W93266  24.697  39.322  13.091
20842W        W93267  42.236   8.880   2.602
20843W        W93268  36.844  32.104  12.574
20844W        W93269  21.008  21.092  12.170
20845W        W93270  20.582   3.325  13.920
20846W        W93271  44.558  16.668   3.667
20847W        W93272  11.705  14.798   3.742
20848W        W93273   6.171  13.295  12.029
20849W        W93274  26.459  24.093   2.729
20850W        W93275  38.086   8.854   3.723
20851W        W93276  42.397  39.346   0.297
20852W        W93277  39.004  13.830  12.384
20853W        W93278  26.467  33.094   2.773
20854W        W93279  19.013   8.187  13.328
20855W        W93280   9.413  42.478   2.782
20856W        W93281   4.000   1.016   4.175
20857W        W93282   9.714  40.711  14.498
20858W        W93283  30.662  18.175  12.266
20859W        W93284  23.531  30.442  14.328
20860W        W93285  33.069  13.469  14.389
20861W        W93286  37.969   5.455  14.958
20862W        W93287   9.634  43.519  14.846
20863W        W93288   2.643   4.402  13.247
20864W        W93289  32.097  21.864   4.259
20865W        W93290  18.602  23.458  10.502
20866W        W93291   5.687  27.610   1.112
20867W        W93292  25.511  44.432  10.725
20868W        W93293  18.833  29.578  11.011
20869W        W93294  23.020  38.655   4.160
20870W        W93295  38.134   6.719   3.213
20871W        W93296  17.982   0.199  10.973
20872W        W93297  28.549   7.180   4.584
20873W        W93298  18.308   4.929  14.260
20874W        W93299  44.914  16.298   4.444
20875W        W93300  35.079   7.860   0.738
20876W        W93301  22.310  39.021   2.862
20877W        W93302  31.018  32.218   1.746
20878W        W93303  41.917  31.274  11.153
20879W        W93304  12.727  12.689   1.388
20880W        W93305   3.805   7.756   4.400
20881W        W93306   6.851  38.519   4.636
20882W        W93307   3.996  43.845  13.960
20883W        W93308  40.763  16.958  13.692
20884W        W93309   3.046  29.892  11.119
20885W        W93310   1.019   9.360   4.655
20886W        W93311  25.997  18.750   0.352
20887W        W93312  15.821  44.409   0.648
20888W        W93313  18.233   3.049  13.407
20889W        W93314   0.089  31.374   3.747
20890W        W93315  16.707  31.483  14.734
20891W        W93316  40.423  23.204  11.557
20892W        W93317   6.616   8.715  13.499
20893W        W93318  33.413  10.380   5.412
20894W        W93319   5.833  44.907  14.862
20895W        W93320  35.518  23.932  13.130
20896W        W93321  25.794  30.520  10.564
20897W        W93322  20.643  31.199  13.921
20898W        W93323  18.136  20.956   0.758
20899W        W93324  27.477  20.833  12.032
20900W        W93325  31.486  27.737  11.458
20901W        W93326  40.572  22.283   1.820
20902W        W93327  36.537   7.785   4.591
20903W        W93328   8.256  13.785   4.344
20904W        W93329  13.880  18.829  14.396
20905W        W93330   3.167   8.269  14.066
20906W        W93331   1.875  44.299  12.121
20907W        W93332  15.050  10.950   0.945
20908W        W93333  34.750  39.410   4.900
20909W        W93334  11.881   8.474   0.673
20910W        W93335   3.285  41.363  11.654
20911W        W93336   0.081  26.230   1.254
20912W        W93337   6.708  26.014  14.571
20913W        W93338  20.712  35.329  11.924
20914W        W93339  37.798  27.882   1.510
20915W        W93340  29.545  13.357  12.946
20916W        W93341  22.557   0.744   5.077
20917W        W93342  25.030  44.273   0.983
20918W        W93343   7.828  42.207   4.387
20919W        W93344  43.048  12.727   4.660
20920W        W93345  36.069  25.486   0.412
20921W        W93346  21.767  28.571  12.844
20922W        W93347  34.612  10.895  12.279
20923W        W93348   6.635  10.329  11.097
20924W        W93349  37.144  41.238  14.872
20925W        W93350   9.298  38.077  14.810
20926W        W93351  24.113  16.084   0.289
20927W        W93352   0.193   8.725  13.442
20928W        W93353  22.597  21.426  14.675
20929W        W93354  16.174  39.955   1.515
20930W        W93355  24.744  43.905  10.762
20931W        W93356  13.055  27.640   4.555
20932W        W93357  24.682   7.199  14.834
20933W        W93358  28.061  42.717   0.729
20934W        W93359  11.327  17.327  12.577
20935W        W93360  27.402  25.002   4.277
20936W        W93361   6.388  16.425   4.575
20937W        W93362   7.717  21.752  11.190
20938W        W93363   0.534  39.379   3.754
20939W        W93364   0.513   6.576   0.550
20940W        W93365   0.018  17.452   4.240
20941W        W93366  42.053  36.484   0.871
20942W        W93367  23.204  33.137   0.425
20943W        W93368  21.740  19.299   4.849
20944W        W93369   6.247  29.583  13.497
20945W        W93370  31.609   4.256   4.475
20946W        W93371  42.287   9.351   3.280
20947W        W93372   2.878  24.186   1.809
20948W        W93373   7.454   9.600   3.994
20949W        W93374   4.584   2.865  12.996
20950W        W93375   7.169  26.591  14.954
20951W        W93376   8.550  22.230   2.379
20952W        W93377  12.026  32.073   4.583
20953W        W93378  36.404  39.505  14.684
20954W        W93379  30.141  26.448   1.341
20955W        W93380  38.541   8.927  12.510
20956W        W93381  15.831  43.010   2.681
20957W        W93382  26.726  36.877  14.428
20958W        W93383  18.336  10.081  14.930
20959W        W93384  29.523  39.497  12.280
20960W        W93385  12.873  13.253   2.273
20961W        W93386  37.867  29.602   2.477
20962W        W93387   0.674  11.334  12.179
20963W        W93388  43.983  29.374   4.174
20964W        W93389  44.969  14.577  13.589
20965W        W93390  36.554  15.226  13.713
20966W        W93391  31.954  29.899   0.799
20967W        W93392  44.115  26.532   1.683
20968W        W93393  22.143   3.758   1.205
20969W        W93394   6.953  14.754   0.762
20970W        W93395  23.155  43.242  13.580
20971W        W93396   4.196  42.440   1.432
20972W        W93397  42.936  12.179  11.547
20973W        W93398   8.855  31.922   1.934
20974W        W93399  16.757   0.327  12.549
20975W        W93400  18.801  17.868   1.743
20976W        W93401  35.778  13.225   2.877
20977W        W93402  39.468  27.175  10.630
20978W        W93403  21.572   1.778  14.852
20979W        W93404  13.015  26.970   3.270
20980W        W93405   6.877   2.498  13.974
20981W        W93406  36.996   6.636   5.664
20982W        W93407  13.700  19.486   1.963
20983W        W93408  34.045  42.518   3.127
20984W        W93409  20.698  23.274   4.040
20985W        W93410  31.061  17.029  11.096
20986W        W93411  41.247  34.139   4.220
20987W        W93412   8.365  22.015  11.220
20988W        W93413  39.950  23.918   1.555
20989W        W93414  17.166  40.103   0.361
20990W        W93415  18.281  28.511   3.573
20991W        W93416  14.365  30.599   3.706
20992W        W93417  30.992   9.345  12.158
20993W        W93418  29.349  36.071  11.489
20994W        W93419   8.126  16.741  13.753
20995W        W93420  26.016   0.828  11.165
20996W        W93421  25.167  18.018  11.677
20997W        W93422  36.488  32.861  11.012
20998W        W93423  22.340   3.992  10.761
20999W        W93424  14.304  22.877  11.599
21000W        W93425  21.548  21.742   3.368
21001W        W93426  13.043  17.106  12.555
21002W        W93427  10.614  44.489   0.324
21003W        W93428   9.272   8.863   1.838
21004W        W93429   7.399  25.159  11.259
21005W        W93430  32.038  12.814  12.456
21006W        W93431  19.614  14.568   2.349
21007W        W93432  16.087   5.429   2.787
21008W        W93433   1.229  31.807  12.077
21009W        W93434   5.489  37.729  12.507
21010W        W93435  14.020  22.646  14.454
21011W        W93436  21.993  15.592   0.836
21012W        W93437  33.749  12.795  11.154
21013W        W93438  27.645  36.618  10.432
21014W        W93439  33.518  38.004  10.518
21015W        W93440  21.686  28.418   4.730
21016W        W93441  36.574  37.377  12.978
21017W        W93442   1.330   6.170  14.522
21018W        W93443  31.971  18.117   0.277
21019W        W93444   9.416  25.892   2.135
21020W        W93445  31.645  44.864   3.689
21021W        W93446  10.641  29.758   4.270
21022W        W93447   0.838  44.735   1.960
21023W        W93448  32.264  13.694  11.962
21024W        W93449  23.991  37.426  12.961
21025W        W93450  26.449  19.020  10.605
21026W        W93451  17.993  38.497  12.805
21027W        W93452   8.264  42.500   3.587
21028W        W93453  37.071  32.329  13.508
21029W        W93454  35.926   4.457   3.601
21030W        W93455  33.689   8.265  10.610
21031W        W93456  41.481  30.383   2.016
21032W        W93457  33.902  26.429   3.969
21033W        W93458  10.555   3.744   2.914
21034W        W93459  16.718  33.638   3.677
21035W        W93460   1.790   4.403  12.581
21036W        W93461  39.873   2.905  11.640
21037W        W93462   9.123   3.222  11.048
21038W        W93463   0.749  12.262  12.005
21039W        W93464  27.458  32.554  13.433
21040W        W93465  40.908  12.077  11.083
21041W        W93466  38.825  29.440   2.622
21042W        W93467   8.419  26.539   2.326
21043W        W93468  25.546  34.172  10.730
21044W        W93469   3.771  29.520   3.879
21045W        W93470  37.542  33.597  12.581
21046W        W93471  27.691  31.535  12.935
21047W        W93472  36.408  16.296   3.269
21048W        W93473  33.533  39.032  13.354
21049W        W93474   2.268  12.778  13.790
21050W        W93475   0.246  30.717   2.336
21051W        W93476  36.620  39.244  10.766
21052W        W93477  10.331  37.300  13.374
21053W        W93478  41.481  12.765  11.041
21054W        W93479   5.871  11.395   0.877
21055W        W93480  24.172  25.431  14.027
21056W        W93481  24.540  40.864   2.574
21057W        W93482   4.944  41.424   3.152
21058W        W93483  39.397  32.650   3.195
21059W        W93484   0.963   5.211  13.905
21060W        W93485  14.117  44.259   4.124
21061W        W93486   1.297  28.146  12.329
21062W        W93487  30.574   7.345   0.889
21063W        W93488  19.540   1.035   4.589
21064W        W93489  29.188  40.971   3.712
21065W        W93490  25.236   0.897   3.295
21066W        W93491  21.681   8.299   2.783
21067W        W93492   6.061  26.255   4.513
21068W        W93493  26.053  34.934   4.227
21069W        W93494  17.728  36.301   2.154
21070W        W93495  16.643  27.172   1.735
21071W        W93496   1.151  23.516  11.473
21072W        W93497  11.556  22.045   4.221
21073W        W93498  35.751  18.054   1.327
21074W        W93499  43.967  28.441  14.425
21075W        W93500  42.319  40.698  12.848
21076W        W93501  32.381  15.067   2.122
21077W        W93502  28.634  23.922  14.823
21078W        W93503   7.166  40.469  14.005
21079W        W93504   6.932   1.425  11.957
21080W        W93505  33.457  22.185  13.951
21081W        W93506  20.489  20.583  13.339
21082W        W93507  18.606  39.564   3.315
21083W        W93508  21.728  19.230   1.769
21084W        W93509   6.781  23.471   2.129
21085W        W93510   1.151  39.852  13.779
21086W        W93511   1.236  17.181   1.393
21087W        W93512  37.445  32.760   3.961
21088W        W93513   9.728  10.683  11.929
21089W        W93514  27.650  18.597   4.578
21090W        W93515   8.622  37.466   1.249
21091W        W93516  19.290  26.137   2.540
21092W        W93517  30.415  11.133  10.566
21093W        W93518  11.697  13.308  14.742
21094W        W93519   4.664  27.029  11.828
21095W        W93520  37.424  22.269   3.433
21096W        W93521  33.156  33.542  11.604
21097W        W93522  24.658   9.767   2.229
21098W        W93523  41.080   5.125  11.478
21099W        W93524  42.429  31.196  12.445
21100W        W93525  39.982  13.424   4.583
21101W        W93526  16.495  37.345   4.611
21102W        W93527   4.955   3.616  13.739
21103W        W93528  39.472  38.841  13.358
21104W        W93529  37.740  15.669  14.331
21105W        W93530   2.577  44.814  12.043
21106W        W93531  42.840   4.308  10.273
21107W        W93532   2.939   2.286   2.809
21108W        W93533  26.915  35.365   3.928
21109W        W93534   9.401  21.006   4.236
21110W        W93535  38.028  22.956   3.544
21111W        W93536  26.869  20.515  13.274
21112W        W93537   6.645  13.082   4.633
21113W        W93538  18.060  36.392   0.349
21114W        W93539   0.049   5.328  12.567
21115W        W93540  23.189  13.673  12.080
21116W        W93541  14.755   5.807  13.926
21117W        W93542  16.331  24.458   0.846
21118W        W93543  10.625  21.456  12.034
21119W        W93544  16.700  19.738   2.840
21120W        W93545  31.521  30.626  13.876
21121W        W93546  15.577  22.190   4.576
21122W        W93547   4.924  41.565   4.693
21123W        W93548  13.796  24.938   2.914
21124W        W93549  32.951  26.757   2.474
21125W        W93550  10.205  36.444  11.871
21126W        W93551   7.433  13.267   4.187
21127W        W93552  20.716  14.199  13.488
21128W        W93553  30.875   6.920   3.658
21129W        W93554   0.445   6.063   4.591
21130W        W93555   0.961  23.497  10.457
21131W        W93556  23.846  18.239   3.552
21132W        W93557  32.120  32.518  10.686
21133W        W93558  24.621  11.220   1.872
21134W        W93559  37.847  19.282   3.222
21135W        W93560  33.526  26.416  12.507
21136W        W93561  24.585  29.195   0.967
21137W        W93562  32.114   8.792   3.658
21138W        W93563  14.407  39.504   4.568
21139W        W93564   3.093  29.079   0.523
21140W        W93565   2.527  40.802  12.915
21141W        W93566   7.631  31.494  12.589
21142W        W93567  42.533   9.268  11.749
21143W        W93568  31.150  33.113   2.344
21144W        W93569  17.913   6.693   2.628
21145W        W93570  12.134  15.422  12.545
21146W        W93571  26.674   3.397  12.132
21147W        W93572  28.573  40.097  12.062
21148W        W93573  42.256  43.767   4.635
21149W        W93574  10.661  22.580  10.687
21150W        W93575  43.684  29.666  13.379
21151W        W93576  22.131  37.170   4.751
21152W        W93577  20.740   7.309  14.307
21153W        W93578   6.227   8.726  14.304
21154W        W93579   8.926  21.324   0.477
21155W        W93580  26.065  24.925   4.450
21156W        W93581  29.435  24.680  10.131
21157W        W93582  22.607  34.381  13.400
21158W        W93583   0.693  38.350   2.354
21159W        W93584  27.150   1.159  13.295
21160W        W93585  17.088  19.986  13.776
21161W        W93586  31.471  17.907   2.167
21162W        W93587  16.284  35.061  10.663
21163W        W93588   0.094  19.873   1.842
21164W        W93589  23.206  24.311   1.712
21165W        W93590   6.899   4.905   1.667
21166W        W93591  44.924  38.846  10.846
21167W        W93592  14.795  43.219   4.833
21168W        W93593  36.128   8.568   1.448
21169W        W93594  24.205   4.581  13.986
21170W        W93595  41.354  12.253   4.128
21171W        W93596  31.515  18.834  14.079
21172W        W93597   0.814  41.860  12.850
21173W        W93598  21.567   7.168   4.824
21174W        W93599  16.920  30.990   4.370
21175W        W93600  20.737  25.151   3.166
21176W        W93601  38.548  28.658  11.651
21177W        W93602   8.730  36.218  14.203
21178W        W93603  38.855  16.555  13.635
21179W        W93604  31.520  32.130  14.473
21180W        W93605  36.563  24.705   2.192
21181W        W93606  33.884  13.779   0.887
21182W        W93607  34.817  44.922  13.057
21183W        W93608  20.146  36.521   0.834
21184W        W93609   9.134  13.079  12.934
21185W        W93610  29.080  34.549   1.738
21186W        W93611  12.968  32.556   1.439
21187W        W93612  23.124   9.325   0.923
21188W        W93613  20.246  24.998   3.203
21189W        W93614  15.523  25.211  13.890
21190W        W93615   4.822  36.951  11.209
21191W        W93616   0.001  39.096   0.589
21192W        W93617  20.940   1.335   1.916
21193W        W93618   5.762  35.101  12.115
21194W        W93619   1.749  28.387   2.218
21195W        W93620  26.141   5.844  12.811
21196W        W93621  29.881  17.322  13.985
21197W        W93622   2.416  42.963   1.904
21198W        W93623   3.181  25.641   4.249
21199W        W93624  20.572  38.787  12.387
21200W        W93625   7.486  40.050  13.989
21201W        W93626  28.474  18.500  10.703
21202W        W93627   5.883   9.077  12.431
21203W        W93628  20.213   9.594  12.205
21204W        W93629  22.943  36.414  14.573
21205W        W93630   7.840  15.761  14.698
21206W        W93631   9.284  41.549  11.585
21207W        W93632  21.289  43.789   2.666
21208W        W93633  43.496  30.394   4.007
21209W        W93634  34.916  35.624   1.476
21210W        W93635  14.123  42.376   1.056
21211W        W93636  27.216  40.510  12.481
21212W        W93637  32.729  25.076  10.637
21213W        W93638  10.811  31.710  12.831
21214W        W93639  30.858  16.012   3.076
21215W        W93640  22.020  32.077   0.882
21216W        W93641  13.131  15.751   0.259
21217W        W93642  30.893  39.614   3.172
21218W        W93643   4.679  15.623  10.600
21219W        W93644   3.726   8.034   3.326
21220W        W93645  27.555  26.273  12.990
21221W        W93646  31.615   9.162  12.968
21222W        W93647  26.766   1.465  13.485
21223W        W93648   8.945  25.214   1.759
21224W        W93649  10.884  30.106  12.524
21225W        W93650   1.287  42.838  11.777
21226W        W93651  10.143  11.172  13.012
21227W        W93652  28.076  28.061  12.939
21228W        W93653  34.002  13.875  10.631
21229W        W93654  25.519  32.050   3.276
21230W        W93655   8.876   3.266   4.206
21231W        W93656   0.687  42.288  13.983
21232W        W93657   7.909  19.349  11.994
21233W        W93658   0.706  10.453   1.852
21234W        W93659   8.480  22.426  11.508
21235W        W93660  27.806  12.301   0.954
21236W        W93661  10.650   0.053   1.737
21237W        W93662  16.823  34.003   5.052
21238W        W93663  33.292  43.435   2.407
21239W        W93664  33.581  32.591  12.501
21240W        W93665   3.221  23.062  13.313
21241W        W93666  35.017   0.778  11.001
21242W        W93667  30.094  41.598   5.222
21243W        W93668  32.468  16.006   0.240
21244W        W93669   5.717  42.221   2.210
21245W        W93670   5.807  43.827  14.458
21246W        W93671   9.677  30.969  14.967
21247W        W93672  34.319  19.572   3.194
21248W        W93673  37.134   1.367  11.563
21249W        W93674  27.142   9.304   4.339
21250W        W93675  39.984   0.422  11.635
21251W        W93676  36.415  37.497  14.441
21252W        W93677  42.871   2.283   3.367
21253W        W93678  13.170  15.573   1.252
21254W        W93679   5.003  21.314  11.538
21255W        W93680  38.832  32.775   3.226
21256W        W93681  31.797  38.454   0.856
21257W        W93682  38.464  35.420  12.436
21258W        W93683   5.254  24.022  12.438
21259W        W93684   2.209  29.988   4.065
21260W        W93685  44.282  22.787   3.104
21261W        W93686  35.907   3.337  14.476
21262W        W93687  15.230  38.632   2.241
21263W        W93688  19.356  37.814   0.186
21264W        W93689   7.386  42.936  14.718
21265W        W93690  40.095   2.309  13.344
21266W        W93691   9.206  32.505  13.514
21267W        W93692   3.804  23.754  14.448
21268W        W93693   3.448  10.222  12.641
21269W        W93694  41.264  31.482   0.985
21270W        W93695  26.939   9.149  14.027
21271W        W93696   4.491  13.889   2.757
21272W        W93697   6.185  43.263  13.785
21273W        W93698   9.687  41.088   4.949
21274W        W93699   4.523  36.003  10.835
21275W        W93700  24.491  39.464   3.735
21276W        W93701  15.736  32.129  12.060
21277W        W93702   3.916  27.675   0.313
21278W        W93703  28.976  29.017   2.626
21279W        W93704  35.977  15.511   1.191
21280W        W93705   0.345  40.238   2.750
21281W        W93706  30.572   1.027   3.516
21282W        W93707  12.260  33.010   2.759
21283W        W93708   8.955  36.042  11.496
21284W        W93709  21.890  38.541  13.836
21285W        W93710  20.144  14.716  13.054
21286W        W93711  29.505  40.339   0.885
21287W        W93712   8.326  29.348   1.830
21288W        W93713   6.277  24.700   4.927
21289W        W93714  15.074  22.051   3.672
21290W        W93715  13.233  36.929   3.338
21291W        W93716  29.281  38.697   4.639
21292W        W93717  38.511  11.215  12.504
21293W        W93718   6.827  11.903  14.903
21294W        W93719   2.871  43.358  12.462
21295W        W93720   8.135  21.601   1.792
21296W        W93721  36.608  17.193   1.247
21297W        W93722  36.057  19.204  11.722
21298W        W93723  18.995  31.989   3.008
21299W        W93724  44.987  17.094   3.438
21300W        W93725   4.579   0.366  13.026
21301W        W93726  38.779  38.845  11.084
21302W        W93727   4.452  24.685  13.505
21303W        W93728  12.412   5.307   4.445
21304W        W93729   8.655  16.601  12.560
21305W        W93730  12.598  13.552  10.493
21306W        W93731  17.583  13.695   2.291
21307W        W93732  32.902  23.957   1.789
21308W        W93733   2.771   4.751  14.900
21309W        W93734  23.101  37.966  14.862
21310W        W93735  18.663   2.170  11.491
21311W        W93736   8.231  42.147  11.415
21312W        W93737  43.338  42.950   2.038
21313W        W93738  35.871   7.778   0.717
21314W        W93739  37.038  18.192  14.777
21315W        W93740   9.306  32.208   4.792
21316W        W93741   8.643  37.045  14.794
21317W        W93742  35.675   5.711  14.581
21318W        W93743  44.306  21.589  14.993
21319W        W93744  18.538  38.017  12.445
21320W        W93745  40.883  37.262  11.274
21321W        W93746   5.220  12.344  11.516
21322W        W93747  13.781  28.181  13.787
21323W        W93748   8.454   5.867  13.625
21324W        W93749   6.942  14.557  10.680
21325W        W93750  14.758  44.343   1.898
21326W        W93751   6.033   8.433  13.064
21327W        W93752  44.134  33.901  12.667
21328W        W93753  21.603  18.531  14.232
21329W        W93754  21.100  12.814  12.787
21330W        W93755  22.007  15.748  14.074
21331W        W93756  34.893  29.139  12.670
21332W        W93757   8.989   5.356  12.430
21333W        W93758  41.435   8.127   3.723
21334W        W93759  37.920  34.287   2.265
21335W        W93760  41.574  27.935  14.040
21336W        W93761  17.432  21.208   1.192
21337W        W93762  30.393  43.396   4.231
21338W        W93763  18.937   8.487  10.239
21339W        W93764   3.734  23.045   3.240
21340W        W93765  23.677  42.482  13.453
21341W        W93766   6.195   0.265   4.118
21342W        W93767  41.358   4.435  10.707
21343W        W93768   7.836  20.561  12.613
21344W        W93769  19.641  18.042  11.911
21345W        W93770  19.050  15.206  11.537
21346W        W93771  27.499  12.798   3.593
21347W        W93772  41.796  19.429  12.997
21348W        W93773  39.116  13.582   1.176
21349W        W93774  26.761  20.615  14.598
21350W        W93775  10.332  30.529   1.830
21351W        W93776  14.161   7.556   1.863
21352W        W93777  18.341  34.640   2.770
21353W        W93778   3.288  11.734  12.561
21354W        W93779  22.034  32.172   0.002
21355W        W93780   2.125   2.805   1.345
21356W        W93781  28.585  10.171   4.599
21357W        W93782  36.571  42.439  10.557
21358W        W93783   4.144  37.603   2.155
21359W        W93784  32.307  25.915   4.390
21360W        W93785  35.498  36.190  11.822
21361W        W93786  21.556  31.505   0.431
21362W        W93787  35.639  28.190  14.290
21363W        W93788  31.021  39.970   0.003
21364W        W93789   4.855  36.981  11.716
21365W        W93790   5.477   1.022   4.066
21366W        W93791   1.713  11.242  10.649
21367W        W93792  30.352  12.661   0.906
21368W        W93793  39.941  37.974   1.147
21369W        W93794  28.002  29.914   3.373
21370W        W93795  38.907  30.794  11.294
21371W        W93796   6.685  33.011   1.226
21372W        W93797  44.904   0.573  10.662
21373W        W93798  39.541  19.949   4.135
21374W        W93799   0.415  22.053   1.811
21375W        W93800  21.129  32.071   3.334
21376W        W93801  33.371   0.831   1.978
21377W        W93802  22.892  33.662   5.176
21378W        W93803  36.093   7.781  14.810
21379W        W93804  40.186  38.392  13.240
21380W        W93805  38.912  28.709   4.665
21381W        W93806  34.148  40.023   1.801
21382W        W93807  18.206  11.855  14.605
21383W        W93808  20.128  33.877   1.333
21384W        W93809  27.660   2.312  11.222
21385W        W93810  36.052   5.444  13.870
21386W        W93811  16.973   0.316   3.231
21387W        W93812  44.993  32.531   0.965
21388W        W93813  14.418  40.883  13.846
21389W        W93814  14.351  21.122   0.472
21390W        W93815  32.105   7.922   0.023
21391W        W93816  16.657  23.209  14.052
21392W        W93817  26.960  40.576  11.969
21393W        W93818  34.701  22.787  11.142
21394W        W93819  13.232  33.648  10.621
21395W        W93820  31.318   6.792   0.482
21396W        W93821  35.441   1.006   3.544
21397W        W93822  28.532  17.480  13.858
21398W        W93823  27.742  26.430   3.638
21399W        W93824   9.380  42.880  14.825
21400W        W93825   8.192  11.327  12.875
21401W        W93826  10.285   1.757   1.698
21402W        W93827  13.329  37.337   4.112
21403W        W93828   0.521  43.097   2.916
21404W        W93829  32.017   6.786  10.715
21405W        W93830   0.974  42.809   2.914
21406W        W93831  27.570  36.043  11.215
21407W        W93832  12.069   0.018  12.922
21408W        W93833  44.942  16.992   2.412
21409W        W93834  44.220  13.864   0.843
21410W        W93835  43.043  26.941   3.862
21411W        W93836   7.533  10.848   4.219
21412W        W93837  19.235  17.566   1.739
21413W        W93838  22.744  20.055  11.566
21414W        W93839   0.580  13.736  13.434
21415W        W93840  12.323  27.036  10.600
21416W        W93841  31.154   8.206  11.520
21417W        W93842  22.606  24.235   0.772
21418W        W93843  35.312  14.350  12.703
21419W        W93844   0.748  24.636   2.321
21420W        W93845  22.050  44.728   4.456
21421W        W93846  16.560  32.497  10.591
21422W        W93847  23.590  36.625   3.964
21423W        W93848  40.921   4.263   1.565
21424W        W93849  14.766  40.593   0.781
21425W        W93850  20.216  32.210   4.159
21426W        W93851  36.721  24.477   2.621
21427W        W93852   6.307  33.901   1.427
21428W        W93853  41.468   8.231   2.319
21429W        W93854  33.374   9.857  13.984
21430W        W93855  26.311  29.701   5.140
21431W        W93856   9.408  21.809   3.317
21432W        W93857  35.604  14.572   2.911
21433W        W93858   5.826  30.203   4.899
21434W        W93859   4.800  21.635   4.495
21435W        W93860  41.032  22.062  10.685
21436W        W93861  12.113  28.209   3.642
21437W        W93862  24.137  37.018   3.648
21438W        W93863   7.341  13.168   0.835
21439W        W93864   6.361   6.612   2.458
21440W        W93865  10.782  11.075   0.257
21441W        W93866   4.341  18.613   3.374
21442W        W93867  36.511  16.033  11.410
21443W        W93868  40.755  44.397  11.834
21444W        W93869  18.162  18.063  11.964
21445W        W93870   7.825  30.583   1.804
21446W        W93871  25.909   2.987  11.094
21447W        W93872  23.763  26.994   4.177
21448W        W93873   8.871  25.427  13.992
21449W        W93874  22.914  40.006  11.226
21450W        W93875   4.837  28.120   2.787
21451W        W93876  37.792  10.383   0.966
21452W        W93877  26.208  34.115  13.260
21453W        W93878   1.743  42.062  11.308
21454W        W93879   9.231  40.472   4.697
21455W        W93880  18.909  11.029   1.960
21456W        W93881  38.829  14.860   4.691
21457W        W93882  15.332  39.153   1.333
21458W        W93883   7.274   3.919   3.671
21459W        W93884  34.888   2.295   3.434
21460W        W93885  28.627  36.551   3.577
21461W        W93886  32.956   5.782  11.862
21462W        W93887  12.077  10.277   2.796
21463W        W93888  39.245  15.666   3.609
21464W        W93889  39.792   2.813  12.516
21465W        W93890  42.111  25.118  14.537
21466W        W93891  40.999   6.702  13.071
21467W        W93892  30.528  24.488   0.701
21468W        W93893   2.536   7.809   3.623
21469W        W93894  32.285   0.279  11.372
21470W        W93895  39.493  10.360   2.198
21471W        W93896  32.654   7.752  13.739
21472W        W93897  26.022  27.411   0.470
21473W        W93898   5.132  41.290  10.697
21474W        W93899  18.072  35.185  13.010
21475W        W93900  39.546  27.079  13.914
21476W        W93901  35.909  13.349   2.413
21477W        W93902   3.333   5.237   2.925
21478W        W93903   7.443  16.101  13.543
21479W        W93904  27.956  32.640   2.384
21480W        W93905  37.036  36.842   4.162
21481W        W93906  14.645  41.388  14.375
21482W        W93907  21.283  36.952  13.134
21483W        W93908  37.522  37.313  13.558
21484W        W93909  11.262  13.590  13.175
21485W        W93910  25.432  11.830  13.895
21486W        W93911  35.978   2.363   1.362
21487W        W93912  40.930  32.053  10.950
21488W        W93913   9.610   4.228  14.464
21489W        W93914  41.858  30.713   3.799
21490W        W93915   1.350  24.713  14.564
21491W        W93916  21.811  30.488   1.168
21492W        W93917  14.329  26.426   2.407
21493W        W93918  24.430   5.905  13.334
21494W        W93919  44.245  27.577  12.744
21495W        W93920  22.095  41.476   4.360
21496W        W93921  35.991  22.758  10.810
21497W        W93922  30.863  22.619  10.099
21498W        W93923  17.130  11.705   4.609
21499W        W93924  19.715  15.830  11.698
21500W        W93925  13.667  14.925   1.238
21501W        W93926  23.958   6.658   1.361
21502W        W93927  21.247   2.301   3.216
21503W        W93928   5.832  32.367  12.398
21504W        W93929  35.450  38.316   3.711
21505W        W93930  33.392  37.010   3.870
21506W        W93931  18.282  30.948   0.869
21507W        W93932  25.410   3.744   0.977
21508W        W93933  14.058   9.170  11.554
21509W        W93934   1.726  44.069  12.601
21510W        W93935  42.583   8.760  13.910
21511W        W93936  13.561  28.587  11.174
21512W        W93937  43.961  34.089  14.443
21513W        W93938  35.631  30.552   3.012
21514W        W93939   6.394  44.380  11.001
21515W        W93940   3.283  39.170  14.015
21516W        W93941  36.560  15.035   2.689
21517W        W93942   5.452   8.846   4.209
21518W        W93943  20.587  30.950   4.177
21519W        W93944  23.138  32.152  14.257
21520W        W93945  30.934   0.364  13.490
21521W        W93946  44.512  27.145  13.488
21522W        W93947  44.492  17.002  11.087
21523W        W93948   2.170  14.039   1.780
21524W        W93949  12.713  40.884  13.067
21525W        W93950  10.598   1.022  12.472
21526W        W93951  22.081  14.399   0.353
21527W        W93952   1.030  31.528   3.369
21528W        W93953  26.951  41.082  12.830
21529W        W93954  30.594  22.149   2.356
21530W        W93955   1.262   8.405  14.963
21531W        W93956  20.988   1.847  13.531
21532W        W93957  12.304  10.600   0.750
21533W        W93958  25.941  30.906  12.532
21534W        W93959  18.238  28.184   1.678
21535W        W93960   5.374  19.493  12.987
21536W        W93961  23.225  10.820  13.378
21537W        W93962  34.666  22.342   3.595
21538W        W93963  14.896  39.507  13.571
21539W        W93964  16.190   4.855   1.181
21540W        W93965  33.009  43.054  13.079
21541W        W93966  33.465  25.921  12.554
21542W        W93967  11.703  21.182  11.984
21543W        W93968  40.929  20.189  10.307
21544W        W93969  22.062   1.713  11.710
21545W        W93970  21.004  18.629   0.431
21546W        W93971  35.853  34.512  11.083
21547W        W93972  13.563  12.870   2.756
21548W        W93973  13.998  15.193   3.451
21549W        W93974  11.674   1.308  14.816
21550W        W93975  37.966  20.554   3.315
21551W        W93976  39.364  35.385  11.582
21552W        W93977  10.356  22.130   1.129
21553W        W93978  33.477  24.460   2.399
21554W        W93979  11.252  42.324  11.306
21555W        W93980   3.287   5.391  11.092
21556W        W93981  13.920   8.228  11.504
21557W        W93982   6.935  40.540   0.275
21558W        W93983  22.634   7.683   2.215
21559W        W93984  36.098  40.321  10.922
21560W        W93985  16.405  33.510  13.305
21561W        W93986   5.898  30.871  12.622
21562W        W93987  28.896  18.523   4.178
21563W        W93988  32.132  11.039  13.069
21564W        W93989  15.070  34.565  11.534
21565W        W93990  43.962  43.190  13.462
21566W        W93991  13.807  43.144  12.569
21567W        W93992  35.356  40.499  12.411
21568W        W93993   2.997  42.856   0.421
21569W        W93994  32.155   0.918  14.753
21570W        W93995  11.913  42.548   1.769
21571W        W93996   7.486  25.106  14.890
21572W        W93997   3.753   7.373  14.508
21573W        W93998  20.246  37.091  12.840
21574W        W93999  20.854  39.813  12.036
21575W        W94000   8.847   4.498  12.867
21576W        W94001   0.176  18.038   3.616
21577W        W94002  37.318  28.243  11.408
21578W        W94003  13.748  42.953  14.410
21579W        W94004   0.458  20.496   0.968
21580W        W94005  11.530   5.289   2.352
21581W        W94006   9.753  43.375   4.499
21582W        W94007  42.367  16.423  14.027
21583W        W94008  23.726  40.991   3.798
21584W        W94009   0.313  24.059  11.590
21585W        W94010  16.404  12.877  10.715
21586W        W94011   1.745  26.620   0.779
21587W        W94012  12.784  42.702  14.908
21588W        W94013  44.953  13.010   3.295
21589W        W94014   0.342  29.653  13.029
21590W        W94015  40.910  12.822  13.584
21591W        W94016   4.151   2.762  13.882
21592W        W94017  10.254   7.910   1.476
21593W        W94018  27.950   8.632   3.154
21594W        W94019  28.473  42.459  10.881
21595W        W94020  37.695  14.264   4.185
21596W        W94021   8.188  44.212  13.022
21597W        W94022  19.316  36.957   0.029
21598W        W94023  36.964  16.819  10.703
21599W        W94024  37.922  35.229   3.450
21600W        W94025  40.712  14.196  14.923
21601W        W94026   0.457  41.540   3.315
21602W        W94027  21.955  43.702   1.565
21603W        W94028  17.552  16.642   1.454
21604W        W94029  42.419  24.633   4.710
21605W        W94030  19.993  17.234  13.283
21606W        W94031  29.155  27.210  14.626
21607W        W94032  24.551  38.166  13.980
21608W        W94033  44.826  42.901  14.763
21609W        W94034  40.751  24.167  14.723
21610W        W94035  38.823  40.821  13.951
21611W        W94036  34.694  15.321  12.948
21612W        W94037  39.254  14.617   0.046
21613W        W94038  27.543  10.215   2.007
21614W        W94039  20.616   9.479  11.492
21615W        W94040  42.288  12.867  12.527
21616W        W94041  32.524  27.922   2.640
21617W        W94042  15.794  22.171   3.272
21618W        W94043  28.634  14.379   0.717
21619W        W94044  15.671  29.854  14.780
21620W        W94045  26.470  35.159   1.455
21621W        W94046  13.336   2.352  10.622
21622W        W94047  23.474  31.681   1.792
21623W        W94048  11.619  17.421  12.149
21624W        W94049   8.384  17.779   3.862
21625W        W94050  21.937  22.856   0.404
21626W        W94051   5.168  32.564   0.596
21627W        W94052   3.312  19.276   2.336
21628W        W94053  14.878  22.765   2.279
21629W        W94054  15.293  23.919   0.333
21630W        W94055  37.090  23.118  14.769
21631W        W94056  23.110  28.936  10.762
21632W        W94057  20.329  25.083  13.340
21633W        W94058   1.929  40.038  13.124
21634W        W94059  43.419  10.700   1.833
21635W        W94060  32.081  29.305  10.395
21636W        W94061   9.444  29.034  13.922
21637W        W94062  25.156  25.062  14.468
21638W        W94063  29.479   6.918  14.381
21639W        W94064  18.137   3.650   2.833
21640W        W94065  27.685  23.333  12.923
21641W        W94066  44.198  43.394  11.237
21642W        W94067  37.247   2.758   1.155
21643W        W94068   2.441  34.776   1.194
21644W        W94069  20.196  13.190  14.942
21645W        W94070  41.080  14.567   3.113
21646W        W94071  12.197  35.678  14.451
21647W        W94072   9.617  40.343  12.775
21648W        W94073  37.033  39.479  14.489
21649W        W94074  36.951  19.291   4.260
21650W        W94075   6.411  38.033  11.946
21651W        W94076  27.152   4.389   3.833
21652W        W94077  30.063  40.417  13.746
21653W        W94078  20.967  21.234   3.520
21654W        W94079   5.493  35.839   4.534
21655W        W94080  37.384  13.279  14.991
21656W        W94081   6.830  15.099   2.421
21657W        W94082  36.829  15.239  12.306
21658W        W94083  20.132  31.069   2.331
21659W        W94084  12.075  28.541  14.094
21660W        W94085  27.010   1.347   3.866
21661W        W94086  12.866  23.704   3.871
21662W        W94087  20.002   7.454  12.444
21663W        W94088  42.486  34.372   3.535
21664W        W94089  34.041  29.019  12.051
21665W        W94090  22.218   9.801  12.481
21666W        W94091  30.675   4.719   3.083
21667W        W94092  14.608  25.631   4.683
21668W        W94093  19.540  11.225  12.481
21669W        W94094  22.577  44.885  14.462
21670W        W94095  16.654  20.805  12.056
21671W        W94096   7.245  11.195  11.176
21672W        W94097  13.870  29.716  12.490
21673W        W94098  36.901  13.756  13.305
21674W        W94099  18.259   5.213   1.436
21675W        W94100  44.375  10.962  11.028
21676W        W94101  12.246   6.114  14.832
21677W        W94102  40.376   2.897  11.520
21678W        W94103  43.876  15.421   3.922
21679W        W94104   2.826  34.089  12.811
21680W        W94105  31.182   7.463  13.985
21681W        W94106  22.249  27.266  14.329
21682W        W94107  10.701   2.427  14.607
21683W        W94108  33.121  23.280   0.231
21684W        W94109   5.200  25.211  12.094
21685W        W94110  33.849  16.839  13.655
21686W        W94111  26.761  34.901   3.784
21687W        W94112  36.583  22.490   0.332
21688W        W94113   8.876   0.866  13.467
21689W        W94114  31.737  22.821  13.856
21690W        W94115  17.087  19.942  10.431
21691W        W94116  30.716  19.545  14.599
21692W        W94117   3.933   3.963  12.805
21693W        W94118   3.938  10.170  12.384
21694W        W94119  29.279  16.093   1.412
21695W        W94120  42.350  14.454   1.764
21696W        W94121  29.117  41.257   3.261
21697W        W94122  34.294  23.948  12.092
21698W        W94123  30.134  23.278  11.535
21699W        W94124  37.367  10.299   3.687
21700W        W94125  33.483   0.327   1.778
21701W        W94126  27.709   5.193   3.721
21702W        W94127  39.020   3.013   0.213
21703W        W94128  18.625  29.724   1.705
21704W        W94129  29.960  18.573  10.778
21705W        W94130  26.053  11.744   1.372
21706W        W94131   4.214  44.429  10.467
21707W        W94132  40.508  21.216  11.181
21708W        W94133   8.483   2.370   1.751
21709W        W94134  14.586  11.200   0.798
21710W        W94135   1.788  42.431   1.849
21711W        W94136  29.905  19.180   1.815
21712W        W94137   1.777  26.320  11.056
21713W        W94138  35.514  43.788   4.226
21714W        W94139   1.574  24.058   3.140
21715W        W94140   0.548  17.998  11.994
21716W        W94141  35.694  21.020  10.576
21717W        W94142   4.900  31.672  10.635
21718W        W94143  25.133  35.032   1.954
21719W        W94144   8.897  14.030   4.742
21720W        W94145  17.199  14.323  12.102
21721W        W94146  29.120  41.035   2.211
21722W        W94147   4.275  15.136  12.592
21723W        W94148  35.096  16.607  12.542
21724W        W94149  36.294  41.487   0.404
21725W        W94150  40.943  18.171   4.068
21726W        W94151  38.590   6.856   4.741
21727W        W94152  10.241  31.618  13.918
21728W        W94153   9.925  23.719   1.819
21729W        W94154  43.784  44.420  13.030
21730W        W94155  14.044  42.860  11.911
21731W        W94156   3.170  23.644  13.063
21732W        W94157  22.536   2.778  10.615
21733W        W94158   4.526  19.624   1.971
21734W        W94159  37.465  20.673   3.321
21735W        W94160  41.506  28.005   4.347
21736W        W94161  34.842  15.269   2.600
21737W        W94162  10.200  27.394   4.148
21738W        W94163  34.924  34.081   4.106
21739W        W94164  35.578  13.795   1.825
21740W        W94165  32.462   6.588   2.883
21741W        W94166   4.657  38.583   0.042
21742W        W94167   6.404  28.927  11.169
21743W        W94168  21.096   8.652   2.424
21744W        W94169  18.013  33.483   2.750
21745W        W94170   9.327  25.283   5.208
21746W        W94171   4.316  14.683  10.776
21747W        W94172  27.699  11.839   2.691
21748W        W94173  23.878  31.200  13.987
21749W        W94174   8.309  11.804  14.564
21750W        W94175   6.647  11.271  12.600
21751W        W94176   6.941  34.106   4.813
21752W        W94177  25.730  27.503  11.997
21753W        W94178  19.987   3.370   5.077
21754W        W94179  18.405  29.798   0.047
21755W        W94180  39.975  18.182  11.506
21756W        W94181  33.770  26.113   3.112
21757W        W94182   0.977  35.254  11.270
21758W        W94183  29.027  44.644   1.942
21759W        W94184  33.494  31.871  12.020
21760W        W94185  16.076   4.489  13.571
21761W        W94186   4.426  33.062   0.833
21762W        W94187  21.261  27.351  13.469
21763W        W94188   8.884   5.121  14.074
21764W        W94189  35.481   4.709   2.424
21765W        W94190   4.355  12.386   1.453
21766W        W94191  14.666  29.051   2.338
21767W        W94192  15.739  12.113  13.579
21768W        W94193  12.565  39.922   4.770
21769W        W94194  12.686  14.878   2.648
21770W        W94195  33.108  20.538  13.007
21771W        W94196  33.370  28.098  10.545
21772W        W94197  10.247   6.725  13.389
21773W        W94198  30.845   5.214   3.118
21774W        W94199  24.139  43.327  11.810
21775W        W94200  37.877  29.952   1.284
21776W        W94201  34.278  17.833  12.045
21777W        W94202  17.160  26.814   1.226
21778W        W94203  24.514  33.109  13.856
21779W        W94204  25.354  18.000  13.833
21780W        W94205  29.405  41.235  13.445
21781W        W94206  39.157  23.647   0.923
21782W        W94207  21.827  25.697  14.517
21783W        W94208  41.619  19.102  14.461
21784W        W94209  24.208  39.807   1.888
21785W        W94210  29.920   4.670  14.821
21786W        W94211  34.913   2.248   2.909
21787W        W94212  43.953  44.082  12.689
21788W        W94213  12.230  21.084   0.791
21789W        W94214   4.405  21.747   0.865
21790W        W94215   2.984  29.393  11.167
21791W        W94216  17.508  42.329   0.846
21792W        W94217  10.828   3.150   0.715
21793W        W94218   6.959   2.305   2.278
21794W        W94219  39.454  40.805   3.082
21795W        W94220  25.166  42.514  11.341
21796W        W94221  17.158   7.420   1.801
21797W        W94222  32.637   6.301  13.850
21798W        W94223   1.285  25.497   2.271
21799W        W94224   7.640  17.772  12.925
21800W        W94225  42.286   0.302  12.048
21801W        W94226   6.991   3.478   4.363
21802W        W94227  36.912  10.113   4.110
21803W        W94228  27.918  24.956   4.299
21804W        W94229  40.295  29.201   1.379
21805W        W94230  44.114  36.748   0.348
21806W        W94231  32.879  35.919  10.604
21807W        W94232  28.562  32.888   3.855
21808W        W94233  20.178  40.855   4.359
21809W        W94234   3.473  39.251  14.846
21810W        W94235  14.834  12.021   4.439
21811W        W94236  39.393  10.743   4.110
21812W        W94237  36.562  10.740  13.536
21813W        W94238   8.431   3.767  11.164
21814W        W94239  22.251  34.480  12.428
21815W        W94240  32.617   0.280  12.516
21816W        W94241   2.616   9.779  11.682
21817W        W94242  10.284  21.485   3.833
21818W        W94243  24.147  27.521   1.299
21819W        W94244  22.494  41.578  14.382
21820W        W94245  23.227  30.828   3.307
21821W        W94246  10.236  11.282  11.853
21822W        W94247   2.321  17.333   1.209
21823W        W94248   2.480  12.357   0.807
21824W        W94249  25.774  36.080  13.452
21825W        W94250   9.919  38.291   2.713
21826W        W94251  30.171  37.421   2.714
21827W        W94252  22.279  22.678  14.564
21828W        W94253  30.582  16.744  12.164
21829W        W94254   4.387  36.524  13.333
21830W        W94255  31.501  23.748   1.836
21831W        W94256  35.725  29.030   4.483
21832W        W94257   1.410   9.288  12.533
21833W        W94258  17.581  40.909  14.420
21834W        W94259  22.128  10.783   0.930
21835W        W94260  34.420  12.849  14.393
21836W        W94261  22.143  42.707  11.081
21837W        W94262  41.433   6.334   3.684
21838W        W94263  13.253  41.571   3.020
21839W        W94264  23.482   1.801  13.000
21840W        W94265  34.569  37.824  14.278
21841W        W94266   4.692   3.483   2.018
21842W        W94267  15.622   3.970   2.303
21843W        W94268  23.576  11.867   2.905
21844W        W94269  22.685   6.752   3.890
21845W        W94270  22.734  14.651   1.453
21846W        W94271   8.890  33.117   0.290
21847W        W94272  32.380  32.957  10.756
21848W        W94273  35.897  11.741  13.591
21849W        W94274  14.684  12.755   3.714
21850W        W94275   6.915  11.902   2.816
21851W        W94276  28.499   8.314  11.224
21852W        W94277  36.882   5.692   5.519
21853W        W94278  41.439  26.652  13.715
21854W        W94279  39.795  21.004   2.931
21855W        W94280  21.350  18.108   1.247
21856W        W94281  12.783   2.018  11.058
21857W        W94282  14.369  22.012  13.099
21858W        W94283  26.788  43.024  13.082
21859W        W94284  11.599   2.825   4.939
21860W        W94285  43.165  15.580   3.329
21861W        W94286  12.933   7.889   0.236
21862W        W94287   8.096  38.016   2.658
21863W        W94288  44.426  34.636   4.142
21864W        W94289  21.551  18.043  12.995
21865W        W94290   9.690  16.117  11.274
21866W        W94291  31.660  43.118  10.727
21867W        W94292  25.462  29.558  10.638
21868W        W94293   9.836  40.452   3.370
21869W        W94294  42.090   6.497  13.931
21870W        W94295  38.461  36.621   3.126
21871W        W94296  31.831   8.949   1.297
21872W        W94297  42.175  16.498   3.126
21873W        W94298   9.557  35.539   4.137
21874W        W94299  21.674  38.993  14.080
21875W        W94300  34.791  41.057   4.753
21876W        W94301  10.769   5.443   0.778
21877W        W94302  36.098  27.241   3.718
21878W        W94303  18.601  19.390  12.934
21879W        W94304  15.312   6.665   3.683
21880W        W94305   9.108   3.947  10.628
21881W        W94306  30.499  41.484   2.717
21882W        W94307  13.663  44.510   0.495
21883W        W94308  35.606  43.280   1.265
21884W        W94309  40.076  17.085  13.115
21885W        W94310  27.486  36.593  13.358
21886W        W94311  37.877  43.301  14.870
21887W        W94312   8.851  15.034  14.018
21888W        W94313  24.445  27.424   4.167
21889W        W94314  37.842  10.660   1.405
21890W        W94315   6.806  35.502   1.806
21891W        W94316  34.690  21.318   5.009
21892W        W94317   2.815  41.634  10.765
21893W        W94318  39.250  15.329  11.185
21894W        W94319   2.204  11.277  13.120
21895W        W94320  29.437  33.587  10.782
21896W        W94321   1.767  28.613  12.627
21897W        W94322   1.467  23.116  14.934
21898W        W94323  26.887   3.117  14.340
21899W        W94324  31.280  41.914   5.027
21900W        W94325   8.413  19.775   4.227
21901W        W94326   6.842  29.106   2.006
21902W        W94327  26.446   9.867  12.506
21903W        W94328  24.616  23.833   0.078
21904W        W94329  18.044  15.072  14.586
21905W        W94330  43.833  34.832  13.978
21906W        W94331  34.338  10.649   3.317
21907W        W94332  18.461  13.571   3.988
21908W        W94333  17.298  39.318   1.335
21909W        W94334  39.411  30.877   1.008
21910W        W94335  29.540  28.404   0.001
21911W        W94336  10.500  23.286  13.627
21912W        W94337  40.878  32.941   4.735
21913W        W94338  44.632  33.584  13.044
21914W        W94339  26.722  34.470  10.595
21915W        W94340   9.848  17.273   2.204
21916W        W94341  26.957   5.671  12.137
21917W        W94342  16.616   8.399  12.301
21918W        W94343   9.079   4.930   1.236
21919W        W94344  37.079  19.713  13.951
21920W        W94345  32.994  32.431  14.438
21921W        W94346  32.724  30.539  11.490
21922W        W94347   8.009  31.973   2.860
21923W        W94348  33.289  17.237   1.233
21924W        W94349  19.246  20.293   2.184
21925W        W94350   8.213   8.675   2.358
21926W        W94351  35.862  19.515  14.358
21927W        W94352  15.546   4.983   2.958
21928W        W94353   6.798  43.472  12.516
21929W        W94354  18.721  13.745  12.986
21930W        W94355  43.997   8.088  11.201
21931W        W94356  28.049   7.132   4.779
21932W        W94357   8.961  21.462   0.990
21933W        W94358  18.122  39.308   4.341
21934W        W94359  43.994  31.733   9.794
21935W        W94360  16.853  42.409   0.008
21936W        W94361   5.985  21.109  11.581
21937W        W94362  26.979   5.768   0.773
21938W        W94363  29.754  41.010  13.083
21939W        W94364   3.416  34.493   0.881
21940W        W94365  13.586   3.525   2.708
21941W        W94366  25.142  38.504  10.857
21942W        W94367  14.633   0.912  10.672
21943W        W94368  13.405  35.096   3.661
21944W        W94369  43.848  27.130  12.140
21945W        W94370   9.319  29.761  12.569
21946W        W94371   7.155  23.169   2.680
21947W        W94372   6.331  10.698  14.112
21948W        W94373  38.483   3.178  11.556
21949W        W94374  43.970  41.517   3.921
21950W        W94375  19.315  38.800   4.423
21951W        W94376  25.555   2.247  12.011
21952W        W94377  26.780  33.942   3.381
21953W        W94378  33.127  37.017  11.833
21954W        W94379  27.727  16.612  13.349
21955W        W94380  19.187  13.168  11.197
21956W        W94381  10.329  20.064  11.677
21957W        W94382  42.149   0.451  14.827
21958W        W94383  14.729  31.374  13.519
21959W        W94384  32.502  26.106  13.104
21960W        W94385  40.625  44.454  10.428
21961W        W94386   2.807   7.624  14.834
21962W        W94387  44.312   8.032  13.729
21963W        W94388  28.246  29.615   1.715
21964W        W94389  39.583  43.335  13.491
21965W        W94390  16.168  14.783   4.365
21966W        W94391  36.714  29.292  13.823
21967W        W94392  44.694  15.125  12.049
21968W        W94393  19.128  41.084   3.691
21969W        W94394   2.363  29.655   0.368
21970W        W94395   9.720  22.314   0.434
21971W        W94396  41.239  41.711  12.235
21972W        W94397  21.757  37.692  14.750
21973W        W94398   8.079  26.262   0.956
21974W        W94399   1.221  24.573   4.209
21975W        W94400  34.415  25.046  14.789
21976W        W94401  20.818   2.466   4.136
21977W        W94402   0.209  41.113  11.013
21978W        W94403   1.436   3.813  14.352
21979W        W94404  39.525  42.496   1.900
21980W        W94405  39.521  10.550  12.270
21981W        W94406  33.413  15.337   1.276
21982W        W94407  27.287  16.117   1.515
21983W        W94408  32.004  34.182   3.838
21984W        W94409  38.834  34.829  11.850
21985W        W94410  28.812  24.157   5.784
21986W        W94411  14.010  32.477  13.767
21987W        W94412  39.124  20.234  11.541
21988W        W94413   9.044  22.791  10.974
21989W        W94414   1.727  18.577  11.590
21990W        W94415  24.170  21.372   3.632
21991W        W94416  20.383  14.661  12.588
21992W        W94417  13.330  32.930  11.689
21993W        W94418  41.965  42.522   3.586
21994W        W94419   7.310  29.140   2.230
21995W        W94420  33.835  42.395   1.077
21996W        W94421  43.100   4.862   3.118
21997W        W94422  31.941  10.880  14.082
21998W        W94423  21.044  10.197   0.423
21999W        W94424   6.002  22.208  14.818
22000W        W94425  35.815   2.411   4.245
22001W        W94426  24.145  36.826  14.784
22002W        W94427  27.532   9.483   4.058
22003W        W94428  37.477   8.949  14.576
22004W        W94429  36.140  30.556  12.002
22005W        W94430  30.522  15.653  12.920
22006W        W94431  11.765   5.097   3.676
22007W        W94432   7.456  32.913  10.472
22008W        W94433   2.402  44.761  14.755
22009W        W94434   5.494  33.361  12.076
22010W        W94435   8.141  41.301  12.509
22011W        W94436  36.684   2.307   2.633
22012W        W94437  39.837  39.327   3.217
22013W        W94438   2.360   2.341   1.427
22014W        W94439   3.731  30.569  11.585
22015W        W94440  38.450  39.009   1.300
22016W        W94441  32.924  30.653   1.122
22017W        W94442  24.551  43.523   2.269
22018W        W94443  11.210  15.585   2.255
22019W        W94444  27.759  37.033  13.396
22020W        W94445  44.031  19.486  11.511
22021W        W94446  28.091  25.962  13.887
22022W        W94447  15.138  17.997   1.210
22023W        W94448  26.450   9.024  11.468
22024W        W94449   0.573   3.410  11.673
22025W        W94450   0.044  29.121  14.273
22026W        W94451   0.163   2.546   3.612
22027W        W94452  13.208  29.522  11.578
22028W        W94453  24.532  31.234   0.746
22029W        W94454  35.053  12.939   2.161
22030W        W94455  13.848  34.338  13.873
22031W        W94456  28.998   8.721  13.509
22032W        W94457  14.740  14.360   3.719
22033W        W94458  16.304  43.426   0.946
22034W        W94459  25.803  38.717  12.781
22035W        W94460  44.547  24.723   0.460
22036W        W94461  39.784  10.134  11.554
22037W        W94462  44.803  38.748  14.381
22038W        W94463  31.948  15.512  12.916
22039W        W94464  24.443  40.235   1.753
22040W        W94465  39.808  30.512  14.350
22041W        W94466  30.666  12.803   1.878
22042W        W94467  10.809   4.910   0.779
22043W        W94468  43.031  13.373   3.195
22044W        W94469  21.585  22.893  13.985
22045W        W94470  29.478  19.340  13.188
22046W        W94471  15.897  43.407   3.843
22047W        W94472   6.643  22.312   3.224
22048W        W94473  43.375  19.566   1.420
22049W        W94474  43.024  21.115  14.831
22050W        W94475   4.967  41.837  13.987
22051W        W94476  41.748  32.590   1.804
22052W        W94477   2.924  23.194  12.906
22053W        W94478  11.341  12.762   4.338
22054W        W94479  18.737   6.737   2.761
22055W        W94480   3.181  10.367  14.433
22056W        W94481  23.249  35.998   0.382
22057W        W94482  13.676  25.717   3.109
22058W        W94483  13.988  30.704  14.884
22059W        W94484  11.368   4.280   1.204
22060W        W94485  44.949   4.939  12.899
22061W        W94486  19.909   1.028  14.908
22062W        W94487  17.776   4.418  10.910
22063W        W94488   0.985  21.508  11.067
22064W        W94489  31.539  38.502  13.115
22065W        W94490   1.276  13.883   2.627
22066W        W94491  30.169  24.400  13.029
22067W        W94492  33.591   5.350  14.396
22068W        W94493  38.136  14.330  13.338
22069W        W94494  32.168  15.159  12.607
22070W        W94495  25.749  29.420   0.406
22071W        W94496  39.508  18.540   0.110
22072W        W94497  39.311   8.367   4.752
22073W        W94498   0.311  14.200  13.369
22074W        W94499  31.873  43.218  13.460
22075W        W94500  22.969   7.006  14.297
22076W        W94501  16.277   5.388  11.048
22077W        W94502  12.884  27.159  11.424
22078W        W94503  31.914  41.593  11.977
22079W        W94504  20.125  42.254   1.738
22080W        W94505  22.206   8.712   4.910
22081W        W94506   0.386  37.464  12.748
22082W        W94507  40.380  36.013   3.119
22083W        W94508   5.205  32.122   5.113
22084W        W94509   1.264  43.850  12.607
22085W        W94510  33.960  29.386  13.017
22086W        W94511  43.081  44.927  13.118
22087W        W94512  34.882  24.564   0.989
22088W        W94513  33.107  40.058   2.174
22089W        W94514  29.650  25.403   3.217
22090W        W94515  39.510  11.596   3.699
22091W        W94516  15.138  19.772  10.787
22092W        W94517  13.768  10.924   1.872
22093W        W94518  23.535  38.602  11.811
22094W        W94519   1.320  13.710   3.134
22095W        W94520  41.107  24.988   2.681
22096W        W94521  22.049  37.929   0.876
22097W        W94522  40.843  25.229   1.480
22098W        W94523  26.545  34.677   4.208
22099W        W94524  18.315  26.993   4.210
22100W        W94525  13.560  43.038  13.354
22101W        W94526  17.328  18.221  11.550
22102W        W94527  22.768  16.677  11.038
22103W        W94528  19.626  34.419  14.964
22104W        W94529  19.181  18.659  10.671
22105W        W94530  20.774  33.953   0.348
22106W        W94531  43.701   0.346   3.712
22107W        W94532  15.030  43.775   0.705
22108W        W94533  27.465  19.212   1.893
22109W        W94534  32.514  41.491   3.695
22110W        W94535   9.438  44.301  14.967
22111W        W94536  33.590  39.466   4.029
22112W        W94537  41.044  10.993   3.584
22113W        W94538  40.347  32.060   3.107
22114W        W94539  37.537   0.269   2.789
22115W        W94540  25.514  22.598  10.698
22116W        W94541   0.989  16.628   4.620
22117W        W94542  31.386  19.173  12.804
22118W        W94543  25.663  43.678   4.134
22119W        W94544  23.312  36.397  11.111
22120W        W94545  23.575  42.260   3.823
22121W        W94546  20.008  19.800  13.918
22122W        W94547  13.691   9.216  13.013
22123W        W94548  27.769  38.697  11.586
22124W        W94549  24.284   5.410  13.445
22125W        W94550  35.297  27.225  12.543
22126W        W94551  44.843  19.597   4.332
22127W        W94552  37.288  27.556  13.074
22128W        W94553   9.841   8.310  10.497
22129W        W94554   8.297  32.096   0.498
22130W        W94555  38.957  12.219  14.912
22131W        W94556   8.429   5.790  14.669
22132W        W94557  15.518  13.587   4.744
22133W        W94558  10.038  29.774   2.812
22134W        W94559  38.216  25.145   1.825
22135W        W94560  14.366  14.533   1.814
22136W        W94561  42.326  39.950  10.845
22137W        W94562  35.913  17.224   3.601
22138W        W94563   7.349  44.788  12.615
22139W        W94564   6.865   6.597   2.267
22140W        W94565  36.856  34.641   4.083
22141W        W94566  33.641  12.462  12.094
22142W        W94567  10.815  18.991   3.343
22143W        W94568  30.661  19.183  12.531
22144W        W94569  21.260   2.130  12.988
22145W        W94570  23.012  35.418   2.895
22146W        W94571   2.296  27.879  14.406
22147W        W94572  15.030   0.740  14.890
22148W        W94573  25.053  32.306  10.707
22149W        W94574  39.070   7.919   2.829
22150W        W94575   4.881  22.012  11.156
22151W        W94576  42.538  32.677  12.648
22152W        W94577  27.394  34.755   0.413
22153W        W94578  17.184   6.951   0.015
22154W        W94579  24.311  31.203  11.984
22155W        W94580  31.561   1.906   2.727
22156W        W94581  12.669  22.606  10.838
22157W        W94582  10.165  29.545   1.399
22158W        W94583  40.382   2.994  14.330
22159W        W94584   0.964  34.057   0.415
22160W        W94585  23.131  39.750  11.611
22161W        W94586   8.683  40.162   2.777
22162W        W94587  22.935  39.500  12.051
22163W        W94588  14.658   3.948  12.651
22164W        W94589   7.947  33.107  12.256
22165W        W94590  21.219  32.001  13.033
22166W        W94591  21.406  10.468  11.183
22167W        W94592  19.631  36.826   3.715
22168W        W94593   9.896  21.459  14.464
22169W        W94594  41.154  27.956  12.918
22170W        W94595  12.226  28.871  12.903
22171W        W94596  24.304   0.793  10.753
22172W        W94597  25.364   8.113   1.210
22173W        W94598  44.478  30.819   3.314
22174W        W94599  32.656  36.018   5.029
22175W        W94600  24.590  14.804   4.559
22176W        W94601  38.867  43.923   1.190
22177W        W94602  39.315  39.548  12.557
22178W        W94603   5.053  34.910   4.461
22179W        W94604  43.907  43.482  14.963
22180W        W94605  40.157  22.368  12.733
22181W        W94606   6.757  33.472  10.738
22182W        W94607   6.936   7.346   2.901
22183W        W94608  13.359  12.795   3.231
22184W        W94609  14.252  26.366  11.574
22185W        W94610   0.968  14.483   3.792
22186W        W94611  34.892  25.365  11.623
22187W        W94612  32.437   7.765  11.233
22188W        W94613   3.805  11.671  12.445
22189W        W94614  16.060  39.859   2.534
22190W        W94615  16.937  40.787   1.458
22191W        W94616  17.268  22.354   4.145
22192W        W94617  22.711   5.379  11.967
22193W        W94618   7.426  22.050  12.072
22194W        W94619  14.546  41.425   2.583
22195W        W94620  30.582  28.747   2.786
22196W        W94621   2.028  17.024   0.913
22197W        W94622   3.152  16.095  13.751
22198W        W94623   2.233  29.574   4.872
22199W        W94624  14.091  22.390   4.468
22200W        W94625  17.540  36.490   3.088
22201W        W94626  40.540  23.226   4.547
22202W        W94627   8.617  11.249   4.871
22203W        W94628  21.912  41.261   0.264
22204W        W94629  34.771  38.021   4.470
22205W        W94630  23.234  21.299   0.296
22206W        W94631  12.906  18.582   1.955
22207W        W94632  27.517  18.139  10.985
22208W        W94633  24.048   1.698   4.502
22209W        W94634  12.317  30.657   3.710
22210W        W94635   1.685  33.708   3.868
22211W        W94636  31.565  43.480   2.674
22212W        W94637  44.650  26.069   0.357
22213W        W94638  20.415   8.168  12.079
22214W        W94639  17.531   9.169  12.322
22215W        W94640  10.111  28.078  12.847
22216W        W94641  33.010  43.358   3.681
22217W        W94642  13.122  16.817  12.066
22218W        W94643  38.753  34.976   3.749
22219W        W94644   8.617   4.417   0.358
22220W        W94645  40.387   4.342   0.885
22221W        W94646  20.750  33.983   4.359
22222W        W94647  41.929  33.943  12.915
22223W        W94648   1.911  29.892   4.509
22224W        W94649  41.019  16.602   2.354
22225W        W94650  16.815  24.747   4.893
22226W        W94651  18.905  23.447   1.880
22227W        W94652  28.016  17.477   3.727
22228W        W94653  13.002  11.353   2.719
22229W        W94654  35.103   2.578  11.843
22230W        W94655  41.557  29.386  13.762
22231W        W94656   1.373   5.458  13.611
22232W        W94657   7.373   2.927  13.093
22233W        W94658  36.299   9.280  10.453
22234W        W94659  32.417  14.973  13.965
22235W        W94660  22.681  38.888  13.937
22236W        W94661  11.328  28.300  12.181
22237W        W94662   1.884  41.602   3.204
22238W        W94663  40.801   4.319   0.092
22239W        W94664  27.220   4.712  10.398
22240W        W94665  25.288  41.993  10.760
22241W        W94666  34.358   1.788  14.872
22242W        W94667  38.006   0.906  12.873
22243W        W94668  37.490  21.739  14.876
22244W        W94669  42.085  30.473   4.214
22245W        W94670  38.934  22.935  11.412
22246W        W94671  42.696   1.029  14.243
22247W        W94672  33.563  25.156  11.985
22248W        W94673  31.927  40.246   1.779
22249W        W94674  31.982  33.793   3.385
22250W        W94675  37.400   8.656   0.563
22251W        W94676  12.573  34.045   1.451
22252W        W94677  18.203  31.837   2.826
22253W        W94678  11.857  17.161   0.177
22254W        W94679  36.801  15.663   1.056
22255W        W94680  34.730  41.031   3.148
22256W        W94681  37.968  13.650  14.506
22257W        W94682  23.026  32.048  11.983
22258W        W94683  16.752  11.916   3.214
22259W        W94684  38.906   0.879   2.191
22260W        W94685  18.688  10.089   2.322
22261W        W94686  36.550  38.837   4.258
22262W        W94687  43.947  29.083  12.176
22263W        W94688  24.035  32.910   0.654
22264W        W94689  30.939  13.817  10.567
22265W        W94690  29.650  18.166  12.169
22266W        W94691  28.305  39.036  13.458
22267W        W94692  15.589  20.736  11.063
22268W        W94693  19.660  40.107   4.598
22269W        W94694  36.936  20.428  13.480
22270W        W94695  21.776  42.280  12.793
22271W        W94696  42.222  22.247  13.082
22272W        W94697  38.384  41.995  12.136
22273W        W94698   3.768  20.958   4.603
22274W        W94699  23.972  28.206   4.607
22275W        W94700  15.045  36.675   0.538
22276W        W94701  44.072  17.200  10.805
22277W        W94702  33.646  40.737  12.128
22278W        W94703  21.343  25.643  13.262
22279W        W94704  13.328  43.602   0.852
22280W        W94705  17.145  33.035   0.842
22281W        W94706  39.251   3.867  12.500
22282W        W94707   8.254  16.696   2.668
22283W        W94708  36.101  44.446  10.309
22284W        W94709   3.847  18.851  11.977
22285W        W94710   9.468  32.014  12.508
22286W        W94711  37.109  35.862   3.939
22287W        W94712  24.210  30.569   0.832
22288W        W94713  30.265  10.993  11.036
22289W        W94714  42.276  13.997   4.108
22290W        W94715   1.541  12.636  14.524
22291W        W94716  10.479  14.037   0.036
22292W        W94717  23.629   0.600  11.003
22293W        W94718  27.554   5.700   4.879
22294W        W94719  19.903  39.990   3.191
22295W        W94720  36.764  18.260  12.819
22296W        W94721  35.919  12.818   0.538
22297W        W94722  21.685  39.940   0.433
22298W        W94723  25.671   6.236  14.512
22299W        W94724  42.904   1.937  14.487
22300W        W94725  41.027  29.250  12.616
22301W        W94726  27.602  26.787  12.981
22302W        W94727  40.799  31.295  12.001
22303W        W94728  12.160   4.458   5.373
22304W        W94729  17.100  41.452   2.220
22305W        W94730  32.140  29.776  11.142
22306W        W94731  20.062  26.004  11.457
22307W        W94732   8.287  12.781   2.972
22308W        W94733  10.072  30.656   1.378
22309W        W94734  28.601  13.594  11.032
22310W        W94735   7.171  41.781  11.180
22311W        W94736   4.878  28.064   0.065
22312W        W94737  13.819   4.297  14.076
22313W        W94738  37.205  21.702  12.964
22314W        W94739  32.639  32.189   2.513
22315W        W94740  35.838   1.202  11.454
22316W        W94741  13.121  22.192   9.725
22317W        W94742  30.474   4.566   2.621
22318W        W94743   9.842  27.532  11.252
22319W        W94744   7.828  11.827  11.696
22320W        W94745   2.840  43.738   3.891
22321W        W94746  13.716  27.256   4.995
22322W        W94747  41.596  17.341   4.859
22323W        W94748  11.982  25.080  14.836
22324W        W94749  34.453   4.159   2.028
22325W        W94750  24.846  21.166  11.416
22326W        W94751  22.509   5.809  12.137
22327W        W94752  27.152  40.339  10.637
22328W        W94753  14.700  34.239  12.872
22329W        W94754  11.345  27.631   3.401
22330W        W94755   8.060   5.647  13.365
22331W        W94756  26.584  31.133  10.665
22332W        W94757   4.171  38.643   2.713
22333W        W94758   3.100  44.802  12.090
22334W        W94759  13.709   6.307  12.872
22335W        W94760   8.234   0.672  13.062
22336W        W94761  38.443  42.484  14.018
22337W        W94762   0.380  43.204  12.951
22338W        W94763  44.039  10.683  14.300
22339W        W94764  44.857  15.173   2.969
22340W        W94765  10.729  12.748   5.172
22341W        W94766   7.105   7.718  10.672
22342W        W94767  23.865  39.331  12.252
22343W        W94768  13.697  39.400  13.057
22344W        W94769  42.344   3.260  14.440
22345W        W94770  33.372  14.485   0.507
22346W        W94771  39.875  40.375  12.333
22347W        W94772  18.802  12.866   2.686
22348W        W94773  24.931   9.345   2.102
22349W        W94774   6.695  25.057   2.733
22350W        W94775   2.488  13.297   0.543
22351W        W94776  18.489  35.496  12.962
22352W        W94777  37.004  18.378  10.646
22353W        W94778  44.001  10.287   1.353
22354W        W94779  28.429  12.602   2.180
22355W        W94780   5.434  33.487   1.666
22356W        W94781  33.989  27.114  12.339
22357W        W94782  29.500  15.718  11.671
22358W        W94783  27.892  19.279   0.550
22359W        W94784  24.538  20.310  11.125
22360W        W94785  10.420   4.390  10.601
22361W        W94786  25.593  13.694  11.532
22362W        W94787   2.133   8.311  13.955
22363W        W94788  32.434   9.274  13.586
22364W        W94789   4.890  39.351   3.407
22365W        W94790  37.114  31.926  14.033
22366W        W94791  20.089  17.394  14.298
22367W        W94792  28.486   3.832  13.256
22368W        W94793  25.945  21.060   0.412
22369W        W94794  34.133  11.727   4.732
22370W        W94795  32.440  15.667  11.042
22371W        W94796  44.781   7.738  11.566
22372W        W94797  26.617   7.264  10.611
22373W        W94798  18.594   0.950  12.822
22374W        W94799  41.090  17.924  12.494
22375W        W94800  12.824  16.608   3.409
22376W        W94801  23.915   0.843  12.595
22377W        W94802  31.664  19.389  12.415
22378W        W94803  44.464  26.847   3.434
22379W        W94804  28.008   8.641  13.581
22380W        W94805  43.331  38.959  11.735
22381W        W94806   4.218  21.615   1.834
22382W        W94807  32.149  25.626  14.880
22383W        W94808  27.187  32.083  14.407
22384W        W94809  24.461   3.292   0.217
22385W        W94810  38.982  39.407  10.344
22386W        W94811  23.620  12.785   0.003
22387W        W94812   6.700  18.465  10.783
22388W        W94813  29.386  25.602   2.801
22389W        W94814  24.624   6.639   2.170
22390W        W94815  29.899  15.255   2.154
22391W        W94816   0.310  43.555   4.898
22392W        W94817  23.498  18.742  14.365
22393W        W94818   7.072  19.596  13.433
22394W        W94819  11.772  44.978  11.565
22395W        W94820  30.106  17.348   0.421
22396W        W94821   1.344  12.829   3.858
22397W        W94822  16.292  38.570  11.213
22398W        W94823   5.778  37.402  12.195
22399W        W94824  38.708  16.696  12.114
22400W        W94825  22.694  40.444  12.994
22401W        W94826   8.378  13.636  14.977
22402W        W94827  17.704  19.005  14.333
22403W        W94828   6.147  21.586  12.938
22404W        W94829   4.449   6.320   2.178
22405W        W94830  23.455   7.412   1.228
22406W        W94831  15.133   8.279  12.348
22407W        W94832   7.660   1.467   4.412
22408W        W94833  27.109   3.434  11.026
22409W        W94834  14.479   0.835   5.024
22410W        W94835  36.877  26.164   4.468
22411W        W94836   0.863  17.712  13.079
22412W        W94837  24.750  14.647  14.407
22413W        W94838  36.870  10.413  14.766
22414W        W94839   8.375  42.311   2.133
22415W        W94840  37.329  34.508  14.112
22416W        W94841  16.076   6.265   0.906
22417W        W94842   5.960  18.146  11.191
22418W        W94843  43.040   0.372  11.613
22419W        W94844  37.912  26.241   2.364
22420W        W94845  19.111  15.214  14.753
22421W        W94846   1.421  27.359   0.084
22422W        W94847   2.338  24.733   3.561
22423W        W94848  21.997  24.724  11.846
22424W        W94849  20.800  37.514   0.246
22425W        W94850  17.852  39.358  12.638
22426W        W94851  29.996  16.545  14.812
22427W        W94852   7.201  31.574   0.952
22428W        W94853  43.032  20.774   0.780
22429W        W94854  16.074  18.589  11.613
22430W        W94855   7.830  35.300  14.491
22431W        W94856   4.438  20.729   2.923
22432W        W94857  36.062  21.181   1.542
22433W        W94858  19.545  24.921  12.696
22434W        W94859  37.750  41.592  11.486
22435W        W94860  32.368  24.168  14.457
22436W        W94861   1.337  28.175  11.077
22437W        W94862  37.457  30.046  13.409
22438W        W94863  15.871   0.894  12.400
22439W        W94864  30.649  30.893   1.354
22440W        W94865  32.057   3.648   1.082
22441W        W94866   5.823  44.298   3.471
22442W        W94867  38.561  18.976  12.580
22443W        W94868   8.439  41.608   4.102
22444W        W94869  28.106  23.044  12.972
22445W        W94870  18.575  26.503   2.582
22446W        W94871   9.961   7.364  14.240
22447W        W94872  20.063  13.596  14.484
22448W        W94873  31.570  38.770  10.538
22449W        W94874  36.179  13.042   5.012
22450W        W94875  15.138  40.336  13.038
22451W        W94876  31.097  27.204  14.571
22452W        W94877   8.434  28.880   2.729
22453W        W94878  38.165  35.539  11.060
22454W        W94879  21.374  37.840   3.922
22455W        W94880  16.693  17.705  13.053
22456W        W94881  10.656   2.646   1.373
22457W        W94882  10.092   8.088  12.488
22458W        W94883  35.885   1.246   2.805
22459W        W94884  34.526  41.529  13.532
22460W        W94885  22.656   3.087  13.508
22461W        W94886  27.080  33.915   1.891
22462W        W94887  43.236   9.613  13.867
22463W        W94888   9.900   2.709   3.696
22464W        W94889   8.965  27.498  13.047
22465W        W94890  30.035  31.815   0.868
22466W        W94891  12.598  26.558   1.735
22467W        W94892   6.795  10.810  13.342
22468W        W94893  10.118  28.207   4.579
22469W        W94894   9.187  29.925  11.537
22470W        W94895   1.092  30.074   4.479
22471W        W94896  37.777  39.585   4.168
22472W        W94897  13.028  26.270  10.530
22473W        W94898  13.683  28.937  12.932
22474W        W94899   3.259  43.267   3.287
22475W        W94900  24.103  44.276  13.281
22476W        W94901  16.530  33.606  14.045
22477W        W94902  17.067  36.846   3.643
22478W        W94903  29.965  18.758   2.155
22479W        W94904  16.042  26.716  11.096
22480W        W94905   2.369  35.504  11.981
22481W        W94906  32.113  37.383   2.806
22482W        W94907   2.022  17.874   0.810
22483W        W94908   4.664   7.862  12.006
22484W        W94909   8.390  24.232  11.277
22485W        W94910  27.513   5.588  14.431
22486W        W94911  25.974  15.526   1.372
22487W        W94912  18.079  31.976  11.923
22488W        W94913   1.779  14.819  11.674
22489W        W94914  32.158   3.825   1.554
22490W        W94915  23.230  23.337   4.271
22491W        W94916  15.793   9.631  14.915
22492W        W94917  44.859  40.063  11.409
22493W        W94918  14.463  31.476   1.429
22494W        W94919   7.003  14.905   3.672
22495W        W94920  39.536   1.811   2.743
22496W        W94921  32.372   2.590   3.638
22497W        W94922  10.432  27.155   2.936
22498W        W94923  19.640   1.935   3.344
22499W        W94924  41.848  22.728  14.473
22500W        W94925   9.405  44.340   4.739
22501W        W94926  14.128  36.899   1.161
22502W        W94927  42.366  44.744  13.451
22503W        W94928  12.822  16.217  11.122
22504W        W94929   2.446  27.600   4.490
22505W        W94930  39.303  16.224   0.399
22506W        W94931   0.856  15.630   9.823
22507W        W94932  44.466  28.580  14.709
22508W        W94933  36.791   0.773  14.843
22509W        W94934  21.142  41.030   4.612
22510W        W94935  27.002  41.395   4.379
22511W        W94936  38.054  28.994  10.968
22512W        W94937  19.254   8.895   0.492
22513W        W94938  40.369   2.569  11.114
22514W        W94939  10.154  38.819   5.069
22515W        W94940  11.849   9.195   4.490
22516W        W94941  30.865  21.874   0.568
22517W        W94942  26.424  29.077   2.175
22518W        W94943  28.385   4.774   4.238
22519W        W94944  31.375  11.567   2.180
22520W        W94945  36.894  38.613  14.658
22521W        W94946  39.623  24.172   2.171
22522W        W94947  32.985  35.749   0.682
22523W        W94948   9.748  35.623  14.260
22524W        W94949   9.253   1.244  14.813
22525W        W94950  17.377  24.813  12.117
22526W        W94951   5.793   3.471  12.986
22527W        W94952  13.133  18.382  10.434
22528W        W94953  12.934  30.524  14.544
22529W        W94954   8.420  17.366   4.947
22530W        W94955   7.707  31.829   3.248
22531W        W94956  31.057  31.140  11.199
22532W        W94957   1.920  33.425  11.602
22533W        W94958  27.321  32.011  14.938
22534W        W94959  27.490  27.260   4.726
22535W        W94960  16.168  23.886  14.905
22536W        W94961  43.971  19.609  14.145
22537W        W94962  31.676  21.773   3.590
22538W        W94963   6.880  13.581   4.545
22539W        W94964  43.071   5.348   2.128
22540W        W94965   6.633  27.566   1.788
22541W        W94966  23.557  11.939  14.467
22542W        W94967  35.332  15.432   2.718
22543W        W94968  28.332  25.307   9.936
22544W        W94969  15.751   2.367  14.054
22545W        W94970  34.476  23.675  11.192
22546W        W94971  25.183  40.144  13.021
22547W        W94972  11.665  22.654  10.991
22548W        W94973  33.073  44.103  13.333
22549W        W94974  31.118  35.475  14.433
22550W        W94975  22.783  32.088   3.271
22551W        W94976  35.413  19.473  12.127
22552W        W94977  33.451   7.164   3.810
22553W        W94978  31.557  25.892  13.076
22554W        W94979  35.343  37.451   1.281
22555W        W94980   1.783  15.393   3.908
22556W        W94981  19.541  25.424  11.252
22557W        W94982   6.482   3.829  11.908
22558W        W94983  26.213  23.473  11.320
22559W        W94984  29.516  42.419  12.969
22560W        W94985  42.755  21.636   2.171
22561W        W94986  26.156  23.280  14.418
22562W        W94987   8.961  15.481   5.043
22563W        W94988  17.668  42.811  14.639
22564W        W94989  30.807  24.591   4.956
22565W        W94990  25.934  15.603   3.664
22566W        W94991  33.583  13.142  11.526
22567W        W94992  31.576  40.324  11.310
22568W        W94993  41.752   1.493   2.428
22569W        W94994  11.194   2.238  12.316
22570W        W94995  31.567  32.628   0.396
22571W        W94996  21.405  10.125  14.907
22572W        W94997   9.195   6.911   4.111
22573W        W94998  31.332  44.728   4.440
22574W        W94999  22.985  26.102  13.452
22575W        W95000  26.522  24.981   1.666
22576W        W95001  38.350  36.560   1.268
22577W        W95002  18.745   9.001  11.610
22578W        W95003   8.783  44.568   4.138
22579W        W95004   2.530   2.220  12.776
22580W        W95005  16.648  28.425  13.962
22581W        W95006  12.832   3.761   3.427
22582W        W95007   7.876  21.303  13.030
22583W        W95008   4.356  17.087   1.237
22584W        W95009  26.051  31.888   1.283
22585W        W95010  38.057  32.552  13.455
22586W        W95011  29.209  21.262   3.109
22587W        W95012  34.462  44.257   0.983
22588W        W95013  10.871   7.290   1.334
22589W        W95014  18.140  20.655  11.113
22590W        W95015  39.391  39.011   3.102
22591W        W95016   9.281   2.928   4.917
22592W        W95017  19.723  44.712   2.426
22593W        W95018  26.404  18.503  10.611
22594W        W95019  29.910  16.638   4.577
22595W        W95020  11.767   6.767   1.347
22596W        W95021  36.977  11.540  11.539
22597W        W95022  22.175   7.484  14.348
22598W        W95023  34.770  42.907  13.585
22599W        W95024   0.758  24.141   2.465
22600W        W95025  25.713  16.586  13.149
22601W        W95026  23.748  40.056  14.540
22602W        W95027  15.707   7.291  14.261
22603W        W95028  25.150  13.367  10.685
22604W        W95029  28.453  29.962   4.370
22605W        W95030  29.301  29.635   2.290
22606W        W95031   3.696  22.637   3.574
22607W        W95032  29.391  10.310   0.326
22608W        W95033  14.831  24.622   1.006
22609W        W95034  16.228   0.404  13.598
22610W        W95035   3.627  29.006  13.489
22611W        W95036  18.553   2.943  13.005
22612W        W95037  11.782   0.320  13.840
22613W        W95038  15.766  16.061  12.623
22614W        W95039   4.276  17.837  14.902
22615W        W95040  37.640  12.319  12.482
22616W        W95041  20.573  22.718   3.649
22617W        W95042   2.400  19.192  13.293
22618W        W95043   4.173   8.130   4.370
22619W        W95044   2.098  37.449   3.400
22620W        W95045  20.378   8.304   2.346
22621W        W95046   2.475  42.953  10.676
22622W        W95047   0.389   3.257   2.868
22623W        W95048  23.262   5.957  14.373
22624W        W95049  41.572  29.146   3.869
22625W        W95050  11.754  21.599   5.099
22626W        W95051  10.542  14.826  13.564
22627W        W95052  13.257  14.564   2.833
22628W        W95053  29.068  38.451  12.128
22629W        W95054  18.475  25.963  14.034
22630W        W95055  14.205  22.180   4.951
22631W        W95056  29.143   8.902   0.543
22632W        W95057  22.608   9.477   3.671
22633W        W95058  43.041  38.350   2.915
22634W        W95059  43.335  30.737  12.439
22635W        W95060  41.047  21.214  11.049
22636W        W95061  35.837  38.299  12.051
22637W        W95062  14.142  12.920  11.579
22638W        W95063  13.234   1.867   2.645
22639W        W95064  18.705  44.318   2.433
22640W        W95065  18.462  22.511   1.850
22641W        W95066  24.213   0.533   4.913
22642W        W95067   4.699  32.504  11.436
22643W        W95068  36.568   2.305  14.089
22644W        W95069  28.659  27.862   3.283
22645W        W95070  17.428  12.229   3.650
22646W        W95071   9.628  32.146  10.181
22647W        W95072   5.137  22.367  14.060
22648W        W95073  28.593  41.368  13.383
22649W        W95074  29.615  41.863   0.803
22650W        W95075   8.114   3.998  10.753
22651W        W95076  11.302  44.342  13.917
22652W        W95077  11.892  26.307  10.148
22653W        W95078  26.991  26.284  11.589
22654W        W95079  21.463  25.155  12.594
22655W        W95080  16.150   6.750   0.728
22656W        W95081  10.364  17.840  11.049
22657W        W95082  37.135   8.204   1.383
22658W        W95083  22.575  14.230   0.234
22659W        W95084  23.719  16.984   0.655
22660W        W95085   5.707   8.410   2.777
22661W        W95086   4.941  21.970   4.852
22662W        W95087  21.208  32.507  11.641
22663W        W95088  16.094   3.184  12.100
22664W        W95089  22.052  36.276   0.113
22665W        W95090  10.583  44.685  14.027
22666W        W95091   9.443   8.880  14.842
22667W        W95092  20.632  42.971  12.013
22668W        W95093   1.878  34.173  14.840
22669W        W95094  14.989   2.440   4.669
22670W        W95095  24.747   5.184   0.930
22671W        W95096  43.528  23.673   0.340
22672W        W95097  25.669  27.069   4.543
22673W        W95098  15.248  24.078  12.596
22674W        W95099  44.365  44.314   2.368
22675W        W95100  12.634   7.718   1.178
22676W        W95101  34.386  27.219  12.902
22677W        W95102  43.376  19.986   3.459
22678W        W95103   4.674  28.406  12.108
22679W        W95104  12.311  12.638  13.948
22680W        W95105  17.606  42.546   3.551
22681W        W95106  36.093   8.167  10.998
22682W        W95107  38.534  21.441   1.905
22683W        W95108  11.160   8.151   2.986
22684W        W95109  10.695  36.059   3.563
22685W        W95110  27.639  40.222   4.688
22686W        W95111  14.863  21.777   4.339
22687W        W95112  41.737  31.370   2.767
22688W        W95113  18.172  25.654   0.761
22689W        W95114  19.310  39.762   4.797
22690W        W95115  31.629  26.893   1.997
22691W        W95116  21.509  31.032   4.116
22692W        W95117  11.625   6.353   0.438
22693W        W95118  14.819  14.880   3.656
22694W        W95119  30.533  42.811  12.161
22695W        W95120  30.206  36.391  12.903
22696W        W95121  12.530   3.354  13.385
22697W        W95122  35.028  43.308  13.385
22698W        W95123   9.807   6.245   1.827
22699W        W95124  23.706  25.461  12.891
22700W        W95125  35.613  10.181   0.355
22701W        W95126  12.394  22.671   4.129
22702W        W95127  40.520  44.488  10.921
22703W        W95128   3.565  10.111   2.766
22704W        W95129  29.987  27.658  13.879
22705W        W95130   7.401  30.545  11.617
22706W        W95131  28.358  42.940   2.225
22707W        W95132  23.566   6.157  13.543
22708W        W95133  43.866  31.416   2.300
22709W        W95134  18.522  39.768   2.156
22710W        W95135  37.523  15.794  13.016
22711W        W95136  43.956  16.187  13.108
22712W        W95137   6.408  18.295   5.041
22713W        W95138  11.168  25.298  14.471
22714W        W95139   9.672  37.265   1.316
22715W        W95140  38.919  23.455   0.467
22716W        W95141   5.394   6.322  13.889
22717W        W95142  16.294  36.849   0.732
22718W        W95143  20.681  39.285   4.171
22719W        W95144  37.881   9.840  11.443
22720W        W95145  25.643   4.180   3.208
22721W        W95146  38.023  17.018  13.805
22722W        W95147  10.536   5.265   2.320
22723W        W95148  20.537   9.196  11.082
22724W        W95149  11.625  16.576   1.380
22725W        W95150  19.169   9.880   2.361
22726W        W95151  22.136  28.062  13.405
22727W        W95152  11.572  44.737  11.969
22728W        W95153  27.929  36.372  14.808
22729W        W95154  17.491  40.806  11.727
22730W        W95155   7.122   9.866   2.489
22731W        W95156  23.109  44.203   3.356
22732W        W95157  19.938  42.799   0.156
22733W        W95158  26.645   2.169  14.041
22734W        W95159   8.653  42.850   3.534
22735W        W95160  14.572   8.433   4.605
22736W        W95161  41.571   8.644   3.731
22737W        W95162  21.094  16.135   0.048
22738W        W95163   2.578  34.245  14.852
22739W        W95164   5.446   0.213  14.979
22740W        W95165  41.555   7.446   0.731
22741W        W95166   4.819  21.012   1.286
22742W        W95167  30.481  10.772  14.914
22743W        W95168  38.464   6.722   3.836
22744W        W95169  30.344  25.435   2.622
22745W        W95170  10.088  30.704   3.720
22746W        W95171  31.624  20.899  13.509
22747W        W95172  38.890   9.135   4.995
22748W        W95173  44.277  34.005   9.832
22749W        W95174  35.110  30.024  12.326
22750W        W95175  38.373  37.466  14.006
22751W        W95176  17.970  29.557  13.371
22752W        W95177  40.088  42.716  12.979
22753W        W95178  29.888  31.319   0.955
22754W        W95179   8.600  20.034  11.388
22755W        W95180  10.966  15.861   3.803
22756W        W95181  24.344  32.004  14.549
22757W        W95182   5.328  34.060   4.380
22758W        W95183  43.492  36.414  13.514
22759W        W95184   2.880  19.075   2.591
22760W        W95185  40.338  22.988  14.354
22761W        W95186  43.378  17.537  11.224
22762W        W95187  11.429   5.920   4.095
22763W        W95188  19.228   4.204  11.745
22764W        W95189  16.693  25.737   3.973
22765W        W95190  40.733  21.257  13.704
22766W        W95191  42.502  23.537  12.147
22767W        W95192  16.228   6.527   3.733
22768W        W95193   1.971  26.013   2.638
22769W        W95194  28.647  34.958  13.000
22770W        W95195   3.260  40.943  13.371
22771W        W95196   3.350  31.419  13.074
22772W        W95197  35.286  43.911   3.774
22773W        W95198  39.893   7.520   2.287
22774W        W95199  35.826  24.492  14.849
22775W        W95200  28.586   2.304  12.441
22776W        W95201  39.055  10.739  13.002
22777W        W95202  25.451  17.167   3.267
22778W        W95203   0.035  40.974  11.466
22779W        W95204  32.939  36.482  11.968
22780W        W95205  25.155  31.637  14.855
22781W        W95206  29.223  39.583  14.352
22782W        W95207  22.356  23.227   0.320
22783W        W95208  36.866  27.305  12.943
22784W        W95209   1.784  29.898   2.221
22785W        W95210  18.761  33.656  10.961
22786W        W95211  22.852  37.138   1.772
22787W        W95212  43.517  34.906   2.811
22788W        W95213  42.832  26.867   4.545
22789W        W95214  31.311   4.158  14.029
22790W        W95215  37.410   4.250  13.643
22791W        W95216  17.771  32.639  12.935
22792W        W95217   6.502  26.028  11.869
22793W        W95218  31.165  40.077  13.559
22794W        W95219  18.778  34.902  11.512
22795W        W95220  34.307   5.024  13.096
22796W        W95221  26.578  33.644   4.204
22797W        W95222  35.819  21.978  13.044
22798W        W95223  20.657  15.611   4.088
22799W        W95224  38.546  29.602   3.694
22800W        W95225  32.607  21.261  11.097
22801W        W95226   3.350  44.248  10.909
22802W        W95227  37.003  35.040   0.566
22803W        W95228   1.349  29.596   1.469
22804W        W95229  17.006  15.176   3.622
22805W        W95230  32.943   8.717  13.482
22806W        W95231  32.954  42.544  13.040
22807W        W95232  41.558  28.492   0.917
22808W        W95233  34.224  12.785   3.390
22809W        W95234  16.381  33.204   0.161
22810W        W95235  23.178   1.638   2.783
22811W        W95236  22.235  25.203  11.981
22812W        W95237  22.614  42.861   5.089
22813W        W95238  39.927  21.630  13.934
22814W        W95239  37.355  24.587   4.794
22815W        W95240   5.274   2.279   3.283
22816W        W95241   3.880   5.402   0.071
22817W        W95242  29.866   8.843   4.093
22818W        W95243  31.241   6.885  11.189
22819W        W95244  15.673  31.632   0.269
22820W        W95245   6.669  40.899  11.069
22821W        W95246  11.841  30.559  11.092
22822W        W95247  10.203  29.124   0.054
22823W        W95248  12.956  28.605   1.907
22824W        W95249  39.357  43.816   1.343
22825W        W95250  20.334   4.829  10.948
22826W        W95251  28.331  41.463   4.585
22827W        W95252   2.334  39.033  12.840
22828W        W95253   9.358  42.058   4.217
22829W        W95254  23.132  18.076  14.108
22830W        W95255   7.881  17.116   1.420
22831W        W95256  35.139  36.094   0.756
22832W        W95257   3.573  22.280  14.830
22833W        W95258   4.710  37.821  13.451
22834W        W95259  11.619   4.627   4.500
22835W        W95260  32.149  17.006   2.857
22836W        W95261   2.945  15.224   3.690
22837W        W95262  17.394  26.925   0.792
22838W        W95263  35.338  10.885  12.841
22839W        W95264  23.980  32.631   3.935
22840W        W95265  31.457  26.694  11.544
22841W        W95266  24.231   7.624  14.386
22842W        W95267  43.412   4.218  13.915
22843W        W95268   8.365   5.193  13.430
22844W        W95269  23.731  30.124   4.631
22845W        W95270  30.393   8.852  13.139
22846W        W95271  38.394  10.092   4.157
22847W        W95272  27.159  23.304   2.900
22848W        W95273  37.884   3.225   2.855
22849W        W95274  14.437  38.016   0.061
22850W        W95275   6.189  26.261  11.488
22851W        W95276  33.787  44.308   5.025
22852W        W95277  16.568   9.244  11.641
22853W        W95278  35.502   1.231   1.792
22854W        W95279   0.353  20.443   3.853
22855W        W95280  12.789  35.992  11.486
22856W        W95281  41.231   3.283   4.911
22857W        W95282  22.464  34.533   4.458
22858W        W95283   0.882   5.249  12.168
22859W        W95284  18.561  37.412  14.891
22860W        W95285  20.751  10.256  11.702
22861W        W95286  11.364  32.003   0.665
22862W        W95287  16.604  26.531   2.338
22863W        W95288  30.611  31.403  14.349
22864W        W95289  43.223  30.015   3.102
22865W        W95290   1.216  22.415   0.434
22866W        W95291  15.704  21.631  14.443
22867W        W95292  41.333  24.179  13.339
22868W        W95293   8.467   2.750   0.157
22869W        W95294  31.951  12.627   4.501
22870W        W95295  13.679  20.802  12.891
22871W        W95296  26.745  24.090   4.983
22872W        W95297  44.217  18.599  14.941
22873W        W95298   8.645   2.487  13.984
22874W        W95299   8.128  13.026  11.047
22875W        W95300   2.869  20.493   2.399
22876W        W95301  21.267  30.342  11.610
22877W        W95302   1.860  19.221   3.482
22878W        W95303   1.636   1.985   2.745
22879W        W95304  27.619   1.967  14.239
22880W        W95305  27.997  34.530  11.538
22881W        W95306  40.784  28.918  12.941
22882W        W95307  35.641  19.171  11.386
22883W        W95308   6.446  26.723  11.476
22884W        W95309   4.968  26.001   2.924
22885W        W95310  41.818  11.689   0.257
22886W        W95311  11.892  12.157  11.145
22887W        W95312  41.955  17.233  14.509
22888W        W95313  21.966   7.233   2.733
22889W        W95314  41.972  10.011   3.584
22890W        W95315  44.448   1.238   2.976
22891W        W95316   7.639   2.257   0.944
22892W        W95317  27.554  39.345   3.747
22893W        W95318  15.933   5.098  12.064
22894W        W95319  10.057  32.279   0.285
22895W        W95320  18.573  20.814   1.904
22896W        W95321  41.545  37.397  11.552
22897W        W95322  22.007  16.028  12.041
22898W        W95323  27.394  44.043  10.432
22899W        W95324  27.685  43.243   0.456
22900W        W95325  11.078  38.495  11.228
22901W        W95326  32.420  40.280   1.969
22902W        W95327  44.294   4.998  10.695
22903W        W95328   2.923  18.815  11.179
22904W        W95329   8.843  23.973   4.680
22905W        W95330  18.777   2.821   0.903
22906W        W95331  43.586  17.513   0.434
22907W        W95332  31.724  32.286  12.449
22908W        W95333  40.330  40.991   0.885
22909W        W95334  37.853  17.645   4.778
22910W        W95335  33.511  39.473   4.534
22911W        W95336  22.796  12.398   1.877
22912W        W95337  34.832  42.773   4.620
22913W        W95338  22.075   2.433   2.821
22914W        W95339  10.571  11.566  11.236
22915W        W95340  37.632  43.428  10.697
22916W        W95341  10.165  12.275   1.650
22917W        W95342  15.530  13.564   2.300
22918W        W95343  19.080  18.704   0.305
22919W        W95344  37.893  43.296   3.209
22920W        W95345  29.543  21.035  13.554
22921W        W95346  17.445  43.081   0.255
22922W        W95347  25.677  28.702   4.652
22923W        W95348  42.521  42.610  12.572
22924W        W95349   9.470   8.247   0.502
22925W        W95350  39.958  12.849   4.573
22926W        W95351  41.411   1.903  13.400
22927W        W95352  22.768   8.688   3.389
22928W        W95353  24.784  13.701  14.566
22929W        W95354  35.857   0.286   3.125
22930W        W95355   1.215  26.130  11.671
22931W        W95356   9.679  13.524   3.230
22932W        W95357  44.882  43.276  14.406
22933W        W95358  27.150  11.849   4.925
22934W        W95359   2.909   6.257  12.885
22935W        W95360  27.228  19.597   2.204
22936W        W95361  18.881  27.949  10.410
22937W        W95362  22.481  25.607   0.972
22938W        W95363  17.536  16.185  11.658
22939W        W95364  28.617  24.189   1.943
22940W        W95365  34.567   4.776  11.471
22941W        W95366  11.274  23.095  12.167
22942W        W95367   0.934  44.917   0.285
22943W        W95368  21.756   4.428  11.396
22944W        W95369  41.504  11.410  11.472
22945W        W95370  14.555  12.685  14.903
22946W        W95371  24.664  23.456   3.775
22947W        W95372  28.839  11.587  11.614
22948W        W95373   2.207  16.326   3.184
22949W        W95374  12.149  28.916   0.794
22950W        W95375  12.081   7.140  10.323
22951W        W95376  31.242  26.071  13.448
22952W        W95377   9.672  43.147  14.473
22953W        W95378  27.879   4.663   2.836
22954W        W95379  13.609  43.478   0.443
22955W        W95380  35.561  29.805  14.085
22956W        W95381   8.045  29.894  11.865
22957W        W95382  10.064  35.479   4.240
22958W        W95383  41.870  43.562   3.345
22959W        W95384  19.077  39.885   4.317
22960W        W95385  11.675   2.208   2.465
22961W        W95386  37.890  16.772  10.587
22962W        W95387  12.552  17.730  13.795
22963W        W95388   6.389  14.783  13.829
22964W        W95389  26.241  25.155  12.112
22965W        W95390  24.963  13.074   2.633
22966W        W95391   8.674  39.394  10.597
22967W        W95392   8.220  34.532  12.942
22968W        W95393  11.004  29.490   3.006
22969W        W95394  42.578  21.055   4.831
22970W        W95395  19.360  44.976  13.843
22971W        W95396  38.908  34.379  11.612
22972W        W95397  23.573  43.817  11.168
22973W        W95398  30.208  30.930  10.854
22974W        W95399  16.881  27.223  12.667
22975W        W95400  44.781  38.521  14.859
22976W        W95401   9.980  40.349  10.822
22977W        W95402   2.940  42.072  12.285
22978W        W95403   2.303  26.785  10.140
22979W        W95404  10.486  19.152  10.699
22980W        W95405   2.630  31.635  14.744
22981W        W95406   4.302  11.674  12.624
22982W        W95407  10.251  14.785  13.022
22983W        W95408  41.108  29.956   2.825
22984W        W95409   5.325  21.346  11.117
22985W        W95410  31.427  43.304   1.750
22986W        W95411  19.710  42.620   1.514
22987W        W95412  25.583  28.978  13.435
22988W        W95413   0.693  23.209  13.027
22989W        W95414   7.878  40.444   0.980
22990W        W95415  19.603  37.413  11.619
22991W        W95416   7.709  11.677  14.146
22992W        W95417  29.834   0.903  11.639
22993W        W95418  31.382  25.948   3.392
22994W        W95419  44.459   9.501  10.726
22995W        W95420   1.797  40.864   0.987
22996W        W95421   3.517  12.870   4.120
22997W        W95422  15.900  27.434   4.163
22998W        W95423  16.289  26.635  14.493
22999W        W95424  28.948  17.634  12.617
23000W        W95425  21.008  14.250  12.873
23001W        W95426   8.607  44.801  10.920
23002W        W95427   0.279  31.899   0.651
23003W        W95428  43.118   5.634   1.701
23004W        W95429  43.780  37.052   3.696
23005W        W95430  44.529  23.742   2.904
23006W        W95431   0.930   4.948  14.410
23007W        W95432  28.154  19.873   4.624
23008W        W95433  15.365  22.041   1.177
23009W        W95434  13.566  34.070   4.126
23010W        W95435  37.739  25.408  13.372
23011W        W95436   3.854  40.599   3.357
23012W        W95437  18.133  40.734  12.911
23013W        W95438  34.658  20.660   3.716
23014W        W95439  41.572  36.608   4.210
23015W        W95440   9.319   2.548   0.292
23016W        W95441  32.552  33.944   4.046
23017W        W95442  27.094  18.214   3.193
23018W        W95443  36.374  16.628  12.147
23019W        W95444  20.175  40.184   2.734
23020W        W95445  43.941  38.352   0.684
23021W        W95446   3.241  41.916  10.644
23022W        W95447  12.923  36.559   0.217
23023W        W95448  23.718  38.974  14.591
23024W        W95449  43.028  40.231   1.222
23025W        W95450   1.342   9.354  13.442
23026W        W95451  15.914  21.309  12.385
23027W        W95452  17.833  30.988   3.706
23028W        W95453   6.890   4.421   4.920
23029W        W95454  15.813  21.673  12.038
23030W        W95455  43.493  38.509  14.413
23031W        W95456  22.629  37.341   3.040
23032W        W95457  12.089  20.302   4.041
23033W        W95458  27.172  14.918  11.130
23034W        W95459   4.222  19.558  11.511
23035W        W95460  17.253  31.006   2.504
23036W        W95461  33.117  31.556  10.621
23037W        W95462  30.378  11.913   3.121
23038W        W95463  41.393  24.681  12.012
23039W        W95464  37.799  16.611  14.017
23040W        W95465  39.757  39.155  11.128
23041W        W95466  31.986  33.408  14.215
23042W        W95467  28.343  38.207  10.148
23043W        W95468  25.607  37.766   5.093
23044W        W95469   8.475  24.190  10.757
23045W        W95470  23.269  16.874   4.617
23046W        W95471  44.775  19.898   1.448
23047W        W95472  17.199  29.360  10.296
23048W        W95473  40.041  43.059  13.511
23049W        W95474   1.189  32.725  12.455
23050W        W95475   0.369  33.810  14.403
23051W        W95476  23.520  32.827  11.928
23052W        W95477  44.915  26.839   2.012
23053W        W95478  10.100  35.068  12.597
23054W        W95479  43.435   4.560  14.338
23055W        W95480  13.311   0.028   3.806
23056W        W95481   6.804  16.509  11.122
23057W        W95482   5.395  41.346   4.572
23058W        W95483  19.754  26.815   4.592
23059W        W95484   0.392  31.789   5.395
23060W        W95485  17.751  44.744  10.714
23061W        W95486  30.385   6.388   1.299
23062W        W95487   7.298  21.336  14.286
23063W        W95488   8.960  29.598   0.313
23064W        W95489  29.715  29.119  10.857
23065W        W95490   4.423  32.457   3.737
23066W        W95491  27.443  40.031   2.326
23067W        W95492  38.447  34.461  10.695
23068W        W95493  41.261  43.822   2.756
23069W        W95494  23.016   7.239   1.756
23070W        W95495  22.958  34.852  12.465
23071W        W95496  13.097  31.918  11.604
23072W        W95497   5.372  42.579  10.649
23073W        W95498  36.203  41.922  11.111
23074W        W95499  27.168  31.568  11.122
23075W        W95500  19.128   1.342  13.455
23076W        W95501  39.902   1.513   0.425
23077W        W95502   3.366  25.187  14.760
23078W        W95503   3.687  36.058  11.226
23079W        W95504  23.693  28.356   0.856
23080W        W95505   7.346   5.687  14.532
23081W        W95506   1.017  44.018   0.315
23082W        W95507   7.883  40.019   3.260
23083W        W95508   2.701  20.744  12.824
23084W        W95509  27.423  40.418   5.524
23085W        W95510  24.140  16.126  12.479
23086W        W95511   4.114   7.769  13.386
23087W        W95512  38.004  19.622  11.150
23088W        W95513  38.380  20.453  13.475
23089W        W95514  25.448   5.361   0.304
23090W        W95515  42.412  20.779  12.352
23091W        W95516  28.922  18.235  12.291
23092W        W95517  28.859  42.750  11.110
23093W        W95518  14.315  36.143   4.660
23094W        W95519  30.048  16.790  12.814
23095W        W95520  32.163  23.583  13.306
23096W        W95521   5.848   8.388   1.385
23097W        W95522  17.125   8.268   2.505
23098W        W95523  31.209  22.753  10.463
23099W        W95524   9.016  18.096  10.853
23100W        W95525  22.274   9.716  14.925
23101W        W95526  28.086  18.825  12.727
23102W        W95527  32.844  22.182  14.723
23103W        W95528  12.779  34.177  13.222
23104W        W95529  44.818   2.214  14.515
23105W        W95530   5.470  39.892   2.845
23106W        W95531  10.045  14.694  13.570
23107W        W95532   2.866  11.719   1.765
23108W        W95533  25.137  12.554  14.886
23109W        W95534  34.367  22.497  13.236
23110W        W95535  32.244  19.130   0.460
23111W        W95536   1.893   7.645  12.004
23112W        W95537   5.266  10.752   1.178
23113W        W95538   4.864  40.923   1.813
23114W        W95539  12.807  20.187   3.153
23115W        W95540  42.366  15.624  12.580
23116W        W95541  37.914  32.303   3.416
23117W        W95542  40.489   0.264   0.875
23118W        W95543  31.352  14.841  12.836
23119W        W95544  19.123  34.808   2.368
23120W        W95545  18.355  21.389  13.565
23121W        W95546   2.026  39.378  14.896
23122W        W95547  20.006  37.345   4.175
23123W        W95548  20.065  18.215  14.813
23124W        W95549  11.219  43.360   0.910
23125W        W95550   6.220  18.189  14.407
23126W        W95551  10.778  27.877   2.459
23127W        W95552  17.071  30.564  11.637
23128W        W95553  36.046  43.074   5.081
23129W        W95554   0.248  23.140   3.074
23130W        W95555  32.694  12.139  12.538
23131W        W95556  11.320  12.587   2.307
23132W        W95557   2.298  12.436  12.642
23133W        W95558  11.278  18.123  10.438
23134W        W95559  35.608  44.860   2.334
23135W        W95560  15.285  16.577   1.788
23136W        W95561  15.142  44.897  13.048
23137W        W95562  23.825  22.198   2.336
23138W        W95563  17.241  40.310   4.568
23139W        W95564  29.023   1.606  13.338
23140W        W95565  32.364  32.108   4.649
23141W        W95566  29.912  20.677  12.905
23142W        W95567  40.670   6.433   5.089
23143W        W95568  26.037  14.728  12.381
23144W        W95569  36.953  33.374   2.685
23145W        W95570  17.301  36.387   3.549
23146W        W95571  27.195  27.092   4.300
23147W        W95572  10.302   8.615   0.033
23148W        W95573  35.111  35.792  12.855
23149W        W95574  24.988  15.054  12.936
23150W        W95575   9.891  17.478  11.948
23151W        W95576  32.813  32.897  14.611
23152W        W95577  29.143  12.303   4.743
23153W        W95578  27.045  13.905  11.237
23154W        W95579  16.573  37.507  10.592
23155W        W95580  40.148  35.616  10.943
23156W        W95581  28.492  27.258  13.156
23157W        W95582  34.939  38.030   0.049
23158W        W95583  37.431   0.704   2.117
23159W        W95584  21.651  30.576  12.614
23160W        W95585  18.317  34.107  10.649
23161W        W95586   8.256  23.390   1.253
23162W        W95587   7.663  17.141  10.860
23163W        W95588  18.193  17.276   1.360
23164W        W95589  40.538   9.409  10.673
23165W        W95590  25.612  10.747   1.097
23166W        W95591   1.395  43.631  10.854
23167W        W95592  39.502  17.618  13.823
23168W        W95593  42.385  34.188   4.265
23169W        W95594   9.089  33.707   0.986
23170W        W95595   4.297  39.791  12.615
23171W        W95596  28.851  33.288   3.677
23172W        W95597  35.582   7.397  10.084
23173W        W95598   5.435  18.700   0.936
23174W        W95599  28.013   9.313   3.321
23175W        W95600  12.255  40.934   0.395
23176W        W95601  18.414  30.294   2.747
23177W        W95602  11.712  36.479   2.101
23178W        W95603   8.366   4.826  12.870
23179W        W95604  15.702  22.531  13.271
23180W        W95605   8.742  12.334  13.335
23181W        W95606  27.511  43.593  13.410
23182W        W95607  28.097  30.581   2.848
23183W        W95608  28.639   7.455   3.286
23184W        W95609  38.909  41.820   0.735
23185W        W95610  17.801  42.565  13.043
23186W        W95611   3.679  31.411  11.520
23187W        W95612  32.141  11.322   1.721
23188W        W95613  23.565  38.832  11.138
23189W        W95614  40.869   3.737  11.731
23190W        W95615  41.999  10.596   1.136
23191W        W95616  38.929   4.784  11.299
23192W        W95617  39.042  13.158  13.851
23193W        W95618  37.774  29.118  10.472
23194W        W95619  30.126   0.704   0.536
23195W        W95620  10.360  42.868   4.107
23196W        W95621  28.938  35.047  12.579
23197W        W95622  37.036  26.994   1.366
23198W        W95623  11.836   9.769   4.120
23199W        W95624  10.604  44.779   3.234
23200W        W95625  38.031  14.824  11.371
23201W        W95626  23.453  17.504  12.612
23202W        W95627  42.736  42.863  14.896
23203W        W95628  42.575  23.069   9.665
23204W        W95629  32.459  28.255  13.541
23205W        W95630  39.989  26.014  12.836
23206W        W95631  43.104   3.678   1.931
23207W        W95632  11.732  13.093   4.530
23208W        W95633   0.348  37.280  14.238
23209W        W95634  33.984  38.447   1.821
23210W        W95635   7.400  44.226  11.155
23211W        W95636  37.968   8.311   3.263
23212W        W95637  31.389   4.399   0.288
23213W        W95638  17.853  27.141  14.885
23214W        W95639  20.189   9.647   4.350
23215W        W95640  21.337  13.719  13.547
23216W        W95641   4.331  38.955  14.767
23217W        W95642  32.828  23.204  13.512
23218W        W95643  14.682  41.802  13.078
23219W        W95644  18.026  35.136   4.136
23220W        W95645  22.002   9.770   0.377
23221W        W95646  34.613  12.655   3.020
23222W        W95647   1.986  22.076  10.760
23223W        W95648  27.697   4.925  10.516
23224W        W95649   8.102   3.819   0.038
23225W        W95650  18.699  24.134   4.382
23226W        W95651  26.541  35.034  10.894
23227W        W95652  27.539  39.079   1.385
23228W        W95653  18.249  20.777   3.136
23229W        W95654   5.327  39.742  12.839
23230W        W95655  44.999  33.468  11.834
23231W        W95656   1.942   5.238   4.637
23232W        W95657  33.136  34.912   2.578
23233W        W95658   3.795  30.608   1.489
23234W        W95659  27.035  36.079   0.368
23235W        W95660  22.005  30.624  10.681
23236W        W95661  29.936  18.316   4.365
23237W        W95662  41.235  25.442   1.744
23238W        W95663  44.492  33.281   2.269
23239W        W95664  36.034  29.202   2.678
23240W        W95665  35.621   5.451  12.827
23241W        W95666  27.399  14.165   0.312
23242W        W95667  31.593  35.553  10.669
23243W        W95668   7.426  26.577  13.393
23244W        W95669  25.594  30.681  14.836
23245W        W95670  17.419  23.603   0.343
23246W        W95671  24.548  28.191  11.484
23247W        W95672  12.131  18.769   3.161
23248W        W95673  30.830  42.357  12.129
23249W        W95674  42.829  26.779  13.153
23250W        W95675  30.629   0.024  14.983
23251W        W95676  19.243  18.852   2.426
23252W        W95677  31.226  21.790   4.723
23253W        W95678  20.271  37.904  14.973
23254W        W95679  42.938   9.204   1.021
23255W        W95680  37.228  18.541   2.299
23256W        W95681  26.439  25.733   1.428
23257W        W95682   6.190  26.607   1.610
23258W        W95683  15.083   7.017   2.394
23259W        W95684  10.883  27.410  11.994
23260W        W95685  22.490  25.657   3.188
23261W        W95686  18.737  17.798  10.673
23262W        W95687  33.351  44.811  12.446
23263W        W95688  16.217  27.414  11.600
23264W        W95689   6.899  28.372   1.165
23265W        W95690  31.015  44.947   3.365
23266W        W95691  16.338  10.464  14.541
23267W        W95692  23.670  17.711   0.993
23268W        W95693  17.552  20.076  12.866
23269W        W95694  23.271   2.275  12.832
23270W        W95695  35.567  40.840   3.731
23271W        W95696  24.143  34.799  14.367
23272W        W95697  26.893  10.178   3.770
23273W        W95698  39.944  29.106   0.444
23274W        W95699  44.758  27.996   4.552
23275W        W95700   3.455  10.295   4.071
23276W        W95701   6.362  13.459   4.985
23277W        W95702  30.445  15.763   1.912
23278W        W95703  24.742  13.817   0.934
23279W        W95704   7.741  12.834  14.649
23280W        W95705  28.289  24.596   1.216
23281W        W95706   9.287  16.663  11.666
23282W        W95707   8.248  30.863   3.901
23283W        W95708   2.798  35.560   2.185
23284W        W95709  25.768   1.473   1.407
23285W        W95710  16.068   6.196   2.861
23286W        W95711  24.880  41.509   2.347
23287W        W95712  13.114  12.597  14.486
23288W        W95713  34.558  26.837   3.266
23289W        W95714  14.288  19.628  13.799
23290W        W95715  40.544  44.838  13.057
23291W        W95716  14.997  14.653  14.490
23292W        W95717  11.452  10.086   9.745
23293W        W95718   5.253  24.474   3.969
23294W        W95719  10.365   7.041  11.564
23295W        W95720  31.682  39.902  13.579
23296W        W95721  31.875  11.348   0.300
23297W        W95722   9.798  41.961  11.977
23298W        W95723  25.130  32.582  14.045
23299W        W95724  41.582   6.755  14.953
23300W        W95725   2.355  30.601  11.347
23301W        W95726  30.732   2.495  11.089
23302W        W95727  10.064  26.385  14.379
23303W        W95728  31.458  22.758   5.311
23304W        W95729  42.866  18.334  13.334
23305W        W95730  22.013  40.505  10.473
23306W        W95731  43.773   2.472  14.270
23307W        W95732   8.415  31.899   3.806
23308W        W95733  12.176  28.725  11.238
23309W        W95734  16.582  26.457   4.643
23310W        W95735  23.646  27.158  14.969
23311W        W95736  27.512  39.377   0.039
23312W        W95737  42.398   8.782   4.239
23313W        W95738  24.380  37.518   4.630
23314W        W95739  23.514  22.019   0.577
23315W        W95740  38.922   6.437  14.356
23316W        W95741  27.664  12.659  13.791
23317W        W95742   6.430   7.738   1.694
23318W        W95743   5.456  44.871  10.454
23319W        W95744  21.629  16.009   1.314
23320W        W95745  38.513  37.707   5.066
23321W        W95746   6.157  14.770  13.304
23322W        W95747  43.173  36.565  13.107
23323W        W95748  28.582  27.267  10.730
23324W        W95749  18.699  18.881  10.804
23325W        W95750  30.846  36.076   4.545
23326W        W95751   5.797  28.073   3.244
23327W        W95752  12.812  24.607   4.274
23328W        W95753  21.713   4.431   0.148
23329W        W95754  10.652  26.949   3.378
23330W        W95755  20.051  34.774   0.801
23331W        W95756  34.879  14.776   2.816
23332W        W95757   2.215  20.807   1.107
23333W        W95758   7.178  43.922   1.710
23334W        W95759  42.331  29.685  11.036
23335W        W95760  28.987  21.204  12.320
23336W        W95761  14.143  40.540  11.289
23337W        W95762  19.058  28.957  13.098
23338W        W95763  42.933   7.452  13.656
23339W        W95764  42.082  38.080  13.851
23340W        W95765  19.740  37.145  13.037
23341W        W95766  37.355  13.124   2.381
23342W        W95767  23.457  25.203   0.256
23343W        W95768  34.870  25.363  14.830
23344W        W95769  36.816  25.474  11.661
23345W        W95770  43.519  19.220   2.303
23346W        W95771  42.559  44.732   1.378
23347W        W95772   7.684  31.662   0.766
23348W        W95773  40.498  21.180   9.717
23349W        W95774   9.206   3.406  11.852
23350W        W95775  18.312  21.775   0.319
23351W        W95776  40.408  29.496   4.247
23352W        W95777  11.112  44.276   3.158
23353W        W95778  23.315   8.202  13.039
23354W        W95779   4.186  41.877  12.337
23355W        W95780  19.778  39.291  10.626
23356W        W95781  18.715   4.748  12.843
23357W        W95782  27.150   6.720  11.089
23358W        W95783  15.252  39.999   3.216
23359W        W95784  18.802  12.860  11.837
23360W        W95785  30.437  31.530  13.489
23361W        W95786   2.050  44.801   3.143
23362W        W95787  13.769  40.529   2.722
23363W        W95788  39.927   8.317  14.311
23364W        W95789  10.076  43.891  10.798
23365W        W95790  12.427   5.176  14.906
23366W        W95791   4.199  11.287  11.596
23367W        W95792  14.660  33.992  13.352
23368W        W95793  30.774  30.637  13.893
23369W        W95794  14.672   8.958  13.437
23370W        W95795  11.711  27.369   4.599
23371W        W95796  31.681   8.135  11.614
23372W        W95797  11.704  32.618   3.782
23373W        W95798  27.981   0.782  12.326
23374W        W95799  34.261  25.214   0.817
23375W        W95800  42.522  19.198  13.076
23376W        W95801  28.986  39.336  12.693
23377W        W95802   0.496  26.219  13.650
23378W        W95803  33.301  41.551   0.226
23379W        W95804  15.045  15.006  13.064
23380W        W95805  41.358  43.870   0.545
23381W        W95806   3.277  17.113   0.208
23382W        W95807  25.609  13.085  14.049
23383W        W95808   2.323  15.197   1.857
23384W        W95809  34.714   7.141  13.341
23385W        W95810  10.405  10.571  12.527
23386W        W95811  38.567  25.081   4.880
23387W        W95812  36.336   2.674   0.569
23388W        W95813  41.209  29.671   0.470
23389W        W95814  14.608  20.161   0.775
23390W        W95815  20.550  23.013   0.887
23391W        W95816  34.706  40.921   0.718
23392W        W95817   1.350   9.139   0.284
23393W        W95818  19.695  16.156   1.698
23394W        W95819  23.299  11.455  10.320
23395W        W95820  10.586  41.914  11.505
23396W        W95821  15.707  26.193  11.795
23397W        W95822  29.032  21.626  10.950
23398W        W95823  10.025   3.795   3.774
23399W        W95824  38.760  32.415  14.980
23400W        W95825  12.683  26.550  13.452
23401W        W95826  41.363   7.260  14.837
23402W        W95827   4.622  40.399   9.951
23403W        W95828   9.954  33.700  13.766
23404W        W95829  34.856  30.112   1.296
23405W        W95830  23.290  27.642  13.427
23406W        W95831  42.918   5.315  12.234
23407W        W95832  35.903  20.562  14.348
23408W        W95833  36.522  40.405  14.215
23409W        W95834  17.189  29.795   3.058
23410W        W95835  27.461  20.021   3.691
23411W        W95836  32.377  31.164   0.367
23412W        W95837  12.517  36.239  12.124
23413W        W95838  38.393  21.152   2.892
23414W        W95839   7.232  28.819   3.243
23415W        W95840   0.710  35.370  11.690
23416W        W95841  33.093   2.674   3.340
23417W        W95842  32.063   1.737   2.894
23418W        W95843  25.490  23.724  12.294
23419W        W95844   6.819   5.698   4.845
23420W        W95845   7.197  44.415   1.331
23421W        W95846  44.221  30.083  11.715
23422W        W95847  30.183  17.507   2.772
23423W        W95848  28.360  16.543   2.727
23424W        W95849  38.077  38.260   3.395
23425W        W95850  18.651  29.155   9.607
23426W        W95851  29.548  30.792   3.686
23427W        W95852  41.864  25.629   2.898
23428W        W95853  14.696  23.164   0.820
23429W        W95854  33.903  39.596   4.872
23430W        W95855  17.239  22.140   2.158
23431W        W95856  41.317  22.572  10.623
23432W        W95857  40.129   8.267   1.189
23433W        W95858  29.608  11.602  13.464
23434W        W95859  35.528  34.544  14.384
23435W        W95860  33.118  26.935  13.395
23436W        W95861  14.582   0.007   4.215
23437W        W95862   4.173   8.460  13.941
23438W        W95863  23.087  38.758  11.606
23439W        W95864  25.059  27.576  14.129
23440W        W95865  12.146  31.198  11.617
23441W        W95866   9.634   3.955  10.583
23442W        W95867  36.064  23.104  11.204
23443W        W95868  35.351  25.591  11.639
23444W        W95869  10.372  11.221  10.909
23445W        W95870   2.671  20.602   0.910
23446W        W95871  31.722  14.610  11.905
23447W        W95872   0.050  38.908  12.306
23448W        W95873  42.313  18.230   0.846
23449W        W95874  10.878   6.364   2.421
23450W        W95875  33.217   0.943  12.858
23451W        W95876   6.495  32.042   4.461
23452W        W95877  40.074  44.989   4.885
23453W        W95878  35.880  11.197   2.894
23454W        W95879   9.452  41.417  10.029
23455W        W95880   7.357   7.490   3.156
23456W        W95881   9.645   2.025  12.448
23457W        W95882  12.707  38.322  14.963
23458W        W95883  17.509  40.374   3.217
23459W        W95884  29.191  39.420   1.173
23460W        W95885  37.919  37.599  13.346
23461W        W95886  22.783  16.034  14.008
23462W        W95887  20.610  20.963   3.248
23463W        W95888  17.628   1.549   3.251
23464W        W95889  38.995   3.220  10.151
23465W        W95890  10.314  36.836  13.617
23466W        W95891  44.751  27.667   3.612
23467W        W95892  12.789  10.179  13.531
23468W        W95893  25.942  35.604  10.592
23469W        W95894   6.916  21.691   0.555
23470W        W95895  16.782  22.272   3.435
23471W        W95896  40.406  42.965  14.959
23472W        W95897  29.681   4.534  13.392
23473W        W95898  28.919  10.597   4.682
23474W        W95899  36.003  38.397  12.965
23475W        W95900   9.409   4.699  12.400
23476W        W95901  27.679  41.413  14.271
23477W        W95902   9.255   5.722   3.724
23478W        W95903  17.711  34.434   0.841
23479W        W95904   4.207  17.660   2.788
23480W        W95905  11.550  24.263  11.027
23481W        W95906  41.158  35.499   2.743
23482W        W95907   7.280  35.070   4.557
23483W        W95908   0.458  32.425  10.594
23484W        W95909  37.323  18.361   3.633
23485W        W95910   9.818   3.242  13.137
23486W        W95911   8.463   9.126  10.523
23487W        W95912  33.987  30.184  12.649
23488W        W95913   2.322  35.472  14.480
23489W        W95914  21.685  30.001  11.515
23490W        W95915  13.572  17.220   2.452
23491W        W95916  32.140  20.097  14.752
23492W        W95917   0.476  41.353  14.769
23493W        W95918  39.411  42.125   2.870
23494W        W95919   3.933  32.329   0.940
23495W        W95920   1.998  29.868   3.618
23496W        W95921   7.703  33.987  10.718
23497W        W95922   1.191  13.083  11.951
23498W        W95923  44.791  26.178  11.737
23499W        W95924   5.202  40.221   0.499
23500W        W95925  31.158  20.994   0.980
23501W        W95926  33.075  41.444   2.028
23502W        W95927  32.449  23.829  12.937
23503W        W95928  35.006   4.889   2.303
23504W        W95929  18.980  34.398  10.561
23505W        W95930  16.395  31.142   1.722
23506W        W95931   5.291   5.649   4.203
23507W        W95932   3.413   1.382  10.723
23508W        W95933  28.153  12.072   1.913
23509W        W95934   7.183  33.927  10.712
23510W        W95935  21.334   1.220  11.761
23511W        W95936  23.163   1.082   0.833
23512W        W95937  31.965  35.579   1.947
23513W        W95938  37.006  12.549  14.347
23514W        W95939  44.513  28.478   3.323
23515W        W95940  17.787  19.076  11.885
23516W        W95941  24.596  42.611  14.307
23517W        W95942  42.551  16.748   1.329
23518W        W95943   4.293  15.749  11.372
23519W        W95944  20.168  16.922   4.533
23520W        W95945  43.331  29.684  13.774
23521W        W95946  18.787  26.846  12.586
23522W        W95947  32.473  20.203   3.465
23523W        W95948  27.769  17.626  14.956
23524W        W95949  32.196  30.120  12.416
23525W        W95950   0.493  36.126  10.539
23526W        W95951  36.958   0.487   3.309
23527W        W95952  30.574  30.027   2.229
23528W        W95953   1.808   4.244   2.383
23529W        W95954  42.846  41.994  13.872
23530W        W95955  10.462   2.978   1.030
23531W        W95956   1.969  42.916   0.792
23532W        W95957  17.919  28.506   4.930
23533W        W95958  22.455  44.349  14.640
23534W        W95959   8.187  22.602  13.769
23535W        W95960   7.520  25.245   2.840
23536W        W95961  26.481  30.692   2.786
23537W        W95962  19.632  18.328  10.632
23538W        W95963   7.512  21.127   0.875
23539W        W95964  28.538  12.635   4.854
23540W        W95965  26.099  35.098   4.748
23541W        W95966  12.665  35.625  13.670
23542W        W95967  25.539  10.812  12.496
23543W        W95968  11.353  42.271  13.051
23544W        W95969  40.327   0.363   9.961
23545W        W95970  19.542  26.941  13.323
23546W        W95971  32.940  38.771  12.305
23547W        W95972   8.954  25.956  10.207
23548W        W95973  18.810  26.428  10.621
23549W        W95974  11.765  43.916  11.449
23550W        W95975  35.563  37.814   4.145
23551W        W95976  30.008   1.369   1.251
23552W        W95977  32.513  24.168  10.721
23553W        W95978  10.186  32.573  14.811
23554W        W95979  22.593  20.439   2.449
23555W        W95980  14.088  30.956   3.991
23556W        W95981  11.315  38.811  14.870
23557W        W95982  32.456  12.662   0.011
23558W        W95983  43.355   5.976  13.496
23559W        W95984  16.806  43.579   1.251
23560W        W95985  38.104  31.825   1.835
23561W        W95986  42.871   0.841   3.586
23562W        W95987  17.340   2.063   2.882
23563W        W95988   1.995  24.108   2.788
23564W        W95989   3.368  29.634   3.235
23565W        W95990  32.934  41.148  11.957
23566W        W95991  23.922   7.180   1.366
23567W        W95992   7.089  27.120  12.856
23568W        W95993   7.831  17.130  14.946
23569W        W95994  40.395  38.913   3.692
23570W        W95995  40.494  18.228  11.620
23571W        W95996  16.666  14.153  13.889
23572W        W95997  26.610  12.318  10.633
23573W        W95998  27.433  34.454   2.802
23574W        W95999  39.828  24.313  12.860
23575W        W96000  30.165   2.345   0.299
23576W        W96001  12.425  40.413   0.330
23577W        W96002  14.192  18.031   4.679
23578W        W96003  40.394   0.046  11.630
23579W        W96004   3.010  42.965  10.636
23580W        W96005  44.250   0.840  14.970
23581W        W96006  12.556   1.392  14.450
23582W        W96007   3.839  21.556   3.067
23583W        W96008  40.254  26.452   2.382
23584W        W96009  26.599  24.295   2.259
23585W        W96010  28.247  41.095   4.154
23586W        W96011  21.652  26.661   1.924
23587W        W96012  18.655   3.778   2.697
23588W        W96013   1.431  35.159  11.600
23589W        W96014  14.677  15.108  11.015
23590W        W96015   2.071   6.773  10.704
23591W        W96016  21.173  21.587   2.574
23592W        W96017   5.800  41.985  14.976
23593W        W96018   6.869  44.269  12.947
23594W        W96019  41.934  28.011   2.396
23595W        W96020  18.612   5.283  10.598
23596W        W96021  44.498  38.539  10.684
23597W        W96022  30.615  25.176  13.002
23598W        W96023  16.445   0.607  14.351
23599W        W96024   9.396   8.393   4.646
23600W        W96025  16.282   2.887   4.606
23601W        W96026   5.340   3.659  14.110
23602W        W96027   2.418  16.015  11.020
23603W        W96028  31.510  43.447  13.812
23604W        W96029   0.785  14.827   4.123
23605W        W96030  22.076  29.665  11.499
23606W        W96031  23.907  19.036  14.191
23607W        W96032  42.488  17.510   0.310
23608W        W96033  34.166  24.472  11.174
23609W        W96034  18.760  24.079  14.329
23610W        W96035  26.759  25.178   2.823
23611W        W96036  32.135  14.801   0.893
23612W        W96037  32.269  16.513   5.046
23613W        W96038  17.158  24.794  12.593
23614W        W96039  37.901  43.004   0.444
23615W        W96040  23.989   1.469  14.732
23616W        W96041   5.709  16.491  14.141
23617W        W96042  20.084  23.253  13.091
23618W        W96043   8.851   6.887  11.893
23619W        W96044  44.699   7.250  11.057
23620W        W96045   5.315  13.100   1.758
23621W        W96046  30.803  12.849  10.902
23622W        W96047  11.833  12.190   4.623
23623W        W96048   9.260  17.780  14.757
23624W        W96049   9.249  15.764   0.038
23625W        W96050  19.668   7.800  11.118
23626W        W96051   7.691   5.773  11.186
23627W        W96052  14.507  22.046   1.550
23628W        W96053  23.917   8.037   1.855
23629W        W96054  38.505  32.700  11.416
23630W        W96055  35.535  12.000  11.538
23631W        W96056  17.330  40.235  12.317
23632W        W96057   1.451  18.029  12.031
23633W        W96058  27.745  31.036   9.829
23634W        W96059  30.609   9.289  12.968
23635W        W96060  10.386  24.581   2.261
23636W        W96061  38.823  20.480   3.213
23637W        W96062  24.200  27.016   0.738
23638W        W96063  37.563  21.040   0.854
23639W        W96064  28.733  31.204  14.484
23640W        W96065  36.262  21.545  12.017
23641W        W96066  12.591  34.529   2.640
23642W        W96067  31.643  27.383   1.353
23643W        W96068  38.048  17.801   2.708
23644W        W96069   2.222  35.429   1.721
23645W        W96070  15.772  23.786   0.831
23646W        W96071  30.515   0.484  14.295
23647W        W96072  19.332  11.753   3.991
23648W        W96073  18.299  42.992   5.089
23649W        W96074  41.936  10.463  14.435
23650W        W96075  28.076  37.037   0.398
23651W        W96076   4.153  18.584   2.903
23652W        W96077  29.561  25.783   0.236
23653W        W96078  29.197  41.004   4.604
23654W        W96079  23.557  35.734   2.690
23655W        W96080  10.631  23.796   1.314
23656W        W96081  43.599  15.822  13.053
23657W        W96082  40.911  26.984  11.147
23658W        W96083  25.483   1.735  14.960
23659W        W96084  13.823  27.397  14.474
23660W        W96085  38.573  35.933  13.910
23661W        W96086  17.730  40.334  11.643
23662W        W96087  20.550  10.781   1.156
23663W        W96088  10.863  34.481  13.883
23664W        W96089  41.425   3.374  14.483
23665W        W96090   8.759   3.113   2.746
23666W        W96091   2.343  10.108  11.996
23667W        W96092  40.215   3.484   4.093
23668W        W96093  41.754  22.705   1.004
23669W        W96094   3.340  13.646  12.851
23670W        W96095  23.229  25.391   0.718
23671W        W96096  39.364  22.023   4.088
23672W        W96097   6.605  21.991  14.306
23673W        W96098   7.413  44.604   1.786
23674W        W96099   3.864  15.343  12.918
23675W        W96100  23.448  32.493  11.538
23676W        W96101  44.654  14.947  13.762
23677W        W96102  37.818  24.508  13.581
23678W        W96103  29.971  12.589  14.905
23679W        W96104  15.706  13.837  13.453
23680W        W96105  14.035  13.798  11.167
23681W        W96106  13.551   4.881   0.718
23682W        W96107  22.814  34.779   1.264
23683W        W96108  16.973   8.448  13.027
23684W        W96109  25.089  21.426   1.293
23685W        W96110  20.240   4.907  10.015
23686W        W96111   8.797  26.938   3.422
23687W        W96112  39.534  26.934   0.309
23688W        W96113  38.255  33.944  12.045
23689W        W96114   4.767  27.565  14.937
23690W        W96115   7.457  37.552   9.877
23691W        W96116  43.262  34.870   4.087
23692W        W96117   1.697  29.575   2.646
23693W        W96118   0.786  24.807  11.567
23694W        W96119  14.544   6.097  10.855
23695W        W96120   0.359  25.877  13.304
23696W        W96121  14.729  40.436   4.247
23697W        W96122  28.090  31.163   5.082
23698W        W96123  15.906  13.020  10.684
23699W        W96124  38.353  40.126   0.494
23700W        W96125  40.572  36.569  13.385
23701W        W96126  11.853   9.245   0.546
23702W        W96127  39.976  41.454   1.789
23703W        W96128   7.827  24.027  11.066
23704W        W96129   9.816  25.085  10.646
23705W        W96130  29.969  19.354  13.383
23706W        W96131  25.077  22.453   1.248
23707W        W96132  19.004  30.105  13.193
23708W        W96133   9.346  21.495   2.477
23709W        W96134  43.853  16.863  12.536
23710W        W96135  31.050  35.345   0.411
23711W        W96136  26.633  41.355  12.140
23712W        W96137   0.904   9.604  12.649
23713W        W96138  16.177  10.172   3.630
23714W        W96139  24.097  37.873   2.523
23715W        W96140  35.143  25.156  13.378
23716W        W96141  27.511   5.291  12.964
23717W        W96142  22.484  14.388   1.915
23718W        W96143  28.853  34.297   3.599
23719W        W96144  14.688  14.082  12.300
23720W        W96145  13.133  41.292  14.399
23721W        W96146  44.258  21.510  10.689
23722W        W96147  42.686  23.196   3.092
23723W        W96148  21.766   1.850   5.076
23724W        W96149  36.840  28.486   1.352
23725W        W96150  33.328  43.718  13.946
23726W        W96151  25.361  13.409   2.678
23727W        W96152  37.440  23.254  12.578
23728W        W96153  10.750  18.977   0.980
23729W        W96154  40.076  17.513  10.304
23730W        W96155   9.842  36.482  11.520
23731W        W96156  22.359  30.332  13.055
23732W        W96157  17.803  12.595   2.853
23733W        W96158  34.080  22.758   0.868
23734W        W96159   9.119  41.475  13.668
23735W        W96160  33.536  37.958   1.778
23736W        W96161   4.172  13.540  11.668
23737W        W96162  27.929  35.221  10.817
23738W        W96163  26.999  41.425  14.911
23739W        W96164  19.243  39.583   1.757
23740W        W96165  19.271  26.787  14.896
23741W        W96166  20.962  19.572  13.902
23742W        W96167  30.894  37.274  11.645
23743W        W96168  19.495  29.347   3.278
23744W        W96169  13.376   5.157  13.916
23745W        W96170  33.444  43.984  12.094
23746W        W96171  14.673  25.698   2.081
23747W        W96172  37.681   3.847   2.794
23748W        W96173  35.873   4.371  10.631
23749W        W96174  19.585  43.302  10.639
23750W        W96175  31.397   8.710  13.756
23751W        W96176  21.278  19.738   0.171
23752W        W96177  19.162  43.751  12.807
23753W        W96178  38.534  16.531  11.649
23754W        W96179   8.167  26.965   2.099
23755W        W96180  13.620   8.096   3.605
23756W        W96181  23.351   6.977   0.816
23757W        W96182  11.092  36.435  14.609
23758W        W96183  23.999   8.962   4.196
23759W        W96184  37.850   9.335  11.453
23760W        W96185  32.495   4.921  12.887
23761W        W96186  19.763  42.254  14.088
23762W        W96187  26.149  19.606   3.255
23763W        W96188  18.641  43.513   2.888
23764W        W96189  34.342  29.438  13.410
23765W        W96190  41.670  34.504   4.651
23766W        W96191  34.167  21.506   1.908
23767W        W96192  32.636  38.005   0.273
23768W        W96193  25.187  39.347  12.887
23769W        W96194  17.847  39.819  12.910
23770W        W96195  26.539   4.639  11.140
23771W        W96196  35.144  35.202   1.273
23772W        W96197   2.972  30.403  14.243
23773W        W96198  40.076   2.752   1.428
23774W        W96199  32.925  38.496   2.637
23775W        W96200  43.248  40.604  12.841
23776W        W96201   1.765   5.057  10.625
23777W        W96202   1.259  39.443   2.400
23778W        W96203  31.104  28.985   0.322
23779W        W96204  12.522  43.431  10.940
23780W        W96205  17.476  19.967  14.438
23781W        W96206   8.809   5.227   2.925
23782W        W96207   2.208  30.319   0.803
23783W        W96208   9.023  12.617  13.656
23784W        W96209   4.407   0.016  13.968
23785W        W96210   2.216   0.802  12.154
23786W        W96211  37.985  13.131  13.798
23787W        W96212  39.897  34.211  14.922
23788W        W96213  35.446  23.145   1.097
23789W        W96214  35.881  31.549   2.092
23790W        W96215   8.606  25.513   2.172
23791W        W96216  23.054  33.877  12.835
23792W        W96217  12.155  21.383  13.605
23793W        W96218  25.184   0.754  14.891
23794W        W96219   0.814  28.021  13.042
23795W        W96220  43.183  17.984   5.139
23796W        W96221  29.927   7.786  11.841
23797W        W96222   0.882   9.492   1.882
23798W        W96223   7.791  18.493   4.040
23799W        W96224   9.608  21.162  14.836
23800W        W96225   4.152   6.399   0.873
23801W        W96226   5.651  18.286  11.621
23802W        W96227  16.560  43.717  14.467
23803W        W96228  12.922  14.355  14.408
23804W        W96229   6.315  21.639   2.586
23805W        W96230  23.190  25.360  13.003
23806W        W96231   8.240  39.874   2.730
23807W        W96232  36.315  33.795   4.166
23808W        W96233  35.472  44.295   0.296
23809W        W96234  14.221  22.676   2.733
23810W        W96235   6.599   7.326   4.890
23811W        W96236  27.972   9.523   1.820
23812W        W96237  24.670   5.003  14.753
23813W        W96238   8.774  30.998   4.616
23814W        W96239  42.426   4.365   2.747
23815W        W96240  34.826  34.407  11.185
23816W        W96241  28.111  17.246  12.028
23817W        W96242  35.884  16.583   0.428
23818W        W96243   6.329  27.604   4.890
23819W        W96244   1.397  20.717  11.004
23820W        W96245  39.988  17.384   1.822
23821W        W96246  32.643   5.444  12.446
23822W        W96247   4.921  17.825  12.483
23823W        W96248  41.907   4.417  10.652
23824W        W96249   0.268  35.040   3.242
23825W        W96250  37.407   0.008  11.741
23826W        W96251  14.981   4.192  11.905
23827W        W96252  43.630  35.405   2.639
23828W        W96253  24.488  23.946   3.691
23829W        W96254  41.605  13.071  10.631
23830W        W96255   1.408  29.446  12.133
23831W        W96256  35.139  39.438  14.309
23832W        W96257  39.041  42.771   1.734
23833W        W96258  33.512  22.105   1.920
23834W        W96259   7.899   3.641   4.286
23835W        W96260  11.287  37.342   0.976
23836W        W96261   7.365  40.868   2.782
23837W        W96262  22.139  16.383   0.618
23838W        W96263  21.483  31.261   3.653
23839W        W96264   3.838  17.952   1.145
23840W        W96265  33.564  20.350   2.605
23841W        W96266  38.296   7.272   3.668
23842W        W96267  22.607  41.763  12.256
23843W        W96268  43.514  38.829  12.451
23844W        W96269  13.112  36.164   0.926
23845W        W96270   1.682   1.078  11.770
23846W        W96271  22.991  30.088   1.411
23847W        W96272  38.789  17.651  14.487
23848W        W96273  26.943  44.955   2.374
23849W        W96274  22.531  35.623   0.782
23850W        W96275  40.281  21.074   4.523
23851W        W96276  26.286   0.898  10.727
23852W        W96277  13.157  40.264  11.202
23853W        W96278  35.037  44.266  11.982
23854W        W96279  16.980  41.692   1.732
23855W        W96280  16.691  22.567  12.291
23856W        W96281  32.883  23.030   2.598
23857W        W96282  35.657  12.272  13.288
23858W        W96283  38.986   8.806  13.450
23859W        W96284   8.762  10.227  14.561
23860W        W96285  17.242  44.435   4.629
23861W        W96286  41.023  40.686   1.484
23862W        W96287  34.289  41.054  13.489
23863W        W96288  16.288  16.286   4.730
23864W        W96289  29.601  38.758   0.784
23865W        W96290  43.325  33.397   0.786
23866W        W96291   1.741  41.530  11.442
23867W        W96292   4.730  11.699  12.004
23868W        W96293  35.063  37.401  13.412
23869W        W96294  19.143  18.983   4.504
23870W        W96295  15.736  32.845  14.322
23871W        W96296   0.499  36.982   1.399
23872W        W96297  34.176  22.181  11.715
23873W        W96298  34.984   9.068   4.637
23874W        W96299  26.990  34.894  10.664
23875W        W96300   7.524  33.052  13.842
23876W        W96301  17.545  20.452   4.045
23877W        W96302  33.469  27.651   4.499
23878W        W96303  30.380  39.579   2.206
23879W        W96304  23.065  23.550  13.316
23880W        W96305  14.384  27.065  13.155
23881W        W96306  37.472  32.649   0.766
23882W        W96307  35.868  39.811   1.386
23883W        W96308  37.336  44.556  13.632
23884W        W96309   5.958   7.655  12.580
23885W        W96310   0.959  13.993   1.259
23886W        W96311  19.280   2.263  12.861
23887W        W96312  42.865   3.298   0.838
23888W        W96313  34.652   0.375  11.521
23889W        W96314  42.523  28.255   0.049
23890W        W96315  41.886  39.348   0.414
23891W        W96316  36.501  40.786  13.846
23892W        W96317  41.558  44.780   2.894
23893W        W96318   2.796   4.302  10.891
23894W        W96319   6.476  43.879  11.134
23895W        W96320  24.759  33.610  10.743
23896W        W96321  11.062   2.428   2.723
23897W        W96322   3.751  24.107   4.703
23898W        W96323  34.097   0.763  11.082
23899W        W96324  12.373  20.180  11.987
23900W        W96325  24.835  31.144   4.288
23901W        W96326  14.643  20.169  12.079
23902W        W96327  29.513   5.878  12.930
23903W        W96328   3.375  35.467   3.349
23904W        W96329  23.586  41.316  13.049
23905W        W96330  29.682   9.640   1.075
23906W        W96331  26.957   8.189   3.769
23907W        W96332   1.350  41.810  11.105
23908W        W96333  28.155  11.287   1.154
23909W        W96334  40.323  22.238   4.110
23910W        W96335  35.956  11.155   4.630
23911W        W96336  34.000  35.364  11.288
23912W        W96337  30.915  37.904  13.480
23913W        W96338  31.488   5.861  11.674
23914W        W96339  17.305  43.593  14.784
23915W        W96340   6.985  44.344  14.395
23916W        W96341  16.554  28.388   3.836
23917W        W96342  29.007   2.882   2.165
23918W        W96343  24.703  27.052  10.746
23919W        W96344  35.336  34.402   2.875
23920W        W96345  33.983  38.574  10.426
23921W        W96346  31.378   9.192   1.018
23922W        W96347  42.779  38.837   1.282
23923W        W96348  35.942  15.632   4.658
23924W        W96349   6.220  17.045   2.841
23925W        W96350  35.024  13.172  12.438
23926W        W96351  30.874  18.695  10.718
23927W        W96352  37.735  22.642   1.372
23928W        W96353   6.560  36.955   4.009
23929W        W96354   2.249   8.899   0.800
23930W        W96355   4.857  37.530   0.547
23931W        W96356   3.767   4.986  12.964
23932W        W96357  11.767  26.562  14.322
23933W        W96358  25.690  31.995   2.600
23934W        W96359  36.606  10.310  12.878
23935W        W96360  20.576  32.499   4.426
23936W        W96361  27.971  36.958  12.039
23937W        W96362  38.441  30.849  10.551
23938W        W96363  35.415  10.571  11.901
23939W        W96364  15.090  34.358   0.546
23940W        W96365  35.358  37.686   5.002
23941W        W96366  27.680  32.289   9.610
23942W        W96367  42.714  26.631   3.120
23943W        W96368  27.504   4.700  11.372
23944W        W96369  13.029  42.848  11.193
23945W        W96370  11.797  42.849  10.046
23946W        W96371   2.420   8.648   5.051
23947W        W96372   9.175  43.772  10.610
23948W        W96373  41.493  39.842   1.903
23949W        W96374  19.519  28.201  11.679
23950W        W96375   2.321  31.370   0.939
23951W        W96376   3.773  15.715  13.638
23952W        W96377  23.240  30.426   4.561
23953W        W96378   7.081  43.300  14.989
23954W        W96379  23.413   2.202  11.496
23955W        W96380  21.183  26.044  12.978
23956W        W96381  35.573  40.632   1.141
23957W        W96382  35.169   4.337  11.916
23958W        W96383  11.640  26.499   3.360
23959W        W96384  19.809  32.182   4.921
23960W        W96385  10.442  34.822   1.003
23961W        W96386  12.225  35.913  14.917
23962W        W96387  26.884  43.232   4.219
23963W        W96388  21.546   2.140   4.703
23964W        W96389  38.626   5.698   0.273
23965W        W96390  30.142  32.812  12.957
23966W        W96391   6.138  17.116   0.925
23967W        W96392   6.270  10.084   0.645
23968W        W96393   6.106  17.200   3.321
23969W        W96394  43.023  38.333   4.219
23970W        W96395  25.145   4.366   3.104
23971W        W96396  19.209  33.112   1.529
23972W        W96397  33.333  17.268   0.013
23973W        W96398  28.990  39.080   3.719
23974W        W96399  11.231   4.804  14.426
23975W        W96400  26.676  28.519   4.770
23976W        W96401  43.974  13.421  12.631
23977W        W96402  40.621  12.707  10.767
23978W        W96403  28.374  24.687   4.786
23979W        W96404   4.002  22.555  10.215
23980W        W96405  18.753  39.965  13.840
23981W        W96406  15.798   4.274  11.435
23982W        W96407  13.845  31.646  13.537
23983W        W96408  12.605  40.537  11.736
23984W        W96409  34.773  21.527  11.957
23985W        W96410   5.258  31.863   4.592
23986W        W96411  34.084  21.501   3.732
23987W        W96412  20.107  25.610   0.500
23988W        W96413  18.856  25.255  11.435
23989W        W96414  14.104  33.549   3.814
23990W        W96415  19.044  18.204   2.685
23991W        W96416  13.835   5.862   2.183
23992W        W96417  40.872  24.569  12.591
23993W        W96418  38.345   1.879  14.905
23994W        W96419  34.327  13.723  12.436
23995W        W96420   1.999  18.651  11.151
23996W        W96421  24.586  27.544  14.376
23997W        W96422  29.438  23.462   9.842
23998W        W96423  36.385  15.777   1.388
23999W        W96424  14.196  35.536  14.814
24000W        W96425  21.263  15.309   3.280
24001W        W96426  22.576  40.741   0.651
24002W        W96427  14.253  16.113  11.889
24003W        W96428  43.958  10.730   2.375
24004W        W96429  24.592  21.486   2.319
24005W        W96430  22.448  33.749   4.920
24006W        W96431   0.013  22.940   2.645
24007W        W96432  38.064  34.003  14.075
24008W        W96433  11.622  26.930  11.171
24009W        W96434  39.078  22.191  12.896
24010W        W96435  16.677  28.177  11.735
24011W        W96436  30.475  22.043  12.575
24012W        W96437  28.423  38.591  13.239
24013W        W96438   2.017  44.423   1.726
24014W        W96439  14.694   8.787   0.334
24015W        W96440  12.773  21.985   5.053
24016W        W96441  12.610  36.846  14.931
24017W        W96442  21.828  16.351   2.730
24018W        W96443  31.203  17.939  10.756
24019W        W96444  27.094   2.697   0.262
24020W        W96445  21.979  38.535   1.318
24021W        W96446  43.939  44.024   1.795
24022W        W96447  31.106  36.888   4.018
24023W        W96448  17.786  43.414   0.772
24024W        W96449   0.322  40.584  13.450
24025W        W96450   2.753  42.418   0.589
24026W        W96451  11.923  23.570   3.514
24027W        W96452  43.256   0.590   3.806
24028W        W96453   6.202  27.477  12.888
24029W        W96454  20.268  22.623   1.065
24030W        W96455  42.774  25.028  10.205
24031W        W96456   6.171   7.935  12.222
24032W        W96457  16.738  34.509   4.531
24033W        W96458  32.415  24.503  13.776
24034W        W96459  26.289  33.450   1.948
24035W        W96460  41.840  28.694   3.793
24036W        W96461  22.229  43.442   4.286
24037W        W96462  30.043  10.205   1.706
24038W        W96463  14.112  12.230  11.014
24039W        W96464  12.835   4.201  12.984
24040W        W96465  32.406  13.771   0.995
24041W        W96466  37.642  11.676   0.444
24042W        W96467   4.178  33.173   2.870
24043W        W96468  39.809  35.394   4.424
24044W        W96469  30.887  27.014  13.609
24045W        W96470  40.865  30.963  13.158
24046W        W96471  17.074  14.040  11.582
24047W        W96472   9.040  12.200  10.387
24048W        W96473  29.980  42.968  14.494
24049W        W96474  44.371  19.263   1.887
24050W        W96475  34.516  30.020   2.708
24051W        W96476  22.751  22.803  14.420
24052W        W96477  14.728  29.536   2.165
24053W        W96478  10.210  24.118   1.319
24054W        W96479  19.794  36.207  12.555
24055W        W96480  21.504   8.775  12.559
24056W        W96481  36.246   8.765   4.857
24057W        W96482   8.675   4.893   1.593
24058W        W96483  39.095  32.978   4.964
24059W        W96484   7.716  32.002   1.732
24060W        W96485   7.816  24.949   3.710
24061W        W96486  10.373  28.658   4.466
24062W        W96487  36.366  11.520  13.694
24063W        W96488  42.765  32.516  13.298
24064W        W96489  13.097  17.790   0.016
24065W        W96490   4.153  16.075  12.128
24066W        W96491  39.030   9.172  12.597
24067W        W96492  12.226   1.017  12.784
24068W        W96493  12.541  22.330  13.558
24069W        W96494   5.090  23.165  10.859
24070W        W96495   6.459  21.954  12.430
24071W        W96496  28.226   3.992   3.322
24072W        W96497  41.086  23.965  13.757
24073W        W96498  13.056  38.796  13.066
24074W        W96499  32.115  10.159   4.739
24075W        W96500   2.197  15.671   0.250
24076W        W96501   3.912  14.298  12.631
24077W        W96502  29.397  43.237   2.788
24078W        W96503  12.290  26.054  11.269
24079W        W96504   7.646   8.726  13.364
24080W        W96505  43.563  22.147   4.984
24081W        W96506  37.009  37.010  12.354
24082W        W96507   2.463  23.605   3.381
24083W        W96508  44.862  22.446   0.389
24084W        W96509   3.530  28.277   5.027
24085W        W96510   1.277  16.598  13.745
24086W        W96511  34.801  31.987  11.072
24087W        W96512  10.115  27.012  13.155
24088W        W96513   0.284   5.232   0.288
24089W        W96514   3.505  24.759   3.358
24090W        W96515  30.565   5.506  11.363
24091W        W96516  23.457  29.039   0.309
24092W        W96517  44.829  33.072  14.794
24093W        W96518  28.426  18.307  12.581
24094W        W96519  22.012  35.043  11.163
24095W        W96520  36.986  25.248   4.600
24096W        W96521   6.838  34.946   4.841
24097W        W96522  11.560  43.867   2.107
24098W        W96523  18.649  16.801  11.671
24099W        W96524   5.650  41.303  10.701
24100W        W96525  11.780  18.016  11.596
24101W        W96526  33.373  20.668   2.242
24102W        W96527   7.632   6.290   2.658
24103W        W96528  25.097  30.569   0.528
24104W        W96529  10.775  43.762  12.201
24105W        W96530   8.757  43.925  10.903
24106W        W96531  13.055  35.547  11.908
24107W        W96532  13.357  23.739  14.943
24108W        W96533  38.107  11.124  10.999
24109W        W96534   9.253  30.016  13.484
24110W        W96535  17.335  33.548  13.042
24111W        W96536  20.019  29.993   4.380
24112W        W96537  41.914  18.134   3.183
24113W        W96538  21.844  14.353  13.722
24114W        W96539  13.219   4.992  10.634
24115W        W96540  34.097  39.528   0.909
24116W        W96541  25.983  31.679   1.757
24117W        W96542  20.213  18.663  10.668
24118W        W96543  34.792  27.563   0.914
24119W        W96544  37.518  28.644  14.880
24120W        W96545  39.171  26.544   0.374
24121W        W96546   6.445  16.093  13.284
24122W        W96547  24.520  28.639  14.756
24123W        W96548  14.019  36.798  11.156
24124W        W96549  31.679  34.608   0.330
24125W        W96550  13.601   9.419  13.942
24126W        W96551  13.168   0.142   2.489
24127W        W96552  14.137  30.172   3.477
24128W        W96553   4.658  33.388   4.518
24129W        W96554   4.339  14.627  12.708
24130W        W96555  37.104  16.342  13.572
24131W        W96556  35.763  15.773  13.750
24132W        W96557  37.176  28.536   3.200
24133W        W96558  21.675  42.658   5.064
24134W        W96559  28.041  33.650  14.736
24135W        W96560  18.640  15.338   1.714
24136W        W96561  11.361   0.764   3.853
24137W        W96562  27.490  25.601   2.740
24138W        W96563  41.461  18.279  12.547
24139W        W96564   1.861   4.960  13.451
24140W        W96565   3.938  14.127   0.502
24141W        W96566  40.133  11.031   0.283
24142W        W96567  11.858  39.308   4.841
24143W        W96568   3.281  21.195  12.108
24144W        W96569  41.536  13.317   3.085
24145W        W96570  28.618  21.826  11.192
24146W        W96571  37.429  38.373   1.957
24147W        W96572   5.443  22.230  12.396
24148W        W96573  14.018  44.238   0.000
24149W        W96574  19.464   4.959  14.925
24150W        W96575  35.115  33.353  14.060
24151W        W96576  12.416  25.388  14.786
24152W        W96577  10.302  35.339  13.442
24153W        W96578  34.902  22.093   2.760
24154W        W96579  16.119  37.238  10.499
24155W        W96580  32.060  20.442   1.778
24156W        W96581  25.667  27.183  12.904
24157W        W96582  36.929  33.665   3.117
24158W        W96583  16.553  31.174  12.526
24159W        W96584  33.313  10.251  12.760
24160W        W96585   9.266  37.325  11.178
24161W        W96586   6.612  34.732  11.965
24162W        W96587  27.895  26.718  11.067
24163W        W96588  25.014  41.602   3.242
24164W        W96589   7.572   6.542  12.503
24165W        W96590  35.318  41.092  14.488
24166W        W96591  15.247  35.798  10.891
24167W        W96592   7.587   4.404  13.856
24168W        W96593   2.756  27.583   3.371
24169W        W96594   1.606  26.494  13.356
24170W        W96595   7.079  36.980   3.936
24171W        W96596  18.825  26.525   0.796
24172W        W96597  26.951  27.566   0.177
24173W        W96598  44.339  32.358  11.537
24174W        W96599  22.052  12.023  13.723
24175W        W96600  11.594  44.222  12.065
24176W        W96601  35.502  20.341   4.120
24177W        W96602  17.799  29.494   1.677
24178W        W96603  15.080  25.669  11.544
24179W        W96604  41.291  22.727   2.277
24180W        W96605  29.455   3.335  13.068
24181W        W96606   1.431   9.121   4.395
24182W        W96607  11.619  25.097  12.470
24183W        W96608   0.910  28.192   1.750
24184W        W96609  35.541  28.693  12.947
24185W        W96610  13.372  41.001  13.974
24186W        W96611   3.408  35.955   2.811
24187W        W96612   6.449  29.468   2.643
24188W        W96613  39.002  31.102  10.882
24189W        W96614   9.379  16.774  13.590
24190W        W96615  41.922  14.797   4.230
24191W        W96616  38.040  30.683  10.826
24192W        W96617  43.968  44.533   1.719
24193W        W96618  40.594  27.809   9.689
24194W        W96619  21.522  11.763  12.559
24195W        W96620   8.367  10.159  13.385
24196W        W96621  32.062  15.730   0.495
24197W        W96622   0.127  40.853   0.104
24198W        W96623  13.096   9.706  12.055
24199W        W96624  43.293   7.976   3.593
24200W        W96625  27.227   1.843   4.792
24201W        W96626  24.079  21.076  13.345
24202W        W96627  20.778   5.448  14.804
24203W        W96628   2.070  20.067   3.683
24204W        W96629  34.985  29.829  12.808
24205W        W96630  23.079   1.235  10.782
24206W        W96631  10.934  18.156  14.421
24207W        W96632  44.927  44.207  11.563
24208W        W96633  42.742  40.359   4.487
24209W        W96634  24.412  26.532   0.910
24210W        W96635   7.363  36.029   4.410
24211W        W96636  33.149  30.616   4.150
24212W        W96637  35.415  11.053   4.674
24213W        W96638  34.391  43.321   3.118
24214W        W96639  43.500  27.065  10.888
24215W        W96640  24.177   1.171  12.296
24216W        W96641  40.143  10.522   1.039
24217W        W96642   5.441   8.062   4.609
24218W        W96643  15.310  44.492   0.799
24219W        W96644   4.171  43.345  14.896
24220W        W96645   2.818  27.896  11.199
24221W        W96646  16.729  44.066   3.891
24222W        W96647  28.992  31.447  11.419
24223W        W96648   2.052  16.592   2.749
24224W        W96649  21.158  36.904  14.549
24225W        W96650  18.767  13.778  12.136
24226W        W96651   6.612   2.300   3.202
24227W        W96652  14.079  24.029   0.766
24228W        W96653  43.794  37.549  10.152
24229W        W96654   4.287  10.170  14.957
24230W        W96655  29.158  38.355  11.594
24231W        W96656   7.167  35.368   2.360
24232W        W96657   9.109  26.455   0.864
24233W        W96658  14.365  28.530  10.664
24234W        W96659   7.249   0.939  14.411
24235W        W96660  33.989  12.170   1.750
24236W        W96661  16.563   8.659   1.795
24237W        W96662   2.364  11.708  11.279
24238W        W96663  18.782  39.804   1.704
24239W        W96664   7.375  32.779  14.550
24240W        W96665  32.923  18.439   4.130
24241W        W96666  15.526   4.673   4.183
24242W        W96667  44.211  34.352   3.196
24243W        W96668   4.385   0.851  12.836
24244W        W96669  34.420  42.951  11.993
24245W        W96670  37.338  10.795   1.320
24246W        W96671  14.191   2.368   4.403
24247W        W96672  35.422  16.583   1.889
24248W        W96673  32.635  27.532   1.218
24249W        W96674  14.584  15.972   0.023
24250W        W96675  31.546  12.774  13.143
24251W        W96676  27.912  39.947   2.158
24252W        W96677  22.629  18.559   1.506
24253W        W96678   7.567  28.643  12.075
24254W        W96679  28.120  36.594  10.651
24255W        W96680  28.867  13.586  13.523
24256W        W96681  16.351  33.580   1.882
24257W        W96682   8.669   0.706  14.360
24258W        W96683  44.046  21.736  11.928
24259W        W96684  34.515  43.500  13.406
24260W        W96685  20.714  39.554   1.201
24261W        W96686   6.562  22.090  10.565
24262W        W96687   3.637  18.050  11.690
24263W        W96688  40.376  20.234  12.026
24264W        W96689  26.961  20.023  11.906
24265W        W96690  40.993  35.023   1.876
24266W        W96691  27.566   5.662  14.956
24267W        W96692  42.165  14.890  10.895
24268W        W96693   0.502  37.803   3.633
24269W        W96694  26.602   1.041   1.792
24270W        W96695  42.158   9.495  11.418
24271W        W96696  21.338  42.589  14.925
24272W        W96697   7.727  26.333  12.956
24273W        W96698  13.597  10.307  14.987
24274W        W96699  27.921  16.563   3.576
24275W        W96700  12.859  43.077  12.499
24276W        W96701   5.284  13.649   3.175
24277W        W96702   5.706  23.236  12.568
24278W        W96703  16.232  36.001   2.266
24279W        W96704  15.764  43.414  10.464
24280W        W96705  27.446   8.229   3.648
24281W        W96706   2.012  20.227  10.588
24282W        W96707   0.100  23.666  12.429
24283W        W96708  31.252  38.736   1.986
24284W        W96709  20.332  40.498  12.262
24285W        W96710  14.720   0.767  11.782
24286W        W96711  32.503  29.151  13.065
24287W        W96712  30.449   0.876   4.534
24288W        W96713  12.123   7.863  11.060
24289W        W96714  15.258  30.174   0.185
24290W        W96715   8.198  24.305  13.988
24291W        W96716  27.029  33.628   1.250
24292W        W96717   0.551  18.525   0.694
24293W        W96718  36.674  35.943   4.823
24294W        W96719   7.950  11.772   5.040
24295W        W96720   8.170  32.962   1.924
24296W        W96721  28.103  31.360  11.010
24297W        W96722  37.398   3.516  14.443
24298W        W96723  11.680   7.139   2.555
24299W        W96724  15.582  40.817   3.137
24300W        W96725  43.844   1.343   1.250
24301W        W96726  36.097  40.833   2.756
24302W        W96727   2.943   6.052  11.588
24303W        W96728  30.560  11.847  12.312
24304W        W96729  19.147   7.609   2.693
24305W        W96730  37.117   6.817   3.375
24306W        W96731   4.389  26.580  13.297
24307W        W96732  27.065  11.884  14.373
24308W        W96733  41.795   0.371  14.390
24309W        W96734  28.687  29.893   2.924
24310W        W96735  32.381  30.914  10.608
24311W        W96736  39.039   9.120  14.830
24312W        W96737  27.223  25.135  14.755
24313W        W96738   6.216  20.924  13.460
24314W        W96739   3.490  10.928   3.328
24315W        W96740  29.532  34.450  13.019
24316W        W96741   3.758  16.287  11.184
24317W        W96742  22.268  23.892  11.480
24318W        W96743  14.205  12.730  10.259
24319W        W96744  40.600  34.333  12.060
24320W        W96745  25.594  42.883   1.939
24321W        W96746  23.518  25.911   0.027
24322W        W96747  42.235   4.882  10.726
24323W        W96748  16.628  44.569   3.909
24324W        W96749  16.113  31.505  10.700
24325W        W96750   7.129  22.720  12.597
24326W        W96751  16.142   8.004   0.217
24327W        W96752  14.578  39.896  13.427
24328W        W96753  20.226  36.806  11.850
24329W        W96754  16.054  39.569  11.162
24330W        W96755  41.415  25.327   3.562
24331W        W96756  14.545  34.146  14.984
24332W        W96757  17.212  39.953  14.044
24333W        W96758  14.191  32.884  12.512
24334W        W96759  27.568  23.799   2.348
24335W        W96760  28.999  26.094  11.102
24336W        W96761  14.085  42.062  11.778
24337W        W96762  13.419  37.677  13.414
24338W        W96763   5.841  22.379   1.347
24339W        W96764  36.925   4.481  12.338
24340W        W96765   2.457  35.243  11.018
24341W        W96766  25.108  44.920   2.610
24342W        W96767  26.126  19.847  10.555
24343W        W96768  18.097  32.649   4.602
24344W        W96769  13.712  11.684  14.488
24345W        W96770  13.308  42.988  10.790
24346W        W96771  30.729  23.648   4.749
24347W        W96772  40.407   4.192   3.704
24348W        W96773  32.483  13.091   4.254
24349W        W96774  21.514   4.383  12.776
24350W        W96775  18.593  22.257  13.455
24351W        W96776  37.437  42.433   0.280
24352W        W96777   4.876  33.906   3.584
24353W        W96778  37.878  43.821  14.230
24354W        W96779  30.954   9.153  12.611
24355W        W96780  34.007  36.405   0.197
24356W        W96781  23.396  30.481  10.664
24357W        W96782  12.575  22.046   1.138
24358W        W96783  36.807  32.571   3.196
24359W        W96784  38.143  43.810   2.249
24360W        W96785  32.546  25.070  14.562
24361W        W96786  18.674  43.089   4.161
24362W        W96787  15.094   2.708  10.732
24363W        W96788  18.091  43.692   3.914
24364W        W96789  38.532  14.357  10.734
24365W        W96790  41.333   3.975   0.937
24366W        W96791  29.477   2.919   0.917
24367W        W96792  23.052   1.035  12.031
24368W        W96793  24.157  37.727  14.773
24369W        W96794  23.809  35.179   0.272
24370W        W96795  36.506   8.354   4.163
24371W        W96796  17.214   7.726  13.424
24372W        W96797  27.158  12.841   0.381
24373W        W96798   5.453  20.916   2.286
24374W        W96799  13.414   3.435  12.476
24375W        W96800  26.025  18.457   1.326
24376W        W96801   5.553  10.315  12.696
24377W        W96802  37.654  13.101   3.649
24378W        W96803   4.961   6.376   3.611
24379W        W96804  37.225   6.495  10.228
24380W        W96805   8.064   8.308   1.121
24381W        W96806  13.050   6.410  11.410
24382W        W96807   5.090   2.750   0.348
24383W        W96808   2.981  36.408  14.438
24384W        W96809   9.605  31.341   2.606
24385W        W96810  34.573  17.285  13.978
24386W        W96811  44.361  30.036   0.072
24387W        W96812  17.082   3.957  14.973
24388W        W96813  21.792  27.001   4.189
24389W        W96814  38.974  14.542  12.938
24390W        W96815  28.042  30.894   0.421
24391W        W96816  34.575  20.245   4.259
24392W        W96817  33.012   9.177  11.142
24393W        W96818  25.352  38.908  11.579
24394W        W96819  43.679   7.163  11.509
24395W        W96820  41.947   1.043   2.648
24396W        W96821  10.843  14.341  14.737
24397W        W96822  20.423  33.328  11.051
24398W        W96823   3.703  36.043  10.331
24399W        W96824  25.259   1.794   2.264
24400W        W96825  29.229  12.638  14.374
24401W        W96826  31.384  21.576  14.347
24402W        W96827   1.372  44.341   3.797
24403W        W96828   0.554  43.895  11.817
24404W        W96829   7.409  41.388  13.926
24405W        W96830  21.231  34.862   3.560
24406W        W96831   4.297   1.934   3.369
24407W        W96832  30.698  26.912  10.565
24408W        W96833  44.824  30.411  12.935
24409W        W96834  42.524  13.176   3.196
24410W        W96835  31.840  21.576   0.785
24411W        W96836  13.896  27.469  10.691
24412W        W96837  25.160   4.015   0.285
24413W        W96838  38.102  15.281   4.179
24414W        W96839  39.516  39.069   1.689
24415W        W96840   2.429   4.901  13.389
24416W        W96841  38.359  32.072  11.151
24417W        W96842   7.388   0.771  11.699
24418W        W96843  31.431  19.897  13.368
24419W        W96844  32.030  43.225   2.306
24420W        W96845   2.485   9.376  10.781
24421W        W96846   3.476  32.566   0.913
24422W        W96847  13.003  21.431   1.145
24423W        W96848   0.210  18.709  13.993
24424W        W96849  24.499  38.072  12.467
24425W        W96850  38.380  36.757  14.479
24426W        W96851  31.817   0.414   3.797
24427W        W96852  26.946  15.727  11.484
24428W        W96853  39.822  39.423  10.661
24429W        W96854  33.030  32.659   3.177
24430W        W96855  24.568   3.678  11.127
24431W        W96856  43.312  37.173  14.779
24432W        W96857   4.810  15.902  12.721
24433W        W96858  34.046  41.931  12.400
24434W        W96859  42.480  41.968   2.422
24435W        W96860   8.297   6.302  13.881
24436W        W96861  25.366  14.131  12.717
24437W        W96862   3.188   7.614  13.531
24438W        W96863   3.768  40.591  10.375
24439W        W96864  44.485   8.315   4.023
24440W        W96865   5.504  17.741  14.507
24441W        W96866   3.007  41.743  11.903
24442W        W96867  34.592  16.260  12.935
24443W        W96868  36.424  40.784   4.459
24444W        W96869  38.850  20.215  11.998
24445W        W96870   4.441  28.379  12.936
24446W        W96871  25.906  21.795   2.746
24447W        W96872   1.938  35.022   1.858
24448W        W96873  24.485  24.018  12.090
24449W        W96874  37.647  26.431  14.295
24450W        W96875   8.731  43.340   3.356
24451W        W96876  24.296  14.609  12.171
24452W        W96877  32.639  41.358   4.176
24453W        W96878  33.909  10.355  10.167
24454W        W96879   4.348  13.653  13.044
24455W        W96880  29.447   1.872   0.793
24456W        W96881  38.979  29.968   3.785
24457W        W96882   9.392   9.982  12.562
24458W        W96883  20.192  34.687   0.305
24459W        W96884  10.736  32.729   3.158
24460W        W96885   9.284   8.345   3.322
24461W        W96886  18.355  14.537  11.621
24462W        W96887  35.631  17.341   2.860
24463W        W96888  27.913  22.456  11.581
24464W        W96889  39.669  31.237  12.581
24465W        W96890  20.213  41.088   0.369
24466W        W96891   6.831   1.767  14.379
24467W        W96892   6.349  27.193  13.376
24468W        W96893  41.438   1.062   2.573
24469W        W96894  21.522  10.892   2.145
24470W        W96895  20.642  12.119  11.128
24471W        W96896   8.434  36.690   4.289
24472W        W96897   2.022  16.578   0.640
24473W        W96898  32.663  12.625  14.534
24474W        W96899  38.072  25.867   2.869
24475W        W96900  32.135   4.137  14.791
24476W        W96901  14.612   4.814  12.312
24477W        W96902  27.220  40.350   3.846
24478W        W96903   7.315  20.893   1.346
24479W        W96904  38.980   5.012  14.088
24480W        W96905  44.650  16.646   4.762
24481W        W96906   4.248  34.702   1.255
24482W        W96907  20.285  39.508   3.947
24483W        W96908  16.159  29.886  12.123
24484W        W96909  17.748  34.801  14.437
24485W        W96910  30.631  39.925   4.953
24486W        W96911  24.070  14.801   2.600
24487W        W96912  16.988  40.531  13.998
24488W        W96913  18.207  19.671  13.932
24489W        W96914   5.053   4.371  11.121
24490W        W96915  44.939  26.668   2.794
24491W        W96916   2.868  21.242  13.880
24492W        W96917  33.078  25.449  10.573
24493W        W96918  41.318  14.165   2.681
24494W        W96919  30.404  30.559  12.563
24495W        W96920  12.370  18.521   4.464
24496W        W96921  25.082  38.741   3.676
24497W        W96922  35.501   5.395  12.309
24498W        W96923  25.666  14.370  12.057
24499W        W96924   5.696  10.173  11.059
24500W        W96925  34.583  16.579   3.752
24501W        W96926  28.703  42.733   1.861
24502W        W96927  26.044   5.855  13.352
24503W        W96928  18.618  21.225   0.840
24504W        W96929  15.125  26.904  12.967
24505W        W96930  29.476   3.309  11.662
24506W        W96931  31.827  12.642   2.274
24507W        W96932  24.667  11.186  10.175
24508W        W96933  27.530  39.049  13.969
24509W        W96934   9.673  35.035   1.810
24510W        W96935  28.107  28.162   1.879
24511W        W96936  11.562   0.544  13.434
24512W        W96937  18.994   0.327   3.270
24513W        W96938  32.437  11.149   4.576
24514W        W96939  42.523   1.616  11.084
24515W        W96940   9.127  28.625  10.637
24516W        W96941  17.056  38.398   4.711
24517W        W96942  44.062  25.114  14.200
24518W        W96943  10.791  33.999  11.527
24519W        W96944  24.609  27.106   2.440
24520W        W96945   3.213  40.594   1.554
24521W        W96946  13.179   9.402  14.256
24522W        W96947  25.178  32.861   2.235
24523W        W96948   5.834  38.014   2.139
24524W        W96949  44.897  29.461   4.873
24525W        W96950   1.322  28.160   4.668
24526W        W96951  36.172  15.587   4.200
24527W        W96952  32.172   6.339   2.133
24528W        W96953  21.766  21.600   0.222
24529W        W96954   1.054  12.323   1.879
24530W        W96955  40.041  16.097   4.593
24531W        W96956  20.118   1.948   4.470
24532W        W96957  26.235   5.026   0.546
24533W        W96958  33.532  33.912  14.180
24534W        W96959  37.053  24.556   2.195
24535W        W96960  21.686  37.778  12.691
24536W        W96961   1.844  20.546   3.646
24537W        W96962  36.622  25.100  10.593
24538W        W96963   1.481  34.449   1.314
24539W        W96964  18.310  29.576  10.968
24540W        W96965  25.607  41.016   3.706
24541W        W96966   4.518  12.779  10.633
24542W        W96967   6.941  12.904  14.990
24543W        W96968  41.977  39.394   4.510
24544W        W96969  35.458  24.571  11.702
24545W        W96970  14.989  38.376   0.950
24546W        W96971  13.563  23.987   2.976
24547W        W96972  27.688  37.070  14.817
24548W        W96973  16.763  32.575   0.678
24549W        W96974  18.070  37.349   2.935
24550W        W96975  41.422  15.127   5.058
24551W        W96976  28.021  31.991  11.085
24552W        W96977   3.564  29.374  14.512
24553W        W96978  10.178  41.718   4.675
24554W        W96979  24.010   8.531  11.470
24555W        W96980  24.021  25.501   9.806
24556W        W96981  42.550  14.333   3.126
24557W        W96982  17.337  30.433   4.597
24558W        W96983   9.902  39.097  12.960
24559W        W96984   8.771  10.636   4.253
24560W        W96985  43.989   5.103   1.792
24561W        W96986  15.276   8.303  10.391
24562W        W96987  43.641   9.283   0.211
24563W        W96988  43.234   7.337   1.128
24564W        W96989  11.030  11.795  11.174
24565W        W96990  22.771  44.669  11.190
24566W        W96991  36.627   6.358  14.794
24567W        W96992  16.630   5.790  11.059
24568W        W96993  26.831   8.804   9.964
24569W        W96994  42.595  21.689  12.340
24570W        W96995  26.369  33.405   3.798
24571W        W96996  16.148   4.009   3.164
24572W        W96997   8.721  32.810   4.601
24573W        W96998  11.465  22.848   0.891
24574W        W96999  31.381   4.204  11.977
24575W        W97000  41.336  37.566  12.560
24576W        W97001  44.398  40.083  11.614
24577W        W97002  40.874  25.225   4.669
24578W        W97003   8.147  24.436  11.794
24579W        W97004  23.027  41.455   0.763
24580W        W97005  29.996  27.725   3.427
24581W        W97006  20.228   9.414   1.337
24582W        W97007   6.263  37.902  14.334
24583W        W97008  39.002  16.205   4.815
24584W        W97009  20.889  21.608  13.013
24585W        W97010  16.890   7.662   4.163
24586W        W97011  10.331  19.749   0.885
24587W        W97012   0.938  33.108   5.512
24588W        W97013   8.199  20.763   3.285
24589W        W97014  23.109  37.463  12.453
24590W        W97015   1.497  24.679   3.803
24591W        W97016  33.550   7.454   1.801
24592W        W97017   8.130  36.712   2.519
24593W        W97018   6.575  30.835  10.545
24594W        W97019   6.326  33.581  12.617
24595W        W97020  37.061  27.558   1.969
24596W        W97021  29.584  13.937  12.084
24597W        W97022  13.600  34.005  14.788
24598W        W97023   5.695   3.984   1.317
24599W        W97024  32.936  10.940  13.700
24600W        W97025  17.044  11.607   2.334
24601W        W97026  30.990  36.059   2.979
24602W        W97027   9.934  22.142   2.397
24603W        W97028  43.129  23.645   1.719
24604W        W97029   2.290   0.984   0.872
24605W        W97030  32.885  10.916   0.279
24606W        W97031  24.617   2.909   2.278
24607W        W97032   7.426   7.245  14.460
24608W        W97033  12.629  37.445   3.164
24609W        W97034  18.753  43.296  10.950
24610W        W97035   7.205   5.716  13.540
24611W        W97036  32.204  39.420   1.259
24612W        W97037  33.118  10.127  12.260
24613W        W97038   8.308  43.638  14.316
24614W        W97039   0.683  33.532   9.892
24615W        W97040   4.182  31.454  12.742
24616W        W97041   1.911  10.747  13.342
24617W        W97042  24.959  40.866  11.892
24618W        W97043  44.558  44.541  11.556
24619W        W97044   5.824  33.482   0.767
24620W        W97045  37.596  39.001   0.141
24621W        W97046  41.904   3.356  11.985
24622W        W97047  23.674  33.934   4.778
24623W        W97048  33.495  32.266  10.778
24624W        W97049   2.061  27.407   4.777
24625W        W97050   4.086  10.711  14.220
24626W        W97051  23.298  14.538   2.286
24627W        W97052  22.804  11.754   5.470
24628W        W97053   1.778   4.687   3.379
24629W        W97054  16.176  33.474  14.415
24630W        W97055   6.379  38.028  10.407
24631W        W97056  25.961  38.827  10.467
24632W        W97057   4.995  19.153   3.651
24633W        W97058  22.974  25.540  11.618
24634W        W97059  12.207  10.336  12.860
24635W        W97060  16.026  31.649  13.650
24636W        W97061  39.619  19.657  12.001
24637W        W97062   4.206   7.827   3.329
24638W        W97063  15.735  32.851  11.578
24639W        W97064  25.647  30.239   4.496
24640W        W97065  17.412  32.469   5.054
24641W        W97066  44.079  34.555   1.328
24642W        W97067   6.170  38.560   4.181
24643W        W97068  11.767   0.067  10.733
24644W        W97069   3.037  28.943   3.419
24645W        W97070  41.230  42.562   2.277
24646W        W97071  37.239  19.456   2.254
24647W        W97072  43.967  41.766   2.187
24648W        W97073  33.609  43.472  12.834
24649W        W97074  40.560  31.330  11.545
24650W        W97075  17.981  16.941  12.190
24651W        W97076  17.941  15.039  10.855
24652W        W97077   6.718  20.659  12.917
24653W        W97078   2.495  39.386  10.619
24654W        W97079  40.799  10.297  13.024
24655W        W97080  37.358  34.619   4.867
24656W        W97081  14.392  15.191   2.812
24657W        W97082  42.789  31.214   4.107
24658W        W97083  22.418  43.297   3.411
24659W        W97084  12.580  19.781   4.576
24660W        W97085   2.466  38.609  11.062
24661W        W97086  19.397  28.968   4.183
24662W        W97087  23.289   4.244   1.263
24663W        W97088   2.275  31.404   3.863
24664W        W97089  43.914  23.596  12.449
24665W        W97090  28.375   2.911  14.937
24666W        W97091   5.813  27.118   0.940
24667W        W97092  16.165  11.350   0.258
24668W        W97093   0.862  21.962  10.896
24669W        W97094   4.304  20.752   4.445
24670W        W97095  24.104   9.632   0.468
24671W        W97096  41.122  30.561   3.137
24672W        W97097   7.792  44.477   1.209
24673W        W97098  27.032  31.264   4.971
24674W        W97099  36.577   5.415   2.084
24675W        W97100   9.367  22.337  11.551
24676W        W97101  11.404  11.233   2.107
24677W        W97102   3.017   1.222  12.929
24678W        W97103  32.843  22.515   2.486
24679W        W97104  15.520  41.118   2.684
24680W        W97105  19.371   5.377  13.053
24681W        W97106  31.948  19.287   3.338
24682W        W97107   1.477  25.156   0.860
24683W        W97108  11.934  43.996   3.280
24684W        W97109  32.981  25.570  11.454
24685W        W97110  34.829  43.744   3.615
24686W        W97111   1.275   2.437  14.789
24687W        W97112  18.505   4.265  10.656
24688W        W97113  37.964   0.379   0.369
24689W        W97114  11.172  30.579  13.898
24690W        W97115  26.463  38.461  12.013
24691W        W97116   9.619  17.409  10.553
24692W        W97117  35.948   1.872   1.203
24693W        W97118  25.530  14.789   1.464
24694W        W97119  14.872  27.650   2.980
24695W        W97120  14.564   0.448   4.647
24696W        W97121  34.536  28.985   4.115
24697W        W97122  36.006  35.975   4.769
24698W        W97123  30.386  38.272   1.188
24699W        W97124   9.086  22.482   1.692
24700W        W97125  25.410  40.280   3.240
24701W        W97126  20.863   9.649   2.227
24702W        W97127   0.259   9.023  11.570
24703W        W97128  29.598  35.483  14.290
24704W        W97129  39.499   5.988   0.334
24705W        W97130  30.614  11.427  11.902
24706W        W97131  27.999  17.742  14.501
24707W        W97132  24.478   2.963  12.910
24708W        W97133  17.801  12.626  11.583
24709W        W97134   0.369  43.426   0.839
24710W        W97135   8.929  11.098  11.939
24711W        W97136  11.157  38.832  13.014
24712W        W97137  13.318  24.443   5.077
24713W        W97138   9.210  41.389   0.345
24714W        W97139  32.593   4.991  11.418
24715W        W97140  15.245  27.908  14.029
24716W        W97141  39.574  20.790  12.903
24717W        W97142  43.463  36.581   0.783
24718W        W97143  42.557  15.893   3.770
24719W        W97144  32.897  20.613  11.284
24720W        W97145  35.473  29.999   4.072
24721W        W97146  42.253  36.375  13.407
24722W        W97147  42.152  27.907   2.866
24723W        W97148   6.832  39.517  13.308
24724W        W97149  10.369  13.884  13.050
24725W        W97150  25.107  29.702   4.295
24726W        W97151   0.326   2.349   4.064
24727W        W97152  20.670  34.121  14.266
24728W        W97153   2.883  21.637   3.507
24729W        W97154  40.490  33.041  12.414
24730W        W97155  37.899  23.644  10.692
24731W        W97156  25.440  35.206  14.355
24732W        W97157  17.614  22.628  14.448
24733W        W97158  19.054  23.476   3.822
24734W        W97159   7.784  17.628  10.678
24735W        W97160  19.165  19.742   2.852
24736W        W97161   1.682  15.619   0.323
24737W        W97162  14.791  22.278  12.924
24738W        W97163   9.345  32.346  13.034
24739W        W97164  29.117  25.129   2.681
24740W        W97165  39.978  27.530  13.503
24741W        W97166  32.729  12.638  11.109
24742W        W97167   0.052  39.540   2.742
24743W        W97168  32.939  11.342  10.583
24744W        W97169   3.951  18.012  11.285
24745W        W97170  42.304  39.420   2.855
24746W        W97171  35.953  12.896  10.750
24747W        W97172  21.012   9.012  11.068
24748W        W97173  20.010  21.200  13.950
24749W        W97174  25.559  40.995  14.864
24750W        W97175  33.667   1.762   2.726
24751W        W97176  20.017   7.380   1.358
24752W        W97177  33.469  12.987   3.601
24753W        W97178  38.888  39.489   0.716
24754W        W97179  23.543  16.787   1.397
24755W        W97180  30.169  25.651  12.649
24756W        W97181  26.070  29.956   4.663
24757W        W97182  43.442  34.407  11.884
24758W        W97183  23.083   6.426  13.571
24759W        W97184  40.333   7.684   4.106
24760W        W97185  40.119   3.697   2.723
24761W        W97186  14.588  10.653  14.970
24762W        W97187  35.020  11.781   4.550
24763W        W97188  19.501  26.064   1.155
24764W        W97189   5.698  44.029   0.788
24765W        W97190  15.192   8.216   2.697
24766W        W97191  25.864  41.866  11.720
24767W        W97192  11.626  43.436  12.337
24768W        W97193  31.647  36.581   3.145
24769W        W97194  19.592  31.619   2.909
24770W        W97195  36.985  26.774  12.075
24771W        W97196  44.519  14.121   1.199
24772W        W97197  16.934  43.006   0.383
24773W        W97198  31.490  25.941   2.469
24774W        W97199  38.190   0.512  14.910
24775W        W97200   6.829   1.796  10.950
24776W        W97201  14.526   5.981   9.910
24777W        W97202   4.622  38.861  13.736
24778W        W97203   1.608  25.719  13.068
24779W        W97204  31.072  34.265  10.475
24780W        W97205  25.310   2.288   0.894
24781W        W97206   3.365  27.003   2.770
24782W        W97207   1.980  42.312   2.364
24783W        W97208   5.076  43.789  11.204
24784W        W97209  34.337   4.770  12.047
24785W        W97210  42.418  30.966  12.908
24786W        W97211  36.929  11.190   2.417
24787W        W97212  32.114   2.917  11.080
24788W        W97213  26.823  31.453  10.284
24789W        W97214  22.154  18.255  12.864
24790W        W97215  18.118  44.671   4.134
24791W        W97216  32.562  29.725  13.866
24792W        W97217  35.204  17.343   0.331
24793W        W97218  22.056  24.379   0.705
24794W        W97219   9.735  18.357  10.522
24795W        W97220  41.316   5.393  12.951
24796W        W97221  22.328  20.519  13.733
24797W        W97222   4.474  38.571  11.160
24798W        W97223  13.925  21.522  13.996
24799W        W97224  28.740  32.507   4.659
24800W        W97225   8.181   3.599  13.557
24801W        W97226  44.220  26.754   2.141
24802W        W97227  17.765  31.987  12.337
24803W        W97228  25.000   1.348   2.322
24804W        W97229  40.981  14.161   3.434
24805W        W97230  18.634  25.199  11.910
24806W        W97231  32.166  11.719  14.517
24807W        W97232  31.983  23.590  12.818
24808W        W97233  39.695  20.319  14.514
24809W        W97234  26.205  24.566   2.915
24810W        W97235   5.658  17.030   3.610
24811W        W97236  14.267   7.354   1.388
24812W        W97237  31.982  28.449  14.832
24813W        W97238  32.653  41.903   0.934
24814W        W97239  27.256  27.728  12.941
24815W        W97240   1.318  39.991   3.558
24816W        W97241   5.871  28.318   4.752
24817W        W97242  16.656  43.876   2.853
24818W        W97243  21.519  21.021   4.639
24819W        W97244  11.451   1.978  11.954
24820W        W97245  13.849  20.025   3.489
24821W        W97246  36.768   4.190   1.746
24822W        W97247  26.171  33.909  14.731
24823W        W97248  25.231   0.090   1.350
24824W        W97249   0.741   7.274   3.343
24825W        W97250  23.132  33.608   3.626
24826W        W97251  25.313  43.571  13.829
24827W        W97252  12.385  29.532   0.093
24828W        W97253  14.358  12.225   4.539
24829W        W97254  38.977  37.996  14.454
24830W        W97255  23.152   4.320   0.420
24831W        W97256  36.816  15.325  14.366
24832W        W97257   5.203  33.655  11.586
24833W        W97258   4.926  19.986   2.032
24834W        W97259  14.632  37.401  14.280
24835W        W97260  19.338  26.547  10.541
24836W        W97261  27.372  33.401  12.323
24837W        W97262  33.599  12.359   2.288
24838W        W97263  22.505   6.202  10.533
24839W        W97264  10.635   5.159  11.174
24840W        W97265  27.190  29.468   1.935
24841W        W97266  17.302  10.266   2.731
24842W        W97267  33.121  40.867  13.367
24843W        W97268   0.268  30.978   9.604
24844W        W97269  11.654  22.111  13.746
24845W        W97270  44.194  36.701  14.058
24846W        W97271   0.599  40.381   0.692
24847W        W97272  11.330  19.820  13.666
24848W        W97273  33.394   4.107  12.732
24849W        W97274  41.004  11.362  11.479
24850W        W97275  21.006  43.737  11.067
24851W        W97276  14.229   8.132  12.365
24852W        W97277  12.334  38.465  13.459
24853W        W97278  23.681  37.517  11.985
24854W        W97279  34.822  44.437   1.310
24855W        W97280  25.638  15.401  12.074
24856W        W97281  11.893   7.388  11.694
24857W        W97282   4.259  35.798   2.713
24858W        W97283  25.005  44.189  10.391
24859W        W97284  39.842  25.712  10.708
24860W        W97285  41.883  21.026  14.425
24861W        W97286  29.007  28.496  10.747
24862W        W97287  18.541  18.247   2.579
24863W        W97288  20.528  34.453   4.593
24864W        W97289   9.399   9.392  12.564
24865W        W97290  38.549  39.555  13.830
24866W        W97291  12.390  19.123   1.902
24867W        W97292  11.863  31.625  10.356
24868W        W97293  28.426  41.335   0.493
24869W        W97294  24.886  17.978  12.660
24870W        W97295  31.395  13.636  13.301
24871W        W97296   5.768  15.687  10.528
24872W        W97297  28.126   3.712   2.891
24873W        W97298   5.279   5.705   0.983
24874W        W97299  27.570   1.942   0.500
24875W        W97300  12.756   6.408  14.793
24876W        W97301   0.389  35.300   1.334
24877W        W97302   4.722  23.946  12.466
24878W        W97303  27.558  37.543  14.996
24879W        W97304  21.644  21.595   2.783
24880W        W97305  10.183  28.396  10.746
24881W        W97306  12.319  41.787   1.395
24882W        W97307  10.856   9.508   3.164
24883W        W97308  33.826  39.135   0.697
24884W        W97309   3.253  35.850  12.885
24885W        W97310  34.083  23.212  11.700
24886W        W97311  36.663  12.453  12.581
24887W        W97312   3.588  39.922   2.166
24888W        W97313  40.889   3.457  10.459
24889W        W97314  28.122  39.780  11.091
24890W        W97315  29.489  36.339   1.407
24891W        W97316  12.557  43.509  13.771
24892W        W97317  31.129  29.862   3.292
24893W        W97318  34.310  12.154  10.535
24894W        W97319  40.395  24.553  10.303
24895W        W97320  42.539  26.142   2.454
24896W        W97321  31.629   1.816  11.893
24897W        W97322  21.087  20.433  13.538
24898W        W97323  17.200  17.685  13.263
24899W        W97324  42.604  35.895  12.801
24900W        W97325  17.229  15.101  11.475
24901W        W97326  28.601  43.841  11.996
24902W        W97327  19.104  32.134  13.790
24903W        W97328  25.326  43.272   4.213
24904W        W97329  41.330   6.329   3.111
24905W        W97330  29.996  44.390  13.541
24906W        W97331  23.680   0.246   1.896
24907W        W97332  11.300  26.985   1.184
24908W        W97333  30.519  33.466   4.505
24909W        W97334  28.207  27.179  12.394
24910W        W97335  44.711  21.559   4.312
24911W        W97336  12.828   5.431  14.714
24912W        W97337   0.573  23.601   4.583
24913W        W97338   8.905   4.431  10.632
24914W        W97339  17.901  27.022   0.856
24915W        W97340  10.840   2.766   2.259
24916W        W97341  14.795  16.327   3.776
24917W        W97342  12.464  28.436   1.907
24918W        W97343  27.903  15.680  14.089
24919W        W97344  43.283  39.595   1.158
24920W        W97345  26.602  18.321  13.796
24921W        W97346  19.785   6.725  13.917
24922W        W97347   3.081  28.338   1.256
24923W        W97348  15.649   0.811   1.923
24924W        W97349  35.408   7.403   4.209
24925W        W97350  11.225  31.726  12.517
24926W        W97351  36.817  44.230  12.478
24927W        W97352  43.766  34.876   4.195
24928W        W97353   2.707  39.839   2.653
24929W        W97354  23.494  24.962  12.914
24930W        W97355  18.580  27.159  11.759
24931W        W97356  38.744  32.109   0.413
24932W        W97357  32.804  26.012   2.748
24933W        W97358  19.799  21.107   0.797
24934W        W97359   6.264  36.074  14.957
24935W        W97360  39.523   2.849  12.963
24936W        W97361  26.124   8.628  13.560
24937W        W97362  20.262   6.930   4.702
24938W        W97363  44.508   4.850  14.414
24939W        W97364  42.224  30.496  12.936
24940W        W97365  38.992   3.984  13.877
24941W        W97366   7.985  27.031  14.050
24942W        W97367   2.105   4.490  13.369
24943W        W97368  14.627  19.089   4.389
24944W        W97369  19.652  33.042   1.845
24945W        W97370   0.821  32.576  10.173
24946W        W97371   3.933  11.172   1.403
24947W        W97372  17.330  18.242  14.082
24948W        W97373  39.511  26.418  12.125
24949W        W97374  31.744  25.773  11.815
24950W        W97375  17.804   4.686  11.977
24951W        W97376  35.942  17.351  13.296
24952W        W97377  22.564  32.862  13.935
24953W        W97378  17.018  13.155  13.915
24954W        W97379  22.785  10.308  11.480
24955W        W97380  15.354   6.269  11.206
24956W        W97381  19.164   9.353   2.266
24957W        W97382   0.740   3.432  14.476
24958W        W97383  29.285  15.160   4.893
24959W        W97384  28.423  22.872   0.884
24960W        W97385  21.560   3.385  12.010
24961W        W97386  40.283   8.283  11.101
24962W        W97387  38.074  32.242  10.708
24963W        W97388  13.975   3.444  11.565
24964W        W97389  40.123   5.234  11.146
24965W        W97390  20.238   0.449  11.298
24966W        W97391   0.331  12.272   3.628
24967W        W97392  26.535  38.484   2.261
24968W        W97393  40.487  24.965  13.489
24969W        W97394   1.357  13.154  10.598
24970W        W97395  33.741  38.885  12.887
24971W        W97396  28.028   0.761   2.828
24972W        W97397  39.813  22.428   2.699
24973W        W97398  31.600  39.577   4.385
24974W        W97399   3.848   7.920   2.026
24975W        W97400  40.321   4.628   9.859
24976W        W97401   2.336  37.461  13.895
24977W        W97402  15.756  44.087  12.433
24978W        W97403  20.553  21.198   1.766
24979W        W97404  26.397   0.397  13.549
24980W        W97405  18.843  17.641  14.572
24981W        W97406  38.875  39.140  14.684
24982W        W97407   6.564  24.068  13.771
24983W        W97408   7.467  25.765  11.993
24984W        W97409  24.538  23.703   1.427
24985W        W97410  14.364  39.743  11.604
24986W        W97411  44.544  31.548   1.989
24987W        W97412  42.083  44.209  12.588
24988W        W97413  38.351   7.425  12.401
24989W        W97414  39.006  29.133  14.296
24990W        W97415  42.430  13.919   1.743
24991W        W97416  35.549  21.751   4.612
24992W        W97417  15.184   3.044   0.681
24993W        W97418   8.375  43.104  13.853
24994W        W97419  11.206  11.210  10.558
24995W        W97420  12.885  33.388   3.195
24996W        W97421   3.944  31.680   2.583
24997W        W97422  14.932  35.133  13.980
24998W        W97423  11.583  21.045  13.979
24999W        W97424  21.116  18.552  10.806
25000W        W97425  27.418  43.495   2.819
25001W        W97426   9.243   5.954   0.739
25002W        W97427  21.680  14.805  11.865
25003W        W97428  42.869   8.695   0.200
25004W        W97429  36.859   1.690   1.693
25005W        W97430   8.260  28.938   0.391
25006W        W97431   1.374  23.500  11.925
25007W        W97432  18.197  29.497   0.878
25008W        W97433  20.704   8.413   2.723
25009W        W97434  34.155  27.678   2.266
25010W        W97435   5.022  12.785  13.353
25011W        W97436  32.278  25.811   3.454
25012W        W97437  21.052  25.089   0.046
25013W        W97438  14.847  36.504  11.198
25014W        W97439  38.932  38.419   3.113
25015W        W97440  42.910  31.222   0.439
25016W        W97441  17.863  40.779  14.842
25017W        W97442  43.879  26.517   4.119
25018W        W97443  21.110  36.009   3.910
25019W        W97444  43.431  22.659   3.110
25020W        W97445  32.768  14.557   1.345
25021W        W97446   6.639  19.726   0.385
25022W        W97447  20.617  28.861   1.753
25023W        W97448   2.230  12.139  13.415
25024W        W97449  26.562   9.482   0.686
25025W        W97450   4.606   3.881  11.895
25026W        W97451  25.060  25.697   3.826
25027W        W97452  18.291   1.781  11.430
25028W        W97453  33.231  36.820   3.230
25029W        W97454   3.270  12.558  13.628
25030W        W97455   6.136  27.470  11.162
25031W        W97456  24.255  12.645   2.821
25032W        W97457  11.242  40.974   3.138
25033W        W97458  36.350  39.053  10.337
25034W        W97459  14.249  29.162  14.751
25035W        W97460   2.215  36.584  14.929
25036W        W97461  29.963  32.161  14.555
25037W        W97462  33.578   2.531   0.255
25038W        W97463   7.767  18.001  14.956
25039W        W97464  43.361  29.902   4.412
25040W        W97465  17.522  15.351   3.648
25041W        W97466  32.674  11.792  14.518
25042W        W97467  44.994  14.207   0.979
25043W        W97468  40.298   7.185   2.693
25044W        W97469   4.011   4.742  13.407
25045W        W97470  40.608  20.687  12.934
25046W        W97471  33.820  27.112   2.877
25047W        W97472  38.523  14.088  14.033
25048W        W97473  19.713  43.169  13.994
25049W        W97474   3.180  44.992  13.721
25050W        W97475  14.197  21.054  13.967
25051W        W97476  25.063   5.800   3.028
25052W        W97477   1.950  42.939  14.395
25053W        W97478  44.331  21.164   9.929
25054W        W97479   0.023  23.817   1.694
25055W        W97480  16.224  44.754   3.599
25056W        W97481  41.534  18.622  11.125
25057W        W97482   1.477  16.363  14.816
25058W        W97483   1.249  42.543   1.795
25059W        W97484   5.475  31.484  14.976
25060W        W97485  41.605   2.472  11.855
25061W        W97486  18.797  41.729   1.764
25062W        W97487  28.725  37.032   3.739
25063W        W97488   3.464  37.124   5.142
25064W        W97489   2.332  30.136  12.224
25065W        W97490  35.664   6.349   2.572
25066W        W97491  27.471  31.002  11.719
25067W        W97492  31.733   8.247   3.220
25068W        W97493   1.688  12.274   0.812
25069W        W97494  33.211  19.108  11.061
25070W        W97495  43.019  19.712   0.830
25071W        W97496  23.003  16.393   3.090
25072W        W97497  33.668  31.177  13.105
25073W        W97498   7.961  27.339  13.240
25074W        W97499  35.494  40.454   1.733
25075W        W97500   3.269  29.224  10.719
25076W        W97501  29.656  11.989   0.893
25077W        W97502  35.443   8.218   3.718
25078W        W97503  40.935  12.750   2.878
25079W        W97504   6.388   6.785  10.664
25080W        W97505   2.387  44.281  11.964
25081W        W97506  16.464  10.347  12.017
25082W        W97507  31.434   7.831   3.329
25083W        W97508  14.533  22.754  13.589
25084W        W97509   3.204  26.537   1.946
25085W        W97510  19.680   4.248   4.786
25086W        W97511  44.794  30.165  14.395
25087W        W97512  24.116   6.826  13.764
25088W        W97513  32.122  40.742   1.062
25089W        W97514  32.186  37.322   4.064
25090W        W97515  44.960  17.160  13.297
25091W        W97516  33.385  40.504  14.119
25092W        W97517  32.325   8.663  11.391
25093W        W97518  18.324  23.700  12.658
25094W        W97519  12.596   0.297   3.156
25095W        W97520   4.353  28.886  12.957
25096W        W97521  27.179  15.044   0.354
25097W        W97522  31.229  40.370   0.259
25098W        W97523  13.687   0.489   4.482
25099W        W97524   3.643   1.551   1.713
25100W        W97525  16.741  15.392  12.712
25101W        W97526  22.988   1.694  10.541
25102W        W97527   0.479  30.489  11.184
25103W        W97528   6.444  28.570  13.456
25104W        W97529  23.774  10.439  13.958
25105W        W97530  21.728  16.242  14.824
25106W        W97531  26.082  28.479  13.956
25107W        W97532  25.421   1.917   1.377
25108W        W97533  35.339  19.372   1.121
25109W        W97534  23.920  36.388  12.467
25110W        W97535  40.778  20.544  11.984
25111W        W97536   7.870  33.687  13.871
25112W        W97537  12.564  40.182  12.980
25113W        W97538  30.352   1.856  13.891
25114W        W97539  20.638   3.783   3.776
25115W        W97540  42.662  14.035  11.740
25116W        W97541   2.042   6.869   3.139
25117W        W97542  39.432  15.911   2.326
25118W        W97543  15.950  35.529  13.899
25119W        W97544  34.015  28.694   3.261
25120W        W97545  39.091   0.258   4.083
25121W        W97546  19.838  10.648   0.923
25122W        W97547  26.139  20.611   1.892
25123W        W97548   4.785   2.421   5.072
25124W        W97549  27.034  18.794   3.798
25125W        W97550  37.656  14.715   3.789
25126W        W97551  39.525  16.480  11.139
25127W        W97552  37.316  16.024   4.837
25128W        W97553   4.740  27.959  14.028
25129W        W97554  10.034  30.888   0.382
25130W        W97555  26.658  19.813  10.262
25131W        W97556  43.941  39.366  12.545
25132W        W97557  10.446  28.234   2.728
25133W        W97558  40.031   3.557   0.217
25134W        W97559  13.225  34.411  13.372
25135W        W97560  22.922  33.367  12.475
25136W        W97561  10.770  35.866   4.581
25137W        W97562  15.553  19.088  11.067
25138W        W97563  14.693  12.386   1.189
25139W        W97564  19.215   3.563   1.755
25140W        W97565   6.663   9.391  12.826
25141W        W97566  27.400  19.291   0.844
25142W        W97567  38.579  15.299  12.811
25143W        W97568  25.193  34.029   1.810
25144W        W97569  43.903  42.260  12.968
25145W        W97570  17.624  16.564   0.783
25146W        W97571  12.321   3.520   4.114
25147W        W97572  13.543  40.308  11.574
25148W        W97573   1.256  35.341   1.420
25149W        W97574  21.186  20.077   0.839
25150W        W97575  44.282  31.154  11.049
25151W        W97576  38.020  42.613  11.588
25152W        W97577   4.253  15.606  12.358
25153W        W97578  23.405  33.969  14.313
25154W        W97579  39.317  35.544  10.691
25155W        W97580  37.342   0.754  10.901
25156W        W97581  28.334  42.268  13.646
25157W        W97582  14.716   3.417  11.204
25158W        W97583  43.556  17.510  11.689
25159W        W97584  23.604  12.103   0.904
25160W        W97585  44.054  40.632  13.240
25161W        W97586  30.228   3.200  11.228
25162W        W97587  32.603  14.274   0.947
25163W        W97588   9.537  35.810  14.703
25164W        W97589   5.842  37.364  14.710
25165W        W97590  28.460  20.969  12.979
25166W        W97591  20.663  29.567  11.671
25167W        W97592   0.740  39.356   4.743
25168W        W97593  39.838   6.457   4.646
25169W        W97594  39.652  33.125   2.972
25170W        W97595   5.412  44.362  12.097
25171W        W97596  44.915  24.928   2.396
25172W        W97597  12.197  39.700  13.942
25173W        W97598  34.696  41.681  11.139
25174W        W97599  35.892  19.863   5.086
25175W        W97600  33.599  10.699  10.633
25176W        W97601  29.096   8.139  10.467
25177W        W97602  16.289   2.832   1.224
25178W        W97603   6.872   7.834   0.878
25179W        W97604  12.902  18.564  14.315
25180W        W97605  29.119  14.010  13.371
25181W        W97606  42.976  34.562   4.972
25182W        W97607   3.977  23.652   4.767
25183W        W97608   3.822  24.742   0.946
25184W        W97609  40.243  30.677   4.572
25185W        W97610  17.710  33.110  11.597
25186W        W97611  37.522  24.096   4.709
25187W        W97612  14.738  37.374  11.121
25188W        W97613   9.149  27.209   0.336
25189W        W97614  18.472  31.595  14.553
25190W        W97615   4.010   2.839  10.752
25191W        W97616  11.430   9.111  12.420
25192W        W97617   9.266  44.987  14.465
25193W        W97618  17.654   6.112   1.869
25194W        W97619  13.736  38.457  12.415
25195W        W97620  34.642  12.625  14.830
25196W        W97621  38.438  35.807   0.527
25197W        W97622  35.069   8.707  10.696
25198W        W97623  30.982  39.069   4.084
25199W        W97624  34.588  26.680  12.813
25200W        W97625  18.202  16.665   3.108
25201W        W97626  33.527  41.671  11.057
25202W        W97627   1.781  18.493  12.421
25203W        W97628  29.540  42.794  12.621
25204W        W97629  34.803  13.757  11.687
25205W        W97630   2.968  21.018   1.086
25206W        W97631  36.875  20.217   4.314
25207W        W97632  40.077  18.162  12.446
25208W        W97633  32.998  11.682  10.965
25209W        W97634  43.743  31.684   4.684
25210W        W97635  40.129  26.631   3.336
25211W        W97636  27.008  31.552   9.816
25212W        W97637  13.166  43.856  11.488
25213W        W97638   7.286  37.122   0.571
25214W        W97639   8.178  26.589  12.785
25215W        W97640  40.937  28.736  12.487
25216W        W97641  30.082  32.681  14.389
25217W        W97642   8.578  40.981   0.799
25218W        W97643  11.794  24.088  10.539
25219W        W97644  43.617  42.139   2.255
25220W        W97645  13.403  18.563   4.242
25221W        W97646  20.878  30.044  14.358
25222W        W97647   2.684  41.328  13.531
25223W        W97648  28.728  30.579   1.741
25224W        W97649  12.328  29.901   4.223
25225W        W97650  40.009  13.193   1.932
25226W        W97651  26.039  10.643   4.724
25227W        W97652  43.218  18.251  14.809
25228W        W97653   1.833   3.899  11.347
25229W        W97654  15.249   9.672  14.401
25230W        W97655  43.421   5.693  13.056
25231W        W97656  21.023  19.727  11.149
25232W        W97657   0.781  32.862  11.489
25233W        W97658   5.775   1.349  14.433
25234W        W97659  17.948   4.960  10.120
25235W        W97660  11.757  19.556  10.679
25236W        W97661  42.333   0.792   2.329
25237W        W97662   3.510  31.471   1.328
25238W        W97663  21.873  10.214   0.646
25239W        W97664  31.487  39.098   4.172
25240W        W97665  36.352  30.592  14.927
25241W        W97666  44.179  11.313   3.132
25242W        W97667   7.748  22.853   1.653
25243W        W97668  20.002  33.812  14.931
25244W        W97669  38.898  41.331  13.072
25245W        W97670  38.855  21.567   4.718
25246W        W97671  34.580  36.450   1.256
25247W        W97672   8.730   5.383   1.407
25248W        W97673  34.386   4.970   3.128
25249W        W97674   3.771  34.698  10.561
25250W        W97675  29.115   2.126  12.447
25251W        W97676   3.741  21.235  11.847
25252W        W97677  44.312  21.436  11.544
25253W        W97678  17.750   2.864   4.398
25254W        W97679  42.472  42.380  11.167
25255W        W97680  38.926  15.607  13.056
25256W        W97681  32.185  13.251  11.619
25257W        W97682  14.727  28.967  12.935
25258W        W97683  11.393   8.918   4.689
25259W        W97684  33.186  29.139   1.859
25260W        W97685  14.821  15.869  11.800
25261W        W97686  35.855  25.890  10.816
25262W        W97687  30.993   7.638   2.546
25263W        W97688   3.815  44.713   0.025
25264W        W97689  19.313  43.459  13.566
25265W        W97690   5.419  38.290   2.286
25266W        W97691  30.456   2.247   2.987
25267W        W97692  23.612  13.985  13.817
25268W        W97693   0.074  34.839  14.311
25269W        W97694  44.944   6.452  13.440
25270W        W97695  22.040   2.852   0.946
25271W        W97696   7.405  16.388  10.735
25272W        W97697  32.638  15.681  12.339
25273W        W97698  40.099  28.254   0.372
25274W        W97699   7.690  38.696   2.295
25275W        W97700  13.554  11.174  11.610
25276W        W97701  14.479  33.033  14.387
25277W        W97702  28.740  44.607  12.230
25278W        W97703  22.541  32.467  13.603
25279W        W97704  27.098  40.852  11.427
25280W        W97705  31.622  15.546   0.743
25281W        W97706  15.157  10.072  13.031
25282W        W97707  29.337  15.216  12.568
25283W        W97708  12.697  35.690  11.058
25284W        W97709  33.712  11.187  11.277
25285W        W97710   3.877  22.516   3.097
25286W        W97711  41.072  32.586   0.186
25287W        W97712  15.146   2.750  12.958
25288W        W97713  37.091  31.070   1.482
25289W        W97714  18.125  22.033  14.824
25290W        W97715  33.898  35.086   3.724
25291W        W97716  39.527  10.881   2.214
25292W        W97717  44.359  20.650   0.455
25293W        W97718  32.022  30.941  11.845
25294W        W97719  16.172  43.339   2.879
25295W        W97720  15.001  44.762   0.474
25296W        W97721   7.900  34.955   0.900
25297W        W97722  42.959  37.826  11.303
25298W        W97723   7.987  42.426  14.841
25299W        W97724  43.502  13.236  12.879
25300W        W97725  43.324   8.909  14.879
25301W        W97726  32.206  16.444   3.693
25302W        W97727  39.500  44.347  11.165
25303W        W97728  26.934   2.321  12.772
25304W        W97729  11.255  34.195   1.202
25305W        W97730  12.655  12.180  10.495
25306W        W97731  30.253  19.539   2.055
25307W        W97732  22.101  19.515  13.492
25308W        W97733   0.963  36.495   4.264
25309W        W97734  33.870   1.303   0.748
25310W        W97735   0.450  13.765   1.916
25311W        W97736  25.200  13.218   4.645
25312W        W97737  21.626   4.359   2.619
25313W        W97738  44.488  15.832  13.413
25314W        W97739  44.790   6.356  11.198
25315W        W97740  33.714  40.430  14.884
25316W        W97741  17.333   4.798  13.921
25317W        W97742   2.116  14.083   3.626
25318W        W97743  18.236  18.601   2.785
25319W        W97744  14.850  12.428   2.243
25320W        W97745  13.565  29.899  12.896
25321W        W97746  33.567  34.342   1.915
25322W        W97747   7.491  33.348  10.811
25323W        W97748  19.625  33.640  14.371
25324W        W97749  44.932  39.419  14.001
25325W        W97750  11.888  16.231  14.748
25326W        W97751  42.865   3.135  12.491
25327W        W97752  18.146  34.260   9.843
25328W        W97753  29.336  43.345   0.976
25329W        W97754  28.176  32.557   3.706
25330W        W97755  44.785  44.071  14.008
25331W        W97756  31.698  11.886   2.919
25332W        W97757  28.999   3.961  12.037
25333W        W97758  32.960  11.718  11.499
25334W        W97759  17.981  34.986   0.070
25335W        W97760   1.375  26.020   1.917
25336W        W97761  38.846   6.691   1.374
25337W        W97762  24.039  20.875   3.585
25338W        W97763  42.595   0.498  13.821
25339W        W97764  42.358   1.446   1.777
25340W        W97765  37.285  16.578   3.188
25341W        W97766  23.131  11.730   0.211
25342W        W97767  35.065  33.893   0.531
25343W        W97768  21.801  23.348   0.439
25344W        W97769  36.219   8.685   2.003
25345W        W97770  41.054  30.126   1.417
25346W        W97771  20.790  36.208  13.010
25347W        W97772  33.045  37.106  10.439
25348W        W97773   5.659  23.153   0.258
25349W        W97774  41.067  23.738  14.511
25350W        W97775  28.048  31.691  10.649
25351W        W97776  38.831   7.296  10.694
25352W        W97777  33.441  14.833  12.899
25353W        W97778  41.455  43.774  13.609
25354W        W97779  10.707  40.521  14.334
25355W        W97780   6.908  21.572   3.421
25356W        W97781  29.140  34.182   4.955
25357W        W97782  37.661  15.677   4.069
25358W        W97783  43.223  28.711   2.523
25359W        W97784  15.406   8.713   2.030
25360W        W97785  23.437  19.656  14.205
25361W        W97786  38.423   0.684   2.168
25362W        W97787  17.288   7.924   3.340
25363W        W97788  23.620   2.975   3.147
25364W        W97789  27.174   2.255   2.335
25365W        W97790  26.484  12.607   2.319
25366W        W97791  19.115   5.494   0.744
25367W        W97792   9.910   2.048   0.820
25368W        W97793   6.659  24.587  13.776
25369W        W97794   6.164  36.605  11.091
25370W        W97795  35.558  32.804   0.367
25371W        W97796  44.936  20.110   4.158
25372W        W97797  20.021  22.234  13.875
25373W        W97798  36.429   1.422  13.172
25374W        W97799  19.289  36.582  11.170
25375W        W97800  25.262  34.917  10.501
25376W        W97801  44.995  10.672  14.704
25377W        W97802  40.747  20.241  12.665
25378W        W97803   5.113   6.075   2.820
25379W        W97804   4.372   8.343  11.029
25380W        W97805   9.390  40.412   0.608
25381W        W97806  30.528   8.163   4.467
25382W        W97807  41.447   6.942   0.800
25383W        W97808   4.724   4.377   2.106
25384W        W97809  17.454  17.636   1.369
25385W        W97810  34.403  32.736  11.603
25386W        W97811  32.989   1.577   4.284
25387W        W97812  22.510   7.078   3.033
25388W        W97813   5.565  19.096  14.863
25389W        W97814  31.473  16.498   1.039
25390W        W97815  20.502  26.002  11.161
25391W        W97816   0.832  39.998  11.119
25392W        W97817   6.267  36.880  12.997
25393W        W97818  13.124  11.311  11.935
25394W        W97819  12.241  24.258  14.440
25395W        W97820  10.159  13.091  12.044
25396W        W97821  39.637  11.293  11.562
25397W        W97822  10.893  34.120   2.469
25398W        W97823  35.662  18.144   4.710
25399W        W97824  33.430  30.034  14.053
25400W        W97825  27.613  40.534  11.539
25401W        W97826  19.310  32.634  12.872
25402W        W97827  41.938  23.701   3.157
25403W        W97828  27.097  44.479   3.595
25404W        W97829  35.202  41.787  11.182
25405W        W97830  42.261  15.242   2.825
25406W        W97831  16.029  29.802  10.702
25407W        W97832  10.291   7.111   2.654
25408W        W97833   4.893  44.382  11.984
25409W        W97834  27.462  13.378  14.907
25410W        W97835  43.917  37.457  12.565
25411W        W97836  39.643   6.967   1.312
25412W        W97837  44.109  23.916   2.648
25413W        W97838   3.777  10.406   3.654
25414W        W97839  37.496  40.767   1.063
25415W        W97840   8.720  33.781   2.207
25416W        W97841  20.997  34.280   4.982
25417W        W97842   4.294  37.036   4.573
25418W        W97843  15.622  17.732  11.264
25419W        W97844  27.252  28.851  13.079
25420W        W97845  34.947  33.766  14.411
25421W        W97846   0.899  16.960   0.335
25422W        W97847  30.427   9.620   2.778
25423W        W97848  31.334   5.370   3.073
25424W        W97849  33.469   6.299   2.308
25425W        W97850  43.174  42.008   1.498
25426W        W97851  28.877  39.024   1.322
25427W        W97852   7.263  32.408   0.463
25428W        W97853   3.303  17.717  13.596
25429W        W97854  14.642  29.930   4.213
25430W        W97855  16.510   3.726   2.218
25431W        W97856  30.159   6.801  11.128
25432W        W97857  44.508  42.355  10.491
25433W        W97858   3.492  37.944  10.668
25434W        W97859  23.231  11.148   0.838
25435W        W97860  40.503  41.126  11.968
25436W        W97861  29.078  14.080  12.864
25437W        W97862  15.119  11.973  13.813
25438W        W97863  19.892  42.536   0.759
25439W        W97864  21.477  34.995  14.953
25440W        W97865  22.790  38.841  10.509
25441W        W97866   9.806  19.046   2.635
25442W        W97867  24.135  37.959  14.289
25443W        W97868  27.348  30.521   5.426
25444W        W97869  42.073  10.188   2.784
25445W        W97870  14.225  24.961  13.102
25446W        W97871  18.316  38.051   1.809
25447W        W97872  30.685  27.449  10.496
25448W        W97873  24.213  31.090  13.593
25449W        W97874  35.248  44.549  12.336
25450W        W97875  44.784  36.893  12.473
25451W        W97876  30.307  14.411   0.617
25452W        W97877  34.140  18.654   0.604
25453W        W97878  37.085  26.096   0.966
25454W        W97879  25.695  27.341   1.201
25455W        W97880  31.681   2.829   0.162
25456W        W97881  41.980   2.455   0.293
25457W        W97882  42.191   9.703  14.036
25458W        W97883  17.219  30.978   0.364
25459W        W97884   6.250   8.642   0.651
25460W        W97885  12.354   6.067   1.376
25461W        W97886   1.351  19.544   0.659
25462W        W97887  30.206  21.278  12.932
25463W        W97888  29.525   1.899  11.578
25464W        W97889  24.662  39.992   0.496
25465W        W97890  14.455   5.301  12.561
25466W        W97891   7.273  21.594   0.928
25467W        W97892  24.334  21.834   1.042
25468W        W97893  23.761  24.905   4.863
25469W        W97894   2.243   6.799  13.792
25470W        W97895  40.962  24.480   2.789
25471W        W97896  35.623  43.096   0.314
25472W        W97897  13.039  20.984   5.194
25473W        W97898   9.748  24.460  14.842
25474W        W97899  34.950   2.473  13.316
25475W        W97900  31.893   4.258   2.852
25476W        W97901  22.139  28.258   4.539
25477W        W97902  30.554  32.427  13.077
25478W        W97903  39.581  29.593  13.103
25479W        W97904  27.593  20.679   4.612
25480W        W97905  44.083   6.752   1.375
25481W        W97906  24.563  39.832   1.405
25482W        W97907  42.462  41.458   2.273
25483W        W97908   0.303  16.342  13.584
25484W        W97909  36.972  10.974   4.419
25485W        W97910  27.903  19.104   2.826
25486W        W97911  41.935  15.307   1.905
25487W        W97912  13.523  13.942  12.044
25488W        W97913   2.905  38.865  10.728
25489W        W97914   3.609  23.557   0.452
25490W        W97915  24.156  43.249   2.466
25491W        W97916  26.632   1.373   0.772
25492W        W97917  37.373   2.367   3.358
25493W        W97918  10.733  39.096  12.888
25494W        W97919   4.181  34.181   1.279
25495W        W97920  23.999  37.523   4.968
25496W        W97921  38.861  43.201   1.966
25497W        W97922  36.314  27.394   3.146
25498W        W97923   1.714  43.003  12.946
25499W        W97924   8.793  24.007  13.135
25500W        W97925  34.127  41.592  14.833
25501W        W97926  24.744  11.581  10.497
25502W        W97927  14.701  13.069  12.407
25503W        W97928  15.240  39.031  14.893
25504W        W97929  29.547  21.294  14.550
25505W        W97930  32.656   8.322   3.180
25506W        W97931  10.721   8.299  12.975
25507W        W97932   8.372   8.165  12.871
25508W        W97933  37.553  16.040  13.458
25509W        W97934  27.072   9.851  14.591
25510W        W97935   2.664   9.145   4.587
25511W        W97936  22.992  12.714  12.193
25512W        W97937  23.689  44.756   3.272
25513W        W97938  24.900  13.592   4.875
25514W        W97939   3.209   2.441   1.757
25515W        W97940   9.891  38.124   4.689
25516W        W97941  41.252  11.396  12.414
25517W        W97942   0.552  13.374  13.066
25518W        W97943  23.274  43.853  12.451
25519W        W97944   3.755  27.179  13.127
25520W        W97945   2.817   7.394  14.325
25521W        W97946  26.771   7.846   4.097
25522W        W97947  10.475   2.292  11.423
25523W        W97948   7.989  10.660   0.639
25524W        W97949   3.418   1.903  11.640
25525W        W97950   1.313  23.767   3.870
25526W        W97951   2.590  31.662   1.320
25527W        W97952  22.974  30.723   1.938
25528W        W97953  37.349  24.178   3.798
25529W        W97954  32.191  10.666  11.594
25530W        W97955  20.148  35.892  12.353
25531W        W97956  14.549   4.933   1.252
25532W        W97957  36.706  20.069   1.509
25533W        W97958  27.520  25.413   4.550
25534W        W97959  44.458  15.533   1.396
25535W        W97960   9.281   2.352   2.183
25536W        W97961  36.932  15.986   4.477
25537W        W97962  17.110  36.120  12.099
25538W        W97963  19.680   4.034   0.816
25539W        W97964  25.461  37.504   4.093
25540W        W97965  13.159  27.433   0.271
25541W        W97966  18.051  30.066  11.730
25542W        W97967  35.637  19.864   1.201
25543W        W97968  38.500  44.517  11.152
25544W        W97969  17.359  30.793  12.782
25545W        W97970  29.970  17.808  13.719
25546W        W97971   7.764  29.095   1.962
25547W        W97972  11.265  19.780  10.724
25548W        W97973  13.562  39.002   3.686
25549W        W97974  43.890  13.893   0.421
25550W        W97975  27.642  14.857  10.929
25551W        W97976  18.774  33.896  10.515
25552W        W97977  10.835  42.894   0.067
25553W        W97978  32.905  41.003   2.266
25554W        W97979  34.635  34.961  13.554
25555W        W97980  36.644   3.196   3.205
25556W        W97981  29.924  26.677  13.774
25557W        W97982   4.673   0.248   0.842
25558W        W97983  42.792  28.485   0.465
25559W        W97984  11.098  13.132  12.974
25560W        W97985  25.423  33.495   0.269
25561W        W97986   4.735  18.648   3.699
25562W        W97987  23.006  23.769   3.597
25563W        W97988  34.065  22.644   1.390
25564W        W97989  38.577  10.175   1.836
25565W        W97990  23.928  28.095   2.865
25566W        W97991  13.847  33.617   0.538
25567W        W97992  16.099   8.626  13.100
25568W        W97993   5.445   9.133   3.259
25569W        W97994  20.460  32.157  14.808
25570W        W97995  38.106   1.744   4.127
25571W        W97996  10.315  20.745   0.851
25572W        W97997  28.123  39.867  11.968
25573W        W97998  42.327  13.068   1.438
25574W        W97999   2.307  41.918   2.443
25575W        W98000  34.479  39.062   1.331
25576W        W98001  20.096  18.786  12.119
25577W        W98002  21.603  28.696  14.376
25578W        W98003  29.061  29.208  12.062
25579W        W98004  30.916  11.874   1.794
25580W        W98005  12.493  31.368  11.947
25581W        W98006  43.915  32.375   2.255
25582W        W98007   4.446  44.000   3.675
25583W        W98008  44.915  17.733   0.567
25584W        W98009  40.935   9.073   2.217
25585W        W98010  35.460   9.619   2.841
25586W        W98011  37.692  24.788   4.049
25587W        W98012   9.093  29.615   4.064
25588W        W98013  27.162  11.237   0.993
25589W        W98014   8.768  11.877   0.792
25590W        W98015  30.149  44.232   4.727
25591W        W98016  26.375  27.531  13.432
25592W        W98017  19.744   2.971   2.907
25593W        W98018   7.125   8.740  13.431
25594W        W98019  10.253  17.090  13.633
25595W        W98020  42.998  26.727   2.714
25596W        W98021  12.980   9.686   0.337
25597W        W98022   4.116  27.591   3.725
25598W        W98023  29.971  19.087  13.826
25599W        W98024  13.360  43.386  12.729
25600W        W98025  39.389  35.532   4.697
25601W        W98026  18.784  27.088  14.573
25602W        W98027  24.665  23.890  12.543
25603W        W98028  33.111  18.971  14.606
25604W        W98029  21.584  21.631  12.475
25605W        W98030  40.459  21.518   2.340
25606W        W98031  37.983  28.666  13.048
25607W        W98032  41.084   1.472  13.443
25608W        W98033   7.361   2.724   0.058
25609W        W98034  13.385  36.254  14.579
25610W        W98035   3.326  41.970   0.021
25611W        W98036  36.367  12.598  11.633
25612W        W98037  37.485  34.080  14.377
25613W        W98038  43.969   3.347  10.611
25614W        W98039  33.401  17.606   4.596
25615W        W98040  29.132  34.371   2.209
25616W        W98041   6.414  10.811  11.182
25617W        W98042  14.912   5.506  14.861
25618W        W98043  16.791  44.524   0.487
25619W        W98044  21.862  33.113   3.664
25620W        W98045  39.217   6.014  10.471
25621W        W98046  28.410  20.613  10.184
25622W        W98047   3.729  35.350   2.174
25623W        W98048  38.236  34.066   0.062
25624W        W98049  24.593  32.557  10.578
25625W        W98050   2.557  19.541  10.579
25626W        W98051  38.029   2.515  11.640
25627W        W98052  37.753   5.957   4.755
25628W        W98053   6.471  25.909  10.044
25629W        W98054   8.726  19.632  12.060
25630W        W98055  43.314  30.207  12.510
25631W        W98056  24.735   2.501  10.421
25632W        W98057  19.161  37.131   2.702
25633W        W98058  33.831  10.495  14.319
25634W        W98059  12.479  31.457   2.885
25635W        W98060   1.014  30.842  14.844
25636W        W98061   4.664  19.865  12.468
25637W        W98062  16.492   8.379  12.817
25638W        W98063  44.434   1.500  12.168
25639W        W98064  22.250  12.783   0.197
25640W        W98065  37.300  40.430  13.273
25641W        W98066  34.025  20.619   0.935
25642W        W98067  10.363  35.773  11.577
25643W        W98068  42.207  38.037  12.476
25644W        W98069  43.781  43.699  13.813
25645W        W98070  24.991  40.451  13.385
25646W        W98071   3.803   1.197   0.894
25647W        W98072  23.050   6.153  10.588
25648W        W98073   2.584  22.208   1.198
25649W        W98074  10.412  27.620  11.902
25650W        W98075  34.049  36.254   2.924
25651W        W98076  16.116   9.953   0.213
25652W        W98077  23.561  24.095   3.798
25653W        W98078  32.192  10.574  10.729
25654W        W98079  29.540  11.549   1.418
25655W        W98080  37.557  34.193   0.713
25656W        W98081  27.683   7.239   2.601
25657W        W98082   3.742  37.554  14.873
25658W        W98083  29.361   6.306  13.274
25659W        W98084  39.846  33.195  14.905
25660W        W98085   1.854  25.577  11.443
25661W        W98086  40.406  22.127  13.408
25662W        W98087  26.158  34.415   1.969
25663W        W98088  40.778  35.003  10.625
25664W        W98089  14.710  16.721  13.939
25665W        W98090  40.954  24.257   0.202
25666W        W98091  18.965  34.513  13.618
25667W        W98092  37.824  34.512   0.434
25668W        W98093  11.017   0.753   2.304
25669W        W98094  27.168  31.493  12.983
25670W        W98095  16.746  23.716   1.096
25671W        W98096  25.019   3.237  10.666
25672W        W98097   6.161  33.721  13.073
25673W        W98098   4.656  38.468   0.982
25674W        W98099  33.987  35.452  13.386
25675W        W98100  35.861  15.578   2.722
25676W        W98101  25.108  40.471   1.007
25677W        W98102  18.809  13.509   0.665
25678W        W98103  15.031  24.573  13.445
25679W        W98104  39.459  22.126  14.797
25680W        W98105  27.150  34.551   3.661
25681W        W98106   9.242  33.076  12.590
25682W        W98107  17.217  18.673   3.633
25683W        W98108  40.538   1.451  12.434
25684W        W98109  17.224  34.548  12.838
25685W        W98110   4.271  41.346  11.601
25686W        W98111  40.479  14.188   0.395
25687W        W98112  22.046  29.954   0.191
25688W        W98113  15.905  10.452   4.368
25689W        W98114  14.242  35.869   3.276
25690W        W98115  44.583  11.074  10.561
25691W        W98116  13.757  24.840   0.524
25692W        W98117  25.876  29.718   1.924
25693W        W98118  11.389   8.339   0.958
25694W        W98119  16.783  37.488  13.282
25695W        W98120  36.502   9.133  14.426
25696W        W98121  26.665   6.481   0.358
25697W        W98122   8.735  43.545   4.618
25698W        W98123  17.154  27.220   1.569
25699W        W98124  28.875  35.614   0.565
25700W        W98125  21.726  29.035   2.700
25701W        W98126  19.807  39.079  11.147
25702W        W98127  20.128  11.815   1.811
25703W        W98128  44.828  34.705   3.424
25704W        W98129  34.431   9.741  14.050
25705W        W98130  29.728  12.808   4.123
25706W        W98131   8.394   7.728   0.963
25707W        W98132  37.850  12.098   0.229
25708W        W98133   2.807   6.619   0.825
25709W        W98134   9.125  25.434   2.221
25710W        W98135  10.124  33.934   2.796
25711W        W98136  20.029  29.123   2.813
25712W        W98137   2.879  36.952  13.547
25713W        W98138  28.643  29.658   3.833
25714W        W98139  15.318  41.371   1.742
25715W        W98140   6.103  12.267   0.949
25716W        W98141  34.471  40.751  14.716
25717W        W98142  27.699  36.873   4.051
25718W        W98143   5.699  22.165   4.113
25719W        W98144  27.751   6.002  14.212
25720W        W98145  29.152  30.294   1.820
25721W        W98146  14.171  43.085  14.699
25722W        W98147  14.108  22.233   1.844
25723W        W98148  42.221  36.414  12.875
25724W        W98149  36.560  33.655  13.054
25725W        W98150  41.745  20.518   2.415
25726W        W98151  18.537  37.143  10.716
25727W        W98152  29.504   6.858   3.871
25728W        W98153  35.426  35.583  14.564
25729W        W98154  24.136  43.650   3.965
25730W        W98155  33.158  29.090   4.613
25731W        W98156  19.337  11.163  14.000
25732W        W98157  23.059   6.994   4.173
25733W        W98158  21.520  29.978   0.288
25734W        W98159  42.220  24.360  10.775
25735W        W98160   1.450  40.413  11.663
25736W        W98161  40.525  15.263  12.567
25737W        W98162  36.330  24.462  14.898
25738W        W98163  17.034  30.383  12.924
25739W        W98164  31.514  18.368  13.116
25740W        W98165  17.273  29.013   0.568
25741W        W98166  26.492  28.864  13.667
25742W        W98167  23.347   3.376   0.035
25743W        W98168  43.449   1.336   1.979
25744W        W98169  13.833  31.684   3.197
25745W        W98170  17.610  30.518   0.736
25746W        W98171  25.008  18.788   3.714
25747W        W98172  40.978  22.619  12.549
25748W        W98173  29.923  20.251   3.740
25749W        W98174   4.634  39.336   0.913
25750W        W98175  33.121  44.696   0.886
25751W        W98176  40.864  35.643   1.763
25752W        W98177   4.791  43.776  11.641
25753W        W98178  21.474  29.001  10.664
25754W        W98179   5.646   4.520   3.240
25755W        W98180  37.386  36.811  13.574
25756W        W98181  15.175  38.921   2.704
25757W        W98182  33.991  40.887  12.546
25758W        W98183  18.324  13.610  13.947
25759W        W98184  33.124  33.860   1.899
25760W        W98185  29.140   9.882  14.119
25761W        W98186  14.192  42.188   0.583
25762W        W98187  24.401   6.765  12.409
25763W        W98188   8.436   8.168  10.697
25764W        W98189  35.422   8.447  13.802
25765W        W98190  21.413  21.280  10.005
25766W        W98191   1.640  43.550  12.418
25767W        W98192  31.877  34.951   0.767
25768W        W98193  43.070  18.507   0.894
25769W        W98194  41.759  23.144  10.050
25770W        W98195  38.499  20.481   1.721
25771W        W98196  25.966  33.492   2.373
25772W        W98197  17.120  43.479   0.266
25773W        W98198  33.331   0.991   3.186
25774W        W98199  27.738   2.267   2.728
25775W        W98200  34.616   9.283  13.112
25776W        W98201   2.390  20.643   2.942
25777W        W98202   0.419  18.594  12.963
25778W        W98203  36.907  43.455  13.926
25779W        W98204  32.594  12.876  13.822
25780W        W98205  31.451  10.342   0.463
25781W        W98206  12.079   3.290   0.502
25782W        W98207  26.055  36.787   0.892
25783W        W98208  18.688   8.087  14.273
25784W        W98209  28.178  10.724   2.394
25785W        W98210  35.997  25.706  14.032
25786W        W98211  31.631  22.130   2.202
25787W        W98212  10.609  20.899  12.798
25788W        W98213  18.754  20.873   3.131
25789W        W98214  11.300   9.083   3.726
25790W        W98215  12.613  17.533   2.818
25791W        W98216  36.519  31.111  14.923
25792W        W98217  41.434  27.633   1.223
25793W        W98218  14.074  15.161   1.007
25794W        W98219  28.058  42.172   0.511
25795W        W98220  34.128  25.793  10.800
25796W        W98221  23.931  33.114   1.861
25797W        W98222  11.815  42.021  13.118
25798W        W98223   4.775  36.840  13.094
25799W        W98224  41.270  17.032  12.163
25800W        W98225  10.882  14.551  11.196
25801W        W98226  30.222   2.660  11.126
25802W        W98227   8.290   2.922  11.595
25803W        W98228   9.664   8.674   2.128
25804W        W98229   1.524   1.352  10.703
25805W        W98230  16.537   1.529   3.631
25806W        W98231  35.023  37.802  13.088
25807W        W98232  13.168  24.913  10.074
25808W        W98233  30.930  41.834   9.915
25809W        W98234  27.176  12.830  13.040
25810W        W98235  17.272  34.073  13.037
25811W        W98236  40.590  29.470   5.296
25812W        W98237  34.935  12.000  11.097
25813W        W98238  42.978  22.452   2.607
25814W        W98239   9.790  33.167   0.506
25815W        W98240  26.691  24.503   0.741
25816W        W98241  10.878   7.936  13.347
25817W        W98242  41.461  34.634   4.196
25818W        W98243  30.441   0.017   0.981
25819W        W98244  31.408   6.609   3.765
25820W        W98245  12.609   4.735   0.854
25821W        W98246  10.626  14.614   3.098
25822W        W98247   9.709  31.815   4.608
25823W        W98248  34.631   6.967  14.512
25824W        W98249  15.108  10.324   5.004
25825W        W98250  27.165  20.336   1.472
25826W        W98251  36.631  17.568  12.613
25827W        W98252   0.765  37.405   4.279
25828W        W98253   1.172  22.370  10.904
25829W        W98254  33.855  35.410   3.179
25830W        W98255  30.133  11.577  14.743
25831W        W98256   7.390  17.454   3.605
25832W        W98257   5.358  37.920  14.994
25833W        W98258  25.062   8.315   1.573
25834W        W98259  40.031  34.432   2.222
25835W        W98260  37.977   5.638   1.267
25836W        W98261  26.196  12.684   0.053
25837W        W98262   9.379   0.370  11.518
25838W        W98263  29.816   2.927  11.391
25839W        W98264  30.667  38.119   0.225
25840W        W98265  34.313  33.040  14.861
25841W        W98266  38.535  12.718   0.295
25842W        W98267  20.628   4.297  11.869
25843W        W98268  30.937   5.289  11.645
25844W        W98269  33.982  15.852  11.633
25845W        W98270   8.652   7.195   4.527
25846W        W98271  24.137   3.382  10.260
25847W        W98272  39.650  19.744   0.694
25848W        W98273  33.125  11.176   1.647
25849W        W98274  39.997   7.349   0.671
25850W        W98275  41.731  15.726   3.549
25851W        W98276  27.308  36.857   2.817
25852W        W98277  35.152  26.149   3.773
25853W        W98278  24.697  10.242   3.419
25854W        W98279  19.609  40.851   3.683
25855W        W98280  25.516  32.901  12.102
25856W        W98281   4.471  44.740   0.955
25857W        W98282   0.022  13.679  11.128
25858W        W98283   3.449   2.237   2.688
25859W        W98284  33.944  24.236  14.351
25860W        W98285  44.282  37.727  10.071
25861W        W98286  18.196   6.312  11.441
25862W        W98287  36.048  44.404  12.914
25863W        W98288  20.020  31.208   4.232
25864W        W98289  18.769  13.840   5.203
25865W        W98290   2.933  35.528  13.295
25866W        W98291  23.218  18.075   1.315
25867W        W98292  11.597  36.391   3.221
25868W        W98293   9.715  16.087  14.168
25869W        W98294  31.356   9.146   2.762
25870W        W98295  15.849  14.576  11.048
25871W        W98296  31.505  37.477  13.361
25872W        W98297  15.891   6.898  14.571
25873W        W98298  26.598  30.940  11.683
25874W        W98299   4.570   7.633  14.832
25875W        W98300   2.433  37.837  13.385
25876W        W98301  18.023  44.296  10.609
25877W        W98302   6.864  34.587  13.057
25878W        W98303  28.346   9.952   1.251
25879W        W98304   5.862  40.051   2.526
25880W        W98305   1.904  17.027  11.573
25881W        W98306  35.409  16.806  14.428
25882W        W98307  24.996  22.110  14.284
25883W        W98308  29.989   0.258   3.919
25884W        W98309  23.642  29.055  10.634
25885W        W98310  18.884  23.612   3.092
25886W        W98311  25.675   3.255   0.771
25887W        W98312   3.476  19.762   1.625
25888W        W98313  32.693  23.853   3.246
25889W        W98314  42.419  17.104  14.342
25890W        W98315  34.438  37.963   2.203
25891W        W98316  18.254  25.939   1.173
25892W        W98317   2.801   9.628   1.187
25893W        W98318   9.959  14.032   5.190
25894W        W98319  43.744  17.938  13.127
25895W        W98320  39.228  42.452  10.867
25896W        W98321   4.780  20.025   1.505
25897W        W98322  12.086  19.109  14.564
25898W        W98323   0.564  24.425  13.396
25899W        W98324  39.254  38.511  10.673
25900W        W98325  42.917   1.283   1.660
25901W        W98326  16.801  16.586   3.528
25902W        W98327  42.172  13.147  12.129
25903W        W98328  26.576   4.061   0.282
25904W        W98329  44.574   4.585   0.762
25905W        W98330  43.372  38.483   3.296
25906W        W98331   5.701  17.294   4.836
25907W        W98332  41.347   2.658   1.284
25908W        W98333  13.478  43.824   3.159
25909W        W98334   9.118  44.305   2.877
25910W        W98335  21.777  35.089   1.345
25911W        W98336  40.516  44.457   2.619
25912W        W98337  16.675  24.044  13.033
25913W        W98338  24.543  26.021  13.870
25914W        W98339  10.370  29.985  11.269
25915W        W98340   9.915  19.083   3.655
25916W        W98341  26.099  29.173  13.495
25917W        W98342  14.061  43.363   1.402
25918W        W98343  23.761  14.249   3.975
25919W        W98344  41.360  21.468  11.435
25920W        W98345  38.879  30.844   3.294
25921W        W98346  36.398  39.766   2.338
25922W        W98347  26.908  19.026   0.766
25923W        W98348  22.511   6.252  13.576
25924W        W98349  29.106   5.578   1.818
25925W        W98350  20.672  31.102   4.707
25926W        W98351   5.695  29.147  13.160
25927W        W98352   2.996  24.735  12.042
25928W        W98353  32.138  14.257   3.691
25929W        W98354  22.601   4.382  12.019
25930W        W98355   1.745  32.447  11.823
25931W        W98356  32.651  43.258   4.319
25932W        W98357  16.763  22.816  12.757
25933W        W98358  35.001  21.197  14.327
25934W        W98359   5.745   7.728   3.345
25935W        W98360  26.164  18.333   4.528
25936W        W98361  43.393   0.595   1.337
25937W        W98362  38.129  31.735  14.571
25938W        W98363  23.654  28.968  13.434
25939W        W98364   1.680  11.321  14.311
25940W        W98365  32.083  32.852   2.342
25941W        W98366   6.197  33.491  14.481
25942W        W98367  33.358  28.602   0.802
25943W        W98368  15.875  39.055  13.426
25944W        W98369  20.195   7.638  13.815
25945W        W98370  34.364  33.628  10.572
25946W        W98371  28.645  25.249  12.945
25947W        W98372  36.907   3.940   0.311
25948W        W98373   8.982  24.219   3.984
25949W        W98374  43.312  19.597  10.299
25950W        W98375  31.529  32.867  11.246
25951W        W98376  11.302  40.512   0.441
25952W        W98377  38.907  39.646  14.782
25953W        W98378   9.500  10.519  12.417
25954W        W98379  23.650  14.405  11.585
25955W        W98380  29.115  19.329   2.175
25956W        W98381  28.442  42.541   0.416
25957W        W98382   9.610  31.271   4.756
25958W        W98383  44.347  40.073  13.084
25959W        W98384  34.660   9.190   1.309
25960W        W98385  17.193  16.847  14.564
25961W        W98386   7.399  28.691  11.059
25962W        W98387  43.854  26.454   2.346
25963W        W98388  12.321  20.565   2.832
25964W        W98389  39.118  34.482   2.363
25965W        W98390  28.487  44.117   4.161
25966W        W98391  38.436  35.361   3.615
25967W        W98392   9.707   9.364   0.825
25968W        W98393  10.510  32.651  13.843
25969W        W98394  22.169  23.567   3.231
25970W        W98395  21.703  25.730  10.448
25971W        W98396  16.288  29.098  12.571
25972W        W98397  29.478   0.830   4.663
25973W        W98398  42.053  21.037   0.536
25974W        W98399  40.833   9.851  10.741
25975W        W98400  10.544  26.759  12.927
25976W        W98401  11.725  31.933  13.081
25977W        W98402  43.546  31.589   3.810
25978W        W98403  27.728   1.862   4.897
25979W        W98404  18.865   0.478   4.626
25980W        W98405  22.981  38.976  14.344
25981W        W98406  18.234   9.083   3.112
25982W        W98407  22.754  37.561  14.795
25983W        W98408  36.397  19.648  11.032
25984W        W98409  19.118  15.173   3.739
25985W        W98410  20.010  36.645  13.440
25986W        W98411  15.320  23.508   4.515
25987W        W98412  13.311  11.250  12.834
25988W        W98413  20.290  21.899   0.690
25989W        W98414   2.913  24.535   4.722
25990W        W98415  24.284  30.159   3.865
25991W        W98416  11.847   5.138  10.622
25992W        W98417  40.959   9.685  13.613
25993W        W98418   1.224  29.675   0.980
25994W        W98419   9.720  32.893  12.427
25995W        W98420  28.717  31.231   0.812
25996W        W98421   1.258  37.958  12.791
25997W        W98422  11.013  16.698  14.873
25998W        W98423  44.394  10.838  13.682
25999W        W98424  24.611   0.914  12.188
26000W        W98425   4.047  25.563  13.025
26001W        W98426  11.684  13.390   2.776
26002W        W98427  13.635  42.947   0.462
26003W        W98428  16.555  35.564   3.412
26004W        W98429  38.439  14.810   1.443
26005W        W98430   0.932  30.084  11.987
26006W        W98431  43.092  14.893  13.516
26007W        W98432  18.789   9.649  10.655
26008W        W98433  15.802  40.944   0.225
26009W        W98434   4.242  28.073  10.575
26010W        W98435   2.317  14.243  10.685
26011W        W98436  25.228   0.515  12.615
26012W        W98437   8.162   9.913  11.521
26013W        W98438  29.101   8.917   1.382
26014W        W98439  39.635  39.860   4.047
26015W        W98440  36.044  40.537  13.963
26016W        W98441  10.859  39.461  13.850
26017W        W98442  43.711   4.817   2.335
26018W        W98443  12.107   1.230   5.004
26019W        W98444  40.451  23.802   0.842
26020W        W98445  28.194  40.071  12.430
26021W        W98446  29.635  38.905  13.893
26022W        W98447  30.080  32.181   2.209
26023W        W98448  15.051  29.420   0.460
26024W        W98449  23.070   3.440  12.018
26025W        W98450  23.231  18.573  13.919
26026W        W98451   5.795  39.105  13.971
26027W        W98452  38.182  26.355   2.821
26028W        W98453  17.323  12.723  13.864
26029W        W98454  40.940  24.098  12.327
26030W        W98455  24.081   7.833   4.947
26031W        W98456  22.616  43.286   1.930
26032W        W98457  27.749  22.579  10.659
26033W        W98458  27.763  12.234  11.609
26034W        W98459  30.135   9.787  14.444
26035W        W98460  24.792  15.373   2.792
26036W        W98461   2.098  35.327   0.424
26037W        W98462   9.368   4.195  14.004
26038W        W98463   5.947  32.078   1.653
26039W        W98464  23.270  11.133  10.736
26040W        W98465   1.625  31.606  12.377
26041W        W98466  13.668  23.355   0.242
26042W        W98467  19.561  44.936   4.604
26043W        W98468   6.698   5.299   0.675
26044W        W98469   5.673   8.839  11.974
26045W        W98470   4.317   9.193  13.348
26046W        W98471   6.896  43.849  13.779
26047W        W98472  10.202   1.275   0.246
26048W        W98473  13.665  15.103   1.776
26049W        W98474  11.820   4.150   4.592
26050W        W98475  17.347  23.216  11.368
26051W        W98476  18.563  29.007  12.995
26052W        W98477  29.437  28.550  11.062
26053W        W98478   7.131  28.502  11.868
26054W        W98479  18.314   3.633  10.501
26055W        W98480  25.988   4.563   0.689
26056W        W98481  31.583   6.171  13.965
26057W        W98482   0.807  27.034  13.837
26058W        W98483  19.155  34.132   3.238
26059W        W98484  44.368  16.359   1.816
26060W        W98485  30.216   3.734  11.342
26061W        W98486  43.774  36.199  12.059
26062W        W98487  19.243  16.364   2.308
26063W        W98488  21.987  18.564  14.577
26064W        W98489   5.260  29.830  10.862
26065W        W98490   7.168   2.505   3.964
26066W        W98491  12.542  33.067  11.419
26067W        W98492   1.704  22.538   2.265
26068W        W98493   6.671  44.901   3.694
26069W        W98494  42.066  20.353  13.610
26070W        W98495   7.720  34.408   4.081
26071W        W98496  22.546  35.385   0.329
26072W        W98497  19.215  42.441   0.993
26073W        W98498  13.848   2.784   1.314
26074W        W98499  24.543  39.047  10.412
26075W        W98500  41.325  15.520   2.685
26076W        W98501   3.200  37.864   0.362
26077W        W98502   3.246  42.398  14.786
26078W        W98503   3.943  31.910   1.723
26079W        W98504  34.588  40.865   0.208
26080W        W98505   1.442  42.829  14.430
26081W        W98506  24.971  38.064  11.070
26082W        W98507  37.479  10.415   3.201
26083W        W98508  27.957  20.718   5.007
26084W        W98509  14.267  42.071   4.673
26085W        W98510  27.774  16.195  12.510
26086W        W98511  33.185  20.637  14.516
26087W        W98512  42.871   6.856  11.241
26088W        W98513  36.814   8.724  11.922
26089W        W98514  42.235  30.050   3.383
26090W        W98515  20.081  34.796  12.002
26091W        W98516  33.604  44.277   1.996
26092W        W98517   9.869  28.436  14.367
26093W        W98518  24.961   0.322  11.739
26094W        W98519   2.221  35.003  13.398
26095W        W98520  30.529  26.937   3.894
26096W        W98521   3.578  16.253  12.882
26097W        W98522  24.979  23.715  13.012
26098W        W98523  28.563  22.034   4.959
26099W        W98524  20.733  13.365  12.963
26100W        W98525  44.687  17.233   9.871
26101W        W98526   0.480  24.279  12.041
26102W        W98527  10.874  28.677  10.697
26103W        W98528  24.507  19.995   0.415
26104W        W98529  32.150  21.983   0.893
26105W        W98530   7.871   9.819  13.873
26106W        W98531  35.676  31.905   1.749
26107W        W98532  16.738   0.889   1.379
26108W        W98533  42.505  27.567   0.790
26109W        W98534  39.878  20.732   1.678
26110W        W98535  31.238  21.574   3.757
26111W        W98536  29.851   3.432   1.382
26112W        W98537  21.500  35.197  12.539
26113W        W98538  24.582  42.221   2.764
26114W        W98539  13.207  21.088  12.940
26115W        W98540  29.045  43.018  11.521
26116W        W98541   0.377  40.259  10.694
26117W        W98542  41.973   6.650  12.826
26118W        W98543  42.354  31.991  10.927
26119W        W98544  34.845   1.470   3.995
26120W        W98545   4.441  42.282  12.541
26121W        W98546  28.515  18.216   4.379
26122W        W98547  28.986  31.916  13.976
26123W        W98548  25.650  44.875   1.113
26124W        W98549  42.376  28.548  14.097
26125W        W98550  13.760  27.789   2.035
26126W        W98551  20.223   2.308  12.444
26127W        W98552  34.323   9.210  14.813
26128W        W98553   0.411  30.182  14.934
26129W        W98554   9.769  42.675  14.303
26130W        W98555   9.248  43.778  11.525
26131W        W98556  22.675  22.452   1.393
26132W        W98557  10.462  23.709   3.732
26133W        W98558  11.620   5.744   1.413
26134W        W98559  16.776  33.894   4.147
26135W        W98560  38.912  12.837   3.740
26136W        W98561   5.540   3.460   2.189
26137W        W98562  29.531  22.079   2.264
26138W        W98563  21.611  12.196   3.074
26139W        W98564  13.117  14.193  11.847
26140W        W98565  31.542  23.593   3.885
26141W        W98566  12.230  31.026  11.140
26142W        W98567  32.398  23.816   3.677
26143W        W98568  29.832   4.627  11.679
26144W        W98569  22.915   2.216  11.398
26145W        W98570  35.411  37.821   1.649
26146W        W98571  21.061  17.593   4.750
26147W        W98572  13.654  28.075   2.466
26148W        W98573  28.463  34.648  13.814
26149W        W98574  36.016  31.549  11.074
26150W        W98575  20.388  21.388  14.371
26151W        W98576  15.725  42.899  11.679
26152W        W98577   4.026  28.910   0.112
26153W        W98578  22.137   6.454  14.542
26154W        W98579   2.154  30.166   0.303
26155W        W98580  37.471  18.493   3.143
26156W        W98581  42.400  31.477   2.067
26157W        W98582   8.790  26.528   3.126
26158W        W98583  36.909   6.616   2.941
26159W        W98584  34.469  15.651   0.450
26160W        W98585  29.578   7.784  13.801
26161W        W98586  11.722  19.050  10.637
26162W        W98587  23.007   1.845   1.214
26163W        W98588   7.471  38.549   0.459
26164W        W98589  44.974  42.566  10.678
26165W        W98590  12.717  33.037  10.926
26166W        W98591  12.646  34.374   4.002
26167W        W98592  18.542   1.329  11.537
26168W        W98593  33.873   6.541  11.487
26169W        W98594   6.317   2.118   0.181
26170W        W98595  21.541  37.607   3.033
26171W        W98596  23.567   7.453  12.714
26172W        W98597  16.230  10.388   0.466
26173W        W98598  18.339  38.762  10.265
26174W        W98599   1.983   5.127   3.582
26175W        W98600  12.162  33.013   1.404
26176W        W98601   1.380  34.638  11.611
26177W        W98602  16.787  41.552  11.499
26178W        W98603  21.260  41.018   3.601
26179W        W98604   3.465  32.651   3.067
26180W        W98605   9.608  44.929  14.871
26181W        W98606  43.702  40.641   2.933
26182W        W98607  27.502  21.068   0.865
26183W        W98608  10.058  42.653   3.172
26184W        W98609   1.013  30.416  14.541
26185W        W98610  35.766  24.917  14.263
26186W        W98611  29.995  35.913  14.759
26187W        W98612  40.646  29.762   1.909
26188W        W98613  22.679  35.971  14.502
26189W        W98614  14.137  25.614  10.635
26190W        W98615  16.505  15.067   3.649
26191W        W98616  34.477  18.627  13.845
26192W        W98617  37.292   9.441  10.639
26193W        W98618   4.308  24.484   0.780
26194W        W98619  29.122  16.707  11.182
26195W        W98620  19.637  16.306  13.634
26196W        W98621   6.263  31.343   3.292
26197W        W98622  44.797   0.309   0.408
26198W        W98623   2.172  36.066   4.646
26199W        W98624  44.236   1.165   2.503
26200W        W98625  41.842   4.326   1.676
26201W        W98626   8.012  22.122   3.691
26202W        W98627   7.186  40.349  12.344
26203W        W98628  26.946   6.963   4.035
26204W        W98629  44.367  42.751   5.064
26205W        W98630  16.774   4.170   4.603
26206W        W98631  25.345  40.282   2.332
26207W        W98632  21.028  37.346  11.999
26208W        W98633  44.266  15.316  11.598
26209W        W98634  26.259  20.579  14.448
26210W        W98635  31.708   2.659  10.957
26211W        W98636  12.424  36.590  14.505
26212W        W98637  10.769   9.187  11.913
26213W        W98638  23.777   7.145   4.700
26214W        W98639  22.407  10.470   4.101
26215W        W98640  24.164  41.217   3.620
26216W        W98641  30.427  39.397   0.713
26217W        W98642  19.537   8.916  13.785
26218W        W98643  32.932  43.404  14.019
26219W        W98644  29.397  33.213  14.998
26220W        W98645  30.725  15.122  10.798
26221W        W98646   4.223  31.389   0.802
26222W        W98647  42.007  22.393  13.510
26223W        W98648   0.657  43.466  13.845
26224W        W98649  27.098  44.299   0.353
26225W        W98650  40.537   8.867   5.083
26226W        W98651  29.467  24.572  13.752
26227W        W98652   3.252   5.761   4.834
26228W        W98653  16.487   6.534   3.298
26229W        W98654  29.019   6.667  13.406
26230W        W98655  44.730  39.547   1.385
26231W        W98656  17.418  22.731  11.144
26232W        W98657   3.193   1.438   4.234
26233W        W98658  32.729   2.545  12.569
26234W        W98659   8.931   3.032  13.006
26235W        W98660  17.135  42.831  11.397
26236W        W98661  19.122   0.416  14.980
26237W        W98662  36.915  29.529  13.403
26238W        W98663  25.745   6.355   1.944
26239W        W98664  23.222  40.385  14.048
26240W        W98665  12.568   5.315   2.486
26241W        W98666  41.787  23.211  11.940
26242W        W98667  26.692   7.809  13.387
26243W        W98668  41.840  33.155  11.578
26244W        W98669  25.495  26.418   1.582
26245W        W98670   4.346  31.006   0.395
26246W        W98671  18.211  33.191  14.021
26247W        W98672  20.630  19.608   1.900
26248W        W98673  39.472  23.560  10.529
26249W        W98674  28.227  30.987  14.448
26250W        W98675  11.308  38.043  11.095
26251W        W98676  44.309  24.599  14.828
26252W        W98677  15.626  15.575  11.300
26253W        W98678  16.770   5.275  14.896
26254W        W98679   9.075  38.004  12.820
26255W        W98680  16.728  37.641   3.040
26256W        W98681  16.217   6.127  14.302
26257W        W98682  24.717  33.336  12.052
26258W        W98683  33.501  32.582   0.574
26259W        W98684  31.032  19.613   0.005
26260W        W98685   5.645   3.232  12.113
26261W        W98686  37.429  30.176   1.137
26262W        W98687   8.083  17.211   3.810
26263W        W98688  41.741  16.616   2.827
26264W        W98689   7.222  37.358  13.920
26265W        W98690  40.517  25.738  10.942
26266W        W98691  29.714   5.423   4.160
26267W        W98692  17.279  18.763   0.342
26268W        W98693   3.741  35.102   4.464
26269W        W98694  13.109  14.157   0.827
26270W        W98695  34.531  19.683  14.981
26271W        W98696  29.688  37.438   3.786
26272W        W98697  30.710  11.838   4.060
26273W        W98698  21.867   7.667  12.521
26274W        W98699  40.261   4.749  11.353
26275W        W98700  31.976  24.196  10.627
26276W        W98701  31.008  35.619  11.955
26277W        W98702  16.014  42.245   4.096
26278W        W98703  35.699  31.726   3.497
26279W        W98704  19.092  35.525   2.848
26280W        W98705  21.171  40.012  10.686
26281W        W98706  31.403  14.382  11.576
26282W        W98707  25.757  11.169   0.832
26283W        W98708  44.818   6.123   1.941
26284W        W98709  37.900  29.101   2.197
26285W        W98710  36.832  20.595  14.326
26286W        W98711  17.522   8.786   3.592
26287W        W98712  40.886  28.601  14.390
26288W        W98713  30.984  20.506   4.293
26289W        W98714  28.750  29.426   1.658
26290W        W98715  44.174   9.614   4.466
26291W        W98716   5.561  18.305   3.695
26292W        W98717  11.668  19.156   2.453
26293W        W98718  31.831  17.353   1.312
26294W        W98719  24.685   1.030   0.761
26295W        W98720   2.807  12.669   1.319
26296W        W98721  25.441  19.265  13.470
26297W        W98722  34.300   1.612  14.393
26298W        W98723  26.610  15.045   1.970
26299W        W98724   9.151  16.543  12.629
26300W        W98725  24.028  22.987  12.112
26301W        W98726  30.411  29.363  14.580
26302W        W98727  40.450  44.283   4.498
26303W        W98728  10.653  30.210   3.325
26304W        W98729  12.944  18.258   1.258
26305W        W98730  20.804  36.423   1.202
26306W        W98731  20.705  43.019   1.795
26307W        W98732  33.630   4.243   2.227
26308W        W98733  30.122  32.984  11.072
26309W        W98734  10.417  11.928  13.344
26310W        W98735  29.745   7.227   2.861
26311W        W98736  23.865  13.360  11.491
26312W        W98737  39.282  32.403   2.739
26313W        W98738  31.182  27.663  10.502
26314W        W98739  44.706  26.211   2.835
26315W        W98740  18.306  35.061  11.559
26316W        W98741  20.730  42.709   2.226
26317W        W98742  43.976   1.973  13.489
26318W        W98743   2.258  26.124  14.494
26319W        W98744  36.492  34.697  12.805
26320W        W98745  32.038  39.253  11.614
26321W        W98746  21.369  12.959   2.268
26322W        W98747  30.652  18.143  11.244
26323W        W98748  32.976  28.912   2.803
26324W        W98749  22.179  15.303  11.326
26325W        W98750  39.446  13.349  11.135
26326W        W98751   1.813  38.778   0.749
26327W        W98752  11.256  40.909   0.088
26328W        W98753  34.565  31.956   0.768
26329W        W98754   5.609  25.174  14.422
26330W        W98755  30.400   3.786  13.723
26331W        W98756  21.548  36.087  11.969
26332W        W98757  10.764  13.466   3.692
26333W        W98758  42.039  14.262  12.670
26334W        W98759  39.837   2.452  12.923
26335W        W98760   6.221  14.037   3.039
26336W        W98761  37.299  40.153   1.857
26337W        W98762   6.425  14.242  11.653
26338W        W98763   9.208  44.275  12.923
26339W        W98764  21.233  18.509  13.862
26340W        W98765  20.052   8.325   1.473
26341W        W98766  37.082  29.045   4.444
26342W        W98767   7.166  36.117   2.838
26343W        W98768  21.819  19.275  14.945
26344W        W98769  38.844  27.377  14.498
26345W        W98770  36.309  40.442   3.702
26346W        W98771  12.404  24.671   2.852
26347W        W98772   5.721   9.334   2.594
26348W        W98773   3.285  13.861   1.430
26349W        W98774  18.612   9.491  13.422
26350W        W98775  18.533  27.629   4.204
26351W        W98776  35.423   6.376  12.392
26352W        W98777   9.369  19.477  14.656
26353W        W98778  44.277  31.621   1.414
26354W        W98779  42.407  44.789   2.369
26355W        W98780  36.093  42.058   4.035
26356W        W98781  43.258   9.837   4.078
26357W        W98782  40.263   6.532   1.461
26358W        W98783  38.809  10.176   5.027
26359W        W98784  38.288   6.694  12.891
26360W        W98785  38.951  15.283   1.908
26361W        W98786  14.792  36.993  10.750
26362W        W98787  42.490  19.743  14.886
26363W        W98788   0.670   9.683   2.337
26364W        W98789  12.716  40.505  14.308
26365W        W98790   0.538  26.696  13.010
26366W        W98791  39.420  11.309   1.937
26367W        W98792  43.198  12.228  13.632
26368W        W98793  23.819  13.685  14.319
26369W        W98794   2.224  13.812   3.177
26370W        W98795  10.558   2.871   1.827
26371W        W98796  39.486  31.339   2.721
26372W        W98797  21.319   4.744   1.860
26373W        W98798  25.453   0.995   0.255
26374W        W98799  29.394   5.168   3.214
26375W        W98800   7.752   6.249   3.156
26376W        W98801   3.862   9.324  12.027
26377W        W98802  40.384  37.420  11.229
26378W        W98803  25.495  23.932   2.158
26379W        W98804  19.198  39.632   0.800
26380W        W98805  31.815  41.851   2.930
26381W        W98806  17.095  28.548   1.714
26382W        W98807  11.289  18.783   3.197
26383W        W98808   3.409  10.617   4.466
26384W        W98809  12.100  28.139  14.991
26385W        W98810  23.674   1.310   4.518
26386W        W98811   2.715   5.718   4.002
26387W        W98812   9.425  11.773   3.621
26388W        W98813   1.444   8.055  11.102
26389W        W98814  18.610  20.049  14.020
26390W        W98815  18.888   3.665  12.436
26391W        W98816  19.434  18.670   4.213
26392W        W98817   2.282  41.526   1.755
26393W        W98818  11.377  17.111   5.079
26394W        W98819  34.412  34.989  13.095
26395W        W98820  37.620   5.414   0.341
26396W        W98821  38.838   6.630   0.228
26397W        W98822   1.497   5.197  14.035
26398W        W98823   7.992  44.976   1.331
26399W        W98824  41.121  16.365   3.715
26400W        W98825  27.686  32.951  10.889
26401W        W98826  31.667  22.014   2.726
26402W        W98827  40.781  29.132  11.629
26403W        W98828  32.249  17.316   3.332
26404W        W98829  20.567  22.972  13.025
26405W        W98830   7.449  39.985   0.761
26406W        W98831  18.222  24.279  12.859
26407W        W98832   8.357  43.465  12.581
26408W        W98833  38.093  29.604   2.025
26409W        W98834  14.097   0.414   2.609
26410W        W98835  19.172  39.888  12.477
26411W        W98836  16.960   0.037   3.673
26412W        W98837  38.495  38.012  10.619
26413W        W98838   2.032  16.796  12.427
26414W        W98839  31.629  35.106   4.738
26415W        W98840  44.280  18.233  12.544
26416W        W98841  38.790  20.984   3.182
26417W        W98842   4.924  43.389   4.030
26418W        W98843  34.139   1.532  12.534
26419W        W98844  26.092  30.152  14.497
26420W        W98845  14.178  40.151   1.092
26421W        W98846  30.033  37.319  14.446
26422W        W98847  34.982  32.422  14.100
26423W        W98848  19.817  36.979  10.593
26424W        W98849  44.798  35.837   4.391
26425W        W98850   8.433  34.477  14.477
26426W        W98851  17.218  24.106  11.326
26427W        W98852  30.732   2.374   4.477
26428W        W98853   0.705  38.576   3.120
26429W        W98854  44.297  29.401   3.696
26430W        W98855  33.845   5.277  13.060
26431W        W98856  18.304  19.158  13.510
26432W        W98857   8.263  28.485  14.007
26433W        W98858   9.146   9.870  11.689
26434W        W98859   6.746   9.620  14.325
26435W        W98860  19.775  32.343   0.456
26436W        W98861  42.098   8.779  12.118
26437W        W98862  14.774   5.828  10.464
26438W        W98863   0.344   6.676   0.060
26439W        W98864  11.777  29.993   3.355
26440W        W98865  41.989  38.036  11.102
26441W        W98866   3.798  27.962  12.620
26442W        W98867  21.555  38.864   0.993
26443W        W98868   0.144  10.212  14.927
26444W        W98869  26.149   8.816   1.257
26445W        W98870  23.741   3.382  14.645
26446W        W98871  43.356  27.315   3.649
26447W        W98872  17.576  32.539   3.753
26448W        W98873  18.315  36.762  12.942
26449W        W98874  32.948   4.663   4.105
26450W        W98875  40.611  10.303  12.077
26451W        W98876  17.819   7.894  13.918
26452W        W98877  40.405  19.532  14.493
26453W        W98878  25.637  29.119   3.693
26454W        W98879  37.982  16.836  13.321
26455W        W98880   3.454  27.006  14.370
26456W        W98881  42.000  24.035   1.305
26457W        W98882  36.582  37.791   4.157
26458W        W98883  36.831   2.381   4.170
26459W        W98884  16.474  31.117  10.663
26460W        W98885   3.255   8.134  11.644
26461W        W98886  35.847  22.141   2.442
26462W        W98887   8.943  10.266  12.402
26463W        W98888  25.458  16.251  11.954
26464W        W98889  11.125  16.739  10.301
26465W        W98890   5.051  12.173  14.040
26466W        W98891  11.321  40.486  12.048
26467W        W98892  34.375  41.736  12.725
26468W        W98893   0.601   7.427  14.031
26469W        W98894  34.998  13.865   2.301
26470W        W98895   6.638   2.766  13.588
26471W        W98896  11.889  10.230   3.275
26472W        W98897   4.421  32.994   0.320
26473W        W98898  12.918  44.980   1.715
26474W        W98899  18.548  13.466  12.559
26475W        W98900  24.042  18.242  13.124
26476W        W98901  40.820   7.323   1.827
26477W        W98902  41.617  33.231   0.145
26478W        W98903  25.066   1.740  11.450
26479W        W98904  18.499  14.133   4.136
26480W        W98905  30.136  13.083   1.237
26481W        W98906  23.677  34.698   0.401
26482W        W98907  36.856  18.767   4.269
26483W        W98908  38.014   4.894  12.672
26484W        W98909  10.235  14.068  11.785
26485W        W98910  41.568  25.635   2.444
26486W        W98911   5.247   0.075  14.517
26487W        W98912  23.617  18.831   3.195
26488W        W98913  21.265  20.800  14.363
26489W        W98914  29.423  30.639   2.279
26490W        W98915  24.272   5.093  13.849
26491W        W98916   1.695   0.726  13.044
26492W        W98917  29.558  19.707  12.831
26493W        W98918  42.904  16.040   3.385
26494W        W98919   1.951  21.259  14.476
26495W        W98920  41.642   6.798  13.948
26496W        W98921  13.341  17.837  13.400
26497W        W98922  12.170  24.384   2.156
26498W        W98923  33.031   5.975  14.978
26499W        W98924  21.127  23.988  11.699
26500W        W98925  44.466  22.714   1.588
26501W        W98926   1.421  19.350   1.143
26502W        W98927  19.761  41.087   4.133
26503W        W98928  36.868  38.609   3.914
26504W        W98929  39.592   1.672  11.239
26505W        W98930  24.618  20.007  14.738
26506W        W98931  16.336  24.367  14.976
26507W        W98932  12.248   0.343  11.923
26508W        W98933  19.205  15.019   1.068
26509W        W98934  11.687   9.335   2.710
26510W        W98935  20.412  39.510  14.193
26511W        W98936  35.844  14.732   2.440
26512W        W98937  24.676   5.785  12.904
26513W        W98938  33.428  29.141   0.052
26514W        W98939  11.251  33.948   3.713
26515W        W98940  38.846   3.284   3.675
26516W        W98941  24.918   7.131  13.903
26517W        W98942   1.904  16.260   0.063
26518W        W98943   8.757   5.759   4.611
26519W        W98944  11.124   1.428   2.722
26520W        W98945  37.340  44.973   1.659
26521W        W98946  12.249  22.381   1.342
26522W        W98947  34.295   1.938  13.754
26523W        W98948   8.243  21.300  14.228
26524W        W98949  36.093  16.773  10.509
26525W        W98950   9.840   1.581  12.598
26526W        W98951  15.687  34.540   5.434
26527W        W98952  12.294   4.366   4.575
26528W        W98953  22.012  40.929  13.833
26529W        W98954  39.833  27.644   1.610
26530W        W98955  10.719  15.749  13.918
26531W        W98956   2.487  34.984  14.413
26532W        W98957  31.504  17.970   0.771
26533W        W98958  22.010   8.691   0.315
26534W        W98959  15.862  19.065  14.449
26535W        W98960  31.978  31.446  11.922
26536W        W98961  30.628   1.062  12.580
26537W        W98962  20.961  42.052  12.942
26538W        W98963  43.766  37.922  14.737
26539W        W98964  42.339   1.262   0.323
26540W        W98965  41.907  23.139   3.988
26541W        W98966  37.969   5.861   3.315
26542W        W98967  42.551  28.158   3.399
26543W        W98968  18.696   4.367  13.572
26544W        W98969  10.077  37.662  14.261
26545W        W98970  44.214  30.229  12.297
26546W        W98971  34.366  41.360   3.356
26547W        W98972   4.838  41.897   1.382
26548W        W98973  44.563  34.910  14.346
26549W        W98974  44.185  23.300  11.408
26550W        W98975  16.571  14.704   3.231
26551W        W98976  39.483  20.226  13.540
26552W        W98977  33.086  32.013  13.880
26553W        W98978  21.201  35.458   3.078
26554W        W98979  31.996  20.849   3.337
26555W        W98980  15.050  22.595  14.635
26556W        W98981  26.570  28.546  11.944
26557W        W98982   1.338  10.172   4.631
26558W        W98983  40.943  36.208  13.402
26559W        W98984  23.429  35.454   0.970
26560W        W98985  29.982  33.346   4.508
26561W        W98986  23.731  12.273  14.112
26562W        W98987   1.396  14.543  11.343
26563W        W98988  16.009  44.731  12.550
26564W        W98989   2.745  25.514  12.552
26565W        W98990   2.512  43.943  14.538
26566W        W98991  29.901   2.259  14.414
26567W        W98992  37.488  27.488  12.510
26568W        W98993  43.513  20.166  12.180
26569W        W98994  44.754   2.522   2.740
26570W        W98995  13.438  20.720  12.378
26571W        W98996  14.131  16.961  12.317
26572W        W98997  24.458   1.927   3.731
26573W        W98998  34.948  35.004  13.132
26574W        W98999  30.983   5.714   3.822
26575W        W99000  30.027  30.952  12.850
26576W        W99001  20.732  20.108  14.413
26577W        W99002   3.863   0.887   1.488
26578W        W99003  12.258  12.622  12.571
26579W        W99004   1.220   4.433   4.122
26580W        W99005  40.548  11.676  11.368
26581W        W99006  11.853  39.831   3.409
26582W        W99007  44.547   0.980   4.618
26583W        W99008   5.940   1.156   2.829
26584W        W99009  38.363  35.131  11.349
26585W        W99010  35.184  16.328   2.768
26586W        W99011   9.175   9.914   2.708
26587W        W99012  43.544  42.597   2.848
26588W        W99013  33.970  24.005  11.089
26589W        W99014   5.229  24.664  13.110
26590W        W99015  23.584  11.368  11.515
26591W        W99016  40.362   8.596   0.232
26592W        W99017  16.916   2.929   3.780
26593W        W99018  15.741   5.238  14.495
26594W        W99019  42.429  43.528  14.305
26595W        W99020  24.965  34.544   1.610
26596W        W99021  43.901  30.133  10.555
26597W        W99022  22.673   0.367  13.748
26598W        W99023  30.524   5.842  10.738
26599W        W99024  26.673  25.280   1.273
26600W        W99025  37.812   7.722   3.209
26601W        W99026  29.149  13.682  12.159
26602W        W99027  35.532  38.212  11.010
26603W        W99028  25.952  26.209  11.996
26604W        W99029  33.346  27.125  12.968
26605W        W99030  14.692  38.557  12.029
26606W        W99031  37.823  13.904  11.681
26607W        W99032  36.606   7.170  14.490
26608W        W99033  24.463  14.914  11.175
26609W        W99034  19.617  20.286   3.583
26610W        W99035  12.892  34.399  12.367
26611W        W99036   8.663  38.527   3.623
26612W        W99037  30.633  13.373  11.563
26613W        W99038  16.697  35.024  10.361
26614W        W99039  38.847   0.240  10.711
26615W        W99040  14.027  36.849  13.259
26616W        W99041  33.319   5.528  14.993
26617W        W99042   6.821  29.961  12.942
26618W        W99043  44.938  36.626   1.257
26619W        W99044   5.733  19.524   2.848
26620W        W99045  41.226  17.546  12.067
26621W        W99046  23.157  15.343   3.214
26622W        W99047  24.477  21.319   3.198
26623W        W99048   8.177  36.481   3.891
26624W        W99049  26.190  43.980   1.134
26625W        W99050  39.483   4.422  13.014
26626W        W99051   2.206  25.380   3.351
26627W        W99052  30.954  26.980   4.712
26628W        W99053  17.344  42.438  14.438
26629W        W99054   5.645  14.629  11.508
26630W        W99055   8.443  41.594   4.625
26631W        W99056   9.744  38.025   1.856
26632W        W99057  41.333  40.738   1.889
26633W        W99058  30.908  34.593   0.870
26634W        W99059  34.538  24.953   1.180
26635W        W99060  41.961  40.114  14.993
26636W        W99061   8.754  26.568  10.856
26637W        W99062  44.442  15.780   0.921
26638W        W99063  32.309  17.303  11.134
26639W        W99064  12.117  24.004  13.559
26640W        W99065  17.742  35.232   3.236
26641W        W99066  35.404   1.424   2.781
26642W        W99067   3.755  17.238   0.363
26643W        W99068  35.091  22.095  13.392
26644W        W99069  35.258  21.732   0.488
26645W        W99070  28.881  30.454  12.388
26646W        W99071  43.712   6.429  13.367
26647W        W99072  44.137  39.341   4.101
26648W        W99073  21.516  43.965  14.574
26649W        W99074  22.135  35.455   1.552
26650W        W99075   2.880   2.998  12.691
26651W        W99076  11.079  15.096   2.229
26652W        W99077  34.664  33.219   3.155
26653W        W99078  32.333  44.390  11.462
26654W        W99079  18.002  19.396  11.541
26655W        W99080  33.395  16.685  11.656
26656W        W99081   1.937  29.456  12.076
26657W        W99082  27.905  38.880   0.724
26658W        W99083   7.807  42.737   0.527
26659W        W99084  40.603   4.446   4.108
26660W        W99085  28.213  12.937  11.360
26661W        W99086  34.116  40.513  12.925
26662W        W99087   4.774  37.009   1.633
26663W        W99088  18.658  29.489   2.878
26664W        W99089  21.081  17.323  11.787
26665W        W99090  34.639  26.445  11.091
26666W        W99091  35.379   6.643   2.236
26667W        W99092  38.410   0.496  10.629
26668W        W99093  19.164   8.213   0.125
26669W        W99094  37.410   6.382   0.308
26670W        W99095  11.073  23.627  12.599
26671W        W99096  43.034  30.996   5.047
26672W        W99097  32.141  42.384  12.524
26673W        W99098  20.565  43.807   1.443
26674W        W99099  13.633  44.019  11.628
26675W        W99100  39.072  19.118  14.415
26676W        W99101   5.091  35.494   2.407
26677W        W99102   3.855  21.544   0.280
26678W        W99103  20.890  26.543  10.725
26679W        W99104  17.941   6.688   3.848
26680W        W99105   9.191  41.496  13.147
26681W        W99106  28.732   4.186  12.960
26682W        W99107  28.500   4.362   0.864
26683W        W99108  29.532  20.235  14.003
26684W        W99109  44.230  43.249   4.133
26685W        W99110   5.750  21.056   4.061
26686W        W99111  29.595  41.472  12.907
26687W        W99112  11.665   9.508  10.714
26688W        W99113  40.444   4.313   2.330
26689W        W99114  25.442   6.103   4.112
26690W        W99115  25.105   4.387   0.637
26691W        W99116   6.156  32.481  14.794
26692W        W99117  40.902  21.896   1.674
26693W        W99118  37.384   4.781   2.734
26694W        W99119  17.236  21.219  10.357
26695W        W99120  24.572  22.079  14.595
26696W        W99121   3.726  32.797  11.513
26697W        W99122   5.389  40.510  14.519
26698W        W99123  35.471  21.554  13.104
26699W        W99124  21.783  32.002   0.426
26700W        W99125  11.672  16.672   0.430
26701W        W99126  15.694  42.838  13.809
26702W        W99127  36.070  38.624   3.229
26703W        W99128  12.289   7.921   2.734
26704W        W99129  25.388  37.330  12.457
26705W        W99130  31.542   3.607  11.261
26706W        W99131  21.581  38.938  11.291
26707W        W99132   5.177   0.797   3.143
26708W        W99133   6.292  32.529  12.585
26709W        W99134  10.653  16.695   4.288
26710W        W99135   2.315  38.567  13.755
26711W        W99136  35.826  33.998   4.579
26712W        W99137   5.787  22.641  12.452
26713W        W99138  33.121   6.975   4.177
26714W        W99139  36.974  23.829   3.887
26715W        W99140  10.924  43.781   3.205
26716W        W99141  25.378  20.957   3.196
26717W        W99142  24.947  41.685  13.116
26718W        W99143  17.856   3.001   1.312
26719W        W99144   0.302   0.275   3.873
26720W        W99145  38.923  39.260   0.183
26721W        W99146  41.660  13.814  11.533
26722W        W99147  14.507  14.005   5.084
26723W        W99148  36.122  18.080   3.950
26724W        W99149  40.255   3.505  14.338
26725W        W99150  42.967   4.431   0.809
26726W        W99151  44.947  40.880   4.036
26727W        W99152  30.620   8.374   4.009
26728W        W99153   8.635  37.891  12.038
26729W        W99154  17.520  43.687  11.635
26730W        W99155  39.484  15.749   4.047
26731W        W99156  19.577   3.688   5.061
26732W        W99157  15.221  31.406   3.849
26733W        W99158  32.506  16.172   1.834
26734W        W99159  18.826  41.901   2.271
26735W        W99160  42.679   3.862  12.939
26736W        W99161  14.843  19.682  11.194
26737W        W99162  24.036  13.822   3.602
26738W        W99163  12.375   3.704   0.466
26739W        W99164  40.817   6.717  10.495
26740W        W99165  24.715  18.248   4.560
26741W        W99166  33.903   7.627   2.713
26742W        W99167   0.941  23.751   1.625
26743W        W99168  35.475  30.723   4.847
26744W        W99169  29.771  33.349  14.513
26745W        W99170  30.690  16.287   3.737
26746W        W99171  34.263   5.490   2.423
26747W        W99172  30.158  19.226  11.554
26748W        W99173  20.269  30.169  12.454
26749W        W99174  32.718  42.061  14.612
26750W        W99175  31.625  25.271  11.915
26751W        W99176  12.592  26.361   3.360
26752W        W99177  28.545  40.088  11.115
26753W        W99178  29.969  20.670   4.512
26754W        W99179  14.789  18.553  11.940
26755W        W99180  39.095  10.770  13.502
26756W        W99181   6.734  19.554  14.490
26757W        W99182   0.703  14.528  13.498
26758W        W99183  27.021  37.856   0.744
26759W        W99184  31.692  29.199  13.607
26760W        W99185  39.119  24.444   3.875
26761W        W99186  38.507   8.997  13.444
26762W        W99187  23.537  38.919   2.984
26763W        W99188  22.241  19.794  13.048
26764W        W99189   8.404  29.510  14.524
26765W        W99190  31.938   2.020  14.772
26766W        W99191  38.323  34.496   0.325
26767W        W99192  44.016  38.150   0.207
26768W        W99193  10.882  21.979  14.317
26769W        W99194  29.187  26.563   1.820
26770W        W99195  33.367  38.976  10.613
26771W        W99196  40.081  36.466   4.178
26772W        W99197  34.920   3.896   3.620
26773W        W99198  13.160  43.305   4.133
26774W        W99199  42.872  30.118  11.931
26775W        W99200  15.357  34.397   2.771
26776W        W99201  39.695  18.731  14.681
26777W        W99202  41.996   4.810   1.795
26778W        W99203   9.092  13.997   3.148
26779W        W99204   3.840   1.910   2.758
26780W        W99205  29.108  10.908   1.924
26781W        W99206   4.991   5.273  12.444
26782W        W99207  13.246   4.038  10.571
26783W        W99208  40.821   9.318  11.901
26784W        W99209  37.911  37.002   3.780
26785W        W99210  38.968  40.604  11.651
26786W        W99211  32.841  25.158   4.543
26787W        W99212  28.561  22.828   5.110
26788W        W99213  37.101   2.409   2.914
26789W        W99214  28.014  14.254  14.978
26790W        W99215  24.724  19.032   0.783
26791W        W99216  27.917  43.267  14.451
26792W        W99217  32.424  13.384   4.707
26793W        W99218   5.490  15.205  13.094
26794W        W99219   3.250  41.799   3.491
26795W        W99220   0.203  42.414   1.848
26796W        W99221  26.195  14.151   3.565
26797W        W99222  35.672  12.345  11.146
26798W        W99223  38.792  14.687  11.521
26799W        W99224  44.088  20.388   2.262
26800W        W99225  42.218  17.792  11.725
26801W        W99226  15.169  15.599  13.404
26802W        W99227   8.402  26.418   1.360
26803W        W99228  21.050   1.594  11.522
26804W        W99229  31.768  14.038   5.030
26805W        W99230  15.752  31.291   2.216
26806W        W99231  26.391  20.208   2.692
26807W        W99232   5.838  18.779  13.773
26808W        W99233  24.025  42.692  14.728
26809W        W99234  26.787  16.425  14.400
26810W        W99235  26.498  28.214   4.382
26811W        W99236  41.431   6.198   2.623
26812W        W99237  12.182   2.917  14.821
26813W        W99238   1.684   0.238   4.204
26814W        W99239  44.986   8.378   0.269
26815W        W99240  25.230  16.700   2.599
26816W        W99241  34.412  42.259  14.858
26817W        W99242   5.060   5.949  14.864
26818W        W99243  27.534   4.966   4.147
26819W        W99244  39.997  25.500   3.323
26820W        W99245   4.912   8.760  10.590
26821W        W99246  40.287  13.909   0.795
26822W        W99247   4.958  20.149   5.168
26823W        W99248   4.455  29.251  12.618
26824W        W99249  40.077  17.211  14.464
26825W        W99250  19.168  24.232   0.461
26826W        W99251  21.693  21.042  11.585
26827W        W99252  38.961  37.749  10.054
26828W        W99253  11.714   1.283  12.086
26829W        W99254  39.409  37.669   2.719
26830W        W99255  19.711  10.187  14.231
26831W        W99256   1.741  12.682  11.500
26832W        W99257  38.535  44.005  14.839
26833W        W99258  32.811   3.820   0.373
26834W        W99259  42.019  27.732   0.708
26835W        W99260  36.430  33.864  11.333
26836W        W99261  38.177  18.401   1.903
26837W        W99262  22.162  22.746  11.082
26838W        W99263  41.301   1.960   0.771
26839W        W99264  18.024   8.565  14.917
26840W        W99265  24.030  38.938   5.165
26841W        W99266  35.538  14.728   4.699
26842W        W99267  34.512  41.916   3.096
26843W        W99268  12.282   2.429  12.843
26844W        W99269  11.297  20.185  11.070
26845W        W99270  24.073   1.895   3.173
26846W        W99271  12.764  26.668  11.444
26847W        W99272   8.219   6.686   2.359
26848W        W99273  11.922  23.948   4.816
26849W        W99274  25.041  30.985   1.897
26850W        W99275   8.982  28.892   1.089
26851W        W99276  27.717   4.389  12.249
26852W        W99277  21.556   2.008  12.577
26853W        W99278  10.216  16.519  11.720
26854W        W99279  16.024  35.009  13.411
26855W        W99280  11.793   0.855   1.097
26856W        W99281  38.251  22.212   2.268
26857W        W99282  39.093  44.419  14.115
26858W        W99283  21.569  37.316   3.833
26859W        W99284  10.828  28.462   0.606
26860W        W99285  15.251  16.602  13.422
26861W        W99286  43.929  19.966   5.068
26862W        W99287  32.472  23.348  10.433
26863W        W99288  34.650   5.335  12.872
26864W        W99289  41.909  44.002  14.865
26865W        W99290  11.355   4.327  13.282
26866W        W99291   4.831  22.744   4.330
26867W        W99292  28.556  39.583  11.991
26868W        W99293  42.949  36.803   1.763
26869W        W99294  10.239  18.084   2.530
26870W        W99295  39.303  25.970   1.716
26871W        W99296  17.523  16.076  10.750
26872W        W99297  27.344  21.443   9.796
26873W        W99298  41.867  44.700  11.186
26874W        W99299  41.809  43.748   0.312
26875W        W99300   2.942  32.382  11.219
26876W        W99301   7.387   0.576  10.758
26877W        W99302  38.038  26.427  13.408
26878W        W99303  19.072  37.882   2.254
26879W        W99304  32.550  24.227  11.629
26880W        W99305  35.082   9.989   3.194
26881W        W99306   8.351   0.742  12.169
26882W        W99307  17.277  32.634  12.790
26883W        W99308   0.334  41.809  13.024
26884W        W99309  34.668  28.726  12.906
26885W        W99310   3.406  27.132  11.042
26886W        W99311   7.454  42.755  12.410
26887W        W99312  34.103  33.858  12.376
26888W        W99313  39.269  36.944  14.509
26889W        W99314   6.993  37.396  14.827
26890W        W99315  22.205  27.760   4.489
26891W        W99316  40.727  14.880   0.259
26892W        W99317   5.819   0.974   2.315
26893W        W99318  31.569   4.776   4.193
26894W        W99319   4.703   7.052  11.554
26895W        W99320  26.752  22.684  14.491
26896W        W99321  24.505  14.144  14.422
26897W        W99322  13.695  19.653   1.371
26898W        W99323  32.071  34.980   0.287
26899W        W99324  11.127   7.713   4.086
26900W        W99325  13.850  36.108  14.005
26901W        W99326   1.754   8.076   3.626
26902W        W99327   8.240  36.085   4.928
26903W        W99328  41.418  15.487   3.917
26904W        W99329  43.045   0.878  11.120
26905W        W99330  22.759  23.765   4.046
26906W        W99331  42.025  30.600   0.159
26907W        W99332  20.235   8.718  13.844
26908W        W99333  35.380  15.080   1.888
26909W        W99334  33.142  17.691   3.760
26910W        W99335  35.091  22.192  10.811
26911W        W99336  13.288  16.254   3.613
26912W        W99337  43.024  20.249   0.834
26913W        W99338  40.527   0.528  11.616
26914W        W99339   6.285  30.887   2.785
26915W        W99340  34.820  17.219  10.843
26916W        W99341  12.608  33.966   4.322
26917W        W99342   0.040  11.284   2.703
26918W        W99343  28.161  15.540   1.917
26919W        W99344   7.254  39.582   3.422
26920W        W99345  40.426  40.625  14.565
26921W        W99346  29.893  23.720   0.904
26922W        W99347   8.182  22.103  13.589
26923W        W99348  29.686  16.554  13.422
26924W        W99349  27.007   3.303  12.824
26925W        W99350  35.067  12.169  14.197
26926W        W99351   9.173  24.731   1.719
26927W        W99352  27.651   7.687   4.847
26928W        W99353   7.988  10.109  12.449
26929W        W99354  16.155  13.251  12.131
26930W        W99355  34.991  38.537   2.314
26931W        W99356  19.070  19.801   0.880
26932W        W99357  20.838  25.607  12.944
26933W        W99358  19.734  13.696  11.202
26934W        W99359   5.174  37.450  12.816
26935W        W99360  33.606   3.733  13.441
26936W        W99361  11.765  24.379  13.156
26937W        W99362  20.274   6.159  14.444
26938W        W99363  21.589   2.157   0.799
26939W        W99364  12.777   7.446   1.647
26940W        W99365  15.054  36.662   1.072
26941W        W99366  44.415  23.418   1.389
26942W        W99367  26.690  31.994  14.302
26943W        W99368   5.239  30.152  14.774
26944W        W99369  22.054   6.504   1.307
26945W        W99370  15.399  41.650   2.749
26946W        W99371   8.248  32.703  13.924
26947W        W99372  24.605  40.952   0.012
26948W        W99373  12.241   5.680   3.118
26949W        W99374  14.420  15.364  12.364
26950W        W99375  39.962  11.835   3.845
26951W        W99376   3.399  17.400   2.451
26952W        W99377   0.915  33.309   4.667
26953W        W99378  25.004   4.910  10.997
26954W        W99379  23.149   3.404   2.383
26955W        W99380  43.902   6.261   0.905
26956W        W99381  33.089  10.706  12.886
26957W        W99382  39.581  26.592  13.500
26958W        W99383   5.348  25.513   0.846
26959W        W99384  29.927  10.395   0.309
26960W        W99385  26.173  22.294   2.836
26961W        W99386  39.441  26.044  14.774
26962W        W99387  12.795  41.022   1.466
26963W        W99388  14.229  39.800  10.689
26964W        W99389  38.565  34.828  14.472
26965W        W99390  32.512   4.962   4.106
26966W        W99391  14.653  44.443   4.160
26967W        W99392   5.836   5.119  13.961
26968W        W99393   1.708  22.136   3.651
26969W        W99394  28.478  21.976   4.060
26970W        W99395   4.187  15.577  13.366
26971W        W99396  26.839  25.703   2.247
26972W        W99397   5.910  14.202  11.640
26973W        W99398   3.513  19.236  10.577
26974W        W99399  15.092   3.167  10.481
26975W        W99400   5.388  38.801  12.428
26976W        W99401  32.659   1.837   2.804
26977W        W99402   6.771  20.200  14.676
26978W        W99403  43.486  20.783  12.501
26979W        W99404   7.143   5.196   0.419
26980W        W99405   2.278   4.178  12.431
26981W        W99406  27.271  26.561   2.627
26982W        W99407  19.043   3.590   0.466
26983W        W99408  27.367   3.527  11.458
26984W        W99409   0.976   0.833   0.477
26985W        W99410  35.289  12.124   1.839
26986W        W99411   7.304  21.596   2.283
26987W        W99412  10.232   7.588  12.419
26988W        W99413   4.915  37.830  14.691
26989W        W99414  26.734  44.596   1.859
26990W        W99415  22.538  13.735   1.149
26991W        W99416  35.092  14.791   3.750
26992W        W99417   2.437  21.684  14.968
26993W        W99418  18.870  25.809  14.833
26994W        W99419  17.869   1.414   1.205
26995W        W99420  22.037  22.087   0.050
26996W        W99421  24.806  18.740  14.016
26997W        W99422  16.210  24.998   3.207
26998W        W99423   5.444  43.352   4.181
26999W        W99424  41.333  22.244   1.001
27000W        W99425  41.079  16.994  14.528
27001W        W99426  44.931  10.308  10.657
27002W        W99427   7.671  28.246  12.814
27003W        W99428  27.626  26.117   1.012
27004W        W99429  33.159   2.733   0.512
27005W        W99430  38.646   8.252  11.937
27006W        W99431  10.131   3.621  13.995
27007W        W99432  23.729  28.598   0.404
27008W        W99433   4.452  36.320  14.985
27009W        W99434  22.097  40.796   2.923
27010W        W99435   3.546  32.247   1.750
27011W        W99436   2.226  11.781   2.406
27012W        W99437  11.708   2.671   9.986
27013W        W99438   6.817  37.089   4.856
27014W        W99439  27.065  14.506  14.333
27015W        W99440  35.811   2.640  11.203
27016W        W99441  38.448  29.984  14.400
27017W        W99442  28.408   2.269   3.364
27018W        W99443  33.669  19.409   2.803
27019W        W99444  40.517  36.028  10.821
27020W        W99445  14.168   8.658  11.550
27021W        W99446  33.710   7.284   3.331
27022W        W99447  39.891  19.844   1.273
27023W        W99448  11.050   6.841  10.612
27024W        W99449  34.874  41.971  12.025
27025W        W99450  15.048  36.587   1.582
27026W        W99451  44.665  39.074   4.796
27027W        W99452  29.986   4.042   4.250
27028W        W99453  22.279  36.550  12.983
27029W        W99454  41.511  29.641   2.698
27030W        W99455  35.867  29.923   3.623
27031W        W99456  27.940  13.608  12.589
27032W        W99457   3.773  39.383  13.879
27033W        W99458  12.488  15.260  14.220
27034W        W99459   3.969  23.652  10.589
27035W        W99460  19.078  39.369  13.239
27036W        W99461  38.825  23.460  12.643
27037W        W99462  16.095  24.420   2.548
27038W        W99463  44.924  33.660   3.688
27039W        W99464  18.870  40.974  14.070
27040W        W99465   4.858  36.968  10.707
27041W        W99466  13.307   9.640   1.733
27042W        W99467  15.072  30.901  13.021
27043W        W99468  39.662  12.359  14.858
27044W        W99469  14.775   9.245   1.353
27045W        W99470  36.596  14.011   0.440
27046W        W99471  26.683  44.089   1.779
27047W        W99472  29.000  41.576  11.695
27048W        W99473  25.697  25.077  10.766
27049W        W99474   8.196  31.564   1.712
27050W        W99475  20.662  14.841  13.037
27051W        W99476  21.358  32.997   3.686
27052W        W99477  13.848  25.896  13.436
27053W        W99478  24.009  33.892  10.353
27054W        W99479   9.717  25.507   0.825
27055W        W99480   3.786   2.118   3.249
27056W        W99481  40.438  11.889   5.060
27057W        W99482   8.319  42.421  10.976
27058W        W99483  24.181  30.549  11.548
27059W        W99484  36.886  36.950  13.725
27060W        W99485  15.825  41.909   0.235
27061W        W99486   1.936  15.943   3.719
27062W        W99487  15.098  19.563   1.167
27063W        W99488  17.117  17.043  10.473
27064W        W99489  12.592  10.349   3.842
27065W        W99490  32.025  40.382  12.553
27066W        W99491   1.094   2.269  11.849
27067W        W99492   6.740  38.475   2.220
27068W        W99493   7.353  34.144   1.930
27069W        W99494  19.848  43.771   2.324
27070W        W99495   3.707  44.993   4.124
27071W        W99496   8.020  39.459   1.939
27072W        W99497  11.854  18.168   0.292
27073W        W99498   9.673  18.081  14.717
27074W        W99499  37.654  32.900  12.023
27075W        W99500  12.050   2.497   2.818
27076W        W99501   9.888  34.974   2.915
27077W        W99502  13.106  34.860   1.494
27078W        W99503  16.224  32.638   4.201
27079W        W99504  44.780  34.021   1.358
27080W        W99505  32.526  15.840  13.775
27081W        W99506  42.813  44.073   3.710
27082W        W99507  34.399  22.155  13.941
27083W        W99508  31.103  24.695  14.941
27084W        W99509  18.579   3.930   2.196
27085W        W99510   5.656  19.667   4.773
27086W        W99511  21.261  31.524   0.860
27087W        W99512  14.103  43.502   3.770
27088W        W99513  31.104  23.753   0.874
27089W        W99514  42.978   8.310   3.138
27090W        W99515  14.196  33.397   0.224
27091W        W99516   4.042  14.397  12.002
27092W        W99517  36.529  41.441   1.806
27093W        W99518  25.468  10.841   3.380
27094W        W99519  26.740   7.101  14.419
27095W        W99520  33.065  44.887  11.018
27096W        W99521  15.643  43.080   3.530
27097W        W99522  39.079  24.414  12.374
27098W        W99523  44.092   3.140   0.050
27099W        W99524  21.744  36.562  11.111
27100W        W99525  24.491  15.530   3.170
27101W        W99526  24.079   1.903  14.985
27102W        W99527  39.390   9.773   3.322
27103W        W99528  25.136   9.375   1.632
27104W        W99529  33.659  36.451   0.898
27105W        W99530  21.846  44.476   0.991
27106W        W99531  17.674  20.644  10.575
27107W        W99532   1.728  13.194   0.298
27108W        W99533  10.870  11.517  11.668
27109W        W99534   8.262  43.368   3.582
27110W        W99535  42.514  18.964   5.488
27111W        W99536  17.338  25.300  10.687
27112W        W99537  24.676  36.383   1.670
27113W        W99538   1.427  17.223  13.953
27114W        W99539  24.218  39.544  13.175
27115W        W99540  35.573  20.004  12.970
27116W        W99541   4.826   7.111   2.702
27117W        W99542  22.689  21.185   3.252
27118W        W99543  37.108  31.937  14.558
27119W        W99544  14.179  26.481   0.282
27120W        W99545  20.471  38.639   0.318
27121W        W99546  39.262  32.498  11.070
27122W        W99547  11.918  25.500  10.719
27123W        W99548  17.301  29.919   0.382
27124W        W99549   1.838  30.325   4.164
27125W        W99550   4.161  20.279   2.688
27126W        W99551  13.863  43.816   4.099
27127W        W99552   7.821  28.426  13.784
27128W        W99553  17.724  41.361  12.541
27129W        W99554  24.240   4.555  13.057
27130W        W99555   5.565   7.710  13.379
27131W        W99556  40.843  14.082  11.377
27132W        W99557  33.509  34.095  11.098
27133W        W99558  28.570  43.269   1.836
27134W        W99559   5.850  34.173  10.982
27135W        W99560  31.661  40.267  10.439
27136W        W99561   0.014  21.595  13.955
27137W        W99562  33.201   0.358  14.504
27138W        W99563  12.648  22.524  13.042
27139W        W99564  34.056  24.103  12.561
27140W        W99565  12.895   3.929   9.743
27141W        W99566  30.084  22.734   1.756
27142W        W99567  26.807   9.106   0.970
27143W        W99568   7.269   5.249   1.859
27144W        W99569  14.096  18.086  14.051
27145W        W99570  39.149  19.621   4.111
27146W        W99571  27.715  18.938  13.541
27147W        W99572  42.995  39.814  11.972
27148W        W99573  25.501  30.015  11.681
27149W        W99574  28.521  27.777  10.783
27150W        W99575   4.698   2.487   2.727
27151W        W99576  23.679  42.056   0.265
27152W        W99577  28.470  36.947   1.267
27153W        W99578  32.924  32.685  11.973
27154W        W99579  24.510   1.491   1.509
27155W        W99580  31.133  10.326   2.741
27156W        W99581   7.116   5.990   0.851
27157W        W99582  44.690   4.975  11.410
27158W        W99583  44.782  25.975  14.865
27159W        W99584  10.762  19.317   2.957
27160W        W99585  34.836  13.200   1.382
27161W        W99586  23.614  33.607  14.657
27162W        W99587   9.596  34.361  14.527
27163W        W99588   6.321  40.909   3.597
27164W        W99589  20.266   1.425   5.044
27165W        W99590  44.628  36.829   2.759
27166W        W99591  35.115  10.609  14.470
27167W        W99592  22.785   5.280   0.639
27168W        W99593  43.357   6.719  12.915
27169W        W99594  29.967   6.128  14.393
27170W        W99595  40.250  14.661   0.248
27171W        W99596  38.524   3.403  12.534
27172W        W99597  20.229  21.731   4.376
27173W        W99598  32.953   6.327  13.355
27174W        W99599  41.895  15.232   0.060
27175W        W99600  29.452  17.296  11.980
27176W        W99601   2.808  18.045   4.261
27177W        W99602  41.468  24.438   2.635
27178W        W99603   7.172  10.327  10.821
27179W        W99604  19.754  19.314   1.296
27180W        W99605  25.117  27.716   3.605
27181W        W99606  26.681  36.343  14.328
27182W        W99607   7.343  33.390  11.977
27183W        W99608  28.608  12.814   2.616
27184W        W99609   8.972  14.303   2.504
27185W        W99610  44.793   2.063   1.275
27186W        W99611  32.051  37.772   2.031
27187W        W99612  20.242  44.267   0.910
27188W        W99613   5.638  31.161  13.657
27189W        W99614  44.915  37.690   1.035
27190W        W99615  29.073  29.423  14.831
27191W        W99616  28.227  26.655  11.480
27192W        W99617  21.731  43.030   1.068
27193W        W99618   6.479  43.786  12.818
27194W        W99619  35.131  10.003   2.674
27195W        W99620  28.968  44.287   3.990
27196W        W99621  39.879  35.955  14.987
27197W        W99622  27.019  41.789   3.579
27198W        W99623  44.992  32.120  11.528
27199W        W99624  38.708  26.993   0.793
27200W        W99625  31.380  44.809  13.348
27201W        W99626  43.906  20.718  13.962
27202W        W99627  14.348  39.486   3.640
27203W        W99628  41.290  17.000   1.283
27204W        W99629  44.816  25.492  12.485
27205W        W99630  42.759  28.632   4.345
27206W        W99631   0.820  28.713   1.750
27207W        W99632   0.967  12.893  10.808
27208W        W99633  33.459  40.771  12.600
27209W        W99634  40.894  43.415  14.971
27210W        W99635   3.388   1.762  11.136
27211W        W99636  14.201  44.363   2.763
27212W        W99637  30.033  28.627   2.622
27213W        W99638  19.059  35.399  13.578
27214W        W99639  19.781   3.350  12.406
27215W        W99640  14.731  42.303   4.572
27216W        W99641   8.366   0.079   0.954
27217W        W99642   5.416  39.337   2.235
27218W        W99643   0.449  30.917  12.463
27219W        W99644  15.869  43.732   2.177
27220W        W99645  14.689   6.629  10.811
27221W        W99646  19.096   2.916   3.597
27222W        W99647  16.655  21.800   2.692
27223W        W99648  18.242  23.525  14.344
27224W        W99649  14.402  14.259   4.332
27225W        W99650   3.755  10.831   2.353
27226W        W99651   6.677  32.853   2.263
27227W        W99652   1.710  32.138  13.080
27228W        W99653  19.530  28.803  11.707
27229W        W99654  10.200  25.047  14.335
27230W        W99655  11.470  16.654   3.736
27231W        W99656  12.662  24.292   2.358
27232W        W99657  37.035  40.017   0.833
27233W        W99658  13.050  22.996  11.909
27234W        W99659  32.069  26.687   0.706
27235W        W99660  21.472  18.799  11.190
27236W        W99661   3.575  40.996  14.853
27237W        W99662  32.190  15.223  14.347
27238W        W99663   2.263   3.482   4.659
27239W        W99664  19.026  40.482  11.562
27240W        W99665   5.231  32.471  12.985
27241W        W99666  44.315  21.623  10.188
27242W        W99667  20.598  22.001  12.781
27243W        W99668  39.605  28.072   0.423
27244W        W99669   5.099  39.569  12.422
27245W        W99670  44.601  23.614  12.616
27246W        W99671  27.746  23.420   0.169
27247W        W99672  13.059  12.728  12.103
27248W        W99673  15.621  21.244   0.993
27249W        W99674  19.644  13.237  10.962
27250W        W99675  25.654  39.628  14.416
27251W        W99676  10.624  15.139  13.173
27252W        W99677   6.404  28.503   3.208
27253W        W99678  18.371  19.636  13.312
27254W        W99679  13.234  18.275  13.684
27255W        W99680  21.466  39.203  10.504
27256W        W99681   1.396  11.779  12.483
27257W        W99682  24.499  18.041   4.095
27258W        W99683   0.272  17.787   0.980
27259W        W99684  17.633  37.853  11.631
27260W        W99685  18.097  35.526  13.900
27261W        W99686   9.776  39.341   2.697
27262W        W99687  39.582  18.160   3.342
27263W        W99688  43.931  20.554  12.659
27264W        W99689  43.517  21.552  11.087
27265W        W99690  44.243  37.235  14.932
27266W        W99691  29.416   7.436  14.451
27267W        W99692  11.312  28.142   4.594
27268W        W99693  11.363  15.725   4.120
27269W        W99694  31.341  29.380  14.917
27270W        W99695  23.713  29.261  14.900
27271W        W99696  15.131   0.515  11.628
27272W        W99697  37.505  44.819   3.080
27273W        W99698  38.246  38.882   3.660
27274W        W99699  37.533   9.743   4.318
27275W        W99700  24.114  44.976   0.607
27276W        W99701   7.381  15.535   5.012
27277W        W99702  43.258  23.071   3.380
27278W        W99703  15.586  33.127   2.212
27279W        W99704   7.911   0.236  11.953
27280W        W99705  38.122  19.095  11.137
27281W        W99706  10.896   2.743  11.142
27282W        W99707   7.095  20.595   3.718
27283W        W99708  31.656  25.620  12.293
27284W        W99709  30.183  34.021   2.355
27285W        W99710  36.129  26.150  11.173
27286W        W99711   3.208  13.157  13.768
27287W        W99712  33.241  12.657  11.188
27288W        W99713  16.267  33.409   4.671
27289W        W99714  42.411  11.194  12.586
27290W        W99715  16.350  17.679   2.706
27291W        W99716  19.687  14.690   0.526
27292W        W99717   3.952   5.968   3.744
27293W        W99718  13.171  41.426  11.927
27294W        W99719  41.963  29.771   5.208
27295W        W99720  16.107   2.136   5.156
27296W        W99721  17.568   1.729   3.755
27297W        W99722  34.637  24.702   3.610
27298W        W99723  40.156   3.741   1.148
27299W        W99724  43.484  33.971   4.493
27300W        W99725   1.199  32.269   2.740
27301W        W99726  22.544  35.941  13.070
27302W        W99727  13.453   7.451   1.239
27303W        W99728   8.236  44.074  13.994
27304W        W99729  20.745  37.785  13.338
27305W        W99730  32.859  33.008   0.107
27306W        W99731  18.200  19.860  14.393
27307W        W99732  18.547  38.843   2.209
27308W        W99733  11.427  33.334  12.994
27309W        W99734  40.957  25.495  11.136
27310W        W99735  40.031  32.863  13.857
27311W        W99736   0.360   9.361   3.554
27312W        W99737   0.440   9.219  14.816
27313W        W99738  43.794  33.539   2.835
27314W        W99739  43.875   4.323  14.115
27315W        W99740  10.801   1.928   1.872
27316W        W99741  11.789   2.388  10.780
27317W        W99742  13.078  20.584  14.496
27318W        W99743  15.656   9.216   0.823
27319W        W99744  13.011  42.623  10.537
27320W        W99745  12.834  35.195  11.117
27321W        W99746  29.106  10.298   3.289
27322W        W99747  20.242  30.463  11.628
27323W        W99748  30.383  35.017  13.418
27324W        W99749  43.092   5.774   4.694
27325W        W99750  20.541  18.145   0.894
27326W        W99751  25.769   5.676  11.421
27327W        W99752  31.979   5.724  13.111
27328W        W99753  44.792  42.416   0.526
27329W        W99754  42.452  12.047   3.174
27330W        W99755  44.061  37.319   3.161
27331W        W99756  28.444  39.569  13.954
27332W        W99757  40.506   1.477  11.526
27333W        W99758   7.878  43.649   2.873
27334W        W99759   3.226  43.374   1.264
27335W        W99760   2.278  22.755  12.577
27336W        W99761   3.491  17.142  10.739
27337W        W99762  34.891  36.664   3.110
27338W        W99763  27.667  42.478  11.491
27339W        W99764  22.236  18.299   1.285
27340W        W99765  21.521  44.051   0.982
27341W        W99766   4.498  23.625   4.820
27342W        W99767  28.946  12.413  12.140
27343W        W99768   0.162   9.587   2.181
27344W        W99769  18.034  30.011   1.786
27345W        W99770   6.937  16.742   1.237
27346W        W99771  41.569  22.198   4.682
27347W        W99772   1.595  37.461   3.306
27348W        W99773  32.182   5.295   0.886
27349W        W99774  25.354  29.550   5.495
27350W        W99775  19.284  25.039   1.164
27351W        W99776   3.918  30.837   4.723
27352W        W99777  35.947  23.650  13.013
27353W        W99778  36.054  24.003  14.849
27354W        W99779  10.132   5.862   1.878
27355W        W99780  18.724  14.919   1.347
27356W        W99781  27.597  16.823   1.838
27357W        W99782   3.177  42.861   1.376
27358W        W99783  28.176   0.013   0.271
27359W        W99784  34.513   3.740  14.978
27360W        W99785   2.386  23.731  14.718
27361W        W99786  22.315  19.428  12.056
27362W        W99787  28.003  14.511   2.832
27363W        W99788  38.519  22.869   3.376
27364W        W99789  39.784  26.736  11.533
27365W        W99790  20.057  34.796  11.075
27366W        W99791   0.475   5.803  13.359
27367W        W99792   7.628  31.028  10.946
27368W        W99793  26.723  38.442  10.712
27369W        W99794  31.795  37.009   3.368
27370W        W99795   0.508   9.114  13.282
27371W        W99796   0.623  16.048  11.913
27372W        W99797  29.454  10.226   5.039
27373W        W99798  23.645  39.544   0.434
27374W        W99799  18.312  29.786   2.633
27375W        W99800  32.641  31.368  11.277
27376W        W99801  18.831  17.564   2.159
27377W        W99802   4.921  37.497   2.384
27378W        W99803  25.681  21.725   1.933
27379W        W99804  40.959  28.261  11.554
27380W        W99805   5.462  30.133   2.686
27381W        W99806   8.628  12.143   4.648
27382W        W99807  30.487  17.716  12.464
27383W        W99808  12.619   5.777   4.648
27384W        W99809  31.051  23.814   5.714
27385W        W99810  41.490   7.798  10.661
27386W        W99811  31.473  29.492   0.778
27387W        W99812  29.737  21.249  12.081
27388W        W99813  25.491  38.412   4.588
27389W        W99814  24.253   7.364   4.649
27390W        W99815  24.583  10.587  12.967
27391W        W99816  30.447  30.603   0.427
27392W        W99817  24.587  39.999   4.585
27393W        W99818  41.980  15.025   3.214
27394W        W99819   5.188   3.001  12.156
27395W        W99820   9.749  40.455  11.780
27396W        W99821  29.531  10.303   1.759
27397W        W99822   6.112  31.374   2.793
27398W        W99823  19.764   8.783   1.460
27399W        W99824  14.860  37.433   1.092
27400W        W99825  20.405  21.115   4.504
27401W        W99826  28.049   5.435  13.992
27402W        W99827  15.353  19.343   3.343
27403W        W99828  25.654  40.228  12.844
27404W        W99829  15.360   3.818  11.832
27405W        W99830  14.586  21.502  13.382
27406W        W99831  19.283   6.370   0.216
27407W        W99832  18.743  39.568   0.431
27408W        W99833  20.587  30.992   3.141
27409W        W99834  41.367  43.300  14.350
27410W        W99835  17.519   8.690   1.775
27411W        W99836  34.833  27.277  13.144
27412W        W99837   7.678  21.777   2.706
27413W        W99838  22.771   0.900  11.551
27414W        W99839  37.036  30.445  12.339
27415W        W99840  23.178  28.158  11.663
27416W        W99841  17.286  36.685   4.543
27417W        W99842  44.734  35.793  13.384
27418W        W99843  33.448  27.655  14.021
27419W        W99844  37.294  39.928  11.993
27420W        W99845  24.732  33.955   4.272
27421W        W99846  24.363  12.281  12.592
27422W        W99847  22.601   9.655  10.151
27423W        W99848  14.264  23.651   2.338
27424W        W99849   6.884  15.682   0.430
27425W        W99850  44.036   0.610   2.526
27426W        W99851  42.906  39.581  12.426
27427W        W99852  27.178  35.117  11.635
27428W        W99853  26.101   4.296   2.334
27429W        W99854  12.834  18.645  13.148
27430W        W99855   9.259  11.872   1.039
27431W        W99856   3.027  14.284  14.977
27432W        W99857  39.531  35.920   2.300
27433W        W99858  37.793  20.274  14.874
27434W        W99859  10.256   7.677   0.031
27435W        W99860  40.885  39.871   0.800
27436W        W99861  34.922   9.387  13.950
27437W        W99862  35.087  28.422  12.981
27438W        W99863  18.075  39.417  13.140
27439W        W99864  40.150  24.404   1.660
27440W        W99865  10.263  28.465   3.166
27441W        W99866  37.869  18.612  11.630
27442W        W99867  40.748  37.542  14.771
27443W        W99868  23.489  42.844   3.219
27444W        W99869  19.678  41.877  14.709
27445W        W99870  37.488  30.446  12.655
27446W        W99871  43.228  20.044   1.258
27447W        W99872   9.167  32.928   1.391
27448W        W99873  10.453   8.321  14.489
27449W        W99874  14.326  37.483  11.579
27450W        W99875  22.261  39.415   4.633
27451W        W99876  32.668  10.778   1.226
27452W        W99877  30.956   1.339   3.705
27453W        W99878  37.899   9.676   0.524
27454W        W99879  29.939  43.195   1.797
27455W        W99880  40.283   4.669   2.712
27456W        W99881  24.587   5.292  12.640
27457W        W99882  37.093   4.438  10.991
27458W        W99883  24.208  38.694   4.162
27459W        W99884  17.636  12.193  14.479
27460W        W99885  34.959  20.717   3.237
27461W        W99886  18.483  36.095   2.227
27462W        W99887  36.278  28.511   1.384
27463W        W99888  13.898  39.333  14.846
27464W        W99889  31.069  44.791   0.761
27465W        W99890  22.679  31.906  14.298
27466W        W99891  34.806  43.881  14.507
27467W        W99892  31.454  30.956   3.711
27468W        W99893  32.041  26.612   2.455
27469W        W99894  16.515  32.851   2.323
27470W        W99895  13.435   7.661   3.264
27471W        W99896  18.035  31.056  14.814
27472W        W99897  27.434  21.982  14.878
27473W        W99898   9.571  30.507  11.959
27474W        W99899  10.405  16.803  14.987
27475W        W99900   8.198   8.371  11.893
27476W        W99901  16.413  21.242  12.314
27477W        W99902  16.301  25.218   2.352
27478W        W99903   5.239  27.541  11.326
27479W        W99904  26.186   0.727  11.635
27480W        W99905  15.178  24.836   3.125
27481W        W99906  35.954  41.679  13.363
27482W        W99907   2.661  34.408  11.377
27483W        W99908  26.301  12.382   2.737
27484W        W99909  28.470  30.925  13.994
27485W        W99910   4.680   6.959  12.060
27486W        W99911   5.412  33.924  14.365
27487W        W99912   8.108   4.981   0.907
27488W        W99913   5.413  22.643   0.369
27489W        W99914  41.517  21.396  12.422
27490W        W99915  34.174  11.708   2.639
27491W        W99916   0.001   3.478  10.445
27492W        W99917  24.773  21.239  10.072
27493W        W99918  10.250  31.960   2.168
27494W        W99919  23.720  10.179   2.933
27495W        W99920   1.894  27.068  13.904
27496W        W99921   9.809   2.859  14.369
27497W        W99922  24.600   1.319  13.970
27498W        W99923  26.728  31.956  10.335
27499W        W99924   4.928   7.326  10.674
27500W        W99925  44.875  25.931   0.818
27501W        W99926  13.904   0.416  12.084
27502W        W99927  21.245  17.155   3.978
27503W        W99928   9.989   3.105   0.854
27504W        W99929  11.084  34.851  12.826
27505W        W99930  40.802  21.652  11.167
27506W        W99931   0.696   3.826  13.489
27507W        W99932  36.642   3.347  10.293
27508W        W99933   7.217  38.040  14.469
27509W        W99934  40.450  13.410  12.042
27510W        W99935  17.146  12.933  10.755
27511W        W99936  28.731  18.683  12.057
27512W        W99937   1.944  19.220  11.189
27513W        W99938  44.286  25.130   0.742
27514W        W99939   4.087   4.329   4.165
27515W        W99940  12.597  16.216  13.849
27516W        W99941  19.040  43.363  12.018
27517W        W99942  24.789  24.689   2.400
27518W        W99943   0.925  39.355   0.763
27519W        W99944   2.438   2.496  13.757
27520W        W99945   9.302  40.747  11.055
27521W        W99946  39.129  33.126  12.750
27522W        W99947  39.005  14.842   3.717
27523W        W99948  38.088  43.858   4.464
27524W        W99949  26.595  25.796   4.530
27525W        W99950  35.622  21.804  12.583
27526W        W99951  36.669  41.419  14.690
27527W        W99952  27.597  38.738   0.303
27528W        W99953  37.149   3.399   4.051
27529W        W99954   1.923  16.545   1.172
27530W        W99955  40.830  40.755   0.715
27531W        W99956  42.815  14.077  13.851
27532W        W99957  11.754  19.323  12.059
27533W        W99958  40.111  26.057   1.410
27534W        W99959  29.418   8.734   2.273
27535W        W99960   6.964  35.968  13.769
27536W        W99961   9.678  28.577  10.668
27537W        W99962  28.212  19.297   0.137
27538W        W99963  44.751  35.491  14.954
27539W        W99964  40.997   1.195   2.826
27540W        W99965  15.375  44.916   4.582
27541W        W99966   2.836  14.681  14.706
27542W        W99967  10.291  19.673   4.168
27543W        W99968  37.124   8.434   4.647
27544W        W99969  14.749   3.361   1.892
27545W        W99970  17.357   0.411  14.490
27546W        W99971   8.199  35.929   2.893
27547W        W99972  10.684  44.242  12.063
27548W        W99973  11.637  37.802   4.502
27549W        W99974  42.496  34.634   3.965
27550W        W99975  44.126  43.756   1.376
27551W        W99976  41.797   3.828  11.051
27552W        W99977   3.804  36.458  11.582
27553W        W99978  11.364   1.031   1.842
27554W        W99979   8.855  13.510  14.808
27555W        W99980  35.904   7.849   3.680
27556W        W99981  37.070  26.229  11.127
27557W        W99982   2.665  28.550   2.065
27558W        W99983  38.467   0.020   3.650
27559W        W99984  37.510  30.971   2.226
27560W        W99985  43.797   5.441   2.774
27561W        W99986  16.247   3.639   4.203
27562W        W99987  16.409  11.819  11.668
27563W        W99988   6.357   5.329  12.325
27564W        W99989  35.048  30.951   2.207
27565W        W99990   8.686  12.882  13.352
27566W        W99991  18.738  17.543   3.825
27567W        W99992  34.926  26.188   4.611
27568W        W99993  16.590  21.967  13.958
27569W        W99994  28.492   4.735   1.799
27570W        W99995   5.626  12.855  10.822
27571W        W99996  42.447  42.222  11.682
27572W        W99997  39.941   9.273   0.675
27573W        W99998  21.003  38.078   1.904
27574W        W99999  41.538  30.885  11.892
27575W        W    0  16.064  16.857   2.176
27576W        W    1  23.105  36.744   4.673
27577W        W    2  37.101  31.483   0.440
27578W        W    3  23.297  14.325   0.987
27579W        W    4  20.360   7.100  13.316
27580W        W    5  23.066   7.469  14.504
27581W        W    6  20.873  12.610  14.898
27582W        W    7  15.521  27.923   1.312
27583W        W    8  44.975  28.049  12.546
27584W        W    9   1.125  16.700  10.475
27585W        W   10  44.245  12.143  13.508
27586W        W   11   2.382  13.256  14.166
27587W        W   12  22.110  40.005  12.804
27588W        W   13  34.908  17.060   1.204
27589W        W   14   1.985  23.657  14.336
27590W        W   15  23.476  44.864   0.023
27591W        W   16   7.131   4.717   4.478
27592W        W   17   7.592   2.765  12.636
27593W        W   18  30.043  24.594   4.701
27594W        W   19   3.745   3.108   3.893
27595W        W   20  25.989   0.002  12.789
27596W        W   21   9.318  36.207   0.027
27597W        W   22  28.102  40.588  12.470
27598W        W   23  11.833  15.399   0.630
27599W        W   24  17.487  32.814   1.175
27600W        W   25  21.698  25.180  10.570
27601W        W   26   4.404  26.070  13.422
27602W        W   27  16.670   4.974  13.077
27603W        W   28  21.168  38.183  14.156
27604W        W   29  40.324  36.461  11.102
27605W        W   30  41.943  18.337  10.977
27606W        W   31  43.194  22.985  10.700
27607W        W   32  38.533   1.546  12.448
27608W        W   33  35.501  28.818  14.049
27609W        W   34  40.127  28.442  12.373
27610W        W   35  34.044  40.426   4.520
27611W        W   36  24.473  18.097  11.909
27612W        W   37  17.860  33.924   3.323
27613W        W   38  25.173   2.797  14.773
27614W        W   39  39.426  33.582   4.229
27615W        W   40   6.725   7.134  11.541
27616W        W   41  41.697  26.724   0.377
27617W        W   42  30.124  20.683   4.000
27618W        W   43  19.346  41.362   4.630
27619W        W   44   5.152   8.760  11.985
27620W        W   45   0.415   9.860   2.800
27621W        W   46   3.225  43.079  13.153
27622W        W   47  29.865   9.602  14.862
27623W        W   48   4.766  41.993  12.970
27624W        W   49  15.169  19.196   2.491
27625W        W   50  19.710  16.090   2.207
27626W        W   51  11.114  12.296   4.162
27627W        W   52  33.233  18.285   1.606
27628W        W   53  11.230  12.047  11.577
27629W        W   54  33.815   2.809  12.521
27630W        W   55  15.294  37.012   4.436
27631W        W   56  34.885  23.397   3.363
27632W        W   57  24.053   9.279  10.889
27633W        W   58  21.283  22.203  11.041
27634W        W   59   0.246  21.066   9.938
27635W        W   60  40.044  16.072   2.781
27636W        W   61  31.894  13.045  12.895
27637W        W   62  20.256  24.942  12.011
27638W        W   63   3.692  13.639  11.571
27639W        W   64   0.285   4.968   1.354
27640W        W   65  22.413  37.297   4.279
27641W        W   66  27.986  32.584   0.750
27642W        W   67  20.662  17.642   1.866
27643W        W   68  18.194  37.813  13.805
27644W        W   69  20.152  20.753  10.678
27645W        W   70   4.707   5.930   4.162
27646W        W   71  39.055   8.133   2.367
27647W        W   72   9.863  10.341  11.085
27648W        W   73  40.996  21.793  11.617
27649W        W   74   6.448   7.874   4.214
27650W        W   75  16.790  44.282  13.934
27651W        W   76  14.844  23.382  12.280
27652W        W   77  20.127  42.011  12.817
27653W        W   78  32.529  31.420   1.443
27654W        W   79  11.658  33.470   3.186
27655W        W   80  36.481   0.093  12.526
27656W        W   81  36.610  22.369   3.161
27657W        W   82  41.291  30.256  13.850
27658W        W   83  30.749   2.942   1.524
27659W        W   84   1.283  24.125   0.369
27660W        W   85   1.676   7.168   1.359
27661W        W   86  17.662  25.127  13.840
27662W        W   87  36.890  41.075   4.641
27663W        W   88   9.353  32.081   1.784
27664W        W   89  25.938  38.750   3.738
27665W        W   90  15.808  30.391  11.582
27666W        W   91  17.934   4.284   3.183
27667W        W   92   0.314   6.909  14.337
27668W        W   93  37.374   4.256   2.769
27669W        W   94  13.951  43.864   1.655
27670W        W   95  10.411   5.785  10.386
27671W        W   96   4.228  27.573   2.225
27672W        W   97  19.407  13.330  13.392
27673W        W   98  20.601  27.185   4.153
27674W        W   99  28.489  33.047   3.350
27675W        W  100  10.017  38.949  10.644
27676W        W  101  22.507   3.314   2.838
27677W        W  102  24.712  21.714  11.232
27678W        W  103  10.672  28.401  11.113
27679W        W  104  12.135   3.460   5.458
27680W        W  105  20.071  33.470   3.504
27681W        W  106  22.123  10.663  12.818
27682W        W  107  36.309  15.714   0.818
27683W        W  108  10.144  12.589  12.940
27684W        W  109   6.803  11.100   1.295
27685W        W  110  35.835   6.230  14.339
27686W        W  111  21.056  38.908   3.243
27687W        W  112  20.754  18.377   3.893
27688W        W  113  42.276  18.532   0.404
27689W        W  114  39.853   0.958   2.323
27690W        W  115   0.267  13.828  14.426
27691W        W  116  43.021   1.301   3.236
27692W        W  117   7.598  15.579  11.626
27693W        W  118  26.423  18.530  11.523
27694W        W  119  44.731  12.593  12.401
27695W        W  120  43.495  16.641   0.580
27696W        W  121  20.632  16.524   2.342
27697W        W  122  23.236   2.380   3.850
27698W        W  123  17.464  40.498   1.059
27699W        W  124   0.509  27.598  13.102
27700W        W  125  15.909  18.654  11.110
27701W        W  126  28.394   2.920  11.230
27702W        W  127  41.422  21.770   3.834
27703W        W  128  31.612  26.523  12.566
27704W        W  129  24.776  28.525   2.929
27705W        W  130  36.108  32.002  10.676
27706W        W  131  16.594  29.897   1.981
27707W        W  132  10.816  12.670   3.234
27708W        W  133  35.380  41.874   4.574
27709W        W  134  21.100   2.001  14.872
27710W        W  135   5.820   2.987  10.544
27711W        W  136  37.034  41.338  10.528
27712W        W  137  22.719  10.717  14.731
27713W        W  138   5.491  14.333   4.207
27714W        W  139   8.149  23.708  13.000
27715W        W  140   1.572  31.498   3.291
27716W        W  141  14.689  29.684  12.598
27717W        W  142  33.981  43.028   3.232
27718W        W  143  16.308  29.918  11.160
27719W        W  144   7.010  32.179   2.678
27720W        W  145   8.866  20.019   3.127
27721W        W  146  13.976  22.423  10.064
27722W        W  147   3.811  41.132  11.650
27723W        W  148  18.093  17.875  13.755
27724W        W  149   9.854  36.815  10.776
27725W        W  150  40.566  43.516  13.254
27726W        W  151   1.503  25.297  12.805
27727W        W  152  33.412  11.297  13.510
27728W        W  153  12.181  39.481  10.302
27729W        W  154  41.417  17.753   0.593
27730W        W  155   6.805  23.494  10.609
27731W        W  156  23.973  12.646  12.509
27732W        W  157   5.783  35.992   0.169
27733W        W  158  20.629  21.122  13.115
27734W        W  159   2.132  44.296   1.232
27735W        W  160  35.593  10.833  11.487
27736W        W  161  36.488  25.460  12.101
27737W        W  162  41.404   1.855  12.536
27738W        W  163   0.162   8.358   1.557
27739W        W  164  16.339  23.713  13.301
27740W        W  165  37.196   5.860   2.366
27741W        W  166  20.793  43.733  11.572
27742W        W  167  21.758  35.025   0.428
27743W        W  168  32.852  35.359   1.554
27744W        W  169  42.510  37.424  13.332
27745W        W  170   6.816  32.661  11.052
27746W        W  171  33.396  41.734  11.872
27747W        W  172  22.098  16.522  11.908
27748W        W  173  21.064  34.904  11.876
27749W        W  174  29.692  34.043  10.763
27750W        W  175  21.500  39.314   4.059
27751W        W  176  39.185   3.183   2.383
27752W        W  177  42.885   6.778  14.474
27753W        W  178  44.377  22.939  14.841
27754W        W  179  24.328  26.201   0.428
27755W        W  180  26.090  28.933  11.639
27756W        W  181  16.794  14.639  11.925
27757W        W  182  20.458  22.622  10.550
27758W        W  183   5.354  38.632   1.460
27759W        W  184   6.568  19.370  14.998
27760W        W  185  10.873   4.090  10.646
27761W        W  186  28.091  10.416  12.912
27762W        W  187  21.726  12.733   9.667
27763W        W  188  42.660  21.824   5.691
27764W        W  189  19.752  30.986  13.462
27765W        W  190  13.768   0.289  11.591
27766W        W  191  25.709  19.293  14.742
27767W        W  192  19.693  21.575  10.752
27768W        W  193  16.322  32.277   3.867
27769W        W  194  32.553  30.107   4.859
27770W        W  195  24.545  42.721   2.712
27771W        W  196   0.660  11.253  14.474
27772W        W  197   5.945  44.977   1.207
27773W        W  198   7.959   5.875   4.400
27774W        W  199  18.025  38.852   2.237
27775W        W  200   1.734  26.513   2.910
27776W        W  201  39.447  24.474  13.502
27777W        W  202  26.977   6.267  10.716
27778W        W  203  12.937  18.203  10.870
27779W        W  204   6.589  12.489  12.140
27780W        W  205   5.614  20.283  11.680
27781W        W  206  16.096  25.355  12.482
27782W        W  207  15.469  35.146   5.552
27783W        W  208  24.573  43.538  13.066
27784W        W  209   3.390  16.829   4.438
27785W        W  210  20.084  21.985  13.424
27786W        W  211   1.807  43.241   1.265
27787W        W  212  15.344  12.338   2.395
27788W        W  213   7.217  17.610   0.759
27789W        W  214  14.460   7.790   2.408
27790W        W  215  29.554  14.405  12.950
27791W        W  216  26.659   6.997   0.427
27792W        W  217  16.189  18.537   1.684
27793W        W  218  10.583   2.315   4.643
27794W        W  219  17.290  41.886   3.984
27795W        W  220  34.896  28.452  10.716
27796W        W  221  44.418  23.915  13.024
27797W        W  222  44.853  11.346   4.403
27798W        W  223  31.940  40.640  14.368
27799W        W  224  29.120  34.104   0.007
27800W        W  225  30.310  15.730   0.993
27801W        W  226  38.532  42.668  11.806
27802W        W  227  10.260  32.410  13.438
27803W        W  228   8.288  24.669  10.566
27804W        W  229  25.852  40.528   1.641
27805W        W  230   6.518   9.007  10.220
27806W        W  231  22.244  36.657  13.924
27807W        W  232   0.271   7.026   1.373
27808W        W  233  15.370  17.132  12.033
27809W        W  234  13.715  26.613  13.390
27810W        W  235   3.369  44.061  12.758
27811W        W  236  40.102  40.502   1.752
27812W        W  237   0.877  20.338   0.690
27813W        W  238  29.016  42.885   0.259
27814W        W  239  19.175  39.387   4.449
27815W        W  240  23.766  43.832   3.627
27816W        W  241  29.677   0.695  12.463
27817W        W  242  11.145   0.024  12.989
27818W        W  243  38.370  11.108   4.175
27819W        W  244   1.013   3.216  10.689
27820W        W  245   9.676   9.491  11.223
27821W        W  246  14.632  28.619  12.020
27822W        W  247  17.311   1.996   4.624
27823W        W  248   4.216  33.115  13.090
27824W        W  249  21.168  10.639   3.811
27825W        W  250  15.632  26.880   0.140
27826W        W  251  32.393  41.911  11.558
27827W        W  252  23.174  43.572  14.843
27828W        W  253  39.971   8.966  13.008
27829W        W  254  33.064  38.848  11.443
27830W        W  255  33.117   0.265  13.983
27831W        W  256  13.538  34.187   3.165
27832W        W  257  30.114  29.877  11.042
27833W        W  258  22.240  27.729  12.588
27834W        W  259  21.435  18.986  14.057
27835W        W  260  33.636  15.507   4.508
27836W        W  261   4.695   6.479  11.228
27837W        W  262  16.291  43.517   1.891
27838W        W  263   2.524  42.004   1.934
27839W        W  264  32.157  34.393   4.626
27840W        W  265  24.655  18.023   3.291
27841W        W  266   8.965   0.425   4.449
27842W        W  267  27.474  40.987   3.698
27843W        W  268  15.471  18.993   3.723
27844W        W  269  32.984  27.430  13.156
27845W        W  270   7.784  11.404   0.333
27846W        W  271  14.285  36.446  13.066
27847W        W  272  33.328   5.413   4.228
27848W        W  273  28.601   8.772   4.482
27849W        W  274   5.992  20.783   4.430
27850W        W  275  29.542  44.672  12.259
27851W        W  276  42.936   4.282   3.659
27852W        W  277  16.839  42.461  11.019
27853W        W  278  42.921   4.166   1.990
27854W        W  279  27.959  28.497   3.231
27855W        W  280  25.217  43.217  12.572
27856W        W  281  10.128   4.789   9.981
27857W        W  282   0.691  32.657  12.585
27858W        W  283  24.679  25.295  13.389
27859W        W  284  33.033  14.636  13.606
27860W        W  285  21.189  14.131  14.856
27861W        W  286  25.512   5.680   4.375
27862W        W  287   2.244  32.161   2.130
27863W        W  288  38.196  17.049  10.251
27864W        W  289  18.732  25.043   2.584
27865W        W  290  12.009   1.589   0.805
27866W        W  291  32.114   2.913  14.901
27867W        W  292   7.857  26.974   2.864
27868W        W  293  33.166  42.275   4.857
27869W        W  294  35.250  11.000  11.140
27870W        W  295  16.514  16.560  12.413
27871W        W  296   4.510  22.436   4.027
27872W        W  297   3.007  27.107   3.199
27873W        W  298  26.117  42.938   1.786
27874W        W  299  30.843  11.115   1.275
27875W        W  300   9.955   8.362   3.888
27876W        W  301   2.475  37.905   3.802
27877W        W  302  24.852  18.157  10.982
27878W        W  303  21.233   4.373  10.643
27879W        W  304  21.026  27.146  13.913
27880W        W  305  33.593  31.973  14.488
27881W        W  306  43.297   4.487  12.541
27882W        W  307   7.795  11.962  14.564
27883W        W  308  39.477   9.376  14.941
27884W        W  309   9.780  19.479   4.654
27885W        W  310   4.207  34.611   2.531
27886W        W  311  41.453  28.428   4.041
27887W        W  312  41.377  33.071  12.918
27888W        W  313  30.662   0.681  13.833
27889W        W  314   1.746  32.947  11.607
27890W        W  315   6.936   3.973  12.531
27891W        W  316   6.486  24.293   1.339
27892W        W  317  15.073   9.852  12.556
27893W        W  318  28.717   8.267   0.947
27894W        W  319  37.024  34.421  10.329
27895W        W  320  44.043  41.452  10.664
27896W        W  321  23.773  13.738  13.392
27897W        W  322  27.722  34.057   3.726
27898W        W  323   6.502   3.370   0.656
27899W        W  324  29.096  30.014  12.489
27900W        W  325  40.370  16.523   4.757
27901W        W  326  41.333   6.362   4.660
27902W        W  327  38.372  30.109   0.954
27903W        W  328  28.524   8.517  13.416
27904W        W  329  27.692  40.944   3.199
27905W        W  330  41.791  23.807  13.286
27906W        W  331  17.984  24.008   2.761
27907W        W  332  11.676  20.531  11.097
27908W        W  333  41.610  27.400  12.388
27909W        W  334  43.389  29.140  11.455
27910W        W  335  15.301  21.239   1.899
27911W        W  336  28.082   6.875   0.060
27912W        W  337  40.354   1.097   3.191
27913W        W  338  40.773  35.026  11.491
27914W        W  339   8.399  41.228  12.977
27915W        W  340  40.983  19.991  14.939
27916W        W  341  30.799  17.223   4.973
27917W        W  342  12.864  13.199  10.786
27918W        W  343  12.941  43.601   1.784
27919W        W  344  39.987  27.201  12.859
27920W        W  345  39.126  28.571   3.324
27921W        W  346  19.286  34.084  14.347
27922W        W  347  35.829   5.377   3.255
27923W        W  348  28.941   0.459   0.225
27924W        W  349  25.949  16.758   1.834
27925W        W  350  22.721  27.689   1.593
27926W        W  351   6.413  34.997  12.405
27927W        W  352  43.090  33.415   9.930
27928W        W  353  16.786   3.833  11.062
27929W        W  354  38.843  30.385   3.495
27930W        W  355  33.427   9.722   2.155
27931W        W  356  36.044  17.512   4.565
27932W        W  357  27.452   2.807  12.079
27933W        W  358  36.375  27.973   3.193
27934W        W  359  40.547  33.603   3.286
27935W        W  360  37.351   5.735  10.800
27936W        W  361  17.740  28.505   2.459
27937W        W  362  28.907  44.812  14.025
27938W        W  363  36.109  12.675   1.943
27939W        W  364   1.855   1.155   4.220
27940W        W  365   1.986   0.278  12.975
27941W        W  366  16.285  41.603   1.703
27942W        W  367  10.210  26.218  13.906
27943W        W  368  19.501  22.333  14.528
27944W        W  369  36.263  29.134   0.088
27945W        W  370  44.968  10.387  12.039
27946W        W  371  34.868   5.404   3.632
27947W        W  372   3.440   8.169  11.148
27948W        W  373  25.898  21.120  12.398
27949W        W  374  32.565  43.854  12.643
27950W        W  375  10.277   9.307  12.016
27951W        W  376   4.805   4.437   1.585
27952W        W  377   6.260   9.638   0.990
27953W        W  378  44.804  10.206  14.491
27954W        W  379  33.300  30.580   0.763
27955W        W  380  12.058  44.867  11.138
27956W        W  381  10.728   7.921   3.868
27957W        W  382  42.087   1.740   0.294
27958W        W  383   6.303  25.016  10.615
27959W        W  384  16.293   1.450  14.491
27960W        W  385   4.476  21.563  13.500
27961W        W  386   7.730   6.674  11.071
27962W        W  387  43.805   0.907  11.510
27963W        W  388  31.366  25.532   1.781
27964W        W  389  29.419   7.811   3.491
27965W        W  390   6.983  42.972  14.383
27966W        W  391  18.890  26.832  10.315
27967W        W  392  34.902  18.772  10.582
27968W        W  393  36.491  38.593  11.072
27969W        W  394   2.175   4.938   3.130
27970W        W  395   4.445  26.381  12.806
27971W        W  396  18.587  10.005  13.368
27972W        W  397   4.435   9.269  10.887
27973W        W  398  38.036  10.691  11.968
27974W        W  399  26.899  10.001   3.248
27975W        W  400   8.633   1.438   0.855
27976W        W  401   6.011  36.998  12.441
27977W        W  402  31.281  28.026  12.582
27978W        W  403  24.082  23.443  11.186
27979W        W  404  25.502  40.153  11.950
27980W        W  405  14.125  14.092   1.487
27981W        W  406  31.530  14.240   3.122
27982W        W  407  15.719   7.657  12.141
27983W        W  408   5.410  24.121   0.737
27984W        W  409  11.088  22.547   3.643
27985W        W  410   2.955  24.576  10.622
27986W        W  411   1.441  28.674  14.513
27987W        W  412  14.589  34.615  13.442
27988W        W  413   2.880  41.039   4.757
27989W        W  414  30.861  39.576  11.101
27990W        W  415  34.377  38.586  11.224
27991W        W  416   8.920  12.801   1.009
27992W        W  417  22.693   6.484   5.096
27993W        W  418  33.418  40.957   5.028
27994W        W  419  28.740  33.987   4.668
27995W        W  420  16.641  35.371   1.026
27996W        W  421   3.902  35.972  11.694
27997W        W  422   1.344  44.452   4.311
27998W        W  423  44.343  27.575   1.248
27999W        W  424  10.927  20.953   3.302
28000W        W  425  36.998  40.439   0.539
28001W        W  426  28.472  29.603   4.858
28002W        W  427  10.319  35.261  11.582
28003W        W  428  32.643  44.874   0.771
28004W        W  429  12.505  44.803   1.450
28005W        W  430  17.507  17.628  11.892
28006W        W  431   6.313   2.320   1.429
28007W        W  432  11.664  42.839   0.445
28008W        W  433  29.092  18.680  14.136
28009W        W  434  41.975   1.781  12.516
28010W        W  435  29.176  37.205   1.388
28011W        W  436  10.191  28.381  12.443
28012W        W  437  25.210  11.907   1.772
28013W        W  438  13.693  24.290  11.941
28014W        W  439  39.469   2.257   0.491
28015W        W  440  44.639  27.115   0.505
28016W        W  441  11.353  44.749  14.288
28017W        W  442  22.047  21.237   3.759
28018W        W  443  40.784  30.041  10.571
28019W        W  444  30.475  42.972   1.767
28020W        W  445   9.658  15.040  13.689
28021W        W  446  30.622  36.136  11.656
28022W        W  447  36.660  20.623   3.986
28023W        W  448   8.246   4.718   2.648
28024W        W  449  18.710  12.823  11.342
28025W        W  450  39.828   1.959  11.600
28026W        W  451  26.970  16.397   1.228
28027W        W  452  33.857  39.349  12.532
28028W        W  453  13.209  26.403  13.038
28029W        W  454  18.583   7.748   2.039
28030W        W  455  44.910  31.599  10.671
28031W        W  456  26.570  44.239   0.439
28032W        W  457   2.300  23.289  13.456
28033W        W  458  19.149  27.255   1.735
28034W        W  459  17.959  33.467   1.730
28035W        W  460  35.002   1.239  13.879
28036W        W  461  36.959  16.518   1.845
28037W        W  462  40.405  17.534  12.877
28038W        W  463  22.786  29.515  13.732
28039W        W  464   0.171  18.252   2.265
28040W        W  465  11.204  35.962  14.789
28041W        W  466  37.029  14.132  14.033
28042W        W  467  27.927  28.041   4.163
28043W        W  468  38.039  28.125  11.139
28044W        W  469  35.412   3.231  12.779
28045W        W  470  10.383  30.281  11.960
28046W        W  471  37.526  30.590   0.814
28047W        W  472  21.251  28.090  10.087
28048W        W  473  21.491  15.253  14.334
28049W        W  474   8.304  27.187  13.585
28050W        W  475  11.600  10.680  14.993
28051W        W  476  24.506  29.661   3.694
28052W        W  477  14.195  37.868   3.773
28053W        W  478  14.335  40.773   4.272
28054W        W  479  18.247  29.416  12.976
28055W        W  480  22.355   2.210  13.585
28056W        W  481   9.346  20.585   2.915
28057W        W  482   5.966   5.773  10.716
28058W        W  483   6.166  27.031   2.213
28059W        W  484  10.308   5.221   4.583
28060W        W  485  44.301  34.202  10.298
28061W        W  486  20.050  18.562   3.352
28062W        W  487  42.397   3.636   1.344
28063W        W  488  21.443  16.291   3.649
28064W        W  489   0.700  39.117  14.873
28065W        W  490  43.569  12.689   0.365
28066W        W  491   3.777  10.352  10.872
28067W        W  492  36.057  33.529  14.980
28068W        W  493  30.639  40.519  10.235
28069W        W  494  25.029  14.376   2.684
28070W        W  495   8.124   7.433  12.993
28071W        W  496  31.636  26.557  14.808
28072W        W  497  36.593  27.243  13.765
28073W        W  498  21.650  19.506   1.335
28074W        W  499  13.590   2.729  12.008
28075W        W  500  29.586  29.925   1.194
28076W        W  501   1.430  26.181   0.940
28077W        W  502  38.446  32.513   2.248
28078W        W  503  44.815  28.079  10.281
28079W        W  504  28.704  16.658  11.655
28080W        W  505  15.432   1.704   4.393
28081W        W  506  36.275  31.553  12.997
28082W        W  507  38.331   9.148  12.939
28083W        W  508  37.821   1.312   4.119
28084W        W  509  12.782   9.112  13.410
28085W        W  510  21.283   9.432   0.836
28086W        W  511   7.858   1.434   1.356
28087W        W  512  12.711   4.382   9.921
28088W        W  513   4.010   3.070  11.588
28089W        W  514  40.433   7.472  13.383
28090W        W  515   7.333  34.012   4.000
28091W        W  516   1.477  37.944  13.764
28092W        W  517  23.221  13.097   1.418
28093W        W  518  41.339  40.963   3.223
28094W        W  519   4.638  20.034  11.505
28095W        W  520  19.657   9.752   0.497
28096W        W  521  37.009  34.969   4.476
28097W        W  522  41.299  36.008   0.472
28098W        W  523  11.145  12.657   2.779
28099W        W  524  21.416  40.806   4.077
28100W        W  525  21.928   0.872   1.157
28101W        W  526   5.163  10.208   1.385
28102W        W  527  10.699   8.193   4.426
28103W        W  528   5.871  41.011  14.563
28104W        W  529   9.349  20.162   1.699
28105W        W  530   2.116   8.622  13.519
28106W        W  531   5.896  20.242  11.098
28107W        W  532  34.852  35.158  11.667
28108W        W  533  31.580  31.620  13.808
28109W        W  534  26.678  43.143   1.886
28110W        W  535  27.948   0.846   0.772
28111W        W  536  33.127   9.330   1.270
28112W        W  537  15.298  11.876   0.942
28113W        W  538   0.940  33.589  12.156
28114W        W  539  26.864  29.677  14.523
28115W        W  540  36.488  18.688   0.719
28116W        W  541  32.336  15.481   1.253
28117W        W  542   5.868   6.416  11.166
28118W        W  543  31.167   8.871   3.606
28119W        W  544  37.916   1.125  14.193
28120W        W  545  20.508  19.713   4.547
28121W        W  546  32.974  24.232  12.097
28122W        W  547  22.343  41.063  12.673
28123W        W  548  15.760  39.035   1.893
28124W        W  549   0.885  19.730  12.437
28125W        W  550  33.064  19.574  13.871
28126W        W  551   2.480  11.848   1.021
28127W        W  552  30.223  15.625  13.519
28128W        W  553  43.413  36.592  12.585
28129W        W  554  28.005  15.845   3.264
28130W        W  555  15.227  35.464  14.756
28131W        W  556  42.441  24.160   1.023
28132W        W  557  43.543  22.066  10.588
28133W        W  558  23.631  11.446   0.357
28134W        W  559  32.207  34.700  11.506
28135W        W  560  12.300   4.884  12.627
28136W        W  561  18.773  21.572   2.293
28137W        W  562  42.116  16.613  11.153
28138W        W  563  26.447  15.680  13.885
28139W        W  564  13.383  40.259   0.357
28140W        W  565  39.989   1.450  11.594
28141W        W  566  15.571   4.961   2.416
28142W        W  567   5.328  39.474   3.146
28143W        W  568  15.447  24.176   3.588
28144W        W  569  41.832   4.099  11.491
28145W        W  570  31.070  12.529   2.655
28146W        W  571  14.319  16.528   3.110
28147W        W  572  40.951  32.016  10.445
28148W        W  573  15.050   1.573  10.977
28149W        W  574  13.352   9.892   1.277
28150W        W  575   8.075  23.524  11.934
28151W        W  576  40.482  25.646   3.455
28152W        W  577  34.125  40.187  13.361
28153W        W  578  36.710  39.719   4.727
28154W        W  579   6.464   6.461   1.356
28155W        W  580  33.059  29.439  13.052
28156W        W  581  15.826  13.586  10.640
28157W        W  582  30.833  28.538  10.674
28158W        W  583   4.346   2.296  14.933
28159W        W  584  20.229  10.491  12.515
28160W        W  585  11.526  20.047  13.074
28161W        W  586  19.169   9.032  12.425
28162W        W  587  36.525  29.675  12.043
28163W        W  588  32.047  37.425  11.211
28164W        W  589  15.825  41.275  14.794
28165W        W  590  40.309  25.457   2.314
28166W        W  591  31.495  17.773  13.957
28167W        W  592  18.120  22.158  11.034
28168W        W  593   0.688  18.237   2.375
28169W        W  594  32.368  29.914   1.138
28170W        W  595  42.087   7.414  13.464
28171W        W  596  40.279   7.595   4.896
28172W        W  597   4.355  35.101   2.439
28173W        W  598  41.523  37.154   4.085
28174W        W  599  16.148  18.989  13.883
28175W        W  600  18.730   9.324   1.287
28176W        W  601  11.421   0.989  10.566
28177W        W  602   2.338   7.538   1.768
28178W        W  603  18.648  33.427  11.920
28179W        W  604  27.875  39.718  11.541
28180W        W  605   0.433  11.294   3.793
28181W        W  606   3.813  44.501   9.943
28182W        W  607   9.696  21.552   2.092
28183W        W  608  31.262   6.008  11.213
28184W        W  609  13.868   1.058  14.625
28185W        W  610   3.042  23.575   1.742
28186W        W  611   2.457  11.554  11.731
28187W        W  612  41.979  42.943   3.907
28188W        W  613  16.642  32.417   9.721
28189W        W  614   4.429   1.670  11.147
28190W        W  615  13.781  38.798  14.897
28191W        W  616  39.474  39.470   2.878
28192W        W  617  27.159  43.606  14.625
28193W        W  618  44.452  19.761  13.972
28194W        W  619   3.330  11.387   0.007
28195W        W  620  32.998   3.395   4.453
28196W        W  621   6.308  44.287   2.629
28197W        W  622   6.156  39.275   1.938
28198W        W  623  42.406  36.073  14.835
28199W        W  624  15.680  22.241  10.911
28200W        W  625  15.371  30.003  11.034
28201W        W  626  44.344  14.541  12.907
28202W        W  627   6.223  17.774   4.244
28203W        W  628  16.070  44.475  14.729
28204W        W  629  12.284  17.775   2.267
28205W        W  630   1.992   3.473   2.921
28206W        W  631  40.128  30.179   4.728
28207W        W  632   9.345  13.489  10.613
28208W        W  633  43.960  31.157  10.633
28209W        W  634   9.777  35.809  12.866
28210W        W  635  20.649  38.282  12.272
28211W        W  636  25.139  26.671  12.338
28212W        W  637   0.008  42.390   3.410
28213W        W  638  39.413  27.569   4.844
28214W        W  639   0.814  33.808   4.576
28215W        W  640  34.951  34.043  14.867
28216W        W  641  11.692  21.192  13.474
28217W        W  642   3.332  36.642   4.369
28218W        W  643   0.262  20.716  11.177
28219W        W  644  12.530  42.908   3.096
28220W        W  645   6.351  18.522   0.375
28221W        W  646   9.303   7.579   0.783
28222W        W  647  28.418  22.118  12.111
28223W        W  648  34.889  34.259   5.074
28224W        W  649  33.035  11.298   0.689
28225W        W  650  17.816   1.915   4.775
28226W        W  651   7.112  19.478  11.124
28227W        W  652  26.463  27.434  12.421
28228W        W  653  15.697  35.601  11.059
28229W        W  654   5.153   6.333  13.392
28230W        W  655  31.667   6.924   1.946
28231W        W  656  15.793  14.174  14.423
28232W        W  657   2.024  30.430   4.624
28233W        W  658  34.866  11.251  10.846
28234W        W  659  34.843  26.713   4.620
28235W        W  660   5.585  42.057   1.737
28236W        W  661  19.995  11.736   3.358
28237W        W  662  23.024  15.557   9.936
28238W        W  663  12.771  30.381   1.873
28239W        W  664  44.421   1.666   0.268
28240W        W  665  32.183  40.926   4.035
28241W        W  666  36.033  27.168  13.031
28242W        W  667  23.124   1.907   4.102
28243W        W  668  22.340  30.561   1.233
28244W        W  669  19.453  13.343   1.845
28245W        W  670  33.547  15.238   4.029
28246W        W  671  12.816  17.269  12.130
28247W        W  672  23.195   6.909  13.354
28248W        W  673  20.529  30.102   0.664
28249W        W  674  23.418  11.156   4.315
28250W        W  675  19.651  38.241  12.180
28251W        W  676   9.643  42.917   4.230
28252W        W  677  37.680  10.199  11.139
28253W        W  678  38.629  23.212  14.834
28254W        W  679  22.653   1.206   0.857
28255W        W  680  37.537  43.239  13.046
28256W        W  681  29.813  32.930   0.195
28257W        W  682   4.206  18.651   4.680
28258W        W  683  41.648  44.790  10.369
28259W        W  684  36.405  12.123   3.329
28260W        W  685  11.284  43.183   4.560
28261W        W  686  39.364  14.080   3.540
28262W        W  687  44.754  28.909  13.815
28263W        W  688  34.531  17.870  14.263
28264W        W  689  11.256   5.960  10.457
28265W        W  690   8.830  22.246   0.451
28266W        W  691  43.981  24.687  14.450
28267W        W  692  38.068  14.450  10.959
28268W        W  693  22.972   6.283   3.374
28269W        W  694  40.276  27.935  14.334
28270W        W  695   8.766  43.342  13.090
28271W        W  696  35.481  28.872   0.353
28272W        W  697  31.344  42.172   2.803
28273W        W  698  14.050  31.131  12.304
28274W        W  699  37.882  21.633   4.073
28275W        W  700  18.611  26.749   1.195
28276W        W  701  40.840   6.202   3.232
28277W        W  702  28.059  21.532   2.828
28278W        W  703  27.667  44.207   1.487
28279W        W  704  27.189  18.060   5.143
28280W        W  705  23.577  21.642   3.199
28281W        W  706  10.332  17.361  11.221
28282W        W  707  21.567  33.232  11.031
28283W        W  708  13.598  30.246   3.385
28284W        W  709  12.388  32.619   0.590
28285W        W  710  40.049  32.418   4.261
28286W        W  711  15.464  35.287  13.949
28287W        W  712  15.281  23.069   2.251
28288W        W  713  13.909   2.975   3.604
28289W        W  714  20.828  31.583  11.734
28290W        W  715  22.657   0.319  12.532
28291W        W  716  24.197   9.883  13.616
28292W        W  717  35.690  16.982  11.230
28293W        W  718   3.258  23.573  11.151
28294W        W  719  11.258   4.453   4.158
28295W        W  720  43.423  25.545  14.864
28296W        W  721  14.356  30.975   0.210
28297W        W  722  12.307   2.947  12.865
28298W        W  723  32.840   8.917   1.363
28299W        W  724   5.152  17.896  14.899
28300W        W  725  39.318  24.675  11.706
28301W        W  726  12.313   5.659   2.126
28302W        W  727  37.557  27.977  13.333
28303W        W  728  35.583  31.084   4.045
28304W        W  729  26.599   5.390  12.417
28305W        W  730  20.337  23.219   0.395
28306W        W  731   9.354  24.616   2.227
28307W        W  732  20.507  35.141   2.319
28308W        W  733  32.097  21.468  14.075
28309W        W  734  15.387   7.916   4.294
28310W        W  735  34.328   2.930  11.658
28311W        W  736  23.693  11.980  12.075
28312W        W  737  28.541  14.840   5.010
28313W        W  738  41.155  20.697   4.555
28314W        W  739  41.018  37.053   1.627
28315W        W  740  16.687  13.837  14.774
28316W        W  741  32.870  13.111   4.613
28317W        W  742  21.162  43.561   3.562
28318W        W  743  33.935   7.581  14.063
28319W        W  744  31.611  15.071  11.079
28320W        W  745  22.691  29.574  14.242
28321W        W  746  31.478  24.389  13.780
28322W        W  747   8.955  15.273  12.608
28323W        W  748  17.303  36.313   4.914
28324W        W  749  14.087  12.801   2.768
28325W        W  750  32.788   8.697   4.380
28326W        W  751  13.690  44.486   2.819
28327W        W  752  11.689  13.700   4.184
28328W        W  753   7.498  21.035  11.624
28329W        W  754  26.558  17.119  13.077
28330W        W  755  31.907  28.065  13.847
28331W        W  756   7.357  10.098   3.847
28332W        W  757  22.825  25.105   4.527
28333W        W  758   6.835  37.749  11.895
28334W        W  759  42.504  11.745  10.765
28335W        W  760  24.189   5.593   2.611
28336W        W  761  30.889  43.538   0.898
28337W        W  762  23.532  35.075  10.929
28338W        W  763  40.024  23.226  14.738
28339W        W  764  38.794  44.020   2.801
28340W        W  765  18.131  10.811   2.536
28341W        W  766  16.962  33.039   3.219
28342W        W  767  36.960  43.996   0.687
28343W        W  768  29.721   1.303  10.806
28344W        W  769  14.139  34.618  12.942
28345W        W  770  26.603  27.562   2.092
28346W        W  771  39.884  21.120   1.288
28347W        W  772   9.768  33.912   3.231
28348W        W  773  28.958  15.104  14.860
28349W        W  774  17.609  33.510   3.113
28350W        W  775   9.280  24.013   4.375
28351W        W  776  32.150  28.681   0.310
28352W        W  777  35.074  18.575  11.016
28353W        W  778   3.220  40.978   0.638
28354W        W  779  44.926   6.122   4.352
28355W        W  780  44.436   8.263   2.215
28356W        W  781  11.261  16.619  13.132
28357W        W  782  37.466   1.225   2.175
28358W        W  783  41.178  19.055   4.013
28359W        W  784   9.879  36.115   4.641
28360W        W  785  17.772  30.110   0.472
28361W        W  786  44.438  12.666   5.113
28362W        W  787  27.400  10.828   0.307
28363W        W  788  26.480  26.238  12.046
28364W        W  789  28.924   8.706  11.950
28365W        W  790  35.393   0.475   2.865
28366W        W  791  42.962  14.175  14.789
28367W        W  792  17.036  14.254  12.627
28368W        W  793  16.650   5.170   4.886
28369W        W  794  42.766  18.338  10.622
28370W        W  795   3.742  17.034  10.295
28371W        W  796  36.903  11.364   0.954
28372W        W  797  18.746  21.737  13.568
28373W        W  798  12.904  25.091   0.286
28374W        W  799  42.961  23.479  10.703
28375W        W  800  36.620  17.090  12.358
28376W        W  801   3.961  28.571  10.592
28377W        W  802  20.654   5.390   1.176
28378W        W  803  14.094   0.365  10.684
28379W        W  804  20.428  14.834  14.951
28380W        W  805  18.696  39.347  11.342
28381W        W  806  28.567  42.692   0.909
28382W        W  807   2.033   1.800  11.095
28383W        W  808  42.562  44.934   0.877
28384W        W  809  23.691  35.424   4.525
28385W        W  810  24.721   0.265   2.777
28386W        W  811  29.626  17.124  11.074
28387W        W  812  12.183   4.713   1.239
28388W        W  813  12.588  36.602   2.265
28389W        W  814  22.439  22.700   4.505
28390W        W  815  43.924  35.966  12.817
28391W        W  816  34.939  19.266   3.981
28392W        W  817  40.320  44.778  14.585
28393W        W  818  33.878  44.772  14.403
28394W        W  819  42.725  43.105  13.043
28395W        W  820  10.556  11.130  14.393
28396W        W  821  23.722  13.100   3.169
28397W        W  822  27.773  20.788   3.285
28398W        W  823  37.878  44.866   0.476
28399W        W  824  38.864   2.422   4.069
28400W        W  825  21.989  12.435   2.315
28401W        W  826  30.781   3.201  10.314
28402W        W  827   5.257  24.569   0.495
28403W        W  828  24.330  30.472   5.373
28404W        W  829  44.928  33.323   1.699
28405W        W  830  22.660  32.503  10.996
28406W        W  831  23.459  29.650  11.571
28407W        W  832  14.029  24.073   3.135
28408W        W  833  16.256   1.736  10.631
28409W        W  834   2.023  22.343   3.125
28410W        W  835  22.792  38.908   3.763
28411W        W  836  28.513   6.600   0.183
28412W        W  837  19.107  20.257   3.591
28413W        W  838   3.578  29.301   5.142
28414W        W  839  28.730  13.789  11.477
28415W        W  840  12.290  34.495   2.213
28416W        W  841   1.966  26.059   3.126
28417W        W  842  12.353  34.925   0.892
28418W        W  843  19.867   1.556  12.898
28419W        W  844  22.695  26.271   3.826
28420W        W  845  29.766   3.762  11.617
28421W        W  846  19.675  43.023   4.546
28422W        W  847  32.652  39.551   3.601
28423W        W  848  24.674  13.237  12.383
28424W        W  849   9.818  19.604   0.187
28425W        W  850  31.537  14.131  13.401
28426W        W  851   8.586   5.224   3.673
28427W        W  852   4.853  12.563   1.322
28428W        W  853  20.667   0.946   2.394
28429W        W  854  31.350  42.435  11.895
28430W        W  855  33.358  43.856  14.437
28431W        W  856  40.786  15.917  11.598
28432W        W  857  28.415  44.514   1.222
28433W        W  858   0.315  25.571  11.556
28434W        W  859  28.495   4.215  11.583
28435W        W  860  42.417   2.177  11.704
28436W        W  861  36.118   8.398   2.860
28437W        W  862  38.405   7.238  10.401
28438W        W  863  32.960  15.586  11.126
28439W        W  864   2.790   5.930  12.056
28440W        W  865  19.645  27.556  13.962
28441W        W  866  28.095  24.650  10.973
28442W        W  867   6.010   7.991   2.939
28443W        W  868   0.868  42.874   1.986
28444W        W  869  25.031  23.539  11.553
28445W        W  870  32.619  41.491  11.321
28446W        W  871  38.480  26.591   0.555
28447W        W  872  13.806  43.382   1.854
28448W        W  873   5.873  15.082  11.748
28449W        W  874  36.349   1.936  13.813
28450W        W  875  20.440  19.047  13.108
28451W        W  876   3.963  34.061  13.828
28452W        W  877  26.999  34.011  10.655
28453W        W  878  10.368  33.600   1.314
28454W        W  879  44.488   5.910   3.755
28455W        W  880  28.583   5.277   4.117
28456W        W  881  31.997  21.092   0.781
28457W        W  882  36.935  36.453  14.438
28458W        W  883  14.755   7.144   1.221
28459W        W  884  38.406  16.099  10.705
28460W        W  885  35.928  30.588   0.227
28461W        W  886  37.117  23.130   0.942
28462W        W  887  16.595  18.747  13.037
28463W        W  888  25.099  24.745  14.875
28464W        W  889   4.303  27.699   4.193
28465W        W  890  16.049  18.024   4.440
28466W        W  891  32.383  44.938  13.513
28467W        W  892  24.817  39.333   1.395
28468W        W  893  12.479  15.122  10.635
28469W        W  894  30.005   8.836  13.807
28470W        W  895   4.155  24.119  11.660
28471W        W  896  22.073  12.712   4.106
28472W        W  897   5.792  38.514  10.998
28473W        W  898  12.561  10.827  11.569
28474W        W  899   9.847  11.923   1.343
28475W        W  900  31.139   0.685   2.899
28476W        W  901  18.232  20.053  13.606
28477W        W  902  21.761   2.647   4.090
28478W        W  903  10.777  27.738   3.514
28479W        W  904  43.321  33.539  12.153
28480W        W  905   7.802  17.214  10.355
28481W        W  906   2.617   6.294   1.747
28482W        W  907  38.583   8.074   0.176
28483W        W  908  15.587   8.626  10.674
28484W        W  909   7.081  37.605   1.211
28485W        W  910  12.428  15.997   2.703
28486W        W  911  17.929  25.013   3.814
28487W        W  912  24.029  38.063  11.282
28488W        W  913  19.958  32.487   1.465
28489W        W  914  17.876  16.945   3.904
28490W        W  915  38.585   3.199   2.304
28491W        W  916  33.210  37.443  14.404
28492W        W  917   4.374  38.871   4.040
28493W        W  918   8.806  35.479   0.303
28494W        W  919   7.406   6.619   1.671
28495W        W  920  14.923  23.745  14.994
28496W        W  921  28.798   7.803  14.031
28497W        W  922  17.944  15.251   4.595
28498W        W  923  16.534   2.780  13.822
28499W        W  924  34.148  10.425   1.625
28500W        W  925  36.430   3.143   0.359
28501W        W  926   5.377   8.980   0.185
28502W        W  927  42.814  44.054   0.390
28503W        W  928  39.780  38.502   0.960
28504W        W  929  42.057  22.823   1.964
28505W        W  930   6.523  10.713   2.338
28506W        W  931  12.390  41.432  12.506
28507W        W  932  16.300  22.059   3.199
28508W        W  933   1.071  22.795   4.764
28509W        W  934  10.223   9.439   4.532
28510W        W  935  10.191  30.062   2.412
28511W        W  936  43.417  19.048  11.089
28512W        W  937  17.507  41.469  13.930
28513W        W  938  21.808  33.662  12.085
28514W        W  939  10.227  40.551  13.380
28515W        W  940  42.826   1.228  10.793
28516W        W  941  20.260  37.071   2.156
28517W        W  942  34.173  20.430   3.710
28518W        W  943  37.444  26.168  11.498
28519W        W  944   9.857  21.024  13.910
28520W        W  945  17.549  41.688  12.122
28521W        W  946  21.773  20.193  12.503
28522W        W  947   7.371  40.535   0.993
28523W        W  948  30.051  26.878   4.707
28524W        W  949   5.749  21.212  13.510
28525W        W  950   9.164   9.937   4.329
28526W        W  951  25.058   4.241   2.176
28527W        W  952   0.822  25.627   1.348
28528W        W  953  20.851  26.075   2.212
28529W        W  954  14.204  34.067  14.145
28530W        W  955  29.148  11.761   3.869
28531W        W  956  40.818  15.356   2.857
28532W        W  957  44.346   7.454   1.733
28533W        W  958  43.515  27.086   3.204
28534W        W  959   1.931  40.640   0.449
28535W        W  960  29.745  18.524   2.986
28536W        W  961  30.487   5.941  11.607
28537W        W  962  15.141  16.793   2.223
28538W        W  963   1.806  30.932  14.332
28539W        W  964  40.465  33.088   0.933
28540W        W  965   6.741  37.705   3.419
28541W        W  966  36.682  44.999   3.649
28542W        W  967  15.065   5.704   0.347
28543W        W  968  27.040  42.779  11.144
28544W        W  969  11.602  13.392   0.781
28545W        W  970  39.356  24.208   1.633
28546W        W  971  24.590  28.674   2.169
28547W        W  972  44.228  15.229  14.513
28548W        W  973  28.314  42.568   3.454
28549W        W  974  10.615  31.042  11.034
28550W        W  975  34.066  21.167   4.119
28551W        W  976   9.847  29.500   3.661
28552W        W  977  40.562   4.195  13.855
28553W        W  978  31.516  28.359  12.911
28554W        W  979   5.794   1.413  12.554
28555W        W  980  22.574   5.747   4.706
28556W        W  981  35.011   2.932  13.081
28557W        W  982  29.127  17.158  10.958
28558W        W  983  20.074   6.390   4.210
28559W        W  984  19.494   6.608  11.196
28560W        W  985  13.464  32.425  13.696
28561W        W  986  17.434  31.296  12.077
28562W        W  987   0.232  39.597  14.397
28563W        W  988  18.702   6.392  13.938
28564W        W  989  17.566  13.566  14.911
28565W        W  990  34.316  11.220  10.642
28566W        W  991   8.455  43.392  12.067
28567W        W  992  12.218  16.280  11.610
28568W        W  993  13.149  39.288  14.323
28569W        W  994  17.991   9.625   1.268
28570W        W  995  22.480  31.477  13.384
28571W        W  996   7.784  39.516   0.597
28572W        W  997   3.751   3.733  10.577
28573W        W  998  39.107  18.667   1.371
28574W        W  999  36.357  42.250  12.408
28575W        W 1000  42.131  43.273   0.385
28576W        W 1001  14.181   9.177  13.297
28577W        W 1002  36.707  11.776  13.983
28578W        W 1003  15.534   8.658   4.580
28579W        W 1004  10.026  24.602   1.449
28580W        W 1005   6.926  21.810  11.216
28581W        W 1006  33.433  15.090   0.268
28582W        W 1007   9.781   8.903  13.366
28583W        W 1008  32.467  11.272  11.496
28584W        W 1009  41.729  13.188   3.597
28585W        W 1010  26.662  17.063  11.215
28586W        W 1011   3.147  35.368   0.386
28587W        W 1012  33.828  44.833  12.644
28588W        W 1013  18.793  24.752  14.878
28589W        W 1014   5.337  30.129   0.286
28590W        W 1015   5.737  22.187   1.818
28591W        W 1016  25.520  15.847   0.351
28592W        W 1017  35.115  21.644   4.338
28593W        W 1018  24.073   4.879  13.454
28594W        W 1019  39.810  27.663   2.115
28595W        W 1020   8.207  22.311  14.674
28596W        W 1021  18.522  11.127  12.909
28597W        W 1022   7.732  26.594   1.935
28598W        W 1023  12.659   8.974   3.712
28599W        W 1024  36.798   4.960  12.520
28600W        W 1025  30.130   9.081   0.457
28601W        W 1026  27.730  40.529  14.437
28602W        W 1027  16.233   1.245   2.942
28603W        W 1028  21.293  33.305   4.094
28604W        W 1029  31.703  14.584   0.715
28605W        W 1030  40.878  39.354   1.515
28606W        W 1031  10.909  10.871   2.712
28607W        W 1032  33.362  22.471   2.393
28608W        W 1033  11.873   1.937  14.871
28609W        W 1034  33.833  17.174  12.547
28610W        W 1035  27.972  39.061   3.614
28611W        W 1036  17.016  16.101  11.627
28612W        W 1037   9.056   6.856  11.401
28613W        W 1038  19.992   5.943   2.129
28614W        W 1039  12.095  19.953  14.905
28615W        W 1040  40.452  38.250  11.340
28616W        W 1041  12.161  31.525  14.430
28617W        W 1042   4.819  29.608  13.590
28618W        W 1043   8.972  22.680   5.119
28619W        W 1044  39.480  38.395  11.147
28620W        W 1045  25.476  43.786  11.987
28621W        W 1046  39.366   2.921  11.584
28622W        W 1047  34.151  23.245   4.094
28623W        W 1048  34.857   3.253   3.730
28624W        W 1049   5.020  26.693  11.091
28625W        W 1050   0.522  38.761  12.430
28626W        W 1051  34.146   0.493  11.526
28627W        W 1052  12.434  42.658   0.908
28628W        W 1053  10.197  23.494  10.597
28629W        W 1054  15.774  11.693   1.879
28630W        W 1055  13.097  17.757   3.768
28631W        W 1056  15.452  13.275  10.754
28632W        W 1057  34.082   8.327   1.185
28633W        W 1058   8.027  23.330  13.992
28634W        W 1059  24.230  30.871  11.146
28635W        W 1060   0.287  42.449   0.376
28636W        W 1061  11.166   1.588   4.563
28637W        W 1062  25.082  35.930  10.615
28638W        W 1063  23.193   2.484  13.341
28639W        W 1064  34.950  21.232  12.340
28640W        W 1065  35.113  34.339   0.272
28641W        W 1066  14.274   6.174  12.962
28642W        W 1067  20.222  40.391   3.223
28643W        W 1068  16.002  20.816   4.087
28644W        W 1069  41.463  44.110   4.549
28645W        W 1070  42.979  21.068   1.465
28646W        W 1071   4.356  43.248   4.133
28647W        W 1072  37.392  25.948  14.984
28648W        W 1073   2.360  38.862  13.315
28649W        W 1074  13.090  29.140   1.816
28650W        W 1075  34.661  24.497  13.320
28651W        W 1076   1.742  40.329  14.489
28652W        W 1077  20.121  37.586   1.931
28653W        W 1078  18.613  34.351   4.791
28654W        W 1079  19.716  11.601  10.469
28655W        W 1080   3.617  37.947  13.981
28656W        W 1081  44.078  24.587   0.298
28657W        W 1082  23.586   2.243  12.005
28658W        W 1083  31.143  21.190   1.980
28659W        W 1084   6.641  12.094   4.860
28660W        W 1085  31.965  17.760   0.939
28661W        W 1086  10.689  32.077  11.144
28662W        W 1087   3.445   7.411   1.691
28663W        W 1088  29.637  21.976  11.491
28664W        W 1089  12.864   7.152   2.731
28665W        W 1090  21.332  44.446  11.289
28666W        W 1091  41.073  35.942   1.133
28667W        W 1092   3.194  36.336  11.994
28668W        W 1093   6.332  10.745  13.065
28669W        W 1094  31.148  28.136   0.902
28670W        W 1095  44.796  28.429  10.705
28671W        W 1096  40.222  10.638  13.898
28672W        W 1097  23.088  39.553   2.823
28673W        W 1098  44.690   0.269   4.110
28674W        W 1099  30.171  18.824   4.129
28675W        W 1100   7.223  20.542  10.983
28676W        W 1101  19.239  44.288   3.688
28677W        W 1102  29.987   3.342   0.497
28678W        W 1103   7.553  30.656   4.583
28679W        W 1104  12.767  38.915   1.312
28680W        W 1105  11.286  17.158   2.284
28681W        W 1106  43.994  41.065   3.670
28682W        W 1107  29.375  36.155   3.708
28683W        W 1108  28.630   3.325   2.220
28684W        W 1109   6.792  23.350   0.350
28685W        W 1110  31.468  31.877   0.956
28686W        W 1111  40.772   4.845   2.518
28687W        W 1112   4.990  35.493  10.184
28688W        W 1113  21.577  43.727  14.114
28689W        W 1114   8.641  26.927   3.923
28690W        W 1115   9.780  38.583  13.729
28691W        W 1116   6.267  17.639   2.156
28692W        W 1117   8.913  12.271  11.320
28693W        W 1118  12.699  29.947  12.803
28694W        W 1119   2.661  18.266   2.580
28695W        W 1120  14.267  29.754   1.414
28696W        W 1121   6.338  37.953   1.187
28697W        W 1122   7.771  32.026  13.861
28698W        W 1123   8.504  31.594   3.409
28699W        W 1124  23.781  19.903   3.817
28700W        W 1125  34.176   2.850   4.770
28701W        W 1126  17.335  19.489   3.145
28702W        W 1127  21.934  21.788   2.295
28703W        W 1128  14.671  37.230   2.247
28704W        W 1129  41.910  14.172   3.632
28705W        W 1130   2.471  15.309   3.223
28706W        W 1131   2.961  37.976  10.586
28707W        W 1132   8.878   0.198   1.139
28708W        W 1133   2.403   2.970   3.263
28709W        W 1134   8.224  22.285   4.141
28710W        W 1135  23.250  28.672  12.524
28711W        W 1136  24.834  17.245   1.492
28712W        W 1137  35.348  11.042   2.222
28713W        W 1138   3.778  14.344   3.153
28714W        W 1139  40.583   5.451   4.869
28715W        W 1140   9.741  20.549  11.763
28716W        W 1141  44.646  23.670   0.694
28717W        W 1142  11.568  28.585  13.860
28718W        W 1143  12.169  17.921  12.413
28719W        W 1144  42.893  23.405   2.164
28720W        W 1145   6.304  28.943   0.473
28721W        W 1146  32.026  13.404  14.849
28722W        W 1147  37.614  15.184  11.933
28723W        W 1148  30.783  31.582  11.053
28724W        W 1149  44.646   2.608  13.002
28725W        W 1150  36.362  44.794  12.013
28726W        W 1151  25.845   7.754  10.737
28727W        W 1152  40.233  15.853  12.553
28728W        W 1153  20.877  25.819   3.283
28729W        W 1154   6.247  40.092  10.592
28730W        W 1155  28.471  30.948   2.865
28731W        W 1156  22.224   3.907  14.526
28732W        W 1157  18.710  34.695   0.797
28733W        W 1158  25.453  11.071  11.531
28734W        W 1159  15.448  43.585  13.788
28735W        W 1160   3.600   7.213   3.159
28736W        W 1161  33.966  31.597   1.965
28737W        W 1162  29.417  40.843   0.720
28738W        W 1163  24.548  40.904   3.079
28739W        W 1164  28.474  20.200   0.831
28740W        W 1165  25.047  16.210   2.308
28741W        W 1166  22.227  40.044   4.128
28742W        W 1167   7.347   1.360   1.420
28743W        W 1168  13.660  30.177   2.494
28744W        W 1169  41.837   1.529  10.666
28745W        W 1170  24.722  25.429   1.688
28746W        W 1171  29.900   7.218  14.514
28747W        W 1172  32.396  32.057   2.936
28748W        W 1173  32.365  23.683   2.880
28749W        W 1174  19.919  10.892  12.597
28750W        W 1175   1.028  29.141   4.516
28751W        W 1176  34.845  29.776   4.124
28752W        W 1177  23.085  32.598   3.672
28753W        W 1178  12.316  12.193   0.269
28754W        W 1179   9.584  32.933   4.562
28755W        W 1180  43.654   7.400  14.314
28756W        W 1181  35.858   2.318  10.760
28757W        W 1182  24.198   2.382  14.880
28758W        W 1183  36.852  16.854  14.277
28759W        W 1184   9.421  29.174   1.175
28760W        W 1185  35.626  13.092   4.118
28761W        W 1186   0.867  36.545  11.033
28762W        W 1187  43.969  41.984   4.691
28763W        W 1188  19.641   8.786  12.281
28764W        W 1189   6.938  39.638  12.399
28765W        W 1190   3.611  22.550   0.467
28766W        W 1191  12.889   5.865  14.109
28767W        W 1192   5.827  40.848   0.510
28768W        W 1193  41.346  21.972  14.112
28769W        W 1194   4.801  25.867   4.172
28770W        W 1195  14.496  26.638  14.401
28771W        W 1196   3.802  44.869   4.642
28772W        W 1197  23.161  10.758   0.011
28773W        W 1198  35.576  40.159  11.964
28774W        W 1199  38.565  44.335   1.366
28775W        W 1200  42.970  42.732  14.302
28776W        W 1201   5.868   2.478   4.634
28777W        W 1202  19.984  33.020  14.909
28778W        W 1203   1.750  16.162   1.994
28779W        W 1204  20.841  22.088  12.314
28780W        W 1205  23.251  37.543   3.747
28781W        W 1206  28.232  13.706   0.710
28782W        W 1207  10.421   9.142  13.795
28783W        W 1208  28.515   6.071   0.001
28784W        W 1209  30.447  16.401  13.523
28785W        W 1210   5.004  42.747  12.421
28786W        W 1211  13.709  40.754   3.169
28787W        W 1212   8.239  30.008   4.167
28788W        W 1213  30.683   8.119   3.135
28789W        W 1214  27.558  40.030   3.235
28790W        W 1215  35.524  24.284   2.778
28791W        W 1216  12.638  27.618   4.267
28792W        W 1217   7.890   0.977   0.629
28793W        W 1218   3.417   6.417  10.929
28794W        W 1219  36.588  10.746   0.419
28795W        W 1220  16.716  34.153  10.293
28796W        W 1221  18.149   6.202  14.455
28797W        W 1222  20.359  26.717   1.205
28798W        W 1223  40.923  43.004   2.758
28799W        W 1224  10.808  18.321   1.958
28800W        W 1225  21.649   5.418   1.656
28801W        W 1226  15.865  36.540  11.190
28802W        W 1227  33.895  16.936  10.416
28803W        W 1228  25.860   4.857   2.699
28804W        W 1229  31.617  39.338   2.908
28805W        W 1230  40.932  34.434   3.199
28806W        W 1231  31.455  33.649   3.241
28807W        W 1232  18.636  14.350   0.083
28808W        W 1233  44.666  13.325  14.305
28809W        W 1234  44.963  24.697   1.213
28810W        W 1235  34.610  20.974  11.980
28811W        W 1236   9.810  22.077  11.643
28812W        W 1237  28.003   1.407   1.898
28813W        W 1238  33.058  10.397  10.392
28814W        W 1239  14.883  26.236  12.154
28815W        W 1240   6.682   3.960  14.806
28816W        W 1241  33.848  11.559  13.517
28817W        W 1242  41.804   8.462   0.340
28818W        W 1243  21.376  36.569   2.725
28819W        W 1244  22.810  25.477   2.763
28820W        W 1245   4.823   2.716  10.357
28821W        W 1246  43.813  19.527  10.176
28822W        W 1247   5.165  21.564  10.165
28823W        W 1248   2.809  22.476  14.460
28824W        W 1249   9.190  34.590  12.921
28825W        W 1250  20.361  10.534   2.252
28826W        W 1251  41.462  20.755  13.809
28827W        W 1252  12.791  17.589   2.324
28828W        W 1253  35.367  11.630   0.031
28829W        W 1254  27.308   6.351  14.396
28830W        W 1255  29.802  44.586  14.974
28831W        W 1256   5.675   5.282   3.181
28832W        W 1257  20.849  13.589   1.661
28833W        W 1258   5.637  21.511  13.078
28834W        W 1259   4.722  26.464  13.669
28835W        W 1260  27.018  43.647  12.600
28836W        W 1261  42.284   4.945  11.640
28837W        W 1262  13.099  35.031   4.078
28838W        W 1263  40.374  11.750  10.871
28839W        W 1264  41.759  30.394   4.611
28840W        W 1265  24.075  40.220  10.773
28841W        W 1266  10.734  29.432   2.012
28842W        W 1267  21.183  36.869   2.293
28843W        W 1268  13.979  44.720  14.784
28844W        W 1269  19.119  12.178  10.788
28845W        W 1270  28.625  38.577   3.304
28846W        W 1271  29.941   9.628   4.523
28847W        W 1272  32.992  18.578   1.269
28848W        W 1273  17.353   2.317   4.200
28849W        W 1274  15.276   4.939   0.748
28850W        W 1275  27.883  21.588  11.539
28851W        W 1276   6.870  35.916   2.114
28852W        W 1277  14.219   4.276   4.238
28853W        W 1278  32.608   0.867   0.012
28854W        W 1279  31.961  30.683   0.226
28855W        W 1280   2.732  39.277  12.104
28856W        W 1281   6.717  24.514   4.195
28857W        W 1282  35.771  29.739  11.550
28858W        W 1283   4.289  23.677   2.559
28859W        W 1284  19.805  30.972  14.963
28860W        W 1285  30.005  20.929   0.179
28861W        W 1286  13.274  36.500  10.945
28862W        W 1287  28.050   7.727   3.446
28863W        W 1288  30.182  29.654   2.210
28864W        W 1289  31.874  41.868  11.509
28865W        W 1290   1.917  44.991   2.603
28866W        W 1291  18.283  19.125  11.991
28867W        W 1292  30.455   8.754  14.977
28868W        W 1293  12.853  19.979  14.283
28869W        W 1294   2.965  24.966  12.577
28870W        W 1295  31.908  10.220  12.289
28871W        W 1296   5.002  16.670   4.870
28872W        W 1297  39.799  44.886   2.358
28873W        W 1298  33.995  43.624   0.015
28874W        W 1299   9.063   6.749   0.970
28875W        W 1300   0.056  23.702   4.538
28876W        W 1301  21.782   9.281  10.109
28877W        W 1302  41.871   4.213   3.738
28878W        W 1303  36.467  28.025  10.890
28879W        W 1304   1.194  36.453  13.830
28880W        W 1305  15.094  23.587  13.370
28881W        W 1306  15.045  29.576   0.962
28882W        W 1307  26.161  38.957  12.088
28883W        W 1308   6.301  22.017   2.970
28884W        W 1309  35.089  42.045  14.134
28885W        W 1310  40.895  21.545  12.046
28886W        W 1311  24.733  40.002  13.302
28887W        W 1312  11.173   9.747   0.875
28888W        W 1313  14.571   9.743  10.757
28889W        W 1314  37.101   9.208  11.063
28890W        W 1315  40.987  44.028   3.676
28891W        W 1316  43.254  22.525  14.812
28892W        W 1317   1.002  36.661   0.423
28893W        W 1318   6.816  26.773   4.016
28894W        W 1319  22.784  38.608   1.745
28895W        W 1320   4.270  15.188   1.036
28896W        W 1321  13.231  42.445   4.324
28897W        W 1322   7.930  19.028  13.611
28898W        W 1323  20.601  28.045  11.534
28899W        W 1324   9.631   6.439  13.459
28900W        W 1325  36.630  25.185   1.725
28901W        W 1326  25.551  11.331  11.075
28902W        W 1327  23.094  10.136   1.338
28903W        W 1328  19.197   1.584  11.998
28904W        W 1329  37.825  16.721  14.522
28905W        W 1330  34.677   9.680   3.310
28906W        W 1331  20.263  44.495  11.913
28907W        W 1332   8.233  16.845   2.172
28908W        W 1333   8.982  14.683   3.683
28909W        W 1334  21.188  29.637   1.240
28910W        W 1335   2.688   1.251   3.251
28911W        W 1336  24.470  43.751   0.387
28912W        W 1337  40.654  31.590   4.872
28913W        W 1338  36.893   3.973  12.348
28914W        W 1339   7.302  18.737  14.802
28915W        W 1340   9.635   4.207  11.051
28916W        W 1341  25.070  23.600   0.314
28917W        W 1342   5.912   3.469   3.196
28918W        W 1343   3.604  14.599   3.970
28919W        W 1344  27.609  18.230   3.323
28920W        W 1345  25.170  23.385  13.424
28921W        W 1346  19.039  23.157   2.868
28922W        W 1347  18.159  40.280  11.962
28923W        W 1348  40.505   3.824  10.458
28924W        W 1349  36.532  33.316  13.993
28925W        W 1350  17.258  42.094  11.904
28926W        W 1351   4.235  13.123   0.981
28927W        W 1352  28.252  38.321  12.590
28928W        W 1353  37.390  20.095  10.584
28929W        W 1354  39.523   5.787  13.528
28930W        W 1355  15.742  21.749   0.955
28931W        W 1356  38.357  34.068  12.570
28932W        W 1357  13.654  15.135  14.821
28933W        W 1358  33.559  40.157  11.037
28934W        W 1359   2.011  35.011   1.365
28935W        W 1360  30.441  15.094   2.647
28936W        W 1361   4.161  43.102  11.159
28937W        W 1362  33.385   6.657  13.394
28938W        W 1363  28.654  11.836   2.878
28939W        W 1364  42.531  20.581   4.612
28940W        W 1365  23.828   8.824  10.943
28941W        W 1366  15.240   9.926  11.015
28942W        W 1367  11.040  29.484   3.513
28943W        W 1368  29.298  32.532   0.593
28944W        W 1369  35.127  33.606   0.090
28945W        W 1370  26.070  20.486  14.961
28946W        W 1371  40.312  28.360  14.011
28947W        W 1372  24.645  41.304   3.864
28948W        W 1373  12.750   9.156   1.511
28949W        W 1374   3.294  26.749  11.518
28950W        W 1375  33.153  18.674   3.156
28951W        W 1376  34.189  20.935  11.658
28952W        W 1377  11.777  35.482   1.756
28953W        W 1378  32.518  22.155   1.675
28954W        W 1379  37.832   0.401   4.247
28955W        W 1380  27.979  25.648  10.792
28956W        W 1381  36.329  23.243   3.123
28957W        W 1382  36.085  33.196   4.211
28958W        W 1383  12.842  27.246  13.916
28959W        W 1384  35.026  13.431   3.291
28960W        W 1385  41.436  35.876   4.720
28961W        W 1386  31.151  21.547   4.281
28962W        W 1387   3.402   0.528   4.776
28963W        W 1388  27.576  25.268   0.272
28964W        W 1389  23.500  12.121   1.420
28965W        W 1390  36.090  43.394   1.049
28966W        W 1391  15.837  15.190   4.414
28967W        W 1392   1.977   5.071   0.112
28968W        W 1393   7.999  31.637   3.646
28969W        W 1394  24.272  42.420   0.821
28970W        W 1395  36.071  27.493   1.987
28971W        W 1396  27.865  14.778  13.514
28972W        W 1397  31.473  16.261  10.707
28973W        W 1398  38.381  30.839  11.573
28974W        W 1399   9.075  36.298  11.066
28975W        W 1400  43.306   1.424  10.688
28976W        W 1401  15.001   8.770  11.618
28977W        W 1402  31.105  35.677   1.707
28978W        W 1403  10.138  40.894  13.009
28979W        W 1404  29.737   3.404  11.235
28980W        W 1405  35.102  27.956   3.827
28981W        W 1406  37.668  29.593   3.608
28982W        W 1407   0.044  44.464   4.065
28983W        W 1408  28.734  19.082   2.466
28984W        W 1409  24.595  16.813  11.264
28985W        W 1410  18.686  40.149  10.343
28986W        W 1411  30.453  34.076  14.530
28987W        W 1412  17.821   5.815  14.500
28988W        W 1413  35.107  17.637  13.358
28989W        W 1414  25.706  40.389   0.940
28990W        W 1415  21.217  37.713  14.388
28991W        W 1416   3.310  12.620   2.703
28992W        W 1417  17.212  11.199  13.250
28993W        W 1418   0.188  16.678   4.663
28994W        W 1419   0.198  43.043   4.178
28995W        W 1420   9.715  22.174   2.911
28996W        W 1421  15.227   7.321  14.474
28997W        W 1422  39.264   8.844  12.993
28998W        W 1423  16.147  31.516  13.019
28999W        W 1424  37.422  42.046  14.935
29000W        W 1425  35.538  26.054   3.372
29001W        W 1426   9.116  24.654   3.223
29002W        W 1427  44.773  38.921  11.874
29003W        W 1428  19.073  43.398  10.546
29004W        W 1429  31.137  34.030  11.680
29005W        W 1430   1.146  21.588  10.584
29006W        W 1431  35.030  36.150   4.183
29007W        W 1432  10.320  39.388  12.994
29008W        W 1433  36.903  37.364   2.736
29009W        W 1434   8.210  44.308  14.829
29010W        W 1435  41.545  31.414   1.451
29011W        W 1436  14.992  42.440   2.243
29012W        W 1437   5.714  19.078  11.136
29013W        W 1438   0.866  37.344  14.441
29014W        W 1439  30.761  33.337   4.046
29015W        W 1440   3.988  14.347   1.243
29016W        W 1441  15.424  29.687   0.218
29017W        W 1442  18.248  30.691   3.610
29018W        W 1443  23.465   6.225  11.694
29019W        W 1444   6.338  14.593   1.501
29020W        W 1445  21.757  17.745   4.357
29021W        W 1446  44.263  27.461  12.255
29022W        W 1447  38.140  33.622   0.305
29023W        W 1448  30.473  27.652   4.640
29024W        W 1449   2.744  38.998  12.535
29025W        W 1450  23.241  33.296  10.669
29026W        W 1451  41.781  32.967  14.718
29027W        W 1452  33.079  19.450   0.910
29028W        W 1453  30.076   1.660  10.995
29029W        W 1454  25.023  42.348  14.392
29030W        W 1455  41.477  39.858  10.759
29031W        W 1456  39.920  38.132  11.204
29032W        W 1457  12.814  13.181  12.193
29033W        W 1458   6.701  11.763   3.660
29034W        W 1459  43.284  17.194  12.466
29035W        W 1460   0.352  26.669   4.316
29036W        W 1461   4.177  40.384  13.805
29037W        W 1462  23.098   0.782  11.142
29038W        W 1463  34.101   0.435  13.277
29039W        W 1464   6.307   9.077   4.642
29040W        W 1465  33.936  27.658  11.145
29041W        W 1466   2.004   6.219   3.795
29042W        W 1467  16.471  44.545   0.070
29043W        W 1468  25.785   3.396   0.269
29044W        W 1469  25.542  31.703   0.758
29045W        W 1470  11.851   8.340   0.175
29046W        W 1471   0.422  33.481  12.621
29047W        W 1472  35.813  31.724  12.350
29048W        W 1473  29.906  39.809   2.319
29049W        W 1474   1.986  37.400  14.322
29050W        W 1475   1.452  26.535  11.423
29051W        W 1476  43.465   9.409  10.443
29052W        W 1477   2.912  15.304  13.524
29053W        W 1478  27.443  27.561  13.426
29054W        W 1479  11.621  30.066  14.898
29055W        W 1480   9.116  10.910  12.498
29056W        W 1481  38.405  31.560  12.139
29057W        W 1482   9.865  32.734  13.287
29058W        W 1483  20.798  33.114   1.326
29059W        W 1484   4.809   5.881   3.636
29060W        W 1485  33.026  35.394  11.209
29061W        W 1486  23.439  39.135  14.198
29062W        W 1487  21.742  14.632   1.139
29063W        W 1488   2.445  42.827  14.330
29064W        W 1489  23.316  30.806   4.167
29065W        W 1490  10.218   5.352   1.877
29066W        W 1491   4.076  40.456  12.991
29067W        W 1492  14.139  14.764   1.376
29068W        W 1493  28.782  40.324   1.253
29069W        W 1494  20.366   7.370   4.067
29070W        W 1495  33.524  24.960  14.507
29071W        W 1496   0.886  29.550   3.228
29072W        W 1497  25.541  22.067  14.745
29073W        W 1498   7.440  38.415  11.976
29074W        W 1499  37.494  10.279   4.724
29075W        W 1500  17.613  14.047   1.645
29076W        W 1501  35.389   6.354  13.009
29077W        W 1502   5.440  28.481  11.010
29078W        W 1503  28.267  42.055  11.137
29079W        W 1504  44.846   6.315   2.431
29080W        W 1505  38.563   0.426   3.327
29081W        W 1506  37.622  35.148   2.230
29082W        W 1507   7.590  11.599  12.109
29083W        W 1508  27.810  17.539   2.387
29084W        W 1509  12.841  33.623   4.612
29085W        W 1510  26.486  35.227  12.907
29086W        W 1511   2.525  36.996  12.403
29087W        W 1512  38.145  34.216   4.345
29088W        W 1513  39.520  42.989   1.739
29089W        W 1514  18.832  44.945   1.684
29090W        W 1515  20.099  39.332  13.819
29091W        W 1516  18.270  27.687  13.765
29092W        W 1517   8.892  34.960   0.110
29093W        W 1518   8.792  37.135  11.234
29094W        W 1519  25.920   7.174   3.853
29095W        W 1520  31.107  28.432   0.281
29096W        W 1521  21.523  27.071   4.644
29097W        W 1522   8.647  34.633   3.292
29098W        W 1523  23.495  27.676   3.608
29099W        W 1524   9.391  19.121   3.755
29100W        W 1525  22.969  33.879  12.337
29101W        W 1526  25.385  22.355   4.177
29102W        W 1527  32.042   0.792   2.020
29103W        W 1528  23.717  20.107  12.484
29104W        W 1529  13.336  14.349  13.690
29105W        W 1530  11.395   9.879   0.425
29106W        W 1531  15.127   3.270  12.951
29107W        W 1532  17.965  35.387   1.221
29108W        W 1533  13.877  25.548   4.158
29109W        W 1534  10.313  20.326  11.185
29110W        W 1535  17.357  31.571  11.490
29111W        W 1536  37.000  24.092   1.414
29112W        W 1537  34.255  43.887  11.856
29113W        W 1538   7.767  25.948   2.866
29114W        W 1539  18.205  23.485   1.774
29115W        W 1540  44.768  44.858   2.631
29116W        W 1541  40.114  37.018  12.943
29117W        W 1542  17.527  26.152  11.860
29118W        W 1543  23.127  23.776  12.860
29119W        W 1544  18.907  24.400   3.645
29120W        W 1545  31.029   9.649   3.053
29121W        W 1546   6.850  23.498   1.600
29122W        W 1547   3.705  34.439  14.546
29123W        W 1548  25.582  25.970  12.886
29124W        W 1549  24.950  30.948  14.133
29125W        W 1550  44.502  30.151   2.154
29126W        W 1551  13.348   6.818   4.104
29127W        W 1552  32.361  15.338  11.631
29128W        W 1553  31.957  40.274   1.252
29129W        W 1554  40.335   6.922  10.493
29130W        W 1555  34.802  10.410   3.334
29131W        W 1556  35.351  12.119  14.679
29132W        W 1557  21.790  13.396   0.760
29133W        W 1558  37.132   1.965   2.638
29134W        W 1559  42.911   9.180  13.881
29135W        W 1560  43.028  11.408   3.721
29136W        W 1561  23.652  14.068   1.412
29137W        W 1562  43.778   7.604   4.797
29138W        W 1563   9.282   9.750  10.652
29139W        W 1564  39.486  35.979   0.384
29140W        W 1565  22.957  24.564  12.537
29141W        W 1566  29.491  36.058  14.038
29142W        W 1567  41.751  36.528   2.754
29143W        W 1568  25.458  12.889  10.266
29144W        W 1569   8.535  40.643   2.248
29145W        W 1570  28.720   0.373   1.212
29146W        W 1571  21.133  29.731   3.675
29147W        W 1572  36.360  33.910   0.223
29148W        W 1573  33.256  39.014  11.958
29149W        W 1574  32.251  16.255  11.963
29150W        W 1575  28.684   1.255  10.792
29151W        W 1576  37.974  34.935   0.670
29152W        W 1577  31.325  37.787  14.293
29153W        W 1578  24.214  40.275  14.326
29154W        W 1579  35.069  39.469  10.979
29155W        W 1580  17.418  29.218  13.926
29156W        W 1581  22.175  34.859   2.810
29157W        W 1582  33.878  18.738  11.618
29158W        W 1583   6.957  35.156   2.801
29159W        W 1584   3.424  33.505   1.011
29160W        W 1585  15.887  43.013  10.762
29161W        W 1586  15.640  43.872  10.166
29162W        W 1587   4.395  42.990   2.403
29163W        W 1588  17.959  32.351   4.994
29164W        W 1589  37.848  20.988  12.443
29165W        W 1590  36.985  26.508   1.241
29166W        W 1591  33.113  27.154   4.152
29167W        W 1592  34.507  35.433  13.374
29168W        W 1593  44.783  34.659   0.030
29169W        W 1594  43.015  30.818   0.773
29170W        W 1595  13.516  16.180  12.609
29171W        W 1596   8.671  20.336   0.334
29172W        W 1597  24.719  16.253   4.115
29173W        W 1598  36.045   2.968  12.165
29174W        W 1599  14.544   7.604   1.058
29175W        W 1600   9.503  23.077  13.566
29176W        W 1601  23.217  37.305  11.960
29177W        W 1602  21.711   1.483   3.165
29178W        W 1603  38.539  28.899   1.696
29179W        W 1604  16.821  20.703   3.252
29180W        W 1605  26.955  27.386   3.635
29181W        W 1606  44.932   1.551  12.342
29182W        W 1607  28.181  25.220  10.574
29183W        W 1608  19.886   0.429  11.891
29184W        W 1609   5.230   9.102   4.611
29185W        W 1610   5.892  42.481   1.749
29186W        W 1611   4.033   7.862   1.532
29187W        W 1612   9.609  41.213  11.801
29188W        W 1613   2.201  28.677   2.407
29189W        W 1614  25.362  26.133   3.171
29190W        W 1615  24.549   9.959  10.712
29191W        W 1616  15.327  34.820  11.165
29192W        W 1617  36.566  18.178   4.603
29193W        W 1618  38.895  38.033  13.587
29194W        W 1619  39.572  24.786  10.876
29195W        W 1620  26.014  12.750  14.557
29196W        W 1621  43.991  30.675  13.440
29197W        W 1622  24.557  25.522   3.757
29198W        W 1623  18.517   0.525  13.126
29199W        W 1624  16.650  34.657  12.647
29200W        W 1625  16.485  21.331  14.493
29201W        W 1626  28.905  21.649   3.219
29202W        W 1627   4.968  36.903  12.208
29203W        W 1628  40.214   5.703   0.843
29204W        W 1629  43.520  37.524   4.371
29205W        W 1630  20.422  11.123  12.705
29206W        W 1631  29.002   6.908   4.573
29207W        W 1632  34.983  14.348   2.121
29208W        W 1633  35.183  30.464  12.039
29209W        W 1634  44.485  11.937  11.180
29210W        W 1635  21.647  30.914  10.437
29211W        W 1636  39.763  37.606   0.459
29212W        W 1637  12.105  11.161   2.768
29213W        W 1638  39.052  37.476   3.037
29214W        W 1639  30.396   5.867   2.284
29215W        W 1640  23.265  40.464  12.070
29216W        W 1641  36.538  19.646   3.254
29217W        W 1642  26.601  12.811  14.763
29218W        W 1643  14.352   8.277   0.601
29219W        W 1644  15.301  14.603  12.875
29220W        W 1645   5.357  10.298   0.897
29221W        W 1646   5.207  21.880   4.082
29222W        W 1647  14.593  25.661   2.596
29223W        W 1648  31.992  42.600  12.975
29224W        W 1649  11.813  39.969   1.831
29225W        W 1650   8.603  23.058  12.520
29226W        W 1651  43.362  32.204   2.419
29227W        W 1652  13.809  34.419   0.019
29228W        W 1653   2.989   7.797  13.110
29229W        W 1654  16.099  26.188  13.259
29230W        W 1655  38.987  10.773   1.455
29231W        W 1656  35.800   8.150  14.051
29232W        W 1657   9.339  10.203  13.802
29233W        W 1658  15.846  25.593  11.056
29234W        W 1659  41.412   9.922  11.574
29235W        W 1660  32.148  41.436  11.522
29236W        W 1661  30.901   5.104  10.375
29237W        W 1662  12.353  14.224  10.825
29238W        W 1663  22.918  19.747   1.096
29239W        W 1664  33.443  43.046  12.545
29240W        W 1665  35.145  31.553   4.331
29241W        W 1666   0.734  14.934  12.958
29242W        W 1667  25.820  14.068  12.467
29243W        W 1668  22.603   7.888   1.220
29244W        W 1669   9.242  43.399  14.333
29245W        W 1670  15.568  23.610   2.763
29246W        W 1671  16.644  43.667   2.384
29247W        W 1672  15.978  12.631   2.675
29248W        W 1673  41.865  15.285  10.979
29249W        W 1674  23.190  11.879   4.648
29250W        W 1675  20.089  42.561  10.928
29251W        W 1676   4.699  11.394  11.601
29252W        W 1677  37.513  31.454  11.066
29253W        W 1678  11.391  30.630   0.787
29254W        W 1679  30.176  14.833   2.238
29255W        W 1680  44.239  39.884  10.232
29256W        W 1681  11.252  44.750  12.378
29257W        W 1682  20.254  14.739   4.631
29258W        W 1683  33.505  13.335  12.335
29259W        W 1684  17.301  22.576   0.470
29260W        W 1685  43.262  15.172   0.883
29261W        W 1686  31.460  11.422   2.900
29262W        W 1687  20.973  28.474  10.313
29263W        W 1688  27.055   8.792   5.081
29264W        W 1689  14.853  22.526   0.108
29265W        W 1690  24.523  29.514   1.800
29266W        W 1691   6.961   4.406  10.636
29267W        W 1692  33.019  24.792   0.487
29268W        W 1693  13.539  30.759  13.997
29269W        W 1694  38.240  22.063  14.289
29270W        W 1695  11.349  20.659   1.795
29271W        W 1696  22.666  13.578   4.123
29272W        W 1697  16.919  26.115  10.496
29273W        W 1698  30.393  36.326   1.760
29274W        W 1699  12.267   3.898  11.664
29275W        W 1700  39.043   6.352  12.890
29276W        W 1701  40.995  38.970   4.434
29277W        W 1702  11.497  19.374  13.424
29278W        W 1703  15.147   5.175   2.646
29279W        W 1704  32.530  41.503  11.853
29280W        W 1705  18.932  14.294  12.457
29281W        W 1706  44.295  35.684  14.060
29282W        W 1707  33.122  19.848   2.247
29283W        W 1708   0.006   5.406   2.762
29284W        W 1709  11.143  36.078   1.318
29285W        W 1710  11.294  43.980  14.766
29286W        W 1711  29.879  39.732  13.019
29287W        W 1712  38.419  43.365   1.231
29288W        W 1713  17.602  18.237   2.709
29289W        W 1714  36.646  13.622  10.754
29290W        W 1715  22.673  29.833   2.879
29291W        W 1716  14.100  31.969  12.349
29292W        W 1717  19.300  41.894   3.304
29293W        W 1718   4.383   1.407  10.630
29294W        W 1719  27.869  11.789  13.814
29295W        W 1720  27.604  20.515   0.516
29296W        W 1721   1.177  40.764  11.929
29297W        W 1722   9.925   6.904  14.464
29298W        W 1723  37.930   1.082   3.351
29299W        W 1724  39.510  11.413   1.457
29300W        W 1725  20.306  27.085   2.412
29301W        W 1726   0.075   2.035   3.705
29302W        W 1727  26.874  35.559  12.874
29303W        W 1728  41.726  33.676  13.296
29304W        W 1729  12.168  28.590   2.835
29305W        W 1730  31.690  16.245  11.191
29306W        W 1731  31.730  32.574   2.722
29307W        W 1732  24.743  12.280   0.870
29308W        W 1733  28.136  20.985   9.938
29309W        W 1734  23.524   2.568  14.360
29310W        W 1735   2.331  11.621  12.216
29311W        W 1736   7.716   4.933  14.939
29312W        W 1737   9.725  22.708  10.393
29313W        W 1738  32.985  44.586   0.402
29314W        W 1739  36.211   4.089  10.896
29315W        W 1740  12.136  42.769   3.741
29316W        W 1741   5.152   1.187  14.720
29317W        W 1742  14.319  34.202  10.674
29318W        W 1743  21.184   7.215   2.392
29319W        W 1744   8.314  14.130  14.560
29320W        W 1745  39.600  37.293  11.455
29321W        W 1746  36.991  27.785   3.614
29322W        W 1747  14.869   5.314   1.306
29323W        W 1748  41.406  44.045  14.046
29324W        W 1749  43.394  16.287   1.001
29325W        W 1750   2.906  17.532  13.343
29326W        W 1751  19.813  21.156  11.471
29327W        W 1752  10.844   1.846  13.309
29328W        W 1753  30.776  25.922  11.864
29329W        W 1754   6.834  35.422   0.776
29330W        W 1755   4.993  22.382  11.520
29331W        W 1756  21.054  13.774  13.992
29332W        W 1757  39.325  41.433   3.730
29333W        W 1758  14.640  36.987   0.886
29334W        W 1759  30.450  17.762  11.966
29335W        W 1760  23.278  25.618  13.465
29336W        W 1761  13.159  35.520   4.619
29337W        W 1762   6.926  43.423  11.586
29338W        W 1763  10.944  24.245  10.028
29339W        W 1764  44.973   3.780   3.864
29340W        W 1765  21.034  41.343  11.179
29341W        W 1766  38.909  30.186   1.876
29342W        W 1767   8.445  41.491   3.172
29343W        W 1768   7.304  33.883  14.849
29344W        W 1769  41.460   1.293   0.768
29345W        W 1770  12.235  19.234   1.434
29346W        W 1771  23.389  18.256   1.792
29347W        W 1772  27.264  27.726  11.091
29348W        W 1773  24.027  34.355  10.645
29349W        W 1774   0.716  35.026  13.632
29350W        W 1775  34.471   2.237   0.724
29351W        W 1776  41.941   3.386   1.193
29352W        W 1777   6.199  14.352   0.063
29353W        W 1778  43.137  35.439   2.820
29354W        W 1779  16.582  17.307  11.672
29355W        W 1780  13.875  21.599  11.250
29356W        W 1781  38.061  37.999   4.031
29357W        W 1782  42.551  38.868   0.418
29358W        W 1783  31.387  41.292  11.057
29359W        W 1784  28.065  18.870  11.803
29360W        W 1785  12.329  24.673   3.356
29361W        W 1786  12.849   9.903   3.980
29362W        W 1787   4.863   8.086   1.131
29363W        W 1788  43.110  12.838  12.918
29364W        W 1789   0.064  34.433   1.188
29365W        W 1790  31.081  28.924   3.478
29366W        W 1791  21.371  31.386   2.787
29367W        W 1792  16.742  19.961   1.027
29368W        W 1793   3.859  36.953   1.373
29369W        W 1794  43.304   0.877   3.305
29370W        W 1795   9.641  42.535   1.758
29371W        W 1796  42.934  16.709   0.272
29372W        W 1797  16.117  29.451   3.859
29373W        W 1798  21.484   8.653   4.582
29374W        W 1799  25.273  38.350   0.267
29375W        W 1800  39.554  30.683   4.080
29376W        W 1801  40.484  19.220  12.152
29377W        W 1802  22.937   5.015   3.326
29378W        W 1803  19.152  12.746   0.834
29379W        W 1804  21.542  25.978  13.859
29380W        W 1805  16.166  32.940  10.631
29381W        W 1806  37.066   7.726  14.546
29382W        W 1807  12.358  44.363  13.884
29383W        W 1808  15.320  25.215  12.567
29384W        W 1809  31.825  44.485  11.574
29385W        W 1810   5.536  23.222   1.369
29386W        W 1811   3.538   7.256   4.451
29387W        W 1812  43.792  34.021  12.028
29388W        W 1813   2.736  30.325  11.079
29389W        W 1814  27.505  29.225   3.714
29390W        W 1815  39.521  32.425  10.622
29391W        W 1816   8.366  19.044   0.788
29392W        W 1817   1.768   0.620   2.491
29393W        W 1818  32.704  17.656   0.615
29394W        W 1819  15.693   6.294  10.666
29395W        W 1820  25.223  21.720  14.524
29396W        W 1821  39.244  33.135   3.284
29397W        W 1822  15.300  35.778   2.865
29398W        W 1823  41.482  28.030  14.976
29399W        W 1824  36.021   6.962   0.443
29400W        W 1825  31.680  41.869  13.255
29401W        W 1826  27.378  28.955   4.144
29402W        W 1827  15.756  12.667   0.255
29403W        W 1828  28.539  30.957   0.418
29404W        W 1829  15.915  36.929  10.866
29405W        W 1830  30.662  16.080  14.350
29406W        W 1831  41.312   1.269  12.007
29407W        W 1832  17.252   9.581  14.295
29408W        W 1833  17.633  20.131  14.940
29409W        W 1834   0.529  38.083  14.094
29410W        W 1835  32.087  14.268   0.905
29411W        W 1836  14.710  20.967  10.759
29412W        W 1837  29.941  25.452  11.448
29413W        W 1838  24.517   6.150   0.675
29414W        W 1839  33.391  25.253   1.944
29415W        W 1840  16.636  10.497  10.994
29416W        W 1841  44.807  35.885  12.792
29417W        W 1842  13.957   4.627   9.933
29418W        W 1843  13.182  30.224  12.160
29419W        W 1844  12.802  38.096  14.475
29420W        W 1845   1.119  17.383   5.040
29421W        W 1846  43.515  22.258   4.104
29422W        W 1847  44.342   2.821  13.969
29423W        W 1848   7.326  26.099  13.169
29424W        W 1849   4.995  23.721  10.714
29425W        W 1850  32.688  17.333  14.316
29426W        W 1851  33.142  13.067   1.096
29427W        W 1852  19.953  18.091  10.215
29428W        W 1853   9.732  42.850  13.817
29429W        W 1854  42.130  15.697  11.174
29430W        W 1855  27.366  17.261  11.702
29431W        W 1856  14.308   5.919  11.321
29432W        W 1857  21.635  11.044   1.651
29433W        W 1858  17.735   6.730   3.113
29434W        W 1859   9.559   8.179   1.452
29435W        W 1860  26.034  22.702  10.892
29436W        W 1861  31.507  43.972  13.994
29437W        W 1862  37.093  34.853  12.360
29438W        W 1863  26.711   5.042   1.374
29439W        W 1864  17.453  26.074   0.853
29440W        W 1865  23.489  15.594   3.935
29441W        W 1866   6.984  38.874  10.615
29442W        W 1867  32.448  12.765   4.652
29443W        W 1868  39.630   5.513   0.545
29444W        W 1869  27.963  36.275  12.447
29445W        W 1870  34.831   1.859  11.236
29446W        W 1871  36.469  27.370  13.253
29447W        W 1872  12.797  21.516  14.337
29448W        W 1873  38.601  23.736   3.073
29449W        W 1874   2.238  33.413   0.304
29450W        W 1875  29.217  33.815   2.129
29451W        W 1876  41.305  11.504   4.624
29452W        W 1877   2.801   5.580  11.685
29453W        W 1878  13.835  28.969   3.666
29454W        W 1879   7.850  37.369   1.619
29455W        W 1880  38.662  18.707  14.999
29456W        W 1881  18.201  13.537   3.572
29457W        W 1882   3.822  32.021   2.198
29458W        W 1883  33.016  24.098   4.196
29459W        W 1884  42.051  26.142  14.160
29460W        W 1885   4.253  28.160   4.500
29461W        W 1886   9.836  15.139   0.984
29462W        W 1887  11.572  34.567  12.907
29463W        W 1888   0.979  26.277  10.775
29464W        W 1889   0.826  31.905   4.569
29465W        W 1890   6.922  19.015  11.267
29466W        W 1891  40.178  11.536  11.706
29467W        W 1892  16.377  19.739   1.984
29468W        W 1893  35.656  29.385  12.357
29469W        W 1894  14.139  25.336   4.665
29470W        W 1895  32.076  12.224  13.903
29471W        W 1896  41.671  42.739  10.928
29472W        W 1897  26.446  25.640   2.737
29473W        W 1898  34.114   8.880   4.073
29474W        W 1899  42.911  33.078   1.447
29475W        W 1900   1.767  23.046  10.882
29476W        W 1901   3.880  41.494   0.557
29477W        W 1902   0.865  21.793   1.874
29478W        W 1903  31.988  10.719  12.090
29479W        W 1904  36.576   1.392   2.667
29480W        W 1905  21.958  44.426  14.783
29481W        W 1906  40.543   2.550   1.728
29482W        W 1907  33.043  41.500  14.785
29483W        W 1908  19.928  11.860  11.272
29484W        W 1909  17.584  40.627  11.236
29485W        W 1910  28.139  39.222  10.102
29486W        W 1911  26.542  38.065   0.743
29487W        W 1912  34.371  44.853   4.150
29488W        W 1913  43.671  11.303  10.673
29489W        W 1914  20.690  20.803   0.393
29490W        W 1915  12.657   0.707  11.624
29491W        W 1916  20.786  42.549  12.942
29492W        W 1917  33.223  24.190   4.674
29493W        W 1918  22.033  11.408   4.552
29494W        W 1919   3.325  29.921  14.900
29495W        W 1920   9.810  41.916   3.945
29496W        W 1921  38.418  24.216   4.295
29497W        W 1922  12.123   3.971   5.551
29498W        W 1923   8.345   3.851  11.662
29499W        W 1924  26.586  39.619  11.203
29500W        W 1925   3.368   6.820   3.370
29501W        W 1926  36.542  32.436   1.828
29502W        W 1927  20.095  18.710   4.250
29503W        W 1928   0.705   1.568   1.201
29504W        W 1929  43.253  27.759  10.291
29505W        W 1930   4.928  28.004  13.541
29506W        W 1931  11.152  19.777  12.224
29507W        W 1932  30.503  30.122  13.409
29508W        W 1933  12.972  23.629  14.604
29509W        W 1934  41.952  25.968   0.732
29510W        W 1935   5.775  30.548  11.243
29511W        W 1936  15.180   3.059   1.752
29512W        W 1937   2.904   5.261   4.178
29513W        W 1938  40.002  24.227   2.535
29514W        W 1939  16.627  40.371   1.555
29515W        W 1940  25.375  29.181  13.850
29516W        W 1941  19.497  16.161   2.739
29517W        W 1942  12.169  24.760  14.433
29518W        W 1943   1.753  10.797   4.402
29519W        W 1944  13.150  32.895   2.224
29520W        W 1945  35.369  27.917   1.926
29521W        W 1946  21.718  39.471  14.327
29522W        W 1947  28.088  43.250  13.935
29523W        W 1948  27.564  44.368  11.552
29524W        W 1949  27.456  24.881   5.163
29525W        W 1950  14.458  40.263  11.581
29526W        W 1951  34.987   0.507   1.931
29527W        W 1952  10.445  19.420  13.467
29528W        W 1953   4.845  10.148  12.148
29529W        W 1954  21.244  44.798  11.966
29530W        W 1955  36.892  35.453  13.357
29531W        W 1956   0.345  20.258   0.204
29532W        W 1957   2.717  33.210  12.404
29533W        W 1958   9.229  34.332   4.746
29534W        W 1959  37.519   6.786   4.578
29535W        W 1960  20.281  23.694   2.780
29536W        W 1961   6.486  15.169  14.822
29537W        W 1962  43.412  37.709  13.853
29538W        W 1963  44.555  25.466  13.797
29539W        W 1964   7.379  32.158   4.764
29540W        W 1965  38.606   2.771   3.081
29541W        W 1966   2.684  37.807   0.337
29542W        W 1967  20.747   4.757  12.066
29543W        W 1968  43.511  19.681  12.451
29544W        W 1969  23.076  12.194  12.102
29545W        W 1970  34.487  27.922   2.588
29546W        W 1971  25.482  15.210   3.169
29547W        W 1972  31.944  24.500  13.500
29548W        W 1973  24.310  17.322  13.069
29549W        W 1974   4.257   5.287   1.329
29550W        W 1975  44.280  29.667   2.264
29551W        W 1976  22.502  23.188   2.539
29552W        W 1977  27.954   7.707  14.971
29553W        W 1978   0.664   2.058  13.018
29554W        W 1979  26.632  16.846   0.303
29555W        W 1980  11.288   3.850   0.358
29556W        W 1981  15.685   4.520  10.978
29557W        W 1982   1.935   3.824   4.894
29558W        W 1983  28.394  34.506  10.663
29559W        W 1984  23.941  27.053  11.837
29560W        W 1985  33.171  33.510   4.745
29561W        W 1986  27.410  18.403  14.404
29562W        W 1987   8.200   2.917  11.081
29563W        W 1988  29.986  20.995  13.277
29564W        W 1989  12.619  11.187   1.324
29565W        W 1990   8.634  25.578   1.620
29566W        W 1991  16.201  22.517  12.107
29567W        W 1992  39.818  44.311   0.938
29568W        W 1993   4.688  18.972  13.432
29569W        W 1994   2.007  28.109   3.186
29570W        W 1995  12.217  38.478   0.693
29571W        W 1996  43.887  38.952  10.236
29572W        W 1997  11.629  38.065  10.690
29573W        W 1998  42.851  13.193   4.538
29574W        W 1999  20.162  20.796   2.320
29575W        W 2000  33.895  37.910  14.852
29576W        W 2001  18.567   8.112   4.796
29577W        W 2002   8.373  32.392  11.168
29578W        W 2003   0.458  22.186   4.299
29579W        W 2004  33.670  21.285  11.192
29580W        W 2005  22.005  13.285   4.579
29581W        W 2006   4.402  37.562   3.850
29582W        W 2007   8.361  26.530   3.386
29583W        W 2008  42.531  34.695   2.230
29584W        W 2009  39.472  35.723  14.010
29585W        W 2010   9.056  17.542  11.514
29586W        W 2011   9.615   6.993   0.274
29587W        W 2012   8.219   0.919  14.136
29588W        W 2013   4.030   1.284  11.938
29589W        W 2014  39.854  26.921  12.449
29590W        W 2015  22.522  31.484   1.466
29591W        W 2016  26.318  32.504   5.058
29592W        W 2017  20.519  39.321   3.135
29593W        W 2018  13.295  39.456   1.890
29594W        W 2019   4.122  14.713   3.895
29595W        W 2020  10.781  27.681  13.135
29596W        W 2021  28.441  16.044  13.529
29597W        W 2022   7.378  34.705  12.447
29598W        W 2023  44.477  26.660   0.154
29599W        W 2024  42.173  42.900   4.384
29600W        W 2025  15.490  34.312  11.077
29601W        W 2026  16.160  12.277   1.349
29602W        W 2027  10.778  30.047   4.695
29603W        W 2028  30.097  37.743   3.718
29604W        W 2029  16.523  26.322   0.833
29605W        W 2030   6.744  40.592  14.799
29606W        W 2031   5.490  26.140   0.229
29607W        W 2032  26.164  16.592  13.465
29608W        W 2033   9.710  16.349  11.725
29609W        W 2034  20.322  42.767   0.518
29610W        W 2035   2.968  37.631   0.768
29611W        W 2036  32.421   6.024   3.245
29612W        W 2037  27.994  40.901   9.745
29613W        W 2038  27.448  34.010   4.164
29614W        W 2039  27.427  40.374  12.012
29615W        W 2040  14.676  12.221  13.830
29616W        W 2041  21.690   2.780  14.091
29617W        W 2042  25.780  28.530   2.755
29618W        W 2043  34.472  16.008  10.660
29619W        W 2044  10.171  27.741   1.269
29620W        W 2045  23.800  16.901   4.551
29621W        W 2046  17.151  24.213   2.339
29622W        W 2047  30.715  17.997  13.616
29623W        W 2048   3.994  40.995   2.237
29624W        W 2049  22.380  32.373  11.438
29625W        W 2050   8.589   3.276  11.137
29626W        W 2051   4.926  33.029  14.853
29627W        W 2052  42.863  42.002   2.771
29628W        W 2053  14.101  21.840   4.557
29629W        W 2054  23.668  11.634   3.889
29630W        W 2055  18.135  11.186  12.551
29631W        W 2056   0.497  39.094   0.698
29632W        W 2057  33.856   7.953   2.276
29633W        W 2058  12.800  41.988   4.694
29634W        W 2059  34.096   2.725   0.974
29635W        W 2060  10.460  35.430  13.947
29636W        W 2061   1.310   6.749  11.682
29637W        W 2062  15.097  37.712   1.462
29638W        W 2063  40.299   0.047   1.329
29639W        W 2064  14.083  29.945  10.738
29640W        W 2065  16.674  14.256   1.808
29641W        W 2066  19.186  38.292   4.564
29642W        W 2067  36.866  11.267   0.433
29643W        W 2068  10.638   8.887   0.846
29644W        W 2069  31.398  35.987  14.795
29645W        W 2070  29.927  41.418  14.990
29646W        W 2071   3.426  39.928  13.146
29647W        W 2072  40.016  44.506  11.084
29648W        W 2073  24.688  33.057   0.945
29649W        W 2074  35.365  35.067  10.972
29650W        W 2075  17.156   5.338   4.440
29651W        W 2076  22.419  27.590   1.166
29652W        W 2077  36.640  34.673  12.263
29653W        W 2078  21.703  21.588  11.977
29654W        W 2079   9.234   2.435  14.706
29655W        W 2080  22.144  38.082   2.345
29656W        W 2081  15.957  35.290   5.567
29657W        W 2082  33.214  39.726   1.776
29658W        W 2083  12.626   6.433   1.114
29659W        W 2084   9.077  39.610  12.905
29660W        W 2085  36.245  35.268  14.011
29661W        W 2086  29.216  35.460   0.125
29662W        W 2087  32.499  17.791  11.881
29663W        W 2088  40.127  44.619  10.580
29664W        W 2089  22.627  32.750   3.978
29665W        W 2090  23.663  15.233   2.623
29666W        W 2091  21.969  10.841  10.663
29667W        W 2092   2.490  25.726  10.850
29668W        W 2093  42.998   3.000   3.831
29669W        W 2094  24.622  16.471  12.985
29670W        W 2095  40.692   2.118   1.954
29671W        W 2096  41.345  26.458  11.536
29672W        W 2097  39.807  13.912  14.878
29673W        W 2098  27.041  12.366  12.855
29674W        W 2099  27.098  40.345  11.514
29675W        W 2100  26.940   8.206   4.438
29676W        W 2101  13.686  17.160   3.349
29677W        W 2102  24.460   4.891   1.249
29678W        W 2103   6.037  42.005   3.408
29679W        W 2104  41.413  36.010  13.421
29680W        W 2105  42.345  44.005  11.941
29681W        W 2106  24.754  19.142   3.338
29682W        W 2107  41.818  31.106   4.186
29683W        W 2108  26.690  25.460   1.808
29684W        W 2109  17.784   3.764   0.651
29685W        W 2110  26.215  16.158   3.144
29686W        W 2111  30.323   7.599  12.565
29687W        W 2112  25.271   2.311   2.861
29688W        W 2113  26.083   5.360  13.143
29689W        W 2114  25.060  42.106   3.160
29690W        W 2115  16.616   9.773  11.667
29691W        W 2116  22.673  26.661   3.464
29692W        W 2117  31.811  26.213   0.695
29693W        W 2118  35.052  38.080  14.034
29694W        W 2119  35.868  25.550   4.198
29695W        W 2120   0.208  17.764   3.168
29696W        W 2121  19.702  17.312   3.390
29697W        W 2122  33.724  12.995   4.900
29698W        W 2123  21.755  32.033  14.598
29699W        W 2124  39.617  32.554   0.796
29700W        W 2125  33.079  36.778  12.686
29701W        W 2126  23.727  40.715   2.825
29702W        W 2127  18.168   0.804   0.413
29703W        W 2128  39.252  39.335  14.313
29704W        W 2129  27.476  26.531  13.420
29705W        W 2130  32.384  40.099  11.647
29706W        W 2131   5.725   7.199  12.476
29707W        W 2132   5.185  18.931   3.194
29708W        W 2133  26.131  34.875   3.296
29709W        W 2134   4.132  12.036   0.350
29710W        W 2135  11.852  40.010   2.370
29711W        W 2136  19.849  23.269  11.052
29712W        W 2137  21.506  16.383  10.830
29713W        W 2138  16.572  15.236  14.034
29714W        W 2139  20.559  42.197  12.642
29715W        W 2140  24.505  13.239   2.775
29716W        W 2141  32.997  41.964  10.746
29717W        W 2142  31.671  15.171  14.407
29718W        W 2143   9.838  27.675   3.265
29719W        W 2144  35.333  38.419  11.520
29720W        W 2145  34.409  16.157   0.080
29721W        W 2146  31.634  43.817   4.378
29722W        W 2147   9.756  10.377  10.080
29723W        W 2148   0.810  40.799   4.800
29724W        W 2149  11.790  12.419   2.465
29725W        W 2150  36.860   5.686   2.757
29726W        W 2151  39.418  19.000   0.375
29727W        W 2152  30.416  15.312   2.193
29728W        W 2153  38.621  30.686  12.559
29729W        W 2154  32.366  27.680  11.587
29730W        W 2155  41.548  30.442  14.240
29731W        W 2156  44.003  17.677  11.491
29732W        W 2157   4.183   8.883   3.711
29733W        W 2158   7.648  24.056   4.086
29734W        W 2159   9.801  25.222   2.690
29735W        W 2160  40.383  25.037   0.350
29736W        W 2161  20.030  42.914   4.192
29737W        W 2162  38.921  34.823   4.224
29738W        W 2163  32.169  36.795  14.810
29739W        W 2164  12.449  38.035   4.582
29740W        W 2165  38.476  19.965  14.363
29741W        W 2166  28.179  23.438   4.200
29742W        W 2167  17.401  17.831  12.349
29743W        W 2168  40.245   7.674  11.666
29744W        W 2169  23.604  13.039   3.912
29745W        W 2170  32.623  25.558   3.193
29746W        W 2171   8.545  15.113   2.358
29747W        W 2172  35.945  12.288   2.390
29748W        W 2173   2.313  13.666  11.410
29749W        W 2174  40.246  43.017   3.896
29750W        W 2175  37.372  26.948  10.996
29751W        W 2176  19.273  44.444  14.051
29752W        W 2177  24.524  19.531   3.008
29753W        W 2178   7.362  21.462   0.435
29754W        W 2179  30.067  23.044   2.182
29755W        W 2180  28.683  25.088   2.964
29756W        W 2181  32.445  38.801  12.051
29757W        W 2182  13.604   7.808   0.892
29758W        W 2183  12.300   6.454   2.798
29759W        W 2184  26.100  20.291   1.039
29760W        W 2185   9.840  19.877   3.094
29761W        W 2186   1.427  26.512   0.228
29762W        W 2187  18.649  44.602   5.073
29763W        W 2188  18.365  23.027  13.422
29764W        W 2189   5.646  25.087  12.985
29765W        W 2190  10.836  38.085  12.614
29766W        W 2191  28.957  31.513  13.555
29767W        W 2192  28.002  36.294  10.240
29768W        W 2193   3.667  44.476  13.675
29769W        W 2194  33.155  14.729  12.190
29770W        W 2195  29.786  13.825  13.802
29771W        W 2196  29.659  37.377  11.397
29772W        W 2197  12.964  34.197   2.704
29773W        W 2198  20.254  43.489   0.061
29774W        W 2199  22.169  33.655  13.876
29775W        W 2200   9.071  30.540   1.178
29776W        W 2201  30.470   4.707  13.795
29777W        W 2202  40.606   1.747  12.002
29778W        W 2203   4.493  14.331   1.383
29779W        W 2204  12.231  19.740   3.540
29780W        W 2205  41.920  21.110  12.595
29781W        W 2206   5.313  30.125  13.762
29782W        W 2207  43.806  28.438   4.069
29783W        W 2208  21.216  32.095   1.867
29784W        W 2209  42.294  17.582  13.105
29785W        W 2210  35.335  10.735  14.907
29786W        W 2211  33.155  18.667  13.758
29787W        W 2212  17.944   0.981   0.916
29788W        W 2213  27.587  29.291   2.383
29789W        W 2214  38.614  12.845  12.084
29790W        W 2215   4.835  36.565   0.276
29791W        W 2216   9.190  37.015   4.920
29792W        W 2217   2.238  18.737  13.018
29793W        W 2218  38.549  42.654  12.302
29794W        W 2219  28.863  13.292   1.710
29795W        W 2220  37.130  38.937   4.885
29796W        W 2221  20.677  32.632   4.921
29797W        W 2222   7.203  22.998  13.459
29798W        W 2223  31.734  42.312   2.009
29799W        W 2224  19.216   4.884  13.907
29800W        W 2225  27.191  25.364   1.038
29801W        W 2226  29.775  40.414   1.333
29802W        W 2227  27.015  16.832  12.034
29803W        W 2228  34.860  12.404  11.920
29804W        W 2229   3.443  30.766   0.521
29805W        W 2230  19.558  16.661   2.887
29806W        W 2231   4.651   7.294  11.112
29807W        W 2232  29.149  14.203  11.986
29808W        W 2233  23.271   8.860   1.834
29809W        W 2234  35.538  36.106  12.894
29810W        W 2235   5.323  37.099  14.951
29811W        W 2236  15.873  21.882   2.871
29812W        W 2237  11.601  31.661  12.008
29813W        W 2238   8.475   1.306   3.748
29814W        W 2239  39.786  28.500   4.619
29815W        W 2240  13.733  42.286  13.281
29816W        W 2241   2.713  20.303  11.588
29817W        W 2242   6.235  41.902   2.925
29818W        W 2243  39.999  22.539  10.382
29819W        W 2244  26.045  26.529  12.426
29820W        W 2245  21.532  37.042  11.261
29821W        W 2246  13.123  17.617  12.421
29822W        W 2247   1.352  13.643   4.116
29823W        W 2248  28.926  26.884  14.966
29824W        W 2249  26.021  40.401  12.519
29825W        W 2250  17.085  34.594   0.374
29826W        W 2251  11.585  15.193  13.882
29827W        W 2252  35.354  26.976   2.856
29828W        W 2253  14.341  40.752   0.241
29829W        W 2254   5.913  30.014   4.412
29830W        W 2255  23.078  36.250   3.237
29831W        W 2256  21.155  35.602   0.813
29832W        W 2257  15.025  25.166  11.638
29833W        W 2258  43.168   9.260   4.768
29834W        W 2259   2.458  11.208  11.027
29835W        W 2260  19.028  15.816  10.962
29836W        W 2261  19.576  21.765   4.563
29837W        W 2262  25.198  23.902  13.479
29838W        W 2263  13.957  38.908  11.159
29839W        W 2264  21.610  19.349  13.377
29840W        W 2265  31.972  14.687   2.757
29841W        W 2266  30.442  24.473  14.749
29842W        W 2267  21.570  39.485   2.722
29843W        W 2268  25.453  24.792   4.111
29844W        W 2269  42.038  29.968   4.733
29845W        W 2270  19.444  13.199   3.838
29846W        W 2271  42.282  18.601   1.267
29847W        W 2272   5.684  26.458   1.766
29848W        W 2273  22.058   3.886  12.563
29849W        W 2274  23.903  40.064  11.593
29850W        W 2275  35.099  42.321   4.597
29851W        W 2276  24.731  30.722   3.131
29852W        W 2277  42.731  22.196  13.051
29853W        W 2278  16.957  25.411  14.431
29854W        W 2279  13.168  12.777  13.450
29855W        W 2280   2.208  41.550  12.515
29856W        W 2281  39.444  23.956  14.346
29857W        W 2282  21.508  23.787   0.286
29858W        W 2283  33.317  35.474   4.489
29859W        W 2284   6.334   9.834   3.341
29860W        W 2285  32.631  30.886   1.908
29861W        W 2286  21.263  44.831   2.834
29862W        W 2287  12.757   9.282   0.077
29863W        W 2288   1.808  32.180  13.576
29864W        W 2289  20.248  15.742   1.148
29865W        W 2290  38.459  24.125  14.755
29866W        W 2291   5.373  20.809  11.082
29867W        W 2292  37.378  28.704   4.685
29868W        W 2293  30.147  16.732   3.210
29869W        W 2294  42.205  35.519   4.244
29870W        W 2295  33.364   8.499   1.773
29871W        W 2296  29.669   3.439   0.893
29872W        W 2297   3.380  21.431  12.949
29873W        W 2298  22.616  23.492  12.654
29874W        W 2299  20.365  40.907  11.333
29875W        W 2300  21.754  19.739   4.599
29876W        W 2301   6.502  25.199  13.460
29877W        W 2302  12.585   1.948   4.587
29878W        W 2303  25.064   5.928   3.528
29879W        W 2304   8.334   1.734  12.202
29880W        W 2305  10.760  14.228  14.245
29881W        W 2306  42.396  10.712   1.928
29882W        W 2307  15.914  18.143  14.872
29883W        W 2308  40.530  24.748   3.637
29884W        W 2309  33.078  32.002   2.296
29885W        W 2310  44.179   5.129   9.914
29886W        W 2311  37.095  22.994  13.428
29887W        W 2312  41.705  39.543   4.112
29888W        W 2313   8.739   8.808   2.604
29889W        W 2314  35.434   3.313   2.131
29890W        W 2315  37.977   9.225  13.325
29891W        W 2316   0.797  44.256   3.105
29892W        W 2317  32.145  25.075   4.030
29893W        W 2318  34.765  28.331  11.622
29894W        W 2319  34.591  31.907   3.721
29895W        W 2320  34.045  25.990   4.493
29896W        W 2321  28.206  30.401  13.098
29897W        W 2322  36.137  32.989  11.979
29898W        W 2323  13.284  25.132  14.912
29899W        W 2324  30.394  19.732   3.060
29900W        W 2325   8.266  13.318   1.260
29901W        W 2326  13.835  23.852   9.826
29902W        W 2327  35.160  26.592  11.106
29903W        W 2328   0.399  36.407  13.439
29904W        W 2329  23.707   4.862  11.429
29905W        W 2330  23.992  43.434   0.309
29906W        W 2331   7.798  43.507  12.673
29907W        W 2332  24.632  10.774  13.510
29908W        W 2333  22.134  16.942   1.424
29909W        W 2334  26.821   9.320  12.888
29910W        W 2335   0.016  34.578  10.151
29911W        W 2336  23.324  34.719  12.823
29912W        W 2337  12.813  12.093   4.579
29913W        W 2338  25.253  33.574   0.795
29914W        W 2339  19.618  21.780  11.243
29915W        W 2340  18.694  16.232  13.425
29916W        W 2341   6.441  18.124  12.161
29917W        W 2342  41.806  20.694  11.099
29918W        W 2343  41.799   3.601   1.647
29919W        W 2344  10.259  41.762   0.909
29920W        W 2345  26.237  19.079   4.147
29921W        W 2346  19.797  37.138   3.342
29922W        W 2347   4.721  13.003   3.866
29923W        W 2348  31.088  18.691   2.750
29924W        W 2349   0.839  20.401  14.209
29925W        W 2350  38.811  37.248  13.309
29926W        W 2351  30.505  31.087  14.762
29927W        W 2352  22.795  14.345   1.015
29928W        W 2353  11.658  17.703  11.162
29929W        W 2354  38.510  27.081  14.771
29930W        W 2355  43.989  37.368   4.517
29931W        W 2356   4.070  37.280  12.351
29932W        W 2357  26.283   7.596   4.712
29933W        W 2358   9.259  19.011   2.224
29934W        W 2359   2.879  32.503   0.402
29935W        W 2360  37.906  37.558  11.973
29936W        W 2361  33.012  40.987  14.795
29937W        W 2362   9.572  24.942  13.572
29938W        W 2363  33.412  19.216   1.466
29939W        W 2364  39.096  43.995   3.717
29940W        W 2365  44.204  10.205  13.125
29941W        W 2366  30.998   9.335   3.843
29942W        W 2367   6.288  43.782   3.967
29943W        W 2368   4.860  39.803  13.957
29944W        W 2369  35.068   1.712   0.627
29945W        W 2370  43.840   1.958  10.799
29946W        W 2371  41.421  23.936  12.427
29947W        W 2372   3.301  32.097  10.786
29948W        W 2373  11.829  29.186   4.530
29949W        W 2374  36.784  36.928   0.345
29950W        W 2375   8.902  41.838  14.368
29951W        W 2376  27.933  27.290  13.445
29952W        W 2377  36.913   8.364  14.828
29953W        W 2378  12.267  24.887   4.260
29954W        W 2379  18.139  41.042   2.232
29955W        W 2380  20.678  22.993  14.006
29956W        W 2381  26.272   2.405   2.711
29957W        W 2382   5.179   5.705  14.397
29958W        W 2383  38.959  44.853  12.130
29959W        W 2384  23.151  40.991   1.948
29960W        W 2385  21.550   0.488   3.300
29961W        W 2386  44.867  24.305  11.678
29962W        W 2387  30.497  36.266  13.883
29963W        W 2388   8.729  24.552   0.885
29964W        W 2389  36.930  43.326  12.514
29965W        W 2390  23.712  31.602   2.236
29966W        W 2391  37.869  38.539   0.919
29967W        W 2392   9.365  32.942   3.257
29968W        W 2393  23.631  25.660   0.480
29969W        W 2394  35.557  35.308   2.783
29970W        W 2395  38.470  43.104   0.366
29971W        W 2396   6.911   5.080   2.181
29972W        W 2397   9.399  14.027   2.361
29973W        W 2398  37.793  44.718  13.896
29974W        W 2399  27.071  17.703  11.635
29975W        W 2400  19.628  24.977   0.344
29976W        W 2401  31.545  31.457  14.854
29977W        W 2402   4.138  15.094  14.291
29978W        W 2403  40.343  39.061  10.236
29979W        W 2404   8.323  40.311  14.851
29980W        W 2405  21.210   3.234   4.683
29981W        W 2406  37.161   9.352   3.710
29982W        W 2407  12.855  11.143   2.256
29983W        W 2408  23.652  31.467   1.351
29984W        W 2409  32.663  20.561  10.496
29985W        W 2410  16.095  12.073  11.312
29986W        W 2411  16.629   7.271   3.860
29987W        W 2412  36.123  20.738   1.803
29988W        W 2413   1.169  38.442   4.568
29989W        W 2414  29.948  23.935  12.916
29990W        W 2415  34.341  35.138  11.689
29991W        W 2416  43.334  44.452  13.275
29992W        W 2417  37.129   4.826   1.944
29993W        W 2418   1.206  42.588  12.403
29994W        W 2419  11.179   6.740  12.891
29995W        W 2420   1.806  12.030   4.768
29996W        W 2421  25.223   8.471  13.818
29997W        W 2422   8.228  29.118  12.381
29998W        W 2423  32.087   6.936   2.844
29999W        W 2424  20.116   4.877  13.324
30000W        W 2425  17.125  21.696  10.150
30001W        W 2426  42.382   5.719  12.968
30002W        W 2427   2.143   7.079   4.198
30003W        W 2428  44.946  28.832  13.098
30004W        W 2429  40.708  28.548   2.057
30005W        W 2430  14.189   3.708  12.899
30006W        W 2431  39.534  18.251   2.457
30007W        W 2432  44.044  18.047  14.441
30008W        W 2433  43.358  39.626   4.371
30009W        W 2434  42.068  44.990  13.066
30010W        W 2435   2.378   7.814  13.957
30011W        W 2436  28.605  28.085  13.615
30012W        W 2437   2.863  25.125   2.402
30013W        W 2438  33.378  26.445  14.914
30014W        W 2439  35.355  34.814  12.857
30015W        W 2440  35.918   4.336   0.818
30016W        W 2441   4.893  28.932  12.579
30017W        W 2442  28.204  15.331   3.332
30018W        W 2443  17.537  20.721   3.614
30019W        W 2444  34.791  12.076   1.704
30020W        W 2445  29.416  20.126  13.360
30021W        W 2446  14.925  11.232   3.607
30022W        W 2447  39.095   4.736  14.830
30023W        W 2448   3.445  35.526   3.841
30024W        W 2449   4.266  12.588   0.990
30025W        W 2450  25.605  12.782  11.949
30026W        W 2451  25.579  19.051   1.200
30027W        W 2452   9.240  32.464  10.416
30028W        W 2453  42.911  27.171  14.428
30029W        W 2454  43.098  37.591   3.498
30030W        W 2455  31.965  34.910  13.359
30031W        W 2456   2.488   1.237  13.007
30032W        W 2457  13.709   2.218  12.127
30033W        W 2458  44.740  10.759  11.392
30034W        W 2459  26.298   7.006  10.272
30035W        W 2460   9.143   6.919  13.781
30036W        W 2461   8.347  24.077   2.851
30037W        W 2462   1.515   5.476   2.272
30038W        W 2463  44.294  38.045  12.372
30039W        W 2464  10.143  25.112  11.261
30040W        W 2465  32.242  29.969   2.825
30041W        W 2466  20.613  13.893   3.915
30042W        W 2467   4.011  21.045   4.143
30043W        W 2468  41.725  25.168   0.569
30044W        W 2469  22.700  15.808  10.965
30045W        W 2470  33.686  37.399  11.112
30046W        W 2471  26.580  37.101   0.752
30047W        W 2472  41.817  42.928   1.261
30048W        W 2473  39.982  29.416  10.742
30049W        W 2474   3.688  42.052   2.770
30050W        W 2475  32.856  35.660   2.116
30051W        W 2476  17.109  15.602   3.323
30052W        W 2477  40.015  33.684   0.897
30053W        W 2478  26.033  35.490  13.118
30054W        W 2479  17.084   1.569   3.675
30055W        W 2480  28.900  21.228   3.573
30056W        W 2481   3.469  29.487   1.285
30057W        W 2482  21.231  28.515  11.989
30058W        W 2483  44.142  42.225   2.255
30059W        W 2484  15.858  28.510   2.206
30060W        W 2485   5.238  18.708   3.658
30061W        W 2486  10.897  24.268   1.317
30062W        W 2487  37.951  13.135   1.821
30063W        W 2488  10.763   6.806   2.731
30064W        W 2489  32.717   4.718   1.245
30065W        W 2490  40.552   2.096  11.160
30066W        W 2491  33.287  29.031   1.065
30067W        W 2492  19.138  20.851   4.289
30068W        W 2493   0.775   4.454  14.356
30069W        W 2494  26.141  24.133  10.623
30070W        W 2495  17.581  43.314   2.184
30071W        W 2496  34.872  16.356   0.175
30072W        W 2497  30.633  40.115  13.554
30073W        W 2498  38.858  41.879  12.899
30074W        W 2499   1.465  12.733  10.982
30075W        W 2500   2.280  13.088   1.880
30076W        W 2501  31.107  13.436   0.071
30077W        W 2502  25.208  40.568   4.597
30078W        W 2503   1.994   4.538   0.085
30079W        W 2504  29.673  18.816   4.285
30080W        W 2505  28.379  28.243   2.797
30081W        W 2506  27.023  44.432  11.983
30082W        W 2507  24.394  12.104   2.660
30083W        W 2508  23.059  28.896   3.400
30084W        W 2509   2.201  17.609   2.829
30085W        W 2510  39.549  36.847  14.987
30086W        W 2511  15.043  19.772   3.317
30087W        W 2512  33.401  13.833  12.581
30088W        W 2513  32.937   8.989  13.902
30089W        W 2514  22.040   1.311  12.023
30090W        W 2515   1.457  30.224  11.084
30091W        W 2516  42.554  39.292   2.409
30092W        W 2517  40.708  27.451   3.405
30093W        W 2518  15.086  10.423  12.486
30094W        W 2519  14.808  19.583   1.894
30095W        W 2520  37.392   5.238  13.830
30096W        W 2521  44.879  29.477   1.165
30097W        W 2522  37.148  32.086  12.157
30098W        W 2523  29.350  26.073  11.486
30099W        W 2524  43.226  35.007   1.384
30100W        W 2525  16.636  20.231   1.924
30101W        W 2526  11.919  42.001   1.934
30102W        W 2527  26.164   1.227  14.243
30103W        W 2528   6.743   5.480  13.858
30104W        W 2529   9.846  41.200   2.631
30105W        W 2530  11.469   1.295   3.083
30106W        W 2531   9.353  41.086  12.327
30107W        W 2532   8.102  18.263  14.160
30108W        W 2533  30.556  14.743  13.968
30109W        W 2534  30.102  14.414  11.110
30110W        W 2535  28.080  23.440   0.965
30111W        W 2536  19.553  19.586  13.819
30112W        W 2537   6.442   4.389  13.103
30113W        W 2538   5.283   2.664  11.415
30114W        W 2539  23.006  41.482   3.952
30115W        W 2540   8.289  21.947   4.558
30116W        W 2541  20.456  33.896   0.926
30117W        W 2542  31.234  44.452  14.906
30118W        W 2543   6.859  15.706   0.956
30119W        W 2544  18.837  41.074  14.951
30120W        W 2545  15.504  24.649   4.552
30121W        W 2546  44.985  18.081  10.380
30122W        W 2547   3.786  19.303  11.694
30123W        W 2548   7.700   6.025  12.613
30124W        W 2549   7.356   2.836  11.704
30125W        W 2550   8.513  36.828   0.252
30126W        W 2551   3.929  22.373  10.711
30127W        W 2552   8.369   0.269  11.236
30128W        W 2553  30.024  27.172   4.264
30129W        W 2554  18.231  43.108  11.902
30130W        W 2555   1.003  24.903   0.749
30131W        W 2556   9.258   1.514   1.260
30132W        W 2557  35.627  28.104  11.676
30133W        W 2558  40.198  15.580  10.761
30134W        W 2559  23.098  43.031   4.562
30135W        W 2560  25.717  16.168   4.718
30136W        W 2561  40.500   3.851  10.962
30137W        W 2562  16.053  37.838   3.296
30138W        W 2563  41.075  30.001  12.442
30139W        W 2564  30.962  38.118   0.665
30140W        W 2565  36.222  19.764   0.375
30141W        W 2566  26.476   7.802   2.873
30142W        W 2567  35.937  11.350   0.075
30143W        W 2568   2.915  41.782   1.240
30144W        W 2569  40.909  38.370  14.418
30145W        W 2570  38.789   0.872   3.142
30146W        W 2571  22.185  37.203  10.571
30147W        W 2572  13.364  14.247   3.222
30148W        W 2573  22.504  27.893  13.845
30149W        W 2574  33.193   9.301   2.723
30150W        W 2575  16.555  13.770   3.140
30151W        W 2576  33.402  23.774   4.358
30152W        W 2577  14.723   3.468  10.664
30153W        W 2578  16.911  35.519   9.516
30154W        W 2579  29.318  19.834  14.501
30155W        W 2580   8.509  26.768  12.424
30156W        W 2581  19.315  42.560  14.075
30157W        W 2582  33.486  10.304   1.387
30158W        W 2583  24.668  40.940  14.329
30159W        W 2584  19.200  41.307   1.334
30160W        W 2585  32.156  25.361   1.885
30161W        W 2586  39.022  37.478   3.550
30162W        W 2587  43.911  33.151  10.529
30163W        W 2588  29.223   4.119   3.352
30164W        W 2589  19.021  11.137  13.096
30165W        W 2590   1.742  12.490   4.530
30166W        W 2591  26.878  32.833   4.550
30167W        W 2592   5.197  34.492  12.579
30168W        W 2593  16.578  42.701  14.295
30169W        W 2594  38.024  25.580  11.074
30170W        W 2595  31.899  12.239  11.118
30171W        W 2596   7.818  42.248   0.307
30172W        W 2597  26.885  38.863  11.637
30173W        W 2598  13.507  40.436   2.250
30174W        W 2599  28.147  11.512  13.437
30175W        W 2600  38.430  36.871  12.661
30176W        W 2601   1.223  37.608  12.413
30177W        W 2602   3.648   7.674   2.884
30178W        W 2603  23.753  32.365   4.797
30179W        W 2604  14.954  43.916  10.705
30180W        W 2605  32.590  12.847   1.972
30181W        W 2606  44.803  16.210   2.893
30182W        W 2607  33.130  35.750  11.575
30183W        W 2608  29.693   4.699  14.364
30184W        W 2609  42.372  43.053  13.576
30185W        W 2610  22.010  43.340   1.931
30186W        W 2611  41.818  41.722  12.470
30187W        W 2612  20.098  35.369  12.371
30188W        W 2613  21.301  29.603  11.161
30189W        W 2614   0.204  26.641  14.427
30190W        W 2615  41.871   5.774  10.777
30191W        W 2616  21.635  20.324  13.477
30192W        W 2617  37.904  32.222  14.525
30193W        W 2618  18.728   2.312   1.025
30194W        W 2619  38.755  40.903   0.898
30195W        W 2620  20.062   2.093  12.878
30196W        W 2621  11.811   1.335  13.943
30197W        W 2622   3.971   3.830   1.032
30198W        W 2623  17.663   0.850   2.681
30199W        W 2624  33.098  19.258  11.931
30200W        W 2625  25.689  26.651   5.130
30201W        W 2626  23.958  27.853  10.837
30202W        W 2627  32.713  30.527  10.697
30203W        W 2628  25.110   4.984  13.003
30204W        W 2629  26.956   0.737   0.472
30205W        W 2630  36.858  23.589  14.789
30206W        W 2631  35.107  21.291  13.826
30207W        W 2632   2.679   9.829   4.236
30208W        W 2633  24.615  35.050   2.975
30209W        W 2634  20.923   5.992   2.819
30210W        W 2635  10.213  19.343  14.941
30211W        W 2636  27.688  43.272  13.053
30212W        W 2637  14.699   4.519  14.821
30213W        W 2638  21.251  11.195  13.002
30214W        W 2639  42.971   3.373   2.502
30215W        W 2640   1.297  41.490  12.932
30216W        W 2641  19.077   4.462  12.581
30217W        W 2642  27.900   7.119  11.180
30218W        W 2643  26.031   6.619  11.995
30219W        W 2644  23.595  24.050  12.969
30220W        W 2645  35.924  11.316  10.653
30221W        W 2646   9.879  44.315  12.625
30222W        W 2647  36.394  11.441  14.243
30223W        W 2648   9.224  34.054  14.297
30224W        W 2649  37.547   9.511  13.427
30225W        W 2650   5.712   6.302   4.571
30226W        W 2651  28.433  39.819  10.690
30227W        W 2652  21.537  26.483   3.913
30228W        W 2653  13.089   9.434   3.764
30229W        W 2654  37.938  29.611  10.385
30230W        W 2655  13.196  23.635   2.241
30231W        W 2656  41.576   4.738   1.492
30232W        W 2657  32.851  10.558   5.013
30233W        W 2658  22.780  29.457  14.900
30234W        W 2659  30.015  36.791   0.107
30235W        W 2660  31.744  26.209  13.486
30236W        W 2661  36.094  16.426  13.313
30237W        W 2662  43.397   9.822   0.306
30238W        W 2663  32.048  34.001   2.918
30239W        W 2664  27.258  38.085  11.898
30240W        W 2665  32.931  26.229   2.286
30241W        W 2666  41.924  23.980  10.593
30242W        W 2667  12.376  32.029  10.480
30243W        W 2668  10.289  23.814  10.983
30244W        W 2669  44.241  25.473   2.967
30245W        W 2670   8.071   5.242  13.030
30246W        W 2671  16.838  42.333   4.736
30247W        W 2672  14.823  28.534  13.352
30248W        W 2673  29.180  44.286   2.283
30249W        W 2674  24.570   3.562   4.574
30250W        W 2675  39.891  20.088   2.440
30251W        W 2676  44.495  24.115  12.025
30252W        W 2677  27.215  16.734  14.959
30253W        W 2678  20.454  13.458  11.534
30254W        W 2679   8.401  32.105  10.738
30255W        W 2680  23.795  34.363  14.211
30256W        W 2681  12.834  31.477   3.691
30257W        W 2682  41.559   3.024  10.682
30258W        W 2683  28.607  28.123   3.731
30259W        W 2684  14.814   9.138  10.611
30260W        W 2685  28.046   2.203  11.687
30261W        W 2686   4.523  37.497   3.348
30262W        W 2687   3.195  32.516   3.982
30263W        W 2688  20.496  16.342   2.820
30264W        W 2689  25.145  18.581   4.530
30265W        W 2690  31.354  17.208   1.432
30266W        W 2691  33.948   3.754  12.105
30267W        W 2692  27.140   9.228   3.808
30268W        W 2693  24.705  34.382   4.580
30269W        W 2694  23.152  30.622  14.624
30270W        W 2695  25.578  12.649   4.167
30271W        W 2696  21.305   7.992  14.374
30272W        W 2697  31.962  17.265  14.733
30273W        W 2698  39.357   4.139   0.478
30274W        W 2699   9.870  22.026  12.216
30275W        W 2700   0.758  24.206  12.933
30276W        W 2701   4.454  40.980  14.379
30277W        W 2702   7.992  41.761   0.403
30278W        W 2703  38.345  20.003   0.705
30279W        W 2704   1.539  18.844   3.320
30280W        W 2705  20.184  41.398   1.240
30281W        W 2706  15.116   4.247   3.719
30282W        W 2707  29.898  30.339   2.939
30283W        W 2708  14.637   4.307  13.410
30284W        W 2709   8.338   9.619  10.756
30285W        W 2710  26.182   8.049  11.156
30286W        W 2711  19.023  36.151  12.375
30287W        W 2712  12.703  40.108  11.492
30288W        W 2713  40.535   8.844  14.791
30289W        W 2714  13.253  31.920   4.094
30290W        W 2715  27.901  37.622  14.570
30291W        W 2716  21.444   9.812  10.706
30292W        W 2717  20.002  12.843  12.154
30293W        W 2718   4.445   2.149   1.470
30294W        W 2719  11.742  22.686   0.322
30295W        W 2720  30.694  16.690   4.089
30296W        W 2721  35.198  24.963  14.836
30297W        W 2722  20.882   5.940   0.050
30298W        W 2723  39.350  40.513   0.431
30299W        W 2724  27.230  26.222  10.660
30300W        W 2725  30.000   1.877   3.121
30301W        W 2726  28.710  25.917  14.582
30302W        W 2727  35.149   6.133   3.991
30303W        W 2728   8.444  14.188   0.991
30304W        W 2729  34.610  40.359  12.009
30305W        W 2730  39.435   8.728   0.704
30306W        W 2731  23.784   8.588   0.457
30307W        W 2732  34.572  11.788  12.586
30308W        W 2733  22.191  12.605  14.678
30309W        W 2734  40.437   2.376   0.281
30310W        W 2735  35.590  23.717  14.416
30311W        W 2736  10.299  27.011  13.628
30312W        W 2737  19.586  38.630   1.661
30313W        W 2738  25.106  19.748   4.710
30314W        W 2739  40.112  30.580   3.203
30315W        W 2740  29.415  17.999  11.432
30316W        W 2741  37.888   4.343   2.895
30317W        W 2742  29.710  34.844  10.975
30318W        W 2743  19.741  17.107   2.406
30319W        W 2744   0.198  25.487   0.720
30320W        W 2745  39.057  38.940  11.518
30321W        W 2746  26.864  42.381   1.971
30322W        W 2747  30.124  23.119   4.648
30323W        W 2748  34.911  41.118   1.689
30324W        W 2749  27.156   6.184   4.706
30325W        W 2750   4.335  21.656  14.369
30326W        W 2751  39.781  39.377   2.382
30327W        W 2752   6.775  16.933   4.088
30328W        W 2753  22.763  28.460  12.606
30329W        W 2754  37.435  29.607  11.515
30330W        W 2755   2.765  16.154   4.642
30331W        W 2756  20.343  10.166   2.661
30332W        W 2757  22.012  11.461  13.833
30333W        W 2758  42.834  37.223  12.022
30334W        W 2759  30.108  43.966   1.325
30335W        W 2760  33.963  22.452  14.016
30336W        W 2761  10.681  42.400   4.919
30337W        W 2762   8.690  42.398  11.340
30338W        W 2763  35.576  39.030  13.871
30339W        W 2764   4.633  44.485   4.129
30340W        W 2765  33.027  15.211   4.232
30341W        W 2766  17.134  19.579   0.881
30342W        W 2767   8.390   6.640  11.923
30343W        W 2768  24.039   4.744   1.007
30344W        W 2769   3.696   5.390  12.000
30345W        W 2770  35.168   3.967  12.551
30346W        W 2771   4.314   9.544   4.932
30347W        W 2772  26.389  19.701  13.389
30348W        W 2773  14.226  22.068   4.082
30349W        W 2774   6.465   9.840  14.979
30350W        W 2775   8.492  42.367   0.689
30351W        W 2776  33.354   5.152   3.301
30352W        W 2777  41.870  16.460   0.750
30353W        W 2778  36.919  37.490   0.397
30354W        W 2779  30.825   4.796  11.537
30355W        W 2780   4.705   5.792   2.105
30356W        W 2781  43.477  40.041   1.351
30357W        W 2782  23.430   5.239   3.233
30358W        W 2783   5.430  17.079   3.116
30359W        W 2784  19.038  44.511  10.617
30360W        W 2785   2.853   3.010   0.294
30361W        W 2786  33.314  19.721   3.108
30362W        W 2787  27.979  27.671  12.406
30363W        W 2788  44.462  37.299   2.831
30364W        W 2789  35.193   7.962   5.492
30365W        W 2790  35.911   8.270   3.330
30366W        W 2791  12.557  20.094   2.701
30367W        W 2792  40.336  28.744  13.669
30368W        W 2793   5.363  38.303  14.069
30369W        W 2794  31.676   7.600  12.895
30370W        W 2795  39.861  22.683   4.637
30371W        W 2796  33.131  21.062  14.907
30372W        W 2797  40.304  31.069   3.549
30373W        W 2798  26.928  22.768   1.154
30374W        W 2799  19.266  28.549   0.417
30375W        W 2800  37.081  16.110  11.272
30376W        W 2801  18.499  31.935  10.834
30377W        W 2802  41.873  38.532  12.918
30378W        W 2803  44.796  19.016  13.914
30379W        W 2804   2.216  27.389   1.436
30380W        W 2805  10.039  35.042  13.105
30381W        W 2806  29.414  11.115  13.541
30382W        W 2807  19.539  18.694  14.068
30383W        W 2808   2.745   0.345   0.730
30384W        W 2809  35.604  12.224   0.691
30385W        W 2810   1.527  41.764   0.053
30386W        W 2811  40.370  30.545  12.012
30387W        W 2812  15.997   0.245  11.068
30388W        W 2813   4.494  25.468  12.755
30389W        W 2814  22.795  30.985   4.079
30390W        W 2815  26.603  37.062   3.721
30391W        W 2816   8.968  34.125   0.241
30392W        W 2817  11.204  37.910   1.419
30393W        W 2818  20.016  24.593   2.928
30394W        W 2819  35.023  41.367  10.693
30395W        W 2820  16.379   6.899  14.751
30396W        W 2821   0.141  21.669  10.753
30397W        W 2822   8.238   4.985  14.049
30398W        W 2823  20.259  40.959  10.557
30399W        W 2824   3.243  17.265   4.771
30400W        W 2825  29.282   6.785   2.371
30401W        W 2826  36.077   0.300   3.638
30402W        W 2827   7.949  11.150  13.371
30403W        W 2828  11.801  36.574  13.166
30404W        W 2829  11.349  18.809   4.636
30405W        W 2830  29.913  26.095   3.717
30406W        W 2831  17.207  23.968   1.080
30407W        W 2832   8.234  21.546  11.869
30408W        W 2833   9.893  10.792   4.701
30409W        W 2834  37.021  30.978   2.005
30410W        W 2835  44.340  22.819  12.588
30411W        W 2836   6.587   3.569   1.130
30412W        W 2837  19.592  12.860   1.644
30413W        W 2838  29.139  29.468   3.805
30414W        W 2839   2.855  24.021   3.399
30415W        W 2840  33.330  13.791  13.441
30416W        W 2841  29.094   6.749  13.994
30417W        W 2842  28.200  10.766  14.748
30418W        W 2843   8.250  29.030   3.193
30419W        W 2844  26.156  11.554   0.348
30420W        W 2845  20.747   2.491   3.274
30421W        W 2846  15.368   2.729   5.450
30422W        W 2847  41.610  38.847  14.463
30423W        W 2848   7.539  16.989  13.435
30424W        W 2849   1.850  28.144  11.058
30425W        W 2850  13.381  43.989  13.789
30426W        W 2851  34.876   5.911   3.612
30427W        W 2852  27.668  41.558  11.341
30428W        W 2853  37.665   9.877  12.636
30429W        W 2854  24.672  11.752   2.901
30430W        W 2855   5.730  24.496   3.640
30431W        W 2856  33.863  34.997  14.003
30432W        W 2857   1.057  32.715   3.304
30433W        W 2858   4.235   3.826   0.024
30434W        W 2859  42.375  41.016   3.087
30435W        W 2860  43.311  41.599   3.308
30436W        W 2861   2.813  21.236  12.503
30437W        W 2862  28.475  36.602   4.115
30438W        W 2863  18.014  36.910   0.487
30439W        W 2864  31.566  40.293   2.172
30440W        W 2865   8.495   7.754  13.149
30441W        W 2866  16.332  23.114   3.654
30442W        W 2867  42.362  27.940  12.524
30443W        W 2868  38.194  28.784  10.508
30444W        W 2869   5.160  27.445   2.710
30445W        W 2870  34.617  23.275  12.967
30446W        W 2871  34.667   2.516  11.587
30447W        W 2872  19.819   7.322   2.307
30448W        W 2873  36.649   9.208  12.113
30449W        W 2874   5.038   3.162  10.679
30450W        W 2875  38.947   0.075   4.534
30451W        W 2876  14.861  32.055   3.653
30452W        W 2877  27.561  36.668  12.488
30453W        W 2878  31.259  10.891  10.756
30454W        W 2879   1.797  31.738  13.883
30455W        W 2880  14.593  41.793  11.927
30456W        W 2881  42.759   7.797  11.637
30457W        W 2882   7.517  31.607   3.784
30458W        W 2883  20.282  35.042   1.192
30459W        W 2884   7.799  44.989  12.414
30460W        W 2885  11.474  34.141  14.391
30461W        W 2886  34.261  21.436  11.880
30462W        W 2887  42.376  31.928  13.010
30463W        W 2888  18.662   9.310  14.747
30464W        W 2889   3.780  29.716  14.209
30465W        W 2890  39.048   6.775  14.782
30466W        W 2891  15.113  20.868  12.199
30467W        W 2892  25.999  11.613  13.101
30468W        W 2893  25.569  24.611  10.980
30469W        W 2894  43.118  26.406   1.844
30470W        W 2895  27.358  19.595   4.951
30471W        W 2896  26.736  17.208  14.509
30472W        W 2897  20.637  10.743  11.847
30473W        W 2898  31.502  43.916   3.890
30474W        W 2899  16.222  13.356   3.163
30475W        W 2900   3.767  12.503  13.520
30476W        W 2901   6.693   9.770  11.989
30477W        W 2902   7.759   4.762  10.050
30478W        W 2903   3.262  26.498  10.625
30479W        W 2904  19.984  19.295  14.046
30480W        W 2905  33.407  25.692   0.631
30481W        W 2906   8.958   2.283  11.281
30482W        W 2907  33.289  34.421  14.219
30483W        W 2908  43.490  36.067  10.663
30484W        W 2909  32.353  37.474   3.291
30485W        W 2910  25.480  22.190   1.801
30486W        W 2911  18.138  39.036  14.552
30487W        W 2912  31.592  21.123  11.193
30488W        W 2913  10.146  18.791   4.049
30489W        W 2914  20.628  16.936  10.602
30490W        W 2915  19.329   8.782   3.741
30491W        W 2916  29.963  29.507  14.309
30492W        W 2917   9.847   3.003   2.405
30493W        W 2918  15.691   6.640  14.978
30494W        W 2919  44.497  33.925  10.685
30495W        W 2920   2.418  34.986  10.559
30496W        W 2921  13.591  30.842  11.131
30497W        W 2922  19.050  44.014  10.471
30498W        W 2923  23.895   2.369   3.124
30499W        W 2924  34.055  29.865   2.905
30500W        W 2925  38.215   9.181   1.375
30501W        W 2926   4.855  28.292   0.882
30502W        W 2927  14.718  20.767   2.710
30503W        W 2928   1.990  18.072  14.872
30504W        W 2929  34.649  34.569  12.431
30505W        W 2930  33.885  30.536   0.790
30506W        W 2931  33.443  41.675   1.247
30507W        W 2932  10.750  38.546  12.841
30508W        W 2933   7.238  41.368   3.859
30509W        W 2934  14.899  41.498  14.831
30510W        W 2935  29.101  10.757   0.836
30511W        W 2936  28.716  43.789  11.499
30512W        W 2937  23.832  18.530  11.512
30513W        W 2938  20.256   6.799  14.826
30514W        W 2939  11.138   3.065  13.961
30515W        W 2940   2.827  25.399  10.606
30516W        W 2941  39.357   8.787   3.336
30517W        W 2942   2.409  44.551   3.628
30518W        W 2943   9.386  15.261  14.714
30519W        W 2944  25.905  35.117  11.455
30520W        W 2945  35.067  21.015  12.801
30521W        W 2946   4.960   2.871  12.634
30522W        W 2947  39.970  11.800  14.063
30523W        W 2948  42.054  21.157  11.102
30524W        W 2949  28.998  11.823  14.238
30525W        W 2950  31.685   7.393   3.351
30526W        W 2951  25.387  34.383   3.116
30527W        W 2952   3.524  29.456  12.562
30528W        W 2953  35.608   3.464  11.092
30529W        W 2954  15.569  16.215  14.800
30530W        W 2955  19.568   2.452  11.001
30531W        W 2956  17.131  28.521  12.804
30532W        W 2957  37.551  19.209   1.693
30533W        W 2958   7.215  33.446   1.135
30534W        W 2959  34.645   1.447   1.464
30535W        W 2960  19.740  30.630   2.765
30536W        W 2961  43.493  37.570   4.905
30537W        W 2962  37.454  42.918   4.596
30538W        W 2963  30.632  26.646  11.556
30539W        W 2964  42.294  24.958  12.184
30540W        W 2965  13.105   3.036  10.662
30541W        W 2966   4.576  22.696  11.546
30542W        W 2967  42.041  26.490  13.008
30543W        W 2968  15.171   1.277  12.574
30544W        W 2969  41.835  11.669   3.819
30545W        W 2970  43.729  22.931  10.573
30546W        W 2971  25.177  35.627  11.006
30547W        W 2972  43.559  15.775   3.686
30548W        W 2973  11.464  20.348  14.762
30549W        W 2974  13.310   8.793  14.995
30550W        W 2975  32.070   7.718   4.717
30551W        W 2976  43.301  18.115   2.145
30552W        W 2977  24.383  17.068   4.099
30553W        W 2978  19.118   3.302  11.698
30554W        W 2979  35.691  32.445  12.892
30555W        W 2980  33.045   9.960  10.714
30556W        W 2981  18.972  35.326  13.044
30557W        W 2982   8.272  32.895  11.083
30558W        W 2983  13.640  41.417   2.356
30559W        W 2984  21.102  39.067  11.494
30560W        W 2985   4.940  21.649   2.704
30561W        W 2986  18.808  25.213   2.108
30562W        W 2987  43.027  35.899  13.965
30563W        W 2988  34.366   6.365   0.392
30564W        W 2989  24.854  15.882  14.622
30565W        W 2990  38.264  39.800   4.506
30566W        W 2991  38.834  27.529  12.640
30567W        W 2992  27.199  41.551   1.946
30568W        W 2993  43.710  33.942  12.964
30569W        W 2994  14.597  41.956   0.958
30570W        W 2995  37.267  35.932  13.505
30571W        W 2996  37.614  10.414  12.913
30572W        W 2997  33.069  28.073   1.861
30573W        W 2998  31.469  29.185  11.714
30574W        W 2999  32.906  13.948  11.477
30575W        W 3000  14.082  39.379   2.143
30576W        W 3001  28.162  33.931   0.456
30577W        W 3002  15.004   1.399  13.960
30578W        W 3003   3.013  38.130  12.774
30579W        W 3004  22.891  21.584  13.829
30580W        W 3005  43.424  37.427  13.413
30581W        W 3006   5.270  22.782   0.857
30582W        W 3007   3.747  23.162  14.903
30583W        W 3008  23.186  11.404   5.510
30584W        W 3009  22.303  38.831   1.777
30585W        W 3010  10.633  23.399  12.798
30586W        W 3011  35.870   5.123  11.187
30587W        W 3012  24.490  28.959   2.913
30588W        W 3013  30.163  44.335   0.946
30589W        W 3014   1.958  20.059   1.726
30590W        W 3015  21.119  10.522   5.092
30591W        W 3016   6.965  43.436  10.583
30592W        W 3017  44.203   8.899   0.731
30593W        W 3018  14.690  38.684   3.987
30594W        W 3019  30.548  39.444  14.734
30595W        W 3020   4.853  30.802   2.244
30596W        W 3021  36.136  44.294  12.035
30597W        W 3022   0.905   9.405  13.132
30598W        W 3023  35.850  24.530   1.791
30599W        W 3024  20.074  43.898   2.776
30600W        W 3025  24.055  28.853  10.892
30601W        W 3026   6.634   5.403   4.024
30602W        W 3027  22.677  29.893  12.859
30603W        W 3028   1.527  31.037   0.333
30604W        W 3029  27.436  18.996  14.020
30605W        W 3030  38.984  41.929   4.548
30606W        W 3031   2.688  32.048  12.090
30607W        W 3032  30.263  44.802  11.159
30608W        W 3033   9.398   6.284   2.141
30609W        W 3034  38.001  26.966  14.087
30610W        W 3035  24.610  36.902  14.320
30611W        W 3036  36.103  17.503   2.160
30612W        W 3037  28.027  44.083   0.289
30613W        W 3038  42.560  39.639   3.260
30614W        W 3039  36.778  42.712   0.917
30615W        W 3040  28.537  28.728   2.688
30616W        W 3041  10.328  41.778   1.844
30617W        W 3042   7.009  22.046   0.956
30618W        W 3043   6.885  29.550  11.480
30619W        W 3044  27.580  24.078   4.724
30620W        W 3045  38.925  22.397   2.819
30621W        W 3046   6.500  15.631  11.268
30622W        W 3047  35.057  35.125   4.100
30623W        W 3048  16.355  33.256  11.052
30624W        W 3049  27.038  12.924  14.499
30625W        W 3050  34.843   4.796  14.397
30626W        W 3051   9.493  16.350  13.300
30627W        W 3052  43.976  10.874  10.654
30628W        W 3053  35.530  41.057   1.442
30629W        W 3054  42.412  11.259  11.561
30630W        W 3055   3.220   8.992  11.415
30631W        W 3056  26.029  18.138   4.069
30632W        W 3057  43.950  18.279   1.470
30633W        W 3058   2.174  32.489  12.464
30634W        W 3059  24.468  40.545   2.178
30635W        W 3060  44.499  25.465   1.606
30636W        W 3061  33.054  27.648  14.389
30637W        W 3062  23.985   9.101  13.798
30638W        W 3063   6.697  22.014  11.659
30639W        W 3064   1.438  21.219   4.047
30640W        W 3065  42.123  13.558   1.449
30641W        W 3066  24.445   6.729  14.758
30642W        W 3067  40.537  11.185  11.568
30643W        W 3068   2.494   6.392  12.564
30644W        W 3069  18.222  30.496   4.732
30645W        W 3070  33.831   4.819  11.928
30646W        W 3071  12.941   0.699   3.927
30647W        W 3072   3.796  13.092   4.920
30648W        W 3073  36.811  13.948   0.929
30649W        W 3074   0.189  23.006  11.517
30650W        W 3075  35.219   1.892   2.680
30651W        W 3076   4.934  29.127  14.709
30652W        W 3077  20.509  33.129  13.074
30653W        W 3078  39.558   6.789  12.351
30654W        W 3079  32.492  30.139  14.741
30655W        W 3080  26.028  29.411   2.353
30656W        W 3081  29.201  25.550   0.491
30657W        W 3082  36.093  31.864  14.334
30658W        W 3083  13.992  14.090  11.912
30659W        W 3084   7.847  37.038   4.580
30660W        W 3085   1.217  25.614  12.426
30661W        W 3086  36.393  41.805   2.711
30662W        W 3087  23.110  36.650   4.170
30663W        W 3088  16.098  36.240   0.251
30664W        W 3089  41.550   5.212   2.337
30665W        W 3090  21.167  17.971  13.877
30666W        W 3091   9.839  35.845  10.391
30667W        W 3092  29.660  38.468   3.931
30668W        W 3093  33.177   5.384   0.829
30669W        W 3094   2.135   3.840  10.440
30670W        W 3095  42.745  29.523   1.249
30671W        W 3096  21.853  31.888  12.610
30672W        W 3097  29.014  27.055   1.942
30673W        W 3098  17.093  13.318  12.116
30674W        W 3099  44.243  44.127  10.675
30675W        W 3100  37.686  22.627  12.070
30676W        W 3101  14.751  24.688  11.975
30677W        W 3102   7.309   4.300   4.141
30678W        W 3103  29.017  33.895  10.758
30679W        W 3104  29.666  30.341   0.862
30680W        W 3105   3.166  33.646   3.660
30681W        W 3106   0.402  34.716   4.945
30682W        W 3107  10.162  36.045   1.717
30683W        W 3108  40.126  32.903   3.093
30684W        W 3109  22.702   7.529  14.141
30685W        W 3110   2.509  25.767  12.097
30686W        W 3111  15.852  17.056   5.094
30687W        W 3112  23.239  19.706  13.038
30688W        W 3113  29.980   1.348  11.387
30689W        W 3114  35.653   5.759   0.531
30690W        W 3115  43.245  38.993  13.737
30691W        W 3116   0.811  16.118  11.072
30692W        W 3117  31.051   5.814   4.316
30693W        W 3118  12.723  42.366   1.946
30694W        W 3119  28.049   1.659  11.691
30695W        W 3120   6.769  28.880   3.029
30696W        W 3121  40.088  31.679   3.815
30697W        W 3122  16.990  20.460   1.515
30698W        W 3123  35.819   6.882   3.637
30699W        W 3124  30.235  26.497   3.702
30700W        W 3125  25.226  26.377  10.696
30701W        W 3126   6.082  28.886   4.724
30702W        W 3127   0.020   8.199  14.343
30703W        W 3128  30.502  40.461   3.709
30704W        W 3129  10.903   4.593  13.405
30705W        W 3130   8.769  43.768  14.924
30706W        W 3131  26.605   0.437  11.581
30707W        W 3132   4.735  34.813  12.040
30708W        W 3133  38.954  35.997   3.573
30709W        W 3134   0.459  24.681   1.890
30710W        W 3135  21.063  33.550   4.545
30711W        W 3136  39.368  16.175   3.776
30712W        W 3137  14.873  11.031  12.499
30713W        W 3138  26.588  23.194   2.427
30714W        W 3139   7.776  19.857  13.903
30715W        W 3140  35.364  33.434   4.164
30716W        W 3141  18.622  18.228   1.384
30717W        W 3142  24.534  11.603  13.011
30718W        W 3143   2.310  23.671  12.450
30719W        W 3144  37.440  14.213  11.947
30720W        W 3145  29.115  22.621  12.217
30721W        W 3146  19.460  23.611   4.589
30722W        W 3147  36.722  19.167   0.668
30723W        W 3148  35.142  33.133   0.321
30724W        W 3149  29.641  21.135  14.055
30725W        W 3150  33.994  36.838   0.449
30726W        W 3151  33.384   0.823   1.390
30727W        W 3152   8.469  18.530   3.220
30728W        W 3153  43.663  23.289   4.159
30729W        W 3154  19.180  36.920  13.376
30730W        W 3155  21.984   3.718  13.381
30731W        W 3156  13.109  26.912  11.820
30732W        W 3157  27.248  37.830   4.962
30733W        W 3158  11.308  10.090  14.952
30734W        W 3159  42.433   0.314  10.671
30735W        W 3160  31.822  26.001  12.601
30736W        W 3161  34.458  22.991  11.978
30737W        W 3162  23.573   3.381   0.494
30738W        W 3163  41.203  40.442   3.600
30739W        W 3164   3.957  35.563   4.620
30740W        W 3165  41.558  32.559  14.961
30741W        W 3166  39.582  10.738   2.767
30742W        W 3167   1.886  42.518   2.845
30743W        W 3168  10.034  12.226  10.777
30744W        W 3169  36.566  44.331  12.924
30745W        W 3170   5.805  13.260  14.354
30746W        W 3171  39.761   3.733  14.243
30747W        W 3172  16.669   8.949  12.091
30748W        W 3173  25.931   6.713  13.335
30749W        W 3174  32.447   2.953  10.695
30750W        W 3175  15.470   4.858   0.271
30751W        W 3176  38.471   4.956  13.908
30752W        W 3177   5.418  27.506  14.305
30753W        W 3178   1.783  44.996   1.718
30754W        W 3179  11.298   3.936   3.222
30755W        W 3180   6.394  35.795   3.668
30756W        W 3181   5.354  33.833   2.423
30757W        W 3182  15.150  44.422  10.770
30758W        W 3183  37.879   6.280   3.016
30759W        W 3184   0.245   9.667   4.232
30760W        W 3185  16.508  19.227   1.296
30761W        W 3186  38.867   5.881  12.746
30762W        W 3187  34.661  36.310   0.739
30763W        W 3188  41.577  14.305  11.191
30764W        W 3189  24.723  27.950   3.299
30765W        W 3190  36.145   0.909   0.414
30766W        W 3191  22.522  17.121  11.148
30767W        W 3192  21.580   3.243  10.758
30768W        W 3193   4.584   4.827   1.290
30769W        W 3194  24.360   7.764   1.907
30770W        W 3195  22.185  41.992  12.607
30771W        W 3196  35.087  35.839  12.012
30772W        W 3197  20.717   9.067  12.942
30773W        W 3198  34.782  32.915   1.140
30774W        W 3199  25.441  44.402   1.330
30775W        W 3200  41.896  43.219   2.925
30776W        W 3201  38.770  39.457  13.383
30777W        W 3202   4.332   8.258  13.268
30778W        W 3203   9.671  21.857  13.657
30779W        W 3204  28.976  39.704  13.025
30780W        W 3205  35.895   0.820  11.089
30781W        W 3206  16.767  19.071  13.404
30782W        W 3207  25.075  23.017   1.133
30783W        W 3208  11.277  35.539  11.082
30784W        W 3209  29.712   8.022   2.670
30785W        W 3210   3.475  32.297  12.093
30786W        W 3211  18.863  39.503   2.468
30787W        W 3212  34.965  41.924   1.195
30788W        W 3213   4.785  16.878  11.403
30789W        W 3214  17.661  10.727   0.766
30790W        W 3215  36.885  23.219   2.927
30791W        W 3216   4.181  27.041  13.368
30792W        W 3217  34.398  28.683  10.656
30793W        W 3218  19.914  30.632  11.250
30794W        W 3219  26.712  24.669   2.906
30795W        W 3220  13.667  43.542  13.531
30796W        W 3221  10.246  10.534  14.706
30797W        W 3222  25.603   4.698   9.976
30798W        W 3223   6.665  10.725  12.059
30799W        W 3224  32.371  32.909  11.629
30800W        W 3225  39.182   8.332  13.045
30801W        W 3226   1.805   9.802   3.718
30802W        W 3227  41.651   0.718   2.905
30803W        W 3228  21.832   2.967  11.194
30804W        W 3229  14.186   0.894  10.942
30805W        W 3230  40.324  35.987   4.019
30806W        W 3231  28.651  19.570   3.127
30807W        W 3232  17.640  15.692   4.517
30808W        W 3233  39.930  12.281   0.955
30809W        W 3234  11.356  16.338  12.719
30810W        W 3235   6.551  29.479   4.329
30811W        W 3236  24.646  11.710   1.674
30812W        W 3237   9.273  11.869   4.098
30813W        W 3238  18.110   8.685   4.386
30814W        W 3239   9.297  11.772  13.112
30815W        W 3240  11.380  17.728   3.914
30816W        W 3241  42.027   7.496   4.841
30817W        W 3242  32.025  13.734  13.339
30818W        W 3243  28.331  23.296   1.873
30819W        W 3244   8.648   1.501  11.849
30820W        W 3245  29.129  20.905   9.794
30821W        W 3246  31.288  40.425   4.584
30822W        W 3247  40.774  30.528  12.890
30823W        W 3248  43.692  20.642   2.455
30824W        W 3249  24.605  32.708  14.207
30825W        W 3250  36.174  13.160  13.330
30826W        W 3251  13.306  41.738   0.369
30827W        W 3252  29.321  31.135   3.328
30828W        W 3253  11.661  23.338  11.415
30829W        W 3254   2.864  26.560   4.282
30830W        W 3255  13.761  43.307   3.416
30831W        W 3256   9.712  28.425   4.896
30832W        W 3257  37.671   3.787  11.608
30833W        W 3258  23.134  41.916   4.640
30834W        W 3259  32.519  19.453  13.396
30835W        W 3260  13.835   8.940   3.225
30836W        W 3261   6.290   3.997   2.892
30837W        W 3262   2.285  22.042   2.758
30838W        W 3263  40.881  42.750   3.209
30839W        W 3264   6.296  12.675   0.678
30840W        W 3265  31.189  43.306  12.940
30841W        W 3266   7.907  19.746  10.688
30842W        W 3267  13.628  21.069  14.746
30843W        W 3268  21.185  27.974  11.648
30844W        W 3269  32.668  14.658   3.362
30845W        W 3270  37.102  43.883   1.182
30846W        W 3271  23.075  27.182  11.463
30847W        W 3272   4.870  11.832  12.855
30848W        W 3273  28.503   0.748  10.746
30849W        W 3274  11.886   1.901   0.400
30850W        W 3275  10.352   7.088  12.378
30851W        W 3276  25.396  18.559   3.388
30852W        W 3277   6.700  28.154  13.675
30853W        W 3278  15.464   5.951  11.820
30854W        W 3279   7.208  42.403   1.279
30855W        W 3280   0.945  43.265   1.651
30856W        W 3281  20.647  38.012   4.548
30857W        W 3282  35.507   6.227   1.632
30858W        W 3283  21.518  35.031   4.133
30859W        W 3284  21.482  41.503   3.662
30860W        W 3285  19.763   5.280   2.661
30861W        W 3286  17.198  16.714   4.853
30862W        W 3287  24.588   6.203  11.663
30863W        W 3288  23.511  20.619   2.715
30864W        W 3289  32.138  22.688  14.340
30865W        W 3290  39.333  11.750   2.202
30866W        W 3291  20.606  29.857   0.220
30867W        W 3292  11.448   7.293   1.383
30868W        W 3293  27.567   8.690   0.873
30869W        W 3294  33.572  35.609  14.945
30870W        W 3295   9.283  42.169   1.846
30871W        W 3296  26.921  44.566   0.749
30872W        W 3297   0.429  25.788   3.857
30873W        W 3298   2.849  36.516   4.187
30874W        W 3299  15.734  31.629   3.744
30875W        W 3300  24.792  29.551  13.119
30876W        W 3301   8.217  11.884   0.933
30877W        W 3302  35.177   6.264   0.811
30878W        W 3303   9.493  26.157  11.520
30879W        W 3304  32.489  14.731   1.738
30880W        W 3305  43.195  32.934  14.379
30881W        W 3306  29.360  29.502  10.762
30882W        W 3307   0.289  27.148  13.879
30883W        W 3308  21.524  41.237  12.937
30884W        W 3309   9.153  17.803  12.519
30885W        W 3310  10.111   7.743  11.135
30886W        W 3311  15.577  34.201   0.797
30887W        W 3312  38.171   6.697  11.003
30888W        W 3313  43.545   0.440  11.552
30889W        W 3314  35.379  18.297  11.318
30890W        W 3315  26.662  13.972   3.673
30891W        W 3316  31.558   4.550  11.635
30892W        W 3317  13.802   0.433   0.459
30893W        W 3318   9.929  37.531  14.763
30894W        W 3319  34.695  15.945  11.120
30895W        W 3320  16.568  30.886   1.304
30896W        W 3321  39.438  10.914  11.905
30897W        W 3322   7.838  43.244  10.813
30898W        W 3323  40.284   6.218  14.257
30899W        W 3324   8.174   6.128  14.957
30900W        W 3325  39.839  22.045  12.456
30901W        W 3326  26.968  28.586  11.161
30902W        W 3327  39.455   5.255  14.165
30903W        W 3328   0.563  11.163  10.802
30904W        W 3329  21.346  30.126  11.133
30905W        W 3330  31.463   8.671   3.113
30906W        W 3331  18.166  24.188  11.923
30907W        W 3332  23.660  41.366   4.795
30908W        W 3333  40.398  41.486  14.505
30909W        W 3334  22.280  14.735   2.398
30910W        W 3335  35.380   4.321  14.901
30911W        W 3336   4.800  43.524   3.198
30912W        W 3337  32.640   7.203  11.484
30913W        W 3338  36.700  28.711   3.657
30914W        W 3339  13.658  42.432   3.944
30915W        W 3340  20.626  13.096  10.581
30916W        W 3341  21.650   3.187   0.815
30917W        W 3342  27.948  10.756  10.966
30918W        W 3343  43.813  21.610   3.846
30919W        W 3344  17.195   6.390   1.765
30920W        W 3345   1.777  36.601   1.190
30921W        W 3346  23.624  24.078   1.018
30922W        W 3347  41.984  24.245   1.798
30923W        W 3348   0.827   4.737  12.077
30924W        W 3349  27.820  34.204   1.752
30925W        W 3350  19.436  10.332  12.180
30926W        W 3351  13.212   2.043  12.085
30927W        W 3352   4.835   8.378   0.294
30928W        W 3353   4.823  42.016  13.510
30929W        W 3354  29.762  34.234   4.550
30930W        W 3355  43.509  40.129   4.312
30931W        W 3356   5.100  44.202  11.541
30932W        W 3357  26.121  26.778  13.901
30933W        W 3358  25.972  16.367  12.000
30934W        W 3359  30.469  12.178   0.723
30935W        W 3360  34.054  30.088   2.425
30936W        W 3361  14.374  36.935  12.887
30937W        W 3362  20.094  14.770   4.123
30938W        W 3363  26.463   6.371  10.663
30939W        W 3364  18.439   1.183   3.558
30940W        W 3365  29.140   3.139  13.401
30941W        W 3366  14.680  11.294  12.058
30942W        W 3367  24.129  39.495   3.196
30943W        W 3368   0.033   2.666  13.360
30944W        W 3369  13.813  24.228  14.031
30945W        W 3370   3.840   0.013  12.543
30946W        W 3371  36.977   3.895   4.810
30947W        W 3372  31.672   5.316   0.934
30948W        W 3373  31.158  36.593  13.087
30949W        W 3374  37.906  37.023  14.404
30950W        W 3375  28.528  42.851  11.492
30951W        W 3376  24.646  30.975   3.840
30952W        W 3377  33.427  32.328   3.219
30953W        W 3378  42.905  39.377  11.175
30954W        W 3379  44.354   7.468  12.464
30955W        W 3380   8.204   0.494   1.234
30956W        W 3381   3.715  20.619   3.387
30957W        W 3382  14.143  38.081  13.225
30958W        W 3383   2.387  33.388   2.745
30959W        W 3384   1.336  32.473   5.002
30960W        W 3385  19.844  30.395   4.113
30961W        W 3386  30.714   7.257   4.204
30962W        W 3387   7.446  41.485   3.411
30963W        W 3388  28.506  44.769   4.912
30964W        W 3389  41.035  42.259  12.850
30965W        W 3390  18.332  40.354  10.683
30966W        W 3391   9.802  20.159   0.025
30967W        W 3392  41.921  33.001  12.956
30968W        W 3393  34.518  30.727   0.281
30969W        W 3394  43.047  20.384  10.902
30970W        W 3395  15.133  33.115  13.573
30971W        W 3396   5.180  13.812   0.442
30972W        W 3397   7.482  43.411  10.477
30973W        W 3398  42.482  33.926   3.793
30974W        W 3399  33.654  16.106   2.778
30975W        W 3400  11.508   4.653  11.167
30976W        W 3401   1.948  26.830   2.401
30977W        W 3402  26.065  18.787  13.284
30978W        W 3403  25.421   3.967  11.189
30979W        W 3404   3.773  27.634   3.300
30980W        W 3405   7.335  38.963   0.741
30981W        W 3406  23.007  14.657  12.194
30982W        W 3407  17.152  42.775   1.516
30983W        W 3408  31.101  40.465  14.766
30984W        W 3409   2.981   9.229  10.485
30985W        W 3410  40.616  40.443   1.681
30986W        W 3411  13.230  15.706  10.095
30987W        W 3412  33.417  35.833   1.449
30988W        W 3413  37.614   6.705  14.040
30989W        W 3414  20.670  10.761  12.375
30990W        W 3415  43.509  36.558  10.897
30991W        W 3416  13.023  27.679  13.616
30992W        W 3417   2.067  12.214   1.682
30993W        W 3418  14.068  10.707   2.634
30994W        W 3419  44.444  18.993   2.328
30995W        W 3420  22.736  33.553  13.118
30996W        W 3421  25.535  16.475   2.225
30997W        W 3422  23.773  20.734   3.160
30998W        W 3423  20.781  25.151   4.026
30999W        W 3424  11.710  39.388  10.523
31000W        W 3425   7.731   1.382   3.258
31001W        W 3426  18.098  38.874   1.361
31002W        W 3427  41.317  16.548  11.968
31003W        W 3428  13.116  29.321   3.243
31004W        W 3429  16.331   6.842  10.511
31005W        W 3430  41.011  31.448   1.426
31006W        W 3431  36.592   7.300   4.752
31007W        W 3432  27.017  43.992   2.803
31008W        W 3433   0.388  24.173   2.829
31009W        W 3434  28.968  42.524   0.613
31010W        W 3435  14.287  13.127   2.370
31011W        W 3436   6.513   9.779  11.098
31012W        W 3437   3.491  37.122  11.144
31013W        W 3438   5.283  19.668  10.705
31014W        W 3439  21.601   0.494   2.801
31015W        W 3440   6.885   8.164   0.298
31016W        W 3441   9.949  28.589   0.425
31017W        W 3442  11.667   1.346  10.911
31018W        W 3443  33.879  10.260  11.547
31019W        W 3444   1.204   0.892  13.045
31020W        W 3445  34.107  27.206  14.758
31021W        W 3446   5.681  15.387   4.260
31022W        W 3447   3.527  10.818   1.198
31023W        W 3448  12.714  30.109  12.326
31024W        W 3449  27.397   1.904   3.917
31025W        W 3450   5.134   2.747   1.899
31026W        W 3451   0.751  18.201  13.349
31027W        W 3452  38.114   4.995  14.778
31028W        W 3453  42.351  40.722  13.803
31029W        W 3454  30.922   6.361   1.836
31030W        W 3455  26.500  15.086   4.878
31031W        W 3456   6.292  18.772   2.810
31032W        W 3457  15.396  22.673  13.692
31033W        W 3458  12.911  34.445   1.262
31034W        W 3459   5.368   4.288  11.529
31035W        W 3460  43.773  18.165  12.643
31036W        W 3461  24.437   0.316  13.908
31037W        W 3462  37.744  24.508   2.719
31038W        W 3463  38.353  18.313  14.855
31039W        W 3464  41.441  44.179  12.001
31040W        W 3465  40.957   3.555   3.136
31041W        W 3466   9.427   6.764   1.936
31042W        W 3467  37.306  17.330   2.725
31043W        W 3468  43.870  18.641  13.930
31044W        W 3469  18.481  29.647  13.581
31045W        W 3470   5.368  42.459   2.954
31046W        W 3471  22.756  44.654   3.336
31047W        W 3472  44.562   4.255  12.851
31048W        W 3473  42.032  23.054  14.898
31049W        W 3474  32.707  36.673   3.280
31050W        W 3475  42.967  22.262   3.527
31051W        W 3476  31.895  28.576   3.109
31052W        W 3477  26.018  26.656  11.367
31053W        W 3478  36.853   6.870  12.882
31054W        W 3479   6.786  34.007   3.168
31055W        W 3480  36.950  43.377  13.033
31056W        W 3481   6.826  31.375  13.084
31057W        W 3482  38.935  44.850  11.066
31058W        W 3483   8.074   8.295  11.031
31059W        W 3484   0.351   9.354   3.045
31060W        W 3485  32.660  40.797   3.333
31061W        W 3486  31.168   4.817  14.425
31062W        W 3487  28.926  34.463   4.557
31063W        W 3488  27.765  25.642  12.447
31064W        W 3489  13.873  11.228  14.668
31065W        W 3490  44.434  16.869   1.762
31066W        W 3491  18.503  38.874  14.194
31067W        W 3492   2.325  38.355   3.606
31068W        W 3493  19.830  38.550  11.227
31069W        W 3494   7.497  38.979   3.712
31070W        W 3495  38.471  23.135   3.796
31071W        W 3496   6.821  23.929   1.052
31072W        W 3497  23.980   0.872   1.325
31073W        W 3498  25.702   5.410   1.057
31074W        W 3499  43.699  32.298  12.449
31075W        W 3500  34.434  18.838  14.587
31076W        W 3501  20.201  41.470  10.644
31077W        W 3502  23.811  35.766  11.900
31078W        W 3503   9.222  43.692   0.198
31079W        W 3504  18.173  44.231  10.077
31080W        W 3505  18.246  30.159   3.560
31081W        W 3506  36.257  30.002   4.714
31082W        W 3507  20.994  22.933   5.527
31083W        W 3508  16.879  34.569   2.652
31084W        W 3509   0.943   1.984   3.329
31085W        W 3510  32.443  10.661  12.377
31086W        W 3511   0.012  42.007   0.261
31087W        W 3512  31.549  17.767  11.966
31088W        W 3513   6.350  12.555  14.239
31089W        W 3514  13.277   5.897  13.415
31090W        W 3515  24.912  33.971   0.984
31091W        W 3516   9.363  12.741   0.703
31092W        W 3517  25.611  44.607   2.631
31093W        W 3518  12.600  42.914  13.027
31094W        W 3519  23.023  14.555  13.711
31095W        W 3520  38.639  25.322   9.834
31096W        W 3521  43.192   6.475  13.460
31097W        W 3522   3.748   1.355   0.392
31098W        W 3523  22.299  43.864   1.207
31099W        W 3524  19.257   0.367   2.826
31100W        W 3525   8.365  23.782  14.846
31101W        W 3526   7.672  19.272  10.671
31102W        W 3527  24.731  24.528  10.501
31103W        W 3528  44.275  24.456  13.915
31104W        W 3529   8.954  38.998  10.822
31105W        W 3530  26.105   0.941  12.085
31106W        W 3531  29.554  35.047  13.941
31107W        W 3532   6.492  22.323  14.718
31108W        W 3533  12.791   1.890   0.776
31109W        W 3534  30.546   6.425  11.491
31110W        W 3535  14.347  14.010   2.998
31111W        W 3536   9.730  44.758  14.374
31112W        W 3537  19.835  30.450   1.228
31113W        W 3538  44.716  25.218   0.437
31114W        W 3539   3.741   3.429   0.281
31115W        W 3540  42.111  17.120  11.315
31116W        W 3541  19.697   2.438   3.183
31117W        W 3542  21.544  17.218  11.551
31118W        W 3543  39.977   4.861   4.610
31119W        W 3544  34.460   1.916   1.334
31120W        W 3545  43.551  32.789   4.227
31121W        W 3546  37.460  19.776  12.422
31122W        W 3547   7.468  11.624   3.224
31123W        W 3548  42.362  32.460   0.024
31124W        W 3549  30.198   8.145   2.866
31125W        W 3550  30.826  35.654   3.861
31126W        W 3551  42.586  35.057  14.832
31127W        W 3552  24.509  33.325   3.751
31128W        W 3553  44.327  12.365  10.692
31129W        W 3554  38.094  23.723   4.905
31130W        W 3555  43.367  12.366   3.770
31131W        W 3556   0.076  35.031   9.881
31132W        W 3557  40.796   9.406   0.228
31133W        W 3558  36.877  16.786  14.783
31134W        W 3559  22.203  16.750   3.679
31135W        W 3560  19.836   0.164   3.786
31136W        W 3561  30.385   9.181  14.448
31137W        W 3562  23.512  10.717   0.884
31138W        W 3563  14.782  30.673  14.319
31139W        W 3564  15.119  25.427   4.811
31140W        W 3565  12.939  32.425   4.866
31141W        W 3566  35.878  33.461   2.279
31142W        W 3567   4.977  42.351   2.176
31143W        W 3568  22.588   8.542   2.021
31144W        W 3569  35.123  11.798   2.634
31145W        W 3570  31.532  40.338  13.825
31146W        W 3571   6.441  24.358  12.889
31147W        W 3572  21.974  31.658   2.147
31148W        W 3573  11.071  17.363  12.142
31149W        W 3574  37.631  34.201   3.599
31150W        W 3575  15.120   0.180  12.600
31151W        W 3576  24.719   3.739   0.272
31152W        W 3577  10.142  10.047   1.112
31153W        W 3578   2.670   7.075   4.209
31154W        W 3579  17.310  23.299   1.665
31155W        W 3580   4.494  17.326   1.689
31156W        W 3581  20.199   4.118  12.143
31157W        W 3582  13.547  22.926   0.497
31158W        W 3583  39.780  43.059   1.177
31159W        W 3584  21.079  26.637   2.593
31160W        W 3585   5.222  30.357   1.016
31161W        W 3586  16.285  13.369  10.768
31162W        W 3587   6.481  19.662   3.257
31163W        W 3588   1.875  12.541  12.355
31164W        W 3589  13.168   8.886   1.334
31165W        W 3590  31.778   8.784  13.412
31166W        W 3591   4.971  16.573  14.049
31167W        W 3592  20.169   6.196  13.019
31168W        W 3593  26.096  42.798   0.788
31169W        W 3594   2.710   8.519  11.078
31170W        W 3595  13.075  39.969   4.579
31171W        W 3596  19.649  28.101   1.435
31172W        W 3597  33.233   9.572  13.569
31173W        W 3598  31.029  13.097   1.315
31174W        W 3599   3.822  44.721   3.633
31175W        W 3600  29.616   2.926  10.495
31176W        W 3601   9.831   7.413  13.759
31177W        W 3602  23.174  24.002  10.579
31178W        W 3603  12.160  43.197   1.160
31179W        W 3604  18.584  29.439  10.556
31180W        W 3605  15.427  35.487  12.331
31181W        W 3606  14.820  14.169   3.215
31182W        W 3607  18.463  36.245  14.509
31183W        W 3608  37.271   7.467  12.376
31184W        W 3609  35.218   2.723  14.878
31185W        W 3610  21.140  22.548   2.597
31186W        W 3611   5.702   9.873   1.822
31187W        W 3612  13.745  34.819  14.560
31188W        W 3613   0.703  35.378   0.764
31189W        W 3614  21.386  17.117  13.023
31190W        W 3615   8.691  21.072  14.416
31191W        W 3616  29.811   3.767   2.042
31192W        W 3617  23.283  25.950   1.178
31193W        W 3618   2.012  12.748  11.021
31194W        W 3619  33.621   8.181   4.040
31195W        W 3620  29.686   4.356   1.254
31196W        W 3621  39.316   2.002   1.883
31197W        W 3622  28.255   2.920   3.536
31198W        W 3623  40.038  12.273   3.210
31199W        W 3624   1.724  41.410   2.750
31200W        W 3625  26.430  26.922  11.545
31201W        W 3626   2.422  37.550   4.697
31202W        W 3627  31.500  16.739  13.560
31203W        W 3628  43.348  34.567  12.392
31204W        W 3629  19.983  22.599  10.320
31205W        W 3630  42.075  43.388   0.897
31206W        W 3631   4.471  11.264  10.396
31207W        W 3632  23.387  39.014  13.426
31208W        W 3633  13.081  39.357  10.445
31209W        W 3634  43.497  19.609   9.774
31210W        W 3635  20.508  39.400  14.899
31211W        W 3636  35.967   3.105  11.083
31212W        W 3637  37.269   4.313   1.845
31213W        W 3638   7.623  43.838   4.894
31214W        W 3639  33.055  21.065   4.094
31215W        W 3640   0.643  39.501  11.047
31216W        W 3641  33.483   1.712   1.160
31217W        W 3642  44.430   1.324   3.495
31218W        W 3643   4.851  31.921  14.540
31219W        W 3644   5.103   8.760  13.283
31220W        W 3645  21.568  17.829   0.854
31221W        W 3646   5.228  33.221  14.074
31222W        W 3647  43.535  25.249   1.328
31223W        W 3648  28.650  23.655   0.315
31224W        W 3649  35.004  13.377   2.413
31225W        W 3650  17.750  37.472   2.194
31226W        W 3651  43.778  15.608   1.669
31227W        W 3652  18.062  19.026   4.672
31228W        W 3653  20.438  36.571  12.915
31229W        W 3654   8.341   7.410  11.626
31230W        W 3655   4.556   1.355  12.882
31231W        W 3656   2.156  43.379   5.072
31232W        W 3657  23.426  35.857  13.986
31233W        W 3658  31.115   4.881  11.962
31234W        W 3659   0.394  42.391   3.739
31235W        W 3660  22.759  32.842   0.413
31236W        W 3661  17.679  32.363   0.280
31237W        W 3662  12.297  26.071   3.695
31238W        W 3663  31.424  13.663  10.682
31239W        W 3664   5.245  21.619  10.686
31240W        W 3665  26.360  21.501   2.660
31241W        W 3666  10.263  12.718   4.037
31242W        W 3667  21.748  35.069  11.601
31243W        W 3668  42.817  25.089  12.824
31244W        W 3669  13.174  18.287  12.643
31245W        W 3670  14.698  31.550  11.178
31246W        W 3671   6.881   7.189   3.415
31247W        W 3672  40.613  18.509  12.018
31248W        W 3673  40.681  39.876   3.313
31249W        W 3674  35.385  14.902  11.338
31250W        W 3675   2.394   6.638   1.314
31251W        W 3676  10.644  20.731   4.548
31252W        W 3677  15.100   7.362  13.950
31253W        W 3678   7.243   1.576  10.695
31254W        W 3679  35.650  31.551  11.892
31255W        W 3680  18.205  33.128   9.800
31256W        W 3681  34.143  44.511   4.477
31257W        W 3682   6.441  39.474  12.393
31258W        W 3683  34.266  23.423  14.419
31259W        W 3684  44.947   3.005   2.692
31260W        W 3685  20.998  35.512   2.120
31261W        W 3686  40.117  37.713  13.897
31262W        W 3687  17.378  20.248   1.277
31263W        W 3688   5.357  37.634  10.333
31264W        W 3689  16.642  12.305   2.008
31265W        W 3690  25.016  20.278  12.989
31266W        W 3691  19.957   8.816  12.666
31267W        W 3692  17.214   7.742   4.790
31268W        W 3693   7.338  26.742  12.369
31269W        W 3694  38.973  27.072  11.487
31270W        W 3695  14.112  34.897  11.394
31271W        W 3696  13.152  20.409   1.294
31272W        W 3697  18.217   2.740   2.794
31273W        W 3698   4.641  14.708   2.285
31274W        W 3699  30.650  43.878   4.091
31275W        W 3700   3.484  38.136   2.172
31276W        W 3701  23.003  27.683  11.597
31277W        W 3702  29.700  12.072   1.416
31278W        W 3703  11.042  22.601   9.915
31279W        W 3704  37.545  33.600  11.609
31280W        W 3705  23.603  44.862   4.586
31281W        W 3706  44.309   9.346   0.967
31282W        W 3707   8.423  35.031   2.609
31283W        W 3708  33.361  33.476   2.317
31284W        W 3709  41.483  27.759   2.271
31285W        W 3710  10.265  42.781  13.849
31286W        W 3711  11.421  36.441  12.788
31287W        W 3712  28.887  23.125   1.054
31288W        W 3713   2.466  14.300  11.581
31289W        W 3714  11.261   9.460  12.037
31290W        W 3715  23.535  37.182  12.351
31291W        W 3716  13.569  42.619  13.674
31292W        W 3717  25.129  44.394   2.783
31293W        W 3718  27.289   7.956   4.097
31294W        W 3719   1.022  18.782   3.351
31295W        W 3720   0.318  42.898  11.447
31296W        W 3721  28.502   3.507  10.367
31297W        W 3722  20.178  17.002  11.467
31298W        W 3723  13.402  38.829  12.355
31299W        W 3724   9.871  25.765  10.551
31300W        W 3725  33.358  19.687  14.931
31301W        W 3726  40.001   9.893  12.758
31302W        W 3727  31.475  13.884  11.606
31303W        W 3728  18.107   7.884   5.005
31304W        W 3729  31.545  39.808  12.081
31305W        W 3730  36.383  43.708  13.462
31306W        W 3731  13.831   8.204  13.300
31307W        W 3732   9.389  37.080  10.752
31308W        W 3733  27.920  42.298   1.841
31309W        W 3734  27.694   4.390  12.906
31310W        W 3735   6.267   2.713  12.419
31311W        W 3736  34.629  24.137  10.467
31312W        W 3737  25.769  25.370  11.190
31313W        W 3738  21.929   9.445  12.204
31314W        W 3739  36.010  30.530   2.652
31315W        W 3740  30.488  29.559  13.357
31316W        W 3741  13.260  42.769  14.557
31317W        W 3742  28.030  44.921   2.370
31318W        W 3743   5.876  24.043   3.847
31319W        W 3744  38.661  10.738   4.702
31320W        W 3745  35.371  33.234  11.073
31321W        W 3746   2.361  11.637  14.193
31322W        W 3747  37.811  39.581  11.195
31323W        W 3748  42.961  34.922   4.531
31324W        W 3749  17.767   9.606   0.422
31325W        W 3750  40.531  13.632  13.478
31326W        W 3751  24.045   5.299  12.496
31327W        W 3752  22.746  14.830  13.332
31328W        W 3753  24.978  12.154   2.249
31329W        W 3754   9.754  35.571   4.632
31330W        W 3755  39.585  24.170   1.182
31331W        W 3756  38.933   1.212  13.818
31332W        W 3757  22.146  43.535   2.416
31333W        W 3758  17.613  14.038   1.111
31334W        W 3759  21.007  35.509  11.554
31335W        W 3760  40.184  17.672  12.400
31336W        W 3761  16.383  11.285  13.927
31337W        W 3762   0.332  14.268  12.083
31338W        W 3763  22.504  17.562  10.389
31339W        W 3764  14.125  10.880  11.562
31340W        W 3765  41.906  19.684   3.114
31341W        W 3766  14.533  42.772  14.896
31342W        W 3767  43.002   9.722   2.068
31343W        W 3768  41.529  15.365   3.217
31344W        W 3769  17.491  17.207  14.323
31345W        W 3770  24.148   4.689   3.120
31346W        W 3771  12.639  21.191  11.393
31347W        W 3772   3.296  19.477  13.771
31348W        W 3773  18.090  42.933  14.314
31349W        W 3774   4.273  16.823   1.690
31350W        W 3775   9.776  36.020   4.131
31351W        W 3776  15.050  17.360  12.434
31352W        W 3777   0.910  21.471   4.675
31353W        W 3778  43.526   9.725  14.303
31354W        W 3779  21.580  28.426  13.786
31355W        W 3780  17.138  20.276   2.237
31356W        W 3781  41.337  13.198  14.437
31357W        W 3782  32.098  31.066  13.296
31358W        W 3783  11.350  38.549   2.657
31359W        W 3784   4.260  24.033   4.547
31360W        W 3785  44.652  30.304  11.959
31361W        W 3786  41.469  15.144  12.585
31362W        W 3787  10.115  21.549   1.774
31363W        W 3788  33.366   8.850   3.664
31364W        W 3789   3.331   0.700   2.150
31365W        W 3790  18.283  33.881   1.928
31366W        W 3791  22.496   6.722  12.106
31367W        W 3792  19.310  42.316  14.991
31368W        W 3793  30.629  17.123  14.863
31369W        W 3794  16.263  40.890  10.966
31370W        W 3795  39.323  20.595   3.974
31371W        W 3796   3.500  12.171   3.792
31372W        W 3797  24.542  44.523  11.592
31373W        W 3798   2.771  42.815  12.977
31374W        W 3799  34.153  13.872   2.420
31375W        W 3800  41.514  42.502  12.825
31376W        W 3801  17.307  39.060   3.199
31377W        W 3802   4.958  32.340   1.815
31378W        W 3803   4.886   3.958   4.565
31379W        W 3804  18.831  33.611   2.722
31380W        W 3805  15.580  29.838   2.591
31381W        W 3806  16.113  22.867  11.607
31382W        W 3807  28.108  12.866  13.964
31383W        W 3808  19.146  38.768   1.345
31384W        W 3809  35.543  39.913   4.571
31385W        W 3810   3.494  34.084   2.929
31386W        W 3811  20.791  24.668  10.727
31387W        W 3812   7.682  15.721  10.732
31388W        W 3813   4.740   7.625  10.154
31389W        W 3814  12.842  19.135  12.990
31390W        W 3815  22.094   0.282  11.558
31391W        W 3816   2.857  11.390  12.874
31392W        W 3817   7.200  14.305  12.163
31393W        W 3818   8.459   0.486  13.918
31394W        W 3819  39.536  36.506  14.548
31395W        W 3820   6.902  21.000  14.250
31396W        W 3821   0.942   6.609   1.213
31397W        W 3822  22.413  22.295   2.795
31398W        W 3823  24.326   4.374   2.318
31399W        W 3824  16.419   7.284  13.574
31400W        W 3825  44.987  12.936  14.420
31401W        W 3826   6.872  28.879   1.067
31402W        W 3827  26.219  29.481   0.668
31403W        W 3828   2.887  30.167  12.956
31404W        W 3829  24.512   9.562  12.846
31405W        W 3830  41.446  17.071   3.189
31406W        W 3831  32.107   2.767   2.886
31407W        W 3832  18.347  25.121  13.225
31408W        W 3833  28.494   7.870  11.723
31409W        W 3834  14.368  15.788   2.101
31410W        W 3835   7.436  36.456  14.833
31411W        W 3836  40.599   8.594   4.009
31412W        W 3837  39.094   8.615  14.814
31413W        W 3838  18.306  17.259   3.897
31414W        W 3839   4.786  42.690  11.674
31415W        W 3840  21.433   4.858   0.912
31416W        W 3841  12.104   1.268  11.204
31417W        W 3842  39.576  30.539  14.821
31418W        W 3843  15.085  14.833  14.955
31419W        W 3844  19.681  15.550  13.104
31420W        W 3845   9.143  20.081   0.275
31421W        W 3846  31.549  15.086   4.193
31422W        W 3847  21.926  13.075   5.057
31423W        W 3848  42.065  22.346   4.602
31424W        W 3849  23.218   7.825   4.436
31425W        W 3850   7.058  44.378  11.565
31426W        W 3851  20.263  18.205  13.549
31427W        W 3852  28.770  38.354  12.528
31428W        W 3853   2.211  16.775   3.910
31429W        W 3854  10.689  21.582  14.010
31430W        W 3855   6.184  30.598  14.100
31431W        W 3856  17.111  25.880  14.242
31432W        W 3857  30.453  41.442  11.927
31433W        W 3858  26.929   3.374  10.552
31434W        W 3859  21.550  26.931  11.094
31435W        W 3860  24.806  18.138   1.408
31436W        W 3861  32.035   3.211   1.910
31437W        W 3862  22.191  24.730   3.061
31438W        W 3863  11.838  25.995  11.497
31439W        W 3864  21.797  12.424   1.025
31440W        W 3865  23.524  19.233  14.523
31441W        W 3866  42.264  11.066  13.769
31442W        W 3867  34.089   8.168  11.391
31443W        W 3868   6.451   1.274  11.902
31444W        W 3869  31.021   2.793   4.370
31445W        W 3870  13.124   3.220   2.336
31446W        W 3871  43.501  43.397  13.296
31447W        W 3872  42.027   2.170  12.049
31448W        W 3873  32.560  20.010  11.973
31449W        W 3874   2.995  40.502  11.574
31450W        W 3875  31.955  14.846  10.753
31451W        W 3876  24.418  20.177   2.776
31452W        W 3877  28.887  22.598  14.157
31453W        W 3878  42.160  37.949  11.580
31454W        W 3879  42.942   2.368  12.793
31455W        W 3880  12.801  34.403   0.274
31456W        W 3881   1.482  20.295  14.566
31457W        W 3882  30.080   6.813  13.514
31458W        W 3883  13.766  18.113   4.163
31459W        W 3884  37.348  20.269  12.292
31460W        W 3885  13.891  33.699  13.335
31461W        W 3886  39.921  36.323  10.741
31462W        W 3887  11.667  38.866  13.824
31463W        W 3888  14.622  21.194  12.028
31464W        W 3889  13.895  29.832  11.218
31465W        W 3890   6.856  13.241   4.162
31466W        W 3891  36.604   8.310   4.666
31467W        W 3892  38.898   0.537   4.744
31468W        W 3893  27.621  28.007  12.712
31469W        W 3894   9.061  12.169  14.257
31470W        W 3895  32.318  16.113  12.455
31471W        W 3896  26.541   7.947  12.297
31472W        W 3897   4.716  11.390  14.991
31473W        W 3898  26.207   4.922  11.431
31474W        W 3899  17.932   0.836  11.139
31475W        W 3900  15.247  13.077   1.671
31476W        W 3901   9.308   5.953  14.782
31477W        W 3902  35.529  14.674  12.358
31478W        W 3903  32.493   8.253  14.429
31479W        W 3904  12.667  26.471   1.231
31480W        W 3905  16.158   8.120   0.711
31481W        W 3906   8.354  38.284  14.961
31482W        W 3907  23.246  22.711   3.646
31483W        W 3908  30.305  21.297  14.997
31484W        W 3909  44.034  24.948   2.834
31485W        W 3910  16.241   6.368   1.926
31486W        W 3911  18.103  43.911  12.472
31487W        W 3912  28.525   2.533   3.805
31488W        W 3913  19.105  15.238   1.525
31489W        W 3914  21.048  30.992   2.901
31490W        W 3915  26.546   7.596  11.912
31491W        W 3916  23.131  15.990   1.238
31492W        W 3917  42.528  42.754   4.754
31493W        W 3918  14.258  38.091  14.582
31494W        W 3919   0.553  27.144  11.071
31495W        W 3920  25.945  20.589   1.415
31496W        W 3921   3.922  38.018  11.652
31497W        W 3922  30.931  31.601   3.637
31498W        W 3923  32.442  27.084   3.642
31499W        W 3924  29.703  25.325  11.903
31500W        W 3925  22.565   7.734  14.591
31501W        W 3926  21.189  12.636   4.263
31502W        W 3927   8.827  22.178   2.805
31503W        W 3928   6.322  37.063  12.041
31504W        W 3929  11.526   8.207  12.340
31505W        W 3930   1.689  40.826   3.668
31506W        W 3931  12.182  35.149   4.563
31507W        W 3932  28.931   5.306  10.886
31508W        W 3933  32.562  12.292   2.330
31509W        W 3934  38.855   2.276  10.616
31510W        W 3935  39.895  25.536  12.070
31511W        W 3936  21.569  40.542   4.509
31512W        W 3937  38.574  12.214  11.540
31513W        W 3938  41.495  24.126  10.921
31514W        W 3939   3.632   9.904   0.719
31515W        W 3940  27.223  33.142  10.759
31516W        W 3941  16.831  39.903   0.734
31517W        W 3942  38.144  39.283  11.491
31518W        W 3943  23.569   7.725   0.590
31519W        W 3944  26.187  18.318  13.462
31520W        W 3945  30.983  15.969  12.188
31521W        W 3946  39.690   8.041  13.895
31522W        W 3947   7.340  30.048  12.889
31523W        W 3948  30.639  26.244   2.854
31524W        W 3949  20.233  21.233  12.421
31525W        W 3950   3.399  16.770  14.846
31526W        W 3951  25.090  26.782   1.377
31527W        W 3952  10.133  35.005  13.937
31528W        W 3953  20.781  27.496   1.705
31529W        W 3954  18.821  35.700   0.814
31530W        W 3955   3.979   5.739  13.823
31531W        W 3956  17.152  33.191   2.741
31532W        W 3957  32.515   2.905  11.606
31533W        W 3958  38.487   6.382  11.640
31534W        W 3959  19.758  43.978   4.465
31535W        W 3960  12.337  37.429   3.957
31536W        W 3961  30.272  13.963  13.927
31537W        W 3962  20.301  33.972   4.637
31538W        W 3963  29.425  28.966   0.825
31539W        W 3964  42.437  31.359   3.764
31540W        W 3965   6.461   5.669  14.253
31541W        W 3966  11.651  41.453   0.801
31542W        W 3967  43.855  15.849   0.225
31543W        W 3968  41.907  20.541   1.874
31544W        W 3969  15.110  31.670  11.492
31545W        W 3970  32.518  25.312   3.654
31546W        W 3971  17.700  15.845  12.931
31547W        W 3972  44.312  15.115   0.008
31548W        W 3973  35.380  24.986  13.910
31549W        W 3974  25.762  20.687   2.267
31550W        W 3975  37.159   6.171   1.614
31551W        W 3976   1.198  19.274   4.079
31552W        W 3977  10.082  12.799  12.465
31553W        W 3978  30.073  27.030  12.149
31554W        W 3979  21.213   6.262   2.467
31555W        W 3980  11.130  34.148  12.139
31556W        W 3981  13.139   7.279   4.148
31557W        W 3982  21.910  12.603  12.991
31558W        W 3983  40.055  29.086   2.815
31559W        W 3984  11.796  11.761   3.648
31560W        W 3985  42.952  39.406  13.754
31561W        W 3986  42.111  24.190  11.554
31562W        W 3987  42.616  20.175  13.102
31563W        W 3988  28.719   9.305  14.433
31564W        W 3989  10.757  22.678  12.897
31565W        W 3990  33.263   2.139   0.386
31566W        W 3991  18.054   8.349  13.077
31567W        W 3992  10.754  12.784  10.887
31568W        W 3993  43.965  25.316  12.339
31569W        W 3994   1.946  43.320  12.024
31570W        W 3995  31.621  28.697  11.730
31571W        W 3996  32.067   4.170   4.202
31572W        W 3997   1.457   2.767   2.961
31573W        W 3998   2.169  24.481  11.615
31574W        W 3999  44.420  41.446  14.840
31575W        W 4000   9.567  12.237  14.386
31576W        W 4001  35.598  35.728  12.009
31577W        W 4002  25.722  25.761   4.195
31578W        W 4003  41.918  16.852  12.067
31579W        W 4004  34.221  10.794   2.842
31580W        W 4005  29.451  43.011  13.074
31581W        W 4006  16.763   6.040   0.826
31582W        W 4007  26.029  15.188   2.252
31583W        W 4008   4.669  35.897  14.042
31584W        W 4009  17.595  12.099   1.207
31585W        W 4010  31.397  12.069  13.331
31586W        W 4011  44.449  18.764  13.290
31587W        W 4012  20.243  39.831   4.749
31588W        W 4013  34.890  28.980  10.757
31589W        W 4014  23.483  43.375   0.381
31590W        W 4015   1.722   3.716  14.808
31591W        W 4016  39.004   0.181  14.858
31592W        W 4017  19.528  43.951   4.942
31593W        W 4018  28.489  30.151   3.891
31594W        W 4019   7.325  38.733  13.758
31595W        W 4020  36.690  24.711  11.209
31596W        W 4021  34.342   2.825  13.939
31597W        W 4022  11.053  23.082   4.618
31598W        W 4023  39.945  37.568  12.092
31599W        W 4024  28.591  33.915   0.863
31600W        W 4025  16.049  17.613  10.512
31601W        W 4026  40.849  15.821  13.726
31602W        W 4027  28.369  28.959  13.893
31603W        W 4028   9.180   2.935  10.627
31604W        W 4029  36.860  21.525  14.224
31605W        W 4030  18.492  12.578  13.054
31606W        W 4031  26.426   7.753  14.773
31607W        W 4032  38.555  38.505   1.293
31608W        W 4033  31.173  39.070  12.015
31609W        W 4034  22.959  12.235   5.434
31610W        W 4035  43.727  34.920   0.261
31611W        W 4036  29.165  23.716   0.399
31612W        W 4037   2.212   7.079   1.992
31613W        W 4038  17.210  44.239   1.822
31614W        W 4039  39.949   4.290  14.783
31615W        W 4040  23.531  40.844  14.924
31616W        W 4041  19.026   9.770  13.700
31617W        W 4042  41.010  23.771  11.897
31618W        W 4043  32.784  13.341  10.755
31619W        W 4044   8.815  31.073  12.087
31620W        W 4045  19.260  25.818   0.162
31621W        W 4046  17.515  44.781  12.585
31622W        W 4047  11.135  18.018  12.920
31623W        W 4048  30.522  30.852   3.786
31624W        W 4049  34.859  11.656   4.009
31625W        W 4050  35.998   9.184   3.653
31626W        W 4051  22.660  32.402   0.153
31627W        W 4052   8.193  16.553  12.370
31628W        W 4053  40.568  24.085  11.958
31629W        W 4054  25.047   0.261  13.168
31630W        W 4055  10.073  43.767   3.643
31631W        W 4056  39.554  43.842  13.521
31632W        W 4057  29.971  24.211   9.645
31633W        W 4058   0.822  21.487   0.019
31634W        W 4059  16.189  10.793  14.164
31635W        W 4060  32.827   8.699  11.256
31636W        W 4061  11.326  35.898  12.833
31637W        W 4062   8.162  14.240  11.227
31638W        W 4063  25.583  35.813  11.478
31639W        W 4064  38.519  35.503  12.954
31640W        W 4065  38.311   3.425  13.992
31641W        W 4066  22.214   5.949   0.439
31642W        W 4067  25.369  32.925  14.538
31643W        W 4068  43.375  17.089   4.101
31644W        W 4069   4.789  10.187   0.130
31645W        W 4070   0.138  30.884   5.467
31646W        W 4071   5.758   1.889   3.753
31647W        W 4072  44.466   8.331  14.466
31648W        W 4073  44.340  34.979   0.800
31649W        W 4074  31.928  27.230  12.639
31650W        W 4075   8.382   6.436  13.019
31651W        W 4076  22.223  29.532   2.897
31652W        W 4077  39.605  32.118  11.048
31653W        W 4078   9.344   7.376  13.956
31654W        W 4079  27.301  44.862   0.035
31655W        W 4080  40.435  19.910  11.606
31656W        W 4081  44.988  18.980  10.950
31657W        W 4082  24.123  41.711  12.545
31658W        W 4083  30.965  27.900  12.199
31659W        W 4084  18.757  21.130  10.072
31660W        W 4085  11.905  14.348  13.485
31661W        W 4086   0.579  23.672  10.780
31662W        W 4087   2.464   9.957   1.004
31663W        W 4088  20.980  20.483  10.538
31664W        W 4089  28.156  23.039  14.277
31665W        W 4090  22.008  10.770  14.895
31666W        W 4091  41.741  25.567   1.536
31667W        W 4092  36.967   9.960   9.770
31668W        W 4093   6.465  40.189   0.844
31669W        W 4094  34.898   3.983   2.699
31670W        W 4095  25.715   0.506  11.536
31671W        W 4096   5.958  25.223   2.269
31672W        W 4097  27.636  34.655   1.922
31673W        W 4098  34.809  43.821   0.950
31674W        W 4099  40.895   1.082   1.892
31675W        W 4100  22.314  29.499  12.845
31676W        W 4101  20.662  10.840   2.540
31677W        W 4102  21.634  11.640  10.548
31678W        W 4103  12.221  21.631   9.384
31679W        W 4104   3.527  24.699  12.004
31680W        W 4105  28.476   2.323   1.894
31681W        W 4106  11.934  14.906   0.709
31682W        W 4107   3.799  30.405  11.114
31683W        W 4108  20.904  32.734   3.180
31684W        W 4109  15.409  32.072   0.428
31685W        W 4110  19.544  13.842   0.095
31686W        W 4111  41.535  40.033   3.439
31687W        W 4112   9.845  11.296  13.439
31688W        W 4113   0.339  20.626  14.048
31689W        W 4114   2.348   9.674   1.932
31690W        W 4115  14.214  12.227   1.028
31691W        W 4116  25.138  22.202   2.638
31692W        W 4117  34.160  21.365   4.600
31693W        W 4118   4.215   3.303   4.586
31694W        W 4119  27.394  13.299  13.462
31695W        W 4120   6.309   9.321   4.190
31696W        W 4121  42.782  21.276  13.000
31697W        W 4122  22.733  35.310   1.232
31698W        W 4123  34.565  25.689   1.484
31699W        W 4124   3.942  10.870   1.848
31700W        W 4125  18.743   1.397   0.861
31701W        W 4126   8.103   0.295  14.881
31702W        W 4127   0.530  14.628   2.382
31703W        W 4128  34.863   7.388  10.627
31704W        W 4129  43.339   2.694  14.508
31705W        W 4130  37.527  35.955   1.439
31706W        W 4131  34.546  29.727  11.661
31707W        W 4132   0.885  26.114   1.779
31708W        W 4133  39.545  26.018   2.820
31709W        W 4134   1.398  21.484   0.694
31710W        W 4135  22.572   1.864  11.577
31711W        W 4136  21.453   1.827   1.264
31712W        W 4137  22.278  21.615   1.903
31713W        W 4138  26.134  40.595   3.075
31714W        W 4139  22.520  15.327   3.678
31715W        W 4140  33.162  28.095  14.685
31716W        W 4141  18.968   7.392  11.687
31717W        W 4142   9.663  22.081  14.978
31718W        W 4143  26.472  44.591  10.405
31719W        W 4144   0.872  44.466   0.027
31720W        W 4145  22.959   0.892   4.254
31721W        W 4146  10.791  39.080   1.100
31722W        W 4147   1.779  43.886  11.440
31723W        W 4148  14.548  34.979   1.342
31724W        W 4149  14.263   7.348  11.084
31725W        W 4150  39.011   2.405  13.615
31726W        W 4151  16.310   8.860   3.272
31727W        W 4152  31.135  39.272   4.535
31728W        W 4153  13.794  15.268  13.814
31729W        W 4154  27.901  38.526   2.063
31730W        W 4155  41.249  18.485   4.656
31731W        W 4156  12.842  28.974   2.267
31732W        W 4157  43.336  28.450  11.087
31733W        W 4158  13.574  38.476   1.177
31734W        W 4159  27.223   0.933   4.124
31735W        W 4160  17.823  33.424  11.154
31736W        W 4161   3.236  42.720  11.931
31737W        W 4162   9.886  15.868   1.559
31738W        W 4163   7.969  36.065  13.332
31739W        W 4164  11.792  38.457   0.369
31740W        W 4165   9.575  41.431   0.962
31741W        W 4166  27.220  36.931  14.259
31742W        W 4167  33.417  11.224  10.824
31743W        W 4168  30.420   3.944   0.836
31744W        W 4169   4.799  19.968   3.256
31745W        W 4170   8.963  30.344  14.833
31746W        W 4171  36.035   9.407  14.361
31747W        W 4172  41.814  28.553   3.292
31748W        W 4173   3.495  34.429   0.020
31749W        W 4174  23.119  39.927  13.777
31750W        W 4175  43.382  27.128  13.984
31751W        W 4176  22.584  24.124   3.687
31752W        W 4177  10.819   8.240  13.952
31753W        W 4178  44.978  15.133  12.482
31754W        W 4179  24.750   5.308  12.112
31755W        W 4180  27.434  26.012  13.442
31756W        W 4181  11.828  13.007   3.092
31757W        W 4182  12.183  23.244  14.270
31758W        W 4183  12.134  22.474  12.888
31759W        W 4184  15.657  13.194   3.933
31760W        W 4185  11.344  20.712  13.314
31761W        W 4186  25.164  42.954  11.035
31762W        W 4187  31.102  23.051  11.399
31763W        W 4188  41.777  12.271   1.713
31764W        W 4189  18.733  10.719   4.618
31765W        W 4190  24.093   0.457   0.992
31766W        W 4191  37.551   0.666   0.218
31767W        W 4192   8.461  11.314  11.966
31768W        W 4193  15.656  19.192  13.952
31769W        W 4194   1.064  34.128   1.339
31770W        W 4195  34.794   0.076  14.333
31771W        W 4196   0.389  11.783  12.153
31772W        W 4197   0.256  13.921  10.720
31773W        W 4198  23.897  31.518   9.763
31774W        W 4199   8.808  31.099  14.356
31775W        W 4200  38.802  27.596   3.261
31776W        W 4201   8.715   7.377  14.778
31777W        W 4202   8.099   7.084  11.204
31778W        W 4203  23.928  40.431   2.422
31779W        W 4204  12.709  14.810  14.315
31780W        W 4205  39.181  31.695  10.400
31781W        W 4206   5.733   7.035   1.133
31782W        W 4207  23.967  34.597   4.121
31783W        W 4208   5.009   5.946  12.065
31784W        W 4209   1.755  44.449  10.737
31785W        W 4210  31.851  25.970   4.156
31786W        W 4211  42.488  39.153  12.960
31787W        W 4212   7.825  27.758  11.118
31788W        W 4213  10.299  44.486  11.006
31789W        W 4214  28.957  16.014  13.523
31790W        W 4215  13.027  44.023  10.459
31791W        W 4216  13.232  36.628  11.919
31792W        W 4217  36.370  41.850   0.867
31793W        W 4218  26.434  41.061  11.692
31794W        W 4219  36.529   1.397   5.023
31795W        W 4220  29.200   0.881   4.228
31796W        W 4221   8.324  33.378   1.555
31797W        W 4222  25.429   0.259  13.542
31798W        W 4223  15.092  43.404   2.271
31799W        W 4224  40.713  20.736  14.299
31800W        W 4225  38.736  13.682  11.551
31801W        W 4226   6.021  10.735   2.289
31802W        W 4227  43.295  34.868  10.546
31803W        W 4228  29.303  40.956   1.690
31804W        W 4229  15.222  38.791  12.507
31805W        W 4230  33.662   8.155   3.115
31806W        W 4231  33.667   8.850   0.347
31807W        W 4232  14.831  31.228  11.569
31808W        W 4233  25.518  29.569   0.859
31809W        W 4234   6.202  14.100  10.315
31810W        W 4235  31.017  13.873  14.310
31811W        W 4236  43.498  42.252   0.344
31812W        W 4237  10.721  30.332   0.471
31813W        W 4238  17.957  25.184   0.933
31814W        W 4239  23.040   3.986   0.851
31815W        W 4240   5.098  39.059   4.738
31816W        W 4241  14.695  26.663   2.134
31817W        W 4242  33.326  25.769  13.966
31818W        W 4243  19.543  16.692  12.104
31819W        W 4244  42.322  14.106  10.772
31820W        W 4245  23.573  11.561   2.480
31821W        W 4246  24.415   4.013  14.953
31822W        W 4247  41.473  26.076   4.316
31823W        W 4248  22.233  32.075   3.402
31824W        W 4249   7.608  22.835   4.086
31825W        W 4250  41.314   4.423  11.449
31826W        W 4251   0.872  18.003  11.583
31827W        W 4252  24.149  38.652   0.924
31828W        W 4253  12.773  29.404   0.475
31829W        W 4254   5.096  11.763   3.940
31830W        W 4255  16.634  21.166  13.638
31831W        W 4256  40.135  24.554   1.159
31832W        W 4257  40.563  29.434  14.752
31833W        W 4258  22.129   9.181   2.726
31834W        W 4259   3.343  29.654   4.173
31835W        W 4260  26.934  30.454   0.820
31836W        W 4261  29.940   4.584  10.673
31837W        W 4262  10.700  31.223  14.934
31838W        W 4263  34.722  25.496  12.523
31839W        W 4264  29.213  25.740  12.518
31840W        W 4265  28.668  41.297   2.355
31841W        W 4266  38.497  39.017  12.214
31842W        W 4267  24.085  21.302   2.279
31843W        W 4268   0.422  22.687   4.082
31844W        W 4269  12.082  34.645   4.823
31845W        W 4270  44.010   9.398  13.797
31846W        W 4271  43.450  22.725   2.592
31847W        W 4272  11.261   0.293   4.633
31848W        W 4273  44.046  28.391   0.875
31849W        W 4274  18.536   1.896  12.771
31850W        W 4275   3.234  36.671   0.782
31851W        W 4276  23.414  42.089   2.699
31852W        W 4277  42.895  29.899  12.489
31853W        W 4278  25.686   7.648   2.303
31854W        W 4279  11.818   8.007   1.961
31855W        W 4280   3.890  10.632  12.019
31856W        W 4281  32.574  25.570  10.501
31857W        W 4282  35.666   9.862   4.778
31858W        W 4283   3.832  43.554  12.483
31859W        W 4284  37.955  18.358  10.661
31860W        W 4285  22.300  42.254  11.305
31861W        W 4286   3.342   6.294  13.147
31862W        W 4287  31.584  35.474   1.629
31863W        W 4288  13.812   3.353  11.084
31864W        W 4289  36.607  28.712  12.032
31865W        W 4290  30.113  39.422  13.362
31866W        W 4291  42.244  29.629   1.273
31867W        W 4292   8.355  24.756  14.953
31868W        W 4293  14.595  38.613  11.504
31869W        W 4294  19.176  30.569   3.155
31870W        W 4295  41.473   9.875  12.469
31871W        W 4296  31.277   9.391   1.877
31872W        W 4297  10.648  20.168   3.299
31873W        W 4298  33.058  11.679   1.375
31874W        W 4299  36.806   2.771   1.443
31875W        W 4300  44.401  14.800  11.631
31876W        W 4301  39.280  16.270  12.493
31877W        W 4302  33.211  16.788  11.166
31878W        W 4303  15.669  11.120   1.171
31879W        W 4304   5.892   2.017  10.886
31880W        W 4305  42.953  35.320   1.025
31881W        W 4306  41.879  13.353  13.905
31882W        W 4307  29.748  23.736   2.656
31883W        W 4308   8.748  10.626  12.755
31884W        W 4309   3.025  17.740  11.158
31885W        W 4310  16.910  11.121   0.786
31886W        W 4311  18.758  21.055   2.308
31887W        W 4312   8.866  35.997   0.161
31888W        W 4313  17.790  38.853   4.520
31889W        W 4314  44.817   5.668   4.104
31890W        W 4315  24.105   0.335   3.376
31891W        W 4316   1.605  21.582  13.013
31892W        W 4317   9.304   8.565  13.894
31893W        W 4318  26.572   8.359   1.853
31894W        W 4319  35.443   6.476   4.289
31895W        W 4320  34.953  28.039   0.741
31896W        W 4321  25.957  41.582   3.264
31897W        W 4322   7.622  32.346  12.563
31898W        W 4323  27.846   9.032   1.851
31899W        W 4324  31.960  38.022  13.373
31900W        W 4325  16.203   0.782  11.989
31901W        W 4326  16.115  12.105   0.864
31902W        W 4327  41.447  27.091  14.002
31903W        W 4328  42.541  25.866  12.017
31904W        W 4329   9.159  21.164  12.107
31905W        W 4330  12.087   7.662  14.225
31906W        W 4331  31.138  30.289  13.941
31907W        W 4332  34.936  19.192   4.508
31908W        W 4333   3.434   0.242   1.853
31909W        W 4334  31.391  39.885  12.569
31910W        W 4335  42.387   8.201   4.147
31911W        W 4336  23.358  31.590  13.103
31912W        W 4337   1.152  42.276  12.839
31913W        W 4338  41.504  39.007   2.774
31914W        W 4339   1.971  26.144   0.912
31915W        W 4340  35.794  32.160  13.569
31916W        W 4341   4.481   4.617   4.356
31917W        W 4342  28.280   7.341   0.734
31918W        W 4343   2.935  24.668   2.145
31919W        W 4344  41.353   7.237  13.929
31920W        W 4345   4.135  25.203   1.655
31921W        W 4346  39.609  17.121   3.891
31922W        W 4347  37.402  11.216   0.394
31923W        W 4348  24.025  28.116   1.951
31924W        W 4349   0.188  23.484  14.801
31925W        W 4350  21.073  43.231  12.050
31926W        W 4351   2.189  40.854   3.774
31927W        W 4352   0.061  18.165  12.843
31928W        W 4353   5.652  15.094  12.615
31929W        W 4354   8.867  44.770   2.809
31930W        W 4355  23.451   1.623  11.153
31931W        W 4356  10.325  11.645  13.913
31932W        W 4357  19.706  34.422  12.024
31933W        W 4358  24.132  29.396  14.556
31934W        W 4359  21.936  21.262   1.032
31935W        W 4360  43.363  21.672   4.653
31936W        W 4361  34.009  41.478  11.148
31937W        W 4362  43.366  20.820   5.122
31938W        W 4363  30.059  21.730  12.446
31939W        W 4364  12.364  41.485   0.047
31940W        W 4365  30.847  14.382   0.566
31941W        W 4366  31.675  25.176   2.735
31942W        W 4367  29.734   5.908  10.963
31943W        W 4368   8.426  31.901  12.473
31944W        W 4369  32.457  43.085   2.733
31945W        W 4370   9.029  40.333  10.609
31946W        W 4371  36.856   8.421  12.522
31947W        W 4372  10.193  17.183   3.780
31948W        W 4373  25.443  21.249   2.738
31949W        W 4374  12.433  14.399   0.207
31950W        W 4375  22.075  35.310  12.480
31951W        W 4376  40.215  22.784   2.656
31952W        W 4377  36.430  21.436   4.655
31953W        W 4378  32.639   2.470  10.692
31954W        W 4379  35.567  23.070  14.914
31955W        W 4380  31.602   2.225  11.183
31956W        W 4381  33.163  41.976  12.423
31957W        W 4382  14.133  43.241  14.226
31958W        W 4383  26.167  33.028   2.315
31959W        W 4384  24.625  33.142   1.436
31960W        W 4385  28.170  25.190   2.403
31961W        W 4386  39.018  25.544   1.774
31962W        W 4387  39.470  10.631  14.468
31963W        W 4388   0.246  11.577   2.264
31964W        W 4389  18.546  30.621  11.119
31965W        W 4390  40.546  30.081  13.355
31966W        W 4391  43.969  27.531  14.396
31967W        W 4392  15.111  15.343  14.954
31968W        W 4393   1.528   3.325   3.720
31969W        W 4394  36.394  37.476   0.378
31970W        W 4395  37.002  13.492  12.847
31971W        W 4396  18.691  33.670  14.853
31972W        W 4397  22.700  39.046   2.034
31973W        W 4398  22.589  40.341   2.846
31974W        W 4399  26.464  23.810  13.074
31975W        W 4400  29.422   1.397   0.523
31976W        W 4401  44.608  44.332   0.335
31977W        W 4402  15.652  18.397   2.694
31978W        W 4403  28.608  14.318   3.693
31979W        W 4404  34.676   1.454   3.316
31980W        W 4405  12.140  38.564  14.821
31981W        W 4406  15.331  21.677  12.214
31982W        W 4407  35.329  25.739   2.044
31983W        W 4408  31.524  44.369   3.615
31984W        W 4409  21.995  17.674  12.132
31985W        W 4410  12.807  20.539  13.387
31986W        W 4411  34.643   1.264  13.449
31987W        W 4412  12.864   4.926  13.489
31988W        W 4413   3.654  17.237  14.848
31989W        W 4414  24.926  17.298  14.916
31990W        W 4415  20.141   4.642  14.345
31991W        W 4416  40.904  25.752   1.476
31992W        W 4417  38.235   0.486   3.925
31993W        W 4418  32.984  12.045   1.738
31994W        W 4419   2.723  14.745   3.459
31995W        W 4420  19.078  18.867  14.234
31996W        W 4421   8.157   5.334  12.222
31997W        W 4422  40.006  23.558   4.679
31998W        W 4423  39.235  13.230  13.367
31999W        W 4424  10.839  26.090   0.935
32000W        W 4425  11.828  21.084  12.513
32001W        W 4426  42.108  35.470  11.026
32002W        W 4427   0.509  16.256  13.130
32003W        W 4428  27.400  18.137   1.859
32004W        W 4429   1.081  18.293   3.864
32005W        W 4430  16.663   3.926  11.933
32006W        W 4431  34.035  19.160  14.431
32007W        W 4432  14.679   8.366   3.810
32008W        W 4433   1.743  20.609  13.068
32009W        W 4434  16.092  18.984  12.980
32010W        W 4435  22.227  25.701  13.133
32011W        W 4436  25.238  24.673  13.144
32012W        W 4437  18.261  44.757  13.112
32013W        W 4438   2.914  10.427  12.996
32014W        W 4439  18.346   8.736   0.344
32015W        W 4440  31.085  40.280  12.636
32016W        W 4441  21.100  16.080  12.009
32017W        W 4442  18.320   7.710   2.472
32018W        W 4443  15.646  31.199  11.172
32019W        W 4444  22.233   6.408   4.637
32020W        W 4445   1.577  34.152  10.580
32021W        W 4446  39.892   1.650   4.028
32022W        W 4447   9.954  15.737   3.662
32023W        W 4448   2.220  34.459  10.648
32024W        W 4449  25.456  29.565   5.006
32025W        W 4450  12.125  21.872   1.366
32026W        W 4451  26.713   8.804  12.768
32027W        W 4452  13.660  14.764  13.838
32028W        W 4453  35.915  20.330  12.177
32029W        W 4454   8.215  31.605  10.711
32030W        W 4455  36.765  30.069   1.862
32031W        W 4456  10.775   2.243   2.336
32032W        W 4457  32.104  30.424   4.136
32033W        W 4458  43.044  20.756   4.088
32034W        W 4459  15.549  12.346   3.403
32035W        W 4460  37.315  39.333   2.241
32036W        W 4461  27.428   7.147  10.948
32037W        W 4462  10.188  32.478   3.383
32038W        W 4463  27.031  15.300  14.931
32039W        W 4464  39.813  10.626   1.407
32040W        W 4465  17.651   4.565   0.256
32041W        W 4466  33.877  20.134  10.477
32042W        W 4467  21.138  32.492   3.699
32043W        W 4468  11.872  37.537  13.383
32044W        W 4469  17.671  11.153  14.490
32045W        W 4470  35.319   6.666   5.410
32046W        W 4471   0.217  23.335  11.015
32047W        W 4472  25.284   3.825   1.932
32048W        W 4473   2.672   7.706  13.511
32049W        W 4474   6.263  30.891  13.093
32050W        W 4475  43.692  18.184   3.812
32051W        W 4476  40.058  29.139   3.888
32052W        W 4477   3.221  11.222  12.492
32053W        W 4478  17.055  32.175   3.168
32054W        W 4479  15.982  19.145   1.264
32055W        W 4480   4.726   0.913  11.545
32056W        W 4481   9.889  23.901  13.999
32057W        W 4482   1.822  43.515  12.935
32058W        W 4483  33.846   9.780  13.013
32059W        W 4484  29.015  12.251   3.741
32060W        W 4485   1.664  27.473   0.541
32061W        W 4486   1.899  30.431  13.458
32062W        W 4487   9.735  43.114  10.553
32063W        W 4488  29.580  20.961   5.490
32064W        W 4489   5.921  14.601  11.953
32065W        W 4490  26.929  44.748   4.029
32066W        W 4491  35.628  18.995   1.382
32067W        W 4492   5.074  26.699   2.393
32068W        W 4493  19.554  20.214   0.399
32069W        W 4494  32.893  23.987  14.428
32070W        W 4495  29.147  43.509  11.433
32071W        W 4496  13.644   2.720   3.122
32072W        W 4497   6.934  32.647   4.136
32073W        W 4498  27.906  16.041  14.832
32074W        W 4499  34.894   1.000   0.674
32075W        W 4500  21.230  31.970  10.989
32076W        W 4501  19.353  37.994   1.828
32077W        W 4502  37.972  27.860   3.638
32078W        W 4503  39.421  19.674   4.562
32079W        W 4504  38.063  38.839   4.576
32080W        W 4505  18.184  18.300  14.025
32081W        W 4506  33.115  41.448   4.379
32082W        W 4507  13.580  17.271   0.486
32083W        W 4508  39.588   5.297   3.286
32084W        W 4509  26.895  31.026   1.856
32085W        W 4510  32.463   4.796   4.576
32086W        W 4511  20.126  12.820  14.380
32087W        W 4512   4.886  29.067  11.153
32088W        W 4513  35.198  33.377  14.612
32089W        W 4514  43.548  22.436  13.103
32090W        W 4515   0.708   4.335   1.367
32091W        W 4516  32.934  16.984  12.637
32092W        W 4517  19.544  35.593  14.509
32093W        W 4518   8.962  23.293   3.902
32094W        W 4519   0.139  24.263  13.620
32095W        W 4520  16.871  17.786   2.571
32096W        W 4521  32.979  44.497  10.668
32097W        W 4522  42.352  32.688   3.856
32098W        W 4523   9.780  20.659  10.795
32099W        W 4524  34.403  31.110   4.152
32100W        W 4525  33.893   4.215   4.858
32101W        W 4526  31.383  25.960   3.905
32102W        W 4527   3.178   5.299  12.919
32103W        W 4528   7.196  40.014  14.443
32104W        W 4529  11.157   3.330  12.969
32105W        W 4530  18.132  19.736   1.531
32106W        W 4531  42.087   5.448   0.344
32107W        W 4532  41.025   1.885   4.401
32108W        W 4533  11.143  24.505   4.752
32109W        W 4534  32.935  31.733  11.079
32110W        W 4535  32.127  13.070   2.091
32111W        W 4536   7.476  40.076   1.268
32112W        W 4537  35.104  29.896  13.328
32113W        W 4538  40.948  14.118  12.870
32114W        W 4539  11.349   7.173  14.059
32115W        W 4540  19.524  29.945  12.505
32116W        W 4541  11.256  27.888   1.925
32117W        W 4542  10.321  14.217  14.546
32118W        W 4543  20.328  17.182   0.771
32119W        W 4544  43.079  34.514   1.454
32120W        W 4545   5.309  19.639   0.985
32121W        W 4546  27.459  24.596   4.661
32122W        W 4547  27.201  39.764  13.228
32123W        W 4548  39.015  32.304   3.265
32124W        W 4549  15.683  20.618  14.413
32125W        W 4550  34.141  43.683   0.499
32126W        W 4551  37.773   1.438  12.958
32127W        W 4552  22.000  30.077   4.251
32128W        W 4553  16.293  12.598   1.756
32129W        W 4554  21.766   7.639   4.712
32130W        W 4555  40.454  24.636  13.919
32131W        W 4556  44.540  37.272  13.064
32132W        W 4557   9.187  34.362   3.823
32133W        W 4558   8.539   6.945  11.486
32134W        W 4559  25.584  23.730   3.138
32135W        W 4560  32.407  22.548  11.584
32136W        W 4561  10.817  39.206   4.552
32137W        W 4562   4.853  42.460  11.208
32138W        W 4563  17.785  34.190   4.196
32139W        W 4564   8.759  43.764   0.448
32140W        W 4565   8.866   7.946  10.473
32141W        W 4566  29.885  25.571   2.794
32142W        W 4567  37.514  20.746   3.827
32143W        W 4568  19.078   6.185   3.347
32144W        W 4569   6.340  10.276  11.829
32145W        W 4570  20.671   2.070   4.523
32146W        W 4571  37.949  27.463  11.765
32147W        W 4572  44.955  43.728   1.715
32148W        W 4573  25.668   7.970  11.186
32149W        W 4574  20.355  37.453  12.463
32150W        W 4575  43.199  44.241   3.301
32151W        W 4576  33.610  41.255  12.606
32152W        W 4577  26.122  10.291   0.312
32153W        W 4578  40.299  15.176  11.073
32154W        W 4579  30.734  31.380   2.242
32155W        W 4580   0.923  26.726  10.014
32156W        W 4581  13.590  39.417   2.341
32157W        W 4582  26.972  33.361  13.811
32158W        W 4583  43.981   6.940  12.038
32159W        W 4584  14.068   9.218   2.782
32160W        W 4585  18.652   0.330  12.147
32161W        W 4586  39.881  23.435   2.909
32162W        W 4587  10.816   7.229   1.846
32163W        W 4588  44.546  42.811  13.496
32164W        W 4589   6.244   0.800  12.592
32165W        W 4590  18.724   9.295   3.413
32166W        W 4591  18.208  21.612   1.782
32167W        W 4592  21.412   0.204  13.138
32168W        W 4593   0.900  43.512   0.265
32169W        W 4594  43.358   9.715   3.571
32170W        W 4595  14.448  18.931  12.007
32171W        W 4596  24.604  42.005  12.806
32172W        W 4597  35.859  15.651  12.999
32173W        W 4598  15.301   6.836  11.667
32174W        W 4599   0.844   4.713  13.522
32175W        W 4600  16.704   1.925   3.896
32176W        W 4601  15.673  10.849  14.094
32177W        W 4602  13.632  29.576   1.796
32178W        W 4603  27.245  27.013  12.618
32179W        W 4604  16.057  11.013  14.865
32180W        W 4605  11.816  10.736  14.451
32181W        W 4606  21.507  34.599  11.687
32182W        W 4607  32.178  28.194   2.906
32183W        W 4608   7.856  27.461  10.701
32184W        W 4609  24.637  12.745  14.971
32185W        W 4610  31.058  31.560  14.642
32186W        W 4611  14.252   6.073  14.222
32187W        W 4612  37.359  30.167  10.538
32188W        W 4613  12.593   0.404  10.647
32189W        W 4614   5.950  15.667   4.603
32190W        W 4615  23.532   2.884   0.626
32191W        W 4616  28.033  43.520  10.994
32192W        W 4617   3.659  33.326  11.502
32193W        W 4618  19.692  33.444   4.794
32194W        W 4619   7.676  29.711   2.914
32195W        W 4620  10.274  43.449  12.520
32196W        W 4621  13.863   7.506   0.003
32197W        W 4622  13.444  22.109  13.011
32198W        W 4623  13.760  34.152   0.510
32199W        W 4624  36.103   0.991  13.017
32200W        W 4625  27.451  23.018   3.619
32201W        W 4626   8.973  21.802   4.083
32202W        W 4627  21.957  27.601   0.322
32203W        W 4628   8.251  28.234  13.552
32204W        W 4629  23.429  11.391   1.253
32205W        W 4630  43.336  27.683  12.583
32206W        W 4631   7.935  13.379   4.253
32207W        W 4632   5.866   3.802  13.815
32208W        W 4633  24.644  31.681  14.283
32209W        W 4634   0.002   2.454   0.506
32210W        W 4635  21.212   8.102   3.799
32211W        W 4636   4.492  17.249   2.618
32212W        W 4637  37.489  34.064  13.351
32213W        W 4638  21.140  36.495   0.465
32214W        W 4639  26.201  43.584  14.098
32215W        W 4640   8.733  22.577  14.538
32216W        W 4641  24.375  39.321   2.764
32217W        W 4642   2.179  27.091  14.724
32218W        W 4643  26.203  26.657  11.924
32219W        W 4644  18.797  32.616  12.897
32220W        W 4645  23.215   4.740  11.498
32221W        W 4646  27.302  44.202  11.035
32222W        W 4647  26.633  43.965  11.528
32223W        W 4648  22.428  34.555  14.910
32224W        W 4649  23.990  24.921   2.279
32225W        W 4650  31.370  40.501  13.295
32226W        W 4651  10.922  34.550  12.398
32227W        W 4652  12.292   5.280   3.454
32228W        W 4653  32.946  20.181  13.331
32229W        W 4654  25.558  23.202   3.129
32230W        W 4655  28.523   3.530   3.258
32231W        W 4656  21.947  44.950  14.819
32232W        W 4657   5.845  26.150   2.778
32233W        W 4658   7.195  20.674  10.461
32234W        W 4659  12.322  33.002   1.895
32235W        W 4660  29.607  43.287   3.636
32236W        W 4661  36.055  14.612  12.981
32237W        W 4662  15.676  33.116  10.741
32238W        W 4663  14.431  18.510   3.216
32239W        W 4664  24.964  38.319   3.238
32240W        W 4665   6.001  23.015   0.947
32241W        W 4666  15.349  14.265  13.571
32242W        W 4667  22.738  10.186  13.970
32243W        W 4668  43.467  40.191  13.065
32244W        W 4669  22.053  38.069  11.528
32245W        W 4670  22.117  11.945   2.269
32246W        W 4671   3.344  11.596   0.836
32247W        W 4672  18.488  14.733  13.306
32248W        W 4673  44.437   9.084  13.797
32249W        W 4674  30.476  39.920  14.962
32250W        W 4675  30.183  16.986   0.858
32251W        W 4676  36.381  19.672  13.343
32252W        W 4677  23.707  31.071   9.576
32253W        W 4678  35.994  10.183   2.686
32254W        W 4679  40.540  41.442  12.809
32255W        W 4680   8.386   8.214   3.646
32256W        W 4681   4.600  27.095   9.867
32257W        W 4682   1.482   5.760   0.243
32258W        W 4683  29.557  17.083   4.986
32259W        W 4684   8.140   1.685  13.042
32260W        W 4685  14.745  11.713   3.407
32261W        W 4686   4.793   3.478   2.544
32262W        W 4687  36.211   3.489   3.220
32263W        W 4688   2.305  38.021  14.008
32264W        W 4689   5.041  21.062   0.417
32265W        W 4690   2.358  19.083  12.057
32266W        W 4691  40.242  37.384  14.816
32267W        W 4692  40.880  26.278  11.681
32268W        W 4693  23.451  39.836   0.816
32269W        W 4694  21.350  33.105   4.563
32270W        W 4695  17.037  39.005  12.343
32271W        W 4696  34.539   5.665   1.419
32272W        W 4697  31.402  19.384  10.486
32273W        W 4698  20.393  22.392  13.556
32274W        W 4699  24.504  16.307   2.802
32275W        W 4700  11.239   4.391  13.773
32276W        W 4701  41.960  27.078   4.620
32277W        W 4702  29.157  43.364   2.287
32278W        W 4703   6.229  35.041  11.171
32279W        W 4704  16.790  36.934  13.480
32280W        W 4705  17.606  28.628  14.893
32281W        W 4706  38.777  42.362  14.981
32282W        W 4707  15.899   7.204   0.890
32283W        W 4708  38.527  36.724  11.205
32284W        W 4709   7.743  20.108   0.456
32285W        W 4710  33.604  24.003   0.427
32286W        W 4711  14.306  24.196   0.307
32287W        W 4712  26.205  18.025  13.962
32288W        W 4713   6.742  31.922  14.720
32289W        W 4714  23.055   4.268  13.976
32290W        W 4715  44.045   3.871  11.360
32291W        W 4716  22.543  37.991  12.926
32292W        W 4717  18.541   8.878  11.131
32293W        W 4718  24.382  41.324   1.215
32294W        W 4719   1.049   9.694  11.666
32295W        W 4720  27.192  10.732   0.793
32296W        W 4721  22.559  44.975   4.637
32297W        W 4722  29.174  18.030   5.066
32298W        W 4723  14.633  18.328   3.775
32299W        W 4724   2.412  35.098   3.054
32300W        W 4725  20.108   6.739  12.952
32301W        W 4726   2.091  23.993   1.335
32302W        W 4727   3.618  22.199   2.191
32303W        W 4728   7.421  19.589   0.768
32304W        W 4729  34.839  27.060  12.645
32305W        W 4730  38.510  17.588  13.477
32306W        W 4731  13.148  37.428   3.139
32307W        W 4732  27.607  41.371  10.862
32308W        W 4733  11.276   7.261  10.970
32309W        W 4734   1.968  31.318   1.932
32310W        W 4735  15.730  28.610   3.177
32311W        W 4736  18.643  10.428   4.207
32312W        W 4737  31.693  43.977  13.167
32313W        W 4738   1.832  32.207  10.565
32314W        W 4739   1.220  39.539  13.111
32315W        W 4740  30.642  19.541   0.792
32316W        W 4741  30.784  41.964   4.949
32317W        W 4742  38.054  10.760   0.736
32318W        W 4743   0.139   1.309  11.048
32319W        W 4744   8.736  30.190  11.463
32320W        W 4745  10.594  43.189  14.046
32321W        W 4746  43.848  17.644  11.001
32322W        W 4747   3.998  23.044   3.704
32323W        W 4748   7.059  12.330  11.925
32324W        W 4749  16.780  31.493   4.176
32325W        W 4750  10.514  11.670  12.014
32326W        W 4751   7.358   1.043  13.133
32327W        W 4752  15.218  26.884  11.988
32328W        W 4753  38.415   8.175  14.266
32329W        W 4754  15.252  10.254  10.601
32330W        W 4755  19.711  30.219  10.495
32331W        W 4756  11.543  27.060  14.365
32332W        W 4757  19.322  36.985  11.480
32333W        W 4758  40.126  42.845  13.975
32334W        W 4759  32.503  43.641  10.377
32335W        W 4760  37.471   0.820  12.886
32336W        W 4761  42.336  39.924   0.870
32337W        W 4762  13.790   6.126   1.000
32338W        W 4763  36.121   1.776  11.204
32339W        W 4764  33.246  10.399  10.885
32340W        W 4765  29.457  34.518  11.610
32341W        W 4766   7.834  17.107   1.939
32342W        W 4767   4.476  17.843   4.400
32343W        W 4768  13.794   9.452   3.196
32344W        W 4769   1.936  10.179   1.341
32345W        W 4770   3.717  15.989  14.074
32346W        W 4771   9.602   1.841  10.573
32347W        W 4772  32.503  21.663   4.578
32348W        W 4773   4.757   2.607  13.396
32349W        W 4774  27.555   0.323   0.001
32350W        W 4775  44.796  15.977  10.421
32351W        W 4776  34.088  27.041   3.339
32352W        W 4777  22.403   0.750  12.444
32353W        W 4778  31.844  37.316  12.681
32354W        W 4779  26.766   8.745  11.781
32355W        W 4780  11.808   4.866  12.149
32356W        W 4781   7.174  31.979   4.263
32357W        W 4782   0.430  12.646   1.353
32358W        W 4783   1.968  35.087  14.565
32359W        W 4784  23.810   2.470   0.718
32360W        W 4785  34.917   0.267   3.402
32361W        W 4786   7.388  33.013   1.359
32362W        W 4787  19.583  18.555   0.868
32363W        W 4788  16.165  36.969   3.928
32364W        W 4789  35.375  40.957   1.915
32365W        W 4790  16.354   1.804  11.883
32366W        W 4791  30.581   6.375   3.205
32367W        W 4792   8.317   3.512   3.338
32368W        W 4793  21.946  26.700  12.999
32369W        W 4794  20.382  11.427   3.229
32370W        W 4795  24.224  36.894  13.357
32371W        W 4796   9.871  18.525   2.713
32372W        W 4797  34.983  35.655   4.096
32373W        W 4798  26.493  39.857  13.108
32374W        W 4799  32.482  12.479   2.840
32375W        W 4800  43.918  23.492   2.872
32376W        W 4801  19.887  32.578  14.220
32377W        W 4802  26.965  40.779   3.703
32378W        W 4803   2.906  32.530   0.943
32379W        W 4804  41.537  36.329   1.780
32380W        W 4805  22.558  35.825   1.250
32381W        W 4806  18.129   5.172  12.394
32382W        W 4807  26.937  27.111   4.747
32383W        W 4808   2.972   9.861   0.278
32384W        W 4809   4.602  43.781   2.809
32385W        W 4810  41.334  31.038   2.856
32386W        W 4811   3.714  20.262  13.537
32387W        W 4812   2.357   6.077   2.151
32388W        W 4813   7.886  22.709   1.123
32389W        W 4814  16.024  38.361   0.829
32390W        W 4815  18.983  18.019  13.857
32391W        W 4816  32.619   8.622  12.273
32392W        W 4817  13.311  17.008  13.996
32393W        W 4818   6.856  18.605  14.532
32394W        W 4819  32.490   3.190  13.364
32395W        W 4820  29.487  39.817   0.400
32396W        W 4821  36.594  40.001  14.860
32397W        W 4822  44.098  18.317  13.038
32398W        W 4823  44.265  16.261   3.605
32399W        W 4824  23.686  29.635  11.111
32400W        W 4825  19.806  40.493  13.308
32401W        W 4826  41.881  39.057  12.964
32402W        W 4827   8.316  17.364  12.097
32403W        W 4828  27.512  23.511   4.895
32404W        W 4829  29.846  33.603   1.218
32405W        W 4830  15.301  17.628   1.825
32406W        W 4831   0.069  10.707   0.198
32407W        W 4832  15.958  17.316  11.118
32408W        W 4833  27.613   0.637  11.991
32409W        W 4834  30.694   3.644   4.857
32410W        W 4835  22.743  18.631   3.855
32411W        W 4836  35.858  34.790   3.182
32412W        W 4837  31.958  22.630   0.681
32413W        W 4838   7.108  28.559   4.137
32414W        W 4839  12.019  32.570   2.903
32415W        W 4840  10.567  30.462  12.669
32416W        W 4841  10.167  26.451   4.135
32417W        W 4842  12.852  11.888   0.929
32418W        W 4843  43.073  26.295   5.094
32419W        W 4844  28.457  21.236   2.714
32420W        W 4845  21.944  34.578  13.023
32421W        W 4846   4.115  29.034  13.382
32422W        W 4847   0.407  24.941   1.362
32423W        W 4848  37.818  25.634   0.969
32424W        W 4849  38.839  32.172  10.266
32425W        W 4850   4.953  24.824  10.873
32426W        W 4851  41.869  17.222   0.048
32427W        W 4852  34.081  23.911   2.764
32428W        W 4853  14.904  38.887   3.166
32429W        W 4854  37.902  17.018  11.046
32430W        W 4855  24.451  38.037   4.244
32431W        W 4856  30.588   9.733  11.042
32432W        W 4857  33.743   1.926   4.664
32433W        W 4858  16.219   3.950   5.305
32434W        W 4859  30.194  18.707   1.701
32435W        W 4860  19.720  17.225   0.043
32436W        W 4861   6.910  35.830   3.791
32437W        W 4862  26.026  30.482  11.012
32438W        W 4863  14.355  16.116   1.505
32439W        W 4864  41.571  35.458  14.770
32440W        W 4865  24.767   3.760   1.828
32441W        W 4866   3.894  42.741  14.278
32442W        W 4867  29.050  11.147  14.901
32443W        W 4868  39.834  41.771  13.191
32444W        W 4869  40.812  27.545  13.040
32445W        W 4870  25.975   0.292   1.638
32446W        W 4871  22.484  35.560  11.416
32447W        W 4872   4.866  43.292  10.488
32448W        W 4873   7.264  44.473   3.420
32449W        W 4874  44.618  39.914   0.087
32450W        W 4875   2.479  42.888   0.977
32451W        W 4876   6.290  39.894  11.064
32452W        W 4877   1.651   3.694  10.342
32453W        W 4878   4.222  16.284   4.691
32454W        W 4879  29.984  18.751  11.580
32455W        W 4880  14.076  17.581  14.754
32456W        W 4881   7.265  25.535   0.122
32457W        W 4882  44.523  33.023   2.717
32458W        W 4883  29.093  26.718  10.356
32459W        W 4884  40.666  42.399  10.626
32460W        W 4885  16.515  31.589   5.495
32461W        W 4886  39.858  16.813  12.125
32462W        W 4887   7.199   5.973  13.019
32463W        W 4888  15.767  12.657   4.689
32464W        W 4889  42.347  14.659  12.923
32465W        W 4890  20.294  27.087  13.397
32466W        W 4891  42.342   9.133  10.766
32467W        W 4892  26.135  39.014   4.688
32468W        W 4893  28.344  41.580   3.717
32469W        W 4894  44.280  28.496  10.714
32470W        W 4895  29.182  38.134   3.671
32471W        W 4896  23.836   5.267  13.229
32472W        W 4897   3.095  31.587   2.264
32473W        W 4898  36.477  17.508  13.144
32474W        W 4899  32.415  29.336   1.245
32475W        W 4900  22.722  36.306   4.975
32476W        W 4901  38.647  44.355  13.176
32477W        W 4902  20.893  16.213  12.483
32478W        W 4903  22.625  34.640  12.091
32479W        W 4904  23.986  23.151   4.181
32480W        W 4905   2.726  11.089   4.123
32481W        W 4906  23.938   9.731   2.862
32482W        W 4907   6.444  43.489  10.760
32483W        W 4908  39.058  17.641  10.259
32484W        W 4909  29.146  24.256  14.688
32485W        W 4910  23.593   0.737  12.973
32486W        W 4911  43.486  15.051   0.414
32487W        W 4912  27.440  34.217   2.121
32488W        W 4913  18.011  13.895   3.250
32489W        W 4914  33.131   9.258  12.545
32490W        W 4915   0.758  10.263  14.624
32491W        W 4916  11.791   8.171   4.620
32492W        W 4917  21.313  42.901  10.842
32493W        W 4918   2.153  38.932   2.828
32494W        W 4919  30.358  27.480   3.734
32495W        W 4920  37.105   4.127   1.374
32496W        W 4921  36.042  20.022  12.568
32497W        W 4922  40.770  30.887   3.719
32498W        W 4923  22.003   9.161   4.054
32499W        W 4924  24.983  20.512   0.950
32500W        W 4925  21.113  36.542  14.938
32501W        W 4926  34.077  13.205  13.534
32502W        W 4927  43.312  14.453   5.148
32503W        W 4928  10.891  44.986  14.311
32504W        W 4929   5.626  14.142   4.686
32505W        W 4930  27.164  30.440  13.904
32506W        W 4931   4.214  27.209  13.853
32507W        W 4932  41.861   5.835   3.617
32508W        W 4933   2.479  14.441   9.979
32509W        W 4934  12.387  10.828   4.511
32510W        W 4935  10.791  43.013   2.735
32511W        W 4936  27.274   3.921   0.902
32512W        W 4937   6.855  43.032   4.214
32513W        W 4938  12.131   3.904   0.061
32514W        W 4939  23.666  27.914  12.520
32515W        W 4940  23.938   7.350  13.892
32516W        W 4941  35.095  19.986  11.228
32517W        W 4942  20.444  20.408   3.862
32518W        W 4943  43.068  20.677  14.502
32519W        W 4944  18.167  13.122  12.771
32520W        W 4945  32.620  22.663   1.811
32521W        W 4946  26.402  33.028  11.641
32522W        W 4947  44.323  25.745   1.190
32523W        W 4948  15.864  11.693   5.131
32524W        W 4949  21.070   1.036   0.139
32525W        W 4950  10.438  39.920  12.082
32526W        W 4951  15.183  12.897   0.892
32527W        W 4952  12.850  40.505  12.714
32528W        W 4953  34.076  20.568   0.027
32529W        W 4954   9.354  37.592  10.732
32530W        W 4955  31.562  13.866   2.780
32531W        W 4956  31.883  37.377  14.069
32532W        W 4957  20.067  39.903   4.238
32533W        W 4958  22.951   3.264   4.322
32534W        W 4959  27.472   0.812  12.477
32535W        W 4960   7.420   6.931  12.828
32536W        W 4961  27.232  44.973   2.813
32537W        W 4962   4.699  44.201  10.534
32538W        W 4963  37.926  27.579  12.856
32539W        W 4964  20.085   9.691  12.928
32540W        W 4965  21.968  25.535   0.021
32541W        W 4966  23.574  17.211  13.308
32542W        W 4967  23.632  39.355   3.250
32543W        W 4968  19.607  17.602   4.756
32544W        W 4969  42.114  27.240   4.148
32545W        W 4970  10.474  21.096   4.198
32546W        W 4971  10.113  20.167   4.189
32547W        W 4972   9.454   7.616   3.656
32548W        W 4973  41.983  31.772  10.118
32549W        W 4974  11.835  42.100  11.053
32550W        W 4975  17.361  34.920  12.500
32551W        W 4976  17.789   3.181   3.510
32552W        W 4977   9.254  13.026   2.377
32553W        W 4978  36.965  24.718  12.074
32554W        W 4979  28.944  16.620  12.123
32555W        W 4980   5.846  28.597   3.323
32556W        W 4981   4.912   0.391   3.703
32557W        W 4982   5.953  15.816  14.441
32558W        W 4983  31.725   5.638  14.437
32559W        W 4984   8.678   2.357  11.731
32560W        W 4985  37.960  14.541  12.873
32561W        W 4986  34.937  40.163   9.580
32562W        W 4987   5.189   1.182  11.657
32563W        W 4988  23.165  24.417   1.198
32564W        W 4989  42.196   2.940  13.830
32565W        W 4990  17.089  24.576  11.510
32566W        W 4991  33.463  38.867   2.800
32567W        W 4992  26.657  36.009  12.020
32568W        W 4993  15.828  25.722  13.922
32569W        W 4994  18.760  26.596  12.151
32570W        W 4995  19.555   6.949  13.013
32571W        W 4996  37.325   2.868   2.806
32572W        W 4997  30.940  38.215   4.943
32573W        W 4998  22.003  11.722  12.759
32574W        W 4999  25.267  27.679   0.485
32575W        W 5000  12.050  39.807   4.856
32576W        W 5001  31.371  22.177   3.681
32577W        W 5002  35.230  35.347  11.961
32578W        W 5003  11.512  14.808   0.378
32579W        W 5004   3.811  37.564  10.500
32580W        W 5005  23.280   4.583   3.910
32581W        W 5006   5.728  11.386  13.077
32582W        W 5007  21.831  27.511   1.894
32583W        W 5008  14.697  26.766   4.505
32584W        W 5009   7.285  15.928   1.216
32585W        W 5010  33.391  20.472  13.461
32586W        W 5011  28.397   4.704   2.738
32587W        W 5012  12.207  41.005   4.080
32588W        W 5013  41.403   9.381  12.496
32589W        W 5014   1.346  37.858  14.413
32590W        W 5015  24.598  38.595  11.558
32591W        W 5016  12.670   8.279  12.660
32592W        W 5017  38.906  29.703   1.719
32593W        W 5018  40.399  37.607  12.462
32594W        W 5019  20.619  38.896  14.897
32595W        W 5020  27.437  32.011   0.548
32596W        W 5021  20.412  38.101   3.634
32597W        W 5022  40.302   0.075   3.180
32598W        W 5023  17.562  38.981  12.373
32599W        W 5024  10.119  44.527   2.310
32600W        W 5025   7.494  15.198   1.600
32601W        W 5026  20.514  11.863  14.441
32602W        W 5027  27.489  26.340  11.761
32603W        W 5028  33.030  21.427   1.512
32604W        W 5029  14.306  32.352   4.038
32605W        W 5030  30.069  11.372   3.603
32606W        W 5031  31.123  25.035  13.571
32607W        W 5032  38.635  30.532   1.129
32608W        W 5033  13.377  10.735  14.331
32609W        W 5034  23.621  28.996   2.561
32610W        W 5035   7.606  19.144  14.015
32611W        W 5036  35.866  40.490  11.657
32612W        W 5037  14.409  29.534  10.621
32613W        W 5038  17.704   3.002  14.557
32614W        W 5039  44.451   0.042   0.965
32615W        W 5040  26.304  24.016   1.755
32616W        W 5041  16.205  44.875  10.619
32617W        W 5042  33.410  29.209   2.722
32618W        W 5043   0.388   9.117   0.324
32619W        W 5044  29.157  27.471  13.578
32620W        W 5045  42.674   0.880   0.716
32621W        W 5046  28.235  11.700  14.764
32622W        W 5047  44.079  25.925   4.270
32623W        W 5048  17.818   2.140  12.585
32624W        W 5049  33.553  16.326  12.889
32625W        W 5050  21.704  11.390  14.304
32626W        W 5051   5.806  21.544   0.961
32627W        W 5052  39.418  30.134  14.455
32628W        W 5053  41.891  26.507   0.857
32629W        W 5054  24.982  39.471   0.882
32630W        W 5055  14.264  21.779  14.946
32631W        W 5056  21.940  14.161   3.918
32632W        W 5057  24.517  21.273  13.531
32633W        W 5058  37.088   7.709   1.556
32634W        W 5059  36.543  17.223   2.274
32635W        W 5060  32.187   0.336   2.703
32636W        W 5061  39.299  18.341  13.354
32637W        W 5062  29.109  18.839   0.990
32638W        W 5063  17.164   7.184  10.573
32639W        W 5064  13.842  17.711  10.603
32640W        W 5065  43.962  33.511  13.630
32641W        W 5066  37.112  21.819   1.331
32642W        W 5067  38.798  14.783   0.398
32643W        W 5068  44.843  29.647  14.339
32644W        W 5069  30.098  25.137   3.011
32645W        W 5070  39.252  16.403   2.349
32646W        W 5071  32.914  28.668   2.348
32647W        W 5072  23.537  43.258  13.980
32648W        W 5073  40.767  36.415  13.848
32649W        W 5074  16.656   7.769   3.711
32650W        W 5075   1.038  32.387   4.577
32651W        W 5076  14.715   2.532   1.562
32652W        W 5077  14.133  35.300   4.236
32653W        W 5078  11.671   9.669   0.802
32654W        W 5079   7.392  29.321   3.332
32655W        W 5080  24.531   8.939   2.778
32656W        W 5081  21.295  40.438  12.534
32657W        W 5082  27.608  15.826  14.477
32658W        W 5083  42.968  42.171  11.956
32659W        W 5084  40.125  33.000  11.028
32660W        W 5085  37.366  37.082   0.550
32661W        W 5086  41.215  32.618  14.530
32662W        W 5087  12.371   9.882  14.707
32663W        W 5088   8.433  26.286  13.361
32664W        W 5089  27.894   8.354   1.367
32665W        W 5090  15.522  40.241  13.757
32666W        W 5091  43.908  23.137   3.251
32667W        W 5092  35.871  20.914   0.265
32668W        W 5093  15.674   1.001   3.661
32669W        W 5094  37.808   6.335   3.520
32670W        W 5095   8.359  42.277   2.762
32671W        W 5096  36.999  13.211   3.326
32672W        W 5097  41.218   4.340  12.355
32673W        W 5098  20.451  35.544  10.873
32674W        W 5099  17.379  39.019  11.006
32675W        W 5100  20.461   6.072  11.212
32676W        W 5101  14.119  44.248   0.497
32677W        W 5102  24.582   7.433   2.715
32678W        W 5103  39.361   7.352  10.651
32679W        W 5104  38.965  38.990  13.349
32680W        W 5105  19.482  25.161   3.677
32681W        W 5106  40.965   9.819  13.132
32682W        W 5107  42.810  28.054   2.398
32683W        W 5108  38.332  29.507  14.197
32684W        W 5109  13.213  41.538  12.985
32685W        W 5110  41.479  15.267  14.058
32686W        W 5111  25.250  29.541  12.853
32687W        W 5112   6.073  29.441   4.104
32688W        W 5113  27.342  27.111   0.269
32689W        W 5114  43.539  44.736   3.979
32690W        W 5115   8.748  41.611   2.185
32691W        W 5116   1.775  39.329  13.566
32692W        W 5117  28.213  25.029   5.162
32693W        W 5118  24.577  32.404  12.823
32694W        W 5119   9.205  28.004  12.604
32695W        W 5120  21.407  24.733   3.490
32696W        W 5121  25.881  30.602  14.354
32697W        W 5122  18.019  35.703  13.021
32698W        W 5123  33.628  19.214   4.120
32699W        W 5124  39.084  37.110  14.959
32700W        W 5125  26.372   3.550   4.702
32701W        W 5126   8.655   9.238  14.774
32702W        W 5127  37.959  17.770   1.269
32703W        W 5128  29.552  20.600  10.691
32704W        W 5129   4.772  17.036   0.872
32705W        W 5130  32.357  11.878  12.218
32706W        W 5131   9.329   6.179   1.641
32707W        W 5132  12.621  35.066   1.391
32708W        W 5133  19.313  42.510  12.113
32709W        W 5134  40.146  40.575   3.666
32710W        W 5135   7.759  18.289   0.534
32711W        W 5136   1.306  34.067  10.065
32712W        W 5137  43.587  31.629  11.476
32713W        W 5138  25.528   3.223  14.828
32714W        W 5139  14.440  17.411   3.659
32715W        W 5140  39.051  43.984   2.196
32716W        W 5141  15.571  42.311  13.063
32717W        W 5142  39.863  35.959   4.255
32718W        W 5143   3.799  42.495   3.119
32719W        W 5144  38.027   2.399   4.645
32720W        W 5145   8.466  38.996   3.668
32721W        W 5146   5.668  15.526  11.527
32722W        W 5147  13.330  15.504   2.718
32723W        W 5148  24.519  18.619  14.471
32724W        W 5149  12.739  18.082   2.226
32725W        W 5150  10.329  10.196  10.884
32726W        W 5151   2.814   5.811   2.946
32727W        W 5152  24.830  24.245  14.795
32728W        W 5153  23.426  33.134  12.392
32729W        W 5154  32.946   2.891  10.838
32730W        W 5155  32.916  36.889   3.699
32731W        W 5156   4.467  19.331   0.988
32732W        W 5157  23.065  26.805   3.045
32733W        W 5158  42.473   7.762   0.551
32734W        W 5159  41.297   6.821   4.345
32735W        W 5160   4.645  27.291   4.666
32736W        W 5161  25.005  22.890  13.272
32737W        W 5162  37.969  10.209   3.176
32738W        W 5163  12.814  18.724  11.614
32739W        W 5164  10.760  19.187   1.963
32740W        W 5165  18.570   3.838   3.580
32741W        W 5166  15.194  27.544   3.372
32742W        W 5167  31.423  11.926   1.800
32743W        W 5168  28.161   5.385   0.764
32744W        W 5169  40.829   0.948   0.273
32745W        W 5170  30.438  35.778   1.605
32746W        W 5171  38.267   8.090  12.940
32747W        W 5172   6.696   1.092  12.327
32748W        W 5173  27.977  30.413   0.243
32749W        W 5174   2.184   1.135  11.769
32750W        W 5175  10.423  42.943  12.420
32751W        W 5176  34.002  40.427   3.045
32752W        W 5177  24.795  40.023   4.108
32753W        W 5178  11.135  40.402  12.522
32754W        W 5179  30.034  35.150   2.314
32755W        W 5180  12.603  27.124  11.850
32756W        W 5181  13.625  16.873   2.842
32757W        W 5182   4.774  37.081  14.022
32758W        W 5183  20.674  33.460  13.447
32759W        W 5184  34.082   2.844   2.293
32760W        W 5185  24.771  31.381  12.422
32761W        W 5186  11.907  42.243  11.912
32762W        W 5187   6.904  40.457  13.265
32763W        W 5188  29.515  18.125  14.873
32764W        W 5189   1.891  30.399   2.359
32765W        W 5190   2.778  40.868  10.789
32766W        W 5191  25.899   3.943   1.142
32767W        W 5192  10.205  28.166   1.673
32768W        W 5193   9.979  15.057  12.060
32769W        W 5194  28.103  17.342  11.086
32770W        W 5195   1.909   5.332   0.924
32771W        W 5196  16.869   8.010   1.255
32772W        W 5197  29.605  22.557  12.095
32773W        W 5198   5.361  43.518   3.699
32774W        W 5199  39.524  23.923  12.780
32775W        W 5200  12.188  34.917  12.674
32776W        W 5201  31.196  34.849   2.864
32777W        W 5202  29.480  41.736  13.496
32778W        W 5203  41.938  38.021  14.356
32779W        W 5204   4.424  14.277  13.807
32780W        W 5205  34.601  36.514   1.816
32781W        W 5206  16.875  24.066   4.012
32782W        W 5207  23.510  29.610   3.332
32783W        W 5208  34.458  36.597   2.829
32784W        W 5209  20.125  24.151   4.167
32785W        W 5210   8.750  43.348  14.119
32786W        W 5211   5.916   6.642  13.843
32787W        W 5212  12.771  10.557   4.732
32788W        W 5213  41.408  13.067   4.461
32789W        W 5214   0.981  39.334   1.977
32790W        W 5215  12.750  30.615  10.940
32791W        W 5216  42.276  40.345   0.372
32792W        W 5217  38.761  32.868   4.142
32793W        W 5218  12.819  30.079  14.328
32794W        W 5219   5.105  16.177  11.916
32795W        W 5220  36.391  35.922   3.462
32796W        W 5221  14.598  27.235  13.735
32797W        W 5222  10.613  11.251   3.536
32798W        W 5223  43.258  22.697  13.456
32799W        W 5224  32.003  32.000  10.759
32800W        W 5225  28.603  32.916  13.335
32801W        W 5226  15.715  11.299   4.108
32802W        W 5227  32.619  32.569  12.451
32803W        W 5228  36.764  24.170   1.914
32804W        W 5229  15.825  21.993  13.453
32805W        W 5230  37.255  22.130   4.869
32806W        W 5231  13.159  10.370   1.255
32807W        W 5232  44.485  10.522  14.093
32808W        W 5233  39.535   0.844  10.932
32809W        W 5234  42.437  37.444   2.235
32810W        W 5235  17.283  13.611  13.925
32811W        W 5236   5.211  44.062  10.651
32812W        W 5237  28.164   2.726  10.816
32813W        W 5238  33.479  22.742  10.527
32814W        W 5239  31.987   5.568  14.946
32815W        W 5240  41.681  32.634  14.294
32816W        W 5241  13.855  12.860   4.267
32817W        W 5242  11.760  31.920   1.483
32818W        W 5243   5.197  42.235  11.992
32819W        W 5244  27.569  28.638  13.928
32820W        W 5245  16.531  21.317   3.640
32821W        W 5246   3.256  28.500   3.309
32822W        W 5247  44.427  12.561   0.466
32823W        W 5248  39.593  33.425  10.659
32824W        W 5249  31.644  25.682   0.803
32825W        W 5250  42.568  11.201   3.778
32826W        W 5251  27.640  42.521   2.676
32827W        W 5252  28.912   5.406   0.448
32828W        W 5253  19.108   7.297  13.049
32829W        W 5254   3.461   7.753   5.235
32830W        W 5255   7.705  13.219   1.492
32831W        W 5256  14.046  11.892  13.052
32832W        W 5257  44.038  18.577   2.707
32833W        W 5258  38.664  18.193   0.731
32834W        W 5259  36.765  35.983  13.379
32835W        W 5260  24.151  41.914  13.053
32836W        W 5261  22.741  37.379  12.105
32837W        W 5262  37.917  37.212  13.885
32838W        W 5263   9.746  10.439   3.781
32839W        W 5264  23.968  12.247   0.538
32840W        W 5265  37.307  10.840   2.954
32841W        W 5266  14.392  26.964   0.409
32842W        W 5267   2.370  19.872   0.986
32843W        W 5268  21.510  31.810  14.087
32844W        W 5269   5.352  20.969  14.266
32845W        W 5270  36.731  34.309   0.415
32846W        W 5271  14.596  39.339   3.187
32847W        W 5272  18.332  37.030   1.805
32848W        W 5273   1.915   2.651   2.270
32849W        W 5274  35.957  24.413  11.690
32850W        W 5275  34.158  13.829  13.889
32851W        W 5276  15.831  15.570   4.062
32852W        W 5277  20.795  26.538   1.830
32853W        W 5278   6.799   3.254  12.920
32854W        W 5279  28.679   6.379   9.999
32855W        W 5280  41.706  38.411   3.889
32856W        W 5281   1.703  12.133  12.652
32857W        W 5282  27.426  22.099   1.241
32858W        W 5283   4.263  36.031   1.504
32859W        W 5284  20.306  29.439  12.046
32860W        W 5285  18.268  44.765  10.664
32861W        W 5286   7.190  25.579  14.615
32862W        W 5287  41.169  14.482   1.680
32863W        W 5288  32.468   5.389  11.061
32864W        W 5289  27.174   8.709   3.710
32865W        W 5290   7.705  32.986   1.743
32866W        W 5291  38.256  17.059   3.666
32867W        W 5292  35.881   5.461  10.778
32868W        W 5293  39.002  15.690   9.801
32869W        W 5294   5.944   1.481   2.418
32870W        W 5295  44.471  20.501   3.240
32871W        W 5296  20.072   1.840  13.401
32872W        W 5297  39.073  14.213   3.969
32873W        W 5298  37.801  23.336  13.940
32874W        W 5299  35.428  36.868  12.699
32875W        W 5300  27.179  40.410   4.875
32876W        W 5301  36.073  40.272  14.984
32877W        W 5302  15.231  44.940  12.145
32878W        W 5303  14.808  29.062  13.442
32879W        W 5304   7.708  23.132  14.856
32880W        W 5305   8.866  10.983   3.843
32881W        W 5306   7.529  26.165  13.670
32882W        W 5307  34.350  26.292  13.009
32883W        W 5308  25.632  29.475  13.424
32884W        W 5309   2.858  27.025   2.576
32885W        W 5310  29.028   7.422   4.625
32886W        W 5311  36.080  17.315  12.027
32887W        W 5312  44.202  33.352  11.616
32888W        W 5313   9.302  14.054  14.408
32889W        W 5314  23.056  44.715   2.026
32890W        W 5315   5.437  41.352  11.963
32891W        W 5316   1.681  31.645  12.919
32892W        W 5317  13.936  34.122   2.853
32893W        W 5318   2.923  39.021   2.186
32894W        W 5319   6.781  24.535   2.776
32895W        W 5320  10.205   0.971  14.152
32896W        W 5321  24.042  39.722   3.733
32897W        W 5322  36.278   9.617   3.817
32898W        W 5323  29.978  41.988   3.914
32899W        W 5324   1.918  32.446   0.436
32900W        W 5325  36.969  42.221  11.498
32901W        W 5326  34.617  15.209   1.286
32902W        W 5327  41.984  28.724   4.990
32903W        W 5328   0.828  20.161   2.681
32904W        W 5329  18.603  18.516   3.652
32905W        W 5330  22.530  13.778   4.619
32906W        W 5331  11.697  27.002  13.519
32907W        W 5332   9.982  34.183  13.591
32908W        W 5333  17.756  32.829   9.881
32909W        W 5334  26.082  18.495  12.835
32910W        W 5335  26.067  25.349   3.545
32911W        W 5336  30.121  30.458   4.426
32912W        W 5337  10.097  26.047   3.127
32913W        W 5338  14.216  25.868  11.572
32914W        W 5339  30.993  39.814  12.947
32915W        W 5340   1.624   8.576  13.635
32916W        W 5341  10.123  28.625  14.901
32917W        W 5342  35.492  26.533   3.144
32918W        W 5343  38.564  34.394  12.042
32919W        W 5344  40.777   2.921  11.136
32920W        W 5345   2.534   3.276   0.581
32921W        W 5346  25.270  14.465   4.854
32922W        W 5347  34.842   0.359  10.260
32923W        W 5348  14.600   0.987  10.172
32924W        W 5349   3.183   9.950   2.450
32925W        W 5350   7.750   1.448  14.793
32926W        W 5351   9.375  16.602   1.073
32927W        W 5352   7.280   4.814  10.292
32928W        W 5353  18.094  17.154  10.434
32929W        W 5354  26.513  44.484   3.331
32930W        W 5355   1.958  38.594   0.234
32931W        W 5356  23.694  22.642   1.343
32932W        W 5357   6.663  33.845  13.440
32933W        W 5358   8.748  44.932  11.383
32934W        W 5359   0.930  37.854   2.406
32935W        W 5360  19.617   5.738  11.559
32936W        W 5361  32.874   2.175  14.420
32937W        W 5362  31.052  30.477   2.206
32938W        W 5363  39.567  39.796   4.552
32939W        W 5364  35.484  41.828  14.918
32940W        W 5365   3.209   5.701   3.819
32941W        W 5366  35.299   9.212  11.609
32942W        W 5367  36.072   8.626   4.155
32943W        W 5368   8.887  26.084  10.728
32944W        W 5369   0.161  37.396  14.795
32945W        W 5370  12.529  25.907  14.833
32946W        W 5371  42.739  39.424  14.935
32947W        W 5372  30.404  26.891  13.764
32948W        W 5373  17.124  18.072   2.927
32949W        W 5374  18.573  40.074   4.154
32950W        W 5375  30.724  22.605  12.908
32951W        W 5376   2.374  26.921  12.789
32952W        W 5377  16.789   9.100  10.616
32953W        W 5378  28.940  20.723   1.379
32954W        W 5379  28.646   1.988  13.199
32955W        W 5380  12.126  12.118   3.145
32956W        W 5381   4.781   7.785  14.021
32957W        W 5382  15.514  36.286  12.598
32958W        W 5383  10.457   5.205   1.169
32959W        W 5384  13.803  40.611  14.438
32960W        W 5385  28.466   0.593  11.821
32961W        W 5386  41.315   2.227  14.838
32962W        W 5387  11.037  19.757  14.078
32963W        W 5388  33.392  32.486  13.030
32964W        W 5389  35.388  10.320  11.447
32965W        W 5390  31.175  18.109   1.349
32966W        W 5391  28.458  16.746  12.965
32967W        W 5392  35.642  26.100   2.285
32968W        W 5393  36.540  12.792  14.913
32969W        W 5394  14.634   5.731   0.670
32970W        W 5395  25.599   3.454  11.077
32971W        W 5396  26.808  14.237   1.246
32972W        W 5397  35.150  17.512  11.133
32973W        W 5398  27.801  33.479   2.818
32974W        W 5399  10.798   1.229   3.695
32975W        W 5400  40.562  40.882   2.444
32976W        W 5401   3.288   1.144   0.224
32977W        W 5402   5.431  38.951  12.975
32978W        W 5403   3.217  44.742   2.372
32979W        W 5404  31.240  15.292  10.767
32980W        W 5405  36.214  32.922  13.307
32981W        W 5406  18.567  43.486  10.443
32982W        W 5407  10.877   7.919  12.279
32983W        W 5408  19.982  17.473  11.614
32984W        W 5409  39.365  35.910  14.836
32985W        W 5410   5.701  16.215   3.265
32986W        W 5411  13.852  32.428   4.871
32987W        W 5412  24.161   1.330  10.667
32988W        W 5413  12.290  32.663   0.017
32989W        W 5414  30.021  19.226   2.397
32990W        W 5415  11.862   6.236   1.389
32991W        W 5416  34.954  44.158   5.378
32992W        W 5417  23.975   2.311  14.423
32993W        W 5418  37.908  12.395  12.019
32994W        W 5419  34.484  34.487  12.911
32995W        W 5420  15.742  43.556  12.480
32996W        W 5421  38.264  34.848   3.675
32997W        W 5422  32.437  28.019   0.392
32998W        W 5423   5.333  34.329   2.257
32999W        W 5424   2.552  33.792   1.533
33000W        W 5425  13.640  43.304   3.930
33001W        W 5426  16.227   9.207  12.093
33002W        W 5427   6.852   7.325  14.710
33003W        W 5428  36.819  32.510  10.616
33004W        W 5429  33.916   9.000  11.006
33005W        W 5430  34.041  18.637   2.655
33006W        W 5431  40.948  10.025  12.451
33007W        W 5432  38.720  13.274   5.095
33008W        W 5433  14.809  32.714  11.625
33009W        W 5434  10.654  35.269   1.193
33010W        W 5435  12.232   2.836   4.220
33011W        W 5436  37.314  24.898   4.386
33012W        W 5437  25.264  12.950   1.748
33013W        W 5438  30.875  18.159   2.841
33014W        W 5439  41.865  11.560   1.464
33015W        W 5440  10.851  11.978   1.867
33016W        W 5441  24.953  33.867   0.462
33017W        W 5442  32.021  12.700   1.376
33018W        W 5443  19.106  16.315  11.096
33019W        W 5444  13.679  44.242   3.836
33020W        W 5445  31.415   1.347   4.935
33021W        W 5446  23.342   2.415   0.411
33022W        W 5447  15.196   5.193  14.346
33023W        W 5448   3.756  26.004   3.727
33024W        W 5449  29.429  44.800  12.742
33025W        W 5450  29.955  44.906  10.551
33026W        W 5451  30.548  31.999  12.419
33027W        W 5452  19.663  28.501   0.751
33028W        W 5453  25.271  28.256   2.454
33029W        W 5454   1.525  38.003   3.888
33030W        W 5455  26.075  42.685  11.482
33031W        W 5456  13.984   5.218   1.529
33032W        W 5457  40.927  41.060   1.135
33033W        W 5458  21.167  36.674   0.955
33034W        W 5459  26.066  18.116   2.151
33035W        W 5460   4.398  43.902  13.600
33036W        W 5461  20.727   2.405  13.935
33037W        W 5462  27.577  25.183   1.323
33038W        W 5463  37.249  14.838  14.991
33039W        W 5464  40.983   9.492   1.284
33040W        W 5465  25.533   9.559  10.607
33041W        W 5466  15.127  12.388   3.703
33042W        W 5467  29.515  27.161  13.814
33043W        W 5468  14.426  34.914   9.907
33044W        W 5469  21.912  23.125  11.997
33045W        W 5470   9.915   6.704  12.536
33046W        W 5471   0.625  16.497   2.631
33047W        W 5472  19.553   4.903   2.123
33048W        W 5473   4.799   0.523   0.392
33049W        W 5474  23.299  16.236   1.725
33050W        W 5475  34.458  12.303  13.530
33051W        W 5476  17.048  31.608  11.937
33052W        W 5477   1.484  32.404   0.723
33053W        W 5478   2.678  32.472   1.897
33054W        W 5479   0.821  32.184  12.828
33055W        W 5480  40.464  35.001  14.832
33056W        W 5481  38.270  14.806  10.623
33057W        W 5482  13.890  18.035  10.999
33058W        W 5483  41.751  16.186   0.314
33059W        W 5484  40.497  18.290   1.820
33060W        W 5485   3.735  40.232  11.992
33061W        W 5486  19.021   8.169  10.642
33062W        W 5487  14.568  28.557   2.851
33063W        W 5488   0.974  36.884   1.162
33064W        W 5489  27.426  42.130  13.801
33065W        W 5490  42.157  31.524  10.715
33066W        W 5491   4.016  28.745  13.795
33067W        W 5492  11.315  29.205   4.551
33068W        W 5493  35.130   9.120  13.055
33069W        W 5494  32.973  31.668   1.550
33070W        W 5495  15.283   1.013  14.521
33071W        W 5496   7.535  35.953  14.864
33072W        W 5497  31.407  31.546   2.732
33073W        W 5498   4.335  25.662   0.390
33074W        W 5499  40.529  23.271  12.453
33075W        W 5500  25.206  17.159   0.335
33076W        W 5501  42.355  12.364   2.751
33077W        W 5502  23.704  33.250  11.045
33078W        W 5503   8.628  36.956   2.643
33079W        W 5504   1.449  31.895   0.892
33080W        W 5505  21.329  10.441   0.864
33081W        W 5506   6.271  25.948  13.777
33082W        W 5507  12.097  41.979  11.525
33083W        W 5508  38.819  18.578  11.604
33084W        W 5509  29.942  11.295  10.764
33085W        W 5510  20.649  10.954  11.370
33086W        W 5511  17.883  21.221  10.638
33087W        W 5512   7.678  41.795   2.599
33088W        W 5513  13.013  39.944  13.473
33089W        W 5514  10.784  26.875  11.007
33090W        W 5515   0.874  40.815   0.850
33091W        W 5516  35.828  16.634  14.042
33092W        W 5517  33.023  28.650   1.347
33093W        W 5518   0.932  26.615  11.527
33094W        W 5519   6.723  36.963  11.708
33095W        W 5520   1.473  38.873   4.524
33096W        W 5521  43.916  35.795   0.730
33097W        W 5522  37.784   5.737   3.782
33098W        W 5523   6.240   4.797   2.441
33099W        W 5524  11.243  18.262   0.665
33100W        W 5525   6.808  32.139  11.926
33101W        W 5526  31.372  19.569  13.785
33102W        W 5527  37.472  28.179  12.386
33103W        W 5528  23.195  28.701  13.404
33104W        W 5529  36.833  29.203  13.002
33105W        W 5530   9.441   8.230  14.253
33106W        W 5531  42.614  44.510  14.619
33107W        W 5532  30.597   7.268  12.845
33108W        W 5533  40.773  43.130   4.049
33109W        W 5534  29.227  21.539  12.852
33110W        W 5535  30.362   2.616   1.510
33111W        W 5536   3.457  30.841  13.106
33112W        W 5537  32.445  17.162   1.951
33113W        W 5538  36.061  16.221  13.787
33114W        W 5539   1.198  12.289   3.144
33115W        W 5540  39.844  29.925  10.767
33116W        W 5541   9.934  34.918   0.911
33117W        W 5542  39.295   9.624   4.783
33118W        W 5543  20.953  13.079   3.878
33119W        W 5544  16.228  11.378  13.431
33120W        W 5545  33.432   5.836   1.006
33121W        W 5546  31.207  22.396  10.832
33122W        W 5547  17.891  37.773   4.105
33123W        W 5548  14.261  33.890  11.620
33124W        W 5549  35.352  41.069   4.725
33125W        W 5550  12.787   3.442   4.302
33126W        W 5551  12.568  18.117   4.136
33127W        W 5552   1.714  33.004   2.397
33128W        W 5553  17.334  43.003  12.975
33129W        W 5554   6.678  18.112   2.727
33130W        W 5555  39.631  33.071  11.912
33131W        W 5556  31.441  30.097  11.625
33132W        W 5557  34.575  19.722   1.440
33133W        W 5558   4.212  31.777  13.149
33134W        W 5559  39.148  19.512   3.239
33135W        W 5560   0.720  44.820  12.452
33136W        W 5561   9.850  17.269   3.377
33137W        W 5562  13.859  13.445  13.456
33138W        W 5563  31.901  35.960   3.757
33139W        W 5564  23.539  41.328   1.872
33140W        W 5565  16.784  34.578  13.834
33141W        W 5566  29.106   6.719  12.489
33142W        W 5567  31.896  15.111  13.898
33143W        W 5568  21.171  24.715   0.396
33144W        W 5569  35.071  13.678   0.642
33145W        W 5570  21.538  36.622   1.329
33146W        W 5571  20.972   8.492  13.462
33147W        W 5572  31.483  35.378  14.803
33148W        W 5573  30.025  24.213   3.272
33149W        W 5574  17.138   9.994  12.696
33150W        W 5575  12.155  26.494  13.971
33151W        W 5576  12.558  16.608  13.521
33152W        W 5577  33.760  28.402   3.630
33153W        W 5578  28.224  43.073   4.163
33154W        W 5579  27.530  44.552  14.584
33155W        W 5580   0.734  21.189   2.816
33156W        W 5581   7.006  34.922   0.801
33157W        W 5582  23.640  29.715  12.057
33158W        W 5583  30.161  33.682  14.383
33159W        W 5584  29.398  40.562  10.769
33160W        W 5585  14.019  21.040   0.088
33161W        W 5586  10.252  11.693   2.181
33162W        W 5587   2.336  21.618   0.489
33163W        W 5588  20.744   8.257  10.812
33164W        W 5589  22.287  28.228  12.465
33165W        W 5590   5.668  41.495  11.554
33166W        W 5591  35.610  44.589  13.406
33167W        W 5592  33.012  30.124  14.805
33168W        W 5593   2.206  15.995  12.129
33169W        W 5594  10.907   5.589  13.414
33170W        W 5595  41.841  14.325  12.211
33171W        W 5596  44.428  29.360   4.584
33172W        W 5597  18.465  15.398   4.510
33173W        W 5598  15.218  24.983  12.082
33174W        W 5599  32.700  23.618   1.179
33175W        W 5600  14.648   4.812  13.326
33176W        W 5601  41.495  37.799  14.516
33177W        W 5602  13.910   2.072  11.674
33178W        W 5603  44.607  27.058  11.489
33179W        W 5604  40.566  12.435  13.478
33180W        W 5605  20.675  33.346   1.760
33181W        W 5606  38.351  15.087   4.614
33182W        W 5607  16.885  26.211   3.788
33183W        W 5608  21.883   6.658  11.132
33184W        W 5609   0.703   5.611  14.998
33185W        W 5610  42.400  25.960   1.020
33186W        W 5611   8.732   2.256   1.292
33187W        W 5612  41.360  41.954   0.848
33188W        W 5613  15.742  36.063   2.107
33189W        W 5614   6.671  39.257   3.097
33190W        W 5615  15.284  15.220   2.259
33191W        W 5616  28.123  36.534   1.140
33192W        W 5617  11.505   8.287   3.344
33193W        W 5618  39.026  34.035  13.815
33194W        W 5619  22.259  19.115   2.617
33195W        W 5620  22.529  21.480  10.491
33196W        W 5621  37.739  16.521  11.173
33197W        W 5622  22.260  44.863  12.968
33198W        W 5623   8.765  28.093  12.370
33199W        W 5624  22.248  22.166  14.461
33200W        W 5625  14.926  29.649  10.762
33201W        W 5626  24.703  35.013   4.337
33202W        W 5627   5.959  23.337  10.727
33203W        W 5628   2.316   7.848  14.949
33204W        W 5629  13.233  21.141   4.391
33205W        W 5630   5.869  26.103  11.062
33206W        W 5631   1.720   9.820   2.416
33207W        W 5632  35.750   6.412   3.883
33208W        W 5633  32.152   5.846   1.982
33209W        W 5634  28.558  19.900  12.376
33210W        W 5635  11.869  14.341  14.430
33211W        W 5636  15.505   6.871   3.195
33212W        W 5637  18.133   2.233   2.625
33213W        W 5638   1.168  30.177   0.453
33214W        W 5639   0.533  20.043   4.116
33215W        W 5640  44.888  22.024  11.080
33216W        W 5641  41.638  28.522  14.879
33217W        W 5642  25.181   8.035   4.214
33218W        W 5643   6.469   5.254   2.384
33219W        W 5644  11.341   1.529  13.904
33220W        W 5645   0.368  28.054  14.805
33221W        W 5646  43.338  32.498   1.061
33222W        W 5647  26.122  11.247   2.242
33223W        W 5648  27.527  37.562  12.563
33224W        W 5649   4.414  43.504  13.931
33225W        W 5650  21.295  28.081   3.681
33226W        W 5651  14.654  17.774   4.620
33227W        W 5652  27.243   7.665  13.600
33228W        W 5653   3.842  43.984   1.764
33229W        W 5654  36.182  24.288   1.501
33230W        W 5655  12.376   3.712   5.082
33231W        W 5656  37.585  18.577   1.380
33232W        W 5657  38.478  21.001   4.241
33233W        W 5658  18.058  34.201  12.050
33234W        W 5659  16.148  30.393  12.057
33235W        W 5660  39.301  11.372  13.963
33236W        W 5661  10.376  14.479   1.322
33237W        W 5662   2.452   0.765   3.228
33238W        W 5663  20.232   5.120   1.899
33239W        W 5664  18.652  31.602   2.972
33240W        W 5665   7.513  12.903   2.573
33241W        W 5666  13.727  37.933   2.743
33242W        W 5667  22.031  25.090  10.979
33243W        W 5668  17.185  33.487  14.872
33244W        W 5669   9.814  16.751   0.055
33245W        W 5670   0.499  26.614  14.873
33246W        W 5671  24.957  35.405  10.589
33247W        W 5672   6.866  18.551   0.060
33248W        W 5673  17.220   0.449  13.361
33249W        W 5674  10.314   0.838   1.028
33250W        W 5675  32.618  21.715  11.968
33251W        W 5676   8.861   3.747   0.878
33252W        W 5677  24.680  15.764   0.187
33253W        W 5678  18.631  35.377   2.259
33254W        W 5679   6.214  44.430  13.953
33255W        W 5680  31.662  16.071   1.341
33256W        W 5681   8.413   6.738   4.552
33257W        W 5682  40.090  18.366  11.977
33258W        W 5683  24.605  29.745   3.194
33259W        W 5684  21.278  38.957   2.747
33260W        W 5685  40.472  10.022  14.434
33261W        W 5686  12.737  40.801   0.964
33262W        W 5687   1.993  42.073   3.328
33263W        W 5688  28.538  28.097  13.122
33264W        W 5689  27.504   2.849   1.908
33265W        W 5690   7.933  11.291  11.890
33266W        W 5691  38.512   4.434  13.947
33267W        W 5692   6.139   2.738   1.694
33268W        W 5693  33.904  27.505  13.726
33269W        W 5694  32.707  43.385   4.838
33270W        W 5695  42.958  17.015  11.617
33271W        W 5696  13.093  24.172  14.769
33272W        W 5697  21.057   5.650  13.954
33273W        W 5698  37.563  12.819  11.176
33274W        W 5699  23.174  39.352   0.166
33275W        W 5700  32.054   2.142   4.243
33276W        W 5701  15.978  30.093   0.689
33277W        W 5702  14.116   1.413   5.118
33278W        W 5703   7.176   0.301   1.291
33279W        W 5704  10.570  22.350   3.276
33280W        W 5705  17.782  21.632  11.076
33281W        W 5706   8.947  22.286  11.898
33282W        W 5707  23.900  27.288  12.988
33283W        W 5708  12.819   1.430   0.476
33284W        W 5709  16.778  17.354  10.752
33285W        W 5710  24.161  30.032   2.308
33286W        W 5711  41.802  10.723   3.624
33287W        W 5712  38.514  39.491  12.899
33288W        W 5713   7.662   4.511  11.891
33289W        W 5714  34.113  28.193   2.335
33290W        W 5715  10.896  37.629   1.748
33291W        W 5716  13.129  31.663  14.338
33292W        W 5717   7.175  41.417  13.456
33293W        W 5718  29.425  38.301  11.153
33294W        W 5719  16.397  41.411   0.873
33295W        W 5720  29.007  42.980  14.326
33296W        W 5721  29.263  23.499   1.811
33297W        W 5722  26.056   9.279   2.901
33298W        W 5723  14.702  17.221   0.412
33299W        W 5724  43.941  24.762  13.048
33300W        W 5725   1.473  15.138  13.734
33301W        W 5726   0.436  11.842   2.671
33302W        W 5727  27.285  22.434  12.280
33303W        W 5728  16.849   1.351   3.255
33304W        W 5729  25.028  27.493   0.919
33305W        W 5730  28.749  36.196  13.495
33306W        W 5731  10.367  40.470   0.287
33307W        W 5732   2.391  43.038  13.460
33308W        W 5733  44.043  42.467   2.876
33309W        W 5734  27.839  14.188   1.255
33310W        W 5735  39.853   5.697   4.217
33311W        W 5736  43.041  41.481   1.857
33312W        W 5737  44.705   7.999   0.036
33313W        W 5738  16.043  29.652   2.488
33314W        W 5739  18.016  12.756  12.088
33315W        W 5740   1.665  40.798  14.776
33316W        W 5741  30.690   8.673   0.444
33317W        W 5742   5.509  23.631  14.188
33318W        W 5743   2.830  19.765  13.796
33319W        W 5744   3.529  28.668  13.920
33320W        W 5745  21.976  25.120   3.704
33321W        W 5746  10.756  18.853  13.326
33322W        W 5747  17.751  10.441   4.429
33323W        W 5748  14.323  44.206   3.254
33324W        W 5749   7.249  38.212  11.043
33325W        W 5750   3.256   8.316   2.179
33326W        W 5751  17.186   2.043   1.477
33327W        W 5752  41.241  33.326  13.932
33328W        W 5753  21.591  39.009  12.572
33329W        W 5754  35.611  40.915  11.494
33330W        W 5755  44.525  38.075  14.753
33331W        W 5756  30.713  17.495  13.448
33332W        W 5757  23.480  30.696   2.563
33333W        W 5758   1.360  36.516  11.724
33334W        W 5759  38.922   4.441   3.225
33335W        W 5760  24.213  36.432  13.092
33336W        W 5761  30.676  24.031   0.882
33337W        W 5762   0.314   2.600   4.923
33338W        W 5763  18.716  23.552  13.029
33339W        W 5764  32.380  12.198  14.350
33340W        W 5765  26.541   1.809   2.693
33341W        W 5766  35.628  37.602  14.898
33342W        W 5767  32.595  16.811   1.261
33343W        W 5768   3.282  14.723  11.929
33344W        W 5769  13.712   2.684  13.005
33345W        W 5770  35.563  10.613  11.020
33346W        W 5771  44.264  28.436  13.758
33347W        W 5772   3.812  24.594   4.556
33348W        W 5773  17.853  35.954  13.453
33349W        W 5774  19.288  14.535  12.190
33350W        W 5775  12.846   1.640   1.267
33351W        W 5776  35.299  15.108  12.186
33352W        W 5777  38.532   0.860   4.079
33353W        W 5778  30.741  13.402  13.565
33354W        W 5779  25.585  35.514   0.350
33355W        W 5780  31.530  30.427   3.753
33356W        W 5781  19.961  36.417  11.614
33357W        W 5782  25.524  43.861  13.048
33358W        W 5783  13.316  12.292  11.985
33359W        W 5784  31.148  17.041  14.570
33360W        W 5785  31.686  10.728  11.669
33361W        W 5786   2.943   3.812   4.537
33362W        W 5787   7.475  42.553  12.885
33363W        W 5788  25.690  23.653  13.854
33364W        W 5789  30.203  40.374   0.169
33365W        W 5790   4.735   9.746  13.472
33366W        W 5791  29.234  44.811  11.069
33367W        W 5792  43.908   7.628   3.878
33368W        W 5793  26.260  16.298   1.739
33369W        W 5794  41.355  38.595   4.260
33370W        W 5795  33.939  37.356  13.831
33371W        W 5796  37.408  14.351  10.665
33372W        W 5797  25.484  44.547  11.604
33373W        W 5798  31.390  28.837  11.300
33374W        W 5799   5.580   5.391  14.341
33375W        W 5800   4.930   7.412  11.865
33376W        W 5801   6.005  39.298   4.631
33377W        W 5802  13.833  32.634   0.078
33378W        W 5803  18.602  40.744  12.572
33379W        W 5804  38.659  12.549  11.142
33380W        W 5805  21.056  39.976   4.316
33381W        W 5806   6.342  30.169  13.854
33382W        W 5807  26.999  11.734  12.624
33383W        W 5808  23.720  20.693  14.312
33384W        W 5809  40.584  11.182   0.590
33385W        W 5810  38.301  39.456   4.127
33386W        W 5811  20.256  19.544  12.248
33387W        W 5812  36.895  35.801   3.465
33388W        W 5813   0.825   0.855   1.749
33389W        W 5814  31.202   2.236  12.360
33390W        W 5815  24.279  10.331  11.142
33391W        W 5816  34.545   8.202  11.145
33392W        W 5817  30.203   8.935  11.083
33393W        W 5818  28.575   2.955  12.167
33394W        W 5819  12.188   5.337  10.949
33395W        W 5820  17.890   0.185  11.478
33396W        W 5821  24.478  25.094   2.356
33397W        W 5822  39.888  41.900   4.326
33398W        W 5823  21.697   2.503  11.369
33399W        W 5824  18.270  36.897   2.729
33400W        W 5825  36.976  28.673  13.003
33401W        W 5826  41.924  44.096   1.248
33402W        W 5827  20.551  41.707  12.907
33403W        W 5828  37.844   3.200  11.863
33404W        W 5829  11.262  27.616   2.911
33405W        W 5830  27.350  12.689   3.099
33406W        W 5831  14.029   4.723  12.046
33407W        W 5832   8.951   3.469  13.916
33408W        W 5833  26.130  43.972  14.433
33409W        W 5834   5.930  44.166  10.995
33410W        W 5835  39.124  19.785  11.287
33411W        W 5836   7.781  38.536  13.405
33412W        W 5837  30.453  25.662  10.780
33413W        W 5838   8.253   5.220   2.785
33414W        W 5839  12.771  12.900  11.699
33415W        W 5840  30.466  22.065   4.623
33416W        W 5841  32.091  26.619   1.941
33417W        W 5842  28.471  24.928   3.398
33418W        W 5843  12.915  42.606  12.691
33419W        W 5844  23.212   1.273  12.631
33420W        W 5845   7.345   5.257   1.352
33421W        W 5846   9.687  20.672   4.707
33422W        W 5847  37.254  24.187   3.279
33423W        W 5848  11.153  28.057  13.027
33424W        W 5849  13.113  15.050   2.885
33425W        W 5850  14.797  37.539   2.640
33426W        W 5851  44.727   5.432  11.137
33427W        W 5852   1.007  32.196   3.316
33428W        W 5853  33.542  33.936  12.875
33429W        W 5854  22.252  37.570  14.939
33430W        W 5855  38.538   0.908  13.897
33431W        W 5856  39.675   1.412   3.075
33432W        W 5857  21.006  40.147   3.766
33433W        W 5858   4.799  31.321   0.953
33434W        W 5859  33.075  10.241   2.682
33435W        W 5860  23.305  26.156   0.425
33436W        W 5861  34.484  14.161   2.103
33437W        W 5862  33.847  26.915   3.794
33438W        W 5863  15.094  25.727   2.405
33439W        W 5864  16.351  35.086  12.596
33440W        W 5865  10.686  13.306  12.073
33441W        W 5866   4.734   6.445   4.093
33442W        W 5867   4.013  22.591  13.484
33443W        W 5868  43.258   4.736   2.602
33444W        W 5869   4.007   0.727   1.004
33445W        W 5870   0.069  42.746  13.581
33446W        W 5871  12.755  27.491   1.249
33447W        W 5872  19.749  28.067   3.581
33448W        W 5873  39.069  13.198  12.824
33449W        W 5874  12.995  23.729   0.934
33450W        W 5875  17.186  12.419  10.909
33451W        W 5876  30.469  32.337  14.553
33452W        W 5877  27.423  42.349  12.797
33453W        W 5878  20.933  36.839   4.051
33454W        W 5879   7.780  39.017   1.922
33455W        W 5880  26.122  16.305   4.114
33456W        W 5881  39.212  20.682   2.947
33457W        W 5882  15.759  11.592   3.646
33458W        W 5883  27.463  23.316   2.085
33459W        W 5884   2.931  30.583  13.289
33460W        W 5885  39.470  18.406   0.594
33461W        W 5886  16.252  39.640   0.120
33462W        W 5887  34.305   4.331  11.494
33463W        W 5888  37.437  11.284  13.790
33464W        W 5889  23.517  37.504   4.713
33465W        W 5890  23.977  29.059   0.301
33466W        W 5891  23.147  37.020   0.961
33467W        W 5892   5.819   6.901  14.329
33468W        W 5893  27.526   9.782  13.294
33469W        W 5894  33.166   5.238  11.548
33470W        W 5895  41.620  41.579  11.482
33471W        W 5896  30.654  18.218   1.162
33472W        W 5897  22.713  21.830   0.679
33473W        W 5898  12.182   6.911  13.898
33474W        W 5899  26.595  19.670   1.518
33475W        W 5900   3.723  13.711  14.370
33476W        W 5901  15.669   1.693  11.485
33477W        W 5902  16.594   4.092   2.601
33478W        W 5903  23.812  30.697  12.981
33479W        W 5904   5.603   4.435   2.278
33480W        W 5905  35.830  41.190  13.165
33481W        W 5906   2.557  10.921   1.303
33482W        W 5907  43.839  30.860  11.181
33483W        W 5908  12.436  26.034  13.483
33484W        W 5909  31.533  18.823   4.498
33485W        W 5910  29.688  36.108   4.110
33486W        W 5911   8.403  44.424  13.448
33487W        W 5912   2.459  25.204  14.796
33488W        W 5913  12.416  42.295  12.011
33489W        W 5914  28.536  22.789  12.907
33490W        W 5915  11.255  22.282  13.463
33491W        W 5916  41.710  35.167   0.178
33492W        W 5917  19.309  36.523   1.276
33493W        W 5918  30.583  31.933   1.357
33494W        W 5919  25.933   7.543  14.934
33495W        W 5920   8.452  17.228  11.196
33496W        W 5921  14.127  30.813  11.098
33497W        W 5922   9.186  25.967  12.907
33498W        W 5923  23.061  34.465  10.657
33499W        W 5924  28.037  23.509   1.493
33500W        W 5925  17.680  26.647   2.008
33501W        W 5926  14.028  10.292   2.310
33502W        W 5927   4.994  24.172  14.780
33503W        W 5928  32.146  24.487   2.255
33504W        W 5929   7.613   7.963   3.699
33505W        W 5930  25.890  43.905   4.546
33506W        W 5931  36.138  31.336  11.559
33507W        W 5932  15.121  38.768  11.475
33508W        W 5933  34.070  31.857   0.536
33509W        W 5934   6.052   7.764   0.250
33510W        W 5935  16.802  37.378   1.155
33511W        W 5936  23.709  26.935  11.125
33512W        W 5937   4.399  33.995   3.747
33513W        W 5938  33.508   2.851  14.287
33514W        W 5939   1.777  37.697  11.131
33515W        W 5940  33.158  34.531   4.659
33516W        W 5941  42.250  17.762   3.184
33517W        W 5942  33.185  27.447  11.632
33518W        W 5943  41.253   9.488   0.847
33519W        W 5944  16.137  34.292   0.274
33520W        W 5945  37.281  10.804   3.516
33521W        W 5946  11.003  24.090   0.828
33522W        W 5947  19.642  15.772   3.128
33523W        W 5948  43.236  21.033  12.919
33524W        W 5949  23.214  19.324   2.575
33525W        W 5950  31.622  12.889  13.629
33526W        W 5951  25.075   8.438  12.962
33527W        W 5952  13.587  20.170  14.860
33528W        W 5953  15.621  12.902  14.797
33529W        W 5954   5.172  33.030  12.516
33530W        W 5955  36.406  44.018   4.658
33531W        W 5956  25.569  25.202   2.831
33532W        W 5957  41.694  22.632  14.984
33533W        W 5958   2.935  30.835  11.990
33534W        W 5959  35.561  24.095  10.503
33535W        W 5960   0.490   0.688  12.538
33536W        W 5961  15.055   7.785  14.246
33537W        W 5962  43.919   2.714  11.523
33538W        W 5963  11.418  39.465  11.148
33539W        W 5964  26.016   3.044  12.968
33540W        W 5965  14.289   3.684  14.534
33541W        W 5966  42.906   5.692  12.927
33542W        W 5967  12.276  28.275   1.454
33543W        W 5968  42.863  16.635  14.403
33544W        W 5969  32.149  19.569   2.319
33545W        W 5970   7.318   3.542   0.547
33546W        W 5971  10.200  38.577  14.766
33547W        W 5972   5.812  10.476   4.929
33548W        W 5973   0.742  44.035  11.201
33549W        W 5974  30.241  13.607   2.809
33550W        W 5975  14.035  38.362   3.593
33551W        W 5976  28.236  42.766  13.771
33552W        W 5977  20.488  16.860  12.978
33553W        W 5978   1.356  36.701  11.243
33554W        W 5979  31.617  24.549  11.399
33555W        W 5980   0.319  37.965   1.220
33556W        W 5981  44.410  36.454  13.467
33557W        W 5982  10.213   6.542  14.074
33558W        W 5983  24.620  37.188   0.700
33559W        W 5984  14.669  42.705  11.230
33560W        W 5985  19.727  40.336   0.953
33561W        W 5986  24.156  21.573  12.608
33562W        W 5987   2.488  22.515   2.919
33563W        W 5988  36.660   0.234   2.492
33564W        W 5989   6.576  36.616   4.832
33565W        W 5990  32.476   8.631  12.768
33566W        W 5991   8.456  38.582  12.116
33567W        W 5992   0.900   6.275  12.403
33568W        W 5993  16.609   3.151   0.698
33569W        W 5994  24.433  31.479  13.274
33570W        W 5995  40.606  21.577  12.505
33571W        W 5996   5.787  29.093  11.129
33572W        W 5997  37.299  25.777  11.814
33573W        W 5998  19.825  17.542  11.096
33574W        W 5999  12.081  41.512   1.749
33575W        W 6000  22.329  34.034   0.040
33576W        W 6001  34.736  40.504   3.801
33577W        W 6002  44.745  27.622   0.403
33578W        W 6003  37.491   7.820   1.264
33579W        W 6004  40.798   3.751  13.488
33580W        W 6005  31.420  30.110  14.362
33581W        W 6006  33.379  41.546  13.532
33582W        W 6007  13.780  30.160  11.620
33583W        W 6008   1.328   5.266  12.470
33584W        W 6009  26.629  20.076   5.012
33585W        W 6010  18.864  15.889  10.452
33586W        W 6011  19.431  30.568  11.479
33587W        W 6012  18.969   1.846  14.055
33588W        W 6013  41.954  44.290   1.754
33589W        W 6014  19.105   4.422   1.206
33590W        W 6015  29.413   0.514   1.841
33591W        W 6016  26.247  16.148  12.386
33592W        W 6017  22.198  41.760  11.142
33593W        W 6018  35.928  27.774  14.449
33594W        W 6019   8.800  31.624  14.316
33595W        W 6020  38.106  15.265  14.894
33596W        W 6021  34.700   3.871   1.359
33597W        W 6022  23.268  27.255  10.998
33598W        W 6023  27.588   7.509  10.609
33599W        W 6024  34.062  37.127  14.498
33600W        W 6025  32.515  44.374  11.939
33601W        W 6026  36.805  33.706   0.423
33602W        W 6027   7.636  32.243  13.408
33603W        W 6028  18.167  41.572  10.723
33604W        W 6029  29.697  29.584  11.132
33605W        W 6030  40.380   0.337   3.651
33606W        W 6031  43.566  11.745  14.905
33607W        W 6032  31.191   5.726  14.417
33608W        W 6033   4.443  11.357   1.432
33609W        W 6034  43.833  19.819   4.035
33610W        W 6035   1.715  37.412  13.861
33611W        W 6036  22.251  19.217   1.677
33612W        W 6037  17.093  32.058   5.092
33613W        W 6038  25.199  19.529  13.847
33614W        W 6039  43.464  40.572  14.564
33615W        W 6040  40.279   2.977   4.180
33616W        W 6041  43.400   8.711   3.251
33617W        W 6042  26.393   0.220  13.031
33618W        W 6043   9.239  31.035   1.452
33619W        W 6044  44.363   2.355  11.540
33620W        W 6045   0.708  31.125   1.464
33621W        W 6046  28.849   1.973  14.972
33622W        W 6047  25.506  40.499  13.256
33623W        W 6048  29.962   6.833   2.617
33624W        W 6049  38.189  33.586   0.806
33625W        W 6050  31.574  20.661   4.562
33626W        W 6051  43.307  39.974   4.765
33627W        W 6052  28.973  42.760  13.841
33628W        W 6053  20.780  27.486   4.880
33629W        W 6054  25.089  30.612  13.751
33630W        W 6055   3.268  27.570   3.368
33631W        W 6056  32.976  22.593  12.428
33632W        W 6057  26.798  13.491   1.632
33633W        W 6058  22.747  24.604   3.862
33634W        W 6059  34.593  22.924   0.805
33635W        W 6060  13.640  22.532   4.160
33636W        W 6061  15.058  25.936   4.652
33637W        W 6062   1.817  21.119  13.092
33638W        W 6063  34.909  26.559  12.413
33639W        W 6064  11.433  26.983  11.643
33640W        W 6065  43.545  39.249   4.036
33641W        W 6066   8.978   2.300  13.596
33642W        W 6067  42.792  13.400  11.132
33643W        W 6068   7.587  19.719   4.673
33644W        W 6069  28.604  21.943  12.564
33645W        W 6070  44.398  11.744   3.355
33646W        W 6071  17.165  32.557  13.778
33647W        W 6072  23.579  14.302  14.798
33648W        W 6073   1.080  18.222  11.158
33649W        W 6074  28.009  14.418  13.865
33650W        W 6075  18.743  39.760   3.787
33651W        W 6076  43.561  25.193   4.096
33652W        W 6077  15.527  33.994   4.629
33653W        W 6078  42.559  30.061   1.078
33654W        W 6079  30.998  22.091  14.915
33655W        W 6080  22.098  42.244   2.687
33656W        W 6081  38.085  32.702  12.954
33657W        W 6082   5.491   3.091   0.343
33658W        W 6083  25.821  40.917  11.688
33659W        W 6084   8.750  32.117   0.223
33660W        W 6085   5.060   1.461  13.902
33661W        W 6086  18.814  19.694   0.412
33662W        W 6087  29.452  23.789   2.212
33663W        W 6088  15.189  14.355  11.601
33664W        W 6089   3.851   6.476   3.851
33665W        W 6090  10.914  29.981   2.846
33666W        W 6091  21.002  25.590   2.344
33667W        W 6092  40.797  35.718  13.473
33668W        W 6093   1.538  25.994  12.611
33669W        W 6094  24.011  44.267   1.399
33670W        W 6095  35.899   8.431  12.824
33671W        W 6096  30.004  26.151  12.035
33672W        W 6097  31.318  19.622   4.139
33673W        W 6098   9.864  16.069  12.144
33674W        W 6099   0.466  14.698  11.872
33675W        W 6100  30.149  33.049  14.816
33676W        W 6101  19.755  13.543  13.056
33677W        W 6102   7.684  28.495  10.676
33678W        W 6103  39.524  42.928  14.716
33679W        W 6104   8.760  36.576   3.602
33680W        W 6105  31.279  38.597   3.400
33681W        W 6106  27.192   4.848   1.403
33682W        W 6107  33.573  42.722   3.291
33683W        W 6108  25.209   1.682  10.622
33684W        W 6109   4.492  33.161  11.222
33685W        W 6110   0.566  24.985  12.453
33686W        W 6111  19.552   4.733   3.178
33687W        W 6112  36.302  43.836   2.796
33688W        W 6113   1.809  42.232   1.352
33689W        W 6114  30.491  15.162  14.298
33690W        W 6115  30.938  41.057  12.510
33691W        W 6116  19.558  10.870   4.180
33692W        W 6117   9.230  39.862   1.900
33693W        W 6118  17.627   4.667   4.666
33694W        W 6119  26.705  31.809  11.247
33695W        W 6120  40.167  41.963   1.797
33696W        W 6121  39.737  26.217  10.647
33697W        W 6122   6.866  27.897   1.386
33698W        W 6123  20.896  26.629   1.255
33699W        W 6124  40.073   7.642   2.760
33700W        W 6125  15.832  25.078   0.275
33701W        W 6126  24.095  17.839   0.688
33702W        W 6127   0.922  31.711   0.003
33703W        W 6128   3.233  24.448   0.342
33704W        W 6129   6.793  24.435   0.930
33705W        W 6130   4.964  36.533   1.712
33706W        W 6131  23.995  20.658   1.910
33707W        W 6132  42.628   9.312   4.930
33708W        W 6133  21.507  20.663  10.606
33709W        W 6134  25.487   0.401   4.787
33710W        W 6135  30.095  43.443   1.357
33711W        W 6136  39.801  32.232   1.953
33712W        W 6137  12.331  29.146   2.224
33713W        W 6138   7.434   1.362  12.570
33714W        W 6139  31.935  42.703   3.209
33715W        W 6140   1.227   3.289  12.906
33716W        W 6141   9.633  28.904  14.386
33717W        W 6142  15.303  20.003   3.997
33718W        W 6143  23.650  43.463  13.504
33719W        W 6144   8.310  26.552   2.874
33720W        W 6145  12.971  33.519  14.387
33721W        W 6146  34.355  24.764  12.966
33722W        W 6147  11.411  18.256   1.139
33723W        W 6148   0.968  18.773   0.859
33724W        W 6149  14.274   8.905  14.768
33725W        W 6150  36.024   9.674   5.276
33726W        W 6151  31.185  28.118   3.159
33727W        W 6152   3.404   6.467   2.213
33728W        W 6153   0.394  25.363  13.395
33729W        W 6154  11.959   7.231   1.346
33730W        W 6155   6.095  20.223  13.921
33731W        W 6156  37.916  40.093   0.827
33732W        W 6157  16.684  30.950  14.792
33733W        W 6158  16.116  23.711  11.433
33734W        W 6159  27.470  13.596   4.785
33735W        W 6160  13.587  24.626  11.403
33736W        W 6161  21.482   9.599   3.225
33737W        W 6162  24.790   8.175  14.819
33738W        W 6163  39.279  23.542   4.620
33739W        W 6164  37.852  24.663   0.060
33740W        W 6165   5.227  35.033   0.952
33741W        W 6166  13.127   1.807   1.707
33742W        W 6167  22.174   7.533  11.611
33743W        W 6168  40.041  25.370  14.965
33744W        W 6169  38.008   9.767  13.325
33745W        W 6170   1.824  13.074  14.463
33746W        W 6171   6.894  12.431   1.790
33747W        W 6172  27.452  23.612   3.455
33748W        W 6173   5.228  41.271   1.690
33749W        W 6174  25.359  20.681  13.631
33750W        W 6175  14.157  11.329  10.699
33751W        W 6176  21.870   7.254   3.732
33752W        W 6177  16.219  35.514   0.772
33753W        W 6178   2.945  10.249   4.404
33754W        W 6179  25.210  39.385  11.420
33755W        W 6180   9.676   5.466   2.348
33756W        W 6181  35.379  44.383  13.821
33757W        W 6182  39.994  29.969   4.264
33758W        W 6183  44.004   2.926   0.509
33759W        W 6184  36.516  38.883  14.023
33760W        W 6185  40.033  31.409   2.327
33761W        W 6186  28.138  17.508   0.796
33762W        W 6187  24.416  15.673  12.487
33763W        W 6188   4.632  41.487  14.306
33764W        W 6189  25.355  44.101   3.736
33765W        W 6190   3.893  30.800  10.800
33766W        W 6191  15.060  39.625  11.073
33767W        W 6192  39.098  44.843  12.624
33768W        W 6193   5.869  27.428   3.624
33769W        W 6194  36.388  30.885   0.365
33770W        W 6195   9.409   9.773  14.076
33771W        W 6196  39.389  17.293  13.300
33772W        W 6197  13.319  34.882   0.547
33773W        W 6198   5.294  19.426  11.166
33774W        W 6199  27.338  15.302   1.926
33775W        W 6200  34.401  26.904  11.095
33776W        W 6201  24.577  11.149  13.915
33777W        W 6202  12.824  23.589  11.093
33778W        W 6203  21.731  32.532  11.456
33779W        W 6204  20.901   3.604  11.324
33780W        W 6205   2.357  18.677   4.538
33781W        W 6206  10.202  30.144  12.864
33782W        W 6207  19.384  27.797  14.352
33783W        W 6208  44.750   9.912  11.954
33784W        W 6209  42.506  21.598   2.629
33785W        W 6210  13.648  25.999  14.788
33786W        W 6211  30.081  38.775   2.286
33787W        W 6212  29.760  12.228   0.213
33788W        W 6213  19.947   5.220  10.384
33789W        W 6214  24.691   1.834   1.912
33790W        W 6215  11.315   4.727   3.696
33791W        W 6216  39.501  24.970  13.565
33792W        W 6217  20.166  13.806   0.891
33793W        W 6218   2.493   6.939   0.429
33794W        W 6219   9.731  40.294   1.481
33795W        W 6220  19.760  13.261   3.410
33796W        W 6221   7.462   8.957   3.342
33797W        W 6222  15.577  17.681   1.357
33798W        W 6223  24.512  13.417   4.140
33799W        W 6224  29.374  32.039   3.282
33800W        W 6225  43.288  18.657  13.494
33801W        W 6226  17.542  16.527  14.825
33802W        W 6227   5.089  14.210   1.384
33803W        W 6228  32.028  10.224   1.807
33804W        W 6229  32.394   2.958  12.437
33805W        W 6230   6.439   3.185  13.337
33806W        W 6231  36.698  30.281  11.142
33807W        W 6232   5.445  36.600   4.505
33808W        W 6233  42.256  43.208   1.362
33809W        W 6234  16.588  41.523   2.125
33810W        W 6235  19.260  24.550  12.397
33811W        W 6236   3.484   3.872  14.537
33812W        W 6237  14.084   2.911  14.915
33813W        W 6238  26.669  12.853   2.750
33814W        W 6239  43.926  23.848   0.030
33815W        W 6240  33.613  25.712   1.821
33816W        W 6241   6.901  26.481   2.628
33817W        W 6242  19.675  40.891  10.615
33818W        W 6243  44.748  30.916  11.339
33819W        W 6244  11.130   9.258  10.742
33820W        W 6245   3.221  15.659   4.081
33821W        W 6246  39.345  12.583   2.249
33822W        W 6247   5.214  43.097  12.824
33823W        W 6248   9.422  27.932   4.166
33824W        W 6249   1.043  34.270   4.549
33825W        W 6250   0.794  11.165  12.679
33826W        W 6251  42.980  38.973  14.177
33827W        W 6252   0.194  20.715   1.928
33828W        W 6253   3.141  10.598  12.403
33829W        W 6254  15.643   2.616  13.331
33830W        W 6255  16.618  39.850  14.724
33831W        W 6256  38.888  18.209   1.221
33832W        W 6257  41.334   6.744   1.306
33833W        W 6258   7.345  31.374   0.470
33834W        W 6259  39.706   8.374   3.753
33835W        W 6260  15.853  32.712   0.713
33836W        W 6261  14.249   2.330   3.906
33837W        W 6262  21.475   0.200  14.853
33838W        W 6263  44.883  12.182   3.880
33839W        W 6264  38.026  44.254  13.914
33840W        W 6265  33.570  34.388  11.893
33841W        W 6266  33.632  15.560  12.385
33842W        W 6267  28.846  29.710  13.499
33843W        W 6268   0.914   4.336  11.141
33844W        W 6269   7.737  29.911   2.432
33845W        W 6270  10.701  34.554   2.206
33846W        W 6271  43.467  16.275  11.460
33847W        W 6272  13.791  25.654   2.202
33848W        W 6273  17.562  34.387   3.214
33849W        W 6274  11.235  36.873  11.132
33850W        W 6275  16.594  16.104   2.161
33851W        W 6276  42.477  25.622  10.823
33852W        W 6277  34.436  26.201  10.620
33853W        W 6278  15.781  30.539   2.403
33854W        W 6279  13.587  42.926   3.133
33855W        W 6280  16.024  44.227  10.237
33856W        W 6281  39.871  34.455  13.840
33857W        W 6282   6.661  20.752   1.924
33858W        W 6283  34.091  32.381   4.674
33859W        W 6284  12.615  43.687   3.682
33860W        W 6285  43.510  34.638   2.353
33861W        W 6286  41.833  25.101   0.074
33862W        W 6287  34.455  33.652  11.070
33863W        W 6288  15.589   3.357   3.763
33864W        W 6289  41.331  21.084  10.600
33865W        W 6290  20.242  11.678  11.630
33866W        W 6291   1.025  23.508  10.965
33867W        W 6292  27.597  13.717   1.402
33868W        W 6293  17.365  13.074   4.599
33869W        W 6294  38.130  40.252  12.599
33870W        W 6295  21.177   0.803   2.790
33871W        W 6296  14.360  32.388  13.383
33872W        W 6297  28.852  41.996  12.624
33873W        W 6298   6.459  10.146   3.779
33874W        W 6299  20.588  22.788  11.472
33875W        W 6300   1.474  43.797  14.434
33876W        W 6301  25.564  40.448  14.955
33877W        W 6302  38.074  20.078   3.585
33878W        W 6303  34.636  25.251  12.089
33879W        W 6304  11.628  28.254  14.796
33880W        W 6305  30.883  15.587   2.171
33881W        W 6306  28.421   8.947   2.340
33882W        W 6307  42.761  26.764   1.828
33883W        W 6308  27.102  39.809  13.742
33884W        W 6309  27.683  23.090  10.734
33885W        W 6310   5.937  41.752   3.885
33886W        W 6311  44.318   4.712   1.685
33887W        W 6312  43.870  41.300   1.271
33888W        W 6313   1.970  37.032   3.853
33889W        W 6314  19.070  41.592   3.686
33890W        W 6315   1.881  17.888  14.086
33891W        W 6316  27.552  37.414   4.784
33892W        W 6317  21.080  22.006   3.298
33893W        W 6318   9.185   9.342   4.201
33894W        W 6319  32.105  24.602  11.186
33895W        W 6320  40.156  28.037  11.060
33896W        W 6321   6.217  26.964  13.865
33897W        W 6322   7.596  15.324   2.370
33898W        W 6323  17.688  14.274   3.681
33899W        W 6324  30.010  26.702  14.296
33900W        W 6325  24.641  20.362  11.948
33901W        W 6326  11.684  13.855  14.635
33902W        W 6327  36.128  17.335   2.656
33903W        W 6328  12.375  32.956  13.286
33904W        W 6329  18.460   4.660  11.547
33905W        W 6330   4.993  21.582  11.998
33906W        W 6331  37.053  41.339   2.425
33907W        W 6332  21.085  35.835  11.925
33908W        W 6333   1.854   8.958   1.952
33909W        W 6334  41.927  15.344  12.419
33910W        W 6335  36.052  18.608  12.387
33911W        W 6336  36.053  24.955  12.542
33912W        W 6337  28.211  35.785  12.420
33913W        W 6338  42.167  38.431  11.421
33914W        W 6339  36.178  31.576  12.012
33915W        W 6340  22.071  18.253   2.757
33916W        W 6341  38.344  13.033  13.449
33917W        W 6342  35.323  16.724  13.918
33918W        W 6343  32.122  25.574  12.590
33919W        W 6344   7.295  34.449   3.715
33920W        W 6345  35.283  20.005   2.228
33921W        W 6346  11.703  23.827  11.584
33922W        W 6347   8.302  29.308  10.661
33923W        W 6348  32.426  30.054   0.636
33924W        W 6349  38.815  33.839  10.852
33925W        W 6350  16.997   6.152   1.341
33926W        W 6351  22.423  27.640   3.686
33927W        W 6352  29.139   4.711   2.230
33928W        W 6353  27.238  30.175   5.059
33929W        W 6354   6.926  26.954  11.525
33930W        W 6355  31.734  28.188  12.397
33931W        W 6356  15.115  18.623  13.270
33932W        W 6357   4.163  40.852   1.369
33933W        W 6358  43.415   8.492   0.216
33934W        W 6359   2.643  18.145  11.556
33935W        W 6360  30.201  11.265  12.776
33936W        W 6361  17.084  40.634  11.415
33937W        W 6362  35.564   1.913  13.410
33938W        W 6363  35.017   9.466   9.573
33939W        W 6364  28.153   7.436   4.362
33940W        W 6365  33.435  27.135   4.585
33941W        W 6366  23.059  22.162   0.009
33942W        W 6367  15.244   4.063  10.158
33943W        W 6368  19.312  12.043   0.542
33944W        W 6369  36.734   3.711   3.180
33945W        W 6370   0.218  38.529  11.175
33946W        W 6371   3.673  33.592   0.198
33947W        W 6372  28.160  41.604  12.589
33948W        W 6373  13.775  33.812  13.844
33949W        W 6374  40.830  11.606  13.450
33950W        W 6375  29.162  22.154   1.875
33951W        W 6376  22.124  25.624  11.647
33952W        W 6377  37.997  17.524  12.510
33953W        W 6378   1.601  33.737   0.737
33954W        W 6379  15.930  29.492  11.905
33955W        W 6380  18.474  16.045   2.657
33956W        W 6381  22.231  43.999   3.655
33957W        W 6382  27.912  29.930  13.117
33958W        W 6383  22.779  28.133  14.232
33959W        W 6384   6.333  27.405  12.031
33960W        W 6385  19.322   4.547  12.123
33961W        W 6386  38.094  36.339   1.980
33962W        W 6387  24.935   4.368  11.496
33963W        W 6388  30.467  22.671  11.142
33964W        W 6389  28.136  14.540   0.712
33965W        W 6390   0.027  43.808   0.411
33966W        W 6391  43.280  34.019  10.865
33967W        W 6392   6.983  43.761  12.907
33968W        W 6393   5.382  39.790  12.018
33969W        W 6394  23.616  37.902  10.574
33970W        W 6395  44.726   8.516  12.421
33971W        W 6396   9.937  20.548  14.195
33972W        W 6397   9.371  44.270  12.410
33973W        W 6398   4.880  28.020   3.284
33974W        W 6399   1.950  30.852   2.121
33975W        W 6400  31.694  18.370   4.748
33976W        W 6401  42.019  43.856  14.367
33977W        W 6402   2.853   1.003  10.595
33978W        W 6403   0.817  30.413   4.240
33979W        W 6404   4.269   7.315   3.578
33980W        W 6405  37.316  21.062   2.414
33981W        W 6406   7.291   7.522  14.918
33982W        W 6407  30.042  39.024   0.632
33983W        W 6408  16.219  25.664   3.260
33984W        W 6409  27.865  16.696  10.634
33985W        W 6410  29.726  22.355  14.222
33986W        W 6411  15.632  25.645   0.908
33987W        W 6412   6.929  39.033  13.968
33988W        W 6413  33.939   4.688  12.401
33989W        W 6414   2.888   3.336   2.878
33990W        W 6415   8.833  12.913  12.519
33991W        W 6416  24.588  17.791   2.847
33992W        W 6417   2.921  24.120  12.892
33993W        W 6418  34.566  27.895   1.247
33994W        W 6419  43.628   5.601  14.488
33995W        W 6420   4.752  43.904  13.236
33996W        W 6421  18.836  11.204   2.726
33997W        W 6422   6.356  19.983  11.859
33998W        W 6423  15.026  38.389   1.813
33999W        W 6424  36.944  14.301  12.045
34000W        W 6425  40.992  10.291   4.777
34001W        W 6426   5.068  14.110  14.540
34002W        W 6427  13.051  17.600   0.934
34003W        W 6428  35.106  12.266  11.497
34004W        W 6429  14.846  30.545   1.863
34005W        W 6430  25.721  38.097   1.920
34006W        W 6431  26.517  27.726  14.354
34007W        W 6432  29.283  25.990  14.793
34008W        W 6433   3.274  39.047  11.063
34009W        W 6434  26.660  14.170  12.928
34010W        W 6435  24.647  42.500  11.455
34011W        W 6436   2.936  15.334  12.540
34012W        W 6437  43.065  21.266   5.152
34013W        W 6438   5.539  11.339   1.834
34014W        W 6439  40.344  39.456   4.369
34015W        W 6440  30.955  25.415   4.517
34016W        W 6441  27.530   2.200   0.946
34017W        W 6442  38.553  36.027  13.004
34018W        W 6443   2.849   7.349  11.819
34019W        W 6444  16.212  44.957  13.890
34020W        W 6445  14.373  40.535   3.643
34021W        W 6446   9.595   3.382   0.106
34022W        W 6447  28.731  22.206  10.254
34023W        W 6448  30.478  37.372  11.976
34024W        W 6449  28.785  26.363  14.849
34025W        W 6450   6.351  28.609  10.198
34026W        W 6451  12.530  16.597  11.314
34027W        W 6452  35.947   0.953   2.293
34028W        W 6453  27.996  31.067   2.645
34029W        W 6454   8.860  32.840   0.763
34030W        W 6455  15.822  26.070  11.301
34031W        W 6456  32.967  43.004   3.277
34032W        W 6457  40.092  26.062  12.010
34033W        W 6458  11.348  21.822  14.081
34034W        W 6459   9.421  38.098  13.969
34035W        W 6460  44.474  18.738   3.688
34036W        W 6461  42.779  20.467   0.414
34037W        W 6462  33.164  33.347   1.862
34038W        W 6463  44.068  33.931   4.500
34039W        W 6464  17.205  30.632  14.925
34040W        W 6465  38.637  32.864  11.906
34041W        W 6466   4.908  42.320   3.194
34042W        W 6467  11.343  34.909  13.277
34043W        W 6468  14.709  22.620   4.666
34044W        W 6469  32.731  21.288  12.975
34045W        W 6470  34.447  28.203   1.619
34046W        W 6471  19.128   7.233   0.510
34047W        W 6472  30.547  28.598   4.394
34048W        W 6473   3.905  42.369   4.148
34049W        W 6474  28.200  23.574  13.542
34050W        W 6475   0.797  31.270  14.541
34051W        W 6476  18.704  42.880  11.269
34052W        W 6477  32.572   3.834  14.810
34053W        W 6478  44.961   8.787   1.318
34054W        W 6479  33.627  19.850  14.515
34055W        W 6480  24.735  35.323  11.059
34056W        W 6481  20.482  13.384   0.353
34057W        W 6482  22.463  30.639   1.850
34058W        W 6483  13.783   9.112   1.413
34059W        W 6484  27.918  27.531   3.196
34060W        W 6485  32.856  39.471  13.948
34061W        W 6486   7.916   4.757   4.912
34062W        W 6487  38.158  12.683  11.205
34063W        W 6488  10.108  15.580  14.282
34064W        W 6489  11.393  13.418  12.534
34065W        W 6490   3.133  15.261  14.392
34066W        W 6491  16.391  33.800   0.377
34067W        W 6492  13.739  17.684   3.224
34068W        W 6493  17.363  13.633   1.815
34069W        W 6494  39.676  18.082  13.658
34070W        W 6495  28.213  21.540  11.154
34071W        W 6496  42.100  34.297   3.865
34072W        W 6497  21.113  31.138  13.045
34073W        W 6498  28.889   3.013  14.995
34074W        W 6499   6.347  13.420  11.196
34075W        W 6500  17.180  10.905  12.326
34076W        W 6501  34.686  22.664  14.954
34077W        W 6502  17.744  37.380  12.453
34078W        W 6503  15.632   8.199  12.217
34079W        W 6504  23.832   3.141   0.105
34080W        W 6505  12.287  13.511   1.439
34081W        W 6506  10.663  15.991   4.212
34082W        W 6507  30.633  21.053   0.879
34083W        W 6508  29.602  38.884   9.778
34084W        W 6509  21.529  24.424   0.138
34085W        W 6510   3.714  13.218   1.964
34086W        W 6511  14.326   2.952   1.262
34087W        W 6512  33.775  12.985  12.006
34088W        W 6513  43.664  34.886  12.019
34089W        W 6514  26.758  21.607  12.355
34090W        W 6515   2.008  26.720   4.185
34091W        W 6516  16.069  42.544  10.544
34092W        W 6517   9.728  19.675  11.950
34093W        W 6518  15.763  13.226   3.401
34094W        W 6519  13.311  22.589   4.743
34095W        W 6520  20.261  35.023  14.446
34096W        W 6521  34.580  10.328  13.294
34097W        W 6522  12.782  36.949   3.087
34098W        W 6523  41.967   8.149   2.448
34099W        W 6524  19.781  20.779   3.614
34100W        W 6525  26.681  29.998   0.797
34101W        W 6526  11.545   9.337   4.098
34102W        W 6527  20.506  11.057   0.718
34103W        W 6528  34.417  41.994   2.554
34104W        W 6529  33.113  34.980  12.001
34105W        W 6530  42.357  44.328   3.743
34106W        W 6531  41.331  10.961  11.648
34107W        W 6532  21.137   9.690   5.450
34108W        W 6533   6.707  10.187   1.511
34109W        W 6534  29.191  43.214   3.264
34110W        W 6535  19.269   6.385   4.599
34111W        W 6536   7.356  15.231  12.000
34112W        W 6537  20.651  34.423   4.094
34113W        W 6538  41.090  38.538  14.875
34114W        W 6539  26.362  43.208   4.180
34115W        W 6540  39.055  40.761   1.280
34116W        W 6541  26.144  24.582   0.422
34117W        W 6542  28.717  23.935   3.490
34118W        W 6543  40.846   7.566   2.287
34119W        W 6544   5.041  42.275   1.669
34120W        W 6545  20.193  26.260  13.022
34121W        W 6546   5.801   5.123  12.097
34122W        W 6547   9.133  15.195   0.725
34123W        W 6548  15.967  32.924  11.117
34124W        W 6549  16.494  11.856   2.231
34125W        W 6550  16.948   2.173  14.938
34126W        W 6551  41.957  41.913   1.576
34127W        W 6552   4.975  23.095  14.265
34128W        W 6553  18.334   7.973  12.204
34129W        W 6554  34.656   2.868   4.543
34130W        W 6555  42.027   0.868  13.058
34131W        W 6556  19.322  21.564  14.335
34132W        W 6557  40.039   3.281  12.549
34133W        W 6558  37.016   9.995  12.991
34134W        W 6559  30.384  24.317  13.517
34135W        W 6560  21.664  17.100   1.295
34136W        W 6561  14.572  25.262   1.836
34137W        W 6562   4.932  44.276   3.755
34138W        W 6563  43.078  20.149   2.072
34139W        W 6564  12.736  25.541  10.295
34140W        W 6565   1.271  31.533  10.885
34141W        W 6566  25.519  17.628  11.749
34142W        W 6567   7.721  20.534   3.192
34143W        W 6568  33.882  38.505   3.651
34144W        W 6569  23.093  20.604   2.351
34145W        W 6570  11.847   1.828  10.085
34146W        W 6571   0.840  10.220   2.320
34147W        W 6572  29.011  40.202  12.301
34148W        W 6573  28.911  29.094  12.836
34149W        W 6574  40.767  16.580  14.656
34150W        W 6575  24.475  28.076   2.866
34151W        W 6576   6.996  27.486   2.616
34152W        W 6577  26.625  17.422  13.513
34153W        W 6578  31.376  20.548   1.348
34154W        W 6579  41.492  24.923  11.556
34155W        W 6580  11.887  41.598  12.452
34156W        W 6581  25.637  12.131   3.989
34157W        W 6582  27.853   9.374   2.805
34158W        W 6583  44.513  38.152  11.581
34159W        W 6584  17.837  34.764   3.404
34160W        W 6585  13.756   6.333   1.968
34161W        W 6586  34.542  28.398  12.431
34162W        W 6587  43.863   6.966  14.110
34163W        W 6588  26.432  44.806  12.325
34164W        W 6589   6.457  36.995  13.471
34165W        W 6590   3.172  24.394  14.454
34166W        W 6591  32.434  11.259  13.473
34167W        W 6592   1.467  40.377   3.866
34168W        W 6593   2.706  16.634   3.865
34169W        W 6594  27.417  16.226  14.845
34170W        W 6595   8.366  27.412  11.858
34171W        W 6596   6.194  18.242   2.873
34172W        W 6597  23.315  43.212  14.451
34173W        W 6598   2.931  10.109   0.771
34174W        W 6599  42.860  10.344   3.437
34175W        W 6600  22.657  23.701   0.907
34176W        W 6601  17.130   5.002  11.314
34177W        W 6602   5.839   0.834   0.279
34178W        W 6603  12.153  13.206   0.757
34179W        W 6604   7.543  41.609   4.324
34180W        W 6605  20.942  20.641  13.060
34181W        W 6606  37.369   7.307   1.383
34182W        W 6607  27.140  28.130   3.172
34183W        W 6608   3.946  28.126   3.273
34184W        W 6609   5.037  10.571  12.507
34185W        W 6610   5.370  31.071   3.705
34186W        W 6611  43.507  10.458  11.173
34187W        W 6612   6.822  29.002   0.583
34188W        W 6613  15.471  33.083  11.205
34189W        W 6614  26.429  23.682   4.239
34190W        W 6615  21.568  25.886  14.949
34191W        W 6616  18.582  11.321   3.193
34192W        W 6617  24.734  36.878  11.107
34193W        W 6618  14.884  44.722   2.398
34194W        W 6619  41.392  12.218   0.431
34195W        W 6620  11.192  19.657   5.073
34196W        W 6621   2.881   3.749   3.169
34197W        W 6622  36.935  34.861  13.422
34198W        W 6623  11.613  33.006   0.763
34199W        W 6624  31.171  36.933   4.539
34200W        W 6625  41.773  40.405   0.388
34201W        W 6626   5.478  28.533  10.508
34202W        W 6627   9.452  36.450   2.702
34203W        W 6628  31.638  34.480  13.466
34204W        W 6629  25.738  30.575  11.487
34205W        W 6630  14.221  22.694  14.949
34206W        W 6631  36.328   2.747  12.793
34207W        W 6632  25.667   8.782   1.437
34208W        W 6633  38.448  22.205  13.289
34209W        W 6634  37.516  12.506  14.347
34210W        W 6635  39.499  13.145   3.344
34211W        W 6636   6.259  36.184  11.573
34212W        W 6637   1.129   7.517   4.213
34213W        W 6638   1.584  41.747   3.613
34214W        W 6639   0.382  39.541  14.920
34215W        W 6640  41.317   2.830   2.230
34216W        W 6641  42.901  31.549  13.801
34217W        W 6642  33.980  14.317  10.897
34218W        W 6643   6.407  19.089   4.484
34219W        W 6644  24.183  22.764   3.917
34220W        W 6645  38.917  19.689  12.556
34221W        W 6646  39.831  25.529  12.593
34222W        W 6647  44.459  25.876   9.992
34223W        W 6648   7.406  36.530   4.630
34224W        W 6649  11.943  16.099   2.612
34225W        W 6650  32.456  21.488  13.357
34226W        W 6651  35.026  27.229  14.907
34227W        W 6652  33.119  19.570  12.338
34228W        W 6653  29.437  31.577   0.235
34229W        W 6654  37.037  44.888   2.385
34230W        W 6655  14.758  33.844  12.398
34231W        W 6656  43.917  38.382  12.165
34232W        W 6657  43.278  21.236   0.858
34233W        W 6658  19.495  36.072   2.561
34234W        W 6659  16.337   8.913  13.564
34235W        W 6660  43.781  27.738  11.437
34236W        W 6661  27.237  44.757  11.664
34237W        W 6662  35.054  25.503   0.287
34238W        W 6663   7.921  16.635   1.158
34239W        W 6664   3.736  31.575  14.026
34240W        W 6665  29.186  36.337  14.893
34241W        W 6666  17.710   4.304   0.729
34242W        W 6667  38.307  35.264  11.847
34243W        W 6668   6.477   6.352   3.526
34244W        W 6669  29.769  30.841   0.791
34245W        W 6670  31.653   9.620   2.170
34246W        W 6671  23.936  21.704  10.511
34247W        W 6672   8.353   2.730  12.212
34248W        W 6673   5.354  42.715  14.709
34249W        W 6674  22.989  18.755   0.445
34250W        W 6675  42.377  20.629  13.267
34251W        W 6676  24.070  19.344   2.750
34252W        W 6677  13.428  34.635  13.955
34253W        W 6678   1.809  22.744   0.615
34254W        W 6679   7.643  41.058  13.393
34255W        W 6680  35.379  12.810  12.541
34256W        W 6681  38.476   7.675  14.340
34257W        W 6682  11.550  39.133   2.250
34258W        W 6683  24.945  44.264  12.042
34259W        W 6684  17.199   5.927   2.315
34260W        W 6685  40.369  39.809   0.816
34261W        W 6686  29.433  11.622  14.429
34262W        W 6687  26.947  11.769  11.630
34263W        W 6688  17.094  39.797  14.529
34264W        W 6689  15.323  38.576  11.009
34265W        W 6690   7.246  37.863  12.647
34266W        W 6691  15.400  26.122   1.875
34267W        W 6692  17.245  23.730   1.991
34268W        W 6693  10.518  31.976   4.089
34269W        W 6694  42.652  28.583   4.949
34270W        W 6695   5.794  43.887  10.566
34271W        W 6696  14.688  42.340  13.045
34272W        W 6697  37.089  33.053  10.402
34273W        W 6698  19.067  11.153   1.264
34274W        W 6699  43.739  43.604  11.132
34275W        W 6700  44.209   7.758   3.173
34276W        W 6701  10.435  23.903  10.381
34277W        W 6702  40.948  36.127   2.162
34278W        W 6703  41.339   5.290  13.864
34279W        W 6704   4.672  36.769  14.831
34280W        W 6705  38.550  26.139   3.346
34281W        W 6706   4.694   1.992  12.176
34282W        W 6707  34.024  44.527   1.823
34283W        W 6708  18.037  36.329  13.097
34284W        W 6709  31.182  16.726   4.317
34285W        W 6710  15.361  20.621  12.608
34286W        W 6711   7.657   1.789  12.875
34287W        W 6712  21.780  33.388   1.077
34288W        W 6713  23.988  10.796   0.734
34289W        W 6714   5.388  27.628   3.617
34290W        W 6715  34.870  31.482   3.722
34291W        W 6716  28.532  38.528  12.080
34292W        W 6717  28.679   7.018  12.388
34293W        W 6718  22.662  30.969   1.207
34294W        W 6719  42.137   4.463   4.139
34295W        W 6720   9.574  33.476   4.447
34296W        W 6721  38.315   1.281  11.809
34297W        W 6722   5.466   6.775  13.354
34298W        W 6723  17.916  28.416   1.082
34299W        W 6724  34.364  13.762  11.425
34300W        W 6725   2.122  16.740   0.083
34301W        W 6726  16.375  14.814   4.836
34302W        W 6727  19.574  15.270   2.823
34303W        W 6728  42.278   7.432  12.344
34304W        W 6729  27.209  23.680  11.182
34305W        W 6730  19.701  10.793  12.135
34306W        W 6731  20.272   7.841   0.219
34307W        W 6732  32.580  27.318   2.241
34308W        W 6733  25.793  24.962  14.995
34309W        W 6734  42.506  39.344  13.460
34310W        W 6735  41.960  10.437   0.580
34311W        W 6736   7.828  27.295  14.527
34312W        W 6737  16.483  34.547   9.560
34313W        W 6738   2.349   4.895   4.641
34314W        W 6739  38.350  26.270   4.728
34315W        W 6740   8.608  30.321  13.802
34316W        W 6741  29.228   0.659   1.379
34317W        W 6742  24.147  41.116  10.180
34318W        W 6743  33.989  19.164   3.185
34319W        W 6744  42.453   7.317   4.497
34320W        W 6745   2.463   4.354   0.015
34321W        W 6746  43.960  32.559   4.700
34322W        W 6747  11.547  35.903  14.373
34323W        W 6748  19.767  27.205  11.884
34324W        W 6749   1.346  16.515  11.891
34325W        W 6750   5.252  17.014   2.126
34326W        W 6751  15.579   3.939  14.933
34327W        W 6752  33.625  25.540   0.202
34328W        W 6753   5.287  17.447  14.056
34329W        W 6754  21.721   1.922  13.068
34330W        W 6755  38.728   0.302  12.925
34331W        W 6756  31.042   7.151   0.747
34332W        W 6757  32.426  28.757  11.828
34333W        W 6758  11.268  43.369   3.245
34334W        W 6759  43.965   7.609   2.500
34335W        W 6760  42.394  22.758  11.023
34336W        W 6761  26.143   1.542   1.058
34337W        W 6762  13.326  16.089  12.114
34338W        W 6763  32.647  16.701   3.857
34339W        W 6764  11.080  36.381  11.812
34340W        W 6765   3.414  13.540   0.644
34341W        W 6766  31.652  24.027  12.833
34342W        W 6767  22.707  31.341   3.695
34343W        W 6768  18.048  21.345  13.077
34344W        W 6769   4.997  36.865   4.386
34345W        W 6770  41.621  30.699  13.791
34346W        W 6771  11.816  10.092  13.635
34347W        W 6772  39.993  34.021  11.407
34348W        W 6773  29.090  20.077  11.446
34349W        W 6774  40.912  33.925   3.092
34350W        W 6775   1.649  29.405   0.872
34351W        W 6776  38.193  43.678   3.364
34352W        W 6777   7.663  22.246   3.319
34353W        W 6778   6.926  21.793  12.610
34354W        W 6779   5.132   4.298   2.445
34355W        W 6780  32.554  31.700   3.279
34356W        W 6781  34.608  26.142   3.806
34357W        W 6782  37.749  17.747   0.806
34358W        W 6783  31.973  37.784  12.506
34359W        W 6784  29.156   5.195  10.446
34360W        W 6785  34.602  20.293  13.008
34361W        W 6786  38.344  38.446  14.885
34362W        W 6787  37.396  26.873   3.415
34363W        W 6788  30.412  32.461  12.173
34364W        W 6789  37.620  21.484  12.470
34365W        W 6790   8.629  34.160  11.530
34366W        W 6791  11.643  21.649   1.270
34367W        W 6792  24.380  15.101   0.318
34368W        W 6793  18.810  25.432  10.709
34369W        W 6794  26.544  38.748   1.803
34370W        W 6795   4.215   3.803   4.282
34371W        W 6796   4.855   9.878   2.273
34372W        W 6797  11.723  44.948  12.529
34373W        W 6798  29.644  31.850   1.228
34374W        W 6799  29.511  17.669   1.203
34375W        W 6800  22.158   7.927   4.514
34376W        W 6801  19.192   3.404  11.208
34377W        W 6802  42.721   2.253  10.848
34378W        W 6803  19.559  33.526  11.464
34379W        W 6804   4.261  18.403   0.888
34380W        W 6805  20.344   6.129   3.835
34381W        W 6806  42.195   1.924  14.810
34382W        W 6807  13.345  39.778   2.633
34383W        W 6808  22.587  10.989   1.670
34384W        W 6809  33.041  12.611   1.922
34385W        W 6810  10.792   6.916  14.548
34386W        W 6811   1.175  18.337   3.134
34387W        W 6812  11.513  24.166  14.947
34388W        W 6813   0.094  27.053  11.699
34389W        W 6814  26.017  32.067   3.377
34390W        W 6815   1.306   0.848  11.497
34391W        W 6816  25.940  40.516  12.013
34392W        W 6817  25.582  30.679   0.789
34393W        W 6818  41.867   7.316   1.734
34394W        W 6819  30.993  33.185  12.605
34395W        W 6820  19.749  25.573   1.842
34396W        W 6821   5.442   6.537   2.689
34397W        W 6822  14.770  33.291   1.844
34398W        W 6823  20.504   1.252   2.794
34399W        W 6824  19.272  25.708   2.820
34400W        W 6825   8.573  18.609   1.760
34401W        W 6826  26.432  21.145   3.312
34402W        W 6827  15.603   7.710  11.647
34403W        W 6828  35.981  15.860  14.700
34404W        W 6829  19.766   2.504  11.519
34405W        W 6830  34.282  16.802  13.941
34406W        W 6831  33.335  37.354   0.528
34407W        W 6832  22.575   1.257   3.251
34408W        W 6833   9.987  29.525  13.438
34409W        W 6834   7.738  29.394   2.413
34410W        W 6835  17.273  23.734  14.361
34411W        W 6836  24.053  20.780  10.629
34412W        W 6837  36.496  24.029   4.751
34413W        W 6838  10.826  23.024   1.937
34414W        W 6839  44.001   0.694   0.424
34415W        W 6840  20.533   3.195   2.453
34416W        W 6841  33.389   7.020  12.087
34417W        W 6842  17.758  44.102   0.277
34418W        W 6843  14.655  43.896  13.351
34419W        W 6844  15.962   5.306   2.296
34420W        W 6845  25.631  25.445  13.077
34421W        W 6846   6.971  15.132  14.979
34422W        W 6847  17.200   6.829  11.525
34423W        W 6848  31.037  41.291   2.757
34424W        W 6849  18.870  20.319  11.069
34425W        W 6850  15.777  14.570   4.650
34426W        W 6851  19.742  15.721   2.622
34427W        W 6852   8.054  36.936   1.773
34428W        W 6853  13.717  16.773   3.758
34429W        W 6854  12.761   3.686  13.060
34430W        W 6855  33.192  17.752  14.848
34431W        W 6856  29.579  40.468  13.948
34432W        W 6857  44.858  42.489   2.944
34433W        W 6858  34.054  44.674  13.923
34434W        W 6859  20.851   1.243  11.187
34435W        W 6860  39.291  19.248   2.786
34436W        W 6861  39.959  19.329   1.375
34437W        W 6862  43.762   6.900   2.232
34438W        W 6863   7.777  40.540   9.937
34439W        W 6864   7.624  38.301  13.823
34440W        W 6865  30.213   4.430   1.362
34441W        W 6866  13.055  34.374  10.989
34442W        W 6867  19.762  32.314   3.284
34443W        W 6868   2.954  43.977  14.064
34444W        W 6869  16.798  29.847  13.996
34445W        W 6870   7.368  29.675   0.773
34446W        W 6871  19.852  43.076   3.252
34447W        W 6872  26.136  28.383   2.359
34448W        W 6873  13.398   1.005   4.129
34449W        W 6874  35.141   9.831  13.750
34450W        W 6875   3.462  32.100   0.257
34451W        W 6876   1.532  11.357  11.125
34452W        W 6877  17.184  40.411  11.866
34453W        W 6878  24.078  37.364   4.242
34454W        W 6879  16.058   0.746  10.472
34455W        W 6880  28.667  11.667   0.944
34456W        W 6881  10.445  18.342  11.021
34457W        W 6882  20.496  22.559   0.591
34458W        W 6883  32.120  23.954  12.475
34459W        W 6884   1.706  17.257  13.430
34460W        W 6885   5.824   1.675   2.878
34461W        W 6886  27.030  39.568   1.691
34462W        W 6887  25.469  30.686  12.396
34463W        W 6888  13.634  25.377   2.690
34464W        W 6889  30.901   6.387  13.590
34465W        W 6890  27.668   3.379   4.238
34466W        W 6891  18.548  15.852  11.659
34467W        W 6892  28.532   0.002  12.481
34468W        W 6893  35.170  31.353   0.356
34469W        W 6894  36.214  24.440   2.563
34470W        W 6895  44.899   7.674   4.333
34471W        W 6896  33.276  37.886   3.386
34472W        W 6897  38.869  43.271  12.816
34473W        W 6898  43.282  36.473  14.429
34474W        W 6899   1.918  35.040   2.862
34475W        W 6900  34.897  16.411  11.202
34476W        W 6901  23.271  31.652   4.597
34477W        W 6902  33.377  40.520  11.381
34478W        W 6903  23.099   4.915   4.807
34479W        W 6904   7.149  33.890   3.520
34480W        W 6905  11.215  10.694  11.094
34481W        W 6906  39.323  34.377  14.557
34482W        W 6907  44.381   5.290   2.233
34483W        W 6908  24.659  23.724  14.068
34484W        W 6909  23.904   0.797   2.640
34485W        W 6910   3.815  32.033  13.804
34486W        W 6911  24.145  29.355   1.175
34487W        W 6912  44.583  41.153  11.640
34488W        W 6913  27.288   3.415  14.226
34489W        W 6914  29.106  41.808  12.180
34490W        W 6915  19.577   7.914   0.542
34491W        W 6916  15.983  40.140   3.795
34492W        W 6917  23.078   8.181  10.592
34493W        W 6918  17.217   9.709  13.775
34494W        W 6919  14.806  42.963   4.022
34495W        W 6920   0.444   6.501   1.299
34496W        W 6921  41.898  30.896   2.628
34497W        W 6922  29.434  25.422   0.934
34498W        W 6923  29.640  35.465   4.743
34499W        W 6924  28.437  15.614  11.571
34500W        W 6925  20.521   3.912   4.291
34501W        W 6926   5.656  32.490   0.783
34502W        W 6927  44.006  44.754   4.218
34503W        W 6928  28.461  24.433  13.431
34504W        W 6929  32.331   2.951   3.999
34505W        W 6930  27.229   6.840  14.566
34506W        W 6931   9.329   5.451   0.671
34507W        W 6932  19.227   6.269  13.056
34508W        W 6933  13.412  29.517  12.603
34509W        W 6934  29.049  17.585   1.416
34510W        W 6935   7.690   7.702   4.562
34511W        W 6936  12.149  23.752  14.416
34512W        W 6937  34.310   7.829   1.421
34513W        W 6938  32.050  39.041  10.159
34514W        W 6939  38.542   2.634  13.533
34515W        W 6940   7.428  19.691  14.745
34516W        W 6941   4.461  39.100   0.506
34517W        W 6942  22.996  17.274   1.789
34518W        W 6943  10.862  14.420  12.087
34519W        W 6944  37.856  22.524   2.201
34520W        W 6945   1.308  16.858   3.258
34521W        W 6946   1.062  27.091  11.344
34522W        W 6947  33.182   3.401  12.557
34523W        W 6948  28.906   8.691  12.992
34524W        W 6949  19.185  10.982  11.410
34525W        W 6950  12.106  32.975   3.624
34526W        W 6951  37.975  19.370  10.696
34527W        W 6952   6.815  13.472  12.030
34528W        W 6953  37.819  29.438  10.862
34529W        W 6954  30.201  22.668  12.939
34530W        W 6955  37.100  38.757  12.140
34531W        W 6956  35.641  30.667  11.940
34532W        W 6957   7.710   3.500  13.798
34533W        W 6958   1.820  11.265  13.443
34534W        W 6959  24.750  19.732  11.978
34535W        W 6960   0.820   6.686  13.318
34536W        W 6961  13.286  39.471   4.399
34537W        W 6962  25.434   0.496   2.204
34538W        W 6963  28.095  34.826  11.142
34539W        W 6964  24.602  11.459   2.482
34540W        W 6965  44.355  43.752  14.922
34541W        W 6966  38.394   9.352  13.850
34542W        W 6967  25.487  23.377  11.101
34543W        W 6968  21.470  32.079   0.831
34544W        W 6969  14.402   6.719   0.283
34545W        W 6970  10.565  19.648   1.822
34546W        W 6971  23.492  25.793   3.246
34547W        W 6972  21.149  43.052   3.453
34548W        W 6973  15.592  27.671  13.503
34549W        W 6974   3.302  44.227   0.472
34550W        W 6975  25.262  24.547  12.654
34551W        W 6976  24.739  42.524   3.163
34552W        W 6977  10.128  19.622   3.647
34553W        W 6978  43.683   1.726  14.775
34554W        W 6979  40.381  37.964  12.870
34555W        W 6980  14.553  16.272   1.971
34556W        W 6981  33.128  21.093   2.368
34557W        W 6982  28.439  42.288   1.889
34558W        W 6983  34.895  33.766   1.411
34559W        W 6984  29.910  33.117  12.602
34560W        W 6985  38.996   5.653  10.794
34561W        W 6986   3.889  19.523   0.315
34562W        W 6987  29.074  37.633  10.378
34563W        W 6988  24.994  17.678   1.762
34564W        W 6989  43.460  33.039  13.030
34565W        W 6990  21.559   7.776   4.263
34566W        W 6991  36.618  31.559  13.408
34567W        W 6992  34.038  32.049   1.726
34568W        W 6993  31.431  22.631   3.385
34569W        W 6994  16.771   9.776   1.973
34570W        W 6995  10.931  27.957  13.876
34571W        W 6996  33.396  17.309   3.013
34572W        W 6997  39.841  12.805  13.768
34573W        W 6998   4.230  34.799   0.190
34574W        W 6999  14.857  12.547   3.255
34575W        W 7000   3.880  30.264  10.620
34576W        W 7001  43.229  26.637   3.183
34577W        W 7002  40.832   1.976  10.667
34578W        W 7003  21.865   8.827  11.249
34579W        W 7004  26.047  21.593  12.222
34580W        W 7005  20.972  16.586  12.080
34581W        W 7006  34.410   6.666   3.774
34582W        W 7007  36.698  22.796   1.656
34583W        W 7008   0.958   3.269  12.462
34584W        W 7009   6.713   9.412   1.866
34585W        W 7010  40.586  27.676   1.459
34586W        W 7011  32.992   1.314  14.111
34587W        W 7012  30.188   8.305  14.934
34588W        W 7013   7.971  41.914   2.173
34589W        W 7014   5.353  37.036  11.859
34590W        W 7015  37.347  19.071  11.918
34591W        W 7016  20.373   5.409  14.030
34592W        W 7017   6.753  26.602   1.680
34593W        W 7018  18.211  30.148   2.265
34594W        W 7019  21.684   6.469   3.260
34595W        W 7020  16.682  11.464   0.401
34596W        W 7021  21.247  29.508   2.709
34597W        W 7022  43.795  40.874   0.921
34598W        W 7023  22.581  31.420  14.417
34599W        W 7024  31.035  26.975  11.665
34600W        W 7025  29.082  30.841  12.700
34601W        W 7026   6.029   8.431   2.372
34602W        W 7027  38.898   2.911  13.810
34603W        W 7028  41.784  18.668  13.087
34604W        W 7029   6.404   0.339   3.650
34605W        W 7030  12.069  23.140   2.972
34606W        W 7031  11.613   2.878  13.927
34607W        W 7032  40.516  29.095  13.320
34608W        W 7033  32.345   3.293  10.287
34609W        W 7034  35.589  29.166  13.183
34610W        W 7035  26.183  38.306   2.863
34611W        W 7036  33.184   9.189   4.887
34612W        W 7037  23.454  18.105   0.005
34613W        W 7038   0.850  28.238  12.576
34614W        W 7039  30.459  29.820   3.708
34615W        W 7040  24.058  44.863   3.627
34616W        W 7041   9.596  34.201  11.415
34617W        W 7042  29.924  21.565   4.090
34618W        W 7043  30.460  27.977   3.595
34619W        W 7044  11.228  13.163  13.921
34620W        W 7045  25.501  41.523  14.757
34621W        W 7046  40.322  38.130  12.373
34622W        W 7047  28.560  17.424   3.733
34623W        W 7048  29.599   0.169  12.330
34624W        W 7049  38.868  43.210  13.333
34625W        W 7050  42.194  44.021  10.772
34626W        W 7051  35.505  38.446   4.734
34627W        W 7052  11.267  35.563  11.912
34628W        W 7053   1.389   7.957  12.041
34629W        W 7054  20.670  36.154   2.422
34630W        W 7055  18.244  29.467  14.026
34631W        W 7056  21.188  34.308  10.224
34632W        W 7057  25.252   9.438   4.303
34633W        W 7058   0.325  32.083   3.307
34634W        W 7059   1.077  24.067  14.028
34635W        W 7060  32.434  43.534  13.760
34636W        W 7061  10.983  40.018   2.737
34637W        W 7062  20.692  11.960  12.962
34638W        W 7063   8.836  36.624  11.645
34639W        W 7064  10.170   9.870   2.279
34640W        W 7065  33.410  35.336  11.550
34641W        W 7066  31.059   2.033   1.449
34642W        W 7067  17.768  38.389   2.290
34643W        W 7068  39.814   2.931   4.572
34644W        W 7069  27.030  10.679   2.288
34645W        W 7070  16.126  14.458   5.117
34646W        W 7071  12.212  31.697   3.766
34647W        W 7072  41.918  19.603   5.020
34648W        W 7073  21.092  37.501   0.715
34649W        W 7074  11.431  43.880   3.268
34650W        W 7075   7.815  25.733   4.174
34651W        W 7076  26.602  20.461  11.574
34652W        W 7077  25.057  20.598  12.108
34653W        W 7078  28.046  27.089  12.945
34654W        W 7079  29.161   2.092  13.231
34655W        W 7080   7.922   9.209  13.420
34656W        W 7081  35.904  10.159  12.391
34657W        W 7082  38.835  16.523   2.648
34658W        W 7083   7.124  17.297  11.565
34659W        W 7084  31.113  20.225  12.356
34660W        W 7085  25.990   9.086   3.829
34661W        W 7086  37.538  17.019   3.212
34662W        W 7087   8.822   1.974   4.324
34663W        W 7088  10.626   1.793  10.889
34664W        W 7089  13.077  29.390  13.942
34665W        W 7090  36.570   5.695  11.908
34666W        W 7091   9.864  39.029   3.846
34667W        W 7092  26.702  30.609   2.171
34668W        W 7093   3.769  39.402   4.533
34669W        W 7094  21.661  40.083  12.549
34670W        W 7095   2.531   1.313  14.868
34671W        W 7096   3.900  31.880   0.028
34672W        W 7097  40.047  15.694   3.160
34673W        W 7098  24.653  18.728  11.220
34674W        W 7099  20.237   0.291   1.861
34675W        W 7100  31.851  32.096   4.549
34676W        W 7101  26.164  29.853  13.079
34677W        W 7102  36.372  30.967  14.437
34678W        W 7103  19.294   8.901  11.934
34679W        W 7104  27.134   1.218   3.360
34680W        W 7105  13.089  24.080   3.145
34681W        W 7106  26.158  15.797   4.106
34682W        W 7107  28.290  17.162   5.171
34683W        W 7108   3.844  42.751   0.731
34684W        W 7109  16.384  37.363   0.796
34685W        W 7110  26.653  24.088  11.500
34686W        W 7111   2.186   8.249   4.335
34687W        W 7112  25.269  40.549   0.531
34688W        W 7113  32.152   6.178  12.900
34689W        W 7114  10.112   0.948  12.658
34690W        W 7115  28.102   0.034   4.598
34691W        W 7116  13.127  16.273   3.116
34692W        W 7117  25.077  11.137  14.085
34693W        W 7118  30.579  30.617   3.335
34694W        W 7119  44.690   6.438  12.996
34695W        W 7120  32.663   8.172  12.012
34696W        W 7121  25.980  17.779  11.640
34697W        W 7122  30.436  41.599   1.313
34698W        W 7123  32.636  27.391  12.376
34699W        W 7124   5.755  34.671  10.821
34700W        W 7125  37.067  32.479  13.999
34701W        W 7126  25.138  42.213   1.366
34702W        W 7127  18.992  41.524   0.884
34703W        W 7128  23.452  10.345   1.968
34704W        W 7129  17.225   3.919  13.512
34705W        W 7130   5.996  21.182  10.633
34706W        W 7131  36.178  11.620   2.829
34707W        W 7132  13.673  25.354  14.225
34708W        W 7133  38.975  15.017  14.941
34709W        W 7134  23.113   8.595   1.305
34710W        W 7135  27.401  22.852   0.949
34711W        W 7136  40.890  19.315   1.257
34712W        W 7137  24.973   3.850  13.456
34713W        W 7138   7.414  34.614   4.787
34714W        W 7139   3.904  43.891   3.033
34715W        W 7140  27.036  28.539  12.183
34716W        W 7141  14.879  28.535  14.446
34717W        W 7142  44.801  39.115   2.887
34718W        W 7143   0.629  11.880  13.897
34719W        W 7144   4.185  37.335   1.571
34720W        W 7145  41.768   8.858  13.549
34721W        W 7146   1.138  38.079   0.740
34722W        W 7147   5.535  38.542   2.742
34723W        W 7148   6.670   4.082   1.208
34724W        W 7149   9.314  11.297   4.147
34725W        W 7150  15.081  30.889   4.024
34726W        W 7151  16.178  41.132   0.506
34727W        W 7152   6.381  12.633   4.598
34728W        W 7153  16.526  12.648   0.058
34729W        W 7154  42.292  29.534  13.274
34730W        W 7155  26.435   7.712   0.812
34731W        W 7156   6.753  41.289   4.689
34732W        W 7157  30.329   6.828   2.260
34733W        W 7158   2.038  25.126  11.601
34734W        W 7159  12.573  37.065  12.671
34735W        W 7160  12.810  31.703  10.598
34736W        W 7161  32.169  41.799  13.425
34737W        W 7162  28.095  31.645  14.975
34738W        W 7163  18.819  28.502  13.058
34739W        W 7164  10.133  12.090   4.449
34740W        W 7165  25.875  23.484   1.241
34741W        W 7166  13.029   1.103   0.017
34742W        W 7167  35.057  43.809  14.026
34743W        W 7168   3.033  34.328  13.922
34744W        W 7169  37.122  40.251  11.112
34745W        W 7170   1.259  14.178   4.182
34746W        W 7171  44.409  37.044  10.618
34747W        W 7172  21.064  38.579  13.490
34748W        W 7173  33.876  42.535  13.042
34749W        W 7174  19.799  40.970   2.243
34750W        W 7175  23.616  15.949  11.346
34751W        W 7176  38.955   8.998   3.627
34752W        W 7177  28.159  44.349   0.745
34753W        W 7178  16.658  18.763   4.349
34754W        W 7179  17.294  43.248   0.719
34755W        W 7180  34.889  44.146  12.463
34756W        W 7181  23.415  14.271   1.846
34757W        W 7182  22.275  20.482   3.280
34758W        W 7183  31.207  24.248   0.764
34759W        W 7184  32.052  17.234   0.839
34760W        W 7185  23.008  30.690   2.865
34761W        W 7186   0.819  21.905  13.450
34762W        W 7187  19.719  23.911   4.936
34763W        W 7188  27.117  23.094  14.749
34764W        W 7189  14.319   7.313  14.790
34765W        W 7190  17.866  25.009  13.368
34766W        W 7191  38.034  33.531  13.311
34767W        W 7192  26.855  14.878   1.516
34768W        W 7193   1.794   9.050   0.023
34769W        W 7194  35.635  21.436  11.034
34770W        W 7195   4.913  17.567  10.652
34771W        W 7196  20.678  20.280   0.483
34772W        W 7197  23.623  18.259  12.851
34773W        W 7198   6.798  39.501   2.651
34774W        W 7199  30.136  13.445  13.667
34775W        W 7200   7.155  27.247  11.167
34776W        W 7201  37.474   2.275  10.598
34777W        W 7202   9.347  31.930  13.455
34778W        W 7203  28.669  25.804   3.340
34779W        W 7204  14.886   3.681   0.832
34780W        W 7205  26.216   5.424   3.862
34781W        W 7206  22.145   5.868  12.920
34782W        W 7207  30.390  23.380   3.840
34783W        W 7208  44.429  30.880   3.836
34784W        W 7209   2.408   3.401   1.062
34785W        W 7210   7.899   9.508  11.674
34786W        W 7211  10.619  28.116  12.890
34787W        W 7212   6.152   1.115  14.923
34788W        W 7213   2.393  19.656  13.522
34789W        W 7214  40.286  42.529  11.986
34790W        W 7215   0.721  21.953   2.735
34791W        W 7216  31.160  14.229  13.057
34792W        W 7217  42.841  40.724  14.359
34793W        W 7218  10.195  38.869   0.936
34794W        W 7219  42.275  24.530   4.214
34795W        W 7220  28.400  26.494   0.200
34796W        W 7221   7.904  17.980   4.098
34797W        W 7222  25.994  23.552  12.953
34798W        W 7223  13.816   0.452   3.146
34799W        W 7224   0.465  30.105   0.767
34800W        W 7225  23.639  30.741  13.909
34801W        W 7226  23.980  43.948   0.413
34802W        W 7227   3.766  28.550   3.530
34803W        W 7228  31.512  23.457   2.807
34804W        W 7229  19.174  31.026   2.896
34805W        W 7230  14.127  16.493   4.534
34806W        W 7231  31.935  32.047   1.243
34807W        W 7232   3.962   8.496   0.472
34808W        W 7233  33.167   7.750   4.585
34809W        W 7234  27.153  28.141  11.397
34810W        W 7235  17.085  41.135  11.572
34811W        W 7236  40.809   1.264  12.047
34812W        W 7237  16.225  40.460   4.100
34813W        W 7238  39.349  23.164  11.839
34814W        W 7239  23.775   2.936  12.591
34815W        W 7240  29.011  23.080   1.954
34816W        W 7241  37.510  36.592   0.771
34817W        W 7242  12.962  15.372  12.213
34818W        W 7243  10.107  24.982  11.740
34819W        W 7244  16.585  11.198   1.238
34820W        W 7245  27.373  13.820  13.413
34821W        W 7246   9.136  35.631   2.264
34822W        W 7247   3.745   1.162   3.342
34823W        W 7248  23.932  11.205   1.313
34824W        W 7249  32.596  11.942  10.747
34825W        W 7250  11.280   7.663  10.654
34826W        W 7251   7.038   9.032  11.405
34827W        W 7252   9.771   5.132   3.975
34828W        W 7253  24.245  17.616  11.657
34829W        W 7254  12.264  20.761  10.570
34830W        W 7255  22.978  36.342   2.134
34831W        W 7256  11.689  30.459  13.899
34832W        W 7257   5.471   8.371  12.133
34833W        W 7258  20.926  10.265  11.152
34834W        W 7259  32.964   5.084   4.430
34835W        W 7260   7.769   5.225   1.723
34836W        W 7261  41.935  39.985  14.041
34837W        W 7262  14.121  16.848  13.256
34838W        W 7263   9.805  36.958   0.482
34839W        W 7264   4.433   4.370  11.978
34840W        W 7265  35.434  17.738   1.610
34841W        W 7266  39.906   8.125  10.679
34842W        W 7267  12.347  27.697  14.351
34843W        W 7268  40.567   7.933   3.207
34844W        W 7269  31.104  42.788  12.173
34845W        W 7270  42.090  30.656   5.003
34846W        W 7271   7.934  12.631  13.792
34847W        W 7272  21.110  21.112  12.941
34848W        W 7273  30.131   5.903   1.378
34849W        W 7274  19.745  12.773   3.156
34850W        W 7275  33.962  31.296   2.905
34851W        W 7276  14.394  42.432  12.588
34852W        W 7277  17.315  15.850  14.466
34853W        W 7278  44.809  36.392  12.623
34854W        W 7279  13.294   0.390   0.631
34855W        W 7280  25.503  43.937   1.582
34856W        W 7281  30.542  13.762  12.911
34857W        W 7282  27.129  12.379  11.938
34858W        W 7283  32.969  31.846  13.397
34859W        W 7284  21.743  18.575   3.691
34860W        W 7285  21.734  36.557  13.841
34861W        W 7286   7.078  19.677   4.634
34862W        W 7287  29.384   6.429  10.695
34863W        W 7288   8.195  30.770   2.383
34864W        W 7289  28.222   1.864   2.125
34865W        W 7290   6.623  41.567   2.900
34866W        W 7291  17.651  14.695   0.454
34867W        W 7292  35.581  21.823  14.428
34868W        W 7293  12.371   5.795  13.348
34869W        W 7294  16.742  43.194  13.967
34870W        W 7295  30.082  34.543  12.281
34871W        W 7296  29.830  30.024   4.368
34872W        W 7297   2.854  19.700  14.814
34873W        W 7298  14.644   4.485   2.522
34874W        W 7299  43.878  18.788   2.242
34875W        W 7300  13.111  29.427   4.268
34876W        W 7301   6.699  30.554   3.637
34877W        W 7302  15.839  38.139   2.790
34878W        W 7303  35.710  38.894   0.470
34879W        W 7304  34.271  21.087   0.937
34880W        W 7305  38.026  22.491  13.439
34881W        W 7306  39.817  31.900  13.353
34882W        W 7307  42.127   8.100  14.785
34883W        W 7308  40.319  38.604   3.292
34884W        W 7309  44.430  34.586   5.445
34885W        W 7310   0.817   6.433   4.635
34886W        W 7311  13.327   9.869  14.965
34887W        W 7312  30.652  41.510  13.796
34888W        W 7313  16.638  43.394  10.466
34889W        W 7314  41.232   5.159  14.754
34890W        W 7315  14.922  18.509   0.010
34891W        W 7316  44.618  18.610  11.024
34892W        W 7317  11.581  19.834  11.798
34893W        W 7318  31.516  19.622   1.488
34894W        W 7319  23.346  12.162  14.939
34895W        W 7320  44.243  31.810   3.769
34896W        W 7321   1.884  12.748   4.101
34897W        W 7322  12.375  40.825  14.072
34898W        W 7323  34.165  37.603  11.041
34899W        W 7324   1.403  37.168   1.866
34900W        W 7325   8.202  12.892  13.026
34901W        W 7326  22.999  22.926  13.837
34902W        W 7327  25.966  36.563  13.395
34903W        W 7328  23.440   5.363   4.156
34904W        W 7329   9.435  12.355  11.323
34905W        W 7330  43.267  35.091  14.772
34906W        W 7331   4.025  41.194  11.175
34907W        W 7332  16.804  18.112  13.376
34908W        W 7333  12.410  40.847   2.222
34909W        W 7334  24.339  30.469   9.830
34910W        W 7335  33.115  22.104  12.673
34911W        W 7336  18.819  22.664   0.265
34912W        W 7337   6.770  40.635   1.791
34913W        W 7338  28.184   5.784   3.056
34914W        W 7339   5.143  15.530  11.488
34915W        W 7340  21.198  35.906  12.865
34916W        W 7341  18.400  28.483   1.248
34917W        W 7342  41.062  43.792   0.975
34918W        W 7343   2.396  34.095  12.028
34919W        W 7344  18.732  26.704  14.952
34920W        W 7345  20.793  38.818  11.933
34921W        W 7346   9.304  23.949   4.894
34922W        W 7347  29.674   9.453  12.976
34923W        W 7348  42.468   8.979   0.847
34924W        W 7349  37.932  36.539  11.961
34925W        W 7350  30.144  37.346   4.960
34926W        W 7351  30.183  35.884  10.776
34927W        W 7352  25.143   9.156  12.500
34928W        W 7353   1.437  18.551  12.042
34929W        W 7354   3.411  15.180   3.959
34930W        W 7355  29.854  20.664  13.859
34931W        W 7356  14.579   5.753  14.505
34932W        W 7357   8.110  43.162   2.720
34933W        W 7358  44.019  39.528  12.056
34934W        W 7359  39.510  19.192   4.873
34935W        W 7360  25.558  14.562  12.526
34936W        W 7361   2.991  41.259  13.053
34937W        W 7362  41.489  38.863   1.882
34938W        W 7363  37.869   8.970   9.710
34939W        W 7364  21.323  24.810  10.687
34940W        W 7365  19.564  37.275   0.848
34941W        W 7366  21.814  37.083   1.914
34942W        W 7367   3.526  33.391   2.352
34943W        W 7368  15.770  23.248   2.398
34944W        W 7369  23.603  33.861   3.869
34945W        W 7370  37.423  39.960   4.274
34946W        W 7371   4.187  20.772   0.697
34947W        W 7372  20.316  16.490  11.478
34948W        W 7373  44.591  19.090   4.113
34949W        W 7374  37.439  18.262  12.591
34950W        W 7375  37.899  15.866   2.275
34951W        W 7376  42.292  28.584  11.898
34952W        W 7377   1.751  30.500   2.854
34953W        W 7378  10.727  28.984   0.726
34954W        W 7379   2.099   6.281  11.533
34955W        W 7380  11.845  35.802   5.067
34956W        W 7381  43.051  32.658  12.879
34957W        W 7382  31.104  14.579   2.612
34958W        W 7383  19.688  34.933  13.314
34959W        W 7384  27.213  14.600  10.716
34960W        W 7385  13.410  25.578   4.430
34961W        W 7386  41.209  23.198  11.183
34962W        W 7387  12.412  24.605  12.457
34963W        W 7388  15.730  10.820   3.272
34964W        W 7389  17.257  41.124  12.593
34965W        W 7390  24.625  43.546   1.414
34966W        W 7391  30.447  41.971   4.086
34967W        W 7392  37.780  44.757   1.474
34968W        W 7393  33.140  14.415  11.368
34969W        W 7394  38.328  43.575  12.158
34970W        W 7395  24.635   5.248   3.627
34971W        W 7396  43.557  34.424  10.479
34972W        W 7397   8.634  15.433  11.612
34973W        W 7398  23.208  20.970  13.539
34974W        W 7399   5.464  39.493  11.599
34975W        W 7400   8.200  20.126  11.697
34976W        W 7401  19.858   0.123  13.836
34977W        W 7402  35.172  32.335   4.641
34978W        W 7403  28.529  40.251   0.804
34979W        W 7404  12.404  22.078  13.121
34980W        W 7405  21.528   2.970  11.592
34981W        W 7406   9.170   2.793  13.515
34982W        W 7407  21.831  21.177   0.531
34983W        W 7408  17.589   4.831  10.524
34984W        W 7409  43.213  24.906   0.384
34985W        W 7410  13.015  15.241  14.314
34986W        W 7411   1.482   2.569   1.999
34987W        W 7412  10.737  35.896  12.426
34988W        W 7413  39.026  31.980   2.851
34989W        W 7414   2.549  35.621  14.916
34990W        W 7415   3.184  27.680   2.366
34991W        W 7416  21.124  23.742  13.820
34992W        W 7417  17.547   3.885  12.508
34993W        W 7418  21.747  19.837  13.298
34994W        W 7419   2.254  16.922  13.773
34995W        W 7420   5.172  10.569  11.939
34996W        W 7421  18.955  35.089  11.063
34997W        W 7422  14.898   9.427  13.363
34998W        W 7423  26.895  15.168  12.593
34999W        W 7424  27.597   8.825  14.431
35000W        W 7425  41.977  16.163   2.705
35001W        W 7426  39.084  35.908   1.351
35002W        W 7427  33.960   0.829   0.967
35003W        W 7428   3.446  27.516  14.472
35004W        W 7429  29.433  36.067  13.517
35005W        W 7430  17.490  19.212   3.569
35006W        W 7431  33.068   9.688  11.154
35007W        W 7432  40.871   2.781  13.800
35008W        W 7433   8.637  41.305  12.394
35009W        W 7434  18.573  14.056  13.850
35010W        W 7435   7.958  21.654  13.415
35011W        W 7436   7.609   2.381   1.455
35012W        W 7437  12.393  16.580  14.314
35013W        W 7438  39.966  33.132   0.830
35014W        W 7439  26.988  14.271   2.160
35015W        W 7440  40.446  27.298  13.487
35016W        W 7441   6.191  11.363   4.452
35017W        W 7442  26.085  31.959   0.767
35018W        W 7443  29.679   7.306   4.220
35019W        W 7444  16.794  37.913   1.893
35020W        W 7445  20.731   0.915  10.797
35021W        W 7446   8.762  36.133   4.928
35022W        W 7447   6.408  18.358  14.877
35023W        W 7448  40.404  18.330   2.811
35024W        W 7449   8.115  27.071   0.360
35025W        W 7450   6.496  27.714  14.547
35026W        W 7451  34.007  41.324   2.227
35027W        W 7452  35.584   6.408  14.911
35028W        W 7453  32.151  20.591  14.964
35029W        W 7454  13.783   1.578  14.693
35030W        W 7455  21.713  40.036   1.826
35031W        W 7456   3.695   9.740  13.867
35032W        W 7457   7.812  35.741   4.450
35033W        W 7458  21.219  28.605  12.865
35034W        W 7459  13.644  26.946   0.863
35035W        W 7460  17.614  12.594  14.943
35036W        W 7461  10.827   2.836  14.318
35037W        W 7462  33.966   0.342   3.068
35038W        W 7463  24.641   3.026  11.669
35039W        W 7464   6.769  11.167   3.318
35040W        W 7465   4.720   1.377   4.597
35041W        W 7466  44.636  27.408   3.175
35042W        W 7467  25.905  22.425  14.206
35043W        W 7468   8.022  22.167   0.982
35044W        W 7469   5.802   3.385  13.504
35045W        W 7470  42.530   6.687  12.127
35046W        W 7471   9.818  17.706   2.454
35047W        W 7472  32.563  34.341   1.431
35048W        W 7473   2.454  41.881   0.007
35049W        W 7474  18.413  26.254   3.795
35050W        W 7475  23.797  24.545  12.971
35051W        W 7476  43.507  25.254   3.164
35052W        W 7477   7.424  20.237  13.903
35053W        W 7478  21.068  11.176   3.763
35054W        W 7479  28.535   9.066  10.586
35055W        W 7480   1.165  19.706   3.750
35056W        W 7481   8.039   6.398   4.504
35057W        W 7482   6.662  41.541  10.721
35058W        W 7483  33.716  25.918  11.076
35059W        W 7484  28.726  26.984  14.464
35060W        W 7485  36.041  31.447   3.811
35061W        W 7486  19.692  13.769   3.287
35062W        W 7487  18.876  18.070  11.518
35063W        W 7488  11.712  17.976  12.150
35064W        W 7489   2.686  16.264   0.740
35065W        W 7490  22.009  11.717   2.703
35066W        W 7491  16.249  38.314  13.557
35067W        W 7492  32.471   8.908  10.951
35068W        W 7493   9.669   9.848   0.989
35069W        W 7494  29.637  32.457   3.126
35070W        W 7495  11.290  10.217  11.306
35071W        W 7496  26.388  15.198  12.720
35072W        W 7497  41.977  12.587   4.815
35073W        W 7498  23.091  12.429  12.592
35074W        W 7499   0.004  21.550   0.383
35075W        W 7500  44.798  35.261   0.852
35076W        W 7501   1.858   6.219  14.388
35077W        W 7502  23.958  30.645  12.447
35078W        W 7503  37.294  33.400   1.325
35079W        W 7504  35.495  38.501  10.582
35080W        W 7505   1.296  43.408   4.252
35081W        W 7506  25.950   2.928  13.900
35082W        W 7507  31.471  24.705   2.812
35083W        W 7508  40.749  38.855   3.202
35084W        W 7509  32.920  10.520  13.338
35085W        W 7510  23.855  21.674  14.028
35086W        W 7511  44.379  40.948   3.337
35087W        W 7512  31.828   5.510   3.119
35088W        W 7513  10.285  35.805   0.781
35089W        W 7514  24.020  32.827   9.931
35090W        W 7515   0.901  15.308  11.461
35091W        W 7516  40.718  30.850  11.757
35092W        W 7517  36.385   6.194  14.323
35093W        W 7518  21.867  37.392  13.280
35094W        W 7519  36.819  21.209   2.448
35095W        W 7520  13.175  25.929  13.880
35096W        W 7521  19.716  43.520   4.697
35097W        W 7522  36.530  37.239   3.363
35098W        W 7523  21.232  18.984  13.591
35099W        W 7524  41.997   4.388   2.162
35100W        W 7525  25.680   6.719  13.987
35101W        W 7526  41.537  30.177   2.687
35102W        W 7527  13.340   3.248   0.735
35103W        W 7528   0.422  11.543  11.667
35104W        W 7529  41.731  30.500  11.573
35105W        W 7530  15.105  20.350  12.197
35106W        W 7531  27.119  11.042   1.936
35107W        W 7532  23.602  38.473  12.311
35108W        W 7533  39.395  19.688   3.661
35109W        W 7534  35.501  33.531   4.677
35110W        W 7535   1.722  28.688   2.636
35111W        W 7536  20.231  30.532   2.559
35112W        W 7537  18.819  34.405   2.211
35113W        W 7538  28.909  28.329  11.225
35114W        W 7539  20.917   4.425  13.402
35115W        W 7540   6.274  44.107  11.896
35116W        W 7541  15.708  23.619  13.986
35117W        W 7542   8.479  29.547   0.048
35118W        W 7543  28.210  36.774  12.476
35119W        W 7544   5.274  21.307  13.828
35120W        W 7545   3.888  12.728  12.198
35121W        W 7546   0.841  34.929  14.538
35122W        W 7547  28.626  26.496  13.726
35123W        W 7548  12.776   0.952   4.797
35124W        W 7549  36.425  39.316   4.102
35125W        W 7550  21.295  36.900   3.123
35126W        W 7551   2.887   6.659   2.529
35127W        W 7552  43.321  42.618   4.579
35128W        W 7553  16.441   4.899   4.504
35129W        W 7554  13.845  20.597  14.929
35130W        W 7555  20.742  15.166   2.327
35131W        W 7556  44.938  27.100  10.669
35132W        W 7557  39.468  14.269  12.553
35133W        W 7558  26.704   2.351   4.236
35134W        W 7559  24.349  19.789  10.356
35135W        W 7560  19.224  21.313   2.298
35136W        W 7561  41.929  19.303  11.120
35137W        W 7562   6.905  34.152  14.378
35138W        W 7563  24.435   9.782   2.714
35139W        W 7564  16.330  17.998  12.491
35140W        W 7565  22.977   5.526  14.317
35141W        W 7566  32.339  14.508   0.502
35142W        W 7567   0.947  40.471  12.275
35143W        W 7568   1.308  16.077   0.209
35144W        W 7569  32.330  20.801   2.377
35145W        W 7570  21.638  41.409   1.025
35146W        W 7571   2.235  23.071   1.862
35147W        W 7572   0.414  41.310  13.910
35148W        W 7573  18.517  16.802   0.017
35149W        W 7574  30.991  11.950   4.980
35150W        W 7575   8.130  43.377  11.215
35151W        W 7576  30.217  21.786  12.957
35152W        W 7577  32.515   1.065   2.264
35153W        W 7578  29.215  35.037  13.005
35154W        W 7579  19.463  24.973  13.197
35155W        W 7580  20.679  12.089  12.445
35156W        W 7581  12.158  23.686   1.403
35157W        W 7582  16.170  19.593   4.008
35158W        W 7583  16.573   4.982  10.527
35159W        W 7584   6.921  25.435   4.027
35160W        W 7585  38.154  39.909  13.962
35161W        W 7586  41.611  42.853  14.213
35162W        W 7587  42.327  13.638   3.410
35163W        W 7588  35.665  10.672   2.100
35164W        W 7589  11.649  44.549   1.209
35165W        W 7590  28.222   9.444  14.461
35166W        W 7591  28.286  34.818  13.358
35167W        W 7592  35.049  36.655  14.023
35168W        W 7593  37.963   7.771  10.194
35169W        W 7594  27.943  29.153   1.726
35170W        W 7595  43.819   2.916  12.012
35171W        W 7596   6.489  30.108  12.561
35172W        W 7597  20.620  43.621  13.774
35173W        W 7598  25.620   6.968  12.271
35174W        W 7599   0.281  24.549  12.969
35175W        W 7600  26.289  24.648  11.919
35176W        W 7601  25.475  26.394  10.215
35177W        W 7602  12.335  13.073  11.436
35178W        W 7603  30.860  30.053   4.091
35179W        W 7604  13.552  44.573  12.522
35180W        W 7605   9.779  30.733   3.180
35181W        W 7606  41.079   6.851  14.962
35182W        W 7607  30.084   4.329   0.879
35183W        W 7608   0.315  11.362  12.548
35184W        W 7609  18.249   2.423   2.148
35185W        W 7610   9.945  40.189  13.140
35186W        W 7611  34.527  37.582  13.014
35187W        W 7612  22.690   6.642  13.897
35188W        W 7613   1.060  11.729  14.842
35189W        W 7614  34.846   1.793  14.722
35190W        W 7615  11.754  39.031  14.587
35191W        W 7616  11.871   3.439   1.905
35192W        W 7617  20.120  30.649  12.519
35193W        W 7618  37.984  12.979   4.685
35194W        W 7619  27.876   0.425  13.526
35195W        W 7620   8.683  22.531  13.998
35196W        W 7621  43.436  41.280  13.807
35197W        W 7622  37.497  39.772  13.047
35198W        W 7623  36.095  37.264  13.442
35199W        W 7624   7.933  13.375  10.710
35200W        W 7625  10.676   6.890   3.689
35201W        W 7626  27.689  30.450  13.876
35202W        W 7627  37.250  30.594   2.488
35203W        W 7628   6.138  24.722   3.913
35204W        W 7629  35.899  29.246   1.409
35205W        W 7630  13.426  41.555  11.508
35206W        W 7631   2.897  33.228   2.853
35207W        W 7632   1.472  13.621  12.511
35208W        W 7633  41.748  38.832   2.347
35209W        W 7634  18.402   0.983  14.981
35210W        W 7635  13.448  18.126   3.157
35211W        W 7636  19.327  30.416   4.074
35212W        W 7637  40.816   2.664   4.566
35213W        W 7638  31.322  21.535   1.438
35214W        W 7639  43.468  40.488   1.044
35215W        W 7640  37.839  29.244  14.522
35216W        W 7641  32.436  39.071   0.352
35217W        W 7642  11.954  26.312  11.887
35218W        W 7643  43.276  43.404  11.042
35219W        W 7644   0.569  21.947   3.220
35220W        W 7645   4.223  28.627   4.286
35221W        W 7646  44.994  17.628  12.136
35222W        W 7647  27.068  40.969   1.811
35223W        W 7648   6.448   8.805   4.185
35224W        W 7649  23.615  13.559   3.840
35225W        W 7650  23.635   5.876   2.752
35226W        W 7651   8.826  17.626   2.307
35227W        W 7652   2.498  36.795   0.324
35228W        W 7653  29.242   7.535  12.774
35229W        W 7654  31.437  22.027   1.324
35230W        W 7655  15.983  43.087   1.874
35231W        W 7656  44.248  39.179  11.471
35232W        W 7657  38.336  10.180   2.302
35233W        W 7658  30.280   4.840   0.712
35234W        W 7659  11.795   2.051   0.915
35235W        W 7660  29.825  13.271  11.827
35236W        W 7661  19.150  38.273  14.519
35237W        W 7662  22.324  23.900  12.484
35238W        W 7663  28.028  25.166  11.076
35239W        W 7664  16.039  17.853   2.302
35240W        W 7665  23.797  28.989   3.529
35241W        W 7666   7.168  40.543  14.509
35242W        W 7667   0.214   9.398  11.923
35243W        W 7668  25.919  15.711   4.558
35244W        W 7669  39.878  19.798  11.074
35245W        W 7670  21.701  30.880   2.237
35246W        W 7671  21.166   2.811  12.550
35247W        W 7672   5.872  37.393   3.418
35248W        W 7673   3.746  38.943  10.917
35249W        W 7674   5.852  34.747   0.460
35250W        W 7675  31.113  43.781  11.951
35251W        W 7676  28.195  11.940  10.557
35252W        W 7677  32.365  39.872   2.764
35253W        W 7678  22.143  23.645  13.901
35254W        W 7679  44.883  24.184   1.321
35255W        W 7680  18.664  24.095  11.095
35256W        W 7681  44.254  33.576   1.280
35257W        W 7682  35.430   0.843  12.368
35258W        W 7683   2.081  43.491  11.562
35259W        W 7684   7.929  19.582   3.110
35260W        W 7685   8.197  37.966  12.308
35261W        W 7686   2.853  44.555   4.240
35262W        W 7687  29.100   8.327   2.543
35263W        W 7688  25.231  14.464  14.299
35264W        W 7689  14.222  43.430  12.438
35265W        W 7690  22.556  40.135  12.598
35266W        W 7691  23.730  16.503   3.986
35267W        W 7692  22.618   9.329   1.719
35268W        W 7693  36.067  23.491  14.374
35269W        W 7694  28.398  10.663   4.637
35270W        W 7695  26.870  11.683  13.924
35271W        W 7696   4.899  38.906   4.257
35272W        W 7697  41.399  41.403  13.254
35273W        W 7698  28.174  39.533  13.470
35274W        W 7699  26.034  40.249  14.810
35275W        W 7700  44.225   2.291  10.679
35276W        W 7701   7.417  39.084   4.229
35277W        W 7702  38.364  30.246   5.105
35278W        W 7703  14.085  25.416   3.237
35279W        W 7704  41.123   1.849   0.309
35280W        W 7705  11.942  36.955   2.824
35281W        W 7706  27.104  14.099   2.711
35282W        W 7707  20.030  36.960   0.612
35283W        W 7708  27.374  17.178   1.450
35284W        W 7709  12.185  33.964   3.689
35285W        W 7710   8.490  42.073   4.869
35286W        W 7711  31.734  18.873   0.861
35287W        W 7712  35.440   4.248  13.001
35288W        W 7713  27.228  30.585  10.262
35289W        W 7714   2.692  43.212  13.995
35290W        W 7715   7.747  41.400  11.637
35291W        W 7716  24.917   3.803   3.644
35292W        W 7717  42.916  26.682   0.995
35293W        W 7718   4.871  34.406  10.364
35294W        W 7719  29.541  37.219  11.855
35295W        W 7720  21.404  15.970   4.082
35296W        W 7721  42.091  33.984   1.631
35297W        W 7722  36.635  11.706   0.158
35298W        W 7723  20.161   9.645   3.801
35299W        W 7724  16.698  26.541  12.616
35300W        W 7725  12.894   4.519   0.224
35301W        W 7726  12.989  14.726  11.160
35302W        W 7727  27.230  25.550  14.403
35303W        W 7728  20.924   3.883  11.806
35304W        W 7729  37.001  11.240  12.105
35305W        W 7730  34.480   2.039  11.574
35306W        W 7731  36.542   8.800  13.951
35307W        W 7732   4.515  35.847   1.913
35308W        W 7733  41.488  35.427   1.218
35309W        W 7734  28.864  40.702  12.931
35310W        W 7735  28.988  40.027   3.447
35311W        W 7736  42.752  29.103  14.611
35312W        W 7737   4.154  11.520   1.032
35313W        W 7738  22.987  25.451  10.683
35314W        W 7739  29.900  25.674   0.897
35315W        W 7740  32.920  29.172   1.405
35316W        W 7741   0.937  31.928   0.958
35317W        W 7742  34.239   4.122   0.669
35318W        W 7743  32.512   6.426  11.364
35319W        W 7744  34.348  10.093   3.262
35320W        W 7745  13.114  10.315  14.743
35321W        W 7746  39.331   9.467   2.764
35322W        W 7747   0.715  28.730  13.822
35323W        W 7748  38.119   1.417   3.710
35324W        W 7749  33.929  41.997   4.424
35325W        W 7750  20.304  18.609   3.794
35326W        W 7751  24.278  42.350   2.351
35327W        W 7752   9.280  31.828   2.226
35328W        W 7753   7.596  20.646   2.146
35329W        W 7754  37.321   5.502  13.009
35330W        W 7755  20.066  13.305  11.240
35331W        W 7756  20.067  36.373  12.118
35332W        W 7757  21.063  29.882  12.134
35333W        W 7758   3.735  39.119   4.093
35334W        W 7759  39.027  19.335   5.011
35335W        W 7760  41.025  22.117  11.198
35336W        W 7761  43.600  33.007   1.832
35337W        W 7762   3.283   8.306   2.698
35338W        W 7763  28.626  18.759  13.498
35339W        W 7764  41.507  19.359   3.232
35340W        W 7765  29.089  23.991   1.794
35341W        W 7766  41.423  41.053  12.807
35342W        W 7767  33.377  31.185   3.610
35343W        W 7768  12.742  21.037   3.769
35344W        W 7769   7.992  29.689  14.804
35345W        W 7770  38.754  38.453   2.640
35346W        W 7771  29.032  39.493   2.663
35347W        W 7772  13.185   3.393   5.034
35348W        W 7773  44.761   6.352   4.795
35349W        W 7774  15.242  41.927   1.843
35350W        W 7775   6.347   8.239   1.591
35351W        W 7776   6.940  21.860  12.104
35352W        W 7777  35.498  40.539  10.700
35353W        W 7778  20.635  40.123   0.420
35354W        W 7779  38.538   5.855   2.458
35355W        W 7780  44.410  13.704  12.352
35356W        W 7781  44.934  23.142   4.587
35357W        W 7782  26.660  28.746   2.584
35358W        W 7783  11.267  39.835  12.728
35359W        W 7784   2.409  19.166   2.198
35360W        W 7785  13.233  29.845   3.275
35361W        W 7786  36.736  14.947  11.447
35362W        W 7787  21.290  38.943   0.150
35363W        W 7788  38.899  13.365  10.990
35364W        W 7789   0.783  10.833   3.674
35365W        W 7790  31.543  16.739   4.744
35366W        W 7791  12.440  31.372   3.382
35367W        W 7792  31.983   6.164   4.304
35368W        W 7793  41.399  32.694   0.968
35369W        W 7794  40.342  39.428  10.608
35370W        W 7795  15.871  16.336  14.333
35371W        W 7796  25.500  29.551   2.244
35372W        W 7797   3.299  27.576  14.967
35373W        W 7798  16.566  41.778  14.314
35374W        W 7799  19.408  18.057   1.730
35375W        W 7800  17.494  34.514  10.612
35376W        W 7801  10.387   2.094  11.904
35377W        W 7802   1.424  33.124   1.982
35378W        W 7803  44.050  26.680   4.608
35379W        W 7804  35.038  31.522   1.368
35380W        W 7805  32.430  32.538  11.985
35381W        W 7806  34.640  42.323   4.849
35382W        W 7807   6.064  26.965  12.035
35383W        W 7808   3.460  16.915   5.174
35384W        W 7809   9.695  37.686  13.470
35385W        W 7810  33.696  33.050   2.297
35386W        W 7811  31.934  26.727  12.939
35387W        W 7812  28.617  27.724   0.751
35388W        W 7813  33.328  16.267   3.175
35389W        W 7814   2.906   0.881  14.035
35390W        W 7815   9.717  44.111  14.567
35391W        W 7816  17.646  11.655  12.427
35392W        W 7817  41.755  40.487  12.032
35393W        W 7818  32.873   4.517  13.013
35394W        W 7819  44.926  14.412   4.587
35395W        W 7820   0.651  29.235  10.502
35396W        W 7821  43.315   4.819   2.019
35397W        W 7822  21.515  30.855   2.719
35398W        W 7823  17.027  37.081   4.269
35399W        W 7824   8.992   7.746  11.814
35400W        W 7825  43.072  11.159  10.817
35401W        W 7826  21.088  13.859  12.556
35402W        W 7827   7.314  40.094   4.311
35403W        W 7828  16.732  42.819   4.615
35404W        W 7829  21.772  11.293  13.369
35405W        W 7830  22.167  12.599   5.153
35406W        W 7831  13.276   2.067  14.971
35407W        W 7832  38.910  26.956   1.259
35408W        W 7833  22.290  30.404  14.063
35409W        W 7834   5.200  33.139  11.552
35410W        W 7835  32.016  44.180  14.646
35411W        W 7836  18.240  44.806   3.242
35412W        W 7837  31.559  28.773   2.783
35413W        W 7838  13.599  36.776  12.431
35414W        W 7839  35.656  32.075  14.077
35415W        W 7840  36.267  26.155  12.589
35416W        W 7841  12.581  44.386  12.514
35417W        W 7842  26.617  25.986   1.877
35418W        W 7843  32.413   8.164  12.487
35419W        W 7844   5.198  37.956  12.133
35420W        W 7845  27.229  44.793   1.975
35421W        W 7846  29.579  12.045  11.124
35422W        W 7847  15.823  28.256  14.087
35423W        W 7848  44.538  42.327  12.330
35424W        W 7849  35.790   4.664  14.934
35425W        W 7850  16.278  32.411   2.430
35426W        W 7851   9.315   1.067   0.282
35427W        W 7852  39.508  30.326  13.975
35428W        W 7853  26.573  44.989  11.342
35429W        W 7854   2.460  40.663   2.328
35430W        W 7855   5.337  15.744  13.959
35431W        W 7856  19.600  42.914  12.298
35432W        W 7857   9.531   5.293   3.541
35433W        W 7858  10.169  14.431  10.959
35434W        W 7859  35.198  27.249  14.402
35435W        W 7860  10.454   5.777   2.794
35436W        W 7861  44.896  24.568  14.626
35437W        W 7862  42.086  27.061  10.916
35438W        W 7863  24.472  35.137  13.408
35439W        W 7864   9.614  17.087   2.816
35440W        W 7865  43.528   4.709   3.372
35441W        W 7866  26.412  24.056  11.053
35442W        W 7867   5.958   1.605  11.172
35443W        W 7868   0.613   0.140   2.256
35444W        W 7869  16.042   7.268  10.594
35445W        W 7870  24.082   9.105  14.311
35446W        W 7871  13.867  38.008   3.245
35447W        W 7872  42.904  43.430   2.584
35448W        W 7873   6.856   6.423  14.239
35449W        W 7874  38.790   6.226  12.385
35450W        W 7875   8.863  21.369   2.379
35451W        W 7876  24.626  29.467  13.582
35452W        W 7877  10.746  26.901  12.435
35453W        W 7878  28.355   9.367   2.700
35454W        W 7879  30.116   8.230  11.680
35455W        W 7880  26.661  17.230   2.883
35456W        W 7881  15.174   0.461  14.479
35457W        W 7882   7.839  10.624  12.597
35458W        W 7883  27.502  39.440  11.929
35459W        W 7884  12.330   0.287   2.301
35460W        W 7885  13.711  32.144   4.184
35461W        W 7886  20.040  34.444  10.520
35462W        W 7887  44.330  36.510   4.051
35463W        W 7888   8.985  41.851   0.265
35464W        W 7889  34.462  26.847  12.328
35465W        W 7890  43.791  35.986  14.708
35466W        W 7891  36.364  21.965   4.736
35467W        W 7892  24.037   7.318  10.422
35468W        W 7893  23.141  14.551  14.815
35469W        W 7894  31.062   5.877   4.832
35470W        W 7895  23.053   1.399   4.171
35471W        W 7896   1.186  36.945  14.343
35472W        W 7897   2.462  17.133   2.184
35473W        W 7898  28.671  34.196   2.369
35474W        W 7899  41.809   2.250  13.865
35475W        W 7900  30.519  42.258  12.992
35476W        W 7901  35.544  24.689  12.592
35477W        W 7902  21.234  10.140  11.582
35478W        W 7903  18.217  32.413   4.141
35479W        W 7904   1.034   1.873   1.453
35480W        W 7905  41.453  26.184  12.807
35481W        W 7906  26.702  29.862   3.696
35482W        W 7907  14.207  11.847  14.552
35483W        W 7908   8.528  17.804  13.046
35484W        W 7909  26.638  34.105   0.957
35485W        W 7910  33.264  19.082   2.400
35486W        W 7911   1.305  13.346   2.750
35487W        W 7912  16.899  24.125   3.524
35488W        W 7913  13.796  36.455  12.856
35489W        W 7914  19.014  17.158  11.467
35490W        W 7915   2.227   0.742  13.000
35491W        W 7916   5.568  10.667  14.644
35492W        W 7917  28.167  40.610   0.334
35493W        W 7918  41.126  29.930   1.895
35494W        W 7919  15.717  34.642   3.569
35495W        W 7920   8.354   5.757   0.485
35496W        W 7921  30.062   7.321  12.971
35497W        W 7922  12.748  16.196  14.344
35498W        W 7923  42.536  14.926  13.369
35499W        W 7924   1.758  39.937   3.831
35500W        W 7925  20.221  17.885  12.509
35501W        W 7926  10.259  43.160   4.557
35502W        W 7927   2.830  11.925   4.557
35503W        W 7928  28.306  13.162   9.876
35504W        W 7929  31.279  21.124  10.741
35505W        W 7930  16.219  35.750   0.285
35506W        W 7931  44.253  20.724   1.838
35507W        W 7932   0.787  32.462   5.011
35508W        W 7933  30.017  29.064  12.381
35509W        W 7934  17.833  31.941   4.591
35510W        W 7935  16.133   8.380   3.374
35511W        W 7936  19.146  23.836  13.070
35512W        W 7937  10.442  44.973   0.493
35513W        W 7938  30.648  32.013  13.387
35514W        W 7939  18.233   7.379  12.957
35515W        W 7940  12.667   8.309  14.013
35516W        W 7941  21.009  17.977  12.444
35517W        W 7942  19.062  12.226  13.868
35518W        W 7943  19.523  11.867  10.959
35519W        W 7944  10.307  25.087   4.436
35520W        W 7945  25.073  12.277   3.198
35521W        W 7946  20.770   8.679  13.934
35522W        W 7947  41.032   0.562   2.028
35523W        W 7948  22.932  17.857   3.789
35524W        W 7949  24.166  25.258  12.467
35525W        W 7950  28.616  12.358   2.857
35526W        W 7951  22.354   4.841   2.834
35527W        W 7952  35.837   7.934  12.954
35528W        W 7953   5.468  25.076   2.147
35529W        W 7954  30.665  36.329   3.280
35530W        W 7955  34.065  10.433   0.465
35531W        W 7956  24.492  10.635   3.114
35532W        W 7957  24.980  33.295   0.447
35533W        W 7958  34.031   2.299   4.011
35534W        W 7959  29.129  18.276  13.309
35535W        W 7960  40.921  21.515  14.948
35536W        W 7961  40.478  20.198  14.895
35537W        W 7962  27.531  17.609  13.463
35538W        W 7963  43.566   0.324   1.747
35539W        W 7964  31.132  35.958   4.123
35540W        W 7965  32.439  21.859  12.967
35541W        W 7966  31.563  43.848  11.721
35542W        W 7967  43.349  11.409  11.908
35543W        W 7968  34.658  39.904   4.228
35544W        W 7969  32.790  21.572  11.489
35545W        W 7970  38.503  24.749   3.306
35546W        W 7971  17.620  12.259   1.710
35547W        W 7972  21.659  38.411  12.015
35548W        W 7973  10.124   9.657   0.783
35549W        W 7974  21.079   7.628   3.613
35550W        W 7975  28.625  12.783  12.932
35551W        W 7976  39.566  10.582  13.614
35552W        W 7977   2.175   0.307   2.285
35553W        W 7978  41.209  14.712  12.484
35554W        W 7979  12.681  20.800   1.855
35555W        W 7980  32.916  39.290  11.669
35556W        W 7981   7.732   7.388  12.664
35557W        W 7982  13.772  44.978  14.381
35558W        W 7983  11.310  20.226   3.349
35559W        W 7984  28.089  25.998  12.157
35560W        W 7985  39.062  21.607   3.339
35561W        W 7986  20.709  32.137   0.400
35562W        W 7987  27.190   0.470  11.037
35563W        W 7988  39.674  12.676  14.447
35564W        W 7989  18.585  16.244   0.823
35565W        W 7990   9.904   4.393  10.650
35566W        W 7991  40.612  10.689  10.322
35567W        W 7992   2.535   5.139  13.850
35568W        W 7993  19.053  27.145  13.430
35569W        W 7994  26.298   9.871  10.808
35570W        W 7995  36.961  15.718   2.251
35571W        W 7996   8.414   8.600   1.877
35572W        W 7997  25.904  32.540  13.501
35573W        W 7998   3.686  18.194   4.545
35574W        W 7999   3.944  40.945  13.023
35575W        W 8000   8.118  24.954  11.877
35576W        W 8001  31.942  15.461  13.439
35577W        W 8002   8.953  28.723   3.707
35578W        W 8003  42.072  24.954   4.477
35579W        W 8004  42.846  20.112  14.875
35580W        W 8005  29.018  14.048   4.981
35581W        W 8006   4.949   3.221  14.060
35582W        W 8007  44.276  27.095  13.982
35583W        W 8008  36.979  11.371  14.917
35584W        W 8009   3.128  31.741   0.419
35585W        W 8010  25.597  19.130  11.468
35586W        W 8011  35.961   9.817   0.289
35587W        W 8012   3.947  30.402  13.934
35588W        W 8013  17.774   2.402  13.020
35589W        W 8014  31.467  27.172   3.471
35590W        W 8015   8.258   0.787  11.281
35591W        W 8016  40.653  25.697   1.945
35592W        W 8017  42.906   2.708   4.247
35593W        W 8018   4.190   2.810  13.359
35594W        W 8019  28.960  27.512   3.553
35595W        W 8020  44.645   0.924  12.863
35596W        W 8021  22.679  23.663  11.216
35597W        W 8022  30.151  28.673   3.137
35598W        W 8023   0.359  30.241   2.160
35599W        W 8024  21.377   7.287   3.892
35600W        W 8025   0.956  18.605   4.257
35601W        W 8026  34.592  22.762  12.858
35602W        W 8027  37.435   1.009   1.708
35603W        W 8028  43.468  25.827  11.613
35604W        W 8029  35.437  39.461   2.531
35605W        W 8030  25.650   8.163   2.294
35606W        W 8031  24.032  28.087  11.301
35607W        W 8032  38.999  13.621  13.107
35608W        W 8033  40.818  39.009  13.806
35609W        W 8034  18.609   0.055   4.821
35610W        W 8035  42.443  36.558   1.766
35611W        W 8036  20.522  43.189   2.267
35612W        W 8037  44.453  24.637   2.892
35613W        W 8038  26.022   8.164  12.889
35614W        W 8039   6.763  40.321  11.477
35615W        W 8040  39.314  36.073   1.863
35616W        W 8041  43.443  14.641  10.825
35617W        W 8042  30.942   2.908  14.747
35618W        W 8043  25.682  32.162   1.546
35619W        W 8044   3.378  35.488  13.615
35620W        W 8045  43.773   1.857   1.145
35621W        W 8046  44.054  41.301   0.776
35622W        W 8047  10.349  10.778   3.729
35623W        W 8048  41.066  39.824  13.862
35624W        W 8049   3.916  27.260  14.467
35625W        W 8050  31.803  22.440  10.992
35626W        W 8051   2.059  30.396   3.702
35627W        W 8052  44.461  24.806  12.058
35628W        W 8053  32.065  34.312   1.298
35629W        W 8054  41.697  26.628  12.666
35630W        W 8055  20.124  28.606   2.916
35631W        W 8056  41.629  23.856   1.732
35632W        W 8057  26.460  17.985  11.653
35633W        W 8058  11.056  16.237  11.499
35634W        W 8059  25.869  26.382   3.753
35635W        W 8060   5.063   8.080   0.642
35636W        W 8061  35.685  41.434   4.537
35637W        W 8062  19.628  40.804  13.692
35638W        W 8063  44.743  23.023   3.068
35639W        W 8064   9.427  21.989   2.197
35640W        W 8065  20.344  10.779   4.955
35641W        W 8066  30.463  31.905   4.745
35642W        W 8067  32.063  34.954  12.858
35643W        W 8068  11.901  31.592  13.443
35644W        W 8069  13.814  27.067   1.399
35645W        W 8070  40.314  42.420   5.011
35646W        W 8071  44.505  32.049   0.319
35647W        W 8072   3.991  13.253   3.425
35648W        W 8073  16.189  42.769  12.722
35649W        W 8074  42.904  38.853  11.209
35650W        W 8075  13.421  26.185  13.480
35651W        W 8076  14.735  21.286   2.640
35652W        W 8077   7.711   4.039  14.717
35653W        W 8078  38.453  27.272   3.730
35654W        W 8079  22.224  26.519  13.909
35655W        W 8080  22.287   9.382  11.502
35656W        W 8081  23.676  10.811  11.410
35657W        W 8082  22.522  14.694   4.870
35658W        W 8083  17.241   5.162  10.784
35659W        W 8084  37.619  39.172  13.772
35660W        W 8085  32.696   3.789   4.611
35661W        W 8086  20.795  19.690  13.043
35662W        W 8087  21.151  19.659   1.128
35663W        W 8088  33.899  39.628  12.040
35664W        W 8089  14.157  17.196   2.415
35665W        W 8090  19.717   2.142   0.727
35666W        W 8091   2.729  41.019   0.843
35667W        W 8092  18.019  12.169   0.906
35668W        W 8093  21.207  26.651  12.323
35669W        W 8094  36.614   2.718   3.836
35670W        W 8095  12.346  34.851  13.170
35671W        W 8096  40.788  41.392   3.668
35672W        W 8097  43.912  17.208  11.307
35673W        W 8098  11.898  19.612   0.238
35674W        W 8099  24.162  18.693  12.576
35675W        W 8100   1.502  21.578   3.186
35676W        W 8101  23.214  41.615   2.683
35677W        W 8102  13.574  33.966   4.653
35678W        W 8103  15.708   7.902   0.472
35679W        W 8104  31.214  42.045  12.278
35680W        W 8105  22.224  25.414   4.075
35681W        W 8106  13.388  21.602  13.061
35682W        W 8107  28.858  15.148   2.195
35683W        W 8108  39.800  18.709   2.324
35684W        W 8109  37.498  34.928   0.412
35685W        W 8110   0.665  19.713  10.720
35686W        W 8111  40.448  22.312   0.995
35687W        W 8112  14.116   2.205   0.828
35688W        W 8113   1.265   3.104  13.398
35689W        W 8114  29.156  19.597   3.934
35690W        W 8115  44.539  19.759   1.904
35691W        W 8116  44.513  21.106   4.075
35692W        W 8117  16.745  35.438   2.955
35693W        W 8118  18.710  30.931   3.631
35694W        W 8119  18.803  34.754  12.346
35695W        W 8120   7.394  17.240   0.444
35696W        W 8121  11.901  36.082   2.919
35697W        W 8122  19.560   1.930  12.145
35698W        W 8123  22.558  29.491   4.655
35699W        W 8124  42.433  18.238   3.064
35700W        W 8125  31.333  23.659   0.425
35701W        W 8126  12.148   8.443   4.192
35702W        W 8127  41.015   5.380   1.787
35703W        W 8128  22.016  20.201   3.656
35704W        W 8129  43.951   9.907  11.381
35705W        W 8130  15.650  38.452   4.864
35706W        W 8131  10.697  23.300   3.190
35707W        W 8132  42.546  13.340  12.561
35708W        W 8133  30.139  27.172  11.665
35709W        W 8134  37.030   3.051  10.474
35710W        W 8135  16.201  33.670   3.310
35711W        W 8136  30.466  31.911  14.261
35712W        W 8137  44.985  14.562   0.601
35713W        W 8138   2.473  24.655  14.850
35714W        W 8139   6.942   2.332  13.457
35715W        W 8140  22.541  19.616   1.851
35716W        W 8141  18.072   1.171  12.451
35717W        W 8142  38.484   1.676  13.313
35718W        W 8143  37.361  19.678  11.253
35719W        W 8144  15.090   8.642  14.392
35720W        W 8145  19.748  37.922   1.140
35721W        W 8146  14.288  19.346   2.310
35722W        W 8147  12.089  23.554  12.503
35723W        W 8148  29.446  36.717   2.601
35724W        W 8149  12.112  29.040  14.316
35725W        W 8150  34.602  43.316   4.094
35726W        W 8151  29.109  22.631   1.145
35727W        W 8152  41.278   1.179  10.899
35728W        W 8153  44.574  23.433  13.117
35729W        W 8154  20.676   0.060   1.652
35730W        W 8155  15.146  31.473  11.980
35731W        W 8156  36.596  15.683  13.450
35732W        W 8157  23.455  10.319  13.546
35733W        W 8158   8.293  43.452  13.314
35734W        W 8159  33.408  41.003  14.065
35735W        W 8160  31.172  27.058   0.451
35736W        W 8161   7.459  29.121  11.953
35737W        W 8162  22.049   1.399  14.817
35738W        W 8163  12.718  18.194  12.916
35739W        W 8164  20.163  43.384  13.850
35740W        W 8165   5.173  42.689   3.404
35741W        W 8166   4.981   9.361   3.270
35742W        W 8167  12.199  35.812  12.981
35743W        W 8168  37.958  26.537  11.962
35744W        W 8169  25.095  12.138  13.358
35745W        W 8170  29.835  28.607  10.693
35746W        W 8171  34.595  27.409   1.371
35747W        W 8172  13.650  13.492  11.809
35748W        W 8173  28.618   2.061   2.393
35749W        W 8174  16.108  40.674   3.628
35750W        W 8175  15.695  37.978   1.004
35751W        W 8176  29.292  44.365   3.598
35752W        W 8177  26.941  41.967   2.647
35753W        W 8178  10.144  14.581  11.944
35754W        W 8179  42.892  41.840  11.580
35755W        W 8180  11.858  11.398   0.880
35756W        W 8181   7.771  24.036   0.908
35757W        W 8182   5.371  32.959   0.895
35758W        W 8183  38.346   4.424  12.038
35759W        W 8184  17.517   4.744   0.940
35760W        W 8185  19.765   4.909  12.104
35761W        W 8186  18.286  43.013   3.222
35762W        W 8187  40.083  19.634  13.823
35763W        W 8188  29.054  32.946  13.068
35764W        W 8189   1.946   2.691  13.930
35765W        W 8190  23.951  16.593   3.240
35766W        W 8191  27.920  20.187   0.828
35767W        W 8192  13.593   6.382  10.697
35768W        W 8193   5.762  18.501  13.359
35769W        W 8194   2.660  34.429   2.571
35770W        W 8195  12.235  12.604  11.192
35771W        W 8196   7.914  19.750   0.789
35772W        W 8197  20.124  15.272   2.200
35773W        W 8198  36.825  28.974  11.643
35774W        W 8199  39.409  17.348  11.566
35775W        W 8200  27.577  18.004   2.352
35776W        W 8201  41.269  33.551  13.063
35777W        W 8202  15.249  42.829   3.773
35778W        W 8203  17.260  24.714   4.581
35779W        W 8204   0.308   4.335   3.293
35780W        W 8205  25.390  18.716  11.653
35781W        W 8206  21.746  36.398   1.760
35782W        W 8207   2.882  44.533  11.704
35783W        W 8208   7.130  11.063   0.852
35784W        W 8209  34.596  31.110  11.184
35785W        W 8210  12.328  23.513   3.219
35786W        W 8211  43.608  27.079   0.477
35787W        W 8212  22.932  22.715   0.695
35788W        W 8213  17.693   0.311  13.517
35789W        W 8214  10.521  30.239   4.146
35790W        W 8215  32.435  10.645   0.362
35791W        W 8216  36.568  38.238   1.383
35792W        W 8217  20.696   7.171   2.220
35793W        W 8218  38.389  33.379   3.431
35794W        W 8219  30.081   0.792  12.085
35795W        W 8220  44.367  18.913  14.528
35796W        W 8221  16.501  36.663  12.628
35797W        W 8222  34.598  21.213  13.912
35798W        W 8223  44.439  43.353   0.770
35799W        W 8224  41.300  21.148  14.959
35800W        W 8225  34.966  30.798  13.262
35801W        W 8226  39.524  31.618   3.148
35802W        W 8227  23.524  28.148  12.061
35803W        W 8228  18.779   1.448  12.957
35804W        W 8229  23.263   2.419  11.065
35805W        W 8230  14.116  20.138  14.843
35806W        W 8231  28.976   7.726  12.372
35807W        W 8232  16.345   8.204  11.631
35808W        W 8233  41.139  43.296   0.889
35809W        W 8234  34.954   0.471   4.246
35810W        W 8235  24.678  36.098   0.708
35811W        W 8236  19.824  25.601  13.962
35812W        W 8237  20.841  12.935   5.116
35813W        W 8238  27.074  33.489   4.215
35814W        W 8239  33.639  25.785   4.160
35815W        W 8240  30.611  10.746   3.725
35816W        W 8241  16.538   8.735  11.426
35817W        W 8242  22.478  33.795  14.536
35818W        W 8243  12.811  14.386   2.482
35819W        W 8244   0.026  24.983  14.311
35820W        W 8245  38.524  18.750  13.951
35821W        W 8246  19.464  30.422  10.046
35822W        W 8247   2.501  33.418   2.215
35823W        W 8248   4.027   1.438   2.654
35824W        W 8249  10.246   5.147  14.777
35825W        W 8250  33.243  35.386   1.888
35826W        W 8251  41.389  10.816   3.934
35827W        W 8252  23.204  17.780   0.769
35828W        W 8253   5.953  31.553  13.626
35829W        W 8254   0.255  18.017   2.708
35830W        W 8255   4.954  44.100   1.410
35831W        W 8256  15.197   0.951   2.150
35832W        W 8257  32.429  27.800   2.141
35833W        W 8258  44.698  43.798  13.525
35834W        W 8259  17.328  21.622  14.541
35835W        W 8260  14.567  42.786  11.986
35836W        W 8261  38.540  12.151  14.026
35837W        W 8262  20.813  32.658   0.369
35838W        W 8263  17.191  33.048  13.593
35839W        W 8264   4.906  32.404  13.740
35840W        W 8265  34.561  43.994   0.521
35841W        W 8266  25.796  17.215  10.672
35842W        W 8267  20.481   4.404  14.017
35843W        W 8268  22.526   9.664   0.368
35844W        W 8269  31.522  24.620   4.493
35845W        W 8270  23.067  38.058   4.141
35846W        W 8271  18.254   6.736  10.786
35847W        W 8272  25.735  33.953   3.262
35848W        W 8273  12.005  40.889  14.415
35849W        W 8274   3.805  14.962  13.903
35850W        W 8275  16.109  37.469  14.822
35851W        W 8276  36.722  25.551   3.858
35852W        W 8277  34.371  32.563  13.049
35853W        W 8278  21.184   1.347  12.775
35854W        W 8279   3.274  20.690  10.682
35855W        W 8280  19.779  43.949  12.028
35856W        W 8281   3.306  33.945   0.033
35857W        W 8282  34.130   1.352  14.819
35858W        W 8283  27.094  27.134   1.465
35859W        W 8284  40.125  25.820   0.924
35860W        W 8285  33.381  26.442   2.443
35861W        W 8286  44.730  18.160  11.346
35862W        W 8287  33.362   6.315   5.094
35863W        W 8288  32.508  21.833  12.458
35864W        W 8289  38.902   7.130   2.324
35865W        W 8290  20.680   0.239  11.475
35866W        W 8291  18.513   8.014   0.649
35867W        W 8292  22.052  10.945  14.001
35868W        W 8293   3.012   0.296  12.886
35869W        W 8294  28.467   5.413  12.534
35870W        W 8295  33.197  13.738   2.282
35871W        W 8296  13.346  32.523  11.413
35872W        W 8297   0.779  43.297   4.715
35873W        W 8298   1.888  31.560  13.399
35874W        W 8299  37.127  24.674   0.506
35875W        W 8300  11.359  12.380   0.284
35876W        W 8301  42.383  32.521   1.019
35877W        W 8302   1.396  29.519   3.297
35878W        W 8303  27.117  19.392  12.969
35879W        W 8304  27.865  26.980   0.266
35880W        W 8305   5.219   0.266   0.920
35881W        W 8306   2.200   7.135   3.548
35882W        W 8307   0.987  42.747   0.936
35883W        W 8308   6.071   1.496  13.066
35884W        W 8309   0.546  10.822   4.563
35885W        W 8310  34.370  34.808   0.819
35886W        W 8311  17.453  17.685  11.044
35887W        W 8312  32.891  16.624   2.401
35888W        W 8313   8.322  31.314  12.097
35889W        W 8314  29.505  26.409   3.243
35890W        W 8315  33.133  34.128  10.763
35891W        W 8316  33.786   9.158  14.223
35892W        W 8317  26.968  42.313  13.554
35893W        W 8318  20.737  43.790   3.389
35894W        W 8319  42.040  42.307  14.417
35895W        W 8320  16.086  14.270  13.082
35896W        W 8321  24.487  13.702   1.365
35897W        W 8322  40.860   3.923   2.329
35898W        W 8323  14.536  44.810  13.913
35899W        W 8324  10.355  40.127   1.335
35900W        W 8325  15.104   2.754   2.622
35901W        W 8326  26.536   8.778   0.006
35902W        W 8327  35.008  36.137  13.933
35903W        W 8328  12.663  27.446   3.305
35904W        W 8329  27.502   8.724  12.945
35905W        W 8330  40.806  22.585   0.690
35906W        W 8331  13.363  22.574  11.874
35907W        W 8332  37.305  12.765  11.631
35908W        W 8333  43.062  30.717  13.404
35909W        W 8334   6.753  20.290   1.703
35910W        W 8335  20.311  29.654  11.141
35911W        W 8336  22.800  37.427  10.682
35912W        W 8337  42.103  37.404   4.487
35913W        W 8338   0.460  31.973   1.123
35914W        W 8339  28.032  32.616  14.912
35915W        W 8340  41.048  24.137  12.833
35916W        W 8341  29.489  15.214   1.192
35917W        W 8342  24.954  27.528   4.057
35918W        W 8343  39.864  17.033  11.655
35919W        W 8344  13.108  11.537  12.389
35920W        W 8345  42.886  26.418  14.090
35921W        W 8346  36.198   7.381   0.723
35922W        W 8347  30.640  40.314   3.153
35923W        W 8348   8.236   5.434  14.345
35924W        W 8349  41.059  36.881  14.491
35925W        W 8350  24.956  32.914  11.886
35926W        W 8351   5.746  11.460  10.720
35927W        W 8352  39.029  17.630   1.246
35928W        W 8353  11.241   1.774  11.513
35929W        W 8354  41.987  29.107   4.608
35930W        W 8355  29.904  12.603   1.202
35931W        W 8356  14.812  39.949  14.447
35932W        W 8357  23.934  38.908  11.980
35933W        W 8358  27.392  20.315  11.984
35934W        W 8359   3.944  41.536   2.287
35935W        W 8360  24.980  42.297  12.389
35936W        W 8361  29.201  39.800  13.478
35937W        W 8362   7.621  13.284  13.902
35938W        W 8363  23.981   3.990   2.398
35939W        W 8364  15.413  20.306  13.039
35940W        W 8365  36.369  21.547   1.744
35941W        W 8366  24.023  42.895   0.234
35942W        W 8367  41.501   4.230   2.298
35943W        W 8368  17.505   8.703  11.091
35944W        W 8369   6.154  42.402  11.698
35945W        W 8370  30.209  43.489  12.914
35946W        W 8371   7.529  37.338  11.450
35947W        W 8372  17.538  13.817  11.504
35948W        W 8373  24.317   0.776   3.582
35949W        W 8374  35.650  26.288   3.849
35950W        W 8375  25.040  18.944  13.474
35951W        W 8376  11.774   1.916   5.050
35952W        W 8377  39.951  39.061   2.758
35953W        W 8378  43.512  39.486   1.645
35954W        W 8379   1.880  14.898  11.192
35955W        W 8380   7.681  21.435   3.564
35956W        W 8381  24.037   1.952   4.067
35957W        W 8382  26.996   8.665  13.628
35958W        W 8383   3.947  30.640  13.092
35959W        W 8384  26.436  12.105   1.387
35960W        W 8385  37.765  35.479   3.011
35961W        W 8386  34.888   4.803   1.806
35962W        W 8387  32.886  32.019   0.777
35963W        W 8388  44.496  17.033   3.309
35964W        W 8389  37.206  34.028   0.368
35965W        W 8390  12.175  39.641  14.854
35966W        W 8391  16.234  15.212   4.079
35967W        W 8392  26.135   0.050   4.585
35968W        W 8393  40.391  25.079   5.591
35969W        W 8394  25.639   2.140   1.919
35970W        W 8395  43.086  25.516  12.875
35971W        W 8396  28.774  16.615   2.221
35972W        W 8397   1.923  26.705  12.946
35973W        W 8398  24.158  20.577  13.462
35974W        W 8399  24.935  11.308   2.874
35975W        W 8400  11.150  17.437   4.737
35976W        W 8401  37.419  11.207   4.610
35977W        W 8402   7.391   3.037   0.468
35978W        W 8403  41.615  12.417  12.449
35979W        W 8404  21.996  34.628  11.510
35980W        W 8405  11.745  30.000   0.409
35981W        W 8406   3.666  36.765   1.823
35982W        W 8407  24.570  21.376   0.480
35983W        W 8408   4.673  32.642  14.640
35984W        W 8409  18.162  18.528   4.620
35985W        W 8410  40.245  15.549   3.694
35986W        W 8411  31.109  17.238  13.603
35987W        W 8412  22.060  43.157  11.523
35988W        W 8413  25.264  41.099   0.518
35989W        W 8414   8.758  44.344  10.167
35990W        W 8415   1.688   7.736  13.270
35991W        W 8416  30.589   2.878  11.421
35992W        W 8417  22.830   1.984  12.001
35993W        W 8418  29.496  15.132  13.492
35994W        W 8419  44.276  30.529   2.451
35995W        W 8420  37.646   9.151   0.561
35996W        W 8421  27.731  23.688  11.188
35997W        W 8422  33.125  15.584  12.460
35998W        W 8423  20.358  32.602  13.966
35999W        W 8424  35.484  10.174   1.418
36000W        W 8425  44.335  34.131   4.103
36001W        W 8426  37.825  37.059   1.661
36002W        W 8427  44.839  31.705  13.027
36003W        W 8428  22.213  42.931  13.826
36004W        W 8429   3.815   4.056   2.852
36005W        W 8430  35.557   8.483  12.462
36006W        W 8431  27.897  21.141   0.057
36007W        W 8432  41.572   0.240   2.690
36008W        W 8433  43.870  39.476  14.973
36009W        W 8434  19.729  29.273   0.262
36010W        W 8435  31.095  14.910   4.003
36011W        W 8436  16.068  22.018  11.194
36012W        W 8437  14.606  37.715   4.623
36013W        W 8438  31.450  34.192  14.263
36014W        W 8439  13.654  33.037  14.811
36015W        W 8440   2.428  42.006   0.518
36016W        W 8441   5.503   3.304   3.575
36017W        W 8442   7.740  30.619  13.481
36018W        W 8443  16.742  44.884   4.320
36019W        W 8444   6.660   8.684  14.575
36020W        W 8445  29.837  22.653   0.877
36021W        W 8446   7.943  23.876   0.430
36022W        W 8447  25.464  24.123  14.022
36023W        W 8448  10.304  33.843  11.802
36024W        W 8449   7.137  14.336   1.321
36025W        W 8450  29.166  36.996  13.072
36026W        W 8451  21.270   4.097   2.885
36027W        W 8452  24.652  30.230   2.374
36028W        W 8453  17.670   5.524   4.130
36029W        W 8454  25.566  26.447  12.217
36030W        W 8455   4.663  40.543   2.089
36031W        W 8456  28.548  35.041  14.746
36032W        W 8457  38.009  31.103   1.364
36033W        W 8458  16.520  22.734  11.271
36034W        W 8459  33.702  11.591   0.290
36035W        W 8460  40.040   3.964   2.281
36036W        W 8461  40.944   0.343  10.687
36037W        W 8462  31.264  36.294   9.993
36038W        W 8463  44.146  12.603  10.026
36039W        W 8464  28.466   1.254   0.643
36040W        W 8465  22.899   0.273  10.389
36041W        W 8466  20.570  33.422   4.571
36042W        W 8467  19.065   8.264   1.734
36043W        W 8468  40.398   0.875  13.444
36044W        W 8469  34.830  21.794  13.049
36045W        W 8470  12.246   4.586   9.746
36046W        W 8471   3.333  18.741  12.097
36047W        W 8472   6.068  17.336  11.880
36048W        W 8473  37.956   3.060  13.813
36049W        W 8474   7.685  36.494  13.492
36050W        W 8475  44.941  11.064   0.999
36051W        W 8476  20.921  35.987  10.128
36052W        W 8477  44.428  26.635  11.223
36053W        W 8478  44.915   3.168  13.367
36054W        W 8479   2.902  40.302  13.312
36055W        W 8480  16.760   4.818   3.593
36056W        W 8481  16.845  16.080  14.337
36057W        W 8482  28.479  19.212  11.147
36058W        W 8483   5.918   0.410  12.021
36059W        W 8484  36.680  29.010   1.810
36060W        W 8485   5.989   9.708  11.065
36061W        W 8486  13.864  22.777   1.359
36062W        W 8487   4.878   7.317   4.618
36063W        W 8488   2.444  10.382   2.254
36064W        W 8489   2.455  13.800  12.860
36065W        W 8490   5.853   9.140   4.016
36066W        W 8491  12.894  42.397  11.801
36067W        W 8492  19.931  27.362  10.666
36068W        W 8493  28.068  21.808   1.263
36069W        W 8494  37.830  10.130   2.279
36070W        W 8495  40.000  10.399  13.428
36071W        W 8496  16.379  18.482  11.203
36072W        W 8497  15.144  42.817  14.364
36073W        W 8498   8.205   2.817  14.732
36074W        W 8499  19.736   9.284   1.266
36075W        W 8500  22.492  43.717  10.134
36076W        W 8501  29.041   1.223   2.416
36077W        W 8502  18.964   3.833  14.724
36078W        W 8503   9.158  32.722   4.873
36079W        W 8504  15.093  39.576   2.324
36080W        W 8505  33.831  30.357  13.959
36081W        W 8506  12.779   6.470  12.894
36082W        W 8507  11.763  27.570  11.907
36083W        W 8508  44.755  18.214   0.409
36084W        W 8509  32.854   9.870   4.370
36085W        W 8510  32.923   8.296  10.663
36086W        W 8511  15.703  44.426   0.123
36087W        W 8512   7.024  42.325  12.899
36088W        W 8513  35.958  31.508   1.577
36089W        W 8514  19.667   4.357   0.405
36090W        W 8515  27.908  10.790   0.208
36091W        W 8516  37.457  42.973  10.956
36092W        W 8517  40.537  13.349  11.257
36093W        W 8518  15.606   9.835  13.957
36094W        W 8519  24.557  27.691  14.884
36095W        W 8520  44.807  21.249  10.626
36096W        W 8521  29.956  42.591  11.933
36097W        W 8522  28.630  35.513  11.145
36098W        W 8523  14.871  38.557  13.566
36099W        W 8524  44.919   7.869   1.485
36100W        W 8525  39.373   2.186   2.387
36101W        W 8526  35.511  15.345  13.606
36102W        W 8527  31.884  19.199  12.860
36103W        W 8528  17.061   2.374   2.128
36104W        W 8529   5.433  44.936  14.030
36105W        W 8530  23.245  18.277   2.676
36106W        W 8531   6.671  35.816  12.435
36107W        W 8532  37.992  41.741  12.393
36108W        W 8533  21.066  40.405   2.744
36109W        W 8534  29.647  16.324   3.564
36110W        W 8535  34.591  37.445   2.111
36111W        W 8536  42.430   1.438  13.944
36112W        W 8537   8.608  17.511   4.445
36113W        W 8538  25.938   3.450  11.471
36114W        W 8539   6.731  12.863  14.084
36115W        W 8540   7.614  28.433   3.214
36116W        W 8541  36.569  10.977   4.075
36117W        W 8542  35.715   4.255   4.577
36118W        W 8543  43.411  15.453  10.365
36119W        W 8544  34.735   8.646   2.239
36120W        W 8545  39.738  33.872   4.563
36121W        W 8546  29.182  29.552   1.362
36122W        W 8547  28.960  35.374  14.598
36123W        W 8548  42.974  42.962   3.837
36124W        W 8549  44.930  21.862  13.462
36125W        W 8550  11.763  36.879   3.321
36126W        W 8551   2.809  41.326   0.436
36127W        W 8552  11.401  31.698   4.213
36128W        W 8553  22.077   6.908   4.523
36129W        W 8554  29.826  22.215   4.127
36130W        W 8555  18.649  26.710  13.479
36131W        W 8556   7.948   8.100   0.245
36132W        W 8557   5.718  21.242   4.625
36133W        W 8558  21.065  11.938   5.153
36134W        W 8559  43.739  22.943   3.696
36135W        W 8560  28.210  27.751   2.787
36136W        W 8561   8.684   4.768  11.829
36137W        W 8562  37.111  44.954  14.335
36138W        W 8563  30.508   2.354   4.961
36139W        W 8564  12.137  34.013  12.504
36140W        W 8565  17.477  42.385   1.862
36141W        W 8566  14.210  36.988   3.206
36142W        W 8567  44.807  26.436   2.342
36143W        W 8568   5.349  16.634   3.362
36144W        W 8569  39.599   1.258  14.454
36145W        W 8570  31.129  33.559  11.897
36146W        W 8571   9.725   2.824   1.218
36147W        W 8572   8.613   4.846  13.730
36148W        W 8573  10.546  19.597  10.375
36149W        W 8574   6.483  18.866  14.925
36150W        W 8575  37.984   2.711  10.977
36151W        W 8576   1.808  41.376  12.978
36152W        W 8577  44.499  29.833  12.079
36153W        W 8578   4.923  30.389  12.464
36154W        W 8579  26.615  15.866  10.132
36155W        W 8580  16.727  42.930  10.215
36156W        W 8581   6.356   0.600   2.424
36157W        W 8582  15.623  32.004   1.480
36158W        W 8583  27.533  36.361   2.937
36159W        W 8584  24.857  18.204   1.955
36160W        W 8585  16.622   5.362   4.359
36161W        W 8586  36.543   3.252   1.373
36162W        W 8587  41.507   0.769  11.986
36163W        W 8588  15.640  18.148  10.937
36164W        W 8589  41.555  17.263   0.467
36165W        W 8590   9.195   0.987  12.740
36166W        W 8591  11.615  41.298   1.823
36167W        W 8592   5.221  30.502  12.021
36168W        W 8593  37.236  31.523   3.222
36169W        W 8594  18.418  13.168   0.659
36170W        W 8595   8.669  23.016   1.786
36171W        W 8596  40.585  12.660   0.406
36172W        W 8597   6.830   9.558   0.203
36173W        W 8598  36.968  26.798   3.696
36174W        W 8599  32.001  38.611  12.314
36175W        W 8600  25.897  41.863   1.843
36176W        W 8601  18.021  11.653   0.874
36177W        W 8602  26.523  11.913   0.235
36178W        W 8603   6.733  25.495  13.101
36179W        W 8604  43.516   7.934  12.550
36180W        W 8605  30.665  24.510   3.252
36181W        W 8606  13.167  30.737  12.113
36182W        W 8607   2.641  10.044   4.834
36183W        W 8608  35.777  21.775   0.397
36184W        W 8609   3.180  16.534   4.035
36185W        W 8610  28.396  42.313  14.941
36186W        W 8611  44.527   4.430   2.258
36187W        W 8612  18.180   1.825  12.420
36188W        W 8613  26.929  44.492   2.573
36189W        W 8614   8.686  41.916  11.690
36190W        W 8615  25.005  12.597  13.544
36191W        W 8616  17.432  44.869   3.740
36192W        W 8617  22.402  21.786  12.925
36193W        W 8618   0.261   1.982   0.619
36194W        W 8619   6.421  35.413  13.181
36195W        W 8620   2.625   1.193   1.944
36196W        W 8621  38.795  13.142   0.498
36197W        W 8622  17.054  20.499   2.757
36198W        W 8623  34.014  28.184   3.215
36199W        W 8624  10.062  23.808  13.012
36200W        W 8625  32.161  36.976  10.963
36201W        W 8626  30.586  37.119  12.402
36202W        W 8627  29.570  43.952  10.604
36203W        W 8628  14.806  35.456   0.080
36204W        W 8629   1.196  24.746  10.326
36205W        W 8630  35.407   3.351  14.328
36206W        W 8631   5.334   4.194   3.863
36207W        W 8632   0.677   1.917  12.124
36208W        W 8633   8.386  11.584  11.089
36209W        W 8634   1.855  29.696   3.153
36210W        W 8635   4.416  27.217   3.010
36211W        W 8636  10.690  31.895  14.039
36212W        W 8637  37.410  30.047  11.874
36213W        W 8638  10.072  38.356  11.264
36214W        W 8639  28.975  33.375  10.763
36215W        W 8640  17.706  23.660   1.759
36216W        W 8641  34.361  26.550   2.204
36217W        W 8642   6.020  27.665  14.762
36218W        W 8643  37.529  30.961  11.213
36219W        W 8644  10.785   2.688  10.635
36220W        W 8645  39.439  17.064  11.987
36221W        W 8646  21.140  41.003   1.372
36222W        W 8647  32.424  25.051   3.214
36223W        W 8648  42.582  32.987  13.961
36224W        W 8649  20.180  41.994  14.943
36225W        W 8650   5.664  16.655   1.444
36226W        W 8651   9.371  13.354  13.843
36227W        W 8652  27.538  40.933   5.448
36228W        W 8653   5.396  17.540   2.181
36229W        W 8654  34.765  10.869   2.910
36230W        W 8655  16.358   6.745   4.577
36231W        W 8656  12.723  38.394  12.453
36232W        W 8657  44.539  36.422   0.267
36233W        W 8658   2.245  28.609   0.545
36234W        W 8659  18.160  25.250  14.939
36235W        W 8660   3.838  27.976   4.245
36236W        W 8661  24.240   8.027   1.194
36237W        W 8662  35.108  41.022  11.634
36238W        W 8663  24.217   5.995   0.267
36239W        W 8664  14.721  13.639  11.352
36240W        W 8665   0.797  33.313  14.843
36241W        W 8666  30.828   0.531   4.650
36242W        W 8667  10.312  18.408   2.129
36243W        W 8668  25.472  34.481   4.018
36244W        W 8669  19.242  27.892  12.133
36245W        W 8670  29.175  28.031  14.948
36246W        W 8671  11.091   8.256  12.615
36247W        W 8672  33.500  15.788  14.421
36248W        W 8673  38.014  12.658  13.488
36249W        W 8674   6.047  27.222   0.004
36250W        W 8675   0.222  14.093   4.214
36251W        W 8676   8.169  22.273   3.223
36252W        W 8677  28.490   2.260   4.649
36253W        W 8678  24.203   2.215   2.729
36254W        W 8679  33.624  38.930   1.766
36255W        W 8680  13.410  29.816   4.147
36256W        W 8681  32.009   2.243   3.737
36257W        W 8682  41.747  23.053   0.334
36258W        W 8683   5.902   9.691   0.636
36259W        W 8684  39.844  40.139   3.564
36260W        W 8685   5.388  38.274  12.502
36261W        W 8686   3.456  40.755   3.643
36262W        W 8687   2.857  19.284  12.939
36263W        W 8688  17.278  19.243  14.508
36264W        W 8689  25.177  29.450  12.343
36265W        W 8690   1.319  38.360  14.491
36266W        W 8691  28.950   0.538  11.577
36267W        W 8692  19.492  44.710  11.459
36268W        W 8693   8.568  41.471   0.996
36269W        W 8694  30.979  44.210   2.696
36270W        W 8695  19.674  44.159  10.327
36271W        W 8696  32.354  37.034   2.510
36272W        W 8697   8.704  33.003   2.791
36273W        W 8698  28.976  34.641   1.243
36274W        W 8699  23.258  19.233   1.780
36275W        W 8700  43.854  16.758   1.184
36276W        W 8701  43.495  15.593   0.478
36277W        W 8702  40.487  32.355  11.585
36278W        W 8703  42.607   5.776   3.131
36279W        W 8704   0.218   4.863  11.470
36280W        W 8705  33.528   4.703  10.805
36281W        W 8706   0.982   7.361  11.573
36282W        W 8707  17.297  31.553   1.988
36283W        W 8708  36.582  27.129   3.562
36284W        W 8709  10.658  19.168   2.487
36285W        W 8710  16.539  36.912   1.214
36286W        W 8711   0.815  28.236   0.782
36287W        W 8712  10.023  18.054   3.705
36288W        W 8713  22.225  26.106  11.848
36289W        W 8714  36.635  10.272   0.199
36290W        W 8715  34.601   8.440  10.652
36291W        W 8716  15.195   2.485   1.761
36292W        W 8717  18.681  29.686   4.155
36293W        W 8718   5.780  10.917   3.672
36294W        W 8719  23.027  27.697   2.490
36295W        W 8720   6.964   4.702  12.816
36296W        W 8721   9.824  27.589   0.829
36297W        W 8722  19.472  15.982  11.196
36298W        W 8723  41.553  35.849   0.924
36299W        W 8724  43.898  11.360   0.297
36300W        W 8725  20.014   4.627  11.433
36301W        W 8726  14.590   8.774   1.177
36302W        W 8727  18.122  26.777   4.664
36303W        W 8728   6.206  11.665  10.645
36304W        W 8729   6.218  25.278  14.308
36305W        W 8730  43.133  11.680  11.470
36306W        W 8731   9.894  26.633   4.539
36307W        W 8732   1.461   6.661   0.348
36308W        W 8733  35.421   7.699   1.930
36309W        W 8734  38.597  26.792  12.452
36310W        W 8735   2.664   1.735  12.973
36311W        W 8736  35.902  10.188   2.178
36312W        W 8737  34.588  34.864   4.188
36313W        W 8738  17.329  23.107   4.622
36314W        W 8739  41.087   2.702   2.696
36315W        W 8740   5.888  37.417   3.951
36316W        W 8741  31.613  10.598  14.903
36317W        W 8742   7.644   9.365  14.818
36318W        W 8743  25.238  10.870   2.890
36319W        W 8744  31.658   4.871   0.365
36320W        W 8745  22.711  42.405   4.372
36321W        W 8746  17.774   8.233  12.648
36322W        W 8747  28.935  41.773   0.394
36323W        W 8748   1.398  44.047  13.587
36324W        W 8749  25.852  44.750   1.592
36325W        W 8750   0.242  43.785  13.951
36326W        W 8751  37.164   0.833   4.873
36327W        W 8752  43.038  41.379   3.694
36328W        W 8753   7.618  23.625   3.285
36329W        W 8754   7.721   9.690   4.476
36330W        W 8755  33.328  20.626   4.006
36331W        W 8756  17.666  21.808  14.897
36332W        W 8757  44.350  39.111   2.638
36333W        W 8758  12.964  22.670  11.516
36334W        W 8759  42.777  14.723  12.520
36335W        W 8760  19.364  27.305   3.942
36336W        W 8761  41.301  11.760  11.148
36337W        W 8762  26.011   5.309   3.421
36338W        W 8763  13.053  44.860  12.923
36339W        W 8764  36.752  25.184  14.400
36340W        W 8765  31.627   8.575   3.636
36341W        W 8766   1.336  32.405  10.231
36342W        W 8767  42.272  42.023   4.205
36343W        W 8768  40.366   7.747   2.324
36344W        W 8769   7.431   0.833   0.302
36345W        W 8770  12.291  12.838   0.366
36346W        W 8771  28.115  16.127   3.728
36347W        W 8772  42.375  15.074   2.310
36348W        W 8773  44.850  30.630  10.637
36349W        W 8774  21.326  43.341  11.141
36350W        W 8775  21.491  12.039   0.831
36351W        W 8776  10.262  35.049  12.110
36352W        W 8777   5.878  25.290  10.732
36353W        W 8778  24.187  12.703   3.763
36354W        W 8779  34.139  16.626  13.254
36355W        W 8780  44.286   2.980  12.986
36356W        W 8781   6.920  19.667  12.929
36357W        W 8782   3.139  44.490  12.927
36358W        W 8783  21.732  19.748   5.094
36359W        W 8784   5.237   9.951  13.550
36360W        W 8785  11.771  30.385   3.695
36361W        W 8786  33.170  17.234  11.515
36362W        W 8787   1.161  21.089  11.250
36363W        W 8788  40.555  19.734  13.984
36364W        W 8789  14.582  39.196   4.075
36365W        W 8790   2.914  31.891   2.702
36366W        W 8791   5.458  40.366   2.201
36367W        W 8792   0.868  36.629  11.550
36368W        W 8793  44.015   1.289   3.864
36369W        W 8794   2.582   1.536   0.743
36370W        W 8795   5.740   7.350   4.607
36371W        W 8796  42.571  10.604  14.760
36372W        W 8797  29.409  27.646   3.751
36373W        W 8798  24.387  16.687  12.569
36374W        W 8799  13.966  10.589  11.150
36375W        W 8800  35.230  18.155  10.771
36376W        W 8801  31.952  27.056  11.271
36377W        W 8802  40.727  22.479  14.759
36378W        W 8803  16.600  33.219  13.690
36379W        W 8804   2.543  42.021   3.508
36380W        W 8805  43.764  35.889   1.228
36381W        W 8806  21.042  44.801  13.347
36382W        W 8807  14.315  24.655   3.700
36383W        W 8808  20.570  12.323   9.629
36384W        W 8809   1.210  18.054  14.272
36385W        W 8810  18.830  26.461  13.936
36386W        W 8811  29.480  14.366   4.147
36387W        W 8812  31.426  27.385  12.888
36388W        W 8813  15.765  43.554   0.646
36389W        W 8814   1.329  26.431   1.620
36390W        W 8815  28.662  20.866  12.522
36391W        W 8816  18.500  12.620  10.910
36392W        W 8817  33.835   1.778  14.830
36393W        W 8818   2.739  42.833   4.136
36394W        W 8819  20.109  42.055  11.140
36395W        W 8820  18.557  29.414  11.418
36396W        W 8821  40.042   3.871   3.827
36397W        W 8822  43.758   1.990   4.013
36398W        W 8823  20.216  22.121   1.674
36399W        W 8824  13.647  36.623   4.174
36400W        W 8825   2.772   2.443  10.730
36401W        W 8826  35.506  11.830   1.000
36402W        W 8827  43.310  34.058  12.250
36403W        W 8828   9.906  23.595  12.510
36404W        W 8829  19.145  12.172  14.941
36405W        W 8830   6.221  12.133  10.867
36406W        W 8831  23.111   8.472  11.541
36407W        W 8832  31.995  44.658  14.438
36408W        W 8833  12.662  41.847   0.864
36409W        W 8834  35.751  15.739  10.914
36410W        W 8835  23.597  15.323   2.113
36411W        W 8836   3.066  27.833  13.593
36412W        W 8837  28.954  22.721  14.644
36413W        W 8838  20.056  41.974   1.307
36414W        W 8839  29.883  41.433  13.349
36415W        W 8840  27.994  34.768   3.754
36416W        W 8841   7.220  35.358   3.203
36417W        W 8842   2.432   9.272  13.050
36418W        W 8843   0.266  15.265  14.493
36419W        W 8844  19.104   7.176   1.588
36420W        W 8845  18.206  37.844   2.772
36421W        W 8846   8.301  17.526   3.378
36422W        W 8847  17.129  20.803   4.133
36423W        W 8848  15.267   7.673  12.418
36424W        W 8849  36.179   2.745   0.094
36425W        W 8850  13.841   4.003   0.924
36426W        W 8851  41.264  23.660  13.371
36427W        W 8852   5.321  28.393  11.494
36428W        W 8853  28.628   1.223  13.943
36429W        W 8854   5.850  33.175   1.162
36430W        W 8855  38.926  24.452   4.626
36431W        W 8856  13.227  44.429   3.990
36432W        W 8857  13.094   7.655   0.858
36433W        W 8858  31.891  32.946   1.599
36434W        W 8859  14.674   4.855   2.149
36435W        W 8860  15.190  12.226   1.395
36436W        W 8861  29.796   9.906   0.270
36437W        W 8862  23.908  32.233  13.923
36438W        W 8863  39.502  29.623   3.211
36439W        W 8864  37.041  15.196   2.361
36440W        W 8865  17.330   3.794   4.359
36441W        W 8866  10.627  24.239   4.212
36442W        W 8867  35.931  19.257   4.238
36443W        W 8868  14.587  12.040  11.206
36444W        W 8869  14.810  32.178  11.201
36445W        W 8870  11.774  29.474  13.799
36446W        W 8871  38.142  24.401  11.201
36447W        W 8872  36.584  22.639  12.439
36448W        W 8873  38.985   1.468   0.782
36449W        W 8874   7.246   1.457  14.357
36450W        W 8875  44.832  18.584  13.607
36451W        W 8876  35.950  20.468  11.346
36452W        W 8877  14.571  22.745  11.140
36453W        W 8878  11.948   4.438  11.351
36454W        W 8879  22.455   0.563   2.465
36455W        W 8880  31.524   1.814  10.369
36456W        W 8881  11.187  32.117  13.553
36457W        W 8882  12.311   1.839  11.880
36458W        W 8883  11.902  40.673  13.877
36459W        W 8884  35.055   4.318  14.431
36460W        W 8885   6.670  28.278   4.318
36461W        W 8886  35.046  16.715  10.813
36462W        W 8887   8.832   1.465  13.962
36463W        W 8888  11.107  37.347   0.491
36464W        W 8889  19.965   8.331   4.160
36465W        W 8890  34.839   0.339   4.802
36466W        W 8891  26.749  24.696   3.748
36467W        W 8892  26.932  20.024  13.425
36468W        W 8893   4.018  24.707  14.433
36469W        W 8894  13.632   2.395  13.415
36470W        W 8895  40.654  13.579   2.827
36471W        W 8896  19.032  28.010   2.187
36472W        W 8897  11.899  19.988  13.949
36473W        W 8898  41.469  43.795   3.636
36474W        W 8899  37.371  43.236  11.899
36475W        W 8900  23.592  29.394   3.790
36476W        W 8901  35.776  27.551  12.813
36477W        W 8902  10.701  29.100   2.756
36478W        W 8903  11.850  30.399   2.789
36479W        W 8904  30.549  16.874  12.651
36480W        W 8905  42.084  16.066   3.726
36481W        W 8906  17.389  34.571   1.794
36482W        W 8907  21.608  33.149  12.870
36483W        W 8908  33.998  21.020  12.681
36484W        W 8909  30.087   4.189  11.638
36485W        W 8910  22.240  38.086   2.848
36486W        W 8911  15.790  32.016  13.933
36487W        W 8912  15.335  40.952   0.439
36488W        W 8913   2.663  32.374   2.802
36489W        W 8914   4.499  33.396  12.137
36490W        W 8915  16.593   2.389   2.408
36491W        W 8916   3.881  13.444  10.770
36492W        W 8917   7.398  34.194  14.459
36493W        W 8918  27.233  17.622   1.871
36494W        W 8919  33.328  16.960  13.726
36495W        W 8920  43.541   6.650  13.827
36496W        W 8921  17.137  20.961   1.552
36497W        W 8922   9.898  16.596  12.133
36498W        W 8923  11.047  19.002  14.714
36499W        W 8924  11.419  14.204   3.282
36500W        W 8925  29.256  24.462   1.004
36501W        W 8926  10.848   1.460  13.992
36502W        W 8927  29.892  30.489  12.627
36503W        W 8928   0.043  19.082   0.856
36504W        W 8929  40.301  12.818  10.372
36505W        W 8930  35.185  26.254   0.890
36506W        W 8931  27.621  42.894   0.071
36507W        W 8932  28.926  43.024   2.836
36508W        W 8933   6.164   8.608   2.862
36509W        W 8934  15.020  35.358  11.007
36510W        W 8935  20.481  41.069  14.873
36511W        W 8936  11.791  28.583   2.453
36512W        W 8937  11.228  39.115  14.013
36513W        W 8938  14.847  38.951   0.230
36514W        W 8939  11.346  22.986  10.661
36515W        W 8940  37.609  16.043  11.422
36516W        W 8941  33.764  26.602  11.639
36517W        W 8942   0.393   1.470  12.081
36518W        W 8943  10.772  29.934  13.528
36519W        W 8944  28.054  16.389  12.907
36520W        W 8945   9.575  13.354  11.167
36521W        W 8946  34.402  30.754  10.807
36522W        W 8947  17.268  44.331  12.556
36523W        W 8948  14.048  32.045  12.855
36524W        W 8949  11.654   4.378  12.057
36525W        W 8950  14.198   8.198   2.630
36526W        W 8951  40.435  12.039   4.579
36527W        W 8952  23.122  11.229   0.332
36528W        W 8953  44.035  12.425  13.891
36529W        W 8954  42.891   6.197  12.795
36530W        W 8955  15.342  30.286   2.255
36531W        W 8956  35.485  44.266  14.323
36532W        W 8957  34.160  31.828  11.576
36533W        W 8958  41.225  35.459  13.792
36534W        W 8959  18.182   1.881   4.408
36535W        W 8960  20.218  43.785   1.860
36536W        W 8961  32.477  29.733   2.152
36537W        W 8962  30.682  18.609  11.985
36538W        W 8963  37.921  23.008   4.503
36539W        W 8964  14.734  34.042  11.919
36540W        W 8965  39.465  27.357   1.864
36541W        W 8966  16.862  14.238  14.474
36542W        W 8967   1.678   4.730  13.891
36543W        W 8968   3.447  36.048   3.914
36544W        W 8969   6.398  15.484   1.188
36545W        W 8970  10.771  23.615  11.092
36546W        W 8971  18.414  42.329  14.150
36547W        W 8972   1.504  15.680   3.588
36548W        W 8973  24.075  44.520  13.755
36549W        W 8974  11.338   6.583  11.562
36550W        W 8975  28.955  16.333   1.823
36551W        W 8976   9.360   8.674  10.857
36552W        W 8977  17.183  41.824  10.426
36553W        W 8978   7.751  33.172   3.595
36554W        W 8979  23.585  18.132   4.412
36555W        W 8980  38.025  12.180  11.559
36556W        W 8981  38.857   2.730  10.922
36557W        W 8982   8.183  41.116  11.553
36558W        W 8983   4.491  10.655  12.809
36559W        W 8984  31.602  11.128   0.813
36560W        W 8985  22.478  31.484   1.981
36561W        W 8986  12.696   3.733  14.992
36562W        W 8987   9.918   4.726   3.695
36563W        W 8988   2.262   1.346   2.266
36564W        W 8989   8.261  15.284  11.262
36565W        W 8990  29.158  30.399  13.021
36566W        W 8991  28.079  44.437  13.493
36567W        W 8992  17.311  18.068  10.721
36568W        W 8993  16.362   8.334  14.459
36569W        W 8994  22.801  28.317   2.605
36570W        W 8995  30.342   2.916  13.905
36571W        W 8996  28.988  24.141   0.676
36572W        W 8997   9.632  19.717  14.234
36573W        W 8998  14.021  32.055   0.809
36574W        W 8999   9.869   5.013   0.511
36575W        W 9000  11.798  39.338   1.835
36576W        W 9001   9.901   3.519   3.295
36577W        W 9002   4.200  44.221   4.159
36578W        W 9003  11.636  33.430  14.884
36579W        W 9004  39.465  16.538   2.797
36580W        W 9005  35.116  38.586  13.941
36581W        W 9006  42.125  42.464   0.906
36582W        W 9007   0.452  27.899   2.879
36583W        W 9008  35.196  38.090   3.305
36584W        W 9009   5.507  14.071   1.749
36585W        W 9010  36.508  14.383   0.826
36586W        W 9011  12.200  33.091  13.743
36587W        W 9012  32.907   0.317   3.409
36588W        W 9013  43.905  13.195   0.796
36589W        W 9014  18.823  18.571  12.519
36590W        W 9015  38.746  30.007   2.785
36591W        W 9016  21.197  38.894  12.882
36592W        W 9017  38.566  22.085   3.689
36593W        W 9018  33.363  20.199  14.240
36594W        W 9019  29.648   9.962  12.114
36595W        W 9020  36.338  25.210  10.105
36596W        W 9021  37.766  23.101  11.848
36597W        W 9022   9.060  38.731  12.105
36598W        W 9023  32.130  25.594   4.837
36599W        W 9024  17.122   4.371  10.250
36600W        W 9025  29.560  11.486   0.891
36601W        W 9026  41.491   2.402   2.471
36602W        W 9027   5.317  25.895  12.496
36603W        W 9028   9.016   3.604   3.831
36604W        W 9029   3.300  32.068   2.181
36605W        W 9030  16.322   2.212   4.338
36606W        W 9031  19.214  24.723  10.772
36607W        W 9032  28.549   5.544  10.625
36608W        W 9033   9.226   1.501   2.907
36609W        W 9034   6.086  17.809  13.000
36610W        W 9035   9.709  28.615  12.375
36611W        W 9036   8.912  43.748  12.740
36612W        W 9037  36.655   5.733  14.292
36613W        W 9038  30.273   0.830   2.547
36614W        W 9039   1.342  28.183   1.451
36615W        W 9040  33.115  11.414   2.200
36616W        W 9041  44.329   3.233  14.285
36617W        W 9042   6.709   2.582   4.220
36618W        W 9043  12.905  34.915   2.772
36619W        W 9044   5.611  28.639  14.971
36620W        W 9045   4.435  14.110   0.342
36621W        W 9046  24.693   7.167   3.128
36622W        W 9047  39.583  43.381   4.879
36623W        W 9048  34.443  17.273   1.402
36624W        W 9049  37.709   1.972  13.002
36625W        W 9050  36.416  29.861   0.425
36626W        W 9051  42.224  34.215  10.251
36627W        W 9052  18.200  22.166  10.522
36628W        W 9053   6.649  30.457   3.141
36629W        W 9054  13.756   3.041   2.734
36630W        W 9055  15.039  23.024  11.953
36631W        W 9056  21.484  44.772  12.425
36632W        W 9057  18.144  43.232   3.703
36633W        W 9058  33.662  11.735  12.260
36634W        W 9059  16.382  27.029  13.803
36635W        W 9060  30.948  18.801   3.641
36636W        W 9061  25.643  10.461  10.771
36637W        W 9062  28.741   0.727   4.058
36638W        W 9063  41.973  10.178  14.027
36639W        W 9064  35.365  17.081  14.868
36640W        W 9065  24.990  24.541  14.393
36641W        W 9066  44.570   5.000  10.259
36642W        W 9067  13.817   0.509  10.247
36643W        W 9068  38.065  25.208  12.022
36644W        W 9069  26.180  33.054   1.289
36645W        W 9070  15.689  44.766  10.656
36646W        W 9071  32.446   5.278  11.971
36647W        W 9072  38.658  30.624   2.619
36648W        W 9073  37.858   0.671  11.175
36649W        W 9074  26.275  17.151  10.426
36650W        W 9075   0.558  12.798  11.296
36651W        W 9076  41.080  24.952  12.310
36652W        W 9077   4.178  34.988  12.129
36653W        W 9078  20.827  32.737  12.937
36654W        W 9079  44.449  14.095   5.048
36655W        W 9080  32.997  43.584   4.139
36656W        W 9081   5.050  37.428   1.867
36657W        W 9082  23.123  41.095   2.757
36658W        W 9083  40.397   9.849  11.573
36659W        W 9084  26.253   5.571  11.061
36660W        W 9085   1.164  37.470  10.586
36661W        W 9086  18.134  10.145  12.526
36662W        W 9087   0.349   0.698   3.573
36663W        W 9088  18.709   5.602  11.564
36664W        W 9089  30.930  44.626  11.379
36665W        W 9090   7.335  26.468   4.122
36666W        W 9091  18.617  39.288  14.551
36667W        W 9092  20.982  13.331   0.286
36668W        W 9093  11.312  33.945   0.756
36669W        W 9094  16.451  41.359   4.546
36670W        W 9095  30.864  41.820   2.202
36671W        W 9096   1.636  14.631   1.406
36672W        W 9097  37.451  37.596   3.287
36673W        W 9098  31.547   4.298   3.962
36674W        W 9099  11.209   6.737   0.725
36675W        W 9100   5.794  26.508   0.821
36676W        W 9101  41.980  44.881   3.316
36677W        W 9102  28.721  19.037   1.288
36678W        W 9103  31.516   2.247   0.021
36679W        W 9104   6.052   3.371  10.819
36680W        W 9105   5.933  10.375  13.031
36681W        W 9106   1.413   7.053  12.102
36682W        W 9107  39.046  24.171  13.481
36683W        W 9108   7.768  39.257   2.371
36684W        W 9109  31.324  12.625   2.203
36685W        W 9110  26.897  16.265  14.880
36686W        W 9111   9.946  17.529   2.939
36687W        W 9112  26.559  18.844   2.125
36688W        W 9113   7.130   4.282   3.294
36689W        W 9114  13.585  20.623  14.470
36690W        W 9115  35.456  39.396  13.297
36691W        W 9116  27.960  18.154  10.031
36692W        W 9117  42.574   1.316  12.350
36693W        W 9118  20.024  32.379   2.384
36694W        W 9119  23.983   6.313   3.567
36695W        W 9120  35.524  22.130   0.692
36696W        W 9121  40.549  13.137   0.631
36697W        W 9122  25.501  26.983   3.634
36698W        W 9123  13.441  38.970  11.143
36699W        W 9124  20.092   9.185  11.485
36700W        W 9125  18.133  31.646  10.558
36701W        W 9126  36.909  20.161  13.035
36702W        W 9127   5.435  18.114  12.418
36703W        W 9128   0.918  27.517  11.701
36704W        W 9129   9.344  25.109  13.112
36705W        W 9130  35.241   8.941  11.160
36706W        W 9131  13.264  43.815  12.446
36707W        W 9132   4.896  26.129  14.020
36708W        W 9133  19.745  26.901   0.405
36709W        W 9134  40.867  27.042   0.292
36710W        W 9135  35.155   4.938  13.925
36711W        W 9136  23.989   8.954  11.808
36712W        W 9137   4.921  33.554   1.394
36713W        W 9138  25.337  40.991  11.546
36714W        W 9139  38.576  44.009  13.538
36715W        W 9140  42.684  20.320  12.319
36716W        W 9141   7.859  36.583   4.341
36717W        W 9142  32.142   5.785  12.491
36718W        W 9143  22.012  36.685  14.809
36719W        W 9144   3.973  23.232  11.924
36720W        W 9145  19.038  32.446   2.187
36721W        W 9146  42.870  19.663   1.331
36722W        W 9147  22.201   2.380   2.132
36723W        W 9148  30.804  33.445   1.174
36724W        W 9149   5.701  13.840  10.694
36725W        W 9150  44.905  39.383  12.551
36726W        W 9151  10.280   3.336   1.757
36727W        W 9152  19.546  34.735  11.081
36728W        W 9153  18.071   7.423   1.751
36729W        W 9154  33.087  37.720   4.222
36730W        W 9155  34.873  44.954   4.261
36731W        W 9156   2.683   0.483  12.499
36732W        W 9157  21.719   8.935   1.315
36733W        W 9158  28.569   6.257   2.044
36734W        W 9159  19.105  23.172   1.396
36735W        W 9160  11.695  37.329   5.057
36736W        W 9161  24.339   6.808   3.281
36737W        W 9162  33.380   9.169   0.839
36738W        W 9163  11.216  25.588  13.530
36739W        W 9164   3.177  18.821  12.858
36740W        W 9165  20.696  19.307   0.654
36741W        W 9166  22.304  40.393   1.206
36742W        W 9167   5.767  34.227   1.376
36743W        W 9168  41.710  14.273   1.854
36744W        W 9169  27.629  33.068   3.086
36745W        W 9170  29.135   9.441   1.329
36746W        W 9171  12.842  39.339   4.151
36747W        W 9172  11.149  37.420  12.488
36748W        W 9173  44.286  44.321  11.958
36749W        W 9174  40.404  15.773  13.959
36750W        W 9175  26.158  27.921   4.102
36751W        W 9176  36.947  12.142   4.229
36752W        W 9177  18.173   3.489   2.327
36753W        W 9178  22.481  33.345  13.538
36754W        W 9179  22.302  21.031   4.169
36755W        W 9180   0.855  34.103   4.991
36756W        W 9181  28.131  17.232  14.464
36757W        W 9182  23.638  20.471   0.219
36758W        W 9183   6.840  44.015  12.482
36759W        W 9184  34.516  25.552  13.322
36760W        W 9185  32.914  41.242   3.393
36761W        W 9186  38.092  12.006  14.792
36762W        W 9187  16.061  17.782  10.995
36763W        W 9188   8.755  25.063  10.741
36764W        W 9189  14.231   2.444  11.235
36765W        W 9190  26.554   2.272  13.129
36766W        W 9191  22.489  15.759  12.012
36767W        W 9192  27.433  35.531   1.937
36768W        W 9193   2.990  27.875   3.025
36769W        W 9194  35.921  30.232   4.090
36770W        W 9195  20.758  16.797   1.408
36771W        W 9196  27.848   6.579   0.893
36772W        W 9197  25.989  36.090  11.661
36773W        W 9198   0.808  27.903   2.231
36774W        W 9199  34.790  17.840   4.613
36775W        W 9200  35.522  32.074   3.843
36776W        W 9201   9.144  43.756  13.753
36777W        W 9202  28.964   0.500  10.708
36778W        W 9203  32.440  39.016   4.341
36779W        W 9204  25.625  36.046  10.483
36780W        W 9205  23.484   8.219   0.721
36781W        W 9206  25.060   6.350  10.638
36782W        W 9207  37.874   2.198   4.198
36783W        W 9208  42.073  11.570  13.478
36784W        W 9209  23.906  22.101   0.268
36785W        W 9210  15.383  32.535   0.842
36786W        W 9211  33.639  44.728  11.642
36787W        W 9212   5.698  30.675   3.577
36788W        W 9213  42.865  17.604  11.127
36789W        W 9214  26.669  18.167  12.957
36790W        W 9215  35.412  10.611   1.152
36791W        W 9216  31.210  42.492  12.588
36792W        W 9217  21.106  20.968  10.830
36793W        W 9218   9.416  23.117   4.280
36794W        W 9219  23.710  38.027  12.085
36795W        W 9220  41.712  32.589  11.225
36796W        W 9221  16.993  13.068  13.066
36797W        W 9222   2.795  26.550   0.732
36798W        W 9223  29.250  26.537  12.306
36799W        W 9224  35.795  24.343   2.281
36800W        W 9225  29.499  25.314   2.347
36801W        W 9226  10.208   9.806  14.215
36802W        W 9227   2.754   2.082   0.700
36803W        W 9228  31.159  43.897   1.344
36804W        W 9229  41.436   9.563   4.514
36805W        W 9230  43.803  10.836   0.262
36806W        W 9231   2.334  19.753   9.869
36807W        W 9232  44.393   8.775   4.287
36808W        W 9233  18.509  22.227   0.572
36809W        W 9234  36.037   4.969   3.567
36810W        W 9235  33.353  33.315   2.817
36811W        W 9236  30.508   8.881  10.657
36812W        W 9237   8.934  32.017  12.495
36813W        W 9238  36.460   0.907  10.101
36814W        W 9239  20.321  42.290   4.740
36815W        W 9240  21.783  30.389  13.924
36816W        W 9241  43.314  13.395   0.902
36817W        W 9242  23.659  44.489  12.478
36818W        W 9243  32.419  41.301   4.635
36819W        W 9244  39.578  42.610   2.986
36820W        W 9245  30.052   5.633  10.673
36821W        W 9246   3.043  44.120   2.645
36822W        W 9247  40.881  23.102   0.670
36823W        W 9248  44.939   0.833   1.903
36824W        W 9249  32.103  24.668  12.184
36825W        W 9250  15.694  38.262  11.876
36826W        W 9251  38.094  22.145   4.581
36827W        W 9252   4.833   4.990  12.949
36828W        W 9253  19.688   2.805   4.608
36829W        W 9254  12.134  40.361  10.338
36830W        W 9255  32.610  38.175   4.892
36831W        W 9256  44.305  29.504   2.774
36832W        W 9257  21.714  20.987   1.397
36833W        W 9258  34.110  29.563   1.154
36834W        W 9259  35.566  40.088  11.448
36835W        W 9260   8.498  31.015   1.902
36836W        W 9261  41.070   5.722  14.054
36837W        W 9262  23.584  15.348  14.916
36838W        W 9263  16.854  26.944  14.715
36839W        W 9264   4.913   2.384  12.954
36840W        W 9265  44.726  18.285   3.734
36841W        W 9266   7.850  32.792   1.237
36842W        W 9267  17.697   5.757   2.279
36843W        W 9268   1.076  32.170  13.782
36844W        W 9269  43.376  23.423  12.863
36845W        W 9270  39.836  26.454   3.738
36846W        W 9271  30.430   0.460  12.887
36847W        W 9272  19.674  31.663   3.840
36848W        W 9273  12.799   7.506   3.845
36849W        W 9274   0.890  17.633   4.659
36850W        W 9275  33.206  13.853  12.092
36851W        W 9276   8.426  42.951  14.334
36852W        W 9277  29.176   5.821  12.523
36853W        W 9278  31.736  35.161  13.928
36854W        W 9279  40.165  22.533  13.602
36855W        W 9280  21.882  31.443   4.126
36856W        W 9281  37.089   3.073   2.398
36857W        W 9282  36.600   4.916   3.395
36858W        W 9283   7.127  26.064   1.400
36859W        W 9284  37.981  30.268  12.086
36860W        W 9285  34.299  23.448   2.710
36861W        W 9286  10.815  32.667   2.186
36862W        W 9287  40.822  38.652   3.989
36863W        W 9288   6.678  37.823  13.297
36864W        W 9289  34.446   2.173   4.311
36865W        W 9290  13.792  42.248  12.753
36866W        W 9291  33.549  16.193  11.577
36867W        W 9292   7.874  22.283  12.082
36868W        W 9293   3.973  19.686   4.185
36869W        W 9294  43.855  18.678   1.168
36870W        W 9295  33.040   3.871   2.204
36871W        W 9296  40.103  18.066   4.124
36872W        W 9297  12.329   1.195  14.019
36873W        W 9298  19.244   3.410  14.561
36874W        W 9299  23.261  21.035   0.874
36875W        W 9300  22.487  12.394   3.086
36876W        W 9301  33.344   8.845   1.266
36877W        W 9302  37.066  36.692  14.943
36878W        W 9303  30.874  32.119   4.543
36879W        W 9304  44.504  12.986  13.040
36880W        W 9305  13.608  29.421  13.934
36881W        W 9306  42.920   3.834   1.363
36882W        W 9307  27.590  18.161  12.977
36883W        W 9308  18.181  29.201   1.419
36884W        W 9309   1.017  33.589   5.635
36885W        W 9310  14.072  29.679  12.016
36886W        W 9311  23.562  33.741  11.081
36887W        W 9312  20.091  35.961   3.684
36888W        W 9313  38.611  11.644  14.189
36889W        W 9314  43.667  26.207  11.331
36890W        W 9315  27.461  20.644  11.563
36891W        W 9316  44.717  34.888  10.449
36892W        W 9317   3.044  16.797   4.875
36893W        W 9318  37.326   8.720  11.014
36894W        W 9319   5.290  33.048   1.933
36895W        W 9320  40.676  34.694   2.198
36896W        W 9321  43.962  20.265   3.283
36897W        W 9322  27.386  10.027   3.710
36898W        W 9323   7.848  24.951  12.568
36899W        W 9324  16.734   0.212   4.727
36900W        W 9325   7.281  44.275  12.591
36901W        W 9326  44.654   6.916   2.990
36902W        W 9327   5.382  36.234   1.709
36903W        W 9328  10.894   4.910  14.876
36904W        W 9329   7.299  34.348   1.458
36905W        W 9330  27.640   8.819  11.014
36906W        W 9331   8.769  29.450  11.916
36907W        W 9332  11.736  20.561   4.373
36908W        W 9333  38.841  24.096  12.011
36909W        W 9334  11.268  11.288  11.956
36910W        W 9335  31.971  40.313   3.585
36911W        W 9336  32.863  33.964  11.728
36912W        W 9337  29.623  17.790   1.727
36913W        W 9338   6.398   0.344   1.982
36914W        W 9339  14.660   6.380   4.174
36915W        W 9340  13.699   7.506  11.933
36916W        W 9341  22.293  33.116   0.459
36917W        W 9342  25.611  30.121  14.055
36918W        W 9343   5.632  15.720  11.035
36919W        W 9344  36.142  33.061  10.677
36920W        W 9345  26.960   7.504   2.284
36921W        W 9346  38.825  18.666  14.380
36922W        W 9347   5.838  31.245  10.629
36923W        W 9348  34.617  33.860   0.807
36924W        W 9349  31.486  10.857  11.219
36925W        W 9350  25.802  28.180  13.398
36926W        W 9351  24.436   4.694   2.691
36927W        W 9352  11.591  25.576   0.384
36928W        W 9353  21.397  27.668  11.301
36929W        W 9354  30.642  31.415   4.629
36930W        W 9355  16.045  10.042  14.208
36931W        W 9356   1.632  35.497   3.325
36932W        W 9357  12.352   2.424   4.553
36933W        W 9358  20.277  12.502   3.711
36934W        W 9359   8.995  13.912  12.567
36935W        W 9360  29.722  39.650  14.259
36936W        W 9361  28.001  30.387   4.656
36937W        W 9362  29.946  29.942   3.879
36938W        W 9363  17.310  26.067   2.369
36939W        W 9364  28.260  44.738   2.816
36940W        W 9365  23.427   6.918  14.532
36941W        W 9366  17.733   7.975   0.870
36942W        W 9367  13.596   3.759   1.368
36943W        W 9368  29.293   0.738   3.259
36944W        W 9369  42.984  35.528   3.759
36945W        W 9370  17.865  18.041  12.383
36946W        W 9371   8.788  35.260  13.795
36947W        W 9372  16.796  37.428  13.802
36948W        W 9373  31.902  28.947  14.927
36949W        W 9374  16.198  28.404   4.246
36950W        W 9375  12.859  13.202  13.557
36951W        W 9376  14.291  17.673  12.191
36952W        W 9377   0.259  29.929  14.505
36953W        W 9378  42.749  28.620   3.286
36954W        W 9379   9.887  36.474   1.757
36955W        W 9380   4.218  30.360  13.503
36956W        W 9381  20.960  21.666  13.956
36957W        W 9382  27.727  31.888   9.909
36958W        W 9383  34.941   6.661  13.349
36959W        W 9384  18.787  20.750  14.649
36960W        W 9385  33.498  27.419  12.550
36961W        W 9386  29.046  16.237  13.989
36962W        W 9387   9.477   2.345  11.414
36963W        W 9388  22.482  12.810   0.995
36964W        W 9389  32.493  23.044  10.847
36965W        W 9390  33.621  38.964   3.785
36966W        W 9391  41.492  17.358   2.246
36967W        W 9392  43.009  22.332  10.158
36968W        W 9393  20.094  11.854   0.870
36969W        W 9394  34.106  16.811   3.300
36970W        W 9395   2.254  15.595   1.094
36971W        W 9396  20.789  34.329   2.787
36972W        W 9397  41.189  14.746  11.156
36973W        W 9398  29.361  22.560   4.754
36974W        W 9399  27.122  18.690   4.651
36975W        W 9400  32.524  31.552   4.607
36976W        W 9401  17.372  15.915   0.469
36977W        W 9402  39.446  17.566  12.868
36978W        W 9403  34.640  32.456   4.662
36979W        W 9404   2.847  32.329   3.527
36980W        W 9405  17.575   2.721  13.867
36981W        W 9406  40.217  18.946  10.950
36982W        W 9407  21.677   9.427  13.164
36983W        W 9408   1.475  23.771  14.298
36984W        W 9409  13.089  12.175  11.543
36985W        W 9410  32.456  36.029  10.918
36986W        W 9411  31.325  23.830  11.038
36987W        W 9412  42.851  13.019   0.073
36988W        W 9413  20.141  22.698  11.233
36989W        W 9414  25.018  22.578  10.600
36990W        W 9415  13.955  31.127   3.046
36991W        W 9416  33.514   6.686   3.585
36992W        W 9417   6.297  38.806  13.364
36993W        W 9418  10.312  36.785  14.546
36994W        W 9419  17.102  44.255  13.447
36995W        W 9420  18.063  28.635  14.145
36996W        W 9421  37.070  31.245  12.695
36997W        W 9422  34.384  11.870   3.878
36998W        W 9423  32.676  27.462  10.537
36999W        W 9424  33.924  24.021  14.818
37000W        W 9425  29.452  22.602   2.456
37001W        W 9426  17.740  39.783   4.115
37002W        W 9427   2.790   2.530   4.117
37003W        W 9428   4.349   2.739  14.379
37004W        W 9429  12.998  12.499  10.272
37005W        W 9430  43.317  11.346  14.639
37006W        W 9431   0.797  36.901   2.155
37007W        W 9432  14.622  32.525   0.391
37008W        W 9433   2.546  20.876  10.029
37009W        W 9434  17.074  17.417   3.281
37010W        W 9435  44.575  33.633  12.540
37011W        W 9436  43.232   2.844   2.544
37012W        W 9437  15.654  27.929  10.727
37013W        W 9438  43.325  10.674  12.377
37014W        W 9439  22.005  28.101  12.895
37015W        W 9440  26.063  39.720  14.775
37016W        W 9441   9.439   2.906  14.903
37017W        W 9442  38.403  33.531   4.758
37018W        W 9443   9.748  33.098  10.850
37019W        W 9444  42.359  38.199   4.516
37020W        W 9445  29.085  15.656   3.166
37021W        W 9446  31.051  18.068   1.892
37022W        W 9447  40.046  19.157   2.280
37023W        W 9448   4.305  29.007   4.675
37024W        W 9449  28.708  34.447  14.259
37025W        W 9450  39.279   7.296  12.564
37026W        W 9451  20.054   9.738  11.676
37027W        W 9452  21.965  12.036  10.164
37028W        W 9453  23.142  31.976  12.829
37029W        W 9454  39.316  40.989   1.658
37030W        W 9455  21.101   7.818   0.281
37031W        W 9456  10.168  17.548  13.866
37032W        W 9457  18.737  12.559   1.758
37033W        W 9458  40.763  13.649   0.850
37034W        W 9459  16.904  42.870  10.700
37035W        W 9460  25.118  35.624  14.436
37036W        W 9461  12.211   7.690   2.247
37037W        W 9462  12.508  17.151  12.616
37038W        W 9463  15.318   9.422   5.094
37039W        W 9464  28.859  14.268  14.329
37040W        W 9465  22.252   8.153  12.875
37041W        W 9466  41.318  13.281   2.168
37042W        W 9467  23.065  15.524   2.174
37043W        W 9468  36.523  17.647   3.686
37044W        W 9469  21.696  10.175   1.117
37045W        W 9470  20.271  12.609  11.746
37046W        W 9471   0.900   1.413   4.049
37047W        W 9472  16.013  25.519   4.543
37048W        W 9473  37.884  22.161   1.224
37049W        W 9474  23.155  22.113  11.384
37050W        W 9475   2.854  15.500   1.297
37051W        W 9476  16.571  25.545  12.493
37052W        W 9477  44.199  22.440  14.826
37053W        W 9478  12.476  32.281   4.680
37054W        W 9479  20.326  24.502   3.353
37055W        W 9480  32.495  15.093  14.953
37056W        W 9481  35.588  22.169  13.462
37057W        W 9482   0.728  14.244   4.202
37058W        W 9483  29.571   4.242   4.621
37059W        W 9484  30.125  11.175   3.137
37060W        W 9485  34.875  25.390   1.169
37061W        W 9486  44.028  27.548   1.823
37062W        W 9487   6.975  13.700  13.155
37063W        W 9488   4.891   0.072   2.797
37064W        W 9489  26.142  36.334   0.529
37065W        W 9490  37.324  18.517  13.613
37066W        W 9491   5.659   5.308   4.396
37067W        W 9492   9.617   8.763   3.147
37068W        W 9493  23.488  14.612  12.021
37069W        W 9494  11.644  14.220   2.262
37070W        W 9495  17.496  26.191  13.792
37071W        W 9496  23.553  44.105   4.004
37072W        W 9497  34.910  18.726   1.827
37073W        W 9498  10.969   7.783   2.614
37074W        W 9499  23.783  44.867  10.658
37075W        W 9500  42.450  26.239  13.836
37076W        W 9501  16.828  15.181   3.126
37077W        W 9502  19.811  27.022   2.555
37078W        W 9503  31.098  26.126  10.993
37079W        W 9504  19.707  36.730   4.564
37080W        W 9505  36.397  31.569  10.722
37081W        W 9506  16.950   1.240   0.941
37082W        W 9507  13.630   4.974   9.659
37083W        W 9508  36.468  16.664   1.201
37084W        W 9509  36.427  30.849   4.228
37085W        W 9510   6.805  24.652   2.232
37086W        W 9511   2.307   4.061  11.296
37087W        W 9512  22.856  11.327   3.637
37088W        W 9513  15.563  34.894   2.640
37089W        W 9514  14.253   4.826  10.324
37090W        W 9515  14.764  44.756   3.782
37091W        W 9516  21.416  43.256  14.266
37092W        W 9517  25.704  12.510  14.921
37093W        W 9518  34.865  23.987   0.768
37094W        W 9519  12.246  40.156  14.907
37095W        W 9520  39.334  35.095   4.417
37096W        W 9521  15.661  40.612   2.672
37097W        W 9522  15.644  26.440   4.162
37098W        W 9523   8.331  37.153   4.486
37099W        W 9524  42.315  32.174  13.453
37100W        W 9525  23.977  11.371  14.948
37101W        W 9526   4.771  41.195   2.726
37102W        W 9527  44.610   1.922  10.638
37103W        W 9528   9.763  30.004   3.682
37104W        W 9529   5.614   2.271   0.901
37105W        W 9530  38.979  27.476   4.574
37106W        W 9531  43.603   8.287  14.226
37107W        W 9532  32.162   3.678   4.126
37108W        W 9533  40.947  39.888  11.724
37109W        W 9534  32.279   1.181  12.867
37110W        W 9535  42.424   5.833   0.369
37111W        W 9536  14.832  12.856   1.882
37112W        W 9537  43.452  43.095   4.688
37113W        W 9538   3.387   3.347  10.603
37114W        W 9539   6.470  24.625  12.050
37115W        W 9540  37.672  28.617   3.323
37116W        W 9541  28.898  13.638  10.621
37117W        W 9542  40.439  28.477  11.119
37118W        W 9543  12.746  15.432   3.798
37119W        W 9544   5.815  10.400   1.938
37120W        W 9545   1.757  16.943   3.742
37121W        W 9546  33.006  42.410  10.984
37122W        W 9547   4.358  33.650   3.346
37123W        W 9548  25.177  26.099  13.528
37124W        W 9549  34.416  15.134  11.663
37125W        W 9550  13.586   8.423   2.809
37126W        W 9551  12.087  12.754   3.800
37127W        W 9552   3.518  32.924  11.073
37128W        W 9553  36.984  19.014   2.366
37129W        W 9554  12.274  24.001  10.174
37130W        W 9555  24.582  16.269   0.076
37131W        W 9556  39.014  13.773  14.480
37132W        W 9557  14.658  44.939  12.828
37133W        W 9558  42.851  27.041  12.689
37134W        W 9559  15.764  44.065   2.625
37135W        W 9560  42.963  33.401  10.944
37136W        W 9561  29.369   1.115   2.912
37137W        W 9562  30.639  18.190  13.145
37138W        W 9563  11.915  19.601  14.549
37139W        W 9564  12.172  41.918   3.349
37140W        W 9565  10.964   2.189   1.424
37141W        W 9566   0.194  14.394   3.372
37142W        W 9567  18.670  28.292   3.280
37143W        W 9568  44.395   4.325   4.858
37144W        W 9569  34.057  36.089   3.899
37145W        W 9570   9.797  11.638  13.074
37146W        W 9571  11.707  12.918  13.773
37147W        W 9572  29.782  29.468   2.487
37148W        W 9573  17.246  37.493  13.024
37149W        W 9574  30.016  38.561  13.123
37150W        W 9575   8.600  42.051  13.980
37151W        W 9576   9.159   3.283   0.877
37152W        W 9577  38.975  17.476   4.522
37153W        W 9578  38.053   2.762  13.387
37154W        W 9579  15.614  21.247   2.300
37155W        W 9580  32.377   5.848   4.635
37156W        W 9581  31.541  15.763   4.670
37157W        W 9582  19.792  25.597  12.075
37158W        W 9583  36.524   2.192  14.579
37159W        W 9584  40.566   3.266  12.550
37160W        W 9585  36.098  42.713  13.382
37161W        W 9586  13.341  38.974   2.201
37162W        W 9587   4.815  10.246  13.623
37163W        W 9588   6.880   8.992  14.953
37164W        W 9589  22.483   4.264   3.722
37165W        W 9590  26.419  20.191   0.232
37166W        W 9591  37.208   9.288   1.382
37167W        W 9592  13.998  42.918   1.665
37168W        W 9593   0.775  34.450  14.285
37169W        W 9594  21.810   9.130  14.013
37170W        W 9595  42.199  41.393  12.087
37171W        W 9596  36.877  32.257  11.064
37172W        W 9597  40.653  33.359   0.482
37173W        W 9598  39.471   0.290   0.663
37174W        W 9599  41.364   7.266   1.190
37175W        W 9600  17.545  14.780  10.643
37176W        W 9601   2.758  25.190  14.341
37177W        W 9602  23.299   5.754   1.656
37178W        W 9603  37.982  39.809   0.307
37179W        W 9604  17.507  27.132   1.964
37180W        W 9605  39.800   8.857   4.153
37181W        W 9606  19.573  34.929  11.918
37182W        W 9607  28.553   9.527  10.816
37183W        W 9608  28.846  28.070  10.468
37184W        W 9609  16.140   9.545  11.724
37185W        W 9610  11.598  33.527   0.743
37186W        W 9611   7.787  33.924   4.264
37187W        W 9612   4.917  35.049   4.943
37188W        W 9613  20.123  24.074   3.123
37189W        W 9614   5.534   9.833   0.301
37190W        W 9615  28.464  32.101   2.236
37191W        W 9616  40.626  12.307   2.294
37192W        W 9617  25.160  39.795   2.270
37193W        W 9618  23.568  38.364  11.361
37194W        W 9619  37.055  33.533  12.904
37195W        W 9620   9.384  41.185   1.388
37196W        W 9621  16.608  38.498  10.482
37197W        W 9622  13.695  42.284  11.117
37198W        W 9623  25.152  10.463   4.184
37199W        W 9624  23.554  15.693  14.513
37200W        W 9625  33.597  30.654  11.838
37201W        W 9626   1.758  39.269  11.144
37202W        W 9627  24.079  35.837   1.746
37203W        W 9628  26.974  37.402  10.387
37204W        W 9629  16.757  39.252  10.645
37205W        W 9630  14.108  25.141   3.703
37206W        W 9631  34.752  31.191  10.704
37207W        W 9632  17.550  39.543   0.926
37208W        W 9633  29.789  27.518   1.408
37209W        W 9634  13.136   2.390   3.872
37210W        W 9635  15.974  13.074  12.581
37211W        W 9636  12.185  19.073   2.362
37212W        W 9637  40.347  39.240  13.386
37213W        W 9638  32.883  33.199   2.634
37214W        W 9639  19.771  17.116   2.920
37215W        W 9640  43.860  23.914   1.295
37216W        W 9641  10.281  40.462   3.781
37217W        W 9642  24.246  35.420  14.927
37218W        W 9643  22.577  34.091   1.913
37219W        W 9644  38.565   6.925   1.002
37220W        W 9645   8.696  32.589  13.404
37221W        W 9646  39.567   8.362  14.766
37222W        W 9647  22.928  13.568  12.905
37223W        W 9648  33.793   3.498   1.153
37224W        W 9649   1.590  26.913   3.279
37225W        W 9650  18.570  15.157   2.849
37226W        W 9651  37.613   8.229  12.054
37227W        W 9652  29.379  14.103   4.590
37228W        W 9653  23.922   6.796  14.711
37229W        W 9654  16.054  44.768   0.350
37230W        W 9655  14.603  40.384  10.693
37231W        W 9656   8.922  36.067  13.504
37232W        W 9657   7.689  31.497   1.674
37233W        W 9658  31.125   2.727   2.353
37234W        W 9659   1.890  16.742   3.251
37235W        W 9660  11.100   9.302  11.540
37236W        W 9661  11.773  24.694  11.751
37237W        W 9662  12.814  22.133  12.390
37238W        W 9663  30.292   1.307   2.736
37239W        W 9664  32.256   3.627  12.066
37240W        W 9665  28.396  43.942  14.053
37241W        W 9666  22.021  38.499   4.114
37242W        W 9667  37.510   3.791  13.479
37243W        W 9668  32.643  37.332   3.745
37244W        W 9669  12.619  33.809   3.327
37245W        W 9670   3.974  34.840  13.509
37246W        W 9671  32.596  27.968   3.225
37247W        W 9672  35.987   9.724  10.519
37248W        W 9673   8.151  36.976   1.253
37249W        W 9674  21.050   0.513   3.261
37250W        W 9675  17.913  24.018  12.533
37251W        W 9676  39.320  36.553   4.464
37252W        W 9677   1.669  14.242   2.623
37253W        W 9678  37.574  16.130   3.170
37254W        W 9679  23.760  21.707   2.185
37255W        W 9680  39.241   6.196  13.374
37256W        W 9681  28.173  35.650   0.856
37257W        W 9682  23.762  19.406  12.962
37258W        W 9683  19.262  26.576  12.521
37259W        W 9684  38.109  27.854   2.803
37260W        W 9685  28.382  43.725   0.860
37261W        W 9686  42.609  26.777   0.051
37262W        W 9687  35.634   2.696   3.829
37263W        W 9688  31.877  44.961  12.022
37264W        W 9689  35.495  11.194  14.749
37265W        W 9690  28.109  28.440   1.259
37266W        W 9691  35.177  41.707   0.321
37267W        W 9692  35.075  32.647   0.120
37268W        W 9693  14.694   8.607  14.844
37269W        W 9694   6.668  25.612  13.961
37270W        W 9695  30.178  20.573  13.456
37271W        W 9696  40.054  24.173  12.028
37272W        W 9697  40.925  21.584   2.089
37273W        W 9698  12.745  15.186  13.308
37274W        W 9699  30.118  28.095  12.138
37275W        W 9700   1.694  23.555   1.304
37276W        W 9701  29.215  23.490  12.057
37277W        W 9702  11.675  11.446   1.702
37278W        W 9703  37.011  42.334   1.185
37279W        W 9704  29.941  41.834   0.416
37280W        W 9705  38.999  26.178   3.073
37281W        W 9706  27.410  30.666  13.452
37282W        W 9707  42.754   1.842  11.498
37283W        W 9708  16.597  18.607  11.952
37284W        W 9709  12.897   1.885  12.447
37285W        W 9710  22.581   7.609   1.688
37286W        W 9711  36.103  39.441  10.630
37287W        W 9712  41.037   5.281  14.296
37288W        W 9713  17.313  26.077  11.311
37289W        W 9714  19.665  22.753  11.041
37290W        W 9715  31.624  15.053   0.885
37291W        W 9716  17.578  28.450   3.741
37292W        W 9717  41.398  22.921  12.363
37293W        W 9718   9.155   2.044  11.689
37294W        W 9719   5.027  32.347   4.586
37295W        W 9720  27.984  23.696   5.068
37296W        W 9721  13.454  35.886   1.216
37297W        W 9722  25.506   1.593  13.085
37298W        W 9723  16.765  39.773  10.793
37299W        W 9724  31.627  17.173   2.767
37300W        W 9725  30.118  30.213  14.972
37301W        W 9726  24.252  42.594   3.314
37302W        W 9727  15.348  34.103   1.245
37303W        W 9728  11.309  37.530   3.770
37304W        W 9729  22.314  43.057  12.348
37305W        W 9730  15.212  34.846   3.066
37306W        W 9731  33.446  15.550  10.214
37307W        W 9732  30.144   6.911  14.848
37308W        W 9733  19.834   5.375   2.164
37309W        W 9734  42.321  27.045   1.766
37310W        W 9735  19.646  10.998  11.651
37311W        W 9736  27.891   5.614   1.182
37312W        W 9737  34.618  22.025  10.988
37313W        W 9738   2.019  23.560   1.710
37314W        W 9739   2.289  31.559  13.759
37315W        W 9740  28.030  20.223   2.302
37316W        W 9741  41.987  39.380  13.394
37317W        W 9742   4.608  33.021  12.510
37318W        W 9743  22.573  41.919   4.559
37319W        W 9744  37.575  24.494   2.229
37320W        W 9745  18.414  28.580  12.750
37321W        W 9746  25.028   2.336  13.530
37322W        W 9747  14.104  14.948  12.378
37323W        W 9748  10.830  38.122   1.803
37324W        W 9749  25.004  16.791  10.729
37325W        W 9750  23.893  18.283   1.883
37326W        W 9751  31.776   2.311  12.612
37327W        W 9752  24.542  36.406   4.717
37328W        W 9753   4.368  21.227   1.461
37329W        W 9754  27.211  27.372  14.760
37330W        W 9755  27.050  33.478   3.293
37331W        W 9756  20.252  33.649   3.973
37332W        W 9757  30.016   1.258  14.302
37333W        W 9758  11.216  15.832  12.676
37334W        W 9759  12.889  33.423  13.454
37335W        W 9760  38.844   7.304   2.830
37336W        W 9761  29.100  27.026  14.116
37337W        W 9762  31.146   6.439  14.058
37338W        W 9763  14.764  21.674  14.796
37339W        W 9764  12.128  27.278  13.441
37340W        W 9765  15.535  23.230  11.052
37341W        W 9766   4.910  18.577  12.021
37342W        W 9767   5.352  25.405  11.155
37343W        W 9768  33.597   5.930  14.763
37344W        W 9769  37.359  25.759   1.251
37345W        W 9770  27.495  29.936   4.156
37346W        W 9771  26.647  41.500   1.195
37347W        W 9772  31.630  36.806   0.924
37348W        W 9773  27.087  17.190  13.375
37349W        W 9774   1.581  16.479  10.627
37350W        W 9775  18.768  12.903   3.241
37351W        W 9776  14.898  14.772  10.714
37352W        W 9777   5.211  39.975   1.376
37353W        W 9778  39.121  21.595   0.165
37354W        W 9779  34.121  18.702  12.106
37355W        W 9780  13.665   3.306  14.263
37356W        W 9781  37.931  30.252  14.435
37357W        W 9782  34.015  13.716   2.896
37358W        W 9783  35.761   3.814  14.297
37359W        W 9784  33.664  21.604   1.882
37360W        W 9785   4.245  24.169  12.374
37361W        W 9786   0.271   3.758  10.792
37362W        W 9787  44.064  27.702   2.618
37363W        W 9788  12.028  13.609  14.974
37364W        W 9789   9.898  44.792   2.744
37365W        W 9790  19.583  18.055  14.802
37366W        W 9791  18.611  10.629   0.519
37367W        W 9792   3.548  39.383  12.482
37368W        W 9793   5.506  30.455   1.794
37369W        W 9794   4.393  28.558   0.861
37370W        W 9795   5.362   0.250  11.261
37371W        W 9796  22.009  30.587   1.630
37372W        W 9797  13.374  19.046   0.675
37373W        W 9798  36.826  11.053  11.557
37374W        W 9799  42.708  31.649   2.986
37375W        W 9800  32.916  20.239   4.729
37376W        W 9801   5.107  34.502   4.112
37377W        W 9802  26.679  34.390   3.801
37378W        W 9803   9.634  15.930  13.041
37379W        W 9804  17.817  39.315   3.934
37380W        W 9805  35.533  19.989  12.059
37381W        W 9806  39.871  33.427  14.426
37382W        W 9807   9.943   8.234  14.376
37383W        W 9808  42.530  36.121   0.834
37384W        W 9809  12.164  33.846   2.432
37385W        W 9810  28.651  31.803   9.661
37386W        W 9811  31.445  31.134  14.000
37387W        W 9812  17.563  30.881   3.278
37388W        W 9813  29.861  17.741   3.824
37389W        W 9814  22.735  18.619  11.613
37390W        W 9815   7.783   0.725  11.057
37391W        W 9816  42.111  37.519   0.853
37392W        W 9817  22.566  28.707   1.210
37393W        W 9818   3.366   9.042   5.065
37394W        W 9819  23.183  14.402  12.643
37395W        W 9820  37.850  39.491  14.848
37396W        W 9821   9.938  17.109  12.285
37397W        W 9822  43.768  21.975  13.147
37398W        W 9823  14.695  40.938   2.617
37399W        W 9824  37.972   0.299  10.811
37400W        W 9825  38.018  39.109   1.873
37401W        W 9826   1.193  30.516  10.754
37402W        W 9827  24.069  30.789  10.158
37403W        W 9828  16.274  29.004   3.639
37404W        W 9829   7.995  13.299   3.396
37405W        W 9830  28.123  38.456   0.483
37406W        W 9831  27.005   6.919  11.569
37407W        W 9832  19.211  40.395   0.285
37408W        W 9833   1.716   4.486   0.505
37409W        W 9834  31.009  29.577   0.282
37410W        W 9835  26.533  24.564  13.495
37411W        W 9836  30.639  19.352   1.300
37412W        W 9837   7.659  10.905   0.322
37413W        W 9838  24.076  23.218   1.782
37414W        W 9839  22.959  10.223   1.825
37415W        W 9840  30.076  27.235  11.166
37416W        W 9841   2.240  37.793   1.902
37417W        W 9842  17.884  35.805   2.066
37418W        W 9843  36.200   4.238  13.436
37419W        W 9844  36.243  43.932  13.025
37420W        W 9845   7.744   4.890  10.564
37421W        W 9846   7.351  39.465   0.899
37422W        W 9847  32.395  10.091  11.579
37423W        W 9848  14.109  15.221  13.034
37424W        W 9849  44.114   3.345  12.023
37425W        W 9850  24.288  44.057  14.490
37426W        W 9851  15.066   2.918  13.932
37427W        W 9852  18.783  13.285  12.110
37428W        W 9853  31.501  27.923   4.126
37429W        W 9854   1.450  37.364  14.491
37430W        W 9855   4.975  41.312   4.211
37431W        W 9856  31.955   6.254   0.233
37432W        W 9857  42.941  29.268   1.662
37433W        W 9858  36.920  24.565   3.090
37434W        W 9859   7.595   8.170   4.749
37435W        W 9860   9.120  44.855   4.674
37436W        W 9861  14.563  41.423   0.936
37437W        W 9862  14.516  41.341  11.180
37438W        W 9863   3.843  17.840   3.717
37439W        W 9864   4.813  16.770  13.603
37440W        W 9865  25.936  10.088   1.749
37441W        W 9866  31.923  20.641   3.814
37442W        W 9867  39.873  10.949  14.668
37443W        W 9868  20.648  24.648   4.102
37444W        W 9869   5.897  40.845   1.041
37445W        W 9870  33.811  12.075  13.566
37446W        W 9871  24.950   0.160  10.714
37447W        W 9872  14.040  37.674  10.720
37448W        W 9873  16.164  19.927   4.405
37449W        W 9874  40.128  30.384   2.280
37450W        W 9875   8.787   1.736   1.292
37451W        W 9876  38.251   5.471   3.664
37452W        W 9877  20.259   8.905  10.461
37453W        W 9878  38.868  32.520   1.401
37454W        W 9879  38.554  16.635   3.741
37455W        W 9880  38.491  40.021  10.509
37456W        W 9881   6.729  35.063  12.843
37457W        W 9882   2.316  41.025   1.505
37458W        W 9883  31.185  10.805  11.635
37459W        W 9884  42.335  21.623  11.913
37460W        W 9885  28.770  38.525  14.280
37461W        W 9886  22.164  44.996  13.912
37462W        W 9887  20.707  41.500   4.698
37463W        W 9888  16.984  41.736  12.115
37464W        W 9889  14.883  41.954   3.841
37465W        W 9890  41.927  38.913   4.673
37466W        W 9891   7.946   0.534   1.720
37467W        W 9892   7.345  17.814  10.870
37468W        W 9893  19.453  15.512  11.403
37469W        W 9894  20.549  15.172   4.578
37470W        W 9895  43.922  22.738   0.443
37471W        W 9896  10.106  17.232  14.959
37472W        W 9897  12.428   4.352   5.831
37473W        W 9898  22.186  27.121   0.279
37474W        W 9899  28.508   6.547  10.593
37475W        W 9900  42.630  29.525   4.562
37476W        W 9901   3.922  33.381   3.283
37477W        W 9902  12.578  10.949   2.714
37478W        W 9903  29.969  13.466   4.813
37479W        W 9904  18.171  26.980   3.108
37480W        W 9905  42.060  40.890   0.409
37481W        W 9906  25.650  29.209  12.467
37482W        W 9907   3.185   0.983   2.569
37483W        W 9908  19.563  35.368  12.206
37484W        W 9909  33.486  34.497   1.433
37485W        W 9910  11.891   2.571  11.643
37486W        W 9911  35.097  33.910   1.865
37487W        W 9912   2.851  43.520  11.957
37488W        W 9913  39.096  10.688   0.904
37489W        W 9914  36.554  26.374   0.516
37490W        W 9915  20.200   1.400  12.365
37491W        W 9916  24.212  38.301   2.795
37492W        W 9917  37.101  25.580   0.271
37493W        W 9918  24.957   7.599  11.700
37494W        W 9919  42.109  40.584   0.832
37495W        W 9920  44.698   1.010   0.897
37496W        W 9921  22.408  40.551  10.126
37497W        W 9922  10.318  44.825  13.601
37498W        W 9923  39.992   5.872  12.580
37499W        W 9924  24.993  38.220   3.754
37500W        W 9925  36.797  16.745   2.280
37501W        W 9926  22.655  16.043   2.946
37502W        W 9927  43.868   5.681  10.464
37503W        W 9928  23.068   4.342   2.406
37504W        W 9929  27.730  39.360   0.987
37505W        W 9930  20.663  12.774  14.421
37506W        W 9931  22.202  12.882  10.928
37507W        W 9932  19.622  42.415  12.528
37508W        W 9933  27.406   9.476  13.982
37509W        W 9934  32.334  25.869   1.870
37510W        W 9935  33.299  39.896   9.909
37511W        W 9936  31.877  30.816   4.538
37512W        W 9937  24.689  31.831   5.362
37513W        W 9938  35.944  29.528  11.969
37514W        W 9939  32.141  33.877  13.797
37515W        W 9940  18.265   0.327  11.816
37516W        W 9941   5.699   0.985   4.682
37517W        W 9942   7.378   8.302  13.485
37518W        W 9943  28.503   0.555   2.717
37519W        W 9944  27.949   1.214  12.591
37520W        W 9945  36.423  28.446   4.019
37521W        W 9946  23.417  15.056   4.711
37522W        W 9947  18.590  30.164  13.551
37523W        W 9948   8.856  25.920  12.449
37524W        W 9949  22.528   8.261  12.439
37525W        W 9950   6.971  38.206   3.217
37526W        W 9951  31.321  26.603  12.151
37527W        W 9952  14.655  12.959   4.681
37528W        W 9953  26.614   7.236  14.926
37529W        W 9954  30.163  33.840   3.778
37530W        W 9955  27.455   8.331  14.400
37531W        W 9956  30.201   9.954  11.270
37532W        W 9957  20.582  22.234  14.876
37533W        W 9958  33.935   7.937   3.663
37534W        W 9959  24.477   9.594   3.683
37535W        W 9960  28.685   6.243  11.905
37536W        W 9961  35.068  27.407  10.643
37537W        W 9962  25.957  27.557  11.542
37538W        W 9963  14.375   2.966  13.607
37539W        W 9964  25.489   7.797   0.819
37540W        W 9965  33.371  36.692  10.563
37541W        W 9966   6.160  19.807   2.833
37542W        W 9967  16.650   7.405  14.559
37543W        W 9968  30.389  39.070  12.541
37544W        W 9969   2.178   6.404  14.768
37545W        W 9970  18.730  28.448  13.944
37546W        W 9971  16.345   7.891   3.284
37547W        W 9972  35.884  25.456  11.632
37548W        W 9973  18.873  20.032   4.431
37549W        W 9974  22.934  37.054  14.851
37550W        W 9975   7.389  31.904   0.380
37551W        W 9976   1.249  24.523  12.796
37552W        W 9977  42.872  41.037  11.094
37553W        W 9978  38.524  29.554   3.037
37554W        W 9979  36.627  31.322   4.180
37555W        W 9980   9.287  21.951   2.727
37556W        W 9981  18.104  37.342   1.431
37557W        W 9982  39.151  41.502  12.643
37558W        W 9983  28.132  18.863  13.254
37559W        W 9984  31.574  20.995   2.653
37560W        W 9985   0.821  14.626  14.444
37561W        W 9986  11.357   5.460  10.601
37562W        W 9987  42.835  43.071  12.544
37563W        W 9988   5.243  12.579   2.654
37564W        W 9989  41.818  11.352   4.223
37565W        W 9990  35.807  36.884   4.638
37566W        W 9991  37.006  16.979   4.557
37567W        W 9992  22.636   0.930  14.439
37568W        W 9993   3.738  33.138  12.868
37569W        W 9994  20.493  32.872   0.748
37570W        W 9995   1.180  29.995   3.352
37571W        W 9996  14.668   2.277   3.170
37572W        W 9997  20.089  37.112  14.394
37573W        W 9998  41.017  14.605  11.988
37574W        W 9999   5.955   5.666  14.844
37575W        W10000  26.020  21.514  11.698
37576W        W10001  29.655   2.808  14.387
37577W        W10002   3.371  37.844   2.577
37578W        W10003  10.259  34.643   4.651
37579W        W10004   5.535  26.615  13.346
37580W        W10005   5.951  33.644  12.187
37581W        W10006  33.028  24.516   0.916
37582W        W10007  19.478  36.532  11.651
37583W        W10008  42.875  29.183  11.577
37584W        W10009  28.611  16.158  14.567
37585W        W10010  40.309  12.759   3.163
37586W        W10011  30.453  34.322  13.009
37587W        W10012  28.218  23.036   1.360
37588W        W10013  43.814  21.136   0.207
37589W        W10014  23.533  28.473   3.069
37590W        W10015  28.121  40.121   4.537
37591W        W10016  21.070  25.152  14.533
37592W        W10017   2.801   6.964   1.233
37593W        W10018  38.300  19.514  14.521
37594W        W10019  38.817  39.849   3.620
37595W        W10020  16.254  41.799   1.183
37596W        W10021   3.249  24.226   2.167
37597W        W10022  23.492  38.367  10.851
37598W        W10023  18.113  14.385  12.064
37599W        W10024  19.565  19.560  14.914
37600W        W10025  11.233  36.927  12.666
37601W        W10026  37.376  39.052  12.496
37602W        W10027  15.279  25.170   5.267
37603W        W10028   4.172  28.202  11.505
37604W        W10029  40.970  17.255   3.051
37605W        W10030  11.893  27.598   1.184
37606W        W10031   2.219  41.537   2.791
37607W        W10032   1.690  43.447  13.836
37608W        W10033  34.059  22.216  13.556
37609W        W10034  41.494  21.533   1.376
37610W        W10035  35.112  33.293   3.733
37611W        W10036  42.885  38.026  14.191
37612W        W10037  21.116   3.775   4.008
37613W        W10038  20.627  36.028  12.069
37614W        W10039  22.534  18.137  13.462
37615W        W10040  42.918  32.435  12.407
37616W        W10041  22.936   7.186  13.797
37617W        W10042   2.846  20.419   2.912
37618W        W10043   8.407  39.867   1.047
37619W        W10044  30.163   2.649  11.651
37620W        W10045  38.717   5.680   4.561
37621W        W10046  19.269  35.142   1.277
37622W        W10047  24.117  20.757   0.872
37623W        W10048  24.448  29.097  11.888
37624W        W10049  22.504  36.086  14.971
37625W        W10050   1.176  34.583   3.253
37626W        W10051   6.379  34.532   1.706
37627W        W10052  43.532   7.209  12.860
37628W        W10053  11.748  20.125  12.603
37629W        W10054  27.510  43.082   3.734
37630W        W10055  44.534  17.181  10.583
37631W        W10056  29.023  34.578  12.929
37632W        W10057   7.286  16.843  14.487
37633W        W10058  25.909   1.200  14.706
37634W        W10059  31.543   5.892   2.181
37635W        W10060  36.839  23.180   0.517
37636W        W10061   2.958  36.630  13.951
37637W        W10062  30.022  11.670  13.092
37638W        W10063  13.650   5.687  12.593
37639W        W10064  31.612  11.129  14.874
37640W        W10065  41.917  30.055  13.332
37641W        W10066  32.443  18.726  11.465
37642W        W10067  43.455  14.556  10.323
37643W        W10068  19.772  28.760  13.054
37644W        W10069   5.683  19.092  11.898
37645W        W10070  42.491  42.996   1.776
37646W        W10071   2.752  15.569  11.571
37647W        W10072   1.823  29.020  11.422
37648W        W10073  41.969  29.862   2.712
37649W        W10074   8.617  31.139  13.439
37650W        W10075   9.982   0.633   4.135
37651W        W10076  30.495  20.068   4.522
37652W        W10077  39.506  43.471  14.033
37653W        W10078   2.280  27.337   3.690
37654W        W10079  28.515  22.579   4.103
37655W        W10080  41.493  36.574   3.229
37656W        W10081  11.454   0.626   1.424
37657W        W10082   7.183  36.348   2.331
37658W        W10083   4.356  14.350  11.525
37659W        W10084  12.212   8.115   0.494
37660W        W10085  22.202  22.663  13.164
37661W        W10086  12.111  33.664   4.120
37662W        W10087  31.637  10.647   2.318
37663W        W10088  42.807  11.679   4.111
37664W        W10089  19.054  27.995   4.934
37665W        W10090   6.281  20.133   1.534
37666W        W10091  14.583  33.458   1.376
37667W        W10092  10.684  30.575  11.249
37668W        W10093  38.781  34.836   3.250
37669W        W10094  24.153  10.648  11.594
37670W        W10095  22.138   6.626   3.761
37671W        W10096   7.383  40.279  13.073
37672W        W10097  27.473   6.946  11.405
37673W        W10098  20.691  40.011  14.090
37674W        W10099   7.344  39.592   1.398
37675W        W10100  14.548  38.144  11.331
37676W        W10101  21.606  25.650  12.325
37677W        W10102  39.109   2.404  11.594
37678W        W10103   8.861   8.213  13.063
37679W        W10104  18.607  31.979   1.185
37680W        W10105   6.408  19.967  12.383
37681W        W10106  22.468   6.394   0.316
37682W        W10107  13.301   4.259  13.945
37683W        W10108  32.920  20.262   3.806
37684W        W10109  27.950  40.368  11.980
37685W        W10110  20.035  23.636   4.635
37686W        W10111   0.283  17.934  12.439
37687W        W10112   4.971  19.789  12.067
37688W        W10113  42.048  20.035   1.830
37689W        W10114  11.439  40.081  11.722
37690W        W10115  44.884  37.265   4.183
37691W        W10116  36.683  10.060   1.663
37692W        W10117   3.943  35.509  11.934
37693W        W10118  25.599  29.713  12.497
37694W        W10119  31.991  16.085   2.106
37695W        W10120   6.734  13.641   2.239
37696W        W10121  13.780  13.094  14.481
37697W        W10122  10.826  17.996   3.286
37698W        W10123  41.958  37.502  14.498
37699W        W10124  19.718  35.884   3.322
37700W        W10125  39.514  13.424  13.782
37701W        W10126  34.467   5.490   1.912
37702W        W10127   7.243  35.957  11.642
37703W        W10128  21.018  11.840   9.853
37704W        W10129  39.334   2.505  10.822
37705W        W10130  26.001  44.279  14.022
37706W        W10131  18.224  33.941   2.864
37707W        W10132  25.054   7.293   2.559
37708W        W10133  40.234   1.130  14.232
37709W        W10134  20.729  38.057   0.172
37710W        W10135   3.026  35.840  12.011
37711W        W10136  24.094  17.747   2.730
37712W        W10137  32.086   4.181   0.660
37713W        W10138  21.916  28.663  11.550
37714W        W10139  15.173  21.523   3.575
37715W        W10140  22.175   0.919   2.142
37716W        W10141  44.772   0.506   4.686
37717W        W10142   7.200  11.053  13.980
37718W        W10143   2.274  21.169   0.263
37719W        W10144  38.552  33.409   4.225
37720W        W10145  27.168   5.954   2.321
37721W        W10146  21.741   0.999  14.376
37722W        W10147   9.822  28.324  11.974
37723W        W10148  35.034  20.987  11.345
37724W        W10149  43.440  24.786  11.588
37725W        W10150  42.913  34.499   4.230
37726W        W10151   1.858  12.207   4.082
37727W        W10152  28.257  36.424  12.875
37728W        W10153  38.400   7.445  14.822
37729W        W10154   6.246  29.544   1.307
37730W        W10155   6.450  11.509   1.280
37731W        W10156   4.925  28.242  13.092
37732W        W10157  28.566  35.833  13.056
37733W        W10158  28.696  33.606  13.000
37734W        W10159  29.486   7.277   2.389
37735W        W10160   3.811  14.191  14.597
37736W        W10161   9.275  12.846   2.852
37737W        W10162   2.158  37.377  13.389
37738W        W10163   5.182  30.559   2.791
37739W        W10164  39.032  33.816   3.136
37740W        W10165  17.220  20.843  10.772
37741W        W10166  31.134  15.623  14.098
37742W        W10167  31.635   9.894  11.984
37743W        W10168  37.800  27.087   3.196
37744W        W10169  16.035  31.017  10.400
37745W        W10170  41.055  42.003  10.646
37746W        W10171  13.560  21.186  12.558
37747W        W10172  26.063  32.972   5.122
37748W        W10173  19.143  36.916  14.044
37749W        W10174  19.125   9.269   3.753
37750W        W10175  24.549   3.233   1.857
37751W        W10176  31.998  34.611   2.274
37752W        W10177  32.882   6.953   3.314
37753W        W10178  14.725  33.203  12.825
37754W        W10179  35.057  18.703   4.669
37755W        W10180   5.830  24.455  14.866
37756W        W10181  29.868   7.662   3.790
37757W        W10182   4.707   1.847  13.020
37758W        W10183  14.830  30.364   0.420
37759W        W10184  43.989  20.289  10.078
37760W        W10185  19.587  19.281   4.722
37761W        W10186  13.583  39.453   1.442
37762W        W10187  43.187   1.807  14.908
37763W        W10188  11.132  23.496   4.892
37764W        W10189  17.557  42.072   3.382
37765W        W10190  37.558  27.457   4.611
37766W        W10191   2.218  19.552   3.760
37767W        W10192   5.741  34.060  13.965
37768W        W10193  27.767  18.427  13.427
37769W        W10194  17.140  30.258   1.831
37770W        W10195  24.194  15.205  11.952
37771W        W10196  39.575  38.772  11.468
37772W        W10197  18.680  37.642  10.784
37773W        W10198   4.213  40.017  14.544
37774W        W10199  42.800  40.589   1.756
37775W        W10200   6.840  19.716  10.749
37776W        W10201   8.958  38.915  12.920
37777W        W10202   7.043  43.018  12.581
37778W        W10203  28.204  36.148  14.364
37779W        W10204  33.624  18.743  13.963
37780W        W10205  28.633   5.327  12.004
37781W        W10206  14.901  28.728  14.921
37782W        W10207   5.228   6.481  12.888
37783W        W10208  27.809  32.083   0.925
37784W        W10209  11.851  20.805  11.519
37785W        W10210  27.262  20.609  14.721
37786W        W10211  10.175   7.006  13.822
37787W        W10212  18.069   3.318  14.775
37788W        W10213  27.943  17.697   4.762
37789W        W10214  31.455   0.942   4.352
37790W        W10215  29.782  38.633   4.917
37791W        W10216  39.581  18.599  12.981
37792W        W10217  18.097  23.533   4.403
37793W        W10218  19.354  23.208   1.839
37794W        W10219  35.100  17.178  13.046
37795W        W10220  24.106   7.267  10.932
37796W        W10221  30.469  43.727  13.872
37797W        W10222   0.152  30.032   0.358
37798W        W10223  29.445  13.579   4.620
37799W        W10224   1.776   7.487   4.912
37800W        W10225  12.621  22.248   4.622
37801W        W10226   0.050  24.553   3.720
37802W        W10227  27.700  13.337   4.337
37803W        W10228  42.038  35.682  14.880
37804W        W10229   0.746   0.637   2.227
37805W        W10230  14.393  39.399  13.472
37806W        W10231  39.115  29.498   3.644
37807W        W10232  30.778  27.446  11.865
37808W        W10233  16.613   2.680   4.247
37809W        W10234  33.007  12.363   4.237
37810W        W10235  29.707   0.840  14.286
37811W        W10236   8.485  25.126   4.158
37812W        W10237   1.369  24.764  14.053
37813W        W10238  17.302   4.465  12.628
37814W        W10239  31.621  38.836  11.874
37815W        W10240  36.093  43.242  13.391
37816W        W10241  35.329  43.793  14.482
37817W        W10242  35.352  23.725  11.135
37818W        W10243  39.953   4.878   0.373
37819W        W10244  27.326  16.055   0.361
37820W        W10245   7.514  11.297  10.740
37821W        W10246  21.981  24.314  12.628
37822W        W10247  10.666  41.958  14.327
37823W        W10248  23.481  16.302  11.686
37824W        W10249  31.706  31.442  12.388
37825W        W10250   8.418  27.174   0.782
37826W        W10251  11.376  18.551  13.871
37827W        W10252   6.765   2.555  11.657
37828W        W10253   2.466  29.741  13.321
37829W        W10254  37.080   2.280  14.059
37830W        W10255  19.505   1.350   1.369
37831W        W10256  29.582  27.094   4.589
37832W        W10257  35.789  10.331  13.245
37833W        W10258  44.976   3.075  11.485
37834W        W10259  37.873   7.053   5.484
37835W        W10260  36.890   2.980   4.677
37836W        W10261  38.450   2.399  10.905
37837W        W10262  31.637  25.072  10.565
37838W        W10263  13.117  41.449  11.090
37839W        W10264  32.254  13.876  14.686
37840W        W10265  23.875  40.535  14.660
37841W        W10266  13.090  41.350   4.771
37842W        W10267  24.463  43.233  11.010
37843W        W10268  18.821  28.660   2.485
37844W        W10269  13.284   8.578   0.935
37845W        W10270  35.023  34.594   4.132
37846W        W10271  34.501  27.039   2.383
37847W        W10272   1.432  30.091  14.732
37848W        W10273  30.892   3.890   0.464
37849W        W10274  11.378  27.704  11.120
37850W        W10275  34.928  10.084   3.714
37851W        W10276  32.994  40.555  10.576
37852W        W10277   0.013   0.039   0.877
37853W        W10278  25.479  32.830   4.503
37854W        W10279  10.777  30.027   1.752
37855W        W10280  29.985  25.074   2.487
37856W        W10281  20.290   7.485   2.343
37857W        W10282   7.221   4.923  14.034
37858W        W10283  16.856  38.847   5.069
37859W        W10284  36.323  10.704  13.076
37860W        W10285  12.795  41.498   1.222
37861W        W10286  24.491  25.192  11.205
37862W        W10287  43.316  24.212   2.375
37863W        W10288  40.623   8.304  14.881
37864W        W10289  30.977  13.213  11.218
37865W        W10290   0.138   4.245   2.704
37866W        W10291  32.486   2.022  14.845
37867W        W10292   5.785  26.529   3.132
37868W        W10293  28.480  25.774   0.861
37869W        W10294  40.551   3.836   0.840
37870W        W10295  32.553  16.525   4.433
37871W        W10296   2.781  39.046  14.108
37872W        W10297  42.030  27.002  12.796
37873W        W10298   8.764  22.143   4.829
37874W        W10299  29.959  24.241   4.347
37875W        W10300   3.179   3.484  14.377
37876W        W10301  44.004  20.975  13.442
37877W        W10302  39.437  34.823  12.433
37878W        W10303  41.557  40.248  12.453
37879W        W10304  35.013   5.642   3.198
37880W        W10305  17.151  20.255  14.721
37881W        W10306   6.413  14.483   2.860
37882W        W10307  29.479  26.174  13.358
37883W        W10308  24.426  17.801  12.480
37884W        W10309   1.762  15.232   4.817
37885W        W10310  44.474  42.307   2.651
37886W        W10311  33.401  18.997   4.581
37887W        W10312   2.816  34.576  13.007
37888W        W10313  13.673   6.657  12.304
37889W        W10314  39.266  20.689   3.465
37890W        W10315  19.253  40.379   1.242
37891W        W10316  28.924  13.412   0.374
37892W        W10317  27.252  36.527   3.325
37893W        W10318  13.528  35.116  13.248
37894W        W10319   4.269  38.923  13.291
37895W        W10320  42.244  22.556   0.337
37896W        W10321   2.062  22.506   2.627
37897W        W10322  37.043  43.002   2.352
37898W        W10323  20.647  21.679   4.004
37899W        W10324  35.187   0.711   0.337
37900W        W10325   3.507  31.366  11.044
37901W        W10326  21.272  32.854  13.512
37902W        W10327  23.017   2.708  11.461
37903W        W10328  29.573  29.381  12.093
37904W        W10329  17.518  29.925   4.635
37905W        W10330  25.704  31.484  11.675
37906W        W10331  22.580  35.164   2.766
37907W        W10332  20.204   8.791   4.158
37908W        W10333  22.712  30.201  11.860
37909W        W10334  15.128   4.297   1.161
37910W        W10335   2.347  17.694   4.192
37911W        W10336   1.990  33.499  13.985
37912W        W10337   5.687  14.715   2.139
37913W        W10338  28.473  24.971  12.542
37914W        W10339  33.336   3.853  14.464
37915W        W10340   7.803  24.342  10.617
37916W        W10341  30.621   0.511   4.160
37917W        W10342  28.140   7.161   2.818
37918W        W10343  14.253   6.885  10.897
37919W        W10344  31.522  16.386   0.536
37920W        W10345  31.106  39.514  14.745
37921W        W10346  12.059  25.454   0.215
37922W        W10347  40.402  14.621   4.642
37923W        W10348  43.986  22.010   4.104
37924W        W10349  13.263  13.037   0.402
37925W        W10350  11.739  31.393  12.979
37926W        W10351  42.766  37.336   3.200
37927W        W10352  19.577  41.390  10.812
37928W        W10353  31.468  40.398   3.552
37929W        W10354   9.938  16.275   1.231
37930W        W10355   7.751  24.127  14.593
37931W        W10356  26.277  37.833   3.719
37932W        W10357  13.864  14.420   2.325
37933W        W10358  14.664  33.719  12.897
37934W        W10359  24.683  38.665   1.598
37935W        W10360  38.069  39.693  10.735
37936W        W10361  36.452  38.928   3.752
37937W        W10362  29.958   2.579  12.289
37938W        W10363  42.967  29.659   4.191
37939W        W10364   0.320  25.126  10.733
37940W        W10365  33.726   5.821  13.017
37941W        W10366  21.023  10.556   2.270
37942W        W10367  36.207  20.086   2.490
37943W        W10368  10.108  17.749   4.765
37944W        W10369  13.156  43.034   3.659
37945W        W10370   2.710  25.638   2.129
37946W        W10371  26.488  16.600  12.162
37947W        W10372  17.993  39.349   0.008
37948W        W10373   4.581  11.361  14.129
37949W        W10374  36.205   9.363   0.352
37950W        W10375  34.843  32.640  10.704
37951W        W10376  31.133  33.887  13.951
37952W        W10377  12.209  29.577   2.496
37953W        W10378  20.707  21.278   4.912
37954W        W10379  12.270  11.701   2.325
37955W        W10380  12.038  41.092   0.944
37956W        W10381  23.064  44.798   0.415
37957W        W10382  40.321  39.227   1.366
37958W        W10383  19.613  30.886   2.227
37959W        W10384  13.951  22.757   3.166
37960W        W10385  31.983  13.286  12.079
37961W        W10386  22.758  18.119   2.683
37962W        W10387   5.573  30.870  11.639
37963W        W10388  18.593   6.411   3.322
37964W        W10389   9.116  43.911   4.584
37965W        W10390  11.720  11.488   2.642
37966W        W10391  42.859  31.552  14.794
37967W        W10392   1.845  11.461   0.321
37968W        W10393   2.446  32.943   1.960
37969W        W10394  35.018   3.005   0.767
37970W        W10395  38.566   7.882   2.701
37971W        W10396  12.066  12.756  10.731
37972W        W10397   5.436  16.326   4.099
37973W        W10398   1.084   2.824   1.362
37974W        W10399  12.026  20.460  14.788
37975W        W10400  21.217  12.713   1.811
37976W        W10401  29.742  26.957  12.963
37977W        W10402  27.974   2.895   2.152
37978W        W10403  28.439  44.440  13.948
37979W        W10404   2.680  43.351   4.219
37980W        W10405  16.554   7.865  14.285
37981W        W10406  20.530   1.016   1.867
37982W        W10407   4.706   0.947  10.572
37983W        W10408  38.779  38.853   4.471
37984W        W10409   3.125   3.302   4.614
37985W        W10410  44.232  10.078   3.115
37986W        W10411   1.220  27.438   4.152
37987W        W10412  13.235   5.883  10.717
37988W        W10413  37.043  20.713  13.890
37989W        W10414   9.219  28.381   1.816
37990W        W10415   2.352  11.681   3.705
37991W        W10416   1.826   1.940   0.267
37992W        W10417  29.617  22.961  10.730
37993W        W10418  20.670  36.930  11.600
37994W        W10419  25.303  17.055  12.362
37995W        W10420   6.320  20.920   3.987
37996W        W10421  36.338  37.630  12.596
37997W        W10422  24.116  14.732   3.653
37998W        W10423  38.093  35.935   4.192
37999W        W10424  36.073  35.489   1.373
38000W        W10425  10.402  30.734   4.152
38001W        W10426  44.499  39.529  10.575
38002W        W10427  24.404  30.061  11.455
38003W        W10428  24.685  20.525  14.685
38004W        W10429  35.993  36.529   0.679
38005W        W10430  44.309  31.609  12.880
38006W        W10431  20.555  40.049  12.458
38007W        W10432  31.610  22.719  10.121
38008W        W10433  38.809  17.312  10.911
38009W        W10434  23.442  40.299   2.214
38010W        W10435  22.783  41.557   2.963
38011W        W10436  24.208  30.357   0.325
38012W        W10437   2.527  15.116   0.359
38013W        W10438  34.593  24.027   4.595
38014W        W10439  14.770  24.986   5.031
38015W        W10440  14.811   1.822   4.990
38016W        W10441  19.818  37.980  13.238
38017W        W10442   5.744   9.784  14.776
38018W        W10443  13.875  14.172   3.187
38019W        W10444   5.724  37.420  10.692
38020W        W10445  14.644  40.450  14.928
38021W        W10446  40.527   8.407   4.628
38022W        W10447  30.894  15.640  14.597
38023W        W10448  15.241  44.937  14.555
38024W        W10449  37.912  22.825  13.815
38025W        W10450  40.366  41.900   0.791
38026W        W10451  25.122  17.664  10.853
38027W        W10452  28.150  14.588   3.880
38028W        W10453  33.003  25.224  13.865
38029W        W10454  40.983  42.070   0.490
38030W        W10455   9.221  20.750   3.379
38031W        W10456  25.642   3.878   0.251
38032W        W10457  30.988  41.476  14.897
38033W        W10458  21.977  21.007  12.416
38034W        W10459  21.190  13.501  11.833
38035W        W10460  17.271  27.015   3.216
38036W        W10461   5.804  25.692  13.555
38037W        W10462  28.050   3.704   1.481
38038W        W10463   8.610   7.331   1.667
38039W        W10464  37.987  23.916   0.483
38040W        W10465   5.351  21.086  12.840
38041W        W10466  34.620  18.813   2.264
38042W        W10467  38.649  34.504  12.528
38043W        W10468  18.742  20.480   4.195
38044W        W10469   5.213  33.861   0.282
38045W        W10470  41.370  13.141  12.004
38046W        W10471  24.925  34.206  10.675
38047W        W10472  40.967  35.417   1.295
38048W        W10473  20.634  21.864   3.525
38049W        W10474  41.559  27.500   0.717
38050W        W10475  32.112  24.294   0.863
38051W        W10476  34.369  21.974   0.765
38052W        W10477  14.847  43.947   4.107
38053W        W10478  36.836  13.328   2.299
38054W        W10479  27.688  15.305   2.828
38055W        W10480   6.269  21.597   0.646
38056W        W10481  35.398  30.414  11.547
38057W        W10482   1.715  17.240  11.145
38058W        W10483  34.757  18.199   0.109
38059W        W10484  23.439   8.202  14.082
38060W        W10485  24.985  25.279   2.139
38061W        W10486  31.022  36.414   1.347
38062W        W10487   0.375  43.532  14.386
38063W        W10488  44.746   7.723   0.474
38064W        W10489  41.085  16.347  11.537
38065W        W10490  29.699  38.388  14.055
38066W        W10491  13.551  13.095  14.961
38067W        W10492   8.161  36.968  11.997
38068W        W10493  24.645   8.791  10.646
38069W        W10494  43.312  35.055  11.031
38070W        W10495   8.395  34.460  10.471
38071W        W10496  31.567  41.972  11.902
38072W        W10497  27.191  23.722   3.882
38073W        W10498   9.905   6.772   1.765
38074W        W10499  22.970  22.598   2.351
38075W        W10500  29.028  23.048  11.080
38076W        W10501  37.297  35.488   0.492
38077W        W10502  26.590  16.434   4.870
38078W        W10503  28.440  26.072  13.524
38079W        W10504  41.080   2.189  11.170
38080W        W10505  14.738  42.407   3.636
38081W        W10506   9.853  37.107  13.599
38082W        W10507  42.721  42.371   3.227
38083W        W10508  40.082  20.721  12.958
38084W        W10509   7.879  35.560  11.097
38085W        W10510  26.641  29.687  12.285
38086W        W10511  35.483  27.767   4.116
38087W        W10512  21.722   6.204  10.900
38088W        W10513  44.881  15.648  10.826
38089W        W10514  27.124  30.075   2.050
38090W        W10515  26.039   5.870   4.504
38091W        W10516  33.334  38.410   3.661
38092W        W10517  17.860  10.286  14.578
38093W        W10518  31.072  14.332  14.548
38094W        W10519   2.814  11.507   0.773
38095W        W10520  10.371  13.842   4.924
38096W        W10521  10.371   8.752  10.044
38097W        W10522  17.105   5.180   1.252
38098W        W10523  10.140  21.366  11.109
38099W        W10524  18.469  36.290   3.281
38100W        W10525  14.591   5.118   3.206
38101W        W10526  14.696  34.164  13.823
38102W        W10527  11.882  38.285  11.623
38103W        W10528  21.198  14.684  13.089
38104W        W10529  28.330  43.336  11.665
38105W        W10530   5.335   0.678   4.423
38106W        W10531   4.929  17.118  11.942
38107W        W10532  28.585   6.391   3.249
38108W        W10533  22.622  42.935  11.145
38109W        W10534  34.456  33.160  11.284
38110W        W10535   1.792   9.821  14.689
38111W        W10536  37.266  21.248   0.474
38112W        W10537   3.682  32.670   4.073
38113W        W10538  37.576  20.745  14.933
38114W        W10539  22.005  10.136   1.861
38115W        W10540  33.565  26.630  10.767
38116W        W10541  27.253  18.505  11.984
38117W        W10542  20.104  25.123   2.730
38118W        W10543  25.534  21.742  11.684
38119W        W10544  19.924  28.956   0.683
38120W        W10545  37.029   7.656  13.417
38121W        W10546  35.274  21.981  12.919
38122W        W10547  36.313  25.020  11.004
38123W        W10548  32.906  33.820  14.750
38124W        W10549   6.954  39.995  13.977
38125W        W10550  10.892  36.854  11.868
38126W        W10551  30.044  26.990   3.716
38127W        W10552  36.355  34.439   3.356
38128W        W10553  43.861  23.776   3.871
38129W        W10554  38.421  18.135   4.025
38130W        W10555   3.197  39.962  14.356
38131W        W10556   1.534  42.890   0.441
38132W        W10557  17.774  36.374   4.727
38133W        W10558  37.137   7.994  12.496
38134W        W10559  29.996  40.029   0.821
38135W        W10560  29.837  10.730  11.146
38136W        W10561  39.297  44.733  14.978
38137W        W10562   1.363  42.476   1.266
38138W        W10563  41.873   9.660  13.339
38139W        W10564  24.082  11.806  14.205
38140W        W10565  15.768   5.767   2.101
38141W        W10566   5.189  29.363   4.398
38142W        W10567  27.174  15.150   4.580
38143W        W10568  19.551  12.112  12.829
38144W        W10569  18.490  23.193  12.582
38145W        W10570  12.994  30.364  11.308
38146W        W10571  26.469  24.935   4.122
38147W        W10572  32.076   6.368  13.877
38148W        W10573  21.590  34.062   4.123
38149W        W10574  32.071   9.273   3.920
38150W        W10575  34.163   1.480  13.490
38151W        W10576   7.701  25.343   0.313
38152W        W10577  19.739   2.992  12.837
38153W        W10578  27.613   0.788  13.272
38154W        W10579  11.878  11.920   5.057
38155W        W10580  28.057  33.326   3.247
38156W        W10581   7.206   3.295  11.936
38157W        W10582  18.111   2.433  11.843
38158W        W10583  34.656   9.534  14.484
38159W        W10584  25.161  26.021   0.897
38160W        W10585  41.906  32.112   2.228
38161W        W10586   5.455  35.739   1.512
38162W        W10587  15.787  15.103  13.614
38163W        W10588  27.068  36.369   4.153
38164W        W10589  12.113  25.048  11.553
38165W        W10590  15.300  17.096  12.802
38166W        W10591  31.221  37.516   2.873
38167W        W10592   6.543  29.162   3.830
38168W        W10593  23.267  17.493   2.176
38169W        W10594  32.861  26.024  10.509
38170W        W10595   3.659  23.673  14.952
38171W        W10596  14.355  24.126   2.193
38172W        W10597   1.553  10.822  11.949
38173W        W10598   6.285  37.845   2.708
38174W        W10599  38.350  22.706   0.519
38175W        W10600  22.444  32.643  13.071
38176W        W10601  21.934   7.127  13.388
38177W        W10602  18.634   3.741  14.321
38178W        W10603  39.974  16.594   4.432
38179W        W10604  31.904  41.826   0.167
38180W        W10605  15.540   9.316  13.874
38181W        W10606  28.723  21.489  13.142
38182W        W10607  42.383   6.266   2.651
38183W        W10608  18.795  27.626   1.959
38184W        W10609  27.473   7.384   0.452
38185W        W10610  20.083  14.263  13.927
38186W        W10611  36.660  42.967  12.911
38187W        W10612  41.561  34.052  12.156
38188W        W10613  25.246  32.538   1.803
38189W        W10614  26.354   4.984   3.623
38190W        W10615  18.591  42.394  12.953
38191W        W10616  32.214  29.628  12.589
38192W        W10617  16.060  14.742  13.329
38193W        W10618   3.797   8.980  13.001
38194W        W10619  14.441  43.860  13.822
38195W        W10620  12.613  38.047  13.593
38196W        W10621  44.276   8.801  14.649
38197W        W10622   4.758  37.425  10.987
38198W        W10623  13.839  44.480  13.146
38199W        W10624   7.268  22.170   4.506
38200W        W10625   0.860  12.706   4.137
38201W        W10626  32.547  34.060   4.553
38202W        W10627  31.908   5.475   2.269
38203W        W10628  27.693  15.120   4.675
38204W        W10629   8.811  17.084   4.730
38205W        W10630  38.051  10.661  12.931
38206W        W10631  25.131  10.189  14.495
38207W        W10632  29.629  22.176   0.898
38208W        W10633  30.762  16.147   2.432
38209W        W10634  33.016   6.837  14.777
38210W        W10635   8.284  31.092   0.905
38211W        W10636   4.761  14.710  14.383
38212W        W10637  38.302  18.036   0.293
38213W        W10638  36.221  44.800   3.759
38214W        W10639  31.030   8.131  12.380
38215W        W10640  44.498  31.136   4.282
38216W        W10641   6.231  23.777   4.128
38217W        W10642  29.815  22.567  14.704
38218W        W10643  35.288  35.439   4.445
38219W        W10644  20.061  15.773  10.741
38220W        W10645  34.385  19.866   4.544
38221W        W10646  43.517  11.226   4.421
38222W        W10647   8.715  15.714  14.370
38223W        W10648  12.814  41.886  11.129
38224W        W10649  33.499  17.985   0.723
38225W        W10650  17.247  22.840   1.380
38226W        W10651   8.905  11.676   4.796
38227W        W10652  42.885  29.844  14.865
38228W        W10653  36.401  42.823  14.352
38229W        W10654  32.451   5.287   3.715
38230W        W10655  24.120  43.488   3.466
38231W        W10656  14.510  12.833   1.367
38232W        W10657  28.445  15.692   1.412
38233W        W10658   9.213  31.901  12.049
38234W        W10659  32.840  28.648   4.516
38235W        W10660   0.476  39.291  10.604
38236W        W10661  13.156  21.159  12.225
38237W        W10662  43.152  17.137   2.548
38238W        W10663  21.326   7.309  11.646
38239W        W10664  13.730  28.997  10.564
38240W        W10665  40.060  12.915   2.749
38241W        W10666  21.905  37.986   1.881
38242W        W10667  32.931   2.039   2.164
38243W        W10668  44.390   0.958  13.838
38244W        W10669  19.618  10.151   2.391
38245W        W10670  22.174   7.025  11.446
38246W        W10671  27.755  13.807  14.904
38247W        W10672  36.336   4.148   3.517
38248W        W10673  24.881  39.525  14.073
38249W        W10674  31.997   2.686   1.478
38250W        W10675  14.324  24.535  12.830
38251W        W10676  19.703  31.111   5.458
38252W        W10677   9.615  44.355   2.742
38253W        W10678  22.723  37.459   1.098
38254W        W10679  32.500  19.230   4.585
38255W        W10680   0.961  15.260  13.754
38256W        W10681  42.397  14.177   0.604
38257W        W10682  15.903   5.019  10.126
38258W        W10683  35.927  17.993  14.500
38259W        W10684  18.807   4.753  10.110
38260W        W10685  19.217   4.563   3.571
38261W        W10686  26.035  39.913  13.771
38262W        W10687  20.001   4.924   2.358
38263W        W10688  39.401  22.544  11.635
38264W        W10689  25.061  40.392  10.739
38265W        W10690   1.811  35.940   2.274
38266W        W10691  42.899  20.102   3.655
38267W        W10692  21.362  25.013   4.822
38268W        W10693  33.848  26.214  10.663
38269W        W10694   5.063  37.523   0.078
38270W        W10695  11.934  26.532  11.031
38271W        W10696  28.055   9.864  14.202
38272W        W10697   2.310  17.127  14.256
38273W        W10698  28.921  15.281  14.330
38274W        W10699  34.749  12.104   0.869
38275W        W10700   8.634  13.194  12.924
38276W        W10701  44.282  29.178   0.523
38277W        W10702   2.318   4.215  10.749
38278W        W10703  40.008  11.899   2.739
38279W        W10704  17.104  30.409  14.465
38280W        W10705  14.867   3.672   5.442
38281W        W10706  43.009  13.853  11.362
38282W        W10707  16.406  28.556   4.705
38283W        W10708  41.317  26.201   0.018
38284W        W10709  18.268   2.930   0.354
38285W        W10710  41.987  19.080  10.645
38286W        W10711  33.368  16.279   2.309
38287W        W10712  36.702  13.263  13.451
38288W        W10713  38.634  14.146  14.563
38289W        W10714  39.838  25.166  10.614
38290W        W10715   0.962  35.841  14.840
38291W        W10716  18.551   8.254   1.976
38292W        W10717   6.291   8.155  10.443
38293W        W10718  31.739   7.582   1.416
38294W        W10719   1.879  29.404   0.413
38295W        W10720  24.472  20.700   1.717
38296W        W10721  34.482  35.581   1.163
38297W        W10722  29.965  39.281   2.274
38298W        W10723  21.231  36.413   3.256
38299W        W10724  36.380  17.301  13.620
38300W        W10725   3.560   2.773   1.501
38301W        W10726   5.846  36.879  11.949
38302W        W10727  13.784  32.373  14.641
38303W        W10728  30.666  38.279  13.782
38304W        W10729  26.149  31.845  12.591
38305W        W10730  11.704  35.612   1.164
38306W        W10731  19.955  24.834  13.020
38307W        W10732   9.277   9.612   2.276
38308W        W10733  38.107   1.716  12.035
38309W        W10734  43.555   4.715  14.907
38310W        W10735  32.112  11.566  13.161
38311W        W10736  35.071  11.736  11.541
38312W        W10737  17.889  38.293   4.136
38313W        W10738  41.594   3.522  13.411
38314W        W10739  30.191  42.443   3.823
38315W        W10740   4.500   2.371  14.046
38316W        W10741  16.892  25.281   3.736
38317W        W10742  41.257  36.197   4.328
38318W        W10743  22.009   5.624  12.030
38319W        W10744   5.104  38.521  12.890
38320W        W10745  28.114   2.489  13.340
38321W        W10746  10.479  26.939   4.163
38322W        W10747  42.913  35.908  14.870
38323W        W10748  22.460  28.415  13.946
38324W        W10749   5.325  33.901   3.904
38325W        W10750   9.878  43.459   1.868
38326W        W10751  16.652  12.761  11.494
38327W        W10752  13.289  24.943   5.084
38328W        W10753   4.258  34.495  13.196
38329W        W10754  17.526  37.893   3.182
38330W        W10755  39.621  26.746   3.345
38331W        W10756  10.418   6.924   1.710
38332W        W10757  42.296  19.675  10.268
38333W        W10758   6.543  31.070   1.506
38334W        W10759  16.810  42.298  12.160
38335W        W10760  25.117   3.221  14.058
38336W        W10761   2.283   0.422  14.317
38337W        W10762  31.604  31.121  13.495
38338W        W10763  20.616  42.077   4.354
38339W        W10764   3.908   0.856  12.636
38340W        W10765  36.805  12.082  14.387
38341W        W10766   2.495   2.949   4.173
38342W        W10767   4.553   7.764   3.696
38343W        W10768  26.021  41.323  12.545
38344W        W10769  36.489  16.234  12.502
38345W        W10770  37.637  41.775   5.141
38346W        W10771  29.558  19.072   2.184
38347W        W10772   8.507  33.623  11.542
38348W        W10773  32.615  39.952   2.314
38349W        W10774  37.073  38.474  11.401
38350W        W10775   7.660  33.407  12.531
38351W        W10776  31.478  36.104   3.225
38352W        W10777  16.620  36.651   3.390
38353W        W10778  40.325  13.968   2.814
38354W        W10779  41.480  26.739  11.979
38355W        W10780  31.426  40.285   0.746
38356W        W10781  15.882  34.596   4.087
38357W        W10782  25.105  39.039  13.980
38358W        W10783  41.714  43.296   4.174
38359W        W10784  42.013  16.340  13.321
38360W        W10785  40.404   5.663  14.965
38361W        W10786  29.406  17.463  14.280
38362W        W10787  17.215  43.074   2.480
38363W        W10788  33.759  43.277   2.324
38364W        W10789   8.588   3.807  10.660
38365W        W10790  20.912   5.036   0.135
38366W        W10791  11.801  11.612   3.161
38367W        W10792  37.831   3.655   1.203
38368W        W10793  15.200   7.189   3.811
38369W        W10794  22.446  36.411  14.353
38370W        W10795  31.175   6.204   0.810
38371W        W10796  16.149  43.182  11.728
38372W        W10797   5.860   7.166  13.888
38373W        W10798  29.505   4.698  13.888
38374W        W10799  29.576  37.587  10.432
38375W        W10800   8.194   6.735   0.796
38376W        W10801   1.786  42.474   4.254
38377W        W10802  27.671  42.966  12.611
38378W        W10803  21.781  10.091  14.120
38379W        W10804  42.522  38.493  14.632
38380W        W10805  36.362  17.208  10.697
38381W        W10806   9.762   7.787   2.786
38382W        W10807  11.785  34.271  13.302
38383W        W10808  39.612   9.548  13.441
38384W        W10809   0.423   1.209  11.629
38385W        W10810  40.034  41.755  10.817
38386W        W10811  25.489  15.747  11.602
38387W        W10812   0.422   7.355   2.642
38388W        W10813  14.831  19.896   2.821
38389W        W10814  19.005   0.719  11.983
38390W        W10815  21.807  13.207   3.296
38391W        W10816  29.937  22.039   1.340
38392W        W10817  10.309  35.370   3.803
38393W        W10818  32.583   7.092   2.870
38394W        W10819  10.438  29.847  12.513
38395W        W10820   1.438  18.687   0.346
38396W        W10821  42.400  29.001  13.305
38397W        W10822   7.313  35.168  14.310
38398W        W10823  41.986  43.093  11.478
38399W        W10824  37.327  40.491   5.178
38400W        W10825  22.762  10.184   3.128
38401W        W10826  17.117  31.508   0.970
38402W        W10827  23.875  31.006   3.336
38403W        W10828  10.659  21.510   1.725
38404W        W10829  22.542   5.725  14.126
38405W        W10830   4.960  28.778   1.005
38406W        W10831  22.534  14.697   4.337
38407W        W10832   1.771  35.997  13.453
38408W        W10833  14.264  28.965   1.017
38409W        W10834  36.218  15.232  11.588
38410W        W10835  30.816  26.682  14.061
38411W        W10836  16.294  21.212  14.987
38412W        W10837  20.310  30.625  12.983
38413W        W10838   4.192   1.762  13.035
38414W        W10839  18.195  21.806  13.851
38415W        W10840  26.266  23.459   2.096
38416W        W10841  34.698  13.770  13.809
38417W        W10842  10.505  26.681   2.743
38418W        W10843  38.780   2.862   1.233
38419W        W10844   1.790  22.127  14.267
38420W        W10845  44.240  38.078  10.776
38421W        W10846  38.154   6.277  14.897
38422W        W10847  24.745  32.209  14.277
38423W        W10848   4.849  34.381   2.066
38424W        W10849  22.648  17.781   4.737
38425W        W10850  33.904  32.954  10.694
38426W        W10851  17.024   3.373  13.500
38427W        W10852  19.499  37.849  11.054
38428W        W10853   6.778  18.073   0.247
38429W        W10854  13.544  30.999   0.606
38430W        W10855   4.470  16.246  11.334
38431W        W10856  24.609  23.170   3.331
38432W        W10857  37.400   7.271  13.390
38433W        W10858  42.428   7.933   3.705
38434W        W10859   7.858  16.166  12.445
38435W        W10860  18.834   6.230   2.720
38436W        W10861  41.223  39.814   1.406
38437W        W10862  14.059  10.837   0.807
38438W        W10863  14.756   1.786   3.403
38439W        W10864   5.534   3.514  12.548
38440W        W10865  27.285  16.572  14.452
38441W        W10866  30.097  40.475   2.434
38442W        W10867   7.380   4.487  13.122
38443W        W10868  22.773  17.393   3.603
38444W        W10869  10.422  10.614  13.859
38445W        W10870  23.606   7.195   3.453
38446W        W10871  27.663   1.197  10.748
38447W        W10872  44.050  23.601   0.470
38448W        W10873  35.445  41.407  11.463
38449W        W10874   6.266  26.476   3.335
38450W        W10875  42.098  16.166  14.947
38451W        W10876  43.085  16.721   3.899
38452W        W10877  30.670  43.203   2.197
38453W        W10878  27.104   3.263  13.333
38454W        W10879   7.905  31.903  14.355
38455W        W10880  41.869  30.444   0.645
38456W        W10881   0.332  23.933   1.275
38457W        W10882  14.600  38.635   1.393
38458W        W10883  18.173  22.237   2.186
38459W        W10884  20.821  31.143  11.499
38460W        W10885  14.219  36.615  14.576
38461W        W10886  11.802   4.166  12.499
38462W        W10887  21.574  16.899   4.339
38463W        W10888  22.166  22.734  12.219
38464W        W10889   3.009  43.308   2.218
38465W        W10890  40.294  33.531  11.184
38466W        W10891   8.998  15.579  13.404
38467W        W10892  18.653  14.055   4.687
38468W        W10893  35.123  35.948   3.693
38469W        W10894  13.573   0.790  13.079
38470W        W10895   4.195  18.212  11.699
38471W        W10896  33.413  26.460   1.224
38472W        W10897  23.365  24.906   0.687
38473W        W10898  11.635   4.551   2.781
38474W        W10899  32.213   6.933  11.210
38475W        W10900  38.416   0.873   3.549
38476W        W10901  41.922  14.375  13.146
38477W        W10902  11.360  12.266  13.530
38478W        W10903  40.490  42.842   1.897
38479W        W10904  31.106  33.954   2.885
38480W        W10905  39.869  13.772  13.988
38481W        W10906  43.967   4.842   4.838
38482W        W10907   6.668  44.880   1.861
38483W        W10908  21.775  19.256  12.443
38484W        W10909  32.914  33.713   2.789
38485W        W10910  10.901  44.886   3.802
38486W        W10911   2.191  44.969  13.399
38487W        W10912  42.732  43.585  13.872
38488W        W10913   5.721  43.009  13.772
38489W        W10914   9.074   3.872  14.927
38490W        W10915  42.249   4.378   0.519
38491W        W10916  33.237   8.300  13.364
38492W        W10917  17.685  30.068  10.920
38493W        W10918   6.855  16.770  14.215
38494W        W10919  24.128   6.693  12.893
38495W        W10920  26.028  39.749   3.639
38496W        W10921   8.845  15.212   1.894
38497W        W10922  16.389  43.997  10.819
38498W        W10923   1.890  26.100   1.766
38499W        W10924   0.948  32.267  12.337
38500W        W10925  11.739   6.159  14.972
38501W        W10926  16.209  31.562   1.444
38502W        W10927   1.237  15.172  14.192
38503W        W10928  25.375  19.533  14.336
38504W        W10929   9.756   9.335  12.003
38505W        W10930  17.272  34.182  10.260
38506W        W10931   9.100   3.917   1.685
38507W        W10932  16.123  22.578   1.871
38508W        W10933  40.504  26.509  10.464
38509W        W10934  11.595  36.348  14.631
38510W        W10935  29.070  36.549  13.324
38511W        W10936  24.888  44.745   1.894
38512W        W10937   4.192  32.993  12.181
38513W        W10938  38.896  42.466   5.063
38514W        W10939   8.003  25.211  14.919
38515W        W10940  28.176  23.190   4.653
38516W        W10941  38.310   5.771  12.877
38517W        W10942   3.895  26.772   3.081
38518W        W10943  18.242  36.033   1.769
38519W        W10944  21.465  17.043   4.852
38520W        W10945  12.730  29.629   3.358
38521W        W10946  11.870  17.942   1.307
38522W        W10947  19.709  23.081   3.934
38523W        W10948  39.346  38.507   4.167
38524W        W10949  26.826  35.484  11.578
38525W        W10950  41.708  14.779  11.069
38526W        W10951   6.183  28.440  12.071
38527W        W10952  33.631  42.885   1.755
38528W        W10953  36.568  36.034  12.904
38529W        W10954  21.019  41.369   2.839
38530W        W10955  15.144   2.943  10.034
38531W        W10956   5.317  18.982  13.068
38532W        W10957   2.292  28.384   1.556
38533W        W10958  13.843  10.415   1.833
38534W        W10959  12.286  44.194  14.357
38535W        W10960  17.696  35.415  12.146
38536W        W10961  13.705  36.850   1.957
38537W        W10962  26.249  33.016   3.250
38538W        W10963  43.888  10.388  12.473
38539W        W10964  36.379   6.371   1.322
38540W        W10965  43.458  43.342   1.712
38541W        W10966   8.843   0.478  11.181
38542W        W10967   9.868   8.874   0.163
38543W        W10968  16.830  23.488  12.106
38544W        W10969  21.228  29.849   4.610
38545W        W10970  17.058  28.190   4.753
38546W        W10971   5.517  39.302  12.594
38547W        W10972  40.582   6.860   1.759
38548W        W10973  35.942   5.658  12.442
38549W        W10974   0.742  32.515  13.584
38550W        W10975   9.369  44.191   1.793
38551W        W10976  33.893  30.611  10.880
38552W        W10977  23.582  33.072   0.847
38553W        W10978   2.785  44.468   2.362
38554W        W10979  40.890  42.223   3.227
38555W        W10980  13.173   4.872   1.514
38556W        W10981   9.776  21.655  13.038
38557W        W10982   6.469  32.557   4.459
38558W        W10983  44.034  14.445  12.481
38559W        W10984   4.382  16.268   1.680
38560W        W10985  24.982  18.025  13.430
38561W        W10986  31.010  17.314  11.517
38562W        W10987   5.039  20.281  12.379
38563W        W10988   2.359  24.859  14.391
38564W        W10989  25.578  29.214   4.586
38565W        W10990   4.711  23.099   3.157
38566W        W10991  19.550  25.267   0.785
38567W        W10992  38.155   8.446  14.598
38568W        W10993  21.924   3.967  14.939
38569W        W10994  15.897  32.985   0.231
38570W        W10995  21.697  36.903   2.397
38571W        W10996  28.395  34.082  12.036
38572W        W10997   0.178  36.429   3.654
38573W        W10998  12.528   7.231  14.080
38574W        W10999  28.163   4.767  10.695
38575W        W11000  32.762  19.026   2.638
38576W        W11001  24.179  22.224  10.605
38577W        W11002   8.860   9.097   4.535
38578W        W11003  41.401  15.869   3.147
38579W        W11004  17.265  34.094   4.134
38580W        W11005  26.471  14.777  13.791
38581W        W11006   4.157  23.568   4.283
38582W        W11007  16.468  30.077   0.822
38583W        W11008   7.216   1.853  12.605
38584W        W11009  23.674  16.129  10.858
38585W        W11010  22.540  31.988  13.400
38586W        W11011  15.631   5.709  10.054
38587W        W11012  19.275  18.341  11.687
38588W        W11013   4.158  21.128  13.501
38589W        W11014   3.444  25.266  11.164
38590W        W11015  24.153  25.746  12.969
38591W        W11016  25.237  20.528  12.588
38592W        W11017  38.288  30.293  12.482
38593W        W11018  15.278  20.149   3.039
38594W        W11019  34.028  15.213   2.093
38595W        W11020  17.353   6.513  11.114
38596W        W11021  24.559   3.515   1.388
38597W        W11022  33.695  29.981   4.558
38598W        W11023  21.106   2.653  11.468
38599W        W11024  26.092  41.950  14.178
38600W        W11025   1.023  42.263   4.850
38601W        W11026  27.250  42.164   0.828
38602W        W11027  10.185  10.318  14.235
38603W        W11028  33.980   0.642  12.437
38604W        W11029  22.391  22.194   4.673
38605W        W11030  23.661  17.236  14.359
38606W        W11031  24.610  10.458  14.539
38607W        W11032  21.026  44.965   4.414
38608W        W11033   5.316  28.775  11.874
38609W        W11034   7.754  37.860   1.518
38610W        W11035  30.618  10.241  14.952
38611W        W11036  31.924  25.505   4.370
38612W        W11037   5.824  19.622   1.864
38613W        W11038   0.234   7.416   3.137
38614W        W11039  44.419  30.382  14.087
38615W        W11040  23.308  25.270   3.165
38616W        W11041  29.685  17.222   2.775
38617W        W11042  10.237  11.689   2.690
38618W        W11043  42.347  12.904   1.912
38619W        W11044  24.662  11.425   3.319
38620W        W11045  24.779  19.607   2.527
38621W        W11046   7.177  17.871   3.406
38622W        W11047  21.191  39.475  14.385
38623W        W11048   5.599   7.525   1.263
38624W        W11049  41.933   7.627  14.792
38625W        W11050  26.211  26.593   3.414
38626W        W11051   7.696   0.639   2.588
38627W        W11052  12.565   9.174  12.413
38628W        W11053  15.740   1.303   4.459
38629W        W11054  29.141  44.131   4.439
38630W        W11055  44.325  25.158   2.161
38631W        W11056  39.384  12.622  10.721
38632W        W11057  23.423  23.325   0.096
38633W        W11058  37.072   2.356  11.470
38634W        W11059  39.012  40.413   0.851
38635W        W11060  34.378  41.478  11.955
38636W        W11061  19.635  10.701   2.689
38637W        W11062   1.577  12.425   0.148
38638W        W11063  12.552  32.580  11.092
38639W        W11064  29.837  43.401   0.924
38640W        W11065  14.850  40.604   2.225
38641W        W11066  19.845  13.134  13.570
38642W        W11067   7.879  35.633   1.870
38643W        W11068   3.918   4.459  12.078
38644W        W11069   8.679  44.891   2.329
38645W        W11070  18.651  27.775   2.497
38646W        W11071  15.778   5.752   0.723
38647W        W11072  34.708  11.138   4.076
38648W        W11073  21.187  37.134  10.794
38649W        W11074  11.135  14.212  13.869
38650W        W11075  12.516  17.723  11.975
38651W        W11076  37.317   3.650   0.317
38652W        W11077  28.150  35.476  13.824
38653W        W11078  29.058  40.049  14.543
38654W        W11079  12.313  42.200   1.095
38655W        W11080  24.713  10.700   1.663
38656W        W11081  27.090  28.996  11.444
38657W        W11082  42.907  23.686   3.148
38658W        W11083  43.807   9.599   2.109
38659W        W11084  21.554  30.644   0.735
38660W        W11085   4.570   8.387  10.371
38661W        W11086   2.995  39.449  14.856
38662W        W11087  17.680  15.244  14.268
38663W        W11088  38.784   1.280  12.050
38664W        W11089  20.294  11.522  12.098
38665W        W11090  18.819  10.583  14.407
38666W        W11091  10.336  33.151   4.196
38667W        W11092  26.827  29.445   4.963
38668W        W11093  37.370  40.368   0.169
38669W        W11094  30.830   7.980  11.881
38670W        W11095  23.969  18.146  14.893
38671W        W11096   5.939  24.041   4.475
38672W        W11097  23.543   7.103   3.980
38673W        W11098  13.546  31.840   0.792
38674W        W11099  42.501  26.902   4.113
38675W        W11100  12.272  44.390   2.597
38676W        W11101  14.273  32.529   4.519
38677W        W11102  39.839   1.407  14.018
38678W        W11103  26.521  17.642  14.324
38679W        W11104  43.300  24.227  12.403
38680W        W11105  20.053  24.467   0.746
38681W        W11106  44.299  27.339   3.554
38682W        W11107  11.370  31.944   2.799
38683W        W11108  41.087  13.589   1.267
38684W        W11109  11.293  14.244  14.383
38685W        W11110   7.267  29.901   0.219
38686W        W11111   2.680  14.363   4.222
38687W        W11112  29.611  29.669   0.401
38688W        W11113   6.432  23.760   1.355
38689W        W11114  14.797  34.541   4.182
38690W        W11115  29.122   4.471   4.480
38691W        W11116  19.299  12.268   1.033
38692W        W11117  36.463  18.472  12.093
38693W        W11118  15.318  25.335   3.255
38694W        W11119  27.896   4.417  13.386
38695W        W11120  32.054  40.561   2.195
38696W        W11121  15.753  37.636  12.050
38697W        W11122  44.517   2.542   2.250
38698W        W11123  15.432  20.121  11.873
38699W        W11124  22.038  11.399  11.431
38700W        W11125  41.639  37.914  11.546
38701W        W11126  36.534   8.452   5.171
38702W        W11127  16.143  13.052   0.007
38703W        W11128   5.858  15.170  13.459
38704W        W11129  30.683  12.431   4.186
38705W        W11130  29.667  20.574  13.361
38706W        W11131  25.766  23.465   2.186
38707W        W11132  30.637   2.698  11.891
38708W        W11133  24.334  18.502   4.273
38709W        W11134   7.279   2.499  10.880
38710W        W11135  22.095  34.989  13.894
38711W        W11136  22.779   0.787  10.613
38712W        W11137  19.696  12.277   0.270
38713W        W11138  12.689  35.390   2.802
38714W        W11139  36.933  24.433  12.518
38715W        W11140  38.557  16.413   3.094
38716W        W11141  23.222  24.490  10.754
38717W        W11142  41.543   9.256  13.311
38718W        W11143  21.664  10.992   0.200
38719W        W11144  41.076  20.198   1.871
38720W        W11145  41.915  18.209   1.801
38721W        W11146   5.687  35.090   1.209
38722W        W11147  36.180   7.896   2.678
38723W        W11148  14.109  27.109  11.068
38724W        W11149  20.207  13.513   2.650
38725W        W11150  12.602  42.859  14.459
38726W        W11151  39.287   7.837   5.049
38727W        W11152  22.529  25.255  10.817
38728W        W11153  38.036   0.454  11.628
38729W        W11154  27.938  15.548   4.511
38730W        W11155  16.244  15.100   2.737
38731W        W11156   5.562   4.148  14.094
38732W        W11157  28.704  16.060   3.649
38733W        W11158  12.339   9.362  13.474
38734W        W11159  22.910  40.901   4.565
38735W        W11160   9.741  12.187   3.625
38736W        W11161  32.300  38.483   1.818
38737W        W11162   3.731  37.126   2.820
38738W        W11163  37.973  31.141  11.526
38739W        W11164  37.077   6.718  14.160
38740W        W11165   5.792  33.245   2.619
38741W        W11166   9.780  43.648  14.353
38742W        W11167  34.655  28.532   3.921
38743W        W11168  36.487   9.665   3.337
38744W        W11169  44.214  15.750  14.347
38745W        W11170  13.353  13.323  10.897
38746W        W11171  10.720  36.145  11.490
38747W        W11172  43.077   0.281   1.894
38748W        W11173  43.893  44.222  13.936
38749W        W11174  41.433  22.539   2.758
38750W        W11175   7.259   9.388   3.122
38751W        W11176  11.626  30.215  13.438
38752W        W11177  11.667  40.897   4.916
38753W        W11178   5.005   9.834  11.130
38754W        W11179  19.336  19.828   2.352
38755W        W11180  14.574  12.159   3.100
38756W        W11181  40.091  44.024  11.505
38757W        W11182  28.841   4.169  13.485
38758W        W11183  35.956  36.659   2.896
38759W        W11184  29.646  27.994   0.924
38760W        W11185   9.315   0.218   1.932
38761W        W11186  40.063  16.458  13.464
38762W        W11187  37.574  42.504   1.923
38763W        W11188  26.020  43.419  11.210
38764W        W11189  19.138  24.795   2.318
38765W        W11190  30.631  28.903  14.490
38766W        W11191  14.899  42.483  12.557
38767W        W11192  29.310  33.663  11.546
38768W        W11193  25.951   7.668   0.601
38769W        W11194  14.138  38.132  11.005
38770W        W11195   7.238   1.525  13.046
38771W        W11196  22.805   7.831   0.731
38772W        W11197  23.736  26.946  14.343
38773W        W11198  10.950   8.156   0.356
38774W        W11199  20.443   6.588  13.296
38775W        W11200  32.133  33.644   1.902
38776W        W11201  13.031  25.205  11.237
38777W        W11202  17.921   8.881  12.043
38778W        W11203  36.589  17.851  14.115
38779W        W11204  13.089  16.729  13.629
38780W        W11205  15.706  38.679   0.570
38781W        W11206  22.811   6.244  10.110
38782W        W11207  38.162  16.616   3.379
38783W        W11208  31.522  43.462   3.614
38784W        W11209  18.523  20.710   0.961
38785W        W11210  15.022   0.585  10.662
38786W        W11211  28.387  15.670  11.062
38787W        W11212  18.010   1.709  13.534
38788W        W11213  32.123  13.815   4.242
38789W        W11214   9.918  30.515   0.000
38790W        W11215  20.454   5.183   4.065
38791W        W11216  28.413  39.052  13.952
38792W        W11217  38.620  39.850   4.102
38793W        W11218  11.682  18.702  14.411
38794W        W11219  14.164   1.695   0.730
38795W        W11220   8.933  27.151   0.871
38796W        W11221   5.199  25.079   4.646
38797W        W11222   8.722   5.572  11.296
38798W        W11223  15.359  21.175   0.146
38799W        W11224  35.311  14.899   2.597
38800W        W11225  41.921   0.004  10.763
38801W        W11226   0.423  30.924  14.468
38802W        W11227   6.397  36.383  10.654
38803W        W11228   1.926  42.266  13.414
38804W        W11229   3.166  15.680   3.557
38805W        W11230  29.388  35.156  13.471
38806W        W11231  20.173  39.659   1.614
38807W        W11232  10.037  24.169  12.605
38808W        W11233  43.793  24.104   0.450
38809W        W11234   6.263  21.620  10.663
38810W        W11235  24.091  17.071   5.004
38811W        W11236   3.235  10.781  13.784
38812W        W11237   9.311  32.390   3.888
38813W        W11238  25.161  23.480   3.830
38814W        W11239   2.250  22.415  10.053
38815W        W11240  11.287  26.039   1.231
38816W        W11241  29.171  23.819  10.642
38817W        W11242  25.922  34.436   3.138
38818W        W11243  26.358  35.996   3.680
38819W        W11244  35.179   3.339  11.408
38820W        W11245   4.611  21.889   2.341
38821W        W11246  29.429  29.944  10.511
38822W        W11247  13.801  37.036  12.014
38823W        W11248  29.718  34.481   3.323
38824W        W11249  10.628  15.581  14.397
38825W        W11250  33.112  43.433   1.148
38826W        W11251  27.760   4.653   2.288
38827W        W11252   5.554   4.453  12.807
38828W        W11253  18.395  34.103   0.579
38829W        W11254  27.322   9.148   0.860
38830W        W11255  44.308  34.078  14.034
38831W        W11256  33.650  24.033  13.971
38832W        W11257  19.133  17.686   4.108
38833W        W11258  38.953  42.258   4.143
38834W        W11259  23.171  32.935   2.305
38835W        W11260  34.481  12.659  12.124
38836W        W11261  43.458  24.116   3.700
38837W        W11262  29.825  10.141   1.208
38838W        W11263  11.699  19.516   4.280
38839W        W11264  32.367  16.586  10.727
38840W        W11265  33.816  34.459  14.144
38841W        W11266  23.213   8.220  12.539
38842W        W11267  40.870   8.773  13.155
38843W        W11268   5.078   8.297  10.331
38844W        W11269  41.870  37.007   1.893
38845W        W11270  11.414  22.613  11.889
38846W        W11271  30.537  27.231  12.872
38847W        W11272   8.585   6.278  12.574
38848W        W11273  16.484  31.645   3.248
38849W        W11274  22.943  19.091   0.839
38850W        W11275   8.429  23.288   3.298
38851W        W11276  40.621   9.166  12.475
38852W        W11277   5.274  21.826   3.146
38853W        W11278   3.726  23.791  11.194
38854W        W11279   8.341   8.745   0.894
38855W        W11280   6.683   0.486   4.204
38856W        W11281  32.311   7.424   1.309
38857W        W11282  38.501  13.119   3.119
38858W        W11283  15.951  18.822   3.471
38859W        W11284  27.669  15.560   2.337
38860W        W11285  36.167  40.659   2.263
38861W        W11286  16.670  26.058  12.448
38862W        W11287  19.681  39.078  14.558
38863W        W11288  44.491  22.578  14.433
38864W        W11289   9.224  38.499   0.118
38865W        W11290  39.855  25.597   1.327
38866W        W11291  23.034  31.936  14.903
38867W        W11292  18.222  41.328  12.088
38868W        W11293   9.536  42.842  11.436
38869W        W11294  36.934   1.766  14.816
38870W        W11295   7.756  25.580   1.392
38871W        W11296  44.154  35.090   1.977
38872W        W11297  32.017  26.052  11.504
38873W        W11298  38.717   9.245  10.083
38874W        W11299  36.586   6.470  11.696
38875W        W11300  42.533   0.976   1.871
38876W        W11301  10.726  28.956   1.726
38877W        W11302  38.538   5.933  14.813
38878W        W11303  16.388  40.833   1.543
38879W        W11304  31.381  22.011   4.167
38880W        W11305  39.425  28.671  12.814
38881W        W11306   4.152  33.591  14.023
38882W        W11307  37.110  23.965  13.456
38883W        W11308  23.748  34.891  11.839
38884W        W11309  17.176  41.969  12.945
38885W        W11310  17.098  28.097   9.801
38886W        W11311  34.122  20.570  12.914
38887W        W11312  42.921  11.831  13.491
38888W        W11313  21.335  39.462  11.171
38889W        W11314   2.844  35.376   0.832
38890W        W11315  18.758   5.902   9.709
38891W        W11316  13.879  32.456  12.444
38892W        W11317   3.947   3.770  11.051
38893W        W11318  35.915   0.932  13.959
38894W        W11319  15.172  30.062  14.686
38895W        W11320  17.778  38.322  11.442
38896W        W11321  42.015  33.824   4.001
38897W        W11322   8.233  17.793   4.652
38898W        W11323  16.846  35.559   3.831
38899W        W11324  18.058  29.753   4.843
38900W        W11325  11.718   0.528  12.537
38901W        W11326  39.216   8.289   1.426
38902W        W11327  40.032  41.048   0.406
38903W        W11328  41.469  12.093   2.692
38904W        W11329  27.644   5.938  12.802
38905W        W11330  18.875  41.552  13.572
38906W        W11331  24.295  18.071   1.258
38907W        W11332  22.493  20.638  13.268
38908W        W11333   0.768  13.499   4.699
38909W        W11334  15.215   2.184  10.205
38910W        W11335  28.395  14.819   3.453
38911W        W11336   1.651  16.223   1.500
38912W        W11337  38.951  26.580  10.942
38913W        W11338   5.905   0.269   0.234
38914W        W11339  37.947  32.085  13.655
38915W        W11340  10.138  16.824   0.457
38916W        W11341  16.727   2.855  14.317
38917W        W11342  40.499  34.882   1.700
38918W        W11343  42.996  14.193   9.987
38919W        W11344   2.393  14.011  14.689
38920W        W11345  17.970  40.786   1.410
38921W        W11346  29.621  40.826   2.112
38922W        W11347   0.899  18.444  14.388
38923W        W11348  17.373   1.501   1.097
38924W        W11349  19.675  16.152  12.555
38925W        W11350  32.465  20.838  12.344
38926W        W11351  19.612  38.738  14.968
38927W        W11352  23.636   0.454   1.195
38928W        W11353  15.808  44.659  13.807
38929W        W11354  16.835  35.991   2.165
38930W        W11355   5.981  27.891   0.380
38931W        W11356  25.593  31.130   4.802
38932W        W11357  42.662   5.315  13.206
38933W        W11358   8.704  28.634   4.136
38934W        W11359   6.687  27.188  13.806
38935W        W11360  30.623  10.721   2.191
38936W        W11361  32.420  28.684   3.611
38937W        W11362  22.601  28.791   2.692
38938W        W11363  40.814  28.401  13.865
38939W        W11364   7.915   6.914  12.660
38940W        W11365  29.997  27.405   4.751
38941W        W11366  20.744  12.206   3.746
38942W        W11367  18.516  29.882   5.051
38943W        W11368   8.701  37.963   4.214
38944W        W11369  43.751  21.661   0.878
38945W        W11370  31.981  24.650   2.730
38946W        W11371  34.917   9.536   2.819
38947W        W11372  32.975   6.636  10.607
38948W        W11373  42.363  12.110  12.007
38949W        W11374  28.666  43.299  11.275
38950W        W11375  21.983  43.312  14.109
38951W        W11376  20.794  31.102  12.016
38952W        W11377  36.868  10.250   3.607
38953W        W11378  21.988  23.222   1.314
38954W        W11379  21.218  18.747  12.929
38955W        W11380  34.001   9.279   4.388
38956W        W11381  40.180   1.365  10.588
38957W        W11382  21.918  12.284   4.851
38958W        W11383  37.075  26.546  12.510
38959W        W11384  23.790  38.899  12.514
38960W        W11385   4.271  15.663  12.878
38961W        W11386   8.346  38.883   4.750
38962W        W11387   7.221  40.092  10.762
38963W        W11388  17.105  23.584   0.745
38964W        W11389  25.639  36.140   0.264
38965W        W11390  22.163  22.235  10.965
38966W        W11391  41.914   3.787  13.760
38967W        W11392  43.865   8.075   0.995
38968W        W11393  32.154  36.606   3.200
38969W        W11394  20.025   4.154  14.520
38970W        W11395  24.559  35.532  14.483
38971W        W11396   7.955  37.109   3.402
38972W        W11397  12.926  18.051   0.464
38973W        W11398  44.437  41.631  11.591
38974W        W11399   9.137  22.751   0.886
38975W        W11400  25.670  10.802  11.169
38976W        W11401  13.682  33.578   4.099
38977W        W11402   5.724  19.368  12.332
38978W        W11403  12.261  25.992  13.955
38979W        W11404  37.026  32.093   3.348
38980W        W11405  16.110   7.666  12.852
38981W        W11406  27.409  12.933   4.109
38982W        W11407  25.789  10.036  10.023
38983W        W11408  30.180   8.575   0.482
38984W        W11409  33.115  44.942   2.625
38985W        W11410  30.370  18.183  12.708
38986W        W11411  12.338  14.794   3.321
38987W        W11412  10.385   6.958   4.992
38988W        W11413   7.274  41.744   2.245
38989W        W11414  44.417   2.916  11.607
38990W        W11415   3.424   3.769  13.013
38991W        W11416  27.227   6.914  13.085
38992W        W11417  44.280  34.375   4.576
38993W        W11418  40.088  12.648   4.106
38994W        W11419  40.294  24.240  11.552
38995W        W11420  34.982   4.944  10.642
38996W        W11421  44.583  44.785  12.003
38997W        W11422   0.492  43.846   3.541
38998W        W11423   6.322   1.538   2.069
38999W        W11424  35.765  15.249   4.086
39000W        W11425  23.449  42.473   1.375
39001W        W11426  21.078  39.306  12.011
39002W        W11427   0.883  15.835  11.498
39003W        W11428   3.425  20.649  11.641
39004W        W11429   5.353  15.302  11.090
39005W        W11430  15.341  30.298  12.567
39006W        W11431  19.201  27.650  12.599
39007W        W11432   0.853  38.027  11.671
39008W        W11433   6.071  37.632  13.946
39009W        W11434   3.419  34.914   0.304
39010W        W11435  17.780  16.814   3.414
39011W        W11436  21.506   9.928  13.189
39012W        W11437  15.327  10.439  11.102
39013W        W11438  18.723  34.334   1.664
39014W        W11439  22.185  31.669  14.178
39015W        W11440  26.213   5.441  14.109
39016W        W11441  11.360   7.748  13.100
39017W        W11442  43.871  26.855  13.111
39018W        W11443   6.660  12.261   4.358
39019W        W11444  40.321   0.277  14.827
39020W        W11445  39.573   5.353  13.254
39021W        W11446  19.042   6.757  13.095
39022W        W11447  33.366  38.157   4.368
39023W        W11448   3.298   3.957  14.050
39024W        W11449  35.119  25.168   4.618
39025W        W11450  37.047  41.875   2.448
39026W        W11451  23.385  21.929   4.055
39027W        W11452  18.939   4.703   4.835
39028W        W11453  42.794   9.380   3.317
39029W        W11454  28.107   6.237   1.852
39030W        W11455  40.593  10.114   0.368
39031W        W11456   3.234  14.433  13.302
39032W        W11457  12.370  40.872  12.030
39033W        W11458  26.439   6.788  13.430
39034W        W11459   1.828   3.216  14.853
39035W        W11460  39.265   8.051   3.696
39036W        W11461  32.676  13.692   2.311
39037W        W11462  30.072  14.042   1.136
39038W        W11463  11.714   5.145  13.663
39039W        W11464  28.039  29.175  11.122
39040W        W11465  35.938  12.285   0.302
39041W        W11466  12.488  28.177   2.689
39042W        W11467  33.289  27.914  11.439
39043W        W11468   0.825  12.291   1.401
39044W        W11469   3.876  35.132   0.352
39045W        W11470  32.828  41.823   0.139
39046W        W11471  29.590  33.796  14.329
39047W        W11472  43.822  36.811   3.238
39048W        W11473   2.356   3.986   3.262
39049W        W11474  38.824  27.696  13.491
39050W        W11475   7.473  41.897   4.776
39051W        W11476  35.183  31.116   4.681
39052W        W11477  30.869  19.601   3.269
39053W        W11478  30.651  38.296   1.615
39054W        W11479  28.789   5.417   4.594
39055W        W11480  34.915  23.072   1.197
39056W        W11481  25.414  41.824  11.321
39057W        W11482   2.568  24.923  10.539
39058W        W11483  31.174   9.067  14.758
39059W        W11484  17.892  15.073   0.737
39060W        W11485  19.097   0.302  10.727
39061W        W11486  36.950   0.495   2.163
39062W        W11487  29.694  38.465   2.448
39063W        W11488  38.899   1.909   1.056
39064W        W11489  40.558   3.905   3.270
39065W        W11490  34.098   5.131   2.738
39066W        W11491  31.912  21.948  10.932
39067W        W11492  36.668  29.020  10.519
39068W        W11493  44.852  33.869   0.470
39069W        W11494  27.925   9.825  14.702
39070W        W11495  44.945   6.473   2.930
39071W        W11496  22.254  18.647   3.736
39072W        W11497  23.005  22.251   0.514
39073W        W11498  32.535  14.725  13.518
39074W        W11499  37.377  14.905   3.354
39075W        W11500  41.836  10.913   0.778
39076W        W11501   1.525   1.656  14.373
39077W        W11502  40.375   0.306   0.345
39078W        W11503  16.595   9.112   4.687
39079W        W11504   0.484  28.730   3.259
39080W        W11505  15.529  27.050  12.355
39081W        W11506  36.033  28.802  13.608
39082W        W11507  32.123  30.923   0.739
39083W        W11508  42.907  24.013   4.162
39084W        W11509  39.529  34.865  14.688
39085W        W11510   3.661  33.650  12.867
39086W        W11511  13.716  17.191  10.670
39087W        W11512   8.657   0.387   2.608
39088W        W11513   1.721  12.220   3.157
39089W        W11514  30.724   9.573  14.461
39090W        W11515   4.697  11.355  12.941
39091W        W11516   7.903   7.779   2.344
39092W        W11517  14.565  13.272  12.857
39093W        W11518  33.008   7.725   0.937
39094W        W11519   2.507  28.033  14.851
39095W        W11520  25.635  39.473  10.696
39096W        W11521  30.570   1.228   2.254
39097W        W11522   3.674  20.549   0.354
39098W        W11523   5.673  33.878  11.372
39099W        W11524  27.662  12.859  10.728
39100W        W11525   8.310  43.819   1.776
39101W        W11526  10.641   1.213  14.953
39102W        W11527   1.783  17.101   1.397
39103W        W11528  39.076  14.265  14.340
39104W        W11529  16.666  18.949  12.559
39105W        W11530  29.099  41.406  14.389
39106W        W11531   6.866  38.704  13.540
39107W        W11532  26.698  22.661   3.255
39108W        W11533  36.262  21.583   3.690
39109W        W11534  37.275  31.905  11.172
39110W        W11535  44.753  12.081   0.976
39111W        W11536  17.671  24.712   1.821
39112W        W11537  36.231  30.570  10.257
39113W        W11538   4.275  17.379   2.164
39114W        W11539  27.602   7.746  12.787
39115W        W11540  10.747  36.017   4.079
39116W        W11541  24.826   3.903  12.002
39117W        W11542   7.954  43.329  11.723
39118W        W11543  34.564  10.594   1.178
39119W        W11544   3.201   5.499  11.974
39120W        W11545   9.317  24.715  11.479
39121W        W11546  28.465  25.170   0.404
39122W        W11547   9.721  38.180   3.229
39123W        W11548  35.275  20.690  13.544
39124W        W11549  21.804  14.076   2.810
39125W        W11550   9.451  39.400   4.123
39126W        W11551  21.135  42.827   5.030
39127W        W11552   0.994   6.436   0.408
39128W        W11553  31.405  35.677   3.761
39129W        W11554  25.477  10.063  10.448
39130W        W11555  33.123  13.582  12.993
39131W        W11556  28.564  33.035  12.306
39132W        W11557  17.021  29.994   4.054
39133W        W11558  27.236  25.889   0.220
39134W        W11559  15.854  43.976   0.348
39135W        W11560  18.307  43.437  13.939
39136W        W11561  35.380  21.590   2.427
39137W        W11562   5.953  11.697   1.296
39138W        W11563  30.703   3.775   1.808
39139W        W11564  32.855  19.213  10.702
39140W        W11565  20.338  42.956   3.404
39141W        W11566  10.252  32.545   1.012
39142W        W11567  28.580  26.254   1.035
39143W        W11568  23.712  24.752   0.328
39144W        W11569  41.910  34.882   1.138
39145W        W11570   5.857  41.090  12.083
39146W        W11571  17.367   2.017  10.968
39147W        W11572  29.152  42.745  14.769
39148W        W11573  10.099  29.910   4.156
39149W        W11574   7.894  22.229  11.202
39150W        W11575  43.913  23.715  14.528
39151W        W11576   8.277  33.406  11.115
39152W        W11577   1.789  12.725   0.524
39153W        W11578  39.933  11.777  14.600
39154W        W11579  29.428  24.299   2.066
39155W        W11580  35.853  24.694   4.232
39156W        W11581  21.152   0.946  13.087
39157W        W11582  44.498   5.594   0.734
39158W        W11583  35.802   5.581  11.435
39159W        W11584  14.028  17.422  12.559
39160W        W11585   7.175  31.556   2.805
39161W        W11586  26.372  23.642   1.187
39162W        W11587  24.165  17.778  13.450
39163W        W11588  19.795  41.385  13.422
39164W        W11589  44.665  20.023  10.646
39165W        W11590  18.869  38.644   4.218
39166W        W11591  13.300  23.889   4.193
39167W        W11592  25.994  21.725   4.069
39168W        W11593  22.733  15.739   4.596
39169W        W11594  18.545  27.978  11.931
39170W        W11595   5.219   4.466  12.430
39171W        W11596  22.079   2.852   1.966
39172W        W11597  16.804   4.898  13.916
39173W        W11598  31.425  32.273   2.295
39174W        W11599  30.170   7.438  14.135
39175W        W11600  20.291  40.942   2.428
39176W        W11601  39.312  26.119   2.222
39177W        W11602  24.500   5.896  14.285
39178W        W11603  17.012  39.757   1.255
39179W        W11604  23.136  31.320   4.231
39180W        W11605  43.081  31.925   3.256
39181W        W11606  37.944  14.899  13.834
39182W        W11607  15.685  26.985   2.023
39183W        W11608  15.833   5.465  14.944
39184W        W11609  35.556  27.652   1.298
39185W        W11610  29.615   1.524   3.162
39186W        W11611  43.885  40.046   3.617
39187W        W11612  21.759   2.105   4.095
39188W        W11613  19.260   7.604   0.862
39189W        W11614   2.943  16.526  11.577
39190W        W11615  30.183  19.171   0.186
39191W        W11616   5.396  31.163   2.313
39192W        W11617  32.683  20.170   4.277
39193W        W11618  38.222   6.167  13.652
39194W        W11619   6.819  23.907  14.192
39195W        W11620  10.854  22.293   2.182
39196W        W11621  24.485  20.104   1.375
39197W        W11622  40.874  12.079   1.889
39198W        W11623  16.217  43.234   1.426
39199W        W11624  39.970  20.148   3.910
39200W        W11625  42.069   7.820  13.770
39201W        W11626  37.104  33.982   2.720
39202W        W11627   0.910  44.261  11.649
39203W        W11628  17.060  20.520   3.698
39204W        W11629  27.989  18.029   2.674
39205W        W11630   2.393  21.983  12.986
39206W        W11631  25.186  12.677   2.885
39207W        W11632  22.230  42.510   0.858
39208W        W11633  11.397  34.685   1.209
39209W        W11634  34.629  29.795  10.676
39210W        W11635  20.410  37.344   1.240
39211W        W11636  17.013  28.785   1.255
39212W        W11637  14.114  24.029   4.196
39213W        W11638  13.814  18.378   0.438
39214W        W11639  44.366   0.315   0.053
39215W        W11640   3.235  39.365  11.994
39216W        W11641  17.681  18.635  14.742
39217W        W11642   4.671   6.423  12.119
39218W        W11643  37.947  31.008  10.436
39219W        W11644  34.627  37.523  13.693
39220W        W11645  42.050   7.807   1.682
39221W        W11646  37.499  29.872   0.148
39222W        W11647  23.138   7.455   4.845
39223W        W11648   5.247  24.227   2.321
39224W        W11649  13.230  40.701  13.055
39225W        W11650  36.481   5.988   9.863
39226W        W11651  18.482  43.303   0.385
39227W        W11652  37.988  28.114  13.018
39228W        W11653  37.091   5.679   1.412
39229W        W11654  23.032  42.222   1.173
39230W        W11655  20.264  40.929  12.540
39231W        W11656   9.103  32.589  14.532
39232W        W11657  41.053  29.666  14.325
39233W        W11658   8.435   2.999   4.102
39234W        W11659  19.439  42.296  14.494
39235W        W11660  44.925  43.790  14.461
39236W        W11661  24.014  17.219   2.665
39237W        W11662  37.486  36.114   4.529
39238W        W11663  16.245   0.806  10.943
39239W        W11664   4.214   4.493   2.173
39240W        W11665  43.054   1.540  12.227
39241W        W11666  30.146  30.893   4.155
39242W        W11667  10.765   3.388  11.377
39243W        W11668   6.077   4.234  14.007
39244W        W11669   2.354   0.872  10.487
39245W        W11670  40.322  44.285   0.730
39246W        W11671  12.616   7.678   4.717
39247W        W11672  13.821  41.829  11.303
39248W        W11673   5.547  24.060  13.876
39249W        W11674  30.042  21.208   5.688
39250W        W11675  31.403  44.396  13.040
39251W        W11676  27.602  10.360   0.224
39252W        W11677  42.517   7.714  13.538
39253W        W11678  41.789  44.548   0.845
39254W        W11679  34.561  42.460  10.717
39255W        W11680   0.205   4.804   1.892
39256W        W11681  34.902   2.774   0.318
39257W        W11682  32.871  34.414   3.314
39258W        W11683  36.171  19.050  12.589
39259W        W11684  41.949  13.916  11.112
39260W        W11685   3.107  17.021  13.988
39261W        W11686   4.935  34.009  12.535
39262W        W11687  42.061  12.585   1.359
39263W        W11688  38.818  41.749  10.978
39264W        W11689  24.756  10.812   2.695
39265W        W11690  35.452  12.574   1.466
39266W        W11691  20.670  32.407  14.359
39267W        W11692  32.175   6.797   1.900
39268W        W11693  16.366   2.313   2.920
39269W        W11694  18.989  32.145   0.858
39270W        W11695  16.635   7.370  12.704
39271W        W11696  37.532   5.296  10.654
39272W        W11697  42.824  38.344  13.034
39273W        W11698  23.936  23.653  12.992
39274W        W11699  14.101  41.254  14.362
39275W        W11700  20.676  23.512  14.003
39276W        W11701  18.341  18.809   2.331
39277W        W11702  16.140  31.906   0.273
39278W        W11703  13.798  12.983   4.878
39279W        W11704  11.806  42.811   4.144
39280W        W11705  16.146  34.656   3.263
39281W        W11706   1.865  28.249  12.990
39282W        W11707  26.496  15.167   2.484
39283W        W11708  19.618  17.543   3.850
39284W        W11709   7.719  29.478   1.191
39285W        W11710  35.579  41.227  11.928
39286W        W11711  43.326  41.568  12.899
39287W        W11712   1.396  43.088   2.837
39288W        W11713  27.725  23.638  12.063
39289W        W11714  40.841   8.701  12.567
39290W        W11715   6.496  44.007   3.004
39291W        W11716  32.088  31.341  14.359
39292W        W11717   2.883  19.802  10.886
39293W        W11718   8.162  26.700   0.705
39294W        W11719  41.485  16.085   0.727
39295W        W11720   9.003  33.640   0.472
39296W        W11721  26.685  11.191   3.894
39297W        W11722  44.326  30.397  10.596
39298W        W11723  30.092  43.333   3.810
39299W        W11724  21.202  37.649  10.117
39300W        W11725  44.319  39.389  13.374
39301W        W11726  41.699   0.953  12.676
39302W        W11727  17.028   1.232   1.905
39303W        W11728   7.189  30.983   2.178
39304W        W11729  33.942  30.172   4.129
39305W        W11730  33.988  24.568   4.739
39306W        W11731  20.686  16.663  14.322
39307W        W11732  35.582  28.767   2.269
39308W        W11733  24.785  18.193   0.268
39309W        W11734   7.757  37.992  12.027
39310W        W11735  36.621  10.136  11.073
39311W        W11736  13.207  32.329  10.645
39312W        W11737  27.972  35.771  11.032
39313W        W11738  10.269  28.675   1.861
39314W        W11739  32.415  18.564   4.281
39315W        W11740  27.335   9.869   1.305
39316W        W11741  15.421  23.490  10.223
39317W        W11742   9.699  23.721   3.323
39318W        W11743  44.727  25.238  12.026
39319W        W11744  36.771   6.950  13.811
39320W        W11745  35.463  11.327  12.345
39321W        W11746  28.790  12.364  14.989
39322W        W11747  37.124  29.446   3.197
39323W        W11748  23.661  19.632   4.232
39324W        W11749  28.699   4.752  14.583
39325W        W11750  34.055  36.509  12.241
39326W        W11751  33.966   2.891   0.264
39327W        W11752   1.202  41.218  13.349
39328W        W11753  20.299  33.521   3.018
39329W        W11754   2.229  27.600  14.865
39330W        W11755   1.934  23.662  12.046
39331W        W11756  28.311  17.990  11.483
39332W        W11757  29.189  33.392   2.418
39333W        W11758  25.143   2.312   2.228
39334W        W11759   3.881  15.601  14.503
39335W        W11760   5.230  30.919   0.947
39336W        W11761   7.427   7.119   1.814
39337W        W11762  26.270  32.662   0.362
39338W        W11763  14.042   2.395   2.191
39339W        W11764  10.624  10.585  14.360
39340W        W11765  39.956  24.098   3.451
39341W        W11766  33.641   9.305   1.273
39342W        W11767  34.176  20.937  13.718
39343W        W11768  18.017  23.155   2.160
39344W        W11769  28.484  21.477  13.617
39345W        W11770  32.354   9.068  12.166
39346W        W11771  32.753  28.437   0.341
39347W        W11772  14.062  18.710   3.521
39348W        W11773  28.745   4.394   2.083
39349W        W11774  21.047  36.823   1.448
39350W        W11775  19.046  13.521  10.826
39351W        W11776  28.233  30.546  14.792
39352W        W11777  25.699  39.529  11.557
39353W        W11778   3.988  12.412  14.837
39354W        W11779  28.099  25.227   0.053
39355W        W11780  39.980  38.087   3.717
39356W        W11781  42.330  41.853   0.309
39357W        W11782   7.743   3.213  11.168
39358W        W11783  18.231  17.092   0.870
39359W        W11784  36.745  19.738   0.295
39360W        W11785   1.797   6.100   1.209
39361W        W11786  14.909  17.261   3.736
39362W        W11787  27.186  23.267   1.237
39363W        W11788  15.833  24.140   9.995
39364W        W11789   8.806  25.768   0.257
39365W        W11790  23.791  34.916   4.479
39366W        W11791  42.063  44.004   3.072
39367W        W11792  10.982   4.375  14.284
39368W        W11793  16.785  37.569  12.771
39369W        W11794   1.813  36.351   0.753
39370W        W11795  24.631  38.585  12.481
39371W        W11796   5.575  20.601  14.544
39372W        W11797  42.084  29.171   3.588
39373W        W11798  36.816   1.550   0.743
39374W        W11799  11.786  28.488   3.941
39375W        W11800  24.506  15.069   2.496
39376W        W11801   6.002  30.463   2.594
39377W        W11802  33.928  16.104   0.313
39378W        W11803  19.513  32.979   4.081
39379W        W11804  20.741  36.845   0.452
39380W        W11805  29.536  43.617  13.941
39381W        W11806  14.131  40.479  14.828
39382W        W11807  30.144  12.807   1.703
39383W        W11808  40.497  24.249   4.566
39384W        W11809  29.851  42.880  11.085
39385W        W11810   1.293  39.332  12.105
39386W        W11811  20.389   7.894  14.235
39387W        W11812  10.621  41.079  12.946
39388W        W11813  38.515   2.138   0.785
39389W        W11814   2.816  40.800   2.726
39390W        W11815  38.426  16.655   4.254
39391W        W11816  15.266  39.461   4.055
39392W        W11817  42.223  28.218   3.794
39393W        W11818  15.805  11.249   0.626
39394W        W11819   5.566  21.770  12.642
39395W        W11820  10.278   1.887  14.137
39396W        W11821  43.193  27.498   1.344
39397W        W11822  15.237  39.441  12.847
39398W        W11823  38.822  27.629   2.389
39399W        W11824   4.654   6.826  10.839
39400W        W11825  39.900  42.855   3.353
39401W        W11826  18.211   0.740   3.325
39402W        W11827  26.100  37.559  10.593
39403W        W11828  38.360   0.192   2.238
39404W        W11829  43.358  37.230  12.011
39405W        W11830  23.170  28.031  10.762
39406W        W11831  35.625  32.572   4.703
39407W        W11832   0.452  13.841   0.311
39408W        W11833  14.501  36.030  13.366
39409W        W11834  35.350  14.716   0.213
39410W        W11835  24.242  13.678   2.707
39411W        W11836  19.611   6.739   0.957
39412W        W11837  17.508  27.019  12.107
39413W        W11838  30.312   3.842   2.138
39414W        W11839  34.650  11.647   2.458
39415W        W11840  30.611  24.548  11.746
39416W        W11841   9.568  38.181  13.489
39417W        W11842  36.684  31.947   1.731
39418W        W11843  43.979  38.381   2.894
39419W        W11844  35.633  39.464   3.407
39420W        W11845   4.839  16.215  10.927
39421W        W11846   9.113  25.215  13.570
39422W        W11847  30.656  32.495   0.855
39423W        W11848  14.225   9.213   4.153
39424W        W11849  19.346  27.378  12.135
39425W        W11850   9.307  10.638  11.144
39426W        W11851   8.833   6.913   1.459
39427W        W11852   1.165  11.742   5.078
39428W        W11853  44.690  23.062  14.446
39429W        W11854  31.493  40.904   4.589
39430W        W11855  27.996  19.218  11.379
39431W        W11856   2.677  31.624  10.849
39432W        W11857  17.150  11.271   1.222
39433W        W11858   3.453  39.019  13.101
39434W        W11859  37.858   8.260  11.602
39435W        W11860  43.758  18.227   4.680
39436W        W11861  20.381  42.947  10.672
39437W        W11862   8.799  39.876  10.387
39438W        W11863  43.278  38.987   1.070
39439W        W11864  18.524  29.215   4.274
39440W        W11865  31.715  28.680  12.560
39441W        W11866  38.842  38.468   4.124
39442W        W11867  26.957  12.859   2.266
39443W        W11868  28.976  25.292   4.299
39444W        W11869  17.571  11.220  10.936
39445W        W11870  16.598  26.655   3.779
39446W        W11871  42.857   5.223   3.694
39447W        W11872  25.520  32.957  10.633
39448W        W11873  44.437   1.081   1.804
39449W        W11874  10.924  16.802   0.871
39450W        W11875  24.227  42.412  12.877
39451W        W11876  21.652  41.566  14.797
39452W        W11877   2.749   5.893  12.564
39453W        W11878  10.806  11.794   0.047
39454W        W11879  39.825  13.373   3.718
39455W        W11880   6.397  42.844  11.614
39456W        W11881  37.402  35.397  14.053
39457W        W11882  42.377  41.019   0.828
39458W        W11883  26.649  11.176   2.339
39459W        W11884  32.513   0.797  10.636
39460W        W11885  37.117   9.947   4.577
39461W        W11886  26.038  27.475   4.391
39462W        W11887  13.005  36.087  11.043
39463W        W11888   7.483  13.279   3.313
39464W        W11889  16.618  11.715   5.136
39465W        W11890  13.557   5.265  10.980
39466W        W11891   8.607  22.939  14.925
39467W        W11892   1.863  20.774  11.197
39468W        W11893  19.296  41.370   3.272
39469W        W11894  37.535  43.284   0.801
39470W        W11895  30.511  28.046   5.182
39471W        W11896   4.827  28.995   2.901
39472W        W11897  41.548  44.357  12.499
39473W        W11898  28.061  10.633   3.413
39474W        W11899  15.518   0.476  10.872
39475W        W11900  25.968  19.275  13.487
39476W        W11901   3.377  12.291   1.950
39477W        W11902  25.945   1.365   3.439
39478W        W11903  42.975  24.603  14.533
39479W        W11904  24.571  37.365   0.213
39480W        W11905  29.046  19.383   4.483
39481W        W11906  18.463  40.581   0.804
39482W        W11907  27.022  13.460  14.594
39483W        W11908  10.450  12.101   2.440
39484W        W11909  43.101  39.341   2.426
39485W        W11910  36.261  13.246  14.288
39486W        W11911  42.897  34.655   0.046
39487W        W11912  35.560  25.488   0.349
39488W        W11913  26.518   3.498   3.327
39489W        W11914  12.174  11.215  10.976
39490W        W11915  40.934  24.163  14.217
39491W        W11916  22.988  23.243  12.886
39492W        W11917  16.687  20.484   2.373
39493W        W11918  15.710  12.770   3.656
39494W        W11919   9.650  22.732   0.721
39495W        W11920  39.988  12.583  12.891
39496W        W11921  30.154  31.125  14.317
39497W        W11922  25.958  42.967   1.276
39498W        W11923   3.321   7.189   0.316
39499W        W11924   2.276   3.704  10.919
39500W        W11925  23.895  34.715  11.044
39501W        W11926  24.607  38.207  12.954
39502W        W11927  34.938   0.833   1.152
39503W        W11928  34.825  38.935  10.684
39504W        W11929  30.906  35.928  14.525
39505W        W11930  33.197  22.217   4.690
39506W        W11931   4.463  32.288   1.764
39507W        W11932   2.298  20.090  12.797
39508W        W11933  36.510   3.156  12.483
39509W        W11934  28.675   8.752   3.635
39510W        W11935   6.648  32.973  11.619
39511W        W11936   5.139  23.718  14.562
39512W        W11937  22.007   4.415  13.809
39513W        W11938  41.116  34.166  13.576
39514W        W11939  37.670  24.595  11.170
39515W        W11940   4.305  42.504   0.315
39516W        W11941   6.668  41.352  13.397
39517W        W11942  10.822  17.622   2.607
39518W        W11943  39.246   6.481  11.090
39519W        W11944   3.549  18.547  13.090
39520W        W11945  26.207   5.370   1.935
39521W        W11946  10.430  11.712   4.680
39522W        W11947  37.009  25.454  12.553
39523W        W11948  37.840  18.385  14.944
39524W        W11949   0.615   0.291  11.660
39525W        W11950  41.740  38.965   4.172
39526W        W11951   0.250  17.482   1.809
39527W        W11952  17.987   6.163  13.550
39528W        W11953   8.519  25.747  10.618
39529W        W11954  25.076  44.170   0.108
39530W        W11955  14.336  28.981   3.732
39531W        W11956  42.384  35.086  12.388
39532W        W11957  15.628   5.811  13.457
39533W        W11958  31.648  25.515   3.368
39534W        W11959  27.201  41.597  14.403
39535W        W11960  13.327  30.624  11.604
39536W        W11961  18.127   8.735  13.695
39537W        W11962  14.235   7.727   4.720
39538W        W11963  28.420   5.421   0.320
39539W        W11964  20.044  17.999  13.977
39540W        W11965  42.469  30.179  12.583
39541W        W11966  16.210  28.094  14.884
39542W        W11967   5.662  22.732   4.197
39543W        W11968   6.785  35.651   0.321
39544W        W11969  14.779   6.667  13.759
39545W        W11970  23.261  30.521   0.664
39546W        W11971  27.938  21.179  14.478
39547W        W11972  11.696  38.049  12.936
39548W        W11973  33.555  11.201   1.961
39549W        W11974   0.212  34.492  11.140
39550W        W11975  27.765   8.937   0.439
39551W        W11976  43.065  33.493  13.333
39552W        W11977   1.837  22.812   2.994
39553W        W11978  25.754  20.637  14.526
39554W        W11979  36.636   0.690   0.510
39555W        W11980  42.484   8.846  14.889
39556W        W11981  37.192  14.808  11.194
39557W        W11982  41.473  20.653  13.305
39558W        W11983  19.520   4.196  10.902
39559W        W11984   8.115  19.578   3.584
39560W        W11985  28.617   6.522   2.456
39561W        W11986  32.723  12.761  11.915
39562W        W11987  32.567  44.374  10.987
39563W        W11988  11.281  35.354   1.874
39564W        W11989  15.309  21.992  11.186
39565W        W11990  37.408  41.595  14.578
39566W        W11991  17.880  31.682  11.512
39567W        W11992  32.916  44.971  13.556
39568W        W11993   6.335  37.979  12.455
39569W        W11994  22.664  41.859  10.431
39570W        W11995  24.699   0.909   2.276
39571W        W11996  43.962  11.605   0.773
39572W        W11997  32.833  11.430   0.233
39573W        W11998  14.182  12.344  13.835
39574W        W11999  11.201  18.207   2.345
39575W        W12000  36.847  33.010   5.032
39576W        W12001  20.932   4.790   3.148
39577W        W12002  33.840  33.374  14.581
39578W        W12003  27.198  36.918  11.559
39579W        W12004   9.786   1.541   4.192
39580W        W12005  27.434  36.187  11.691
39581W        W12006  25.076  29.675  11.887
39582W        W12007  42.303  34.893   1.468
39583W        W12008  18.163  25.293  13.713
39584W        W12009   9.127  21.732  11.115
39585W        W12010  38.881  44.537  10.010
39586W        W12011  18.356  44.835  12.164
39587W        W12012  16.105   5.510  10.162
39588W        W12013  31.349   0.393   4.721
39589W        W12014  25.241  26.204  12.568
39590W        W12015  32.869  35.870   1.422
39591W        W12016  37.278   5.705  14.040
39592W        W12017  27.557  27.280  12.930
39593W        W12018  43.881  22.569   3.386
39594W        W12019  39.477  11.662   0.318
39595W        W12020  36.488  25.438   4.975
39596W        W12021  35.413  26.520  14.731
39597W        W12022  32.200   1.236   3.885
39598W        W12023  28.632  13.391   0.814
39599W        W12024   8.916  30.582  14.335
39600W        W12025  17.348  27.422  11.441
39601W        W12026  43.952  14.270   3.565
39602W        W12027  41.536  25.788  14.761
39603W        W12028  32.412  36.522  13.956
39604W        W12029   4.728  40.396   0.733
39605W        W12030  37.045   4.829   4.862
39606W        W12031  26.212  15.732   2.156
39607W        W12032  36.028  25.188  12.072
39608W        W12033  10.214   7.148   0.750
39609W        W12034  15.815  26.221   3.680
39610W        W12035  22.740  36.891   3.238
39611W        W12036   8.429  14.252   4.558
39612W        W12037  31.155  39.136   0.359
39613W        W12038  41.091   3.574   3.860
39614W        W12039  15.610  13.489  13.833
39615W        W12040  42.364  43.592   3.169
39616W        W12041  20.018  38.862   2.073
39617W        W12042   8.439  28.139   4.006
39618W        W12043  26.847  13.196   4.043
39619W        W12044  42.329  19.332   2.675
39620W        W12045  38.967   5.212  10.481
39621W        W12046  13.192  32.561  14.316
39622W        W12047  44.534   3.948  11.513
39623W        W12048  20.170  17.791   2.109
39624W        W12049  34.289  28.142  11.498
39625W        W12050  39.043  27.976   1.382
39626W        W12051  26.445   1.730   3.635
39627W        W12052  16.764   5.726   3.067
39628W        W12053  33.434  18.244   3.280
39629W        W12054  19.840  36.032   4.997
39630W        W12055  36.543  16.165  14.990
39631W        W12056  26.457   1.103  14.657
39632W        W12057  43.489  26.330  10.340
39633W        W12058  15.275  24.597  12.629
39634W        W12059  19.501  20.551  14.139
39635W        W12060  33.616  32.179  11.613
39636W        W12061  14.227   2.446   3.409
39637W        W12062   3.740  42.432   3.621
39638W        W12063   8.179  11.202   1.972
39639W        W12064  30.517  41.388   5.474
39640W        W12065   4.361   3.832  12.517
39641W        W12066  27.638  25.153   2.971
39642W        W12067  27.002  21.219   3.593
39643W        W12068  23.296   0.771  10.657
39644W        W12069  13.335   6.598  14.037
39645W        W12070   5.446  13.706   3.785
39646W        W12071  27.240  12.032   2.591
39647W        W12072   6.875  35.403   4.567
39648W        W12073   7.560   5.079   4.694
39649W        W12074  27.447  27.613   3.476
39650W        W12075  13.587   4.830   1.224
39651W        W12076  12.317   8.631  12.754
39652W        W12077   0.062  32.508   3.239
39653W        W12078  15.273  40.290   2.793
39654W        W12079  24.888   9.749  11.106
39655W        W12080  18.251  44.351   1.716
39656W        W12081   0.746  38.100   4.543
39657W        W12082  37.309   3.665   1.204
39658W        W12083  17.619  23.301   2.711
39659W        W12084   9.200  33.664   1.492
39660W        W12085  34.827   5.912   2.716
39661W        W12086   7.849  39.158  12.404
39662W        W12087  13.759   8.925  14.023
39663W        W12088  26.146  37.988  11.996
39664W        W12089  24.749  12.893  13.902
39665W        W12090  22.470  17.246   4.522
39666W        W12091   0.794  16.140   3.628
39667W        W12092  13.287  22.314   0.952
39668W        W12093   8.562  16.568  13.979
39669W        W12094  41.422  28.328   0.407
39670W        W12095  25.463  29.387   1.744
39671W        W12096   4.681   0.006   0.355
39672W        W12097  24.417  36.799  13.843
39673W        W12098  29.921  28.672  13.446
39674W        W12099  32.389   6.818   0.885
39675W        W12100  42.881  28.421   1.324
39676W        W12101  35.355  39.660   3.020
39677W        W12102  39.982  24.580   2.136
39678W        W12103  12.728  34.433   3.121
39679W        W12104  11.868  22.864   4.299
39680W        W12105  19.612  16.298   3.252
39681W        W12106  14.918  21.294  12.441
39682W        W12107  28.534  25.629  13.733
39683W        W12108  24.635   1.399  12.445
39684W        W12109  33.671  40.313   2.127
39685W        W12110  43.996  20.660  10.677
39686W        W12111  37.898   3.301  14.309
39687W        W12112  14.296  12.807  12.937
39688W        W12113  23.004   4.880   2.295
39689W        W12114  33.912  27.386   0.572
39690W        W12115   0.950  39.461  14.022
39691W        W12116  20.013  43.279   2.287
39692W        W12117   0.227  26.243  12.075
39693W        W12118  32.146  40.544  10.468
39694W        W12119   5.251  30.875   1.908
39695W        W12120  35.056  18.072  14.126
39696W        W12121  20.959   1.468   0.567
39697W        W12122  43.458  39.344   3.539
39698W        W12123   1.817  16.433   3.809
39699W        W12124  28.488  39.977  12.853
39700W        W12125  42.863  39.752   1.430
39701W        W12126  21.592  13.085   1.792
39702W        W12127  29.691  28.656   1.259
39703W        W12128  26.050  42.202  11.383
39704W        W12129  36.130  15.914  13.373
39705W        W12130   8.006  30.659  10.793
39706W        W12131  21.098  12.898  10.501
39707W        W12132   1.215  33.596   0.452
39708W        W12133  23.481  29.617  10.635
39709W        W12134   7.022  38.905   2.948
39710W        W12135  21.199  33.158   3.240
39711W        W12136   0.324  16.596  14.886
39712W        W12137   4.149  10.120   1.677
39713W        W12138  29.386  28.445   0.846
39714W        W12139  17.134  13.472  10.664
39715W        W12140  25.704  31.668   3.576
39716W        W12141  19.584   9.628  14.456
39717W        W12142  15.881  31.118  13.875
39718W        W12143   7.790  23.391   0.336
39719W        W12144  18.732  14.249   2.567
39720W        W12145  21.670  41.579  12.228
39721W        W12146  16.750  41.073   2.300
39722W        W12147  36.675  16.695  13.386
39723W        W12148  17.392  26.189   3.708
39724W        W12149  34.394  14.674  11.422
39725W        W12150  38.972  35.846   4.095
39726W        W12151  18.508   3.215  14.417
39727W        W12152  20.735  12.858   1.604
39728W        W12153  38.440   6.179  14.376
39729W        W12154   1.760   8.952  14.481
39730W        W12155  28.468  42.112  14.408
39731W        W12156  35.006  20.323   0.412
39732W        W12157  15.200   4.676  14.846
39733W        W12158  41.345  10.772  11.170
39734W        W12159  22.889  10.354   4.202
39735W        W12160  26.454   5.723  11.968
39736W        W12161  16.171  39.100   3.744
39737W        W12162  16.966  11.179  11.943
39738W        W12163  36.249   7.457  11.665
39739W        W12164  28.120  17.562  12.429
39740W        W12165   5.808   7.211   1.634
39741W        W12166  17.620  24.485   2.286
39742W        W12167  38.573   6.344   1.679
39743W        W12168  22.673  12.864   0.513
39744W        W12169  28.103  32.503  11.606
39745W        W12170  10.883  22.533   1.677
39746W        W12171  18.717  20.684  10.392
39747W        W12172   1.402  44.574   4.797
39748W        W12173   3.728   9.606  12.448
39749W        W12174  16.239   4.425   3.498
39750W        W12175  33.008  24.056  10.747
39751W        W12176  28.634   9.141  11.729
39752W        W12177  33.478  32.106   2.608
39753W        W12178   1.944  35.940  10.755
39754W        W12179  39.091  41.252   4.154
39755W        W12180  44.095  21.087  11.917
39756W        W12181   5.758   9.112  14.841
39757W        W12182   0.964  22.914  11.194
39758W        W12183  16.776  22.120   1.941
39759W        W12184  27.495  36.854   0.868
39760W        W12185  21.776  43.568   2.812
39761W        W12186  12.072   4.746   1.786
39762W        W12187   7.300  25.654  11.150
39763W        W12188  20.483   8.326   4.072
39764W        W12189  15.632  24.116  10.947
39765W        W12190   9.342  44.576  13.386
39766W        W12191   2.928  12.419  11.972
39767W        W12192  27.164  22.180  13.157
39768W        W12193  25.467  43.947   0.590
39769W        W12194   2.406   1.847   3.279
39770W        W12195  42.641  29.140   2.427
39771W        W12196  13.691   2.988  12.455
39772W        W12197  17.104   7.394  12.431
39773W        W12198  33.104  18.842   5.338
39774W        W12199   7.679   6.239  13.090
39775W        W12200   6.881  11.096  14.411
39776W        W12201  41.387  10.738   0.241
39777W        W12202  26.454  28.046  11.947
39778W        W12203   5.947  20.557   3.971
39779W        W12204  32.582   4.258  13.520
39780W        W12205  19.857  33.628   2.700
39781W        W12206  16.527  20.254   1.430
39782W        W12207  39.113  25.416   3.622
39783W        W12208  21.270  18.617   1.373
39784W        W12209  34.118  23.407  13.116
39785W        W12210  19.089  38.167  11.120
39786W        W12211   9.855  20.459   0.972
39787W        W12212   2.055   4.789   1.129
39788W        W12213  20.330   0.525   1.194
39789W        W12214  23.099  32.812  10.707
39790W        W12215  36.819  26.012   0.211
39791W        W12216   0.283  43.844  11.394
39792W        W12217  17.274  42.293   1.314
39793W        W12218   5.135  32.463  14.784
39794W        W12219  16.487  35.602   2.036
39795W        W12220   6.764   4.934   4.179
39796W        W12221  18.775  26.339  12.614
39797W        W12222  35.488  18.476  13.194
39798W        W12223  20.723  25.531   4.575
39799W        W12224  34.515  12.688  11.601
39800W        W12225  21.461  17.921  14.920
39801W        W12226   8.681  40.349  11.580
39802W        W12227  29.511  12.903  14.019
39803W        W12228  43.357  33.653  11.233
39804W        W12229  35.878   3.892  13.208
39805W        W12230  32.210  16.528  11.225
39806W        W12231  20.345   1.965  11.162
39807W        W12232  11.596   1.686   9.660
39808W        W12233  31.571  39.356  11.834
39809W        W12234  25.730  41.577  12.184
39810W        W12235   6.209  14.319  11.154
39811W        W12236  38.960  34.834   0.309
39812W        W12237  38.418  21.128   1.521
39813W        W12238  39.127  19.791  12.105
39814W        W12239  22.563   6.484   3.129
39815W        W12240  17.591  34.323  14.259
39816W        W12241   2.427  40.083   0.026
39817W        W12242  19.191  28.469   4.153
39818W        W12243   6.677  43.568   1.276
39819W        W12244  22.011  39.319   0.816
39820W        W12245  33.655  31.909   3.452
39821W        W12246  39.357  17.119  13.787
39822W        W12247  33.648   3.635  10.500
39823W        W12248  13.662   7.183  13.237
39824W        W12249  44.887   0.674  11.977
39825W        W12250  19.540  36.229  12.094
39826W        W12251   9.931  25.591  13.092
39827W        W12252  11.296  36.265   1.839
39828W        W12253   1.225  23.429   2.373
39829W        W12254  33.985  43.575  13.164
39830W        W12255  20.627  23.104  14.987
39831W        W12256  29.419   7.671  12.012
39832W        W12257  20.798  11.450  12.981
39833W        W12258   8.061   1.326  13.442
39834W        W12259  34.421  13.381  14.415
39835W        W12260  35.898  12.819   2.378
39836W        W12261   0.340  33.967   0.297
39837W        W12262  39.773   3.114  12.105
39838W        W12263  33.964  24.706   0.575
39839W        W12264  18.165  31.638  11.076
39840W        W12265  33.030  34.819  14.002
39841W        W12266  20.701  20.046   4.148
39842W        W12267   9.613   0.487  13.420
39843W        W12268  19.705  34.147   2.588
39844W        W12269  44.391  44.346  11.116
39845W        W12270   9.637   2.695  11.796
39846W        W12271  22.902   3.072  10.292
39847W        W12272  23.244  21.203  12.978
39848W        W12273  11.834  18.794   5.001
39849W        W12274  40.413  33.046  14.518
39850W        W12275  19.978  31.974   2.830
39851W        W12276  26.575  29.255  12.554
39852W        W12277   6.190   9.900  11.494
39853W        W12278   2.651  41.232   2.986
39854W        W12279  41.462  12.564  10.564
39855W        W12280  23.225  17.682  11.528
39856W        W12281   0.530   2.525  13.303
39857W        W12282  22.146   3.018  12.663
39858W        W12283  25.657  21.500  10.386
39859W        W12284  25.939  24.182   2.634
39860W        W12285  11.337  18.736   2.335
39861W        W12286   6.444  44.787  13.128
39862W        W12287  16.184  19.518   3.507
39863W        W12288  30.956  22.447   3.572
39864W        W12289  23.183   7.630  13.964
39865W        W12290  13.344  39.989  12.082
39866W        W12291  40.227  34.258   0.336
39867W        W12292  11.762   3.880   1.285
39868W        W12293  40.882  23.583   2.482
39869W        W12294  21.935   9.877  10.617
39870W        W12295  25.079  32.719   1.345
39871W        W12296  36.581  23.967  13.472
39872W        W12297   3.398  41.624  12.980
39873W        W12298  39.335  30.808  13.882
39874W        W12299  36.254  37.805   1.433
39875W        W12300   3.941  24.112  14.062
39876W        W12301  34.125  25.091  13.357
39877W        W12302   8.573  20.974  13.911
39878W        W12303  25.026  29.467   1.001
39879W        W12304  15.992  30.966  12.524
39880W        W12305   5.750  43.880   3.183
39881W        W12306  28.004   4.241  14.705
39882W        W12307  30.452  12.712   4.646
39883W        W12308  21.807  16.088   0.307
39884W        W12309  30.022  39.540   0.987
39885W        W12310  36.519  24.958  12.128
39886W        W12311  38.939  10.126  14.873
39887W        W12312   2.940  12.239  14.834
39888W        W12313   0.328  41.603  11.982
39889W        W12314  42.876  32.019  10.679
39890W        W12315  15.849  11.311  13.980
39891W        W12316  23.972   2.733  14.141
39892W        W12317  39.250  29.824   2.798
39893W        W12318   9.981  33.905   1.470
39894W        W12319  34.818  42.221   3.732
39895W        W12320  20.596  11.105  10.520
39896W        W12321  13.760  18.443  11.337
39897W        W12322  25.011  15.210  14.921
39898W        W12323  14.984  31.208   2.243
39899W        W12324   3.906  24.101   3.716
39900W        W12325  31.217  20.983   4.309
39901W        W12326  19.026  19.859  14.556
39902W        W12327  39.881  28.235   3.787
39903W        W12328  35.008   0.549  14.318
39904W        W12329  21.020  31.373  10.817
39905W        W12330  36.289  40.843  14.355
39906W        W12331  32.754  23.518  11.529
39907W        W12332  36.392  22.407   4.473
39908W        W12333  26.972  17.445  11.222
39909W        W12334  23.488   2.837   1.283
39910W        W12335  11.630  13.489   3.717
39911W        W12336  39.096  32.592   0.922
39912W        W12337   7.177  26.739   0.855
39913W        W12338  29.691  41.915  11.258
39914W        W12339  10.729  15.097   1.239
39915W        W12340   2.736  23.728   2.135
39916W        W12341  28.504  32.414  13.391
39917W        W12342  40.815  25.976  11.274
39918W        W12343  34.996  26.988   2.266
39919W        W12344  34.837  38.613  11.475
39920W        W12345   8.724  29.120  11.515
39921W        W12346  32.920   0.747   2.254
39922W        W12347  31.557  34.079  10.427
39923W        W12348  36.812  12.821  11.634
39924W        W12349   9.496  17.786  12.115
39925W        W12350  35.396  27.030   3.356
39926W        W12351  24.484  13.121   3.720
39927W        W12352   7.693  30.044  14.448
39928W        W12353  32.004   0.296   2.220
39929W        W12354   9.259  29.833   0.673
39930W        W12355   1.936  35.334  11.063
39931W        W12356  12.259  33.900  11.148
39932W        W12357  42.585   7.379  11.917
39933W        W12358  30.990  18.592   1.289
39934W        W12359  11.927  32.353  14.007
39935W        W12360   0.801  37.581  13.080
39936W        W12361   0.332  15.818  12.907
39937W        W12362  30.603   0.438   1.232
39938W        W12363  44.837  18.079   1.005
39939W        W12364   8.714  39.345   3.928
39940W        W12365  35.028   5.957  11.594
39941W        W12366  27.177  29.885  11.033
39942W        W12367  11.360  18.275   0.154
39943W        W12368  24.714  30.404  11.690
39944W        W12369   1.443  35.933  10.920
39945W        W12370  30.333  39.509   5.066
39946W        W12371   4.517  29.827   2.889
39947W        W12372  31.333  28.614   0.696
39948W        W12373  23.627  23.661  14.752
39949W        W12374   4.333  34.445  10.646
39950W        W12375   0.295  36.336   2.818
39951W        W12376  18.053  37.908   2.280
39952W        W12377   4.260  19.205  11.882
39953W        W12378  22.242  33.840  11.844
39954W        W12379  39.250  40.692  14.946
39955W        W12380  36.015  35.615   2.793
39956W        W12381  17.080  12.552   2.233
39957W        W12382   2.455  16.260  10.571
39958W        W12383  29.604   9.894  10.736
39959W        W12384  32.041  10.901  12.578
39960W        W12385   6.563  44.243  11.489
39961W        W12386  36.974  12.041  11.399
39962W        W12387   5.624  29.967   1.657
39963W        W12388   6.065  13.606   0.137
39964W        W12389  21.692  32.610   3.679
39965W        W12390  27.597  30.730   2.723
39966W        W12391  30.074  10.811  12.520
39967W        W12392  33.876  37.827   0.745
39968W        W12393  41.501  42.274  10.793
39969W        W12394  37.606  34.317   1.216
39970W        W12395  26.753  41.889  14.427
39971W        W12396  43.027   7.648   1.876
39972W        W12397  23.828  40.190   0.932
39973W        W12398  36.814  23.513  13.363
39974W        W12399  13.206  19.621  13.505
39975W        W12400  42.847  42.375   4.582
39976W        W12401  23.031  15.685   1.671
39977W        W12402  44.342  40.282   3.494
39978W        W12403   0.054  22.600   1.348
39979W        W12404  39.169   6.453   2.835
39980W        W12405  25.685  17.407   3.685
39981W        W12406  38.768  20.415  13.102
39982W        W12407  38.412  23.121   4.304
39983W        W12408   1.907  33.612  10.501
39984W        W12409  20.746   3.951  13.144
39985W        W12410  29.778  30.508  13.934
39986W        W12411  29.177  43.822  13.622
39987W        W12412  42.071   6.596  14.858
39988W        W12413  15.239  11.421  13.383
39989W        W12414  27.064  32.409   2.146
39990W        W12415  20.009   3.448   2.824
39991W        W12416  13.888  11.886  10.647
39992W        W12417  25.412  14.869   2.757
39993W        W12418   2.453  12.281  12.180
39994W        W12419  32.366   5.442  12.888
39995W        W12420  22.530  14.116  10.805
39996W        W12421  17.747  27.875  11.181
39997W        W12422  30.853  20.189  10.807
39998W        W12423  15.761  23.214  14.315
39999W        W12424   5.847  17.478  13.348
40000W        W12425  16.733   0.249   2.169
40001W        W12426  25.594  14.384   2.782
40002W        W12427  42.444  19.349  12.586
40003W        W12428  44.547   2.310   0.889
40004W        W12429  15.917  19.217  12.137
40005W        W12430  17.533  34.052   0.098
40006W        W12431   1.580   4.488  13.453
40007W        W12432  44.593  36.750  14.399
40008W        W12433  43.385   1.177  11.999
40009W        W12434  21.056  19.654   3.123
40010W        W12435  40.434  24.426   2.320
40011W        W12436  18.225  28.503  11.207
40012W        W12437  24.142  35.495  12.654
40013W        W12438  30.513  32.597  14.998
40014W        W12439  29.016   7.823  11.400
40015W        W12440  28.584   6.903   0.776
40016W        W12441  28.607  19.118   3.389
40017W        W12442  10.703   9.225  12.843
40018W        W12443  12.790  18.528   2.470
40019W        W12444   1.715  24.541   3.327
40020W        W12445   3.490  25.579   4.629
40021W        W12446  21.302  16.136   2.030
40022W        W12447  15.504  25.943  10.929
40023W        W12448  30.546  31.187   4.180
40024W        W12449  28.131  29.973  11.981
40025W        W12450  11.306  15.080   2.723
40026W        W12451  24.138   4.525  10.129
40027W        W12452  30.001  15.168  13.417
40028W        W12453  14.586  35.915   3.666
40029W        W12454  39.030  40.843  12.149
40030W        W12455   3.307  10.470  10.726
40031W        W12456  34.117   5.488  10.628
40032W        W12457  41.455  39.410  13.348
40033W        W12458  43.775  13.253  14.963
40034W        W12459   1.368   2.921   4.245
40035W        W12460  28.873  42.019   5.038
40036W        W12461   4.709   1.565   1.859
40037W        W12462  30.181  16.308   3.667
40038W        W12463  15.145  24.441  11.096
40039W        W12464   3.522  13.238   4.491
40040W        W12465  40.708  23.423  10.052
40041W        W12466  14.599  19.523   3.141
40042W        W12467  40.473  31.615   4.396
40043W        W12468  25.759  28.862  11.194
40044W        W12469  30.652  38.402  14.764
40045W        W12470  43.357   8.932   2.391
40046W        W12471  26.569  35.249   0.556
40047W        W12472   2.208  33.568  11.203
40048W        W12473   5.735  27.144  14.024
40049W        W12474  24.648  33.040   3.333
40050W        W12475   8.264  30.091   1.292
40051W        W12476  16.286  19.109   0.829
40052W        W12477  18.097  42.016   1.671
40053W        W12478  28.398   8.194  14.387
40054W        W12479  14.068  13.413  11.518
40055W        W12480  15.562  19.960  11.041
40056W        W12481  42.857   9.666   4.628
40057W        W12482   1.882  28.434  14.387
40058W        W12483  30.422  26.898  14.809
40059W        W12484  34.216   6.917  11.219
40060W        W12485  16.083  36.995  11.364
40061W        W12486  42.005  38.383   2.374
40062W        W12487  31.522  42.137  11.095
40063W        W12488  43.396   7.273   3.084
40064W        W12489  11.399  24.645   3.149
40065W        W12490  42.925  19.787   3.238
40066W        W12491  40.144  25.088  11.929
40067W        W12492  22.246  11.076  11.074
40068W        W12493  26.964  13.630  14.112
40069W        W12494  43.712  43.498  12.102
40070W        W12495   8.339  18.626  10.780
40071W        W12496  27.920   5.448  12.694
40072W        W12497  42.295   0.244  14.348
40073W        W12498  38.213  30.417   0.172
40074W        W12499  30.914   3.984  11.909
40075W        W12500  43.022  13.363  10.680
40076W        W12501  20.311  10.581   0.734
40077W        W12502   8.942   2.855  14.958
40078W        W12503  21.638  16.403   4.212
40079W        W12504  19.505  22.744   2.715
40080W        W12505  29.535   3.722   0.454
40081W        W12506  26.571  15.847   5.007
40082W        W12507  33.562  28.248   1.765
40083W        W12508  20.932  15.178   0.380
40084W        W12509  11.085  20.719  11.975
40085W        W12510  13.956  20.820  12.428
40086W        W12511   3.944   1.625   3.183
40087W        W12512  25.256  33.638   2.604
40088W        W12513   6.366  12.666  13.226
40089W        W12514  40.793  17.666  11.744
40090W        W12515  42.296  30.392  13.785
40091W        W12516  37.056   8.767   1.559
40092W        W12517  25.771  39.314   4.453
40093W        W12518  32.441   3.822   0.777
40094W        W12519  42.039  11.915   4.250
40095W        W12520  18.135  39.743  11.884
40096W        W12521  44.501  11.290   2.721
40097W        W12522   4.348  31.983   2.188
40098W        W12523  26.096  36.872   3.803
40099W        W12524  43.002  34.029   2.754
40100W        W12525  16.591   3.405  12.088
40101W        W12526   2.129  25.556   2.831
40102W        W12527   1.766  35.504   2.599
40103W        W12528   3.805  15.652  11.562
40104W        W12529  34.838   6.878  13.806
40105W        W12530  42.401  41.019  12.380
40106W        W12531  44.421  40.047  10.690
40107W        W12532  25.635   0.157   4.348
40108W        W12533  14.586   0.865  13.767
40109W        W12534  19.632  21.068  14.776
40110W        W12535   0.863  26.090   2.720
40111W        W12536  14.627  34.343  14.310
40112W        W12537  23.474  21.334  14.799
40113W        W12538  10.966   1.257   2.266
40114W        W12539  26.634  39.900   4.653
40115W        W12540  34.102  17.246  11.634
40116W        W12541  11.469   8.417  14.498
40117W        W12542   7.423  20.820  12.433
40118W        W12543  32.175   4.882   0.405
40119W        W12544  29.882  40.320  11.985
40120W        W12545  17.543  32.251   3.326
40121W        W12546  36.606  12.766   1.918
40122W        W12547  28.585  24.187   2.953
40123W        W12548   0.370  32.543   2.219
40124W        W12549  14.685  29.202  11.473
40125W        W12550  27.630  24.449  11.620
40126W        W12551   9.411   4.815   3.744
40127W        W12552  39.903  32.443   3.311
40128W        W12553  37.420  19.009   3.141
40129W        W12554  40.347  12.749   2.309
40130W        W12555  15.214   1.972   3.591
40131W        W12556  37.449  27.460  14.081
40132W        W12557  10.126  20.262  13.132
40133W        W12558  10.714  43.988  13.547
40134W        W12559  16.699  28.707  11.713
40135W        W12560   5.574  34.591  12.177
40136W        W12561  44.754  43.068  13.898
40137W        W12562  21.720  43.569   1.021
40138W        W12563  13.888  34.928   3.689
40139W        W12564  22.082   4.215   4.817
40140W        W12565  25.017  11.166   2.392
40141W        W12566  19.727  25.338  12.942
40142W        W12567  36.454  20.931   4.848
40143W        W12568  19.539   1.325   1.881
40144W        W12569  33.455  35.844   2.299
40145W        W12570  13.882   2.825  11.143
40146W        W12571  19.142  35.159   3.272
40147W        W12572  34.483  38.311   1.791
40148W        W12573  21.957   3.443  11.067
40149W        W12574  33.519  31.666   0.188
40150W        W12575   7.765  41.383   3.813
40151W        W12576  43.491  39.917  10.577
40152W        W12577  17.111  26.348   4.602
40153W        W12578  11.734  19.006  13.102
40154W        W12579  43.975  36.844  10.836
40155W        W12580  43.294  30.615  10.654
40156W        W12581   3.316  27.414  12.938
40157W        W12582  29.965  17.254  11.986
40158W        W12583   0.435   5.947  11.139
40159W        W12584  34.143  33.997   3.113
40160W        W12585  20.764  33.827   4.876
40161W        W12586  15.252  17.597   3.572
40162W        W12587   8.230  10.386   3.430
40163W        W12588  33.843  17.763  12.972
40164W        W12589   2.785  23.727   0.551
40165W        W12590  20.692  19.504   2.413
40166W        W12591   7.280   0.335   2.692
40167W        W12592  27.388  32.065  11.838
40168W        W12593  17.609  41.264   2.265
40169W        W12594  15.811  21.431  13.490
40170W        W12595  26.687  33.241   1.292
40171W        W12596  38.839  19.173  13.928
40172W        W12597  14.680  23.618   2.625
40173W        W12598  42.996  37.314   1.808
40174W        W12599  43.207  43.455   3.885
40175W        W12600  33.617   6.659   1.903
40176W        W12601   3.282  32.435  14.892
40177W        W12602  42.456  33.069   3.487
40178W        W12603   2.250   0.871   4.596
40179W        W12604  26.601  40.489   4.595
40180W        W12605  10.968  33.103   0.199
40181W        W12606  14.329  24.028  13.375
40182W        W12607  15.338  30.501  10.808
40183W        W12608  17.114  43.558   2.676
40184W        W12609  12.547  36.304  14.987
40185W        W12610  32.410  22.359  14.967
40186W        W12611  41.962  33.077  10.725
40187W        W12612  36.472  36.422   3.646
40188W        W12613   7.146  35.623  14.929
40189W        W12614  32.795   1.192  12.687
40190W        W12615   6.386  15.362   4.577
40191W        W12616  36.386  25.967   4.612
40192W        W12617  38.602  29.070   4.914
40193W        W12618  29.530  21.957  10.655
40194W        W12619  30.965  21.153  11.681
40195W        W12620  42.729  16.884   2.627
40196W        W12621  10.912   8.763   3.664
40197W        W12622   2.975  35.868   3.138
40198W        W12623   1.761  44.381   3.142
40199W        W12624  39.476   2.184  11.209
40200W        W12625  15.845  29.305  10.682
40201W        W12626  38.952  35.863   0.396
40202W        W12627  29.537  26.113  12.343
40203W        W12628  35.622  17.823   3.144
40204W        W12629  31.515   3.726  14.271
40205W        W12630  11.084  10.554   0.025
40206W        W12631  11.208  41.899  14.350
40207W        W12632  40.615   8.961   3.655
40208W        W12633  14.887  34.467   3.253
40209W        W12634  20.358  13.742  11.961
40210W        W12635  37.784  23.554   1.435
40211W        W12636  31.862  14.940  12.980
40212W        W12637  25.095  35.524   3.564
40213W        W12638  11.327  10.238  13.771
40214W        W12639  10.237  43.114  11.980
40215W        W12640  18.565  29.163   0.791
40216W        W12641  21.686  20.602  11.921
40217W        W12642  41.632   3.353  10.081
40218W        W12643  12.817  37.357   4.092
40219W        W12644   7.201  33.722  14.286
40220W        W12645  41.350  37.097  13.917
40221W        W12646  40.874  19.369  11.054
40222W        W12647  34.133  38.287   4.048
40223W        W12648   8.165  40.051  10.899
40224W        W12649  31.811  44.944   4.201
40225W        W12650  22.266  29.583  14.892
40226W        W12651  17.564  22.825   2.907
40227W        W12652  36.905  13.088  10.563
40228W        W12653  31.987  20.674  13.119
40229W        W12654  44.701  17.337   1.467
40230W        W12655   9.190  40.964   4.983
40231W        W12656  32.842  21.499   3.183
40232W        W12657  38.075   5.523  13.281
40233W        W12658  43.689  29.582  11.551
40234W        W12659  38.470  44.067  12.047
40235W        W12660  29.035  31.316  12.954
40236W        W12661  39.081  34.347   1.832
40237W        W12662  20.472  25.680  11.577
40238W        W12663   8.749  17.674  11.113
40239W        W12664  35.103  24.913  10.953
40240W        W12665   5.388  31.555  12.937
40241W        W12666  17.375  14.195   2.302
40242W        W12667   0.487  14.686   0.916
40243W        W12668   8.646  37.824   0.374
40244W        W12669  37.109  16.044  13.165
40245W        W12670   1.489   1.293  13.178
40246W        W12671  39.583  12.048   4.607
40247W        W12672   8.757   2.744  14.471
40248W        W12673  28.909  25.706   3.834
40249W        W12674  12.609  38.797  14.781
40250W        W12675  38.959  10.844  10.664
40251W        W12676  34.041  42.381   2.086
40252W        W12677  14.261   5.204   2.815
40253W        W12678  14.109  14.555  12.072
40254W        W12679   4.232  24.733   1.844
40255W        W12680  42.789  43.448   4.224
40256W        W12681  21.671  13.906   1.965
40257W        W12682  10.343   0.986  13.635
40258W        W12683  19.798  35.769   0.856
40259W        W12684  41.418  34.967   1.478
40260W        W12685  44.437  43.509  11.669
40261W        W12686  38.105  31.396   0.001
40262W        W12687  43.899  29.069   3.758
40263W        W12688   2.825  19.077   3.112
40264W        W12689  17.216   1.095   1.405
40265W        W12690  39.191  32.132  11.838
40266W        W12691  24.781  11.103   0.907
40267W        W12692  36.134  11.510  11.152
40268W        W12693  42.433  12.175   0.492
40269W        W12694  37.823  13.860   0.779
40270W        W12695  26.006  12.669   4.439
40271W        W12696   6.456  27.026   1.797
40272W        W12697  32.541   0.376   0.882
40273W        W12698  43.295  12.785   2.802
40274W        W12699  39.920  31.016   3.889
40275W        W12700  40.337  33.374   0.032
40276W        W12701  30.574  37.132   0.184
40277W        W12702   2.804  12.991   3.641
40278W        W12703  10.171   1.222  14.739
40279W        W12704   9.614   4.161  12.433
40280W        W12705  20.221   5.318   2.887
40281W        W12706  40.707  21.204  12.875
40282W        W12707   1.418  40.946   4.528
40283W        W12708   8.177  26.093  12.930
40284W        W12709  24.698  22.032   2.388
40285W        W12710  13.620  21.944  13.913
40286W        W12711  15.320  19.736  12.202
40287W        W12712  43.624  33.653   5.242
40288W        W12713  12.109  19.792  11.592
40289W        W12714  26.917  27.137   2.470
40290W        W12715  20.712  21.158  11.138
40291W        W12716  37.881   1.961  11.605
40292W        W12717  29.953  26.149  13.555
40293W        W12718   6.508  35.357  14.194
40294W        W12719  20.807   5.485   2.719
40295W        W12720   2.720  15.945  11.951
40296W        W12721   0.727  39.876   1.331
40297W        W12722  18.267  43.529   1.934
40298W        W12723  32.385  44.334   4.521
40299W        W12724  13.083  28.171  14.352
40300W        W12725  25.100  43.828  13.396
40301W        W12726   3.871   8.924   3.294
40302W        W12727  15.766  41.475  12.478
40303W        W12728  23.531  22.633  12.406
40304W        W12729  37.479  41.065  12.586
40305W        W12730   5.683  38.947   0.036
40306W        W12731  39.550  26.765   4.078
40307W        W12732  33.798   5.406  10.228
40308W        W12733  30.321   7.453  12.077
40309W        W12734  21.603  23.756  11.755
40310W        W12735  29.884  38.868  12.510
40311W        W12736  26.513  30.465  13.438
40312W        W12737  29.837  32.443  11.072
40313W        W12738  19.266  33.160  14.564
40314W        W12739  30.351  21.685  14.169
40315W        W12740  43.897  14.029   1.962
40316W        W12741  29.160   7.179   4.169
40317W        W12742   8.327  30.555  13.154
40318W        W12743  33.132  16.257  11.209
40319W        W12744  37.066  18.890  10.582
40320W        W12745  39.550  24.305  11.102
40321W        W12746  33.125  43.010   1.472
40322W        W12747   3.337  21.340  14.059
40323W        W12748   6.462  21.743  10.171
40324W        W12749  17.293  13.307  14.347
40325W        W12750  36.809  14.062  11.517
40326W        W12751  22.471   4.861  11.355
40327W        W12752  27.186  26.646  13.945
40328W        W12753  31.719  21.234   1.632
40329W        W12754  16.328  19.227   2.213
40330W        W12755  25.261  42.738   5.116
40331W        W12756  34.433   5.286   4.785
40332W        W12757  28.988  44.771   3.775
40333W        W12758  18.595   1.251   1.738
40334W        W12759  37.459  24.251  11.526
40335W        W12760  16.487  17.576   1.011
40336W        W12761  31.123  36.563   2.277
40337W        W12762   9.674  18.585   0.036
40338W        W12763  35.854  20.743   3.160
40339W        W12764   3.876  36.639   2.745
40340W        W12765  34.583  41.739   1.686
40341W        W12766  38.893   4.751   1.214
40342W        W12767   9.688  31.155  14.471
40343W        W12768  15.325  25.698  13.794
40344W        W12769  32.171   8.811  14.380
40345W        W12770  12.419  18.647  13.966
40346W        W12771  19.354  41.663  13.724
40347W        W12772  42.628   1.324  11.505
40348W        W12773  33.506   9.444   5.206
40349W        W12774  18.077  31.054   2.360
40350W        W12775  12.583  28.938   1.784
40351W        W12776  25.228  43.857  14.237
40352W        W12777   6.041  23.399   1.449
40353W        W12778  10.636   3.346   2.587
40354W        W12779  43.282  14.233  11.117
40355W        W12780   7.091  14.811  11.119
40356W        W12781  40.631  18.580   3.749
40357W        W12782  12.554  19.695   3.114
40358W        W12783  30.937  11.357   4.093
40359W        W12784   1.839  38.351   1.051
40360W        W12785  35.415  32.160   1.249
40361W        W12786  24.006  42.529   4.687
40362W        W12787  14.322  43.293  11.957
40363W        W12788  26.186   3.176   1.172
40364W        W12789  34.678  31.094   1.842
40365W        W12790  13.592   8.719   4.572
40366W        W12791  36.706  28.256   4.929
40367W        W12792  18.760   7.560   0.728
40368W        W12793  38.935  29.893  13.647
40369W        W12794  11.751  34.653   2.633
40370W        W12795  16.773  41.293  14.445
40371W        W12796   1.168   0.336   4.126
40372W        W12797  42.748  31.158   2.809
40373W        W12798  23.192  21.543   1.660
40374W        W12799  11.942  36.427  12.682
40375W        W12800   9.859  13.289  14.589
40376W        W12801   2.195   3.450   4.153
40377W        W12802   5.645  41.829  11.162
40378W        W12803  35.470  34.479   3.379
40379W        W12804  44.293   5.178  13.372
40380W        W12805  10.844  24.869   2.313
40381W        W12806   6.779  17.578  11.157
40382W        W12807  15.481  12.773   2.668
40383W        W12808  36.443  19.952  12.901
40384W        W12809  20.253   9.702   0.902
40385W        W12810  25.677   8.741   0.397
40386W        W12811   1.846   2.296   1.744
40387W        W12812   4.429  27.506  13.418
40388W        W12813   5.436  22.996   2.269
40389W        W12814  36.810  43.779   1.911
40390W        W12815  14.329  33.563  12.401
40391W        W12816  29.543   3.945   0.974
40392W        W12817  21.586  23.713   4.609
40393W        W12818  15.800  13.386   2.860
40394W        W12819   9.606  33.534   3.867
40395W        W12820   8.286  17.809  14.005
40396W        W12821  37.114  42.586  11.134
40397W        W12822  41.851  41.770   3.350
40398W        W12823  43.597  18.535   2.963
40399W        W12824  14.948  23.976  10.217
40400W        W12825  31.043  26.532  11.296
40401W        W12826  31.863  16.486  14.140
40402W        W12827   8.141  22.992   3.601
40403W        W12828  19.682  35.305  14.938
40404W        W12829  15.927  26.963  11.553
40405W        W12830  42.374  14.978   4.390
40406W        W12831  26.862   3.627  14.448
40407W        W12832   3.448  25.259  12.570
40408W        W12833   2.925   1.923   2.420
40409W        W12834  25.524  20.040   1.373
40410W        W12835  36.546  24.426  12.106
40411W        W12836  26.469  26.406  11.525
40412W        W12837  19.190   4.792  13.385
40413W        W12838  28.178  38.411  10.628
40414W        W12839  11.150   8.285   1.413
40415W        W12840   6.445  28.890  12.076
40416W        W12841   4.602  14.821  11.563
40417W        W12842  33.148  38.738   1.605
40418W        W12843  44.571  15.636   3.352
40419W        W12844  39.293  40.842   0.821
40420W        W12845  32.083  42.214  11.216
40421W        W12846  26.665   0.777   1.345
40422W        W12847  41.895  26.650  14.004
40423W        W12848  43.752  36.551  11.653
40424W        W12849  22.351  31.631  10.582
40425W        W12850   2.060  35.334  11.555
40426W        W12851   3.910  38.026   1.338
40427W        W12852  19.724  35.449  12.727
40428W        W12853  37.815   9.292  10.553
40429W        W12854   1.482  39.517  14.037
40430W        W12855  12.829  31.899  14.714
40431W        W12856   6.295  41.981  12.513
40432W        W12857  24.806  42.476   2.289
40433W        W12858   3.249  43.411   0.744
40434W        W12859  43.207  29.034  14.314
40435W        W12860  13.635  28.388   0.191
40436W        W12861  44.523  40.489   4.486
40437W        W12862  42.431  21.148  13.360
40438W        W12863   8.122   2.387   0.449
40439W        W12864   4.880  27.499  14.380
40440W        W12865   3.202  25.974  11.835
40441W        W12866  12.126   5.593   1.275
40442W        W12867  40.997   3.896  10.736
40443W        W12868  43.023   1.044  12.402
40444W        W12869  26.175  42.264  13.058
40445W        W12870   1.729   8.135   2.156
40446W        W12871  26.008   5.763   1.274
40447W        W12872  16.645  18.152  14.366
40448W        W12873  15.317  43.233  10.715
40449W        W12874   9.727   1.244   0.519
40450W        W12875  23.554  14.839  14.687
40451W        W12876  25.354  28.082   1.843
40452W        W12877  41.916  16.257   2.184
40453W        W12878   1.757  39.588   2.229
40454W        W12879  35.033   0.797   2.725
40455W        W12880   8.737   9.749   2.967
40456W        W12881  25.559  39.779   4.591
40457W        W12882   3.487  28.947  14.827
40458W        W12883  41.157  34.447   4.629
40459W        W12884  19.812  16.097  14.580
40460W        W12885  12.081   5.689   0.761
40461W        W12886  40.365  15.035   0.596
40462W        W12887  21.053  14.739   2.144
40463W        W12888  32.361  33.371  12.923
40464W        W12889  28.668   7.517  13.581
40465W        W12890  33.363   9.435   1.726
40466W        W12891   2.286  14.792  11.537
40467W        W12892  17.367   9.080  14.450
40468W        W12893   4.463  27.171   0.869
40469W        W12894  44.475  12.835  11.975
40470W        W12895  32.208  14.871   3.240
40471W        W12896   4.815  15.061   4.314
40472W        W12897  29.634  17.653  14.701
40473W        W12898   5.238  13.692  13.477
40474W        W12899  16.158  43.754   4.123
40475W        W12900  42.033   3.409  12.485
40476W        W12901  18.204   0.251  10.500
40477W        W12902  17.037  26.479  11.097
40478W        W12903   4.772  10.229   1.876
40479W        W12904  23.061  27.930  13.843
40480W        W12905  31.023  16.518   3.166
40481W        W12906   8.762  39.398   0.321
40482W        W12907  31.885  10.521  11.208
40483W        W12908  35.558  43.321  13.399
40484W        W12909   9.166  24.691  12.504
40485W        W12910  39.228  30.349  11.568
40486W        W12911   5.712   4.257   1.781
40487W        W12912  42.880  17.218  12.089
40488W        W12913  41.240  15.875   3.630
40489W        W12914   9.894  33.988   1.960
40490W        W12915   7.820   3.753  12.883
40491W        W12916  11.898  18.543  13.958
40492W        W12917  40.125  40.807   1.336
40493W        W12918  36.822   6.230  13.442
40494W        W12919  34.191  11.214   4.132
40495W        W12920  42.438  31.839  14.272
40496W        W12921  41.724   3.933  14.675
40497W        W12922   6.021  16.513  11.113
40498W        W12923  40.950   6.826   0.912
40499W        W12924  21.594   9.731  10.229
40500W        W12925  38.819  33.394   1.447
40501W        W12926   4.914  10.000  14.484
40502W        W12927  36.326  22.947   1.265
40503W        W12928  13.944  39.081   0.290
40504W        W12929  41.839  20.391  12.016
40505W        W12930   5.932   9.367   1.630
40506W        W12931  39.500  35.430   3.631
40507W        W12932  21.775  10.888  14.440
40508W        W12933  14.711  31.849   3.161
40509W        W12934  43.360  29.064   4.592
40510W        W12935  17.831  37.101   1.832
40511W        W12936  34.627  23.055  14.370
40512W        W12937  29.921  37.609   0.322
40513W        W12938  38.689  31.365   0.181
40514W        W12939   5.421  32.890  11.147
40515W        W12940  23.653  24.302   1.470
40516W        W12941   8.928  24.945   2.191
40517W        W12942  26.656   9.179   4.542
40518W        W12943  42.177  42.806   2.700
40519W        W12944  17.342  35.797  10.447
40520W        W12945  31.420   2.719  14.729
40521W        W12946  12.083  21.240   0.314
40522W        W12947  13.876  34.026  10.447
40523W        W12948  11.091   2.188   0.897
40524W        W12949   8.134  32.012  13.446
40525W        W12950   1.852  26.970  12.038
40526W        W12951  33.362  15.511  13.409
40527W        W12952  36.393  40.391   2.783
40528W        W12953  21.544  31.411   4.523
40529W        W12954  17.725  29.387  14.306
40530W        W12955  31.192  13.088  13.369
40531W        W12956  17.194  36.011  12.636
40532W        W12957  27.329  15.785   3.693
40533W        W12958  42.593  19.588   4.461
40534W        W12959  21.098   9.648  10.367
40535W        W12960  39.923  25.096  12.851
40536W        W12961  24.459  26.024   3.423
40537W        W12962  40.843  17.397  10.761
40538W        W12963  14.757  23.812  10.862
40539W        W12964  10.333  38.621  10.877
40540W        W12965  30.354  40.063  11.598
40541W        W12966   5.212  20.975   4.030
40542W        W12967  33.563  42.555   5.023
40543W        W12968  42.375  22.490  12.426
40544W        W12969  18.452  27.009  12.222
40545W        W12970  38.036  24.694  10.779
40546W        W12971  16.341  28.917  11.255
40547W        W12972   2.950  41.592   0.014
40548W        W12973   5.997  39.586   1.194
40549W        W12974  42.867  33.972  12.529
40550W        W12975  18.548  34.124   1.095
40551W        W12976   7.924  38.025   1.050
40552W        W12977  38.299  24.299  12.810
40553W        W12978   6.815  15.642   3.768
40554W        W12979  11.783  34.057   1.937
40555W        W12980  43.677  41.975   3.183
40556W        W12981  40.439  17.981   0.471
40557W        W12982  12.363   9.384  11.126
40558W        W12983  22.559  13.449   0.716
40559W        W12984  32.821  25.976   1.817
40560W        W12985  24.515  22.272  14.046
40561W        W12986  43.445  38.286   2.364
40562W        W12987  25.635  18.901   3.699
40563W        W12988  13.482  34.632   3.419
40564W        W12989   6.818  13.173  14.520
40565W        W12990  41.496  13.166   0.308
40566W        W12991   1.517  42.309  14.378
40567W        W12992  25.001   8.111  11.601
40568W        W12993  20.971  28.805  10.700
40569W        W12994  31.778  17.598  14.366
40570W        W12995   9.418  44.480  11.397
40571W        W12996  16.124  42.007   3.209
40572W        W12997  43.882  12.485   3.743
40573W        W12998  17.287  38.424   1.395
40574W        W12999   2.287   0.440   0.478
40575W        W13000  33.594  44.216  11.672
40576W        W13001  21.075   2.283  11.117
40577W        W13002  11.206  18.240   3.718
40578W        W13003  40.028   0.819  11.058
40579W        W13004  13.205  18.105   5.040
40580W        W13005  14.791  42.575   0.325
40581W        W13006   1.825  35.808  11.231
40582W        W13007  14.574  40.874  11.455
40583W        W13008   2.976  37.025  13.037
40584W        W13009  26.920  17.750   4.640
40585W        W13010  29.858  29.015   1.618
40586W        W13011  11.760   9.332  14.090
40587W        W13012   4.977  10.135  10.297
40588W        W13013  15.116  35.408  13.590
40589W        W13014  30.386  15.203   4.528
40590W        W13015  39.933   7.018   4.626
40591W        W13016  38.808  44.349   0.892
40592W        W13017  26.735  36.478  12.883
40593W        W13018   3.024   8.818   0.247
40594W        W13019  38.981  12.407  13.358
40595W        W13020   5.969  16.034   1.454
40596W        W13021  18.501  17.699   1.367
40597W        W13022  14.034  37.317  11.204
40598W        W13023  42.366  17.327  12.639
40599W        W13024   6.634  27.308  11.104
40600W        W13025   3.974  20.988  14.217
40601W        W13026   8.609  30.451   2.447
40602W        W13027  38.967  28.082   3.872
40603W        W13028  36.070  25.519  13.426
40604W        W13029   7.552  30.834   3.447
40605W        W13030  28.546  33.081  12.841
40606W        W13031  22.989  33.150  13.964
40607W        W13032  23.626  24.560  11.270
40608W        W13033  38.989   1.995   0.518
40609W        W13034  22.222   3.986   0.650
40610W        W13035  31.690  12.851  12.065
40611W        W13036  17.363  35.093  13.931
40612W        W13037  31.055  12.406  14.911
40613W        W13038  12.615  38.579  11.163
40614W        W13039  23.274  24.530   3.556
40615W        W13040  27.159  38.814  11.202
40616W        W13041  25.085   4.780  13.476
40617W        W13042  17.457  43.426   3.174
40618W        W13043  20.815  12.371   1.850
40619W        W13044  10.353  32.078   1.669
40620W        W13045  10.395  30.952  12.626
40621W        W13046  32.547  14.746   4.261
40622W        W13047   6.830  36.398  11.805
40623W        W13048  32.460  39.315  14.310
40624W        W13049  41.998  21.255  13.085
40625W        W13050  10.719  13.877  13.864
40626W        W13051  13.237   5.353  12.421
40627W        W13052   2.921  24.915  14.763
40628W        W13053  11.436  31.553   2.438
40629W        W13054  39.539   1.414  12.560
40630W        W13055   4.632  21.879   4.081
40631W        W13056  31.087  19.095   1.311
40632W        W13057  43.118  16.696   2.943
40633W        W13058   6.348  26.234   0.776
40634W        W13059  30.929  17.595  13.940
40635W        W13060  22.419  10.155  13.468
40636W        W13061  17.785  43.482   1.719
40637W        W13062  42.806  22.863  13.872
40638W        W13063   4.084  30.494  12.501
40639W        W13064   3.483  28.007  13.368
40640W        W13065   0.267  32.529   4.994
40641W        W13066  27.034  18.262   3.713
40642W        W13067  11.590  34.395   0.806
40643W        W13068  23.811  15.813   4.669
40644W        W13069   8.112  20.724  10.397
40645W        W13070  11.935  22.408   4.058
40646W        W13071  38.806  27.928  11.631
40647W        W13072  23.214  44.287  12.718
40648W        W13073   2.730   2.643   1.658
40649W        W13074  34.886  24.569   0.450
40650W        W13075  40.594   6.639  14.051
40651W        W13076  33.074   2.137   2.938
40652W        W13077  12.837  13.856   1.597
40653W        W13078  25.298   0.012  11.516
40654W        W13079   7.827  43.102   2.273
40655W        W13080  43.429  23.288   0.980
40656W        W13081  29.967  20.266  12.185
40657W        W13082   4.701  37.958  13.941
40658W        W13083  38.860  37.582   4.161
40659W        W13084   6.493  35.913  13.347
40660W        W13085  19.672  40.350   1.977
40661W        W13086   1.875  14.165   4.516
40662W        W13087  33.639   8.739  14.477
40663W        W13088  22.981  33.305   2.698
40664W        W13089  32.080  12.841   4.039
40665W        W13090  29.609   7.141   3.355
40666W        W13091  41.043   8.667   4.262
40667W        W13092  12.770   9.720   4.480
40668W        W13093   4.690  27.142  12.366
40669W        W13094  39.846  18.744   0.511
40670W        W13095  14.557  43.501   1.385
40671W        W13096  12.564  20.092  13.463
40672W        W13097   8.518  30.651  10.801
40673W        W13098  16.162   5.168   4.136
40674W        W13099  35.288  17.812   4.475
40675W        W13100  17.619  30.484   1.796
40676W        W13101   1.635   7.549  11.182
40677W        W13102  23.784   2.068  11.144
40678W        W13103  20.555  24.187   3.890
40679W        W13104  39.888  10.645  11.175
40680W        W13105  17.559  40.369   4.093
40681W        W13106   0.471   4.429   2.361
40682W        W13107  40.919  37.876   3.743
40683W        W13108  42.903  13.161  11.566
40684W        W13109  14.733  22.630   2.772
40685W        W13110  33.523  25.485   3.704
40686W        W13111  18.625   4.852  13.349
40687W        W13112  19.349  18.704   1.376
40688W        W13113  27.206  19.683  13.805
40689W        W13114  16.570   7.414   3.358
40690W        W13115  31.989  25.313   0.905
40691W        W13116  43.351  25.189  13.574
40692W        W13117  30.994   3.831   3.376
40693W        W13118  41.986  33.433  11.146
40694W        W13119  32.145   0.445   1.219
40695W        W13120  42.538  23.011   2.044
40696W        W13121   6.230  25.006  11.123
40697W        W13122  37.389  26.525   0.710
40698W        W13123   9.606  35.459  11.131
40699W        W13124  44.724   6.650  12.525
40700W        W13125  18.859  11.946   4.108
40701W        W13126  21.570  10.649  10.365
40702W        W13127  12.824  10.300  10.229
40703W        W13128  17.538  25.691  11.025
40704W        W13129  11.715  23.577  10.605
40705W        W13130  29.975  33.879   1.741
40706W        W13131  36.413  32.079   3.085
40707W        W13132  12.056  44.850  12.089
40708W        W13133   6.913  27.270  13.346
40709W        W13134  44.343  12.906   0.844
40710W        W13135  18.112  12.856  14.457
40711W        W13136  18.103  29.075  14.955
40712W        W13137   7.208  24.330   4.117
40713W        W13138  37.562  32.113   2.680
40714W        W13139   5.026  32.202  12.275
40715W        W13140  38.168   3.701   0.798
40716W        W13141  36.012  24.074  11.307
40717W        W13142  26.465  31.594   2.555
40718W        W13143  11.855  20.586  12.406
40719W        W13144  18.791  41.278  11.609
40720W        W13145  28.213  11.172   4.566
40721W        W13146  36.097  32.678  12.548
40722W        W13147   0.735  21.534   2.435
40723W        W13148  13.233  38.970   1.704
40724W        W13149  34.256  25.953   3.038
40725W        W13150   3.994  22.627   4.050
40726W        W13151  11.222  17.857  10.950
40727W        W13152  18.799   7.864  14.744
40728W        W13153   6.309  28.649  12.520
40729W        W13154  28.082   0.360  13.061
40730W        W13155  35.023  26.212  14.513
40731W        W13156  23.093  40.429  13.552
40732W        W13157  31.664  29.887  12.990
40733W        W13158   4.402  38.932  12.372
40734W        W13159  42.428  23.107  13.615
40735W        W13160  39.292  24.812   4.189
40736W        W13161  17.298  10.739  10.008
40737W        W13162  20.193   9.159   0.345
40738W        W13163  26.481  21.232   1.756
40739W        W13164  23.644  28.121  10.523
40740W        W13165  21.985  19.856   2.160
40741W        W13166  16.399   5.826   2.697
40742W        W13167  41.760  34.037   1.194
40743W        W13168  28.406  41.363   1.917
40744W        W13169   2.200  42.322   3.744
40745W        W13170  42.809  13.680   4.778
40746W        W13171  11.563   6.065   1.807
40747W        W13172  36.457   7.689   0.265
40748W        W13173  23.111  32.393   4.137
40749W        W13174  29.060  16.805  13.870
40750W        W13175   8.014  17.204  12.530
40751W        W13176  44.871   0.051   3.305
40752W        W13177  11.242  33.038   1.929
40753W        W13178  37.692  33.091  10.489
40754W        W13179  12.611  30.915  14.691
40755W        W13180  23.060  30.709  12.798
40756W        W13181  22.114  16.081   1.466
40757W        W13182  17.271  38.130   1.871
40758W        W13183  35.160  17.879   0.182
40759W        W13184  16.721  14.898   2.706
40760W        W13185   7.105   1.448   0.968
40761W        W13186  19.081  42.131   1.897
40762W        W13187  32.040   2.752   0.982
40763W        W13188   1.268   3.251   0.453
40764W        W13189  26.034   3.627  10.504
40765W        W13190   5.390  35.381   2.902
40766W        W13191  24.600  17.308  11.409
40767W        W13192   5.902  24.666  13.518
40768W        W13193  30.414   3.228  13.068
40769W        W13194   9.437   7.805  12.046
40770W        W13195  26.576  34.942  10.366
40771W        W13196   7.162  38.052   0.365
40772W        W13197  29.661  33.518   2.239
40773W        W13198  44.916  21.947  11.957
40774W        W13199  18.616  29.606  14.372
40775W        W13200  29.059   3.452  11.997
40776W        W13201  40.886  13.351  11.645
40777W        W13202  42.869  30.920  12.567
40778W        W13203  28.643  32.896   1.192
40779W        W13204  34.352  10.464  14.742
40780W        W13205  23.201  28.595   1.800
40781W        W13206  27.634  39.913  12.069
40782W        W13207  40.573  24.579   0.028
40783W        W13208  43.405  33.031  10.645
40784W        W13209   3.382  22.286  13.804
40785W        W13210   1.528  33.683  14.109
40786W        W13211   7.774  10.882   3.606
40787W        W13212  18.179  31.903   4.203
40788W        W13213   8.469  38.810  12.992
40789W        W13214   9.949  26.885   2.910
40790W        W13215  11.648  35.953   4.044
40791W        W13216  24.016  36.502   2.325
40792W        W13217   9.320   8.354   1.868
40793W        W13218  32.427  17.244   0.481
40794W        W13219   7.744  13.739   3.229
40795W        W13220  27.690  10.060  12.885
40796W        W13221  41.746  18.732   3.796
40797W        W13222  14.431   5.162   3.704
40798W        W13223  42.279  37.489  13.785
40799W        W13224   7.018  33.036  13.794
40800W        W13225  24.186  38.504  12.185
40801W        W13226   8.534  35.301   2.175
40802W        W13227  42.694  23.552   4.045
40803W        W13228  44.791   7.359  13.590
40804W        W13229  38.088  15.393  12.057
40805W        W13230   3.686  14.681  13.466
40806W        W13231  13.081  40.856  13.533
40807W        W13232  29.491  40.460   1.761
40808W        W13233  39.038  16.718   0.553
40809W        W13234  35.890  42.928  14.320
40810W        W13235  25.583   7.154  14.944
40811W        W13236  31.075   0.136  11.258
40812W        W13237  21.989  16.244  10.963
40813W        W13238  27.680   6.690  10.971
40814W        W13239  19.694  19.363  11.577
40815W        W13240  31.650   0.748   1.673
40816W        W13241  26.610  38.488  13.302
40817W        W13242  33.245  14.376  12.603
40818W        W13243  39.891  31.617   0.891
40819W        W13244  43.500  39.068  14.201
40820W        W13245  26.701  37.162  12.532
40821W        W13246  44.638  30.361   3.435
40822W        W13247  43.487  22.234   2.721
40823W        W13248  42.430  21.627   1.720
40824W        W13249  20.990  40.301  13.366
40825W        W13250  25.764  30.030   1.502
40826W        W13251   9.816  22.584   2.606
40827W        W13252  37.930  41.852  13.852
40828W        W13253   2.312  41.015  12.495
40829W        W13254   7.741  32.646   3.601
40830W        W13255  31.404   2.978  10.699
40831W        W13256  23.295  17.048  12.114
40832W        W13257   4.482   0.548  14.000
40833W        W13258  10.473  27.108   1.810
40834W        W13259  18.009  34.623   1.269
40835W        W13260   1.948  37.197   0.307
40836W        W13261  16.057  34.950   4.707
40837W        W13262  14.129  15.600   4.610
40838W        W13263  12.132   7.274   0.330
40839W        W13264  10.210  24.049   4.905
40840W        W13265   0.323   1.832  10.870
40841W        W13266  30.975  21.435   0.797
40842W        W13267  21.998  27.024  13.908
40843W        W13268  31.195  22.194   9.823
40844W        W13269  18.589   3.733   4.111
40845W        W13270  10.324   1.430  13.900
40846W        W13271  38.507  39.405   2.622
40847W        W13272  28.510  15.402   2.457
40848W        W13273   1.447   0.485   1.781
40849W        W13274  14.148  26.860  13.575
40850W        W13275  30.091  41.078   3.133
40851W        W13276  12.659  41.028  14.487
40852W        W13277  37.033  21.073   0.968
40853W        W13278  42.701  42.247  13.413
40854W        W13279  18.503  25.498  11.113
40855W        W13280  34.586  25.307   2.640
40856W        W13281   0.960  41.066   0.414
40857W        W13282   7.366   5.114   2.924
40858W        W13283  15.582   2.315  14.560
40859W        W13284  12.192  43.852  13.939
40860W        W13285   0.549   0.367  14.893
40861W        W13286  44.296  13.184   2.357
40862W        W13287   0.944  29.174  13.991
40863W        W13288  37.509  10.843  12.038
40864W        W13289  44.011  34.503  12.123
40865W        W13290  24.669  37.123  10.661
40866W        W13291  31.962  19.391   1.421
40867W        W13292  30.207  28.596  12.940
40868W        W13293  32.886  20.932   1.414
40869W        W13294  30.504   7.885   0.782
40870W        W13295  35.477  39.225  11.981
40871W        W13296  36.350  31.556  14.668
40872W        W13297  37.406  28.391   4.277
40873W        W13298  40.437  14.736   3.290
40874W        W13299  14.842  23.883  12.328
40875W        W13300  19.732  25.923   2.718
40876W        W13301  25.065   3.221   2.429
40877W        W13302  16.996   1.553   4.583
40878W        W13303  27.662  36.316   0.975
40879W        W13304   9.146  34.123  12.665
40880W        W13305  11.859  26.674   0.851
40881W        W13306  10.571  42.741   4.551
40882W        W13307  24.073  43.283  12.336
40883W        W13308  40.553  13.055   2.749
40884W        W13309  21.822  16.520   1.340
40885W        W13310  11.468  28.417  11.567
40886W        W13311  40.974   9.365   2.659
40887W        W13312  14.805   2.302  10.558
40888W        W13313   9.099  38.364   4.234
40889W        W13314  37.104  37.914  13.944
40890W        W13315   1.639  35.326   0.648
40891W        W13316   0.896   7.384   4.840
40892W        W13317  34.359  33.647   2.305
40893W        W13318  32.997  19.317   4.760
40894W        W13319  32.711  42.482   3.544
40895W        W13320   4.978  10.693  10.119
40896W        W13321  22.638  10.718  10.242
40897W        W13322  37.909  29.538  14.978
40898W        W13323  14.801  38.495  14.064
40899W        W13324  42.430   6.019  12.539
40900W        W13325  19.545  27.808   2.287
40901W        W13326   0.629  16.684  10.239
40902W        W13327   9.288   6.781  13.263
40903W        W13328   3.914  16.577   0.955
40904W        W13329  24.981  22.532  13.949
40905W        W13330  14.350  16.024  10.975
40906W        W13331  30.586  17.904  14.380
40907W        W13332  37.192  29.874   4.335
40908W        W13333  39.889   5.173   4.185
40909W        W13334   7.485  32.033   2.828
40910W        W13335  41.186  43.835   1.866
40911W        W13336  34.552  28.705  13.810
40912W        W13337  38.882  28.891   2.601
40913W        W13338  36.347  16.139   4.919
40914W        W13339  25.960  36.079   1.386
40915W        W13340  11.717   5.066   2.792
40916W        W13341   1.027  39.779   4.716
40917W        W13342  28.076  13.526   2.748
40918W        W13343   5.992  32.991  10.731
40919W        W13344  36.590  39.806   3.221
40920W        W13345  26.441   0.225  12.012
40921W        W13346  29.487   1.342   0.018
40922W        W13347  31.705  11.464   5.013
40923W        W13348   6.474  38.210   3.032
40924W        W13349  28.872  32.990   2.299
40925W        W13350   8.251  12.793  10.228
40926W        W13351  19.493  31.537  14.355
40927W        W13352  15.832  14.183   3.329
40928W        W13353  17.576   9.805   2.651
40929W        W13354  32.448  28.137  10.765
40930W        W13355  17.874  18.806   1.426
40931W        W13356  22.232   5.179  11.988
40932W        W13357  25.552   3.128   2.223
40933W        W13358  20.293  23.579  10.848
40934W        W13359  14.737  10.058   2.652
40935W        W13360  30.883   1.872  14.545
40936W        W13361  19.640   9.604   2.319
40937W        W13362   1.752  42.440   0.274
40938W        W13363  26.765   9.571  14.265
40939W        W13364  10.621  15.819  10.596
40940W        W13365  24.080  12.776  12.013
40941W        W13366  18.067  31.001   3.226
40942W        W13367  42.119  12.320   0.899
40943W        W13368  19.879  25.600   5.135
40944W        W13369  33.600  35.999  11.701
40945W        W13370  26.605   4.163   3.643
40946W        W13371  34.736  11.370  10.367
40947W        W13372  17.578  38.410  14.903
40948W        W13373   7.770  26.735  11.984
40949W        W13374   5.319  32.513   3.201
40950W        W13375  26.539  28.539  10.879
40951W        W13376  14.128   2.409  14.825
40952W        W13377  38.405  35.954   0.020
40953W        W13378  34.348  24.117   2.099
40954W        W13379  28.659   0.747  13.658
40955W        W13380  13.579  21.554   2.308
40956W        W13381  41.853   6.639   0.879
40957W        W13382  19.744  18.856  11.653
40958W        W13383  38.563  13.759   4.977
40959W        W13384  11.590  19.720   4.750
40960W        W13385  33.605  22.618   1.905
40961W        W13386  39.536  36.486  13.388
40962W        W13387  34.100  18.677  14.218
40963W        W13388  21.775  14.244   0.755
40964W        W13389  14.715   0.316   0.481
40965W        W13390  32.125  36.726  12.941
40966W        W13391   4.517  42.473   2.408
40967W        W13392   3.762   7.880  14.352
40968W        W13393   8.680  32.121   3.357
40969W        W13394  34.986  28.715   1.628
40970W        W13395  37.099  13.822  11.866
40971W        W13396  42.109  35.893  12.952
40972W        W13397  28.534  43.544   1.362
40973W        W13398  38.716  11.747  10.075
40974W        W13399   9.619  11.133  12.937
40975W        W13400  30.255   3.810  10.459
40976W        W13401   9.284   0.489   1.250
40977W        W13402  15.326  36.484  13.301
40978W        W13403  16.363   6.887  12.312
40979W        W13404  22.063  26.044  14.876
40980W        W13405  32.503  30.085  10.891
40981W        W13406  16.261   0.820   4.392
40982W        W13407  14.668   0.361   3.233
40983W        W13408  30.901   6.335   1.297
40984W        W13409  29.639  33.505   3.167
40985W        W13410  29.869  11.371   0.142
40986W        W13411  44.520   4.159  11.973
40987W        W13412  11.016  36.202   0.403
40988W        W13413  38.233  16.944   4.648
40989W        W13414  20.030  31.328  11.236
40990W        W13415  38.920   3.872  11.542
40991W        W13416  10.483  29.525   0.544
40992W        W13417  30.942  21.301  13.436
40993W        W13418  17.260  27.290   2.757
40994W        W13419  27.860  22.221   1.477
40995W        W13420  39.576  24.782   0.962
40996W        W13421  18.125  37.610  13.326
40997W        W13422  11.338   0.358   2.224
40998W        W13423  16.069  44.845   3.055
40999W        W13424  13.238  37.493  13.987
41000W        W13425  27.710  29.665  11.892
41001W        W13426   6.416  27.677  10.786
41002W        W13427  36.991  30.526  14.245
41003W        W13428  21.156  42.193   1.895
41004W        W13429   9.240   9.394  14.793
41005W        W13430   6.847   5.763   4.321
41006W        W13431  22.293  32.083   2.885
41007W        W13432   8.902  20.327  12.618
41008W        W13433   4.888  37.994   3.866
41009W        W13434   4.812  29.497   1.235
41010W        W13435  36.453  41.982   4.408
41011W        W13436  28.639  17.815  14.918
41012W        W13437  27.130  10.351   0.418
41013W        W13438  18.115  13.215   2.794
41014W        W13439  37.946  42.377   1.186
41015W        W13440  42.114   5.842   4.519
41016W        W13441  37.588   5.215   2.963
41017W        W13442   2.067  42.441  14.310
41018W        W13443  31.678  19.032  14.547
41019W        W13444  23.707  41.381  12.162
41020W        W13445   6.788   6.227   0.296
41021W        W13446  26.280  26.155  14.380
41022W        W13447   2.274  11.053  13.569
41023W        W13448  11.753  35.427  14.358
41024W        W13449  27.985  37.413   1.810
41025W        W13450   8.802   3.313   2.260
41026W        W13451  35.759   2.510   0.447
41027W        W13452  23.162   9.096   1.390
41028W        W13453   0.989  20.113  11.980
41029W        W13454  25.461  39.997   4.126
41030W        W13455  12.336  40.758   4.516
41031W        W13456  23.595  22.099  11.691
41032W        W13457  30.201  10.903  11.569
41033W        W13458  21.703  15.551   3.174
41034W        W13459  42.783  23.578  11.180
41035W        W13460  36.521   4.227  12.593
41036W        W13461  19.696  17.008  11.264
41037W        W13462  13.459  36.113   2.432
41038W        W13463  30.668  29.264   2.842
41039W        W13464  41.681  28.092  11.097
41040W        W13465  39.277   8.402  11.263
41041W        W13466  26.507  28.057  11.057
41042W        W13467  17.296  31.003   0.876
41043W        W13468   6.782  13.039   0.470
41044W        W13469   3.234  32.024  13.433
41045W        W13470   1.926  39.564  11.573
41046W        W13471  43.759  34.286   0.923
41047W        W13472  27.876   0.092   3.277
41048W        W13473   2.025  26.056  13.597
41049W        W13474  35.860  16.829  14.979
41050W        W13475  17.712  38.030  12.113
41051W        W13476  36.518  35.148   4.463
41052W        W13477  26.449  37.553  13.470
41053W        W13478  21.050  15.190  13.044
41054W        W13479  18.698  44.515   1.948
41055W        W13480   4.152  42.856  14.733
41056W        W13481  11.864  24.568  10.776
41057W        W13482  40.811  39.484  12.466
41058W        W13483  40.305  40.039   1.871
41059W        W13484  22.749  43.296   2.988
41060W        W13485  22.046  23.441  11.601
41061W        W13486  36.436  44.976  14.714
41062W        W13487  24.163  27.247  14.394
41063W        W13488   1.980  16.300  14.538
41064W        W13489   5.740   6.198   0.685
41065W        W13490  21.188  30.899  10.725
41066W        W13491  21.752  30.213   3.809
41067W        W13492  31.571   8.345   4.173
41068W        W13493   5.839  38.354   3.808
41069W        W13494   3.749  43.847  10.735
41070W        W13495   5.313  38.757   0.543
41071W        W13496  16.256  42.212   0.280
41072W        W13497  14.209  38.853   0.801
41073W        W13498  38.773  36.489  12.986
41074W        W13499  39.874  16.711   1.046
41075W        W13500  20.240  38.283  11.492
41076W        W13501  23.932   5.320   4.205
41077W        W13502  24.993  24.603   1.666
41078W        W13503  37.063  15.545   0.474
41079W        W13504  19.085  12.806   3.756
41080W        W13505   6.502  22.228   1.984
41081W        W13506  36.957  38.538   2.121
41082W        W13507   5.153  43.940  12.909
41083W        W13508  17.719  38.491  12.346
41084W        W13509  30.887   2.290  12.788
41085W        W13510  16.799  37.690   0.751
41086W        W13511  32.465  30.484  14.333
41087W        W13512  13.644  25.138   3.928
41088W        W13513  12.201   9.560  12.463
41089W        W13514  18.254  31.304   2.793
41090W        W13515  44.797  38.777   3.819
41091W        W13516  37.497  38.783   1.645
41092W        W13517   0.318  24.131  10.688
41093W        W13518  15.357  31.070  13.970
41094W        W13519  42.263  36.188   4.615
41095W        W13520  15.402  33.995   0.343
41096W        W13521  33.333  22.969   4.106
41097W        W13522  15.832  15.803   0.036
41098W        W13523  32.144  36.481  14.407
41099W        W13524   5.929  21.980   2.621
41100W        W13525  29.469  26.273   0.400
41101W        W13526   5.144  26.033  12.971
41102W        W13527   7.635   2.800   4.688
41103W        W13528  19.526  10.360   4.159
41104W        W13529  11.887  11.956   0.843
41105W        W13530  36.335   1.348  12.691
41106W        W13531  44.189  33.847  11.719
41107W        W13532  23.111  37.546   4.248
41108W        W13533  13.217  19.596  14.434
41109W        W13534   3.402  24.709  12.497
41110W        W13535  19.356  20.459  11.167
41111W        W13536  38.244   0.328  12.100
41112W        W13537  20.471  11.831   3.534
41113W        W13538  30.063   6.350   3.317
41114W        W13539  42.741  30.065  13.917
41115W        W13540  29.477  40.002   3.623
41116W        W13541  16.486  40.373  13.984
41117W        W13542  13.211  12.518   1.273
41118W        W13543  29.621  31.705  13.819
41119W        W13544  13.660  17.548  11.071
41120W        W13545  27.856  23.215  13.394
41121W        W13546  11.645  40.273   0.836
41122W        W13547  37.462  28.688   0.843
41123W        W13548  12.514  21.244  13.960
41124W        W13549  13.910  11.378  14.089
41125W        W13550  40.517  30.356   0.802
41126W        W13551  42.842  20.114   1.597
41127W        W13552  23.599  32.672  10.199
41128W        W13553  32.144  21.359   4.227
41129W        W13554  25.596  11.455   0.357
41130W        W13555   2.857  14.327  10.311
41131W        W13556  24.676   9.612   1.722
41132W        W13557   8.773  42.324   1.793
41133W        W13558  25.942   0.910   0.333
41134W        W13559  26.677  28.231   0.408
41135W        W13560  11.086  43.220  13.856
41136W        W13561  18.448  44.920   3.736
41137W        W13562  31.644  13.262  11.586
41138W        W13563  27.054  41.092   2.801
41139W        W13564  33.498   7.864  12.581
41140W        W13565  18.567  17.585   0.018
41141W        W13566  23.110   3.745   4.157
41142W        W13567  34.368   0.284  11.095
41143W        W13568   3.162  34.589   4.944
41144W        W13569  25.091  26.962   4.562
41145W        W13570  26.158  23.188   0.933
41146W        W13571   8.940   8.801  14.827
41147W        W13572  29.922  42.757  13.006
41148W        W13573   6.974  26.937  14.491
41149W        W13574  40.400  37.778   3.696
41150W        W13575  44.776  44.299  12.088
41151W        W13576  11.206   2.915   4.092
41152W        W13577  16.306  43.958  13.583
41153W        W13578   1.124  16.074  11.899
41154W        W13579   9.814  37.358   0.814
41155W        W13580  12.067  30.111  11.207
41156W        W13581  42.517  14.074  11.245
41157W        W13582  33.502   8.009   4.921
41158W        W13583  26.288   7.194   3.457
41159W        W13584  19.317  19.745   0.406
41160W        W13585  12.672  35.477  11.518
41161W        W13586  11.539  10.660   1.304
41162W        W13587   7.718  22.410  13.811
41163W        W13588   8.600   2.468  12.620
41164W        W13589   6.440  27.154  10.624
41165W        W13590  16.141  13.371   3.705
41166W        W13591  27.409  15.279   3.714
41167W        W13592  27.656   7.379   3.513
41168W        W13593  24.203  34.905   0.091
41169W        W13594   3.235  30.378  13.648
41170W        W13595  15.812  27.315  14.914
41171W        W13596  13.196  32.172   0.576
41172W        W13597  43.372  33.153  11.139
41173W        W13598  19.967   8.989  13.482
41174W        W13599  25.189  17.281  14.351
41175W        W13600  23.523   3.214  11.919
41176W        W13601  11.878  21.381   3.350
41177W        W13602  25.576  42.732  11.658
41178W        W13603  10.764  33.820  12.027
41179W        W13604   3.030  39.817  13.448
41180W        W13605  27.880  14.704   3.453
41181W        W13606  30.401   7.704   3.224
41182W        W13607  27.801  23.986   1.668
41183W        W13608   1.314   7.852  14.157
41184W        W13609  22.541  25.871  11.501
41185W        W13610  11.584  12.471   2.939
41186W        W13611   9.031  23.402   1.779
41187W        W13612   1.593   2.290  13.940
41188W        W13613  12.674   8.713   4.600
41189W        W13614  28.249   1.938   4.996
41190W        W13615  10.683  29.159   0.244
41191W        W13616   1.376  18.018  10.783
41192W        W13617  25.378   9.636  11.088
41193W        W13618  27.721  14.292   3.694
41194W        W13619  20.791  28.894   0.053
41195W        W13620  31.154  12.563  13.442
41196W        W13621  10.845  12.251  12.547
41197W        W13622  26.935  24.090  11.068
41198W        W13623   5.398  24.835   3.000
41199W        W13624  35.674  40.498  11.169
41200W        W13625  39.228  15.626   2.702
41201W        W13626  23.591  10.907   4.736
41202W        W13627   2.918  17.797  14.830
41203W        W13628  18.996  15.810  13.290
41204W        W13629  42.748  16.619  11.837
41205W        W13630  44.464  16.649  13.748
41206W        W13631  31.262  42.023   3.291
41207W        W13632  31.462  20.576   4.069
41208W        W13633  39.893  10.142   0.755
41209W        W13634   1.372  36.355   1.419
41210W        W13635  44.976  43.211   4.621
41211W        W13636  28.368  34.024  12.993
41212W        W13637  10.407  20.020  10.783
41213W        W13638   9.909  21.527  11.525
41214W        W13639  37.420  37.882   1.634
41215W        W13640  15.779   5.811  11.427
41216W        W13641  14.547  43.737  10.986
41217W        W13642  38.366  33.945  10.597
41218W        W13643  30.516  23.113  12.032
41219W        W13644  37.226   1.721   3.866
41220W        W13645  17.760  44.453   1.892
41221W        W13646  16.839   9.344   2.745
41222W        W13647   3.486  37.705   0.800
41223W        W13648  16.855  29.086   0.867
41224W        W13649  42.410  41.030  14.251
41225W        W13650   3.476  23.971   0.748
41226W        W13651  36.747  27.446   3.986
41227W        W13652  34.734  17.288   2.826
41228W        W13653  32.841  19.244   3.857
41229W        W13654  32.200   8.297   3.428
41230W        W13655  43.365  26.531   4.061
41231W        W13656   7.464  34.413  14.908
41232W        W13657   5.752  11.991  10.723
41233W        W13658  29.847  39.518  11.850
41234W        W13659  36.384  10.680  14.938
41235W        W13660   4.427  39.507  14.577
41236W        W13661  29.332  27.737   1.256
41237W        W13662  18.218  30.375  12.319
41238W        W13663  22.027   0.685  12.804
41239W        W13664  35.951  15.188   1.937
41240W        W13665  42.734  36.054   2.198
41241W        W13666  42.826  30.252  13.416
41242W        W13667   8.258  39.582  14.348
41243W        W13668  36.273  38.280  11.454
41244W        W13669  29.306   2.859  11.500
41245W        W13670   4.217  31.354   2.962
41246W        W13671  21.167  44.884  13.949
41247W        W13672   6.821  38.474   2.761
41248W        W13673   0.321  10.015  13.461
41249W        W13674  12.200  17.143   0.972
41250W        W13675  15.615  43.900  11.096
41251W        W13676  13.221  33.098   3.471
41252W        W13677  43.872   2.714   3.351
41253W        W13678  22.792   5.727   1.444
41254W        W13679  44.440  10.212   3.593
41255W        W13680  10.747  22.655  13.425
41256W        W13681  40.890  43.821  11.173
41257W        W13682   3.847  39.918  12.412
41258W        W13683  31.851  42.999  11.628
41259W        W13684  17.968  27.263  10.657
41260W        W13685   3.413   3.718  10.183
41261W        W13686  26.733  25.307  13.009
41262W        W13687  16.210   7.899  14.714
41263W        W13688  29.522  39.567   4.873
41264W        W13689  21.726  44.598   2.689
41265W        W13690  11.193  26.555  12.370
41266W        W13691   9.391  35.514   2.698
41267W        W13692  14.637  40.052   0.858
41268W        W13693   3.328  41.830  14.521
41269W        W13694  40.095  11.700  13.096
41270W        W13695  14.827  25.262  11.162
41271W        W13696  14.797  25.249   2.330
41272W        W13697   0.614  42.392   4.556
41273W        W13698  20.240   8.678   2.773
41274W        W13699  28.462  19.595   0.484
41275W        W13700  36.491  33.450  10.605
41276W        W13701   1.454  12.837   4.845
41277W        W13702  35.924  35.860   3.249
41278W        W13703   8.617  12.382   0.937
41279W        W13704  29.946  33.319   0.766
41280W        W13705  28.218  18.529   3.625
41281W        W13706  26.434  17.566   0.795
41282W        W13707  18.381  25.091  11.467
41283W        W13708  43.953  23.888  10.681
41284W        W13709  20.940  28.413  11.567
41285W        W13710  17.794  41.118  13.009
41286W        W13711  33.110  21.850  11.849
41287W        W13712  30.722  15.284   1.786
41288W        W13713  27.500  37.467  13.492
41289W        W13714  23.975   5.643  14.957
41290W        W13715   7.071  42.755   3.359
41291W        W13716  19.694  16.871  13.550
41292W        W13717   9.406  31.559   3.063
41293W        W13718  31.423   3.169  13.046
41294W        W13719  28.477  16.124  11.634
41295W        W13720  12.363  35.435   4.127
41296W        W13721  29.983  25.471   4.874
41297W        W13722  19.621  11.609   1.682
41298W        W13723  16.156  22.926   0.833
41299W        W13724   8.658  40.194   4.013
41300W        W13725  35.586  40.061  12.500
41301W        W13726  19.174  34.617   0.557
41302W        W13727   3.644  24.773  11.176
41303W        W13728  24.899  29.356  11.517
41304W        W13729  28.585  37.503  14.467
41305W        W13730  39.368  22.610   2.839
41306W        W13731  30.476  26.450  10.594
41307W        W13732  40.479  22.342  10.473
41308W        W13733  40.055  18.820   1.879
41309W        W13734  36.364   3.545   0.691
41310W        W13735   7.288  37.416   4.178
41311W        W13736  41.974  12.795   2.285
41312W        W13737  22.215  31.601   3.764
41313W        W13738   5.718  23.689   0.247
41314W        W13739   8.171  10.215   1.887
41315W        W13740  39.779  32.471  12.530
41316W        W13741   3.430  23.541   2.947
41317W        W13742  40.943  21.808  10.228
41318W        W13743  10.322  28.143  11.985
41319W        W13744  41.977  12.790  10.901
41320W        W13745  36.375   8.930  13.467
41321W        W13746  22.633  26.605   0.735
41322W        W13747   9.936   2.658  13.890
41323W        W13748  17.163  38.852  14.989
41324W        W13749   7.304  23.093  11.340
41325W        W13750  24.340  36.896   0.272
41326W        W13751   8.769  33.165   4.229
41327W        W13752  43.817   5.907   3.096
41328W        W13753  17.081  38.825  10.591
41329W        W13754  13.843  39.054   1.217
41330W        W13755  31.904  44.408  12.892
41331W        W13756  25.895  33.223  11.952
41332W        W13757  39.698  13.626   3.277
41333W        W13758  38.426  25.604   1.692
41334W        W13759   9.467  30.404  14.739
41335W        W13760  40.838  31.078  13.672
41336W        W13761  14.473  13.682   0.783
41337W        W13762  41.215  27.368   1.978
41338W        W13763   4.460  29.019   3.289
41339W        W13764  30.602  12.281   1.238
41340W        W13765  10.362   1.013  11.103
41341W        W13766   8.807   9.789   4.973
41342W        W13767   1.278   9.999   5.139
41343W        W13768  29.103   0.181   1.543
41344W        W13769  26.484  35.186   4.140
41345W        W13770  26.427  10.196   2.489
41346W        W13771  36.994  27.303  12.141
41347W        W13772  19.081   5.430  13.983
41348W        W13773  34.399  23.656  14.866
41349W        W13774  23.323  29.036   4.720
41350W        W13775  26.660  14.451   3.483
41351W        W13776   7.933   2.345   4.820
41352W        W13777  23.630  29.383   1.230
41353W        W13778   7.755  30.640   3.865
41354W        W13779   5.435  36.304  13.938
41355W        W13780  26.910  20.387   1.039
41356W        W13781  42.110  32.229  14.249
41357W        W13782  31.006  13.015   2.872
41358W        W13783  30.802  13.293  12.117
41359W        W13784  16.472  42.950   1.776
41360W        W13785   7.943  42.905  12.479
41361W        W13786   5.946  12.711   4.337
41362W        W13787  37.501  32.872  11.221
41363W        W13788  26.195  17.526  13.852
41364W        W13789  36.357  15.102   1.613
41365W        W13790  15.043  37.606  10.067
41366W        W13791  32.889  26.899   4.560
41367W        W13792  29.130  27.376  12.555
41368W        W13793   3.048  21.170  10.617
41369W        W13794   1.803  36.987  13.358
41370W        W13795  15.674  26.897   2.831
41371W        W13796  31.112  33.371   1.576
41372W        W13797  23.299  22.825  12.956
41373W        W13798  20.145  30.979   2.848
41374W        W13799   2.973   6.706  10.247
41375W        W13800  32.974  39.563  10.526
41376W        W13801   2.346  14.431   5.425
41377W        W13802  19.840  18.645   2.834
41378W        W13803  27.154  25.451   0.507
41379W        W13804  26.960  14.845  14.706
41380W        W13805  36.412  42.886   4.753
41381W        W13806   0.745  16.745  13.133
41382W        W13807  24.782   7.479   1.821
41383W        W13808  22.803  18.277  12.260
41384W        W13809  31.479  17.174  11.376
41385W        W13810  12.048  34.445  10.745
41386W        W13811  18.308  21.703  11.235
41387W        W13812  23.175  15.485   0.277
41388W        W13813  22.315   6.712   0.846
41389W        W13814  37.059   6.786   5.169
41390W        W13815   0.300   1.360   2.896
41391W        W13816  40.011  25.667  14.518
41392W        W13817  17.160  12.801  11.264
41393W        W13818  23.015  43.438  11.237
41394W        W13819  39.738  30.210   3.286
41395W        W13820  40.608  36.473   1.961
41396W        W13821  40.263  14.895  12.941
41397W        W13822  27.472   6.244  10.865
41398W        W13823  11.762  29.601  12.802
41399W        W13824  30.676  14.226   1.726
41400W        W13825  16.750  29.140  10.456
41401W        W13826  41.749   3.263   3.682
41402W        W13827  36.890   1.015   2.874
41403W        W13828   6.688  22.784  14.819
41404W        W13829  17.380  18.317  12.451
41405W        W13830  11.565   9.665  13.702
41406W        W13831   9.257  21.268  12.995
41407W        W13832  24.259   5.821  10.470
41408W        W13833  31.230  44.266   1.693
41409W        W13834   4.280  10.555   3.684
41410W        W13835  44.917   5.133   4.850
41411W        W13836  23.104   1.764  11.517
41412W        W13837  15.319  14.989   3.635
41413W        W13838  35.899  13.147  12.877
41414W        W13839  24.578  40.189  14.761
41415W        W13840   8.932  39.492  11.034
41416W        W13841   5.488  23.685   5.056
41417W        W13842   3.161  40.492   3.298
41418W        W13843   7.975  18.372   3.185
41419W        W13844   7.157  42.804  11.138
41420W        W13845   7.242  20.508  12.037
41421W        W13846  23.556   1.270  13.023
41422W        W13847   4.476   5.300   0.792
41423W        W13848  33.965  33.865  14.474
41424W        W13849  16.281   5.403  13.318
41425W        W13850  40.313   2.785   4.663
41426W        W13851  12.770   6.276  13.373
41427W        W13852  39.882  22.588   0.553
41428W        W13853  32.295  15.799   4.223
41429W        W13854  11.119  31.134   1.671
41430W        W13855  27.736  23.923   0.030
41431W        W13856  42.306  23.487   2.850
41432W        W13857   7.303  35.864   2.396
41433W        W13858  21.544  37.934  12.217
41434W        W13859  10.634  22.078  12.896
41435W        W13860  17.359  15.583   0.048
41436W        W13861  19.564  19.231   3.629
41437W        W13862  11.530  24.082   2.871
41438W        W13863  20.700  44.114  13.936
41439W        W13864  18.527  23.222   2.168
41440W        W13865  16.074  26.567   2.390
41441W        W13866  24.200  28.745   4.507
41442W        W13867   1.758  22.239   1.858
41443W        W13868   0.611  35.874   2.016
41444W        W13869  19.256  24.914  11.432
41445W        W13870  34.724  28.917  14.862
41446W        W13871  35.869  22.196   4.283
41447W        W13872   9.785   5.393   1.479
41448W        W13873   0.945  25.104   2.147
41449W        W13874  17.288  19.159  11.019
41450W        W13875   3.267   7.327   2.761
41451W        W13876  25.698  25.100   4.762
41452W        W13877  37.894  30.967   0.735
41453W        W13878  25.935  36.582   0.079
41454W        W13879  14.623   1.802   0.981
41455W        W13880  27.003  42.908   3.653
41456W        W13881  31.404  22.454   2.860
41457W        W13882  38.481  27.222   4.292
41458W        W13883  30.367  39.112   2.561
41459W        W13884  16.331  29.783   2.924
41460W        W13885   8.136  37.563   0.329
41461W        W13886  29.945  21.096   3.719
41462W        W13887  22.069   2.059  12.677
41463W        W13888  18.242  23.333  13.011
41464W        W13889  41.399  31.171  13.836
41465W        W13890  34.297  43.021  13.376
41466W        W13891  25.255  30.481  12.853
41467W        W13892  25.150  38.098  12.007
41468W        W13893  16.088  42.361  14.366
41469W        W13894  15.042   1.015   0.781
41470W        W13895  14.254  34.137   1.685
41471W        W13896  14.747  39.021  11.763
41472W        W13897   0.002  34.608   5.298
41473W        W13898  41.487  35.640   3.280
41474W        W13899  13.284  24.392  10.102
41475W        W13900   8.856   4.499  11.423
41476W        W13901  11.982  13.952  14.115
41477W        W13902  23.748  30.780  10.995
41478W        W13903  27.012   6.412   3.199
41479W        W13904  40.496   0.497  12.475
41480W        W13905  18.533   3.065  14.924
41481W        W13906  36.502  34.554  13.323
41482W        W13907   4.851  24.677  14.889
41483W        W13908  14.205  34.433   2.175
41484W        W13909  36.479  28.580  11.533
41485W        W13910  14.930  23.536  10.485
41486W        W13911   8.573  29.035  14.811
41487W        W13912  19.059  34.589  14.546
41488W        W13913  43.013  15.799  11.952
41489W        W13914  28.910  18.273  12.827
41490W        W13915  14.849  29.861  13.428
41491W        W13916   4.453  32.619  10.982
41492W        W13917   4.462  43.870   0.427
41493W        W13918  12.676  33.076   4.516
41494W        W13919   5.021   3.248   3.339
41495W        W13920  17.345  15.137   2.196
41496W        W13921  36.848  21.664  13.732
41497W        W13922  18.154   5.654   1.203
41498W        W13923  20.651  21.473   3.153
41499W        W13924  32.691  16.006   4.479
41500W        W13925  18.538  29.454   3.379
41501W        W13926  20.204  23.526   0.860
41502W        W13927  35.545  15.284   1.002
41503W        W13928  30.850  18.066   4.335
41504W        W13929  15.618  16.306   0.738
41505W        W13930  15.849  42.526   4.694
41506W        W13931  36.578  34.193   1.840
41507W        W13932  37.803  44.197  14.582
41508W        W13933  27.783  35.077   4.101
41509W        W13934   0.473  13.301   3.245
41510W        W13935  34.472   6.127   1.232
41511W        W13936   6.432  30.046   1.278
41512W        W13937  42.344   8.620   0.355
41513W        W13938  35.495  16.509   3.801
41514W        W13939  14.401  37.805   0.525
41515W        W13940  42.577  33.770  14.435
41516W        W13941   8.168  28.603   4.117
41517W        W13942  33.599  37.601  12.960
41518W        W13943  22.855   7.425   4.396
41519W        W13944  14.401  30.867   2.813
41520W        W13945  25.167  30.960   2.454
41521W        W13946  42.722   4.952   5.218
41522W        W13947  25.492   0.554   1.690
41523W        W13948   2.790   1.399   2.433
41524W        W13949   6.028   3.426   0.492
41525W        W13950  27.963   7.283   2.161
41526W        W13951  10.695  38.380   3.414
41527W        W13952  30.153  18.098  10.814
41528W        W13953  23.725  31.937   4.518
41529W        W13954  26.461  42.356  12.091
41530W        W13955   8.206   0.516  10.821
41531W        W13956  24.531  15.835  13.754
41532W        W13957  44.267  33.123  11.134
41533W        W13958  24.112  38.840   0.453
41534W        W13959  39.465   0.538  13.293
41535W        W13960   6.706   5.319   0.162
41536W        W13961  21.111  11.571   2.412
41537W        W13962  10.265  29.960  13.349
41538W        W13963  14.566  10.622  12.507
41539W        W13964  14.660  40.811  11.964
41540W        W13965  43.063  13.867   2.290
41541W        W13966  14.496  21.165  14.940
41542W        W13967  35.801   4.243   4.064
41543W        W13968  12.783  42.003   1.384
41544W        W13969   5.374  19.825  11.573
41545W        W13970  28.923  39.901   0.344
41546W        W13971   0.986  34.127   2.736
41547W        W13972  20.040  20.650   0.958
41548W        W13973  33.330  14.583   5.445
41549W        W13974  36.702  13.150   0.602
41550W        W13975  17.905  26.259   1.723
41551W        W13976  38.879  26.538   9.908
41552W        W13977  10.506  26.699   2.164
41553W        W13978   1.461  17.497  10.768
41554W        W13979  35.875  13.551   4.095
41555W        W13980  37.821  41.936  11.083
41556W        W13981  35.074  21.567   1.954
41557W        W13982   3.880  35.580  11.026
41558W        W13983  18.356  23.724   3.061
41559W        W13984  36.915  22.356   3.594
41560W        W13985  17.821  15.713   0.251
41561W        W13986  21.003  31.595  11.262
41562W        W13987   6.454   5.010   2.874
41563W        W13988  31.974   2.179  14.256
41564W        W13989   1.363   8.605   3.401
41565W        W13990  15.863  33.385   1.851
41566W        W13991   7.233  36.406  10.882
41567W        W13992  20.234  19.165   0.946
41568W        W13993  25.741  27.244   1.780
41569W        W13994   1.336  28.528   3.342
41570W        W13995   8.356   1.483  10.821
41571W        W13996  35.126   4.980   0.999
41572W        W13997   9.410  20.811  11.422
41573W        W13998  39.110  21.660   1.330
41574W        W13999  15.074  36.062   3.678
41575W        W14000  32.327   3.971   0.258
41576W        W14001  29.150  44.756  11.967
41577W        W14002  23.932  27.451   4.048
41578W        W14003   6.569  29.101   4.743
41579W        W14004  27.700  11.337   1.396
41580W        W14005  16.748  20.982  14.764
41581W        W14006  11.789  39.445   2.615
41582W        W14007  24.429   5.735  10.945
41583W        W14008  25.089   0.395  11.225
41584W        W14009  24.396  13.306  12.787
41585W        W14010   3.743  21.254  14.866
41586W        W14011  30.903  26.726  14.573
41587W        W14012  35.240  11.866   0.565
41588W        W14013  13.987  27.811   0.345
41589W        W14014  28.408  37.483   2.149
41590W        W14015  17.105  30.127   1.290
41591W        W14016   2.161  31.633  14.965
41592W        W14017  10.600   3.472   3.703
41593W        W14018   2.220  42.294  13.839
41594W        W14019  12.696  26.669  10.547
41595W        W14020  44.313  34.592   1.838
41596W        W14021  42.761  32.170   1.034
41597W        W14022  31.685  14.318   1.749
41598W        W14023  20.634   3.470  14.439
41599W        W14024  36.960  19.226   0.227
41600W        W14025  24.366  17.296  10.940
41601W        W14026  31.027  14.270  13.556
41602W        W14027   9.210  26.334   3.353
41603W        W14028  21.631  21.144  14.631
41604W        W14029  14.814   5.293  13.966
41605W        W14030   8.368  26.612   0.244
41606W        W14031  20.608  37.622   3.652
41607W        W14032  28.471  37.631  11.037
41608W        W14033   9.948  10.876  12.581
41609W        W14034   2.857  27.668   4.799
41610W        W14035  37.399  18.256  14.070
41611W        W14036  14.153  10.064   1.455
41612W        W14037  43.179  42.916  11.179
41613W        W14038  41.321  43.108   0.007
41614W        W14039  12.012  16.804   2.801
41615W        W14040  35.766   0.781   1.781
41616W        W14041  33.939  10.412   3.101
41617W        W14042   0.484  14.129  11.617
41618W        W14043  10.439  39.513  14.771
41619W        W14044  44.463  14.800  14.309
41620W        W14045  18.718   6.168  13.017
41621W        W14046  10.595  12.736  12.386
41622W        W14047  23.223   9.936  10.203
41623W        W14048   5.238  20.239   3.449
41624W        W14049   6.768  21.228   1.745
41625W        W14050  21.240  29.831  11.665
41626W        W14051  15.250  26.226   2.372
41627W        W14052  44.945  18.591   0.726
41628W        W14053   8.382   7.386   4.105
41629W        W14054   6.519  44.823  14.059
41630W        W14055   9.880  41.071   1.215
41631W        W14056  20.173  10.831   1.867
41632W        W14057  16.853  32.524   5.065
41633W        W14058  18.321  27.052  12.698
41634W        W14059   6.348  29.416  14.973
41635W        W14060  30.384   1.821  14.786
41636W        W14061  44.807   4.203   4.126
41637W        W14062  14.171  14.863   2.470
41638W        W14063  14.008  24.991  14.021
41639W        W14064  36.898   8.817  12.852
41640W        W14065  19.465  23.455   2.275
41641W        W14066  21.747  21.650   0.763
41642W        W14067  20.842  42.226   3.693
41643W        W14068   8.900   9.437  11.865
41644W        W14069  30.522  20.871   0.226
41645W        W14070  41.300  28.550   3.157
41646W        W14071  25.938  43.064   2.829
41647W        W14072   1.313  40.063   0.904
41648W        W14073  33.150   0.258  12.611
41649W        W14074  12.949   1.805   2.200
41650W        W14075   7.814  33.622  12.043
41651W        W14076  28.196  23.661  14.945
41652W        W14077  37.010  31.085   0.103
41653W        W14078  29.651  35.336  11.129
41654W        W14079  26.137   0.012   1.216
41655W        W14080  30.396  20.108  13.456
41656W        W14081  28.183  25.888   3.165
41657W        W14082  36.678   6.710  10.289
41658W        W14083  30.556  10.472  12.049
41659W        W14084  11.793  26.915   0.381
41660W        W14085   2.359   2.247  10.471
41661W        W14086  15.471  12.180  14.565
41662W        W14087  33.538  32.087   4.490
41663W        W14088  29.779  14.876   0.926
41664W        W14089  27.114  32.650  11.658
41665W        W14090  37.366  44.326   0.977
41666W        W14091   5.458  24.116   1.273
41667W        W14092  43.963   5.305  11.918
41668W        W14093  12.314  41.978  13.330
41669W        W14094   4.661  38.992   1.312
41670W        W14095  16.490  34.442  13.392
41671W        W14096  28.104   7.869   4.624
41672W        W14097  33.964  15.127   3.001
41673W        W14098  35.910  30.382  11.564
41674W        W14099  30.331  33.573   1.361
41675W        W14100  25.177  28.185   3.332
41676W        W14101  34.513  20.538  10.959
41677W        W14102  20.163  42.793   2.395
41678W        W14103  24.982  23.041  13.778
41679W        W14104  20.980  18.534  12.481
41680W        W14105  37.688   5.689   2.311
41681W        W14106  14.127  33.600  12.860
41682W        W14107  15.280  17.826  14.452
41683W        W14108  22.833   9.094   2.134
41684W        W14109   7.220  41.540  11.622
41685W        W14110  35.467   8.427   3.092
41686W        W14111  38.325  23.284  12.605
41687W        W14112  43.723  22.028  11.076
41688W        W14113  15.957  37.332   4.634
41689W        W14114  10.288  33.390   2.189
41690W        W14115  10.358  27.511   3.311
41691W        W14116  32.373  15.742  13.280
41692W        W14117  34.227   5.722   0.272
41693W        W14118  44.950  12.200  11.474
41694W        W14119   8.268  18.521   0.542
41695W        W14120  24.955  29.925  12.408
41696W        W14121  18.251  30.447  13.264
41697W        W14122  10.513  24.414  10.288
41698W        W14123  27.663   7.086   3.089
41699W        W14124  10.598  23.303   4.545
41700W        W14125   5.358  27.229   3.193
41701W        W14126  16.819   9.120  13.481
41702W        W14127  36.434   6.442   4.559
41703W        W14128  44.438  33.321  13.444
41704W        W14129  38.993   7.650   0.933
41705W        W14130   3.311  14.275  14.549
41706W        W14131   0.241   9.534  11.422
41707W        W14132  27.907  40.453   3.228
41708W        W14133  43.325  11.676  10.630
41709W        W14134  31.057  36.204   4.992
41710W        W14135  10.456  23.044  10.645
41711W        W14136  12.363  37.866   0.553
41712W        W14137  22.667  35.138  12.075
41713W        W14138  43.016   6.166   3.829
41714W        W14139  12.266  29.976  12.065
41715W        W14140  42.349   8.335  12.072
41716W        W14141  12.635  16.098   0.809
41717W        W14142  35.565   8.714   2.671
41718W        W14143  19.582  36.671  13.150
41719W        W14144   1.027  11.841   4.499
41720W        W14145  37.730  38.667  13.279
41721W        W14146  10.825  11.408  14.003
41722W        W14147  25.160   3.479  12.004
41723W        W14148  29.224  40.300   0.438
41724W        W14149  30.586  25.904   2.439
41725W        W14150  42.626   1.635  11.942
41726W        W14151  35.046   3.293  10.907
41727W        W14152   5.325  42.063  12.873
41728W        W14153  38.096  43.239  10.765
41729W        W14154  41.136  28.450  14.817
41730W        W14155  17.556  16.827  10.644
41731W        W14156  14.302  42.228  14.165
41732W        W14157  17.292  10.348   0.476
41733W        W14158  44.351  16.192  10.648
41734W        W14159  33.015   8.351  14.430
41735W        W14160  17.151   2.791   4.240
41736W        W14161   1.250  18.519  12.538
41737W        W14162  39.608  40.303   0.046
41738W        W14163  19.748  13.140   0.894
41739W        W14164  13.094  18.788  14.828
41740W        W14165  15.191  15.310  11.710
41741W        W14166  14.292  38.344   4.030
41742W        W14167  22.536   6.316   3.637
41743W        W14168  33.354  18.136   2.441
41744W        W14169  40.962  19.501   3.219
41745W        W14170  43.693   8.994  10.202
41746W        W14171  15.851  25.358   1.271
41747W        W14172  40.064   5.849   0.381
41748W        W14173   9.218  25.551   1.030
41749W        W14174  26.512  30.660   4.005
41750W        W14175  33.536   3.440  11.113
41751W        W14176  35.596  32.595  12.407
41752W        W14177  24.786  42.006  10.648
41753W        W14178  24.522  11.193  12.091
41754W        W14179  26.497  21.740  14.302
41755W        W14180  42.044  22.241   0.821
41756W        W14181  43.180  24.832  11.135
41757W        W14182  35.015  40.583   1.941
41758W        W14183  42.806  10.973  10.408
41759W        W14184  24.061  10.786   4.923
41760W        W14185  13.690  10.888   1.196
41761W        W14186  33.379  20.081   0.288
41762W        W14187  35.604  18.628  12.142
41763W        W14188  39.017  41.354   1.840
41764W        W14189  42.343   2.413  13.933
41765W        W14190  18.544   6.346   4.192
41766W        W14191  12.775   6.127   3.633
41767W        W14192  26.698  36.971   4.605
41768W        W14193  19.584   7.231   0.766
41769W        W14194  39.775  41.334  13.445
41770W        W14195   6.384  17.189   1.427
41771W        W14196  38.243   7.060   2.844
41772W        W14197   3.501  39.457  14.371
41773W        W14198  29.485   7.891   4.011
41774W        W14199  22.131   7.607   2.390
41775W        W14200  22.524  19.702   0.765
41776W        W14201  37.586  30.555   3.462
41777W        W14202  35.872  43.732  13.363
41778W        W14203  28.247  12.085  12.605
41779W        W14204  22.302  17.304  13.753
41780W        W14205  31.060  17.045   1.811
41781W        W14206  42.015  38.109   1.360
41782W        W14207   9.192  20.832   4.762
41783W        W14208   5.390  32.593   1.669
41784W        W14209  21.336   3.333  14.659
41785W        W14210   1.727   5.643   4.357
41786W        W14211  21.699  23.759  13.556
41787W        W14212  37.600  28.880   1.832
41788W        W14213  41.354   9.463   3.367
41789W        W14214  34.102  12.427   2.189
41790W        W14215   3.308  40.348   1.088
41791W        W14216  39.839  30.121   0.045
41792W        W14217  43.788  17.911   4.254
41793W        W14218  21.584  10.441  12.491
41794W        W14219   2.216  38.526  11.914
41795W        W14220  36.666  10.276  12.009
41796W        W14221  23.280  25.638   4.027
41797W        W14222  37.428  43.449  13.960
41798W        W14223   1.474  20.484   3.296
41799W        W14224  17.160  25.743   1.795
41800W        W14225  38.244  36.706   0.351
41801W        W14226  19.054  39.974  11.584
41802W        W14227   3.866  26.905   2.574
41803W        W14228  38.009   5.381  14.429
41804W        W14229  18.619  27.498  11.137
41805W        W14230  18.629   7.315  10.262
41806W        W14231  23.493  24.571  14.833
41807W        W14232  35.868  10.595  12.148
41808W        W14233   7.726  24.172  11.564
41809W        W14234  31.524  29.762   2.515
41810W        W14235  39.834  20.218  13.152
41811W        W14236  18.605   9.203  12.502
41812W        W14237  43.516   6.053   4.590
41813W        W14238   5.702  17.296  14.338
41814W        W14239   8.146  23.697   0.867
41815W        W14240  14.784  33.647  10.134
41816W        W14241  24.537  43.959  10.280
41817W        W14242  17.566  37.090   1.400
41818W        W14243   5.701   7.925  12.003
41819W        W14244  14.833  38.681  11.056
41820W        W14245   2.380  28.117   4.699
41821W        W14246  10.641   8.985   1.866
41822W        W14247  33.388  13.167   4.494
41823W        W14248  12.484  24.618   4.680
41824W        W14249  26.257  18.767  11.967
41825W        W14250  36.280   2.322  13.103
41826W        W14251   7.665  19.616   0.242
41827W        W14252  33.182  33.369  12.517
41828W        W14253  37.415  23.758  12.559
41829W        W14254  18.661  33.092   4.097
41830W        W14255   0.332  16.323   0.761
41831W        W14256  13.061  34.812   0.086
41832W        W14257  24.542  12.788  13.417
41833W        W14258  13.365  29.031  12.501
41834W        W14259  29.133   4.660   4.010
41835W        W14260  19.785  14.814   1.919
41836W        W14261  18.014   2.783  10.596
41837W        W14262  10.572  31.025  14.485
41838W        W14263   3.794  20.300  14.903
41839W        W14264   7.461  41.342  11.213
41840W        W14265  27.980  29.115  14.686
41841W        W14266  19.659  20.871  12.755
41842W        W14267   0.805  17.296   2.857
41843W        W14268   9.211  33.341  13.039
41844W        W14269  18.287  32.615  12.877
41845W        W14270  40.880  29.527  10.721
41846W        W14271  24.312  15.566   1.151
41847W        W14272  21.706   9.816  11.849
41848W        W14273  42.286  36.990   4.742
41849W        W14274   6.328  40.518   2.694
41850W        W14275  23.055  29.283   1.621
41851W        W14276  26.411  29.022   0.854
41852W        W14277  24.294  14.139  14.971
41853W        W14278  10.402  32.628   1.501
41854W        W14279  20.264   0.462  13.896
41855W        W14280  43.461   3.743  14.138
41856W        W14281   7.224   4.236  14.799
41857W        W14282  42.441  15.271  12.945
41858W        W14283  44.266  43.098  12.541
41859W        W14284   2.865  39.302   3.576
41860W        W14285   2.041  35.268  14.098
41861W        W14286  33.495   4.487   0.065
41862W        W14287  18.303  36.387   1.374
41863W        W14288  18.966  34.472  10.058
41864W        W14289  19.725  21.501  12.206
41865W        W14290  20.701  44.249   0.533
41866W        W14291  42.966   6.386  11.416
41867W        W14292  20.795  29.414  11.128
41868W        W14293  21.942  28.421   1.945
41869W        W14294  30.499  23.040   5.563
41870W        W14295  43.605   5.445   0.890
41871W        W14296   7.729  22.296   1.418
41872W        W14297   8.088  29.525   4.205
41873W        W14298  37.427  18.029   0.074
41874W        W14299  30.454  13.698   0.912
41875W        W14300   4.450  12.562  14.628
41876W        W14301   9.007  22.587  13.269
41877W        W14302  16.470   4.925  11.036
41878W        W14303  42.810  28.530  10.771
41879W        W14304  31.092  38.380  12.396
41880W        W14305  35.573  19.106   4.812
41881W        W14306  31.171  25.002   1.869
41882W        W14307  27.924  23.626  12.542
41883W        W14308  26.184  15.373  10.457
41884W        W14309  20.505  16.674   0.856
41885W        W14310  30.301   5.769  12.527
41886W        W14311  30.030   0.327  12.563
41887W        W14312   1.741  21.624  10.654
41888W        W14313   6.444  34.627  12.788
41889W        W14314  24.596  37.648  13.829
41890W        W14315   6.902  14.055   0.446
41891W        W14316  42.863  25.251  14.989
41892W        W14317  41.356  19.096  13.032
41893W        W14318  26.578  37.792  14.885
41894W        W14319   3.051   3.255   1.343
41895W        W14320  19.219  23.637  12.599
41896W        W14321  12.417  25.767   3.112
41897W        W14322   6.959  34.011   0.265
41898W        W14323   3.382   6.914  14.864
41899W        W14324   3.541   8.255  12.607
41900W        W14325   4.516  33.998  14.298
41901W        W14326   6.797  19.628   0.986
41902W        W14327   2.309  11.655   0.524
41903W        W14328  42.688  24.051   5.299
41904W        W14329  29.660  30.103  11.066
41905W        W14330  34.973  44.411   2.800
41906W        W14331  30.087  10.239  10.473
41907W        W14332  19.179   9.773  11.429
41908W        W14333   2.888  13.077   2.395
41909W        W14334  42.273  25.465  12.220
41910W        W14335  32.520  19.476   2.682
41911W        W14336  10.318  39.295  14.276
41912W        W14337  28.724  22.518  10.681
41913W        W14338  15.528  25.741  13.032
41914W        W14339  10.569  15.208  13.929
41915W        W14340  35.618  30.122  11.924
41916W        W14341  26.190  11.286   3.943
41917W        W14342  23.957  25.989  12.060
41918W        W14343  12.377   1.280  10.738
41919W        W14344  32.015  14.766   4.149
41920W        W14345  19.448  11.141  14.885
41921W        W14346  13.809   5.857  14.062
41922W        W14347  28.960  33.279  13.453
41923W        W14348  32.961  39.056   1.213
41924W        W14349  25.242   3.743   4.069
41925W        W14350  15.052   2.692   4.220
41926W        W14351  12.731  14.270   1.230
41927W        W14352  26.728   2.443  11.428
41928W        W14353  24.922  37.982   5.149
41929W        W14354   3.900   5.918   0.198
41930W        W14355  11.594   5.932  12.099
41931W        W14356  20.609  21.042   2.261
41932W        W14357  26.386  10.974  12.312
41933W        W14358   4.224   9.835   1.250
41934W        W14359  25.485   5.935  13.343
41935W        W14360   6.837  13.709  14.470
41936W        W14361  39.936  23.937   2.966
41937W        W14362  19.188  37.392  14.322
41938W        W14363  25.664   7.646   4.157
41939W        W14364  36.479  11.040   2.163
41940W        W14365  14.300  30.418  10.771
41941W        W14366  12.846   8.037   3.782
41942W        W14367  15.641  19.066  10.550
41943W        W14368  14.058  32.533  10.159
41944W        W14369  36.763  28.171   2.692
41945W        W14370  37.851  21.165  10.457
41946W        W14371  35.454   7.476   1.471
41947W        W14372   9.359  23.746  11.533
41948W        W14373  23.918  22.483   5.247
41949W        W14374  26.798   2.690   2.363
41950W        W14375  12.927  13.236   3.877
41951W        W14376   9.714   8.342  12.720
41952W        W14377  19.716  18.825  10.708
41953W        W14378   4.558  40.043   2.381
41954W        W14379  30.710   7.321  11.748
41955W        W14380  32.956  12.875   4.168
41956W        W14381  20.719  10.410  10.476
41957W        W14382   0.282  13.816   3.430
41958W        W14383  18.930  38.306   2.673
41959W        W14384   3.882  19.603  10.529
41960W        W14385  44.814  23.260  10.637
41961W        W14386   2.148  38.405  11.421
41962W        W14387   4.876   9.569  12.992
41963W        W14388   9.180  27.506  12.108
41964W        W14389   6.481  11.174  13.569
41965W        W14390   9.724  36.530   4.345
41966W        W14391  44.394  35.993   0.562
41967W        W14392   2.854  33.808  14.811
41968W        W14393  14.685  15.144  11.535
41969W        W14394  36.622  44.705  13.409
41970W        W14395  22.035  30.429   2.706
41971W        W14396  19.096   7.759   0.367
41972W        W14397  42.399  35.797   1.220
41973W        W14398  22.706  42.025   0.311
41974W        W14399   9.266  40.204  13.473
41975W        W14400   2.389  19.488   5.050
41976W        W14401  38.895  26.474   3.578
41977W        W14402   0.466   2.197   0.187
41978W        W14403  20.030  29.602  13.397
41979W        W14404  33.477   4.661   3.239
41980W        W14405  36.990  33.003  12.096
41981W        W14406  19.583  24.091  10.904
41982W        W14407  18.978  20.254  10.532
41983W        W14408  44.278  38.606   2.529
41984W        W14409   3.283  34.393  12.009
41985W        W14410  11.186  25.639  12.382
41986W        W14411  20.190   4.181  11.622
41987W        W14412   5.137  43.933  12.000
41988W        W14413  20.205   6.405   4.705
41989W        W14414  24.458   1.058   5.194
41990W        W14415  23.110  35.329  13.444
41991W        W14416  29.057  10.760  14.439
41992W        W14417   9.134  21.492  14.253
41993W        W14418   1.865  42.625  10.610
41994W        W14419  23.366  24.397   0.707
41995W        W14420  26.884   9.663   4.608
41996W        W14421  38.074  17.315   2.005
41997W        W14422   3.473   1.920   0.464
41998W        W14423  11.269  24.285  14.499
41999W        W14424  39.939  21.296   0.336
42000W        W14425   0.425  25.036   5.007
42001W        W14426   5.478   6.135   2.344
42002W        W14427  42.451  44.968  13.921
42003W        W14428   8.697  26.736  14.343
42004W        W14429  24.671  40.415  12.987
42005W        W14430  20.345  18.246   3.077
42006W        W14431  39.335  39.098  12.352
42007W        W14432   5.009   2.393   3.730
42008W        W14433   0.279  23.427  13.941
42009W        W14434  24.219   3.687  12.769
42010W        W14435  44.808  33.711  11.031
42011W        W14436  42.488  19.769   3.586
42012W        W14437  36.244  16.943  13.247
42013W        W14438  20.515   8.312   1.814
42014W        W14439  35.175  42.012  13.100
42015W        W14440  35.037  25.677  14.468
42016W        W14441  38.453  36.269   0.858
42017W        W14442  40.233  18.626  14.588
42018W        W14443  26.394  42.499  14.779
42019W        W14444  30.093  29.166   3.323
42020W        W14445  18.154   2.424   0.194
42021W        W14446   0.077  19.968  14.866
42022W        W14447  38.299  12.391   1.693
42023W        W14448  31.062  11.168  12.026
42024W        W14449   9.262  11.900  11.542
42025W        W14450  22.516  44.093   4.939
42026W        W14451  24.376  30.673  12.013
42027W        W14452  25.985  14.681   1.209
42028W        W14453   2.043  35.536   3.633
42029W        W14454  40.154  20.682  10.190
42030W        W14455  25.287  43.337  14.327
42031W        W14456  24.230  10.121   3.198
42032W        W14457   6.125  19.082  12.152
42033W        W14458  36.041  25.406  10.758
42034W        W14459  22.008  16.154  13.361
42035W        W14460  38.328  20.583  11.163
42036W        W14461   4.314  11.853   3.732
42037W        W14462  34.475   8.868  12.519
42038W        W14463  21.076  32.105  14.018
42039W        W14464  32.689  22.587  12.008
42040W        W14465   0.675  29.382  13.337
42041W        W14466  12.620  29.141   3.184
42042W        W14467   5.771  16.885   1.920
42043W        W14468  15.020  27.985   1.317
42044W        W14469  25.933  11.615  13.960
42045W        W14470  31.466   2.662  11.458
42046W        W14471  24.196   4.681   1.932
42047W        W14472  24.934  17.702  14.533
42048W        W14473   2.375  36.990   1.208
42049W        W14474  43.448  18.944  13.971
42050W        W14475  29.440   2.989  11.033
42051W        W14476  21.990  41.433   3.842
42052W        W14477  24.191   3.754   4.252
42053W        W14478  27.180   0.709   3.249
42054W        W14479  32.032  19.224   4.394
42055W        W14480   5.644  35.828   2.901
42056W        W14481   4.216  15.821  14.891
42057W        W14482  13.878  29.465  10.765
42058W        W14483  22.190  30.718  14.989
42059W        W14484  11.058  12.400  11.906
42060W        W14485  26.556  33.078  10.625
42061W        W14486   6.394  10.758   0.427
42062W        W14487  26.247   2.770   4.623
42063W        W14488   7.983  31.531   4.700
42064W        W14489  44.944   3.249   0.851
42065W        W14490   8.325  27.762  12.265
42066W        W14491  19.036  43.835   2.831
42067W        W14492  21.536   8.445   1.410
42068W        W14493   6.702  44.759  11.455
42069W        W14494  24.021  36.565   4.810
42070W        W14495  36.364  20.555  12.049
42071W        W14496  22.541  39.860   3.749
42072W        W14497   0.370   6.164   2.365
42073W        W14498   2.405  18.229   0.751
42074W        W14499  42.265   7.900  11.596
42075W        W14500  24.281  30.159  10.636
42076W        W14501  44.706   4.435  14.088
42077W        W14502  25.044  16.222  13.799
42078W        W14503  13.624  41.816   3.281
42079W        W14504  44.944  22.607   3.854
42080W        W14505   4.785  24.044   5.091
42081W        W14506  36.282   0.796   1.861
42082W        W14507  20.229  27.286   3.731
42083W        W14508  25.117  25.054   2.574
42084W        W14509  37.602  43.583  11.599
42085W        W14510  23.988   2.212   3.609
42086W        W14511  26.648   7.312   2.702
42087W        W14512   2.648  17.596   3.782
42088W        W14513  41.228  27.448  12.731
42089W        W14514  34.904  25.422   3.250
42090W        W14515  40.126  35.722   3.475
42091W        W14516   8.931   8.436  13.533
42092W        W14517  12.829  17.119  14.901
42093W        W14518  29.322  15.134   1.983
42094W        W14519  35.513  33.491  13.723
42095W        W14520  42.366  16.536  10.696
42096W        W14521   6.490  12.692   0.194
42097W        W14522   1.342   9.932  10.707
42098W        W14523   9.703  10.101  12.986
42099W        W14524   1.910  19.167  13.087
42100W        W14525  12.377  42.759   1.883
42101W        W14526  36.640  28.890   4.197
42102W        W14527  43.001   0.464   0.410
42103W        W14528   2.843  19.526   2.335
42104W        W14529  20.152  10.387   4.620
42105W        W14530   8.343  16.355   3.621
42106W        W14531  39.251  34.963   2.318
42107W        W14532  34.574  26.577   2.797
42108W        W14533   0.523  26.952  12.505
42109W        W14534  34.596  11.816   1.291
42110W        W14535  14.928  33.034   4.026
42111W        W14536  35.530  21.593   0.902
42112W        W14537  34.816  14.778  14.973
42113W        W14538  37.438  29.593  10.528
42114W        W14539   9.655  13.031  12.023
42115W        W14540  37.511  38.840   0.635
42116W        W14541  42.515  32.382  14.538
42117W        W14542  43.271  20.579   1.244
42118W        W14543  20.963  39.848  11.124
42119W        W14544  31.059  23.445   1.875
42120W        W14545  33.946  31.099  14.092
42121W        W14546  38.916  42.764  14.505
42122W        W14547  29.464  12.434  14.822
42123W        W14548  35.990  35.899   1.052
42124W        W14549  32.588  29.388   1.751
42125W        W14550  15.606  19.154   1.642
42126W        W14551  29.874  43.883  11.053
42127W        W14552  13.174  18.511  11.897
42128W        W14553  20.858  20.592  14.113
42129W        W14554   6.293  23.039   1.807
42130W        W14555  37.089  13.917   3.555
42131W        W14556   0.047  22.687  14.486
42132W        W14557  24.257  35.525  12.157
42133W        W14558   2.668  36.133   1.244
42134W        W14559  43.990  28.061  10.672
42135W        W14560  31.450   3.398   4.413
42136W        W14561  22.391  17.359   5.024
42137W        W14562  35.982  28.966  10.591
42138W        W14563   7.662  39.972   0.294
42139W        W14564  34.766  22.403   9.831
42140W        W14565  38.017  35.357   4.316
42141W        W14566  24.486   9.447  14.373
42142W        W14567  18.974  37.682  11.183
42143W        W14568  28.516  17.164   3.223
42144W        W14569  44.803  19.239   4.705
42145W        W14570  29.945  36.558   4.293
42146W        W14571  19.112  19.623   1.924
42147W        W14572  17.103  40.603   4.182
42148W        W14573   1.991  11.221   4.589
42149W        W14574  41.727  43.571  14.035
42150W        W14575  43.403  29.914  11.937
42151W        W14576   2.935   8.168   1.804
42152W        W14577  39.749   2.325   1.994
42153W        W14578  38.140  36.630   4.846
42154W        W14579  38.380  37.608   2.268
42155W        W14580  29.365  40.541  14.629
42156W        W14581  30.907  16.641   0.402
42157W        W14582  17.294  40.255  13.641
42158W        W14583  17.281  11.481   1.868
42159W        W14584  41.441  40.320   2.198
42160W        W14585  42.746  35.470  14.006
42161W        W14586  38.842  35.242  11.541
42162W        W14587  42.842  14.922   0.196
42163W        W14588  11.702  15.851   5.185
42164W        W14589   8.437  12.874   0.842
42165W        W14590  37.979   1.161   1.325
42166W        W14591  26.233  41.743  13.088
42167W        W14592  43.381   3.716   0.480
42168W        W14593  23.040  37.362  13.013
42169W        W14594  10.608   1.306   4.199
42170W        W14595  36.473  41.343   0.872
42171W        W14596  12.602  26.791  12.971
42172W        W14597  13.844  37.201  10.748
42173W        W14598  41.495  20.577  10.658
42174W        W14599   1.248   7.956   1.308
42175W        W14600  27.754  12.055   0.029
42176W        W14601  18.089  44.768  12.628
42177W        W14602  32.649  36.624   2.425
42178W        W14603  31.567  23.179   0.335
42179W        W14604  16.646  38.844   3.733
42180W        W14605  27.191   7.887   1.313
42181W        W14606   1.429   7.783   4.542
42182W        W14607   5.892  33.174  11.208
42183W        W14608  35.010  17.025  11.762
42184W        W14609   2.052  21.811   1.843
42185W        W14610  26.873  19.509  13.417
42186W        W14611  36.443   2.392  13.585
42187W        W14612   2.232   3.477   5.181
42188W        W14613  16.794  14.066   0.460
42189W        W14614   4.225   7.369  13.077
42190W        W14615  26.050  35.042   2.300
42191W        W14616  20.627  39.402   1.691
42192W        W14617   1.319  32.235   1.302
42193W        W14618   3.398  35.433  13.119
42194W        W14619  29.737   4.196  14.629
42195W        W14620  39.320  25.106  11.416
42196W        W14621   7.126  13.119  13.885
42197W        W14622  38.782  32.364  11.131
42198W        W14623  39.431  21.294   2.172
42199W        W14624  16.705  17.364   1.712
42200W        W14625  10.142  31.983   3.245
42201W        W14626  17.996  38.420  11.891
42202W        W14627  34.547  10.391  12.378
42203W        W14628  44.421  31.340  13.878
42204W        W14629  43.757   9.882   3.282
42205W        W14630  39.762   4.275  13.490
42206W        W14631  24.173  39.777  12.437
42207W        W14632  30.844   1.456   1.745
42208W        W14633  26.680  25.068  14.877
42209W        W14634  43.511   9.461  10.972
42210W        W14635   4.645  16.229   4.295
42211W        W14636  13.237  33.076   0.128
42212W        W14637   5.562   5.982   0.050
42213W        W14638   5.812  42.533  12.721
42214W        W14639  43.829  11.292  12.092
42215W        W14640  28.684   6.861  10.242
42216W        W14641  19.271  16.147   4.081
42217W        W14642  19.705  13.614  14.110
42218W        W14643  22.491  32.141   5.044
42219W        W14644  38.443  10.353  14.879
42220W        W14645  16.264  11.673   0.642
42221W        W14646   0.869   2.750  11.998
42222W        W14647   5.424  33.664  14.814
42223W        W14648  19.862  27.610  11.589
42224W        W14649  34.807   2.229  12.201
42225W        W14650  30.046  22.917   0.481
42226W        W14651   7.905   4.110   1.007
42227W        W14652  38.542   1.332   4.683
42228W        W14653  11.100  30.698   0.346
42229W        W14654   0.437  43.021   5.036
42230W        W14655  22.592  10.396   2.504
42231W        W14656  31.760  39.657   2.481
42232W        W14657  14.761  16.306   2.872
42233W        W14658  39.266  25.101   1.887
42234W        W14659  23.751  44.129  13.895
42235W        W14660  43.743   3.763  10.392
42236W        W14661   4.154   3.237   2.759
42237W        W14662  42.432  16.137  12.728
42238W        W14663  33.470   7.667   3.076
42239W        W14664  38.616  18.049  12.507
42240W        W14665  15.760  19.659  11.969
42241W        W14666  26.132  27.192   0.923
42242W        W14667  18.692  35.898  10.981
42243W        W14668  31.231  11.092  12.992
42244W        W14669  26.644   6.813  11.205
42245W        W14670  16.950  19.544  11.129
42246W        W14671   7.067  40.731  12.752
42247W        W14672  37.203  12.693  10.375
42248W        W14673  36.014  19.983  13.497
42249W        W14674  39.827  38.814   2.296
42250W        W14675   2.950  20.704  11.835
42251W        W14676  27.157  31.294   4.141
42252W        W14677  30.026  28.246  11.639
42253W        W14678  14.199  23.522  13.032
42254W        W14679   6.542   8.713   9.722
42255W        W14680  42.563  17.589   4.145
42256W        W14681  14.643  17.965  10.327
42257W        W14682  44.581  40.539   3.104
42258W        W14683   7.928  40.881  12.688
42259W        W14684  21.729  11.869  14.109
42260W        W14685   4.410  36.802  11.514
42261W        W14686  20.215  37.904   0.886
42262W        W14687  16.940  17.748  11.022
42263W        W14688  36.163   2.129   2.677
42264W        W14689   3.397  40.450  13.261
42265W        W14690  31.039   6.111  10.754
42266W        W14691  15.857  13.328  11.093
42267W        W14692  32.012  22.231  13.526
42268W        W14693  26.662  15.362   1.528
42269W        W14694  25.121  34.896   2.433
42270W        W14695  34.686  26.159   0.772
42271W        W14696  14.811  28.267  11.194
42272W        W14697  21.497  29.260   1.812
42273W        W14698  14.143  32.175  14.240
42274W        W14699  10.147  33.357  11.644
42275W        W14700  20.245  21.529  11.997
42276W        W14701  22.607  36.953   2.692
42277W        W14702  40.917   2.710   0.859
42278W        W14703  19.225  16.428   4.552
42279W        W14704  43.070  30.742  11.297
42280W        W14705  22.427  37.998  10.160
42281W        W14706  42.973  12.799  11.933
42282W        W14707   8.181  12.797  11.544
42283W        W14708   3.008   7.293   4.580
42284W        W14709  42.059  12.372   3.347
42285W        W14710  15.292  38.533  13.879
42286W        W14711  19.313  37.793  14.662
42287W        W14712  38.362  31.548   3.206
42288W        W14713  17.835  32.930  13.764
42289W        W14714  42.047   7.914  10.702
42290W        W14715   2.338  11.600   1.894
42291W        W14716   3.670   7.815  14.859
42292W        W14717  25.778  33.438   1.898
42293W        W14718  20.302  18.871  13.892
42294W        W14719  11.827  41.904   5.107
42295W        W14720  30.586  17.802   1.951
42296W        W14721  31.626  29.520   4.121
42297W        W14722   3.678  20.012   0.353
42298W        W14723  13.401  36.489   2.789
42299W        W14724  30.241  25.723  13.547
42300W        W14725  12.725  19.554  10.805
42301W        W14726  11.403   6.881   1.698
42302W        W14727  10.808  15.903  11.805
42303W        W14728  15.221   5.571   4.175
42304W        W14729  15.241  44.648   1.304
42305W        W14730  44.665  32.219  11.128
42306W        W14731  32.305   1.676   5.058
42307W        W14732  42.971  33.033   3.637
42308W        W14733  26.724  36.574  11.256
42309W        W14734   3.458   1.238  11.213
42310W        W14735  29.653  30.444   4.638
42311W        W14736  40.891   5.630   3.705
42312W        W14737  42.527  39.307   4.585
42313W        W14738  32.608  37.372  13.037
42314W        W14739  12.818   0.242   2.147
42315W        W14740  44.461   7.165  10.224
42316W        W14741  13.801  24.433   2.819
42317W        W14742  12.325  29.685  12.559
42318W        W14743   2.412   2.171   2.857
42319W        W14744   7.350   2.318  14.702
42320W        W14745  14.600  11.115   4.241
42321W        W14746   2.507  42.958  12.539
42322W        W14747  40.346   5.729   4.073
42323W        W14748  18.296   5.411   4.389
42324W        W14749   1.219  10.590   2.423
42325W        W14750  10.864  25.132   4.164
42326W        W14751  15.091  25.771  10.652
42327W        W14752  13.206  19.511   4.054
42328W        W14753   6.922  25.180  14.904
42329W        W14754   7.127  15.356  12.446
42330W        W14755  41.836  27.640  13.370
42331W        W14756  14.297  34.051  12.598
42332W        W14757  27.950  40.788   2.762
42333W        W14758   9.590   3.314   0.611
42334W        W14759  16.606  13.091  11.943
42335W        W14760  35.959  22.636  13.061
42336W        W14761  10.740  37.951   3.784
42337W        W14762   9.923  12.146   2.621
42338W        W14763  16.698  14.601   0.482
42339W        W14764  14.085  19.789   0.237
42340W        W14765  25.044  26.505   2.761
42341W        W14766  30.146  38.463  10.702
42342W        W14767  18.585  27.234   1.342
42343W        W14768  28.300  19.382   4.775
42344W        W14769   4.875  39.425  11.968
42345W        W14770  17.600  26.785  12.907
42346W        W14771   2.438   8.765  13.893
42347W        W14772  31.613  32.541   4.735
42348W        W14773  10.123  27.463   2.249
42349W        W14774  37.386  21.654  14.340
42350W        W14775   5.158  39.507   2.662
42351W        W14776  25.211  23.482   2.817
42352W        W14777  35.285  24.709  14.382
42353W        W14778  40.497  29.970   4.426
42354W        W14779  20.087  14.333   3.154
42355W        W14780   0.899   8.046   1.693
42356W        W14781  43.679   3.381  10.045
42357W        W14782  22.557  23.720   4.519
42358W        W14783  29.401  15.176   0.186
42359W        W14784   3.417  40.828  11.617
42360W        W14785  35.864  39.378   0.248
42361W        W14786  33.340  14.524   4.516
42362W        W14787   4.831  16.621  11.854
42363W        W14788   5.338  35.724   3.323
42364W        W14789  22.924  11.248   4.166
42365W        W14790  26.359   4.559   0.297
42366W        W14791   3.352  14.719   1.697
42367W        W14792  44.018   6.492  12.306
42368W        W14793  38.842  23.591  12.146
42369W        W14794  27.960   1.493   3.320
42370W        W14795   6.359   8.312  10.939
42371W        W14796  31.680  11.575   4.413
42372W        W14797  39.300  32.019  13.324
42373W        W14798   3.212  18.297   3.207
42374W        W14799  27.958  31.979   1.808
42375W        W14800  43.568  19.994  10.107
42376W        W14801  25.571  42.231  13.671
42377W        W14802  24.295  36.073   0.361
42378W        W14803  18.089  42.477  12.618
42379W        W14804  33.107  37.765   0.263
42380W        W14805  25.517  23.717  10.730
42381W        W14806  33.486  42.785   4.236
42382W        W14807  36.373  38.126  10.542
42383W        W14808  33.258  28.336   0.327
42384W        W14809  27.041  23.526   1.831
42385W        W14810  32.786  19.582   3.159
42386W        W14811  29.999  26.203  14.442
42387W        W14812  38.306  12.266   0.376
42388W        W14813   0.356  27.681   0.827
42389W        W14814  24.080   4.219  11.348
42390W        W14815  14.437  12.052   1.472
42391W        W14816  28.450  22.612  14.426
42392W        W14817   7.822  27.968   3.199
42393W        W14818  35.181  37.596  12.053
42394W        W14819  38.315  27.582   2.389
42395W        W14820  20.155  33.319  12.712
42396W        W14821   5.441  39.695   3.701
42397W        W14822  26.553   9.616   3.372
42398W        W14823  12.129   6.650  11.923
42399W        W14824  34.942  32.014  13.364
42400W        W14825  41.839   7.233  12.586
42401W        W14826   6.920   7.673   4.173
42402W        W14827  39.088  33.918  14.328
42403W        W14828  29.594  31.577   3.312
42404W        W14829   2.127   1.064   3.726
42405W        W14830  18.798  42.530   2.733
42406W        W14831  43.442   9.885  11.988
42407W        W14832  36.749   6.200   5.487
42408W        W14833  25.884   7.252  14.067
42409W        W14834  37.453  31.049  10.719
42410W        W14835  22.602   7.335   0.959
42411W        W14836  19.374  11.914   4.528
42412W        W14837   2.865  14.143   2.323
42413W        W14838   5.305   5.806  12.467
42414W        W14839  33.880  24.962  12.895
42415W        W14840  39.243  33.184   4.535
42416W        W14841  32.113  36.952  13.890
42417W        W14842  27.687  25.220  13.838
42418W        W14843  33.900  10.838   1.837
42419W        W14844  11.167   2.526  14.887
42420W        W14845  32.001   1.604   4.216
42421W        W14846  12.602  14.325   1.971
42422W        W14847  41.515  30.877  11.286
42423W        W14848  24.081  31.130  13.094
42424W        W14849  40.126  36.036   1.350
42425W        W14850   9.814  11.130   0.174
42426W        W14851  22.334  25.447   1.907
42427W        W14852   6.847  31.925  14.224
42428W        W14853  42.330  10.247  11.588
42429W        W14854  24.534  24.295   1.457
42430W        W14855  28.007  38.739  12.825
42431W        W14856  14.631   6.673   3.310
42432W        W14857  28.725  12.173   0.990
42433W        W14858  36.192  44.821   4.399
42434W        W14859  14.277  10.426  12.908
42435W        W14860  16.851  22.100  13.237
42436W        W14861   0.513  32.927  14.451
42437W        W14862  20.049  44.695   3.727
42438W        W14863  10.678  14.863   3.559
42439W        W14864  11.372   2.363  13.310
42440W        W14865  18.050  34.874   2.397
42441W        W14866  43.283   9.178   3.433
42442W        W14867   4.746  26.293   1.363
42443W        W14868  36.544  31.185  12.649
42444W        W14869  37.432  15.306   4.959
42445W        W14870  12.213  24.215   1.273
42446W        W14871  14.577  15.273   3.853
42447W        W14872   2.048  37.215  11.077
42448W        W14873  25.679  21.642   3.683
42449W        W14874  19.700   5.423   0.713
42450W        W14875  31.612  37.407  14.521
42451W        W14876  37.283   0.543  13.971
42452W        W14877  39.932  42.535   0.284
42453W        W14878  15.838   7.656   0.018
42454W        W14879   8.515  28.437   0.384
42455W        W14880  15.074  44.344   3.697
42456W        W14881   4.319  21.615  12.581
42457W        W14882   0.945  24.673   0.296
42458W        W14883  22.239  21.350   2.362
42459W        W14884  42.377   2.090  11.211
42460W        W14885  34.057  12.946  11.568
42461W        W14886  33.676  24.506  14.731
42462W        W14887  19.301   9.870  12.376
42463W        W14888  28.019  42.557   4.341
42464W        W14889  35.671  42.565  14.608
42465W        W14890  31.925  40.006   4.424
42466W        W14891  34.964  39.078  13.973
42467W        W14892  14.099  14.569  14.103
42468W        W14893  41.589  26.901   2.761
42469W        W14894  30.476  15.672   4.334
42470W        W14895   1.569  40.424   3.335
42471W        W14896  17.799  24.540   4.578
42472W        W14897  19.821  24.187  12.125
42473W        W14898   0.031   2.725   3.124
42474W        W14899  16.928  27.387   3.119
42475W        W14900  43.057  36.301  10.803
42476W        W14901   3.520  26.607  10.176
42477W        W14902  32.352   5.512   3.247
42478W        W14903  22.615  30.004   1.041
42479W        W14904  32.359  12.721   0.928
42480W        W14905   9.836  14.597  14.963
42481W        W14906  15.105  27.359  12.155
42482W        W14907  22.654  31.457  14.935
42483W        W14908  21.370  34.130  11.473
42484W        W14909  42.244  21.670  10.993
42485W        W14910  31.980  25.025   2.270
42486W        W14911  23.983  26.169   1.861
42487W        W14912  10.723  34.041   0.436
42488W        W14913  10.357   6.788   0.396
42489W        W14914  36.836  23.622   2.574
42490W        W14915  10.774  14.668  12.993
42491W        W14916  40.001   6.709  12.089
42492W        W14917   2.692  19.741   4.655
42493W        W14918  22.316   8.945   1.915
42494W        W14919  35.344   4.747  14.506
42495W        W14920  31.667  11.887  10.602
42496W        W14921  33.369  10.770  13.441
42497W        W14922  12.413  26.654   0.803
42498W        W14923  25.397  32.991   0.418
42499W        W14924  31.433  27.229   4.888
42500W        W14925   3.623  14.580   2.708
42501W        W14926   3.178  11.770   2.632
42502W        W14927  34.789  13.550  11.220
42503W        W14928  16.174  15.614   2.812
42504W        W14929  14.631  40.043   1.404
42505W        W14930   3.265  19.013  14.860
42506W        W14931  41.018  29.052  13.474
42507W        W14932  18.713  41.374   0.438
42508W        W14933  38.350   2.463   3.408
42509W        W14934  18.722  15.590   3.532
42510W        W14935  25.544  26.044  13.925
42511W        W14936   8.706  37.845   3.327
42512W        W14937  19.641  16.815  10.782
42513W        W14938   4.628   2.257  11.057
42514W        W14939  18.797  21.735   4.055
42515W        W14940  44.184  41.482  13.532
42516W        W14941   3.806  27.938   2.819
42517W        W14942  14.608  14.830   2.172
42518W        W14943   4.216  10.219  11.111
42519W        W14944  36.521  19.289  11.518
42520W        W14945  13.882  31.618   2.148
42521W        W14946  24.050  11.380  12.174
42522W        W14947   5.770  29.655  13.260
42523W        W14948  41.821  41.048   0.829
42524W        W14949  16.794  26.088   2.630
42525W        W14950  27.222  44.283  13.369
42526W        W14951  30.783  24.005  12.770
42527W        W14952  43.709  30.095  11.499
42528W        W14953  44.260  27.862   3.615
42529W        W14954  22.239   3.820   2.660
42530W        W14955   9.233  21.014   0.195
42531W        W14956  15.743  18.507   4.070
42532W        W14957   7.295  20.118   4.447
42533W        W14958  34.618  18.386  14.269
42534W        W14959  29.696  22.670  13.043
42535W        W14960  22.114  28.115   2.324
42536W        W14961  43.970  13.980   4.881
42537W        W14962   9.337  40.033   2.400
42538W        W14963  43.992  34.974   2.640
42539W        W14964  33.365  44.492   2.419
42540W        W14965  36.418  41.438  13.231
42541W        W14966  20.141  41.176   1.742
42542W        W14967  23.510  34.288  13.026
42543W        W14968  34.206  41.808  13.222
42544W        W14969  18.125   6.718  11.795
42545W        W14970   6.841   3.182   1.371
42546W        W14971  20.190   2.652  12.857
42547W        W14972  29.099  24.782   9.527
42548W        W14973  22.619  36.106   1.746
42549W        W14974  15.891  33.100  12.010
42550W        W14975  43.933  33.602   9.975
42551W        W14976  44.264  30.647  12.007
42552W        W14977  31.338  12.676   3.112
42553W        W14978  15.903  35.914   0.675
42554W        W14979  18.412  27.124   0.866
42555W        W14980  37.857  29.188  13.176
42556W        W14981  32.040  14.170   2.772
42557W        W14982   6.402  33.900  12.184
42558W        W14983  42.520  17.248   1.251
42559W        W14984  15.383  19.310  14.411
42560W        W14985   3.659  41.038   1.401
42561W        W14986  14.606   8.118   1.027
42562W        W14987  11.849  15.303   1.141
42563W        W14988  25.456   3.615   2.395
42564W        W14989  35.828  25.916   4.574
42565W        W14990  18.079  26.582   2.343
42566W        W14991  14.740   1.234   4.575
42567W        W14992   4.803  17.514   5.161
42568W        W14993  29.610  21.507   2.893
42569W        W14994  37.861  44.106   0.890
42570W        W14995  38.061  26.623  10.450
42571W        W14996   6.639  43.541   2.907
42572W        W14997  30.445  40.579  13.430
42573W        W14998  44.022   0.216  12.778
42574W        W14999   9.794  30.904  14.017
42575W        W15000  13.716   0.919  14.127
42576W        W15001  43.720   9.865  14.772
42577W        W15002   4.316  38.959  11.455
42578W        W15003  29.586  41.812   1.654
42579W        W15004  40.415  44.910  11.146
42580W        W15005  41.005  22.110   3.834
42581W        W15006  16.100  26.438  11.523
42582W        W15007   3.717  44.258   3.342
42583W        W15008  29.499  39.369   2.431
42584W        W15009   8.692  33.000   1.792
42585W        W15010  38.721   5.106   0.813
42586W        W15011  27.534  37.483   3.743
42587W        W15012   3.195  41.389  13.613
42588W        W15013  18.533  15.898  13.061
42589W        W15014  20.557  20.358   1.495
42590W        W15015  30.612  26.658   1.309
42591W        W15016  33.934  44.031   1.660
42592W        W15017  38.329  11.784  11.397
42593W        W15018  38.761   5.735   3.724
42594W        W15019  43.119  22.863  10.201
42595W        W15020  14.241  15.572  13.818
42596W        W15021   3.944   3.727   4.727
42597W        W15022   3.910  22.995   0.386
42598W        W15023  25.688  23.422  13.370
42599W        W15024   2.253  18.294   2.250
42600W        W15025  15.812   7.298   2.199
42601W        W15026  27.557  10.891   3.616
42602W        W15027  16.633   4.149  11.447
42603W        W15028   7.517  36.475   2.708
42604W        W15029  29.577  23.206  13.279
42605W        W15030  19.259  31.612  11.673
42606W        W15031  25.984   3.471  14.785
42607W        W15032  34.966  11.750  12.981
42608W        W15033  44.160   1.022   0.816
42609W        W15034  18.788   4.323   3.397
42610W        W15035  18.399  17.672   3.107
42611W        W15036  32.925   6.728  11.443
42612W        W15037  15.429  27.117  10.605
42613W        W15038  36.377  44.823  12.952
42614W        W15039  37.946  31.610  11.320
42615W        W15040  42.837  33.423   0.612
42616W        W15041  20.542  38.269   4.106
42617W        W15042   1.839   7.926   3.105
42618W        W15043  33.665  30.632   4.147
42619W        W15044  10.727  20.550  14.630
42620W        W15045  15.693   9.093  10.432
42621W        W15046  17.275   2.893  13.421
42622W        W15047   1.659   9.581   0.791
42623W        W15048  12.179  10.207  11.894
42624W        W15049  37.679  42.356   0.734
42625W        W15050  40.831  42.239   2.275
42626W        W15051  18.624  22.150  11.193
42627W        W15052  44.207  25.594  14.165
42628W        W15053   6.344   1.404   4.032
42629W        W15054  31.533  24.645   1.837
42630W        W15055  25.587  35.390  11.185
42631W        W15056  24.122   0.197  12.099
42632W        W15057  17.909   3.957   2.444
42633W        W15058  42.028  26.730   4.255
42634W        W15059  32.128  26.468   4.138
42635W        W15060  34.465   3.662   3.775
42636W        W15061  39.290  26.625  13.927
42637W        W15062  35.561  29.725  13.139
42638W        W15063  43.881   5.351  10.889
42639W        W15064  28.432  25.748  11.829
42640W        W15065  20.548  15.327  13.081
42641W        W15066  24.787  13.897   1.822
42642W        W15067  20.569  23.831  14.396
42643W        W15068  36.084  44.876  11.490
42644W        W15069  15.121  10.279  11.939
42645W        W15070  44.198  13.813  14.414
42646W        W15071  35.984  21.641   4.858
42647W        W15072  32.477   7.702  11.738
42648W        W15073   3.999  16.214  10.726
42649W        W15074  40.492  44.379   0.261
42650W        W15075   3.644   5.400   4.947
42651W        W15076   9.083  42.304   3.249
42652W        W15077  21.626  14.491   4.215
42653W        W15078  24.610   3.317  14.316
42654W        W15079   7.629   8.951   2.807
42655W        W15080   9.779  25.399   4.931
42656W        W15081  25.760  32.573   1.914
42657W        W15082  39.086   3.717   0.299
42658W        W15083  16.282  27.565   4.540
42659W        W15084  42.541  15.778   1.246
42660W        W15085  10.265  19.857  14.957
42661W        W15086  35.399  22.794   3.183
42662W        W15087  32.622  19.825  12.467
42663W        W15088  38.336  19.246  13.896
42664W        W15089   7.872  27.477   2.007
42665W        W15090   1.800  10.253  14.988
42666W        W15091  35.440  25.484  12.988
42667W        W15092  35.115   7.074  14.450
42668W        W15093  19.700  28.222  13.107
42669W        W15094  40.533  23.174  14.840
42670W        W15095   7.865  43.178   3.196
42671W        W15096  29.149  21.649   3.686
42672W        W15097   7.760  34.997  14.068
42673W        W15098  35.889  38.812  12.693
42674W        W15099  34.600  11.345  13.447
42675W        W15100  35.399  41.624   2.791
42676W        W15101  30.586   6.643  14.004
42677W        W15102  39.104  42.559   2.784
42678W        W15103  36.476  24.722  11.681
42679W        W15104  14.801   6.684  11.594
42680W        W15105   0.224  28.419   1.913
42681W        W15106   5.575  38.393  14.893
42682W        W15107  15.775  36.140   2.640
42683W        W15108  30.507  19.864  13.875
42684W        W15109  18.251  36.451   4.936
42685W        W15110   1.954  34.557   1.130
42686W        W15111  26.029   6.640   1.608
42687W        W15112  18.721  30.664  13.036
42688W        W15113  27.679  10.495  12.056
42689W        W15114  25.118   1.297  12.903
42690W        W15115  19.741  33.541  12.959
42691W        W15116  19.200   6.807  10.440
42692W        W15117  20.017  30.188  12.913
42693W        W15118   2.287  43.462   1.194
42694W        W15119  39.302  29.514   0.390
42695W        W15120   9.286  31.080  14.095
42696W        W15121  27.967  18.518  14.845
42697W        W15122  39.990  34.281  10.709
42698W        W15123  43.777  27.102   4.785
42699W        W15124  19.313  11.120   0.378
42700W        W15125  26.787   6.123   4.224
42701W        W15126  14.639  22.987  14.967
42702W        W15127  18.054  25.753  11.045
42703W        W15128  22.145  31.440   0.670
42704W        W15129  14.318  31.089  14.268
42705W        W15130  26.253   8.752  11.887
42706W        W15131  10.113  38.067  11.697
42707W        W15132  39.298  21.728   4.982
42708W        W15133  11.630  22.075   5.286
42709W        W15134  33.098  43.586  13.183
42710W        W15135  19.818  36.052   4.092
42711W        W15136  21.996  34.854   4.179
42712W        W15137  38.328  34.356  13.364
42713W        W15138  28.127  22.277   2.453
42714W        W15139  30.181  18.917  11.135
42715W        W15140   2.127  36.793   2.861
42716W        W15141  16.604  29.552   0.726
42717W        W15142  21.997  44.019   0.783
42718W        W15143   9.400  38.364  11.967
42719W        W15144  44.292  32.806   2.282
42720W        W15145  32.426  27.936   4.155
42721W        W15146  40.027  43.846   1.891
42722W        W15147  33.320  12.087  12.056
42723W        W15148  32.788  44.185  11.539
42724W        W15149  20.590   4.066  14.933
42725W        W15150  36.647   7.736   1.236
42726W        W15151  40.768  37.605   4.270
42727W        W15152  36.349   8.333  14.038
42728W        W15153  37.495  27.334  11.979
42729W        W15154  28.187  27.750   4.604
42730W        W15155  17.260  40.066  12.811
42731W        W15156  13.469  23.706   5.551
42732W        W15157  20.303  44.316  14.259
42733W        W15158  37.013   4.994   0.393
42734W        W15159   8.744  35.482   4.487
42735W        W15160   8.226  41.493  14.228
42736W        W15161  23.224   5.854   0.294
42737W        W15162  29.441  24.737  12.596
42738W        W15163  16.311  41.815  11.550
42739W        W15164  35.703   9.816   1.834
42740W        W15165  10.171  19.064   0.389
42741W        W15166  23.220  10.799   3.550
42742W        W15167  26.689  34.961  11.390
42743W        W15168  10.092  13.144   1.868
42744W        W15169  24.199  19.751   0.930
42745W        W15170  42.884  32.293  11.930
42746W        W15171  25.220  44.229  12.588
42747W        W15172  17.583  27.986   2.449
42748W        W15173  14.689  38.544   2.287
42749W        W15174   7.292  36.855   2.967
42750W        W15175   0.370   7.925   4.490
42751W        W15176  35.441  43.537   2.848
42752W        W15177  33.118  22.679   1.034
42753W        W15178  36.010  10.949   1.014
42754W        W15179   1.708  28.984  10.917
42755W        W15180  29.888  22.750  12.482
42756W        W15181  15.224  28.395   1.666
42757W        W15182  40.074   8.420   4.241
42758W        W15183  29.025  17.070   3.199
42759W        W15184  43.772   0.683   3.313
42760W        W15185  14.335  20.000   4.327
42761W        W15186  32.926  31.331   4.855
42762W        W15187  17.324   8.859   3.133
42763W        W15188  42.790  40.891  13.096
42764W        W15189   4.937  20.594   3.781
42765W        W15190   5.030  14.967  14.001
42766W        W15191  14.180  32.878   4.122
42767W        W15192  44.950  31.612   2.339
42768W        W15193  10.734   7.354   2.835
42769W        W15194  22.621  21.544   1.506
42770W        W15195  38.549  32.347  13.261
42771W        W15196  13.287  24.886  13.010
42772W        W15197  43.847  19.579   3.580
42773W        W15198  17.471  22.900  12.628
42774W        W15199  13.593  33.151   2.344
42775W        W15200  28.072  15.779   1.055
42776W        W15201  27.478  13.865  12.553
42777W        W15202  42.341  20.231   4.274
42778W        W15203  19.067   3.040   1.744
42779W        W15204  12.632  11.364  11.689
42780W        W15205   3.296  10.244   0.450
42781W        W15206  13.116  29.673   1.899
42782W        W15207  40.503  19.049   4.868
42783W        W15208   7.223  19.605   1.733
42784W        W15209   3.770  42.402   0.352
42785W        W15210  27.166  22.338   4.786
42786W        W15211  14.651  11.363   0.296
42787W        W15212   8.761   7.369   3.213
42788W        W15213  23.038  41.030  11.130
42789W        W15214  12.614  42.257   2.457
42790W        W15215   8.027  25.597  10.715
42791W        W15216  39.780   4.313  10.641
42792W        W15217  10.618  41.582  10.716
42793W        W15218   8.302  37.440  10.746
42794W        W15219   0.659  41.977   1.529
42795W        W15220  20.602   6.878  10.623
42796W        W15221  40.105   8.144   3.301
42797W        W15222   0.819  27.430   1.300
42798W        W15223  20.632  44.597   1.895
42799W        W15224  42.571  38.457  11.098
42800W        W15225   4.527   3.127  11.629
42801W        W15226  44.604  33.396   3.131
42802W        W15227  31.563  30.577  11.872
42803W        W15228  32.737   6.809  12.703
42804W        W15229  18.523  24.599   1.240
42805W        W15230  26.314  43.504  11.663
42806W        W15231  21.803  32.586   4.509
42807W        W15232   0.258   6.231   0.864
42808W        W15233   4.793  15.749  14.479
42809W        W15234  27.049  39.431  12.857
42810W        W15235   8.750  36.354   1.903
42811W        W15236  35.151   5.291  13.002
42812W        W15237  10.254   3.355  10.837
42813W        W15238  32.997  39.862   4.575
42814W        W15239  22.743  28.180   1.778
42815W        W15240  26.860  12.577   3.157
42816W        W15241  39.026  18.229  14.238
42817W        W15242  32.497  38.583  12.544
42818W        W15243   3.814  37.112  11.887
42819W        W15244  27.586  33.873  10.584
42820W        W15245   0.277  10.196   3.193
42821W        W15246   8.882  29.100   2.554
42822W        W15247   7.378  29.461  11.576
42823W        W15248  21.125  17.157   0.248
42824W        W15249  38.109   0.235  14.461
42825W        W15250  31.964  40.077  12.989
42826W        W15251  39.255  34.627  11.040
42827W        W15252  30.860  23.451   0.512
42828W        W15253  38.838  35.821  13.420
42829W        W15254   9.843  15.176  12.547
42830W        W15255  33.637  18.473   0.486
42831W        W15256  13.536  15.704  10.594
42832W        W15257  38.487   5.757   3.299
42833W        W15258  13.594  15.802  11.418
42834W        W15259   8.878  11.632  11.852
42835W        W15260  10.884  13.310  10.752
42836W        W15261  17.744  10.612  11.382
42837W        W15262  42.379   1.940   1.745
42838W        W15263  36.926  40.022   3.560
42839W        W15264  36.644  43.008  13.929
42840W        W15265  14.827  19.448  13.514
42841W        W15266  26.511  41.602  14.860
42842W        W15267  19.934  38.314  13.939
42843W        W15268  18.290   7.349   0.668
42844W        W15269  12.805   1.531  10.217
42845W        W15270  14.320  41.685   2.987
42846W        W15271  21.533  10.419   2.333
42847W        W15272  21.199  35.888   0.374
42848W        W15273  43.047  37.931   0.727
42849W        W15274  32.403   9.358   4.926
42850W        W15275   2.632  38.743  12.100
42851W        W15276  38.935  34.629  14.832
42852W        W15277  23.591   5.959  13.063
42853W        W15278   2.485  30.255  10.613
42854W        W15279  29.132   4.932   3.570
42855W        W15280   2.744   3.152  12.228
42856W        W15281  29.858  19.756  14.560
42857W        W15282  31.726  18.205   2.500
42858W        W15283  29.844  32.535  12.258
42859W        W15284  21.670  27.979   2.782
42860W        W15285   2.965  13.781  11.099
42861W        W15286  11.616   4.489   1.886
42862W        W15287  15.151  42.300  14.340
42863W        W15288  41.143   3.708   2.699
42864W        W15289   8.617  18.139   0.837
42865W        W15290  32.080   2.691   1.974
42866W        W15291   9.937  40.025  12.001
42867W        W15292  10.848  12.774   0.772
42868W        W15293   4.087   6.914   0.884
42869W        W15294  39.782  30.406  12.962
42870W        W15295  14.949  37.152   0.322
42871W        W15296  13.386  37.082  14.988
42872W        W15297  31.031   3.739   1.360
42873W        W15298  12.742  17.080  13.516
42874W        W15299  10.097  37.343   0.260
42875W        W15300  34.332  13.658  14.878
42876W        W15301  24.118  19.587   3.514
42877W        W15302  38.859  16.395  10.874
42878W        W15303   5.917   7.920   1.169
42879W        W15304  10.187   2.680   0.100
42880W        W15305  33.193  32.537  11.534
42881W        W15306  35.332  13.856  12.533
42882W        W15307  28.691  44.128  12.423
42883W        W15308  36.906  29.453  11.474
42884W        W15309  34.954  25.100   1.890
42885W        W15310  39.306  11.427  11.174
42886W        W15311  23.023   9.284   0.406
42887W        W15312  19.741  40.385   1.462
42888W        W15313  29.903  30.993   0.317
42889W        W15314  35.532  30.680   2.478
42890W        W15315  22.782  20.668   3.327
42891W        W15316  12.286   6.208   3.840
42892W        W15317  25.776   8.981   3.286
42893W        W15318  15.865   3.077  13.366
42894W        W15319   8.632   3.874   3.103
42895W        W15320  10.292  13.189  13.780
42896W        W15321  12.975  30.869   5.067
42897W        W15322  14.876   5.796   2.252
42898W        W15323  15.803  13.397  14.800
42899W        W15324  31.889  16.392   1.693
42900W        W15325  42.783  19.410  13.483
42901W        W15326  37.386  21.936  12.444
42902W        W15327   6.356  32.630   2.699
42903W        W15328  19.012  39.893   1.218
42904W        W15329  40.343   9.150   0.966
42905W        W15330  15.481  26.522   0.708
42906W        W15331   4.489  16.694  10.197
42907W        W15332  29.353  10.524  11.211
42908W        W15333  17.087  32.413   4.635
42909W        W15334  40.142  38.977   4.145
42910W        W15335  36.518  23.408  12.121
42911W        W15336  29.448  22.232  11.094
42912W        W15337   8.943  33.136   5.130
42913W        W15338  43.042  13.618  13.715
42914W        W15339  20.058  12.114   1.400
42915W        W15340  16.102  14.116   0.853
42916W        W15341   0.199   9.264   4.888
42917W        W15342  14.364  34.375   3.095
42918W        W15343  31.144  10.557   3.717
42919W        W15344  31.660  18.778  11.142
42920W        W15345  44.331  39.148  10.049
42921W        W15346  14.945  16.544  11.086
42922W        W15347  23.552  42.970  13.382
42923W        W15348  38.065  37.965  14.889
42924W        W15349   4.938  40.495  13.335
42925W        W15350  18.172  30.876  14.352
42926W        W15351  22.700  30.510   2.362
42927W        W15352  40.841  42.841   0.897
42928W        W15353  39.084   1.972   4.043
42929W        W15354  35.599  32.672   1.284
42930W        W15355  19.365  36.106   0.011
42931W        W15356  35.525   7.443   3.264
42932W        W15357  36.506   9.665   2.419
42933W        W15358  25.717  11.195   3.100
42934W        W15359   0.810  34.071  13.905
42935W        W15360   4.066  29.861   4.738
42936W        W15361   6.427  33.373  12.170
42937W        W15362   0.021  13.068  10.771
42938W        W15363  39.067  16.732   1.612
42939W        W15364   6.764  43.286  13.543
42940W        W15365  24.694  20.448   3.166
42941W        W15366  39.717  34.162   4.149
42942W        W15367  37.286  42.660   0.907
42943W        W15368  44.332   5.364  14.400
42944W        W15369  35.822   5.304   0.026
42945W        W15370   4.256  18.263   1.922
42946W        W15371  18.538  14.690   4.049
42947W        W15372  19.517  38.325  10.879
42948W        W15373  21.091  31.065  14.385
42949W        W15374  27.070  21.496  13.252
42950W        W15375  32.017   4.424  11.824
42951W        W15376  22.598  29.496   3.284
42952W        W15377  10.850  38.359   0.504
42953W        W15378   4.458  22.215   1.181
42954W        W15379  35.105  33.528   0.898
42955W        W15380  35.062  14.885  13.125
42956W        W15381  41.835  21.971   3.558
42957W        W15382  37.556  39.779  11.585
42958W        W15383  23.257  25.190  14.393
42959W        W15384  30.944  38.310   3.788
42960W        W15385  13.875   4.509   4.844
42961W        W15386   5.793   4.385  10.603
42962W        W15387  40.437  13.412   1.727
42963W        W15388  24.549   9.854  12.436
42964W        W15389  22.269  41.547   3.239
42965W        W15390  24.545  16.300  14.541
42966W        W15391  36.160  31.019  11.150
42967W        W15392  34.676  30.067   0.800
42968W        W15393  35.432   8.972  12.462
42969W        W15394  41.919  36.398  10.525
42970W        W15395  18.696  37.125  13.427
42971W        W15396   2.607   1.067   5.009
42972W        W15397  37.902   0.454   2.264
42973W        W15398   5.329   8.239  13.468
42974W        W15399   8.240  41.720  13.765
42975W        W15400   0.890  35.053   0.399
42976W        W15401  41.941  33.813   2.116
42977W        W15402  14.322  35.830  11.494
42978W        W15403  21.990   4.404  12.964
42979W        W15404  35.726  17.301   0.216
42980W        W15405  13.341  24.459  13.844
42981W        W15406  41.519  42.752   3.692
42982W        W15407  33.899  17.415  12.076
42983W        W15408  38.458   0.061  14.868
42984W        W15409  26.448  10.807   1.402
42985W        W15410  40.905  42.030  11.918
42986W        W15411  43.444  19.830   4.848
42987W        W15412  29.156  36.014  12.803
42988W        W15413   3.885  35.684   3.142
42989W        W15414  19.343  34.490   2.769
42990W        W15415  29.015  13.061  11.441
42991W        W15416  30.090   4.638   1.836
42992W        W15417  18.727  26.074   2.342
42993W        W15418  20.050  10.165   0.926
42994W        W15419  18.628  11.408  13.833
42995W        W15420  21.747   2.445   3.236
42996W        W15421  11.694  40.485  14.318
42997W        W15422   3.546  12.792   1.701
42998W        W15423  30.210  29.088  13.561
42999W        W15424  36.188  34.987   1.195
43000W        W15425  38.479  14.855  14.951
43001W        W15426  15.102  26.902   0.159
43002W        W15427  41.295  18.506   1.202
43003W        W15428  32.659  22.749  12.992
43004W        W15429  33.213   3.761   4.137
43005W        W15430  30.821  38.953   2.764
43006W        W15431   9.898  17.114  10.991
43007W        W15432  37.069  17.849   1.516
43008W        W15433   3.457  25.277   5.040
43009W        W15434   4.207  39.255   1.806
43010W        W15435   7.339  26.669  12.892
43011W        W15436  34.580   7.835  10.215
43012W        W15437  22.990  16.018   2.080
43013W        W15438  23.793   9.475  11.700
43014W        W15439  24.512  26.120  12.915
43015W        W15440  16.643  15.414   2.660
43016W        W15441  36.897   7.154  13.332
43017W        W15442  36.516  15.923   3.656
43018W        W15443  20.707  21.241  10.631
43019W        W15444  42.908  27.893  13.968
43020W        W15445  13.725  32.930  10.712
43021W        W15446   2.015  29.057   3.159
43022W        W15447  36.393  29.008   3.325
43023W        W15448  34.186  15.303  13.063
43024W        W15449  32.709  16.657  11.122
43025W        W15450   7.346  23.295  13.053
43026W        W15451   4.001  28.347  11.055
43027W        W15452  13.409  44.072   2.626
43028W        W15453  41.535   7.782   1.732
43029W        W15454   4.973   3.343   0.563
43030W        W15455  27.616  14.780  10.418
43031W        W15456  10.790  16.316   4.605
43032W        W15457  36.890  34.012  10.618
43033W        W15458  26.716  22.655   2.264
43034W        W15459  24.111  26.446   4.099
43035W        W15460  21.583  11.706  13.099
43036W        W15461  36.189   9.982   1.777
43037W        W15462  16.583  17.160  13.414
43038W        W15463  33.468  15.792   0.828
43039W        W15464  29.909   9.439   2.601
43040W        W15465   2.981  32.724   3.214
43041W        W15466  16.998  27.020  12.201
43042W        W15467  40.300  18.084   9.975
43043W        W15468  37.053  38.424   4.786
43044W        W15469  17.024  22.072  11.081
43045W        W15470   1.323  40.880   2.539
43046W        W15471  25.218   4.906   0.466
43047W        W15472   5.103  31.352   1.910
43048W        W15473  17.761   0.309  11.964
43049W        W15474  36.082  22.610   0.964
43050W        W15475   8.939   8.585   4.494
43051W        W15476  10.853   1.640  14.759
43052W        W15477  27.251  18.607  12.485
43053W        W15478  25.496  32.924   3.774
43054W        W15479  34.639  38.818  12.382
43055W        W15480  22.055   8.471  12.534
43056W        W15481  12.241  22.585  12.375
43057W        W15482  43.313  20.973   0.332
43058W        W15483  16.858  42.868  12.022
43059W        W15484  38.570   0.040  12.477
43060W        W15485  13.338  17.295  12.056
43061W        W15486  10.486  17.054   0.840
43062W        W15487   0.357  24.640  10.543
43063W        W15488  28.118  27.516   4.148
43064W        W15489   8.901   9.353  12.396
43065W        W15490   2.538  31.174  12.155
43066W        W15491  36.969  24.692  13.848
43067W        W15492   2.736   4.391   0.432
43068W        W15493  36.892  10.748  11.967
43069W        W15494  26.983  36.699  12.471
43070W        W15495  22.474   7.149  11.824
43071W        W15496  29.666  40.830   4.239
43072W        W15497  24.113  40.208   3.662
43073W        W15498  10.642  10.662   1.474
43074W        W15499  10.126  39.529   0.181
43075W        W15500  18.256   1.342   2.173
43076W        W15501   1.218   1.919   0.953
43077W        W15502  42.063  33.721  14.318
43078W        W15503  44.326   7.976  11.590
43079W        W15504  43.949  32.175  10.659
43080W        W15505  31.311  39.919   3.757
43081W        W15506  33.534   5.833  14.193
43082W        W15507  38.047   9.243   0.247
43083W        W15508   6.808  25.908   3.809
43084W        W15509   4.264  38.408   3.186
43085W        W15510  13.331  27.954  13.929
43086W        W15511  19.665   1.640   3.766
43087W        W15512  14.042   6.260   2.412
43088W        W15513  16.164   9.777   1.137
43089W        W15514   7.390   9.778  12.985
43090W        W15515  22.047   4.519   3.721
43091W        W15516   4.044  43.364   2.314
43092W        W15517   8.810   4.126   2.638
43093W        W15518  44.950   7.935   4.792
43094W        W15519  16.618  18.101  12.052
43095W        W15520  22.036  20.253  12.052
43096W        W15521   5.610   0.433   1.588
43097W        W15522  20.604  28.948   0.705
43098W        W15523   9.593  10.705   2.441
43099W        W15524  44.237  17.079   1.320
43100W        W15525  39.532   6.203  12.901
43101W        W15526  16.296  41.456  14.644
43102W        W15527  37.285  25.098  14.349
43103W        W15528  25.551  23.194   4.352
43104W        W15529  29.044  10.229   0.857
43105W        W15530  28.200  36.057  10.660
43106W        W15531  14.333  19.488  13.296
43107W        W15532   8.720   2.870  11.880
43108W        W15533  22.005  22.040  13.956
43109W        W15534  22.571  19.447   1.334
43110W        W15535  18.492   8.991  13.410
43111W        W15536  29.701  41.947  13.093
43112W        W15537  34.294  13.335   0.337
43113W        W15538  11.185  27.218   0.731
43114W        W15539  43.239   4.302   3.219
43115W        W15540   0.452  12.366  13.988
43116W        W15541  41.513  15.756  13.902
43117W        W15542  26.172  41.369   1.022
43118W        W15543   9.647  36.983   2.820
43119W        W15544   5.782  14.050  14.990
43120W        W15545  20.705  40.741   2.177
43121W        W15546  44.964  23.264   0.752
43122W        W15547   6.851  25.812   4.364
43123W        W15548  28.164  28.437   2.337
43124W        W15549  19.938   5.888  11.054
43125W        W15550   7.734  41.766   0.861
43126W        W15551   7.180  41.845   2.759
43127W        W15552  34.921  42.089   0.097
43128W        W15553  15.447   0.312  12.983
43129W        W15554  20.555   9.831   1.290
43130W        W15555   7.325  11.261   1.715
43131W        W15556  36.566  23.900  12.031
43132W        W15557  31.133   1.793   3.945
43133W        W15558  14.282  15.529  11.050
43134W        W15559   7.401   9.180  13.443
43135W        W15560  10.336  36.915   0.491
43136W        W15561  27.344   9.121   1.731
43137W        W15562  28.381  27.016   0.265
43138W        W15563  15.730   7.161  14.974
43139W        W15564  34.432   3.757   2.839
43140W        W15565   7.175   5.474  13.086
43141W        W15566  10.378  14.325  12.795
43142W        W15567   0.464  23.301   0.222
43143W        W15568  10.287  21.072   1.498
43144W        W15569   7.499  15.379   4.185
43145W        W15570  26.057  37.106   1.315
43146W        W15571  28.971  10.398   1.996
43147W        W15572  41.060   7.467  13.495
43148W        W15573  15.580  25.388   1.757
43149W        W15574  22.714  29.477  11.103
43150W        W15575   1.512  44.736   2.407
43151W        W15576  40.066  34.693   3.559
43152W        W15577  43.275  10.767   1.306
43153W        W15578  32.735  37.567   5.095
43154W        W15579  10.300  24.625   4.164
43155W        W15580  44.184  19.818   9.970
43156W        W15581  10.109  24.507   0.652
43157W        W15582  20.716  19.062   2.171
43158W        W15583   6.883  38.262  11.789
43159W        W15584  13.689  17.687  12.912
43160W        W15585  11.799  19.523   9.948
43161W        W15586  20.702  41.923  11.932
43162W        W15587   9.693  25.711  13.990
43163W        W15588  36.546  20.536  13.828
43164W        W15589  32.480  34.204  11.980
43165W        W15590  21.017  31.202   3.935
43166W        W15591  41.957   6.283  14.381
43167W        W15592  20.816  44.378  11.200
43168W        W15593   1.317  27.950   4.195
43169W        W15594   8.312  26.246  10.791
43170W        W15595   9.111  44.082   3.345
43171W        W15596  19.354  38.052  12.767
43172W        W15597   5.342  32.164  13.925
43173W        W15598  12.656  22.249   9.957
43174W        W15599  21.342   6.987  13.484
43175W        W15600  29.772  24.147   1.713
43176W        W15601  38.927  31.373  11.328
43177W        W15602   4.671  23.989   0.334
43178W        W15603  36.804  16.645  12.555
43179W        W15604  31.172   6.254   2.298
43180W        W15605  13.679  40.366  11.073
43181W        W15606  19.598  43.782  14.345
43182W        W15607  29.407  43.337  11.843
43183W        W15608  17.159  17.606  12.746
43184W        W15609  20.242  15.525  12.449
43185W        W15610  42.621  12.658   0.473
43186W        W15611   3.312  22.019   1.818
43187W        W15612  31.419  25.013   1.402
43188W        W15613   8.801  20.039  13.893
43189W        W15614  40.665  19.165   4.029
43190W        W15615  38.283  11.762  10.388
43191W        W15616   7.514  35.384  10.727
43192W        W15617   8.280  22.051  10.707
43193W        W15618   3.365  32.792  12.017
43194W        W15619  24.545   2.553  13.549
43195W        W15620  39.120  21.840  14.261
43196W        W15621  38.917  14.165   1.713
43197W        W15622  31.052  34.104   0.977
43198W        W15623  24.676   5.634   2.336
43199W        W15624   5.784  37.082   1.310
43200W        W15625   0.857  19.653   4.148
43201W        W15626  30.431  43.818   4.592
43202W        W15627  15.345  14.151   3.156
43203W        W15628  19.998   4.540  12.373
43204W        W15629  30.457  14.722   3.344
43205W        W15630  29.462   2.873  12.306
43206W        W15631  10.577  33.234  13.204
43207W        W15632  30.033  19.511  12.861
43208W        W15633   1.666  12.112  11.622
43209W        W15634  38.399  15.725   2.331
43210W        W15635   0.520  16.541   3.835
43211W        W15636  21.565   8.087  14.820
43212W        W15637  12.575  23.119  11.007
43213W        W15638  43.765  37.854   2.437
43214W        W15639   0.312  39.499   2.260
43215W        W15640  39.057  12.331  11.437
43216W        W15641  38.357  18.307   4.496
43217W        W15642   6.261   5.093  13.263
43218W        W15643  40.289   7.308  12.506
43219W        W15644  42.347   3.298  14.960
43220W        W15645  44.381  36.960  13.444
43221W        W15646  24.895  15.862   1.913
43222W        W15647   8.408   2.779   3.633
43223W        W15648  42.321  30.864   2.929
43224W        W15649   4.826  36.498  11.496
43225W        W15650  29.650   5.370   2.795
43226W        W15651  30.600   8.939   3.606
43227W        W15652  28.512   7.789   0.853
43228W        W15653  17.263  13.085   3.245
43229W        W15654  11.169  16.760   0.387
43230W        W15655  43.733  31.467  12.265
43231W        W15656  10.849  24.339   2.307
43232W        W15657  31.423  13.271  12.939
43233W        W15658  24.933  35.974   1.402
43234W        W15659  11.909   9.723   1.395
43235W        W15660  35.131   6.735  11.175
43236W        W15661   9.117  30.488  13.800
43237W        W15662  27.408   9.145  12.099
43238W        W15663   6.878  21.213  13.422
43239W        W15664  12.937  13.645   3.555
43240W        W15665  26.984  34.846   1.924
43241W        W15666  11.652  11.327   4.024
43242W        W15667   2.891  25.763   2.972
43243W        W15668   3.246  10.364  14.942
43244W        W15669  14.511  43.967   1.608
43245W        W15670  18.250  38.232   3.225
43246W        W15671   2.906  25.788  14.307
43247W        W15672  13.624   1.704  12.955
43248W        W15673  22.117  40.289  12.355
43249W        W15674  32.788   6.211   2.942
43250W        W15675   5.899  10.812   0.516
43251W        W15676  39.845  27.102   1.564
43252W        W15677  18.546  21.687  12.634
43253W        W15678  30.592  12.727   2.718
43254W        W15679  26.712  37.584  11.225
43255W        W15680  20.593  10.441   0.321
43256W        W15681   9.204   0.248  14.909
43257W        W15682  20.656  28.491  13.370
43258W        W15683  44.137   7.114   0.766
43259W        W15684   3.014  18.582   1.215
43260W        W15685  15.803  32.944   4.239
43261W        W15686  28.642  28.036  12.082
43262W        W15687  21.562  17.584  13.939
43263W        W15688  27.434  40.493  11.052
43264W        W15689  21.948  42.995  10.641
43265W        W15690  40.016  17.851  10.676
43266W        W15691  28.988   0.715  13.255
43267W        W15692  30.107  17.078   1.824
43268W        W15693  30.891  34.404  11.896
43269W        W15694  18.919  29.112   2.188
43270W        W15695   2.399  32.080  14.883
43271W        W15696  15.380  21.708  13.568
43272W        W15697   4.368  13.534  12.134
43273W        W15698   7.920   3.984  13.820
43274W        W15699   5.676  27.595  13.789
43275W        W15700   5.847  35.468   0.410
43276W        W15701  14.692  40.881  10.561
43277W        W15702  41.949   3.265   3.215
43278W        W15703  10.326  15.299  12.353
43279W        W15704  20.306  30.895  14.791
43280W        W15705  42.056   1.900   2.564
43281W        W15706  44.259  35.012   1.473
43282W        W15707  24.591  19.497  10.723
43283W        W15708  13.137  13.553   4.338
43284W        W15709  32.969   1.743   3.778
43285W        W15710   7.885  28.728   2.844
43286W        W15711  15.240   5.902   1.823
43287W        W15712  39.435   8.082  14.339
43288W        W15713  21.495  31.514  11.065
43289W        W15714  37.976   5.346   1.735
43290W        W15715  24.482  12.201   0.418
43291W        W15716  22.817  28.520  11.691
43292W        W15717  42.266  36.617   2.794
43293W        W15718  17.563  21.245  11.358
43294W        W15719  24.955  19.460  13.392
43295W        W15720  28.648   1.754  14.103
43296W        W15721   1.921  43.274  13.403
43297W        W15722  42.707  13.214  12.090
43298W        W15723  11.415   9.404  11.157
43299W        W15724   9.664  32.007  14.906
43300W        W15725  31.442  19.863   4.773
43301W        W15726  34.938   1.120   3.621
43302W        W15727  41.708   5.900   3.123
43303W        W15728  18.647   4.112   1.468
43304W        W15729  39.331  41.518  11.936
43305W        W15730   3.847  22.473  12.577
43306W        W15731  22.979   0.949  14.050
43307W        W15732  20.838  36.755   3.279
43308W        W15733  11.784  31.938   5.046
43309W        W15734  36.914  43.004   3.856
43310W        W15735   3.739  43.457  11.971
43311W        W15736  25.933  18.723  11.559
43312W        W15737  14.629  33.604  14.954
43313W        W15738  21.787   5.774   3.654
43314W        W15739   4.287  13.612  14.434
43315W        W15740  40.473  27.158  11.367
43316W        W15741   3.724   2.435   0.342
43317W        W15742  21.452  38.158   4.642
43318W        W15743   7.544  10.182   4.651
43319W        W15744  28.219  18.906   1.202
43320W        W15745   1.682  27.875   2.306
43321W        W15746   8.168  27.114  12.814
43322W        W15747   7.808  37.572  10.565
43323W        W15748  13.685   3.236   2.254
43324W        W15749   9.188  17.104  10.640
43325W        W15750  27.465  32.393   2.470
43326W        W15751  36.574  17.638  11.086
43327W        W15752   1.013  15.357  13.263
43328W        W15753  32.787  42.703   2.898
43329W        W15754  17.313  29.734  11.119
43330W        W15755  16.180   7.801  10.519
43331W        W15756   9.766  25.879  11.182
43332W        W15757  28.969  30.163  10.608
43333W        W15758   4.272  42.586  11.954
43334W        W15759  11.351   9.324   3.253
43335W        W15760  36.349  30.712   3.436
43336W        W15761  44.747  24.596  13.665
43337W        W15762  28.254  22.394  14.871
43338W        W15763  23.682  42.072  11.623
43339W        W15764  40.912  24.685   0.477
43340W        W15765  26.119  12.050  12.394
43341W        W15766  17.198  21.000  12.960
43342W        W15767  30.152  38.089   1.845
43343W        W15768  39.555  42.830  13.364
43344W        W15769  40.269  35.604   4.345
43345W        W15770  22.160   2.148   3.275
43346W        W15771   2.533  36.162   3.330
43347W        W15772  41.559  44.495   1.359
43348W        W15773  12.188  25.588   0.722
43349W        W15774   1.270  29.751   2.401
43350W        W15775  18.520  34.611   1.275
43351W        W15776  26.573  31.521   5.003
43352W        W15777  26.749  31.566   2.131
43353W        W15778   1.086  26.604  13.123
43354W        W15779   9.631   9.716  14.960
43355W        W15780  35.101  42.772  12.647
43356W        W15781  43.035  35.509  11.188
43357W        W15782  28.505  21.615   0.456
43358W        W15783   6.231  33.085   2.405
43359W        W15784   0.742   1.787   4.381
43360W        W15785   5.877  11.755  14.557
43361W        W15786   6.118  42.731  11.213
43362W        W15787  25.963  36.511  12.474
43363W        W15788  37.112   1.946   3.151
43364W        W15789  39.285  22.762   4.591
43365W        W15790   9.506  38.591  11.389
43366W        W15791  11.388   7.191  10.451
43367W        W15792  33.584  28.731   0.372
43368W        W15793  24.703  18.140  14.370
43369W        W15794  32.916  11.385   4.602
43370W        W15795  28.057  36.027  13.824
43371W        W15796  43.575   7.398   2.126
43372W        W15797  43.947  42.986   2.883
43373W        W15798  32.345  11.204   1.135
43374W        W15799   5.331   8.492   0.367
43375W        W15800  37.929  36.029   5.141
43376W        W15801  27.496  31.078  13.039
43377W        W15802  33.874  37.868   4.780
43378W        W15803  21.897  40.367   0.242
43379W        W15804  14.726  16.314  13.023
43380W        W15805  12.377  41.907   0.402
43381W        W15806  14.301  16.718   2.642
43382W        W15807  14.491  22.167   2.783
43383W        W15808  28.238  17.715  10.139
43384W        W15809  21.074  18.240  12.900
43385W        W15810  29.254  43.512  10.651
43386W        W15811  28.189   3.703  14.487
43387W        W15812  29.426   7.379   3.776
43388W        W15813  43.894  23.161  13.153
43389W        W15814   4.509  22.002  14.719
43390W        W15815   2.721  36.450   0.827
43391W        W15816  25.424  15.832  10.771
43392W        W15817  35.489  19.496  13.020
43393W        W15818  27.690  38.332   4.293
43394W        W15819  31.541   9.271   3.836
43395W        W15820  27.995   5.960  13.574
43396W        W15821  13.375  42.239   0.361
43397W        W15822  17.772  37.135   2.587
43398W        W15823  21.048  28.995  14.043
43399W        W15824  37.856  24.547  13.067
43400W        W15825   6.680   6.741   4.640
43401W        W15826  29.155   4.972   1.358
43402W        W15827  20.426  24.608  13.132
43403W        W15828   5.718  27.688   1.637
43404W        W15829   9.695  41.443   4.134
43405W        W15830  27.133  19.226   4.161
43406W        W15831  30.638  14.640  12.130
43407W        W15832  25.772  28.183   0.101
43408W        W15833  27.460  40.048  12.896
43409W        W15834  22.073   1.930   0.785
43410W        W15835  32.648  26.694  13.368
43411W        W15836  39.402   2.838   4.274
43412W        W15837  19.975  13.348   1.887
43413W        W15838   1.066  40.381   3.216
43414W        W15839  18.028  21.010  14.402
43415W        W15840  11.821  37.983   0.168
43416W        W15841  19.974   7.454  13.351
43417W        W15842  36.892  28.954   2.288
43418W        W15843  40.855  32.128   3.112
43419W        W15844  27.531  30.270  13.126
43420W        W15845  20.567  24.179   0.529
43421W        W15846  36.528   4.354  14.450
43422W        W15847  30.637  36.367  14.634
43423W        W15848  22.545   2.458   4.502
43424W        W15849  26.563  42.075  13.363
43425W        W15850   5.708  35.367   3.310
43426W        W15851  42.875   2.421  13.287
43427W        W15852  32.406  21.717  10.981
43428W        W15853  19.553  26.513   1.414
43429W        W15854  23.506  25.984   1.859
43430W        W15855  31.357  11.293   0.383
43431W        W15856  32.474   9.157  14.075
43432W        W15857  11.311  38.470  10.764
43433W        W15858  38.044  20.233   1.696
43434W        W15859  44.162   4.605  14.896
43435W        W15860  33.545  13.315   2.256
43436W        W15861  43.082  35.478  13.598
43437W        W15862   4.000  18.257  10.444
43438W        W15863  30.892  38.831   3.661
43439W        W15864  43.438  44.438  10.735
43440W        W15865   9.244  33.043  11.633
43441W        W15866  14.151  39.573   0.231
43442W        W15867  23.634  22.612   4.063
43443W        W15868  34.501   6.247  13.531
43444W        W15869  34.439  25.266  12.892
43445W        W15870  11.529  38.902  10.572
43446W        W15871  42.064  19.459   9.840
43447W        W15872  33.702  40.826   0.874
43448W        W15873  32.601   4.479  10.570
43449W        W15874  43.337  20.828  13.391
43450W        W15875  37.231  11.708  14.054
43451W        W15876  12.581  21.593   1.423
43452W        W15877  21.186  44.522   4.143
43453W        W15878  30.048  40.184  12.817
43454W        W15879  24.235   0.519  14.466
43455W        W15880  43.558  44.872  12.834
43456W        W15881   9.572   9.283   0.290
43457W        W15882   7.002  12.847   2.646
43458W        W15883  38.058  14.089   3.233
43459W        W15884   5.152  15.643   2.187
43460W        W15885  22.736   6.230  11.001
43461W        W15886  26.921  25.923  13.490
43462W        W15887  18.760  29.372  13.936
43463W        W15888   5.396  34.401  11.109
43464W        W15889  41.424  21.613   0.244
43465W        W15890  37.580  23.804   0.162
43466W        W15891   0.214   5.483   1.301
43467W        W15892  39.602   4.631  13.953
43468W        W15893  36.135  17.013   1.401
43469W        W15894   6.705  36.744  12.166
43470W        W15895  41.942  29.326   2.728
43471W        W15896  16.813  17.305   2.814
43472W        W15897   9.797  33.608   4.922
43473W        W15898  41.299   8.294  11.274
43474W        W15899  13.620   6.359   4.206
43475W        W15900  19.727   1.791   0.295
43476W        W15901   3.246  24.960   0.221
43477W        W15902  15.325  18.803   4.180
43478W        W15903  28.999  20.122   0.752
43479W        W15904   6.253  38.401   1.453
43480W        W15905  27.757   3.704   0.907
43481W        W15906  17.083  18.710  11.733
43482W        W15907  31.156   8.036   2.947
43483W        W15908   9.790  26.938  13.557
43484W        W15909  29.570  26.246  13.889
43485W        W15910   0.249   6.534   4.693
43486W        W15911  44.755  29.326   0.679
43487W        W15912  42.487  36.542   4.919
43488W        W15913  32.391  24.749   3.691
43489W        W15914  32.837  11.033  13.205
43490W        W15915  11.852  37.603  10.511
43491W        W15916   6.881   3.908   4.095
43492W        W15917  30.889  27.445   1.664
43493W        W15918  41.829   8.347  12.160
43494W        W15919  29.676  42.313  12.467
43495W        W15920  34.509  32.555   1.800
43496W        W15921  11.729  34.041   3.931
43497W        W15922  41.588  35.838  13.888
43498W        W15923  32.550   7.602   2.733
43499W        W15924  13.299  31.943  12.117
43500W        W15925   8.901  36.843  10.724
43501W        W15926   3.879  26.537   1.287
43502W        W15927  19.323  24.159  12.003
43503W        W15928  41.848  13.094  14.360
43504W        W15929  13.346   1.343   1.817
43505W        W15930  40.362  22.751   4.564
43506W        W15931  19.022   4.313  10.731
43507W        W15932  40.845  31.289   0.040
43508W        W15933  11.227  41.409  14.212
43509W        W15934   3.352  34.148   4.340
43510W        W15935  25.375  43.101   0.248
43511W        W15936  30.719  21.165  12.986
43512W        W15937  40.882   5.920  14.970
43513W        W15938  41.558  38.956   0.346
43514W        W15939   0.727   5.783  14.119
43515W        W15940   6.277  22.789  11.437
43516W        W15941  20.242  28.651   0.974
43517W        W15942  23.423  44.946  12.548
43518W        W15943  11.829  10.132   0.628
43519W        W15944  36.629   4.594   4.653
43520W        W15945  20.197  17.048   0.262
43521W        W15946  12.693  31.743   1.420
43522W        W15947  44.071  12.122  14.299
43523W        W15948  10.446   5.492   3.240
43524W        W15949  12.114  11.935   1.303
43525W        W15950  39.367  28.170   3.084
43526W        W15951  33.974  24.799   0.021
43527W        W15952  29.670   0.537   0.992
43528W        W15953  42.542  43.970  12.498
43529W        W15954  14.099  39.358  11.403
43530W        W15955  12.782  18.182  13.982
43531W        W15956  32.689  28.500  11.056
43532W        W15957  26.948   7.715   0.875
43533W        W15958   8.171  21.972   0.119
43534W        W15959  28.923  21.363  10.492
43535W        W15960  41.712  24.568  12.977
43536W        W15961   4.270  18.118   1.348
43537W        W15962  24.014  10.153   1.351
43538W        W15963  27.204  14.398  11.194
43539W        W15964  37.480  18.756   2.692
43540W        W15965  26.059  32.845   0.809
43541W        W15966  20.678  24.819  14.652
43542W        W15967  35.632  39.335  14.290
43543W        W15968  43.824  24.863  14.925
43544W        W15969  35.570   5.355   1.796
43545W        W15970  33.952  38.040  14.339
43546W        W15971  37.330  33.790   0.947
43547W        W15972  35.054  37.282   5.195
43548W        W15973  37.041  19.781  10.834
43549W        W15974  11.725  43.082   3.692
43550W        W15975  24.789  42.746  11.908
43551W        W15976  36.141  29.999  11.833
43552W        W15977  30.146  39.499   4.132
43553W        W15978   2.389  26.417  12.863
43554W        W15979   0.842  24.076   5.285
43555W        W15980  11.208  29.763  12.013
43556W        W15981  39.218  28.401  11.140
43557W        W15982  26.449  28.876   1.694
43558W        W15983  28.985  15.767   1.731
43559W        W15984  44.625   2.424  12.030
43560W        W15985  35.713  15.714  10.365
43561W        W15986  37.076  34.515  10.843
43562W        W15987  33.337   7.529  12.218
43563W        W15988  42.357  37.389   1.302
43564W        W15989   6.073  12.739   1.200
43565W        W15990  12.785  17.259   1.245
43566W        W15991   9.179  14.322  10.966
43567W        W15992  10.449  13.193  11.637
43568W        W15993   8.831   1.301   0.377
43569W        W15994  17.643  19.611   3.871
43570W        W15995  44.932  39.872   1.745
43571W        W15996  25.188  28.735  11.049
43572W        W15997  39.502   6.767  13.997
43573W        W15998  31.383  38.361   0.474
43574W        W15999   9.208   0.316   0.748
43575W        W16000  42.768  20.491   1.233
43576W        W16001   3.275   7.348  13.054
43577W        W16002   8.921  14.820  12.867
43578W        W16003  18.159  18.812  14.497
43579W        W16004  20.633  43.801   0.284
43580W        W16005  33.391  44.871  14.414
43581W        W16006  22.453  19.771  13.822
43582W        W16007  35.146  40.112   0.898
43583W        W16008  37.003  19.860   1.113
43584W        W16009  40.159  13.514  14.471
43585W        W16010   7.621  33.423   4.990
43586W        W16011  22.142  22.484   4.087
43587W        W16012  33.131  16.519  12.524
43588W        W16013  39.083  29.042  13.777
43589W        W16014  10.785  16.818   2.252
43590W        W16015  15.707  38.910   4.622
43591W        W16016  15.006  25.907   0.440
43592W        W16017  24.783   6.903  11.405
43593W        W16018   4.814  32.641   0.174
43594W        W16019  35.589  16.752  12.537
43595W        W16020  29.291  32.065   0.366
43596W        W16021  17.131   9.084   4.534
43597W        W16022   3.910  37.342  10.958
43598W        W16023  26.525   5.458  13.405
43599W        W16024  11.807  43.789   0.189
43600W        W16025  24.927  41.883  12.114
43601W        W16026  16.241  37.391   3.104
43602W        W16027  28.153   2.390   2.352
43603W        W16028  23.147  25.660   0.292
43604W        W16029  34.727  19.077  12.674
43605W        W16030   6.186  11.593   2.814
43606W        W16031  44.500  26.429  13.924
43607W        W16032   1.402  28.450   4.250
43608W        W16033  37.454  30.178  14.704
43609W        W16034  28.099  14.347  11.041
43610W        W16035   6.299  37.014   3.048
43611W        W16036  27.181   6.260   1.772
43612W        W16037  38.777  32.050  11.547
43613W        W16038  39.452  12.242  13.520
43614W        W16039  32.394   4.747   2.137
43615W        W16040  24.613   7.776   1.433
43616W        W16041  19.801  21.103  10.454
43617W        W16042  38.038  43.829  12.506
43618W        W16043   3.630   2.182  14.314
43619W        W16044  19.217  22.076   3.639
43620W        W16045  19.512   5.820   1.402
43621W        W16046   3.667   6.362   2.644
43622W        W16047  27.131   0.689   4.899
43623W        W16048  14.711   5.410   4.069
43624W        W16049  22.709  14.094  13.801
43625W        W16050  23.587  32.456  14.257
43626W        W16051  10.853  21.515   0.793
43627W        W16052  32.681  35.541   3.639
43628W        W16053  16.731  38.585  13.176
43629W        W16054   0.020  27.652  11.955
43630W        W16055   5.944  22.906   2.199
43631W        W16056   5.786  28.476  13.793
43632W        W16057  37.999   2.698   4.214
43633W        W16058  29.373  33.938  12.986
43634W        W16059   8.415  32.664   0.973
43635W        W16060  18.602  20.032  12.021
43636W        W16061  14.241  32.873   0.352
43637W        W16062   0.481  19.036   4.615
43638W        W16063  31.758  32.933   3.760
43639W        W16064  16.010  36.748   0.257
43640W        W16065   1.878  42.975   4.336
43641W        W16066  14.245  24.861  13.587
43642W        W16067  25.632  26.863  12.505
43643W        W16068  29.680  16.149  10.660
43644W        W16069   4.412  14.635  14.775
43645W        W16070  34.651   0.495  10.729
43646W        W16071  41.518  20.267  11.070
43647W        W16072  33.508   4.641  13.599
43648W        W16073  42.943   4.924   4.706
43649W        W16074  13.888  16.647  14.345
43650W        W16075  29.924  24.593  13.480
43651W        W16076  21.767  16.205  12.867
43652W        W16077  41.440   2.865  14.546
43653W        W16078  10.082   6.765  10.668
43654W        W16079   5.948   6.483   2.770
43655W        W16080  37.347  35.568  11.657
43656W        W16081   7.429  21.098   2.315
43657W        W16082  30.022  22.960  13.335
43658W        W16083  30.659  32.988  14.078
43659W        W16084  32.453   2.438   1.472
43660W        W16085   2.848  25.655  11.604
43661W        W16086  41.382  34.574  14.360
43662W        W16087  14.814  26.939  10.589
43663W        W16088   6.723  10.164   3.291
43664W        W16089  21.122  21.692   3.702
43665W        W16090  34.285   9.657  12.099
43666W        W16091  25.745   4.956   0.416
43667W        W16092   4.148  15.227  11.413
43668W        W16093  28.632  36.984  14.386
43669W        W16094  14.289  25.543  14.912
43670W        W16095  40.435   4.110   1.388
43671W        W16096  21.040  21.207   0.344
43672W        W16097  11.317  12.767   1.000
43673W        W16098   8.918  12.100   5.074
43674W        W16099  39.541  23.011  13.318
43675W        W16100  42.250   3.444  13.954
43676W        W16101  20.470  20.466   3.357
43677W        W16102   9.334  18.165   0.106
43678W        W16103  11.889  38.839   1.859
43679W        W16104  39.016  10.387   4.099
43680W        W16105  30.172  16.894  13.829
43681W        W16106  41.937  16.150  11.976
43682W        W16107  35.575  22.721  12.553
43683W        W16108   1.695  24.239  12.879
43684W        W16109   3.900  38.536   1.332
43685W        W16110  33.660  30.465  13.458
43686W        W16111  14.210  22.333   2.352
43687W        W16112   4.265  11.154  12.743
43688W        W16113  11.943  22.224  13.317
43689W        W16114  35.882  25.197   3.799
43690W        W16115  33.551  23.927  12.514
43691W        W16116  14.726  32.365   3.272
43692W        W16117  10.877   3.621   3.288
43693W        W16118  43.448  17.041  11.457
43694W        W16119  43.716  27.984  14.282
43695W        W16120  15.267   5.787  11.348
43696W        W16121  44.471  11.784   2.836
43697W        W16122  33.891  18.899  10.554
43698W        W16123  35.755  16.203  11.136
43699W        W16124  35.324  19.599   4.739
43700W        W16125   9.612  43.336  13.979
43701W        W16126  18.508  34.098  14.033
43702W        W16127  26.798   9.852  12.951
43703W        W16128  44.438  12.242   1.457
43704W        W16129  44.500  26.698  12.608
43705W        W16130  32.987  14.702  14.605
43706W        W16131  22.793   9.083  12.521
43707W        W16132  44.862  37.245   2.507
43708W        W16133   0.974   3.833  11.110
43709W        W16134   6.274  18.768  10.648
43710W        W16135  27.067  29.537   0.261
43711W        W16136  32.051   9.112  11.198
43712W        W16137  38.458  31.359  11.643
43713W        W16138  28.613  40.815   2.220
43714W        W16139  44.376  35.026  12.747
43715W        W16140  35.939  40.375   1.422
43716W        W16141  15.802   4.945   0.657
43717W        W16142  15.981  35.528  10.230
43718W        W16143  30.762  17.172  13.029
43719W        W16144  17.841   6.149  12.924
43720W        W16145  30.564  22.136  14.116
43721W        W16146  17.994  17.588  12.061
43722W        W16147  29.952  19.701   1.669
43723W        W16148  10.913   9.289  12.385
43724W        W16149  42.839  17.331   4.532
43725W        W16150  21.715  44.341  12.254
43726W        W16151  30.597  40.765   0.982
43727W        W16152  30.928  39.002  14.262
43728W        W16153  32.642   0.741   0.520
43729W        W16154  17.722   4.840   1.409
43730W        W16155  39.907  40.752  11.968
43731W        W16156   3.868  31.215   3.824
43732W        W16157  33.471  34.137   3.580
43733W        W16158  17.398  21.687   2.407
43734W        W16159  17.760  29.603  13.837
43735W        W16160   2.290  29.996   3.124
43736W        W16161  14.806  26.972  11.706
43737W        W16162  26.657   1.516  11.611
43738W        W16163  24.823  39.035  12.666
43739W        W16164  19.132   7.855  11.048
43740W        W16165  26.618  27.540  13.887
43741W        W16166  34.491  15.517  10.342
43742W        W16167   7.929  44.617   1.735
43743W        W16168   3.114  10.355   4.880
43744W        W16169   3.486   6.179  14.437
43745W        W16170  21.498  14.578  14.847
43746W        W16171  30.563  17.215  13.963
43747W        W16172  40.982  24.656  13.991
43748W        W16173  40.421  12.158  11.207
43749W        W16174  19.143  24.273  12.829
43750W        W16175  40.056  24.043   1.040
43751W        W16176  33.102   6.232   4.645
43752W        W16177  20.112  41.273  11.633
43753W        W16178   0.358  34.445   0.767
43754W        W16179  10.545  14.347  13.788
43755W        W16180  17.728   0.812  12.700
43756W        W16181  29.773  23.514   3.709
43757W        W16182   5.864  31.955   2.146
43758W        W16183  35.962  28.663   4.144
43759W        W16184  30.241  23.802   1.868
43760W        W16185  22.066  35.353   0.120
43761W        W16186  25.498  40.984   2.795
43762W        W16187   4.999  37.456   3.157
43763W        W16188   1.931  31.671   0.766
43764W        W16189  34.782  37.537  12.474
43765W        W16190  39.975  30.209  12.007
43766W        W16191   4.490  38.090  14.906
43767W        W16192   9.067  16.655  13.981
43768W        W16193  10.357  36.676  10.695
43769W        W16194  28.218  14.459   9.889
43770W        W16195  25.554   4.920   1.805
43771W        W16196  10.107   9.916  13.313
43772W        W16197   0.508   4.564   4.695
43773W        W16198  17.800  13.326  14.463
43774W        W16199  16.259  24.611   4.587
43775W        W16200  15.116  13.243   4.700
43776W        W16201  32.176  11.729  13.627
43777W        W16202  39.506  32.995   1.038
43778W        W16203   2.806  42.426   5.035
43779W        W16204   7.683  40.503   1.453
43780W        W16205   4.996  34.210  14.405
43781W        W16206   0.249  21.305  13.012
43782W        W16207  21.605  11.511   5.202
43783W        W16208  18.791   4.291  13.062
43784W        W16209  18.753  30.449  13.974
43785W        W16210  33.490  41.864   4.732
43786W        W16211  32.550   4.934  12.363
43787W        W16212  14.406  14.692   4.628
43788W        W16213   9.199  27.473  10.718
43789W        W16214  11.150  11.329   3.743
43790W        W16215  28.480   7.727   3.712
43791W        W16216   8.350  43.067  12.939
43792W        W16217  15.333  41.639  11.442
43793W        W16218  30.892   1.895   3.503
43794W        W16219  44.653   8.846  14.991
43795W        W16220  30.325  10.303   1.261
43796W        W16221   2.311  16.124   1.822
43797W        W16222  24.994  39.493  12.387
43798W        W16223  17.156  18.633  13.733
43799W        W16224  41.110  10.127  11.962
43800W        W16225  41.924  18.069   0.429
43801W        W16226  33.113  44.189  13.949
43802W        W16227  17.805  21.769  11.969
43803W        W16228   9.239  33.175   1.860
43804W        W16229  10.591  24.530   0.447
43805W        W16230  28.203   9.799  12.014
43806W        W16231  41.524  25.808   1.950
43807W        W16232  24.019  37.852   4.043
43808W        W16233  36.162  19.236  13.580
43809W        W16234  13.636  36.065   0.783
43810W        W16235  15.173  19.163   1.965
43811W        W16236  16.749  43.918  13.264
43812W        W16237  19.847  40.367  10.593
43813W        W16238   0.831  28.768  11.716
43814W        W16239  24.393   9.621  11.089
43815W        W16240  10.400   6.209   4.355
43816W        W16241  20.204  34.075  13.180
43817W        W16242  29.277  34.988   1.568
43818W        W16243   8.901  32.153  14.325
43819W        W16244  28.757  41.251  12.914
43820W        W16245   0.296   4.283  12.978
43821W        W16246   9.327  26.546  12.208
43822W        W16247   9.189   5.236   0.240
43823W        W16248   8.812   1.198   1.306
43824W        W16249   1.904  33.907  12.833
43825W        W16250  24.521  15.774  10.833
43826W        W16251  37.405  10.234   4.211
43827W        W16252  15.256  44.690  10.337
43828W        W16253  13.200  44.432  11.647
43829W        W16254  16.601  41.059  10.613
43830W        W16255  15.923  26.137   1.900
43831W        W16256  22.531  40.857  11.132
43832W        W16257  22.746  36.869   3.765
43833W        W16258  31.492  15.308  13.028
43834W        W16259  25.760   7.711  12.913
43835W        W16260  41.519   5.914   4.860
43836W        W16261  12.647  34.067  12.691
43837W        W16262  10.646   9.252   2.748
43838W        W16263   2.807  29.471   4.141
43839W        W16264   2.450   4.235   0.923
43840W        W16265  32.808  38.907   4.670
43841W        W16266  19.059  38.377   3.597
43842W        W16267   5.756  37.756  14.346
43843W        W16268  36.329  14.651   4.233
43844W        W16269  42.440  28.205   4.278
43845W        W16270  40.965  43.917   4.522
43846W        W16271  34.970   7.806   2.727
43847W        W16272  37.862   2.255  12.077
43848W        W16273   8.323   1.960   4.189
43849W        W16274  22.027   2.281   4.488
43850W        W16275  26.166  11.370   1.726
43851W        W16276   4.780  39.628   4.694
43852W        W16277  28.424  21.479  14.445
43853W        W16278  22.174   0.714  14.429
43854W        W16279  12.919   1.049   4.322
43855W        W16280  23.239  41.880   3.730
43856W        W16281  10.027  33.258   4.606
43857W        W16282  22.980  39.319  13.901
43858W        W16283  41.046  25.938   4.070
43859W        W16284  35.643  20.002  11.281
43860W        W16285  16.707  21.660  11.016
43861W        W16286  35.044  25.296   5.097
43862W        W16287  31.129  38.504   1.523
43863W        W16288  18.525  34.508  11.364
43864W        W16289  34.503  17.127   0.342
43865W        W16290  43.575  12.522   4.568
43866W        W16291  38.458   7.412   3.195
43867W        W16292  21.732  15.549  11.320
43868W        W16293  20.849  27.644  10.649
43869W        W16294   4.661  44.637  10.263
43870W        W16295  34.870  40.447  14.008
43871W        W16296   2.468  26.221  10.744
43872W        W16297  22.498   2.217   0.783
43873W        W16298  12.285  37.524  12.499
43874W        W16299  11.187  38.599  11.965
43875W        W16300  29.766  26.597   1.659
43876W        W16301  28.438  37.446   0.330
43877W        W16302  33.624  33.698   0.839
43878W        W16303  24.796   4.229   4.097
43879W        W16304  32.690   5.473  11.539
43880W        W16305  36.046  18.084   0.458
43881W        W16306   6.798  10.129  13.460
43882W        W16307  18.053  13.372   0.338
43883W        W16308  35.078  21.302  14.845
43884W        W16309   8.773   9.218   5.027
43885W        W16310   3.957  13.012  12.626
43886W        W16311  13.388  23.230  14.806
43887W        W16312  15.903  18.142  13.897
43888W        W16313  30.522  19.357  13.872
43889W        W16314  44.392   5.863   0.294
43890W        W16315  43.011  38.779   1.750
43891W        W16316  31.533  20.994   4.959
43892W        W16317  44.737  10.883   4.144
43893W        W16318  39.601  14.158  10.717
43894W        W16319  31.890  31.930  11.630
43895W        W16320  27.381  21.019  11.193
43896W        W16321  24.417   9.972  14.455
43897W        W16322   5.389  33.675  13.890
43898W        W16323  38.390  38.764   1.734
43899W        W16324  23.024   2.939  12.830
43900W        W16325  18.302   7.356   1.286
43901W        W16326  30.546  16.763  11.186
43902W        W16327  19.302  30.061  13.628
43903W        W16328   5.152  39.110   1.379
43904W        W16329  27.005   9.227   2.135
43905W        W16330  40.225  43.011   5.047
43906W        W16331  21.934  18.760   2.811
43907W        W16332  44.639  34.985   1.847
43908W        W16333   6.263  21.327  14.771
43909W        W16334  18.601  33.896   4.998
43910W        W16335  38.270   3.801  12.321
43911W        W16336  41.311  21.004  14.367
43912W        W16337  30.573  18.302   1.842
43913W        W16338  34.867  23.885  11.700
43914W        W16339  35.355  25.048   2.507
43915W        W16340  30.525  26.020   4.393
43916W        W16341   8.293   6.938  12.998
43917W        W16342  22.387   7.740   3.250
43918W        W16343  41.441  30.351  13.365
43919W        W16344   0.892  31.707   2.757
43920W        W16345  34.436  35.119  11.145
43921W        W16346  37.134  38.443  13.849
43922W        W16347   3.982  12.586   4.188
43923W        W16348   8.809  24.277   0.440
43924W        W16349   7.198  22.980  14.964
43925W        W16350  34.377  16.867  11.923
43926W        W16351  27.537   0.844   4.569
43927W        W16352  15.229  34.296  13.898
43928W        W16353   0.498   6.212   3.766
43929W        W16354   2.170  24.030  10.706
43930W        W16355  10.447   0.349  11.473
43931W        W16356  27.692  13.820   2.492
43932W        W16357  36.580  23.060  13.404
43933W        W16358  18.174  35.905  11.689
43934W        W16359  33.024  20.553  14.998
43935W        W16360  19.494  23.225  14.929
43936W        W16361  15.810  33.445   4.449
43937W        W16362  28.249  26.507  10.747
43938W        W16363  34.956  26.295  12.870
43939W        W16364  21.789  34.517  12.115
43940W        W16365  35.499  44.991  14.764
43941W        W16366  42.798  27.542   0.375
43942W        W16367  43.287  27.820   2.274
43943W        W16368  15.640   8.428   5.022
43944W        W16369  31.156   4.826   3.864
43945W        W16370  39.739   5.731   1.879
43946W        W16371  20.683  43.536   1.917
43947W        W16372   9.875   7.917  12.967
43948W        W16373  30.601  37.665  12.403
43949W        W16374   3.887  29.552  13.344
43950W        W16375   0.839  43.951  10.693
43951W        W16376  16.122   4.177  14.012
43952W        W16377  39.127  34.485  12.110
43953W        W16378  44.315  17.350  12.595
43954W        W16379  31.678  36.873  14.977
43955W        W16380   4.215  32.349  13.384
43956W        W16381  26.092  30.971  10.556
43957W        W16382   4.524  27.293   3.512
43958W        W16383  20.442  34.590   1.469
43959W        W16384  25.522  42.492   0.228
43960W        W16385  44.252  38.712   4.934
43961W        W16386   3.403  38.871  10.558
43962W        W16387  10.117  19.556  11.630
43963W        W16388  26.735  12.160  11.127
43964W        W16389  30.385  20.504   3.071
43965W        W16390   9.345  38.079   1.516
43966W        W16391  19.644  21.952  14.185
43967W        W16392  25.169   7.504   4.260
43968W        W16393   7.823   1.509   0.481
43969W        W16394   3.373  30.348  13.145
43970W        W16395  33.575  24.146   2.805
43971W        W16396  44.836  33.286  13.813
43972W        W16397   6.216  30.981  14.944
43973W        W16398  22.023  39.243  12.419
43974W        W16399  13.220   8.679   4.976
43975W        W16400   6.451  40.469   5.080
43976W        W16401  44.863  28.552  12.482
43977W        W16402  10.578  42.815   3.310
43978W        W16403  35.912  23.426   2.726
43979W        W16404  33.558  36.226  14.321
43980W        W16405  11.687  20.046   4.311
43981W        W16406  29.504  29.905   1.721
43982W        W16407  31.483  13.635  14.209
43983W        W16408  27.200  15.499  14.478
43984W        W16409  15.201   0.441   3.692
43985W        W16410  15.564  32.976   1.205
43986W        W16411  40.784  22.135   2.829
43987W        W16412  13.829  15.276   2.605
43988W        W16413  38.624  25.996   0.952
43989W        W16414   6.196  20.012   4.585
43990W        W16415  25.770   1.402   0.234
43991W        W16416  10.699  30.354  13.952
43992W        W16417   9.827  12.748   0.947
43993W        W16418  40.558  27.942  10.633
43994W        W16419   1.952  35.437  13.589
43995W        W16420  34.266  21.698   4.195
43996W        W16421  31.666  39.853   0.969
43997W        W16422   4.862  30.880  11.948
43998W        W16423  39.733  32.949   3.438
43999W        W16424   9.660   7.239   1.954
44000W        W16425   1.417  15.797   1.769
44001W        W16426  13.071   5.404  10.914
44002W        W16427   9.810  36.987   1.914
44003W        W16428  26.107  29.032   4.674
44004W        W16429  17.576   8.309   1.234
44005W        W16430  44.469   5.220   1.638
44006W        W16431  14.949  34.342   1.045
44007W        W16432  21.571  32.200  11.845
44008W        W16433   3.309  29.553  14.057
44009W        W16434  23.487  34.731   2.837
44010W        W16435  37.422   2.665   0.263
44011W        W16436  30.425  31.573   1.874
44012W        W16437  10.242   9.231   1.616
44013W        W16438  12.743  24.626  13.051
44014W        W16439  33.894  35.922   3.296
44015W        W16440  39.084   8.643   2.392
44016W        W16441  19.060  11.644   3.570
44017W        W16442  35.563  10.627   3.143
44018W        W16443  21.702  23.449  10.786
44019W        W16444  28.722  13.855   0.562
44020W        W16445   7.966   3.879   0.529
44021W        W16446  35.070   1.081  14.390
44022W        W16447  40.370   3.738  11.944
44023W        W16448  16.985  10.196   2.296
44024W        W16449   5.480  27.924  12.057
44025W        W16450   1.237  27.615   2.329
44026W        W16451  39.334  32.068   4.080
44027W        W16452  21.243  11.698   5.560
44028W        W16453  31.862  13.198   1.309
44029W        W16454  35.922  23.176   4.556
44030W        W16455  18.131  29.082  14.408
44031W        W16456  38.269  42.399  14.877
44032W        W16457  34.153   6.296   3.089
44033W        W16458  36.129   7.916  11.454
44034W        W16459  27.524  30.080   1.701
44035W        W16460  13.201   6.147  12.928
44036W        W16461  17.682  11.192  13.462
44037W        W16462  26.821  37.448  11.750
44038W        W16463   9.373   3.727  13.765
44039W        W16464   6.270  10.718  10.649
44040W        W16465  44.586  29.597   1.847
44041W        W16466  17.007   8.422  14.911
44042W        W16467  41.915  40.273   3.183
44043W        W16468  34.627  12.578   4.956
44044W        W16469  21.656  20.304   0.821
44045W        W16470  37.981  15.794  11.688
44046W        W16471   7.744   2.031   0.446
44047W        W16472  22.499  25.936  12.553
44048W        W16473  17.759  35.289  14.233
44049W        W16474  14.820  14.253   2.591
44050W        W16475  26.745   0.868   2.272
44051W        W16476  27.437  39.505  11.395
44052W        W16477  34.894   2.827   1.656
44053W        W16478  41.840  44.325   0.277
44054W        W16479  34.461   3.347   4.659
44055W        W16480  29.165  27.953  13.348
44056W        W16481   1.737  25.456   3.142
44057W        W16482  38.906  40.286  11.244
44058W        W16483   1.521  13.813  12.993
44059W        W16484  27.237  35.450   1.305
44060W        W16485  22.758  36.095   2.806
44061W        W16486  34.960  29.365  11.751
44062W        W16487   2.472  17.822   2.415
44063W        W16488  26.137  23.963  11.484
44064W        W16489  22.068   4.761  11.670
44065W        W16490  27.302  24.159   4.134
44066W        W16491  31.939  33.888  14.956
44067W        W16492  28.088  10.361   4.928
44068W        W16493  43.186  26.707  12.477
44069W        W16494  17.627   7.172   1.854
44070W        W16495  16.673   1.800  14.737
44071W        W16496  28.519  41.846   9.808
44072W        W16497  42.888  42.950   4.418
44073W        W16498   6.404  32.859  12.103
44074W        W16499  42.284  15.148  11.957
44075W        W16500   1.728  38.898   4.094
44076W        W16501  10.684  25.506  12.327
44077W        W16502  24.567  13.260  13.247
44078W        W16503  21.043   4.210  12.648
44079W        W16504  16.622  22.898  13.646
44080W        W16505   8.881  31.395  13.020
44081W        W16506  27.137   3.216   0.225
44082W        W16507   5.254  25.724   3.355
44083W        W16508  40.454  17.467   1.583
44084W        W16509   6.308  42.558   0.406
44085W        W16510  10.006   0.740  14.610
44086W        W16511   1.394  31.375   3.763
44087W        W16512  11.639  28.122   2.247
44088W        W16513  21.243   4.112  13.128
44089W        W16514  28.581   5.824   1.422
44090W        W16515  12.745  28.175  10.752
44091W        W16516   4.301   3.736  13.531
44092W        W16517   2.272  27.569  13.373
44093W        W16518  13.677   3.693  12.905
44094W        W16519  12.166  21.917   2.263
44095W        W16520  36.849  32.850   1.734
44096W        W16521   0.359  37.063   4.149
44097W        W16522  40.543   7.924  10.850
44098W        W16523  27.979  18.681  10.610
44099W        W16524  27.680   3.501  11.864
44100W        W16525  11.403  32.189   3.795
44101W        W16526  43.818  18.107  13.952
44102W        W16527   0.640   5.657   1.599
44103W        W16528   0.015   8.131   3.228
44104W        W16529  12.586  25.168   2.688
44105W        W16530  39.449   4.333  11.923
44106W        W16531  42.353  26.530   2.727
44107W        W16532  35.796  40.867   4.524
44108W        W16533  10.551  18.551  13.669
44109W        W16534  21.080   2.364   4.611
44110W        W16535   2.808  18.828  12.040
44111W        W16536  18.388   8.758  12.339
44112W        W16537  36.794  30.532  13.219
44113W        W16538  32.483  29.529   2.644
44114W        W16539   7.599  21.630   1.785
44115W        W16540   6.839  39.926   4.563
44116W        W16541  15.357  30.607   2.728
44117W        W16542   8.261  16.980  12.938
44118W        W16543  24.436  15.996  12.878
44119W        W16544  40.062   6.847  14.943
44120W        W16545  35.010  10.587   0.821
44121W        W16546  27.991  38.477   1.549
44122W        W16547  13.575  28.410   2.839
44123W        W16548  24.579   1.722  11.577
44124W        W16549  38.970  39.800  10.689
44125W        W16550  26.283   3.267   0.157
44126W        W16551  41.247  13.793   4.844
44127W        W16552  16.652   3.371   0.234
44128W        W16553  20.369   0.465  12.061
44129W        W16554  34.871   8.687  12.253
44130W        W16555   3.726  22.271   4.367
44131W        W16556  11.887   7.751   0.299
44132W        W16557  28.592  38.307   2.826
44133W        W16558  12.389  37.349  14.812
44134W        W16559  24.722   1.997  10.555
44135W        W16560  14.073  15.231   3.965
44136W        W16561  12.622  10.309  11.617
44137W        W16562  15.272   3.901   5.157
44138W        W16563   2.853   5.240  14.374
44139W        W16564  26.027  40.781  14.819
44140W        W16565  32.685  41.810   1.754
44141W        W16566  27.502  44.869   2.392
44142W        W16567  27.513  23.556   1.621
44143W        W16568  27.237   3.274   2.095
44144W        W16569  15.647  23.767  11.736
44145W        W16570  42.612  38.872  12.475
44146W        W16571  37.800  40.176  12.985
44147W        W16572  39.841   6.897  14.470
44148W        W16573  44.357  23.114  10.422
44149W        W16574  40.461   1.225  14.693
44150W        W16575  27.082  27.923   3.690
44151W        W16576  10.280   3.863  13.570
44152W        W16577   9.119   4.206  11.071
44153W        W16578  33.667   5.269  11.726
44154W        W16579  35.977  23.157  12.869
44155W        W16580  10.565  41.293   1.861
44156W        W16581   0.341  12.410   2.644
44157W        W16582   2.222  17.367  13.441
44158W        W16583  37.318  43.835  10.677
44159W        W16584  24.570  15.276  11.571
44160W        W16585  43.542   0.006  13.344
44161W        W16586   8.108  16.293  14.000
44162W        W16587  17.165  27.787   1.132
44163W        W16588  26.632   7.247  11.522
44164W        W16589  32.420  32.606  11.143
44165W        W16590   5.249   1.924   3.679
44166W        W16591  15.889  24.173  11.429
44167W        W16592  38.365  18.874   1.915
44168W        W16593   9.589  16.183   0.837
44169W        W16594  14.628  19.255  13.966
44170W        W16595  32.633  40.892  12.941
44171W        W16596  44.387  33.402   3.611
44172W        W16597  28.615  14.337  12.882
44173W        W16598  12.717   8.643   1.464
44174W        W16599   5.284  15.213   3.120
44175W        W16600  44.431  39.522  12.400
44176W        W16601  15.797  17.959  13.415
44177W        W16602  24.064  22.529   3.007
44178W        W16603  30.136  18.177   3.890
44179W        W16604  13.391   3.729  14.425
44180W        W16605   0.292  26.470  11.151
44181W        W16606  13.859   4.446  11.606
44182W        W16607  17.348   9.776   0.134
44183W        W16608  32.384   7.170  13.401
44184W        W16609  35.465  22.779   1.481
44185W        W16610   9.695  44.740   1.395
44186W        W16611   7.676  41.407  10.746
44187W        W16612   9.807   1.717  13.078
44188W        W16613   2.784  15.606  10.186
44189W        W16614  42.917  13.705  14.206
44190W        W16615  20.210  41.527  14.694
44191W        W16616  20.496   8.286  13.437
44192W        W16617   5.666  32.142   1.170
44193W        W16618   4.213  18.600  10.773
44194W        W16619   4.415  30.432  10.680
44195W        W16620  21.994  27.089  12.014
44196W        W16621  32.791   7.279  14.966
44197W        W16622  18.480  34.561  10.374
44198W        W16623  23.078   0.686  14.499
44199W        W16624  12.167  34.181   4.168
44200W        W16625  27.924  40.140   0.386
44201W        W16626  37.059   4.816   4.332
44202W        W16627  33.881  30.025  11.166
44203W        W16628  21.570  19.258   0.886
44204W        W16629  37.729  34.035   0.192
44205W        W16630  29.225  30.688   4.154
44206W        W16631  15.642  32.213  12.973
44207W        W16632  14.770   0.904   2.834
44208W        W16633  25.066  31.776   1.237
44209W        W16634  29.966   6.831   3.122
44210W        W16635  26.391   7.458   0.343
44211W        W16636  11.265   7.093  11.458
44212W        W16637  38.985  42.886   4.753
44213W        W16638  37.731  35.887  12.585
44214W        W16639  36.599   8.487   0.737
44215W        W16640  43.045   6.920  10.742
44216W        W16641  39.975  10.141   2.321
44217W        W16642  21.078  43.823  14.272
44218W        W16643  15.776  17.147  10.641
44219W        W16644  19.489  31.903  10.076
44220W        W16645   1.493  37.377  12.055
44221W        W16646  29.648  44.233   2.623
44222W        W16647  12.165  14.372  13.924
44223W        W16648   3.665  43.834  13.116
44224W        W16649   8.625   8.132   1.833
44225W        W16650  11.561  15.799   0.439
44226W        W16651  42.446  33.518  12.046
44227W        W16652  20.789  30.650  14.788
44228W        W16653  11.883   5.867  11.173
44229W        W16654  29.274  27.661  11.719
44230W        W16655   7.395  13.559   4.603
44231W        W16656  15.442  44.777  11.697
44232W        W16657   7.910  27.169   0.836
44233W        W16658   7.225   0.960   4.971
44234W        W16659  11.892  25.016  10.535
44235W        W16660   8.123  37.928  13.363
44236W        W16661  17.263  20.478  13.718
44237W        W16662  24.450  24.903  11.611
44238W        W16663  38.989   5.766   1.208
44239W        W16664  17.987  30.829  13.551
44240W        W16665  13.807   6.811  14.038
44241W        W16666  39.938  25.144  14.435
44242W        W16667  11.885  34.131   4.938
44243W        W16668  23.803  43.227   1.706
44244W        W16669  36.563  17.006   0.744
44245W        W16670  26.514  43.209  13.930
44246W        W16671  18.195  18.093   3.365
44247W        W16672   6.344  12.613  13.730
44248W        W16673   5.477  26.083  13.393
44249W        W16674  25.447  23.033   2.109
44250W        W16675  18.088   7.637   3.477
44251W        W16676  29.634  38.421  14.922
44252W        W16677  29.812  20.584   5.011
44253W        W16678   7.485  34.153   3.215
44254W        W16679  37.687  14.798   1.680
44255W        W16680  19.718   2.490  12.979
44256W        W16681   6.939   9.871   3.669
44257W        W16682  32.667   2.167  12.957
44258W        W16683  13.664  35.834  14.426
44259W        W16684  31.373   5.383  12.870
44260W        W16685  25.193   3.022   0.405
44261W        W16686  12.706  28.587   4.378
44262W        W16687  29.011  11.312  14.384
44263W        W16688  33.980  14.312   2.191
44264W        W16689  41.776  31.916   1.385
44265W        W16690  31.992  36.254  10.257
44266W        W16691  42.352  24.495  13.847
44267W        W16692  44.607  44.612  12.492
44268W        W16693  18.624  22.538  13.007
44269W        W16694  31.553  33.770   4.221
44270W        W16695   6.699   6.782  11.962
44271W        W16696   9.245  18.003  11.679
44272W        W16697  18.054  40.447  11.105
44273W        W16698  10.238  31.595   3.719
44274W        W16699  37.734  26.146   1.851
44275W        W16700   6.674  40.082  12.462
44276W        W16701  16.593  44.368  13.423
44277W        W16702  14.981  11.840   2.403
44278W        W16703   4.450  12.081   2.755
44279W        W16704  11.336  21.719  12.061
44280W        W16705   5.644  20.628   1.891
44281W        W16706   0.372  21.735  12.116
44282W        W16707  31.851  38.966   5.113
44283W        W16708  33.818  24.145  12.102
44284W        W16709  44.043  16.764  11.083
44285W        W16710  11.233  21.671   2.793
44286W        W16711  36.903  29.510   4.535
44287W        W16712  13.589  15.199  12.917
44288W        W16713  17.331  35.987  14.774
44289W        W16714  14.675  13.601  12.465
44290W        W16715  32.345  12.612   3.352
44291W        W16716  26.904   4.943   2.671
44292W        W16717  30.502  26.057   3.338
44293W        W16718  33.949  32.193   2.397
44294W        W16719  23.146  38.308  12.553
44295W        W16720  38.611  25.153  11.970
44296W        W16721  39.827   2.353  10.664
44297W        W16722   6.006   6.745  13.332
44298W        W16723   5.692  12.322   4.589
44299W        W16724  17.036  28.927  13.108
44300W        W16725  18.436  30.356  11.547
44301W        W16726  31.207   3.804   1.851
44302W        W16727  36.383  38.394  13.336
44303W        W16728  19.172  11.731  14.380
44304W        W16729  21.065  17.499  14.059
44305W        W16730  42.475  30.366  14.261
44306W        W16731  26.976  32.661   3.685
44307W        W16732  17.499  20.641  14.864
44308W        W16733  22.395  39.943  11.233
44309W        W16734  16.130  34.932   3.701
44310W        W16735  19.163  21.854  13.918
44311W        W16736  40.370   0.317   2.678
44312W        W16737   1.975   6.815   0.434
44313W        W16738  38.744  35.246   2.917
44314W        W16739  40.904  33.546  14.369
44315W        W16740  13.397   6.730   0.467
44316W        W16741   3.887  31.031   3.298
44317W        W16742  21.733  22.021  11.217
44318W        W16743  24.733   0.482  12.514
44319W        W16744  10.165  22.596  10.632
44320W        W16745  36.081   4.356  11.849
44321W        W16746  32.066   2.006  12.064
44322W        W16747  42.201   8.873   3.134
44323W        W16748  24.480   0.062  14.391
44324W        W16749  41.048  20.433  13.079
44325W        W16750  27.444  18.969   1.255
44326W        W16751   1.214  33.169  11.473
44327W        W16752   8.206   2.584  13.198
44328W        W16753  38.226   2.263  13.058
44329W        W16754  37.921  11.143  12.262
44330W        W16755  31.253  27.508  12.399
44331W        W16756  20.546  30.631  10.668
44332W        W16757  33.502  35.080   3.322
44333W        W16758   5.888   4.777  13.499
44334W        W16759  42.914  19.494   3.656
44335W        W16760  26.931  16.731   0.798
44336W        W16761  42.723  22.512  14.726
44337W        W16762   6.376  17.793   3.736
44338W        W16763   5.214  41.579   2.661
44339W        W16764  33.112  33.339  13.389
44340W        W16765  12.608  35.788  11.914
44341W        W16766  18.277  16.888   3.556
44342W        W16767  16.811  37.941  13.954
44343W        W16768  21.051   0.756  13.549
44344W        W16769   6.484   8.447  11.973
44345W        W16770  13.472  27.901   0.259
44346W        W16771  29.640   5.570   1.846
44347W        W16772  38.929  35.713   2.790
44348W        W16773  33.708  35.542   1.760
44349W        W16774  35.593  20.995   1.707
44350W        W16775  42.283  19.949  14.413
44351W        W16776  30.944  16.353  13.390
44352W        W16777  23.506  17.900  10.696
44353W        W16778  35.015  42.312  12.421
44354W        W16779  41.541  34.494  10.715
44355W        W16780  18.194  37.616  12.407
44356W        W16781  23.468   0.987  13.430
44357W        W16782  21.241  32.450  12.179
44358W        W16783  28.713  31.658   4.725
44359W        W16784  36.497  38.441   3.585
44360W        W16785  16.877   5.862  11.500
44361W        W16786  26.839   9.809   1.353
44362W        W16787   7.341  27.503  14.525
44363W        W16788  37.913  28.504  13.982
44364W        W16789  26.801  34.562  10.078
44365W        W16790  20.795  37.272   3.141
44366W        W16791   3.695   8.301  14.022
44367W        W16792  38.964  15.050  13.021
44368W        W16793   3.105  29.221   1.537
44369W        W16794   9.691   0.477   0.937
44370W        W16795  26.075  32.352  12.519
44371W        W16796   3.904  42.833   3.879
44372W        W16797  28.567  38.050   4.197
44373W        W16798  33.549   7.728   0.945
44374W        W16799  26.424  15.941   0.712
44375W        W16800  37.534  20.149   1.671
44376W        W16801  13.116  42.812  13.530
44377W        W16802  21.569   2.681   0.819
44378W        W16803  28.511  36.035   4.305
44379W        W16804   9.271  38.916   1.950
44380W        W16805  40.348   6.754  13.565
44381W        W16806   4.491   5.267  12.536
44382W        W16807  17.030  24.557   2.702
44383W        W16808  27.274  12.213   0.963
44384W        W16809  16.463  27.974  10.881
44385W        W16810  11.809  37.318   4.562
44386W        W16811  22.781   0.600  12.088
44387W        W16812  39.862   1.979   2.364
44388W        W16813  36.447   6.363   3.245
44389W        W16814  34.063  44.192   0.643
44390W        W16815  14.255  12.557  11.947
44391W        W16816  14.784  28.215  14.950
44392W        W16817  41.077  28.010  10.676
44393W        W16818  44.560  17.794   1.634
44394W        W16819  41.888   4.436   1.180
44395W        W16820   4.816   1.988   3.987
44396W        W16821  13.542  10.201   4.062
44397W        W16822  44.229  28.208  11.134
44398W        W16823  29.483  42.450  10.575
44399W        W16824  14.651  31.042   3.765
44400W        W16825  34.069  40.045  11.137
44401W        W16826  23.564  36.459  10.652
44402W        W16827  27.131  31.805   4.217
44403W        W16828  25.271  33.211   4.152
44404W        W16829  31.426  40.494  14.350
44405W        W16830  31.175  27.618  14.262
44406W        W16831  22.019  29.165   4.153
44407W        W16832  17.645  42.019  13.161
44408W        W16833  10.003   2.934  10.985
44409W        W16834  25.595  22.253  11.649
44410W        W16835  16.118  22.127  13.872
44411W        W16836  35.645  25.841  13.313
44412W        W16837  18.327  18.796  11.598
44413W        W16838  32.045  16.031  12.902
44414W        W16839  39.347  29.882   1.922
44415W        W16840  23.416   8.926   3.708
44416W        W16841  40.429  33.506   2.399
44417W        W16842  37.687  23.998   2.347
44418W        W16843  29.460  31.376   2.860
44419W        W16844  37.938  11.774   1.428
44420W        W16845   1.474  32.369   3.190
44421W        W16846  42.843  19.129   2.711
44422W        W16847  16.141  17.541  14.909
44423W        W16848  38.998  44.243  14.911
44424W        W16849  18.843  17.419   0.701
44425W        W16850   3.528   8.595   1.331
44426W        W16851  13.591  35.153  13.763
44427W        W16852  17.456  30.042   0.903
44428W        W16853  17.332   8.131  14.040
44429W        W16854  15.574   2.229  12.394
44430W        W16855  14.366  16.085  13.647
44431W        W16856  16.236   9.213   2.460
44432W        W16857  14.816  30.180  12.509
44433W        W16858  41.901  13.592   0.943
44434W        W16859  28.150  30.094  14.571
44435W        W16860  24.746  30.889   5.154
44436W        W16861  40.446  34.473  11.589
44437W        W16862  44.514  36.909  11.159
44438W        W16863   2.338  14.242  13.159
44439W        W16864  23.185  12.767   1.845
44440W        W16865  38.508  37.080  14.963
44441W        W16866  33.603  15.173  10.568
44442W        W16867  24.778  33.590   1.737
44443W        W16868  30.167  32.594   0.379
44444W        W16869  43.742  26.606   3.191
44445W        W16870  36.207  38.941  10.818
44446W        W16871  42.771  13.370   2.308
44447W        W16872  12.653  10.532  11.154
44448W        W16873  29.568  25.535  10.616
44449W        W16874   4.025  39.346  10.680
44450W        W16875  34.083  33.382   1.344
44451W        W16876  12.390  39.278  12.819
44452W        W16877  17.421   1.268   0.200
44453W        W16878  27.265   7.910   2.147
44454W        W16879  27.182  25.551  11.181
44455W        W16880  23.164  44.584   0.885
44456W        W16881  16.285  41.895   2.345
44457W        W16882  40.501  31.469   1.304
44458W        W16883  10.891  22.546   4.972
44459W        W16884  19.253  13.247   0.744
44460W        W16885  39.994  31.040   0.519
44461W        W16886  40.968   5.734   1.377
44462W        W16887  25.661  28.642  11.645
44463W        W16888  39.470  14.304   0.391
44464W        W16889  35.602   4.298  14.427
44465W        W16890  10.706  15.793   2.410
44466W        W16891   7.927  34.188  13.756
44467W        W16892  18.809  33.943   1.983
44468W        W16893  15.399  14.282  12.126
44469W        W16894   7.190  24.676   0.678
44470W        W16895  20.269  38.441   2.286
44471W        W16896  10.384   7.469  13.938
44472W        W16897   4.821  34.000  11.661
44473W        W16898   6.824  40.353   3.159
44474W        W16899   8.400  33.018  13.522
44475W        W16900   0.306  24.559  11.520
44476W        W16901   9.645   0.267   2.333
44477W        W16902  37.064   3.210   1.308
44478W        W16903   7.683  40.337   3.633
44479W        W16904   7.273  40.918  13.760
44480W        W16905  14.040   0.343   4.883
44481W        W16906  32.201  39.449  10.437
44482W        W16907  30.600  13.883  11.424
44483W        W16908  11.318  21.687  13.573
44484W        W16909  12.618  43.930  10.788
44485W        W16910  36.634  44.779   2.706
44486W        W16911  21.734   7.426   1.428
44487W        W16912   0.486  21.627  11.142
44488W        W16913   6.296   3.410  12.877
44489W        W16914  25.976  17.221   2.189
44490W        W16915   6.873   9.112  14.364
44491W        W16916  39.917  12.102  11.976
44492W        W16917  22.359  30.409  10.982
44493W        W16918  39.807  19.222  13.938
44494W        W16919   3.544  14.235   0.066
44495W        W16920  27.572  33.786  11.525
44496W        W16921  11.872  10.620   0.434
44497W        W16922  34.677  19.215   1.769
44498W        W16923  43.094  11.362   4.693
44499W        W16924  40.637  38.514  13.052
44500W        W16925  17.636  23.115  12.178
44501W        W16926  23.106  18.252   4.676
44502W        W16927  31.832  42.337   2.699
44503W        W16928  25.663  42.078   3.780
44504W        W16929   6.561  41.291   4.194
44505W        W16930   8.183   9.393  13.867
44506W        W16931  31.355  18.154   4.392
44507W        W16932  44.840   0.982  11.514
44508W        W16933   6.315   2.751  11.510
44509W        W16934   5.477  14.522   2.674
44510W        W16935  35.633   6.906  11.004
44511W        W16936   9.192  35.879   3.982
44512W        W16937   2.424  27.240  12.388
44513W        W16938  15.690   5.206   4.858
44514W        W16939  33.392  41.278   3.129
44515W        W16940   5.961   8.753   4.327
44516W        W16941   2.974  24.095   0.860
44517W        W16942  25.474  20.878  12.174
44518W        W16943  32.220   6.654   4.280
44519W        W16944  31.858  13.401  10.731
44520W        W16945  29.923  44.438  14.064
44521W        W16946  22.432  24.063  11.023
44522W        W16947  14.890  35.902   3.208
44523W        W16948   0.700  44.466  14.537
44524W        W16949  31.466  37.983   0.839
44525W        W16950  20.794   5.207  13.783
44526W        W16951  12.637  18.579   0.994
44527W        W16952  21.732  30.052   2.434
44528W        W16953  14.777  27.728   0.656
44529W        W16954   1.030  26.877  14.315
44530W        W16955  43.353  37.983  14.405
44531W        W16956  13.653   3.040  11.548
44532W        W16957   7.466  37.762  11.155
44533W        W16958  32.037  40.656  12.109
44534W        W16959  22.434   3.903  12.168
44535W        W16960   6.549  13.856  12.917
44536W        W16961   6.366  39.542  11.460
44537W        W16962   0.332  40.029   2.256
44538W        W16963   7.856  12.197   2.770
44539W        W16964  36.498  26.303  13.501
44540W        W16965   7.436  32.882  11.026
44541W        W16966  16.124   4.101   2.316
44542W        W16967  30.947  17.093   2.306
44543W        W16968   7.951  28.178   1.646
44544W        W16969  13.143  44.546   2.641
44545W        W16970  43.840  20.729  11.168
44546W        W16971  35.006   8.236  10.915
44547W        W16972   6.787  26.463  11.747
44548W        W16973  39.029  12.891  12.418
44549W        W16974  41.482  40.764   2.749
44550W        W16975  11.460  29.499  12.406
44551W        W16976  42.382   4.287   3.657
44552W        W16977   1.827  10.322   4.589
44553W        W16978  33.846   4.893  14.427
44554W        W16979   6.820  39.017  13.116
44555W        W16980  17.085  42.246   3.166
44556W        W16981  16.313  25.671  14.889
44557W        W16982  33.948  24.501  13.891
44558W        W16983  43.557   8.319   1.857
44559W        W16984  20.703  33.695  10.808
44560W        W16985  43.438  12.082   1.417
44561W        W16986   1.168  37.384   1.394
44562W        W16987  24.425  17.052   3.240
44563W        W16988  42.962  39.353  12.875
44564W        W16989  14.643  26.150   3.256
44565W        W16990   5.865  42.739  13.343
44566W        W16991  35.440   8.247   0.848
44567W        W16992  43.807  12.228  10.953
44568W        W16993  16.714  17.600   4.082
44569W        W16994  10.614  16.369  14.780
44570W        W16995   9.183  28.849  11.539
44571W        W16996   8.262  32.049  11.556
44572W        W16997  12.319  39.930   3.170
44573W        W16998   5.575  26.736   2.245
44574W        W16999  43.091  44.344   2.520
44575W        W17000   9.372  33.338   0.268
44576W        W17001   3.666   6.891  10.597
44577W        W17002   2.779   8.651  12.288
44578W        W17003  34.121  44.836  11.197
44579W        W17004  41.125  22.562   3.597
44580W        W17005  16.631  29.580   4.725
44581W        W17006  18.058  38.781  11.518
44582W        W17007  24.637  11.306  11.192
44583W        W17008  18.063   3.538  13.469
44584W        W17009  37.031  26.602  10.727
44585W        W17010  21.546  44.866   4.316
44586W        W17011  14.823  11.800  13.353
44587W        W17012  24.892  28.310  11.086
44588W        W17013  12.319  33.561   4.584
44589W        W17014  19.005  42.798   2.279
44590W        W17015  29.753  11.247  12.536
44591W        W17016  12.891  17.208   4.548
44592W        W17017  29.427  35.813   1.444
44593W        W17018  19.213  10.940   4.567
44594W        W17019  44.724  38.927  13.891
44595W        W17020  18.788   5.832  14.200
44596W        W17021  25.213   4.445   3.661
44597W        W17022   3.218  17.176  11.182
44598W        W17023  18.534  20.019   2.906
44599W        W17024  43.333  35.070  11.550
44600W        W17025  24.169   7.732   3.981
44601W        W17026  28.654   8.715   0.688
44602W        W17027  28.180  24.516   3.044
44603W        W17028  39.951  23.065   0.820
44604W        W17029  35.084  40.633   0.924
44605W        W17030  11.234  27.633   2.387
44606W        W17031  39.331  27.040  13.457
44607W        W17032  21.332  37.667   2.576
44608W        W17033  19.786  25.629   3.754
44609W        W17034  28.261  31.201   2.205
44610W        W17035   2.368  24.175  14.994
44611W        W17036  28.964  16.851   0.951
44612W        W17037  10.765  25.148  11.075
44613W        W17038  30.688  18.653  12.511
44614W        W17039  38.090   3.630  10.702
44615W        W17040  35.525   4.875  12.157
44616W        W17041   6.790  40.931   0.602
44617W        W17042  37.297  40.416  11.560
44618W        W17043  20.997  17.659   0.031
44619W        W17044  31.603  19.474   3.711
44620W        W17045   5.798  12.447  14.844
44621W        W17046  13.333  38.284  14.428
44622W        W17047  41.371  13.161  13.906
44623W        W17048  25.006   6.426  12.877
44624W        W17049  30.654  30.110  13.896
44625W        W17050  37.520  39.933   0.537
44626W        W17051  14.235   4.299   9.630
44627W        W17052   3.802  38.793   0.889
44628W        W17053  14.260  20.123   1.237
44629W        W17054  18.229   0.209  12.832
44630W        W17055  10.998  27.602  14.541
44631W        W17056  32.589  16.013  14.731
44632W        W17057  25.491  41.997   0.018
44633W        W17058  11.122  15.765  14.481
44634W        W17059   0.343   0.923   2.573
44635W        W17060  27.089  12.535   2.687
44636W        W17061  34.948  16.579  14.277
44637W        W17062   9.774  40.422  11.275
44638W        W17063   0.655  27.001   4.558
44639W        W17064   7.366  10.906   1.309
44640W        W17065  44.797  38.853   4.331
44641W        W17066   9.356  36.434   1.800
44642W        W17067   6.274   9.197  10.663
44643W        W17068  37.062  42.844  12.590
44644W        W17069  13.549   3.228   1.405
44645W        W17070  24.274  22.756   3.411
44646W        W17071  12.517   6.646  10.611
44647W        W17072   9.993  26.301  11.366
44648W        W17073   4.336  42.288  13.873
44649W        W17074  26.033  34.448   2.549
44650W        W17075  42.853  19.497  11.698
44651W        W17076  30.901  20.277   1.368
44652W        W17077   9.058   4.983   5.022
44653W        W17078   7.204  35.576  12.017
44654W        W17079  37.830   0.687   3.020
44655W        W17080  33.961   6.986   3.684
44656W        W17081  25.606   3.507  12.376
44657W        W17082  13.195  13.550  12.134
44658W        W17083   0.242  13.783  11.988
44659W        W17084  28.930  21.570  10.021
44660W        W17085  28.918  22.141  12.127
44661W        W17086  21.554  34.534   4.343
44662W        W17087  41.986  30.022  14.817
44663W        W17088  30.388  11.292   0.891
44664W        W17089  26.745   8.872   0.487
44665W        W17090   3.467   0.544   2.673
44666W        W17091  41.502   2.374   1.950
44667W        W17092  24.927  17.070   4.073
44668W        W17093  13.164   7.957   4.691
44669W        W17094   7.413  29.665  12.508
44670W        W17095  32.057   7.427   2.605
44671W        W17096   5.966  30.102   3.417
44672W        W17097  11.816   0.286   2.355
44673W        W17098  27.904  30.584   3.727
44674W        W17099  16.731  17.148   1.225
44675W        W17100  31.921   1.768   1.339
44676W        W17101   9.612  26.272  12.971
44677W        W17102  33.240   2.453   2.304
44678W        W17103  26.118  31.162  11.545
44679W        W17104  12.202  22.559   4.591
44680W        W17105  12.836  39.242  13.057
44681W        W17106  23.403   5.914  12.556
44682W        W17107  19.490  11.617   2.757
44683W        W17108   5.536   3.343  10.777
44684W        W17109  22.680  23.796  13.939
44685W        W17110  39.473  12.971  14.075
44686W        W17111  10.540  17.181  14.608
44687W        W17112  15.879   3.423   2.901
44688W        W17113  43.141  44.480   3.779
44689W        W17114  42.800   0.369  12.940
44690W        W17115   2.300  44.323   3.178
44691W        W17116  10.951  34.310  10.619
44692W        W17117  42.919  17.025   1.565
44693W        W17118  17.321  28.521   0.342
44694W        W17119  32.098  26.224   1.583
44695W        W17120  19.138   1.971   4.236
44696W        W17121  27.066   9.579   1.773
44697W        W17122   0.351   3.474  12.566
44698W        W17123  37.216  26.172   1.893
44699W        W17124  28.893   8.868   3.193
44700W        W17125  22.711   7.036  10.235
44701W        W17126  33.408  20.993  12.012
44702W        W17127  12.406   3.154  12.384
44703W        W17128  11.696  25.875   4.810
44704W        W17129  16.079  31.995   1.694
44705W        W17130  13.219  24.587  12.051
44706W        W17131  32.090   6.003  12.028
44707W        W17132  20.244   3.805  13.046
44708W        W17133   9.127  23.634  11.986
44709W        W17134  34.478  39.447  11.770
44710W        W17135  21.197  13.772  13.042
44711W        W17136  27.449   6.620  11.789
44712W        W17137   4.187  41.847  11.484
44713W        W17138  30.060  26.671   4.174
44714W        W17139  35.930  38.925   3.731
44715W        W17140  30.672   2.783  12.945
44716W        W17141   6.623  42.748   5.201
44717W        W17142  36.851  35.533  14.923
44718W        W17143   1.024  36.037   1.724
44719W        W17144  16.753  33.597   4.662
44720W        W17145  44.487   2.133  12.871
44721W        W17146  33.517  42.384   3.891
44722W        W17147  27.338  35.879   2.292
44723W        W17148   8.078  15.891   4.661
44724W        W17149   0.729  26.215  11.250
44725W        W17150  42.353  39.850  12.349
44726W        W17151  29.520  15.242   0.688
44727W        W17152  31.613   8.351  11.171
44728W        W17153   3.491  31.554   3.736
44729W        W17154   2.992   4.183  12.917
44730W        W17155  19.771  15.190  14.575
44731W        W17156  37.315  20.631  11.349
44732W        W17157  30.838  30.911   0.424
44733W        W17158  38.830  31.844  11.093
44734W        W17159  40.882  36.603  12.067
44735W        W17160  20.535  42.531   2.690
44736W        W17161   4.513   4.676  13.325
44737W        W17162  31.071  30.691  13.049
44738W        W17163  38.353  32.806  13.938
44739W        W17164  29.431  12.690   4.550
44740W        W17165  14.986   4.673   0.322
44741W        W17166   5.320  14.906   1.807
44742W        W17167  20.592   7.359   2.719
44743W        W17168   9.840  13.219  11.599
44744W        W17169  40.887  22.741   1.198
44745W        W17170  44.301  24.176   3.099
44746W        W17171  30.779  33.972  10.782
44747W        W17172  42.861  12.202  14.563
44748W        W17173  32.932   0.751   4.065
44749W        W17174  34.127  17.362   2.321
44750W        W17175  19.997   2.266  14.404
44751W        W17176  43.749  43.956  10.752
44752W        W17177   8.773   8.136   3.267
44753W        W17178  10.513  24.929  10.259
44754W        W17179  22.056   9.457   4.463
44755W        W17180   5.348  19.194   4.991
44756W        W17181  15.545   2.451  12.859
44757W        W17182  39.948  14.061  13.071
44758W        W17183  26.582  19.645  12.023
44759W        W17184  27.449  30.862   4.181
44760W        W17185  28.438   1.403  12.509
44761W        W17186  23.761   0.378   4.668
44762W        W17187  25.455  43.220  11.831
44763W        W17188   5.972   6.115  13.864
44764W        W17189  43.209  34.566  14.490
44765W        W17190  10.775  16.349   3.847
44766W        W17191  18.153  29.050  11.186
44767W        W17192  26.069  32.060   4.977
44768W        W17193  16.371  14.840  12.154
44769W        W17194   1.359  43.337   0.670
44770W        W17195   2.306  36.092  13.831
44771W        W17196   0.710   1.234  14.341
44772W        W17197   9.926  37.714   3.425
44773W        W17198  12.309   1.044  14.753
44774W        W17199  27.190  27.632   1.884
44775W        W17200   7.402  26.709   4.569
44776W        W17201   6.348  32.958   4.754
44777W        W17202  14.247  10.217   2.773
44778W        W17203  39.735  28.564  14.163
44779W        W17204  23.557  12.495  12.789
44780W        W17205   9.169  29.168  14.356
44781W        W17206  22.044  40.323  14.272
44782W        W17207   6.032  33.576   2.218
44783W        W17208  30.998   1.810   4.959
44784W        W17209  36.937  17.449   4.864
44785W        W17210  27.432  24.936  13.444
44786W        W17211   5.184   8.301  11.702
44787W        W17212  22.165   9.682  13.105
44788W        W17213  15.361  26.425  12.150
44789W        W17214  10.168   0.233  10.668
44790W        W17215  12.746  27.927  11.200
44791W        W17216  24.104  23.793   2.682
44792W        W17217  17.817  38.887   0.928
44793W        W17218  24.628  14.044   2.703
44794W        W17219  32.060   4.487   4.619
44795W        W17220  39.401   1.712  10.766
44796W        W17221   3.186   7.926   0.043
44797W        W17222  22.609  23.574  12.171
44798W        W17223   3.015  16.529   2.213
44799W        W17224  27.230  23.689   0.912
44800W        W17225  16.345  29.879   0.369
44801W        W17226  15.778   6.910   0.418
44802W        W17227  26.751  11.420   0.705
44803W        W17228  33.828  17.502  11.207
44804W        W17229  36.270  31.996   5.213
44805W        W17230  20.599  34.878  12.140
44806W        W17231  12.744  14.822  12.933
44807W        W17232   5.930  18.670  14.791
44808W        W17233  41.506  17.463  13.894
44809W        W17234  36.325  41.130  10.994
44810W        W17235   0.734  20.055  11.464
44811W        W17236  43.912   3.234   0.938
44812W        W17237  27.725  22.063  10.553
44813W        W17238  31.011  28.400   3.614
44814W        W17239  36.336  11.841  13.290
44815W        W17240  30.098   8.578  12.810
44816W        W17241  38.401  43.359  14.891
44817W        W17242  16.595  36.397   4.952
44818W        W17243  26.410  21.089   0.739
44819W        W17244   3.065   9.364  11.044
44820W        W17245   4.743  31.349  14.722
44821W        W17246  15.180  31.048   0.813
44822W        W17247  17.690  33.636  14.808
44823W        W17248  22.878  40.362   3.280
44824W        W17249  28.456   4.706   0.035
44825W        W17250   7.598   8.353   0.869
44826W        W17251  24.963  37.860  14.125
44827W        W17252  30.794  17.306  12.524
44828W        W17253  21.629  12.954   4.180
44829W        W17254   9.797  31.109  11.955
44830W        W17255  15.129  36.470   0.085
44831W        W17256  39.561  30.833   2.829
44832W        W17257   0.923  22.830   2.985
44833W        W17258  40.208   1.025   4.584
44834W        W17259  40.480  24.695  11.108
44835W        W17260  27.932  13.186  14.458
44836W        W17261   2.839   5.310   3.091
44837W        W17262  43.338  38.509  12.038
44838W        W17263  37.843  32.978   0.000
44839W        W17264  36.528  10.150  14.269
44840W        W17265  19.395  21.304   4.430
44841W        W17266  38.354   1.685   2.287
44842W        W17267  42.060  16.220   4.671
44843W        W17268  25.742   4.916   1.223
44844W        W17269  37.570   6.125   2.641
44845W        W17270   6.825  23.059  13.840
44846W        W17271  17.044   9.310   0.293
44847W        W17272   1.848   1.956  11.573
44848W        W17273  16.329  17.599   4.530
44849W        W17274  23.963  39.196  14.194
44850W        W17275  35.029  23.960  14.738
44851W        W17276  25.707  33.340  12.859
44852W        W17277   6.358  41.897   4.736
44853W        W17278  21.068  19.773   1.619
44854W        W17279  36.405   3.206   4.555
44855W        W17280  23.452  26.678   0.723
44856W        W17281  33.599  32.298   1.850
44857W        W17282   1.155  38.338   3.194
44858W        W17283  26.107   2.438  14.859
44859W        W17284  12.145  43.923  10.566
44860W        W17285  44.202  37.200  10.123
44861W        W17286  29.667  24.682   1.243
44862W        W17287  37.440  22.109   0.942
44863W        W17288  10.126  32.848  11.493
44864W        W17289   2.415  18.638  13.994
44865W        W17290   5.867  25.592  13.043
44866W        W17291  42.589  24.136  11.735
44867W        W17292  23.718   2.282  13.925
44868W        W17293  33.800  27.899  13.409
44869W        W17294   1.699  27.349   1.441
44870W        W17295   3.278  27.034   2.260
44871W        W17296  20.038  10.970  14.763
44872W        W17297  43.039  43.269  13.517
44873W        W17298  10.535   9.854  11.196
44874W        W17299  15.108  15.440   3.743
44875W        W17300  25.489  10.135   2.028
44876W        W17301  39.795  28.955  10.678
44877W        W17302  12.716  26.513  12.505
44878W        W17303  44.699  24.136  13.864
44879W        W17304  16.284   1.909   4.756
44880W        W17305  40.246  31.608  11.207
44881W        W17306  36.352   2.004  11.606
44882W        W17307   9.694  36.351   1.239
44883W        W17308  13.198  15.431   4.607
44884W        W17309  40.493   3.846   0.265
44885W        W17310  42.447   4.061   3.197
44886W        W17311   6.466  30.088   3.634
44887W        W17312  41.323  10.869  12.449
44888W        W17313   2.323  35.530   4.607
44889W        W17314  16.691  17.793  11.607
44890W        W17315  26.196  11.624  10.657
44891W        W17316  19.614  42.578   4.035
44892W        W17317  33.695  23.143   0.812
44893W        W17318  26.743  26.597   2.568
44894W        W17319  25.108  24.617   3.702
44895W        W17320  19.257  11.636  14.893
44896W        W17321  32.649  25.046   4.079
44897W        W17322   7.275  40.971   0.397
44898W        W17323  32.577  23.438  13.906
44899W        W17324  16.395   8.616  14.010
44900W        W17325  30.893  28.189   2.694
44901W        W17326   8.717  10.279   2.667
44902W        W17327   9.306  17.362  11.923
44903W        W17328  22.423  36.038   3.754
44904W        W17329  19.817  21.344  12.684
44905W        W17330  38.212   8.155   1.433
44906W        W17331  14.699  13.460   4.949
44907W        W17332   7.308  41.870  13.785
44908W        W17333  35.623   3.949   1.402
44909W        W17334  18.798  14.848  14.966
44910W        W17335  41.009  23.208   1.380
44911W        W17336   2.939  10.147  12.578
44912W        W17337  37.963  43.415  13.892
44913W        W17338  43.896   3.727   3.184
44914W        W17339   3.734  35.017  13.938
44915W        W17340  29.587  34.901   2.423
44916W        W17341  25.171  28.576   0.459
44917W        W17342  43.445  13.174  11.527
44918W        W17343  32.622  37.016   0.954
44919W        W17344   4.637  35.903   0.881
44920W        W17345   4.026  39.752   1.835
44921W        W17346  22.543  15.074  10.325
44922W        W17347  37.286  34.850  10.425
44923W        W17348  38.099  19.081  13.440
44924W        W17349  15.057  32.109   0.842
44925W        W17350   3.296  35.572   2.382
44926W        W17351  25.864  31.954   5.434
44927W        W17352   1.369  12.088   2.236
44928W        W17353  43.779  16.617   3.078
44929W        W17354  39.761   5.346  13.728
44930W        W17355  18.160   5.410  10.373
44931W        W17356  38.206   5.496  11.196
44932W        W17357  20.529  28.982  12.335
44933W        W17358   7.173   6.874   3.699
44934W        W17359  13.127  24.253  10.573
44935W        W17360  10.316  12.764   0.735
44936W        W17361   5.125   0.716  13.429
44937W        W17362  22.156  10.441  14.211
44938W        W17363  37.331  30.705  14.747
44939W        W17364  38.373  22.278   0.253
44940W        W17365  41.435   7.855  14.373
44941W        W17366  36.312  21.534   1.230
44942W        W17367  18.236  26.168   4.677
44943W        W17368  26.213  25.911   0.773
44944W        W17369  41.278  34.978  10.724
44945W        W17370  36.972   2.084   2.164
44946W        W17371  25.192  27.047  12.688
44947W        W17372  36.904  41.841   0.998
44948W        W17373  22.295  28.591  12.839
44949W        W17374  30.121  12.704  12.011
44950W        W17375  16.114   1.549   3.330
44951W        W17376   7.233  28.136  10.981
44952W        W17377  19.076  22.496   0.709
44953W        W17378  16.077  20.452   3.608
44954W        W17379  40.473  40.468  14.077
44955W        W17380  27.630  41.174   2.607
44956W        W17381  27.109  32.819   0.023
44957W        W17382  13.615  12.400   3.618
44958W        W17383  28.226   0.542   1.410
44959W        W17384  16.513  34.999  14.894
44960W        W17385  23.546  12.012  11.030
44961W        W17386  18.994  26.031   1.007
44962W        W17387  20.178  16.844  14.356
44963W        W17388  25.772  32.517   3.215
44964W        W17389  39.891  28.447  13.681
44965W        W17390  27.282   6.431  14.898
44966W        W17391  22.058   8.372   1.232
44967W        W17392  28.186  12.560  14.388
44968W        W17393   2.442   5.067  11.178
44969W        W17394  31.829  21.227   0.292
44970W        W17395  37.911   5.089  13.513
44971W        W17396  24.078  40.733  10.575
44972W        W17397  22.479   2.273  10.617
44973W        W17398   5.355  11.558  11.060
44974W        W17399  27.737  20.246  10.685
44975W        W17400   7.238  38.620   3.411
44976W        W17401  16.156  26.683   0.034
44977W        W17402  31.639   0.375   1.269
44978W        W17403  39.554   9.619  14.477
44979W        W17404  29.197  38.523   4.138
44980W        W17405  26.662   7.907   0.366
44981W        W17406   7.582  20.755  13.878
44982W        W17407  37.794  21.092   3.367
44983W        W17408  43.616   3.401  12.071
44984W        W17409  24.146  15.277   2.850
44985W        W17410  30.454  35.265  13.865
44986W        W17411   6.229  31.855   4.063
44987W        W17412  28.036  37.456  12.195
44988W        W17413   1.228  34.947   4.867
44989W        W17414  27.915  40.430  14.912
44990W        W17415   6.959  21.137  12.916
44991W        W17416  22.679   9.872   2.443
44992W        W17417  37.307   9.364   2.844
44993W        W17418  12.003   6.756  10.686
44994W        W17419  16.077  12.623  14.754
44995W        W17420  26.267  15.135   1.229
44996W        W17421  25.860   6.837  10.482
44997W        W17422   9.278  33.618   3.221
44998W        W17423  14.183  14.829   3.121
44999W        W17424   0.402   7.214  14.992
45000W        W17425  27.100  27.621  11.568
45001W        W17426  17.129  38.336  13.479
45002W        W17427   2.743  28.503   0.830
45003W        W17428  11.845  24.938   3.232
45004W        W17429  29.127  33.321   1.906
45005W        W17430   9.751  29.045  14.860
45006W        W17431   8.182  31.998   3.336
45007W        W17432  18.267  16.317  11.025
45008W        W17433  26.695  37.289  14.763
45009W        W17434  43.260  21.870  10.201
45010W        W17435   9.383  38.383   2.768
45011W        W17436  24.946  11.432   4.167
45012W        W17437  27.882  25.749   2.329
45013W        W17438  33.448  28.624  10.383
45014W        W17439   4.864  10.791  13.583
45015W        W17440  14.185  28.178   4.253
45016W        W17441   1.374  30.540  13.570
45017W        W17442  16.146  13.564  12.550
45018W        W17443  33.421  18.318  13.236
45019W        W17444  11.023   3.108   4.544
45020W        W17445  18.474  36.097   0.946
45021W        W17446  37.330  43.722  12.979
45022W        W17447  38.823  30.059   1.324
45023W        W17448  29.789   6.192  12.051
45024W        W17449  21.160  43.416   2.194
45025W        W17450  30.159  43.379   4.700
45026W        W17451  19.506  32.384   2.384
45027W        W17452  21.022  11.729  12.593
45028W        W17453  35.422   5.886  12.177
45029W        W17454  36.867  29.113  11.026
45030W        W17455  29.572  23.465  14.835
45031W        W17456  11.025  30.138   4.218
45032W        W17457  35.926  40.227  13.571
45033W        W17458  29.508   2.900   1.446
45034W        W17459  28.635   2.020   3.814
45035W        W17460  14.326  16.041   2.874
45036W        W17461  14.470  20.968  12.468
45037W        W17462  11.383  25.153   4.159
45038W        W17463  24.179  32.762   1.573
45039W        W17464  16.574  39.635  11.949
45040W        W17465   8.341  15.901   3.882
45041W        W17466   0.371  33.357  13.499
45042W        W17467  33.099  27.558  12.176
45043W        W17468  40.236  34.949   2.159
45044W        W17469  27.924   0.389   4.136
45045W        W17470   3.396  44.231   1.735
45046W        W17471  38.128  14.127  14.371
45047W        W17472   1.158  32.074   0.490
45048W        W17473  41.165   6.211   1.315
45049W        W17474   7.209  21.020  11.201
45050W        W17475  38.023  34.438   0.922
45051W        W17476  35.275   9.207   5.649
45052W        W17477  22.063   3.603   0.292
45053W        W17478  42.988  28.149  11.705
45054W        W17479  18.803  31.353  11.633
45055W        W17480  26.692  42.766  14.136
45056W        W17481  35.540  25.410  12.087
45057W        W17482   4.892  10.425   4.474
45058W        W17483  15.418  32.944   0.442
45059W        W17484  14.749  21.602   3.852
45060W        W17485  36.120  15.158   2.472
45061W        W17486  13.327   3.838  13.571
45062W        W17487  11.762  35.146   2.782
45063W        W17488  36.058  10.853  11.754
45064W        W17489   5.435  16.932  14.055
45065W        W17490  28.543  24.195  12.067
45066W        W17491  26.669   5.984   3.272
45067W        W17492  39.802  18.295   2.902
45068W        W17493  16.517  37.693  12.344
45069W        W17494   9.190   4.440   2.768
45070W        W17495  42.375  15.094  12.469
45071W        W17496  31.447   1.709   1.663
45072W        W17497   7.923  14.780  10.689
45073W        W17498   8.484  20.053  10.905
45074W        W17499  34.874  32.905  13.918
45075W        W17500   9.257  29.501   3.115
45076W        W17501  40.303  43.937  13.064
45077W        W17502  15.860  36.323   5.040
45078W        W17503  22.760  31.873  11.572
45079W        W17504  43.980  29.420   0.898
45080W        W17505   1.485  37.644   1.708
45081W        W17506  44.710   1.211   2.268
45082W        W17507   6.971  43.966  11.244
45083W        W17508  23.184   5.120   3.777
45084W        W17509   3.723   9.884   1.244
45085W        W17510  35.376  29.103   1.357
45086W        W17511  11.087  41.859  10.611
45087W        W17512  23.602   9.703   5.154
45088W        W17513  38.901  11.648  13.776
45089W        W17514  32.391  42.339  14.294
45090W        W17515  43.657   1.274  14.474
45091W        W17516  13.317   8.300  13.311
45092W        W17517  16.200  13.850   1.297
45093W        W17518  15.743  32.412  12.495
45094W        W17519  13.268   9.531  11.161
45095W        W17520   9.623  17.086  14.731
45096W        W17521   2.306  43.762  11.935
45097W        W17522  12.891  38.587  14.373
45098W        W17523   5.700  19.158   4.610
45099W        W17524  37.866  28.097  11.622
45100W        W17525  32.021   1.409  10.960
45101W        W17526   9.164  39.709  13.414
45102W        W17527  15.872  39.932  12.426
45103W        W17528  27.468  17.988   3.758
45104W        W17529  38.319  28.446  14.295
45105W        W17530  19.087  12.096   3.178
45106W        W17531  20.973   5.457  11.846
45107W        W17532   8.941  18.589   0.883
45108W        W17533  19.720   4.523  14.727
45109W        W17534  18.216   7.315   0.137
45110W        W17535   7.306   4.304  12.639
45111W        W17536   3.453  21.159   9.831
45112W        W17537  41.420   4.292   2.812
45113W        W17538  30.881  28.163   1.336
45114W        W17539   7.766  42.751   2.693
45115W        W17540  25.659  14.776  14.456
45116W        W17541  35.424  27.969  13.878
45117W        W17542  24.863  39.507   2.754
45118W        W17543  34.366  21.706   1.432
45119W        W17544   7.358  23.675   1.418
45120W        W17545  11.223  35.880   2.613
45121W        W17546  25.996  21.967  14.982
45122W        W17547  21.108   8.626   0.213
45123W        W17548  30.946   2.367   3.256
45124W        W17549  26.798  30.278   2.737
45125W        W17550  10.734   6.563  13.586
45126W        W17551  25.754  34.162   0.814
45127W        W17552  25.573  23.627   4.650
45128W        W17553  28.019  34.486  12.927
45129W        W17554   0.844   2.292   1.706
45130W        W17555  13.748   5.700  10.760
45131W        W17556  42.021   4.245   4.600
45132W        W17557   9.197  19.778  12.933
45133W        W17558   3.711   9.653  14.793
45134W        W17559  36.905  43.866  13.418
45135W        W17560  38.939  19.092   0.610
45136W        W17561  11.368   0.995  13.267
45137W        W17562  37.237  42.477   2.871
45138W        W17563   3.873   2.109   4.118
45139W        W17564   5.158  41.431  14.268
45140W        W17565   1.276   4.865  10.540
45141W        W17566  29.814  26.567  13.279
45142W        W17567  27.342  23.979   1.898
45143W        W17568  17.071   4.948  13.479
45144W        W17569  37.577  27.052   2.248
45145W        W17570   7.753  19.102   2.722
45146W        W17571  14.333  28.411   3.759
45147W        W17572  19.203  34.560   1.047
45148W        W17573  29.902  14.349   0.289
45149W        W17574   7.928  10.083  14.330
45150W        W17575  34.576  43.349   0.874
45151W        W17576  14.300  23.174  13.443
45152W        W17577  19.544  25.423  13.450
45153W        W17578   2.793  38.464  14.970
45154W        W17579   8.626  11.659  13.799
45155W        W17580  44.606   0.480   3.190
45156W        W17581   0.739   6.641  10.526
45157W        W17582  14.615  27.077   0.853
45158W        W17583   1.755  39.043   3.194
45159W        W17584  42.007   5.308   4.430
45160W        W17585  14.156  44.730   4.271
45161W        W17586  34.237  32.892   4.576
45162W        W17587  13.119  26.104   2.669
45163W        W17588  33.521   0.988   4.197
45164W        W17589  13.110  37.066  12.686
45165W        W17590  26.249  24.872   3.676
45166W        W17591   6.466  18.285   4.017
45167W        W17592  32.609  26.129   4.766
45168W        W17593  21.168   5.407  10.913
45169W        W17594  12.523   7.572  14.468
45170W        W17595  29.483   7.656  11.141
45171W        W17596  34.838  43.550  10.682
45172W        W17597  22.812   4.942  10.119
45173W        W17598  43.277  12.756  14.947
45174W        W17599   6.799  31.893   2.187
45175W        W17600  40.598  26.540   2.004
45176W        W17601  22.433  19.495   3.334
45177W        W17602  36.052   2.675   3.534
45178W        W17603  13.184  41.032  14.838
45179W        W17604  11.338  26.967  13.881
45180W        W17605  30.178  32.903  13.883
45181W        W17606  11.277  39.225  14.523
45182W        W17607  39.500  28.019   4.598
45183W        W17608  41.260  33.496   2.434
45184W        W17609  20.036   0.819   0.821
45185W        W17610  42.979   9.876   2.587
45186W        W17611  39.971  43.235  10.752
45187W        W17612   7.029   4.276  11.163
45188W        W17613  26.047  34.491   0.515
45189W        W17614  25.101  23.089   0.296
45190W        W17615  40.124  26.356   1.868
45191W        W17616  35.801  35.325   3.244
45192W        W17617  30.472  17.257  12.111
45193W        W17618  17.069  20.290   4.164
45194W        W17619  14.171  15.746  14.768
45195W        W17620  42.900   1.760  10.761
45196W        W17621  43.900  41.999   2.678
45197W        W17622  21.546   3.500   0.423
45198W        W17623   7.668  20.599  10.670
45199W        W17624  12.681  21.293   0.692
45200W        W17625  43.255  11.123  11.481
45201W        W17626  43.783  37.538   3.506
45202W        W17627  34.535  31.401  13.467
45203W        W17628  27.185   4.412  13.878
45204W        W17629  20.384   9.706   2.396
45205W        W17630  16.840  37.340   2.190
45206W        W17631   4.487  22.517  14.935
45207W        W17632  26.788  24.292  13.988
45208W        W17633  30.120  21.707  11.893
45209W        W17634  34.483   2.931   1.298
45210W        W17635  11.133  30.536  10.500
45211W        W17636  16.258  33.303   1.450
45212W        W17637  36.631  35.600   4.245
45213W        W17638  24.476  11.324   1.351
45214W        W17639  17.334   3.518   9.820
45215W        W17640  36.947  19.636   2.622
45216W        W17641  27.652   7.170   1.743
45217W        W17642  39.758  33.387   1.242
45218W        W17643  41.514   2.408   2.993
45219W        W17644  25.540   5.798   3.646
45220W        W17645  35.900  35.949   2.367
45221W        W17646  22.476  16.243  12.156
45222W        W17647   9.986   2.428  13.423
45223W        W17648   1.196   0.699   3.776
45224W        W17649   6.798  32.874   3.231
45225W        W17650  13.143  35.534   3.681
45226W        W17651   4.934   0.217  13.391
45227W        W17652  15.961  11.073   3.679
45228W        W17653  30.913   9.128   4.690
45229W        W17654  22.519  35.080   0.804
45230W        W17655  34.450  11.216   2.244
45231W        W17656  32.583  21.972  13.459
45232W        W17657  17.145   3.994   3.640
45233W        W17658  34.465   2.438   3.157
45234W        W17659  39.656  18.224  10.643
45235W        W17660   7.140  39.572  10.667
45236W        W17661   3.699   2.966  13.113
45237W        W17662   2.238   9.912   2.358
45238W        W17663  22.046  41.256  12.023
45239W        W17664  38.500  16.223  11.212
45240W        W17665  21.927  31.421  10.779
45241W        W17666  12.651  44.368   1.171
45242W        W17667  13.828  31.548  14.908
45243W        W17668  38.935   7.757   1.454
45244W        W17669  42.653  32.007  13.836
45245W        W17670   7.703   1.564  11.563
45246W        W17671  30.301  13.716  12.406
45247W        W17672  21.682  25.526  11.417
45248W        W17673  41.355  23.202   3.657
45249W        W17674   4.707  16.234   4.828
45250W        W17675   4.225   2.042  10.799
45251W        W17676  36.365  42.337   2.652
45252W        W17677  28.953   6.779   0.427
45253W        W17678  16.791   1.401   4.071
45254W        W17679  30.848   0.978  11.562
45255W        W17680  25.630  18.816  13.568
45256W        W17681  28.186  34.301  13.393
45257W        W17682  15.266  13.271   3.598
45258W        W17683   0.001  27.767   1.844
45259W        W17684   6.686  15.628  13.329
45260W        W17685  11.123  32.974   0.966
45261W        W17686  15.209   1.054   3.094
45262W        W17687  25.014  13.110  13.450
45263W        W17688  16.824  11.623   1.420
45264W        W17689   8.568   7.377  11.156
45265W        W17690  24.123  32.444  14.374
45266W        W17691  44.560   7.098  14.043
45267W        W17692  44.886  18.793  12.569
45268W        W17693  39.873  29.987  11.539
45269W        W17694  22.327  10.663  11.859
45270W        W17695  28.865  37.999  10.669
45271W        W17696  12.526  26.215  10.360
45272W        W17697  24.607  27.910   4.163
45273W        W17698  33.473  24.082  14.499
45274W        W17699  38.401   9.268  10.496
45275W        W17700  41.812  35.134  11.479
45276W        W17701  23.229  35.217  12.933
45277W        W17702  17.279  41.854   0.730
45278W        W17703  24.584  37.558   4.158
45279W        W17704  34.404  26.946   0.474
45280W        W17705  10.045  29.551   0.875
45281W        W17706  25.260   9.630   2.357
45282W        W17707  41.121   7.433  14.349
45283W        W17708  33.194  24.934  13.464
45284W        W17709   3.313   2.726  12.854
45285W        W17710  20.724  39.051   1.291
45286W        W17711   0.862  10.854   2.182
45287W        W17712  22.575   6.687  14.418
45288W        W17713  33.219   6.805  11.040
45289W        W17714  28.980  21.750   1.225
45290W        W17715  19.584  24.741   0.808
45291W        W17716  27.751   4.911   0.491
45292W        W17717  26.463  31.322   1.770
45293W        W17718   4.679   8.815  10.092
45294W        W17719   8.813  41.379  10.713
45295W        W17720   8.342   3.258   1.482
45296W        W17721  34.518  19.255  12.221
45297W        W17722  31.051   5.274   2.625
45298W        W17723  29.023  39.345  10.287
45299W        W17724  14.772  29.179  14.003
45300W        W17725  23.197  18.785   2.825
45301W        W17726  33.511  25.664   3.069
45302W        W17727  28.201   2.425   2.890
45303W        W17728   0.232   7.939  10.481
45304W        W17729   3.398  40.262   2.528
45305W        W17730  14.907  41.105   0.698
45306W        W17731  27.053  41.789  13.943
45307W        W17732  21.820   9.919   4.514
45308W        W17733  30.675  18.885   4.100
45309W        W17734  13.748  32.033   2.808
45310W        W17735  11.417  31.847  10.523
45311W        W17736  26.297  42.332   0.817
45312W        W17737  29.958   3.686  14.687
45313W        W17738  39.581  44.088   3.523
45314W        W17739   0.363  33.021  11.149
45315W        W17740  19.515   9.139  14.775
45316W        W17741   7.384  17.081   3.251
45317W        W17742   1.270  32.352  13.350
45318W        W17743  35.602  42.977  13.895
45319W        W17744  16.333  44.555  14.287
45320W        W17745   3.372  20.125   1.276
45321W        W17746  34.613   7.520   4.734
45322W        W17747  19.443  23.634  11.101
45323W        W17748   5.939   7.791  11.542
45324W        W17749  17.216  32.406   0.922
45325W        W17750  37.974  41.539  14.786
45326W        W17751  44.389  42.066  12.855
45327W        W17752  41.385  31.862  11.746
45328W        W17753  16.989  43.307  11.624
45329W        W17754  29.925  10.473  13.928
45330W        W17755   7.170   0.777  13.546
45331W        W17756  44.365  33.702  10.257
45332W        W17757  15.323  30.381  14.268
45333W        W17758   7.351  28.084   2.385
45334W        W17759  13.441  14.174   4.107
45335W        W17760  26.243  40.843  12.527
45336W        W17761  33.607  22.723   1.181
45337W        W17762  18.597  30.593  12.008
45338W        W17763  15.062  14.560   2.920
45339W        W17764   3.736  23.998  13.463
45340W        W17765  20.571   1.276   0.281
45341W        W17766  40.274   9.210  11.054
45342W        W17767  10.169   3.723  11.656
45343W        W17768  33.168   1.969  13.043
45344W        W17769  19.057  22.173  12.024
45345W        W17770  41.148  26.250  13.922
45346W        W17771   9.948  28.674   2.352
45347W        W17772  23.000  24.057   2.373
45348W        W17773  22.659  15.189  14.896
45349W        W17774  21.032   0.272  12.659
45350W        W17775  32.598  42.335   2.024
45351W        W17776   2.233  41.500  14.312
45352W        W17777  31.684  34.156   4.548
45353W        W17778  27.063  29.436   1.278
45354W        W17779  35.042  41.989  13.627
45355W        W17780   2.936  43.783   1.293
45356W        W17781   3.319  21.591   0.057
45357W        W17782   2.974  21.138  12.986
45358W        W17783   1.712   2.561   4.037
45359W        W17784  15.061   9.748  10.567
45360W        W17785  15.702   5.636   4.536
45361W        W17786   0.005   3.483   0.364
45362W        W17787  25.578  19.789  14.758
45363W        W17788  42.867  34.311  11.025
45364W        W17789  31.594   6.467  14.889
45365W        W17790  31.353  33.441  12.356
45366W        W17791   8.878   5.645  13.987
45367W        W17792  22.175  14.700  12.109
45368W        W17793   9.233  30.951   4.323
45369W        W17794  27.378  12.887  12.406
45370W        W17795   9.848   0.648  13.871
45371W        W17796   8.462  14.540  12.868
45372W        W17797  36.575  38.275  14.867
45373W        W17798  39.557   0.818   3.592
45374W        W17799   6.154   9.401  12.838
45375W        W17800  19.659  23.354  14.458
45376W        W17801  36.574   4.337  11.147
45377W        W17802  37.047  22.652   2.039
45378W        W17803   3.340   7.209  12.049
45379W        W17804  42.063  22.744   5.491
45380W        W17805  39.267  13.119  10.710
45381W        W17806  39.276  10.790  13.986
45382W        W17807  26.603   4.215  10.863
45383W        W17808  30.524  29.592   0.025
45384W        W17809  20.982  43.050   1.255
45385W        W17810   0.361  28.656  14.745
45386W        W17811   2.809  22.106   0.351
45387W        W17812  37.889  33.929   1.025
45388W        W17813  23.057  29.401   3.647
45389W        W17814   6.265   0.610   0.075
45390W        W17815  44.930  39.704   4.105
45391W        W17816  22.208  13.318  12.004
45392W        W17817  31.581  33.771   4.876
45393W        W17818   0.797  10.235   3.252
45394W        W17819  38.601   0.390   4.315
45395W        W17820  39.885  20.186   3.412
45396W        W17821  11.752  28.424   0.341
45397W        W17822  43.550   5.693   2.128
45398W        W17823  25.151  36.809  14.849
45399W        W17824  15.729  38.815   0.052
45400W        W17825  15.226  33.943   3.626
45401W        W17826  12.742   2.907   1.777
45402W        W17827  23.512  33.655   2.782
45403W        W17828  14.056  11.731   1.325
45404W        W17829  37.175  31.348   2.380
45405W        W17830  24.137  10.618  14.304
45406W        W17831  43.237   1.919   3.318
45407W        W17832  18.365  39.051  11.104
45408W        W17833  34.528  12.521  10.177
45409W        W17834  28.500  21.029   1.321
45410W        W17835  11.176  20.120   4.238
45411W        W17836  38.881  19.722   3.674
45412W        W17837   3.600   7.841  13.301
45413W        W17838  26.494  25.714   5.035
45414W        W17839  19.444  38.349  14.084
45415W        W17840  43.273  20.058   4.027
45416W        W17841   7.799  42.782   4.069
45417W        W17842  11.264   6.834   2.597
45418W        W17843  11.858   4.852   2.307
45419W        W17844  29.931   3.309  12.920
45420W        W17845   6.251  30.447  12.172
45421W        W17846  15.610  13.372  12.801
45422W        W17847  32.028  17.438   1.814
45423W        W17848  22.109   0.185   0.305
45424W        W17849  13.767   2.505   4.670
45425W        W17850  21.776  18.062  14.422
45426W        W17851  13.778  14.615  14.858
45427W        W17852  29.204  31.059  13.645
45428W        W17853  25.114  27.007  11.736
45429W        W17854  44.574  12.746   2.303
45430W        W17855  38.297   9.430   2.741
45431W        W17856  34.922  17.053   4.069
45432W        W17857  32.108  43.689  13.374
45433W        W17858  24.720  12.696   4.781
45434W        W17859   7.854  19.975  14.890
45435W        W17860   4.220   6.406  13.145
45436W        W17861  23.047  28.521   3.848
45437W        W17862  44.328   0.905  11.528
45438W        W17863  10.571   8.333  12.464
45439W        W17864  10.391  30.910  11.644
45440W        W17865   4.966  42.246  12.538
45441W        W17866  30.894  34.268   4.047
45442W        W17867   1.419  44.865  14.019
45443W        W17868  14.574  41.050  13.329
45444W        W17869  37.965  37.525  14.312
45445W        W17870  33.394  41.389  14.409
45446W        W17871  38.423   8.207   1.889
45447W        W17872  27.096  18.225   0.498
45448W        W17873  14.393   9.449  11.234
45449W        W17874   1.940   2.143   3.190
45450W        W17875  36.017   2.395  11.606
45451W        W17876   3.282  21.846  14.037
45452W        W17877  18.814   0.809   2.152
45453W        W17878  44.849  18.930  11.425
45454W        W17879  39.473  11.902  13.913
45455W        W17880  37.009  40.813   3.306
45456W        W17881  14.380  37.711  11.109
45457W        W17882  16.939  40.109   2.502
45458W        W17883  28.056  39.953   3.183
45459W        W17884  32.319  12.727   2.414
45460W        W17885  16.128   2.602   2.550
45461W        W17886  24.111  44.495   2.745
45462W        W17887  13.867  24.085  12.382
45463W        W17888  43.715  21.654  11.553
45464W        W17889  18.202  42.714  13.398
45465W        W17890  44.705  21.513  13.083
45466W        W17891  27.938  17.952  13.317
45467W        W17892   4.254  43.885  14.944
45468W        W17893  11.330   0.760  12.818
45469W        W17894  32.955  39.539  14.959
45470W        W17895  20.482  18.955   0.335
45471W        W17896  29.461  25.600   5.034
45472W        W17897   1.117  13.765  11.078
45473W        W17898   2.957  33.050   1.912
45474W        W17899  11.020  18.037   2.812
45475W        W17900  37.479   9.994  14.436
45476W        W17901  14.643  11.411   1.286
45477W        W17902  43.933  11.777  11.926
45478W        W17903  37.539   0.398  10.551
45479W        W17904  37.498  44.796   2.576
45480W        W17905  43.309  19.267  11.606
45481W        W17906  30.468  35.994   3.631
45482W        W17907  36.970  44.217   0.182
45483W        W17908   2.350  37.198   2.599
45484W        W17909  17.284  41.337  14.405
45485W        W17910  44.355  34.094   0.487
45486W        W17911  10.718  26.121  13.936
45487W        W17912  32.487  21.856  14.935
45488W        W17913  35.367  14.247  10.602
45489W        W17914   3.894  12.391   1.756
45490W        W17915   8.216  10.128   1.349
45491W        W17916  41.903  38.426  11.869
45492W        W17917  37.317   3.349   0.807
45493W        W17918   3.278   6.116  10.541
45494W        W17919  36.455  13.542   0.260
45495W        W17920  34.803  31.017   2.728
45496W        W17921  10.878  24.138  10.539
45497W        W17922  13.581  39.738  14.830
45498W        W17923  27.094   0.966  11.132
45499W        W17924   5.510  22.072  14.853
45500W        W17925  15.179   1.289   1.203
45501W        W17926  40.907  13.823  14.028
45502W        W17927   8.692   3.810  13.549
45503W        W17928  43.781   7.300  13.299
45504W        W17929  44.989  31.641  14.993
45505W        W17930  28.746  27.659  13.344
45506W        W17931  10.138  24.648   3.141
45507W        W17932  36.389   0.547  13.830
45508W        W17933  26.535  13.874  12.489
45509W        W17934  28.975  11.003  13.980
45510W        W17935   3.503   5.855  14.839
45511W        W17936  21.483  22.989  13.094
45512W        W17937  20.555  43.713  14.270
45513W        W17938   5.677  24.077   2.047
45514W        W17939  36.153  40.292   5.025
45515W        W17940   0.345  19.342  10.894
45516W        W17941  29.245  20.167  12.836
45517W        W17942  27.579  29.058  11.322
45518W        W17943  15.602  29.367  11.524
45519W        W17944   1.479  21.442   1.236
45520W        W17945  42.923   7.166  14.071
45521W        W17946  10.787  13.572  12.879
45522W        W17947   8.331  34.441   4.793
45523W        W17948  39.934   5.916   1.296
45524W        W17949  13.212  15.801  14.751
45525W        W17950  31.085  42.227  10.810
45526W        W17951   4.249   0.751   4.878
45527W        W17952  38.967   4.554  13.086
45528W        W17953  12.592  29.601   2.855
45529W        W17954  42.806   0.640   2.148
45530W        W17955  19.391  12.295  11.765
45531W        W17956   0.223  41.757   3.776
45532W        W17957   4.498   9.225   3.397
45533W        W17958  31.682  35.656  11.195
45534W        W17959  22.602  21.547  13.364
45535W        W17960  35.135  13.800  12.068
45536W        W17961  22.655  12.685  13.520
45537W        W17962  38.374  28.189   1.179
45538W        W17963  43.485   4.635  11.231
45539W        W17964  29.171  38.422  10.340
45540W        W17965  35.974  24.893   4.700
45541W        W17966   8.644  13.205   3.678
45542W        W17967  31.956  28.750  14.378
45543W        W17968  27.050  20.279   3.825
45544W        W17969  42.865  44.432   2.967
45545W        W17970   0.981   5.994  11.110
45546W        W17971  44.558   9.267   4.546
45547W        W17972  22.601  26.947  13.586
45548W        W17973  12.880  10.544   1.683
45549W        W17974   2.438  16.701   0.962
45550W        W17975   4.142  14.995   2.196
45551W        W17976  41.822   6.883   2.362
45552W        W17977  13.655  31.019   1.662
45553W        W17978  36.362   2.761  11.109
45554W        W17979  38.270  41.348   4.491
45555W        W17980   1.884  13.843  11.662
45556W        W17981  17.668  35.480  11.200
45557W        W17982  19.055   4.814   2.123
45558W        W17983   8.646   4.900   3.282
45559W        W17984  31.122  19.239   2.850
45560W        W17985  23.951  17.605  12.539
45561W        W17986  29.370  28.922  14.889
45562W        W17987   8.757  21.973  10.889
45563W        W17988   7.929  33.661   3.651
45564W        W17989  42.159  13.941  11.592
45565W        W17990  20.628  35.117  13.978
45566W        W17991  32.864  34.498   2.776
45567W        W17992  43.271  28.913  13.337
45568W        W17993  12.763  43.755   2.413
45569W        W17994  36.243  11.566   0.458
45570W        W17995  41.592  21.009   4.314
45571W        W17996  33.412   0.943  13.450
45572W        W17997  19.292   1.585  13.022
45573W        W17998  35.378  30.922  11.485
45574W        W17999  34.074   8.666   0.726
45575W        W18000   6.457   1.843   1.661
45576W        W18001   8.127  19.355   1.622
45577W        W18002  20.765   1.334  13.068
45578W        W18003  40.373   2.472  14.319
45579W        W18004   0.467  27.354  11.534
45580W        W18005   1.439  27.668  11.073
45581W        W18006  34.537   3.301  14.031
45582W        W18007  20.829  42.516   0.878
45583W        W18008  20.226  41.330   4.127
45584W        W18009  16.134  15.778   4.752
45585W        W18010  14.890  36.157  13.989
45586W        W18011  41.931  29.054  13.564
45587W        W18012  27.056  27.873   5.062
45588W        W18013  17.760   2.750   3.884
45589W        W18014   3.719  17.959  13.830
45590W        W18015  32.647  36.865  12.990
45591W        W18016  39.599   0.754   0.856
45592W        W18017  17.110  27.286   1.015
45593W        W18018  10.371  44.274   0.773
45594W        W18019  27.613  21.079   1.482
45595W        W18020  32.119   2.505  10.664
45596W        W18021  43.791  39.234  10.727
45597W        W18022   4.882  15.860   2.579
45598W        W18023  30.672   5.750   0.310
45599W        W18024  43.957   1.480  12.693
45600W        W18025   6.164  38.201  11.237
45601W        W18026  19.230  13.049  12.974
45602W        W18027   8.141   7.199   4.582
45603W        W18028  24.668  22.908   4.681
45604W        W18029   1.239   9.359   1.029
45605W        W18030   5.908  44.843   4.238
45606W        W18031   4.780  28.805  10.109
45607W        W18032  42.844   5.975  11.057
45608W        W18033  22.917   6.681  11.169
45609W        W18034  38.103  24.092  13.787
45610W        W18035  33.080  16.468   1.888
45611W        W18036  27.595  12.813   2.633
45612W        W18037  31.181  11.619  13.600
45613W        W18038   7.737  28.009   0.645
45614W        W18039  20.551  29.876  12.091
45615W        W18040  38.533   2.361  11.417
45616W        W18041   5.161  20.311   2.945
45617W        W18042  42.820   3.690   0.462
45618W        W18043  26.526  39.980  14.387
45619W        W18044  41.940  16.284  10.566
45620W        W18045  30.556  21.923  11.665
45621W        W18046  28.303  40.435   2.908
45622W        W18047   9.790  42.217   0.279
45623W        W18048  31.618   9.649  14.270
45624W        W18049   0.986   6.811   3.210
45625W        W18050  26.269  36.340   1.054
45626W        W18051   0.033   2.149   4.893
45627W        W18052  25.651  37.984  14.461
45628W        W18053  29.911  12.524  10.434
45629W        W18054   5.863  41.713   1.465
45630W        W18055  31.155  19.884   2.372
45631W        W18056  32.640   9.229   2.677
45632W        W18057   5.313  13.427   4.222
45633W        W18058  43.113  14.538  13.902
45634W        W18059  17.036  39.474   1.744
45635W        W18060  24.128  13.609  14.765
45636W        W18061  36.334  13.161   1.701
45637W        W18062  36.773   3.360  10.796
45638W        W18063  36.517  23.136  12.555
45639W        W18064  38.937  19.654   1.747
45640W        W18065  16.972  14.826   1.863
45641W        W18066  28.975  35.856  11.773
45642W        W18067  34.076  37.859  12.969
45643W        W18068  35.903  30.536  13.720
45644W        W18069  31.898  17.595  11.126
45645W        W18070  11.638  12.089   3.279
45646W        W18071  38.415  16.304  12.991
45647W        W18072  40.294   5.373  13.762
45648W        W18073  41.095  27.142   1.498
45649W        W18074   6.641  19.223  12.860
45650W        W18075  10.411   6.523   5.314
45651W        W18076   4.257  12.880   2.546
45652W        W18077  40.275   4.411   3.234
45653W        W18078  38.320  35.899  13.446
45654W        W18079  13.697  26.918   4.611
45655W        W18080  16.719  16.902   4.866
45656W        W18081  25.636   3.860  10.727
45657W        W18082   7.395  24.746  10.695
45658W        W18083  13.257   8.985  13.952
45659W        W18084  28.892  39.892  10.479
45660W        W18085  26.989   1.326   2.434
45661W        W18086  21.620   3.771   3.766
45662W        W18087  15.347  43.147  14.703
45663W        W18088  21.603  40.432  11.656
45664W        W18089  37.774  17.676  14.429
45665W        W18090  15.217  29.757   1.413
45666W        W18091  34.232  24.983  11.213
45667W        W18092   8.045   2.039   3.328
45668W        W18093   3.980  12.614   5.221
45669W        W18094  42.366  43.806   3.662
45670W        W18095   4.630  25.462  14.430
45671W        W18096  27.494  40.745   4.575
45672W        W18097  13.760  24.691   4.163
45673W        W18098   6.357  39.290  13.132
45674W        W18099  29.600   0.243   1.418
45675W        W18100   6.851  17.553   3.729
45676W        W18101  18.541  32.425  12.450
45677W        W18102  23.530  22.637   3.193
45678W        W18103  19.751  40.584   4.334
45679W        W18104  39.368   1.389   4.718
45680W        W18105  17.202   0.494   4.554
45681W        W18106  44.842  33.458   2.640
45682W        W18107   0.770  33.153  12.382
45683W        W18108   3.824  16.695   2.499
45684W        W18109  27.702  15.465   0.846
45685W        W18110  24.482   6.852   4.666
45686W        W18111   3.436   8.067   0.481
45687W        W18112  29.059   7.801  10.872
45688W        W18113  23.503  30.103  10.334
45689W        W18114   8.489  40.280  10.548
45690W        W18115  35.643  11.455  11.410
45691W        W18116  43.557  32.535  12.913
45692W        W18117  38.898  15.728  11.668
45693W        W18118  11.268  21.231  14.936
45694W        W18119  21.348   9.560   2.370
45695W        W18120  32.865  22.135  12.209
45696W        W18121  28.675   9.727  12.921
45697W        W18122  23.204   5.291  11.088
45698W        W18123  32.877  22.224   3.847
45699W        W18124  16.522   1.896  13.817
45700W        W18125  19.647   9.237  12.547
45701W        W18126  24.111  31.431   0.517
45702W        W18127  14.358  21.953   0.631
45703W        W18128   3.490  25.581  13.012
45704W        W18129  30.623  15.410   3.525
45705W        W18130  10.632  28.091   9.926
45706W        W18131  42.231   8.714  11.107
45707W        W18132  33.036   7.655   1.850
45708W        W18133  17.242  36.151   1.106
45709W        W18134  40.768  33.846  11.883
45710W        W18135  30.527  22.526   3.298
45711W        W18136  38.962  31.298  12.163
45712W        W18137   7.863  34.354   4.571
45713W        W18138  44.099  11.628   3.824
45714W        W18139  40.376   0.310   2.145
45715W        W18140   4.245   1.797  14.797
45716W        W18141  33.776  43.930  14.075
45717W        W18142  19.156   8.587  13.633
45718W        W18143  25.639  31.008   3.949
45719W        W18144   5.222   1.440  11.204
45720W        W18145  31.685  30.514  11.381
45721W        W18146   3.258  19.483  11.607
45722W        W18147  18.698  30.434  12.499
45723W        W18148   6.637  13.000  12.047
45724W        W18149  22.142  43.321   1.271
45725W        W18150   5.852   9.403   3.077
45726W        W18151  14.695  18.712  14.131
45727W        W18152  40.087  18.742   2.771
45728W        W18153  18.599   9.903   4.203
45729W        W18154  39.599  10.183   0.337
45730W        W18155  44.415  15.646  10.622
45731W        W18156  13.302  37.509  12.483
45732W        W18157  20.720  35.883  10.598
45733W        W18158  14.255  27.642  11.941
45734W        W18159  36.580  18.242   2.110
45735W        W18160  13.108  34.112  14.942
45736W        W18161  11.730  41.422  14.385
45737W        W18162  11.652  21.742   3.076
45738W        W18163  13.267   3.321   4.143
45739W        W18164  26.179   7.366  14.479
45740W        W18165  20.556  31.063   1.189
45741W        W18166   2.929   1.389   3.766
45742W        W18167  37.428  17.437   4.125
45743W        W18168  21.653   2.996  12.501
45744W        W18169  19.730   2.295  13.958
45745W        W18170  11.832  34.974   1.834
45746W        W18171  24.199  11.153   9.954
45747W        W18172  13.631   5.854   4.766
45748W        W18173  17.005  41.422  13.001
45749W        W18174  10.288  19.104   2.858
45750W        W18175   6.294  29.026   1.387
45751W        W18176  32.038  39.113  14.569
45752W        W18177  18.631  30.457   0.925
45753W        W18178  34.347  32.918   1.433
45754W        W18179  35.826   8.195   4.066
45755W        W18180  38.293  38.450   2.877
45756W        W18181  16.265  14.941   0.325
45757W        W18182   8.765  34.581   4.569
45758W        W18183  15.974   3.609   2.267
45759W        W18184   2.422  33.259  12.873
45760W        W18185   4.769  38.756   5.060
45761W        W18186   1.700  12.186   2.633
45762W        W18187   6.724  21.248  12.058
45763W        W18188  30.188  27.985  11.233
45764W        W18189  15.593  33.424   0.242
45765W        W18190  24.765  41.890  14.620
45766W        W18191  40.273  35.040   3.135
45767W        W18192  42.867  35.418  12.710
45768W        W18193  39.240  29.570  12.674
45769W        W18194  13.851   6.852  10.582
45770W        W18195  10.714  25.279   2.659
45771W        W18196  26.588  26.666   3.061
45772W        W18197  19.256  41.344   4.119
45773W        W18198  17.785  28.138  12.438
45774W        W18199   7.782   8.277   2.448
45775W        W18200  22.717  29.675  11.940
45776W        W18201  19.972  27.294  11.189
45777W        W18202  28.915  20.566  11.495
45778W        W18203  28.688  21.389   4.911
45779W        W18204   4.939  28.188   4.661
45780W        W18205  18.127  11.369  14.438
45781W        W18206  17.567  26.482   2.469
45782W        W18207  34.551  16.597  12.517
45783W        W18208  42.353   9.808   4.492
45784W        W18209   7.716  25.989   3.743
45785W        W18210  42.865  40.645  10.759
45786W        W18211  44.394  43.940  14.410
45787W        W18212  38.459  22.701  11.562
45788W        W18213  21.940  32.490   3.225
45789W        W18214  38.939  43.795  10.804
45790W        W18215   1.887  23.365   4.558
45791W        W18216   8.101  35.153   4.164
45792W        W18217   2.826  14.241   0.486
45793W        W18218   2.740  13.888   3.172
45794W        W18219  25.892  29.678  11.575
45795W        W18220  13.101   1.036   1.437
45796W        W18221  18.751  27.550   4.817
45797W        W18222   1.452  10.432   4.210
45798W        W18223  22.772  16.594   0.921
45799W        W18224  18.018  11.262  13.065
45800W        W18225  33.844  29.980  12.036
45801W        W18226  21.277   2.581  13.806
45802W        W18227   4.969  36.660   1.201
45803W        W18228  21.422   4.988   3.378
45804W        W18229  39.128  34.636   3.618
45805W        W18230  39.316   1.923  11.618
45806W        W18231  19.257  24.692   4.363
45807W        W18232  39.393  28.921   4.800
45808W        W18233  22.591  13.861  14.832
45809W        W18234   8.457  21.702   4.133
45810W        W18235  24.290  19.327  11.111
45811W        W18236   8.257  19.143  12.909
45812W        W18237  31.356  18.733  14.904
45813W        W18238  38.518  21.462   0.931
45814W        W18239  24.060  41.590  11.045
45815W        W18240  18.961  16.843  10.247
45816W        W18241  16.118   6.665  11.883
45817W        W18242   4.851  35.395   4.569
45818W        W18243  26.525  12.798   0.833
45819W        W18244  26.124   3.646   1.514
45820W        W18245  28.148  28.687   1.812
45821W        W18246  37.027  35.159   1.466
45822W        W18247   2.733  32.186   1.298
45823W        W18248  36.536   2.720   3.313
45824W        W18249  40.705  22.288  12.976
45825W        W18250  40.070  42.011   0.386
45826W        W18251  30.214  32.520   2.607
45827W        W18252  28.756  40.866  14.183
45828W        W18253  34.421  15.133   0.443
45829W        W18254  20.817  11.810   0.365
45830W        W18255  24.260  25.266   1.870
45831W        W18256  22.963  23.022   4.585
45832W        W18257   7.830  15.067  13.469
45833W        W18258  12.140  40.879  11.565
45834W        W18259  42.190  38.747   3.337
45835W        W18260   0.659  41.363  13.161
45836W        W18261  12.184  20.960  14.886
45837W        W18262  30.458  21.001  12.560
45838W        W18263  17.877  33.592   4.616
45839W        W18264  29.000  24.521   1.894
45840W        W18265  30.422  19.596  13.416
45841W        W18266  18.109  17.713   0.287
45842W        W18267  10.499   1.688   0.147
45843W        W18268  19.593  31.335   0.290
45844W        W18269   8.216  31.664   4.260
45845W        W18270  26.011  13.044  12.542
45846W        W18271  12.035  31.452  12.156
45847W        W18272  38.419  33.449  12.872
45848W        W18273  43.684  31.065  13.934
45849W        W18274   8.300  38.390   4.976
45850W        W18275  25.954  25.523   2.571
45851W        W18276  40.494  31.836  11.643
45852W        W18277  38.959  40.377   3.559
45853W        W18278  36.604  39.306  11.704
45854W        W18279   6.595  17.094  13.394
45855W        W18280   2.770  13.325  13.434
45856W        W18281  25.009   6.165   2.022
45857W        W18282  14.591  19.790   0.412
45858W        W18283  11.433  14.524  13.446
45859W        W18284  38.101  13.306   3.874
45860W        W18285  37.274  38.876  13.549
45861W        W18286   6.390  35.407   1.511
45862W        W18287  37.143  14.632  13.502
45863W        W18288  42.340  30.904  13.807
45864W        W18289  21.507   5.923   1.937
45865W        W18290  37.428  34.478  12.581
45866W        W18291  36.032   5.714  11.908
45867W        W18292  22.272  32.139  14.500
45868W        W18293   9.830  10.647  14.965
45869W        W18294  18.820  38.560   0.428
45870W        W18295  37.437  16.095  12.350
45871W        W18296  14.372  35.868   4.164
45872W        W18297  43.833  32.634  13.334
45873W        W18298  39.481   5.830   3.570
45874W        W18299  14.176  33.186  10.745
45875W        W18300  39.419  10.429  11.753
45876W        W18301  32.366  44.859   4.193
45877W        W18302  17.665  41.392   1.353
45878W        W18303  17.554  44.445   3.467
45879W        W18304  35.220  22.643  14.965
45880W        W18305  19.818  25.899  12.904
45881W        W18306  27.834   5.638  13.187
45882W        W18307  30.563   2.761   4.117
45883W        W18308  31.585  44.031  14.873
45884W        W18309  24.677  35.850  12.879
45885W        W18310  16.001  25.270  10.560
45886W        W18311  15.278  42.875   2.261
45887W        W18312  25.055   3.721   1.396
45888W        W18313  19.485   4.541   0.852
45889W        W18314  20.247  22.696  13.946
45890W        W18315  33.660  26.046   3.698
45891W        W18316  16.782   1.686   0.711
45892W        W18317  16.851  16.547   2.208
45893W        W18318  26.176   9.669   0.962
45894W        W18319  42.765   2.656   2.048
45895W        W18320   7.289   2.148   0.194
45896W        W18321  37.596  26.102   0.954
45897W        W18322  23.425   2.492   3.001
45898W        W18323  37.980   5.322  11.996
45899W        W18324  16.073  42.513   3.259
45900W        W18325  16.240  30.681  11.650
45901W        W18326  31.390  14.370   4.748
45902W        W18327  35.108  23.598   1.053
45903W        W18328  44.317   1.876   1.189
45904W        W18329   2.751  25.415   3.344
45905W        W18330  16.148  29.666  14.941
45906W        W18331   1.713   0.770  12.181
45907W        W18332  24.997  11.811  12.998
45908W        W18333  32.051  26.674  13.836
45909W        W18334  10.462  36.637  14.084
45910W        W18335   2.653   7.390  11.108
45911W        W18336   5.052   7.363   3.174
45912W        W18337  30.715   8.299  14.847
45913W        W18338  32.824  40.145   2.738
45914W        W18339  29.150   6.690  11.099
45915W        W18340   0.501  10.872   0.433
45916W        W18341   5.788  31.389  12.669
45917W        W18342  25.575  30.240  14.549
45918W        W18343  20.191   2.163   2.198
45919W        W18344  27.468   1.465   3.656
45920W        W18345  25.176   7.938  13.866
45921W        W18346  44.456   4.655  11.969
45922W        W18347  36.835  18.690   1.981
45923W        W18348   6.887   4.559   2.115
45924W        W18349  43.406  17.356  14.427
45925W        W18350   8.678  18.327  10.538
45926W        W18351  16.584  34.977   2.791
45927W        W18352  35.344  41.314   3.726
45928W        W18353  30.302  19.724  14.848
45929W        W18354  35.512  21.309   4.306
45930W        W18355   5.838  23.880  12.117
45931W        W18356  37.650  22.717   2.780
45932W        W18357  31.198  34.643   1.793
45933W        W18358   2.753  21.653  10.561
45934W        W18359  41.286  18.760  12.545
45935W        W18360  12.810  35.382   2.252
45936W        W18361  33.594  31.495   0.909
45937W        W18362  44.033   9.679  14.367
45938W        W18363  15.143  20.295  14.906
45939W        W18364  38.312  44.455  13.539
45940W        W18365  37.420   6.353  13.259
45941W        W18366  39.368  25.699  10.928
45942W        W18367   9.248  19.281   4.641
45943W        W18368  42.872   4.905   2.268
45944W        W18369  34.657  23.298   4.170
45945W        W18370  32.104   6.511  12.050
45946W        W18371  21.549   2.266  10.891
45947W        W18372  41.410  15.223  11.197
45948W        W18373  11.867  35.318   0.752
45949W        W18374  24.452  32.866  12.077
45950W        W18375  28.984  30.015  13.930
45951W        W18376  19.036  12.501  12.094
45952W        W18377  11.569  19.646   1.651
45953W        W18378  18.544  21.758  14.847
45954W        W18379   3.103  35.266   5.132
45955W        W18380  25.494  10.387  12.142
45956W        W18381  35.016  21.191   4.580
45957W        W18382  33.002   4.727  14.873
45958W        W18383   3.131  19.263   0.863
45959W        W18384  26.655  22.320   3.641
45960W        W18385   8.162  17.167  10.751
45961W        W18386  44.413  44.836   2.256
45962W        W18387  16.719   6.134   1.819
45963W        W18388  30.944  31.004   4.448
45964W        W18389  16.197   7.211   0.234
45965W        W18390   0.414  23.161   4.370
45966W        W18391  24.994  26.455   9.907
45967W        W18392   5.279   4.746   4.510
45968W        W18393  18.208  41.539  12.558
45969W        W18394  28.536  26.675  11.905
45970W        W18395  35.281  25.334   0.768
45971W        W18396  18.159  40.069  11.477
45972W        W18397  31.090   9.469  13.804
45973W        W18398  24.960   2.725   0.813
45974W        W18399  11.267   5.548  11.929
45975W        W18400  35.670  40.317  12.946
45976W        W18401  35.594  43.386  14.253
45977W        W18402   5.502  24.045   4.210
45978W        W18403  44.326   2.903   3.197
45979W        W18404  28.175  38.061   3.362
45980W        W18405  38.419   8.176   4.192
45981W        W18406  25.446  13.932  11.108
45982W        W18407   9.379  24.207   3.273
45983W        W18408   5.361  35.351   1.971
45984W        W18409  22.195  20.150  11.362
45985W        W18410   4.794   5.177  10.792
45986W        W18411  25.047  36.011   3.730
45987W        W18412   1.892  34.111  13.310
45988W        W18413  10.304  29.534   2.352
45989W        W18414  42.613  41.516   0.861
45990W        W18415  34.849  26.082   1.683
45991W        W18416  14.312  12.788   1.865
45992W        W18417  34.489  15.387  14.429
45993W        W18418  17.266  11.991  11.517
45994W        W18419  25.873  33.481  10.100
45995W        W18420  36.288  33.186  14.659
45996W        W18421   3.520  32.008  14.245
45997W        W18422  39.485  31.956  13.815
45998W        W18423  34.461  28.573   4.409
45999W        W18424  42.388  18.350  13.562
46000W        W18425  26.075   3.324   1.921
46001W        W18426  10.593  44.489   3.991
46002W        W18427   2.692  16.700  10.688
46003W        W18428  25.124  28.713  13.265
46004W        W18429  33.783  28.957   0.813
46005W        W18430   8.328  26.771  10.662
46006W        W18431  21.204  23.240   3.324
46007W        W18432  23.432  11.634   0.783
46008W        W18433  15.571   3.973   0.466
46009W        W18434   9.788  20.840   1.430
46010W        W18435  18.602   2.703  13.547
46011W        W18436  36.978  17.538   3.905
46012W        W18437   0.279  10.786   3.779
46013W        W18438  26.746  27.592  11.984
46014W        W18439  29.912  10.310  12.480
46015W        W18440  44.060   4.716   0.829
46016W        W18441  37.546   6.126   4.015
46017W        W18442   4.958  15.159   2.301
46018W        W18443  43.044  19.680   1.838
46019W        W18444  28.956  21.238   1.212
46020W        W18445  12.328   3.681   1.888
46021W        W18446  32.926  10.824  12.373
46022W        W18447   7.539   9.804   2.201
46023W        W18448  12.314   9.887  10.536
46024W        W18449  20.478   5.884   3.401
46025W        W18450  28.130  14.605   1.957
46026W        W18451  42.922  30.117  10.545
46027W        W18452  44.606  24.196   1.762
46028W        W18453  13.811  37.375  14.825
46029W        W18454  13.563  20.344   4.121
46030W        W18455  25.133  30.224   0.147
46031W        W18456   2.936  18.097   0.925
46032W        W18457  22.105  17.045  14.399
46033W        W18458  32.699  13.394  13.833
46034W        W18459  28.247  23.754  11.145
46035W        W18460  21.941  10.649   5.082
46036W        W18461  28.608  33.922   1.416
46037W        W18462  34.928  22.218  14.810
46038W        W18463  35.505  36.373   0.506
46039W        W18464  20.575  17.048  11.104
46040W        W18465   4.485  10.621   0.203
46041W        W18466  22.303  10.206   2.888
46042W        W18467  28.925  27.803   0.357
46043W        W18468  21.038  34.570  11.489
46044W        W18469  32.094   3.537  13.412
46045W        W18470  37.965  23.160  10.895
46046W        W18471   2.483  33.421  14.832
46047W        W18472  33.407   8.309  13.912
46048W        W18473  30.930  30.546  12.552
46049W        W18474  44.892   4.943  11.873
46050W        W18475  43.600  36.888  12.975
46051W        W18476  37.550   2.883   2.233
46052W        W18477  24.562   5.331   4.695
46053W        W18478  43.467  36.160  13.972
46054W        W18479  16.111   7.654  13.364
46055W        W18480   0.853  35.614   1.189
46056W        W18481   6.346  16.643   4.103
46057W        W18482   7.310  14.869   0.283
46058W        W18483  24.678  14.053  12.147
46059W        W18484  30.311   4.689  11.518
46060W        W18485  33.662  42.946   3.769
46061W        W18486  17.291  37.122   1.862
46062W        W18487  32.570  22.091   1.178
46063W        W18488  40.898  18.675   2.288
46064W        W18489  13.829  29.209   2.210
46065W        W18490   2.463  35.930  10.629
46066W        W18491   7.163   2.365  11.898
46067W        W18492  20.195  16.784  13.444
46068W        W18493  16.641  12.094   1.535
46069W        W18494  17.674   4.650   3.833
46070W        W18495  13.583  23.190   3.653
46071W        W18496   4.838  32.847   1.806
46072W        W18497  29.128  15.557  14.720
46073W        W18498  27.739  21.031  12.430
46074W        W18499  11.370  36.856   0.332
46075W        W18500  37.260  41.833  12.135
46076W        W18501   7.365  21.819   3.356
46077W        W18502  35.380  42.470  13.960
46078W        W18503  13.652  21.980   1.790
46079W        W18504  24.408   8.199  10.727
46080W        W18505  29.043  24.720  14.486
46081W        W18506  40.951  39.395  14.120
46082W        W18507  37.907  43.251   1.171
46083W        W18508  39.785  18.702  11.142
46084W        W18509  33.419  27.197   0.434
46085W        W18510  10.635  19.779   1.332
46086W        W18511   9.743   5.244  12.923
46087W        W18512  20.566  41.240  10.929
46088W        W18513  36.832  30.543  13.733
46089W        W18514  22.995  20.082   2.324
46090W        W18515  33.908  35.323  12.552
46091W        W18516  13.816   5.427   4.999
46092W        W18517  13.348  28.352   2.151
46093W        W18518  35.062  10.679   2.458
46094W        W18519   5.462  15.278   0.776
46095W        W18520  31.541  15.592   5.146
46096W        W18521  43.553  14.871   4.903
46097W        W18522  18.805   1.765  11.228
46098W        W18523  44.477   1.329  14.881
46099W        W18524  10.294  20.147   2.864
46100W        W18525  28.024   3.226   2.777
46101W        W18526   0.785   9.496   2.792
46102W        W18527  18.626  28.970   1.309
46103W        W18528  29.566  37.915  12.462
46104W        W18529  28.572  29.996  12.434
46105W        W18530  21.156  23.170   0.823
46106W        W18531  16.793  10.420  10.501
46107W        W18532  27.881  41.796   3.691
46108W        W18533  38.121  15.835  10.342
46109W        W18534  33.402  11.741   3.065
46110W        W18535  17.132  23.032   3.142
46111W        W18536   3.990  33.129  11.167
46112W        W18537  24.555  25.408  14.398
46113W        W18538   7.058  12.307  14.400
46114W        W18539  33.609  41.448  11.509
46115W        W18540  18.573  22.427  12.107
46116W        W18541   3.657   2.270  11.327
46117W        W18542  13.616  42.943  14.922
46118W        W18543   1.038  38.031  14.028
46119W        W18544   6.770   8.336   1.183
46120W        W18545  32.844  31.811   2.818
46121W        W18546  14.075  40.473  14.001
46122W        W18547  40.828   2.869  12.391
46123W        W18548  14.614  19.133   1.717
46124W        W18549  17.592   7.771  14.408
46125W        W18550  22.497  30.144   4.224
46126W        W18551  17.287  16.386   0.274
46127W        W18552  30.182  12.194  12.438
46128W        W18553  11.717  29.351   2.680
46129W        W18554  39.447  28.183  14.934
46130W        W18555  28.067  29.939   0.992
46131W        W18556  37.472  37.802   1.131
46132W        W18557  32.667  33.132   3.606
46133W        W18558  40.052  27.083  13.799
46134W        W18559  30.375  22.554  12.480
46135W        W18560   3.785  11.911   1.924
46136W        W18561  39.986  37.234   3.185
46137W        W18562  18.999  12.295   4.552
46138W        W18563   8.168  42.869  11.169
46139W        W18564  10.660  29.905   2.248
46140W        W18565  42.273  18.096   2.170
46141W        W18566  36.434  34.836  10.740
46142W        W18567  38.628   8.634  10.645
46143W        W18568  27.463  31.582  13.420
46144W        W18569  16.163   5.891  13.389
46145W        W18570  43.910  40.383   0.765
46146W        W18571  13.224  42.026   0.841
46147W        W18572   5.752  18.242   2.587
46148W        W18573   5.593  43.435  14.938
46149W        W18574  16.122   9.292   3.486
46150W        W18575  14.575  36.807  13.389
46151W        W18576   6.916  42.951   2.317
46152W        W18577  22.815  43.088  14.463
46153W        W18578  38.203  22.797  12.039
46154W        W18579  40.042  21.105  10.926
46155W        W18580  41.132  14.887  14.033
46156W        W18581  22.102  41.759   1.399
46157W        W18582  18.746  42.005   2.769
46158W        W18583  41.807   3.885  12.441
46159W        W18584  43.518  33.527   4.743
46160W        W18585  20.805  25.485  10.508
46161W        W18586  15.263  36.852   2.916
46162W        W18587  26.410  21.229  12.338
46163W        W18588  34.111  32.221   0.899
46164W        W18589  31.971  29.997  14.849
46165W        W18590  19.753  31.214   0.890
46166W        W18591  41.974  40.629  14.968
46167W        W18592  36.586  36.944  13.295
46168W        W18593  24.237  30.656   4.027
46169W        W18594  35.843  36.597   0.159
46170W        W18595  11.790  20.516  10.598
46171W        W18596  10.597  28.154  11.558
46172W        W18597   7.298  20.945   0.444
46173W        W18598  42.994  42.106   4.996
46174W        W18599  30.064  20.778   5.409
46175W        W18600   1.614  13.186   4.137
46176W        W18601  35.921  43.801   4.568
46177W        W18602  18.396  26.620   3.403
46178W        W18603  23.131  23.678  10.980
46179W        W18604  36.844   3.492  12.203
46180W        W18605  36.320  39.748  12.945
46181W        W18606   8.217  32.077   1.878
46182W        W18607  32.077  29.455   1.909
46183W        W18608   2.972  44.537   1.702
46184W        W18609   0.729   1.013  12.895
46185W        W18610  25.045  25.773   2.263
46186W        W18611  37.062  42.470  13.401
46187W        W18612  18.735  25.106   1.232
46188W        W18613  41.273  31.907   1.298
46189W        W18614  27.528  11.846   2.192
46190W        W18615   9.670  39.916  12.463
46191W        W18616  24.211  31.285  10.229
46192W        W18617  28.552  16.083  14.043
46193W        W18618  40.949  43.603  13.589
46194W        W18619   4.754  29.452   3.147
46195W        W18620  20.699  37.092   3.641
46196W        W18621  32.121  36.600   0.297
46197W        W18622  24.452  44.525  14.361
46198W        W18623   8.391  28.302  12.102
46199W        W18624  14.411   6.131   3.770
46200W        W18625  23.405   3.679  11.691
46201W        W18626  38.900  14.366  12.435
46202W        W18627  32.474  26.001  14.993
46203W        W18628  22.130  12.952  14.299
46204W        W18629  39.306  12.988   0.619
46205W        W18630  38.035  36.425  12.468
46206W        W18631  10.105  30.519  12.489
46207W        W18632  37.560  31.398   3.656
46208W        W18633  22.640   0.297   2.898
46209W        W18634  28.144  13.405  11.119
46210W        W18635  38.000  19.033   0.307
46211W        W18636  18.767  28.421  12.398
46212W        W18637  17.877   7.951   2.518
46213W        W18638  25.505  38.696  11.148
46214W        W18639   0.369  15.250   4.653
46215W        W18640  23.822  26.138   0.390
46216W        W18641  44.818  34.940   4.309
46217W        W18642   1.184  21.626   4.255
46218W        W18643   7.324  15.878   0.240
46219W        W18644   9.395  35.068  10.578
46220W        W18645   1.542   9.677   1.301
46221W        W18646  12.691   2.781  14.780
46222W        W18647  26.231  12.434   1.763
46223W        W18648  16.380  27.332   2.771
46224W        W18649   6.919  23.003   1.372
46225W        W18650  28.141  22.114   0.741
46226W        W18651   2.351  33.866  14.056
46227W        W18652  43.579  44.616  11.239
46228W        W18653  16.494  27.223   0.674
46229W        W18654  37.023  42.338   3.331
46230W        W18655  15.839   0.949   4.131
46231W        W18656   9.737   1.468   0.072
46232W        W18657  15.144  31.641   0.339
46233W        W18658  30.427  41.652  10.559
46234W        W18659  10.901  10.742  12.308
46235W        W18660  38.058  34.157   1.455
46236W        W18661  17.634  40.653   4.542
46237W        W18662   6.986  36.777   4.430
46238W        W18663  32.026  17.742   4.394
46239W        W18664  34.006   2.760  10.828
46240W        W18665   8.255  29.916   1.785
46241W        W18666  25.782  17.342  13.574
46242W        W18667   7.169   0.448   0.769
46243W        W18668  30.894  26.229  14.386
46244W        W18669  30.028  24.693  14.977
46245W        W18670  22.610   9.991   3.893
46246W        W18671  29.079  17.860   0.969
46247W        W18672  26.789  19.637  11.090
46248W        W18673  23.622  35.144  13.592
46249W        W18674   3.689  33.530  14.258
46250W        W18675  30.596   5.927   4.557
46251W        W18676  24.276   9.898   1.863
46252W        W18677  26.510   2.364  10.449
46253W        W18678  15.198  29.489   1.868
46254W        W18679  30.675  27.160   1.286
46255W        W18680  23.555  16.714  10.597
46256W        W18681  32.401  28.170   3.694
46257W        W18682  19.808  23.117  13.514
46258W        W18683  33.936   7.047  11.607
46259W        W18684  34.472  24.167  11.496
46260W        W18685   6.937  16.093  13.440
46261W        W18686  44.873  27.426   0.872
46262W        W18687  41.390  19.674   5.059
46263W        W18688  33.108  26.447   9.658
46264W        W18689   4.700  19.698  14.726
46265W        W18690  17.730  17.768  11.464
46266W        W18691  29.396  23.191  10.302
46267W        W18692  39.919  33.525  11.638
46268W        W18693  41.824  19.739   2.603
46269W        W18694  12.244  20.619   1.670
46270W        W18695  41.861  18.656  13.625
46271W        W18696  44.477  34.599  13.068
46272W        W18697   6.817  43.153   3.694
46273W        W18698   2.539  35.983  11.962
46274W        W18699  37.873  32.659  12.443
46275W        W18700  26.828   1.956  11.243
46276W        W18701  31.935  33.263  14.755
46277W        W18702  25.683  16.214  12.408
46278W        W18703  21.012  14.306  13.913
46279W        W18704  12.443  26.476  10.996
46280W        W18705  11.839  12.857   1.638
46281W        W18706  32.260  32.910   3.386
46282W        W18707  31.919  30.539  12.594
46283W        W18708   3.522   0.040   0.953
46284W        W18709  26.954  20.985  14.958
46285W        W18710  16.673   4.258  14.870
46286W        W18711  44.913   4.477  12.118
46287W        W18712  13.219  15.076   0.975
46288W        W18713   6.321   5.180  13.762
46289W        W18714  22.751  20.987  14.436
46290W        W18715  13.300  33.893  13.124
46291W        W18716  15.714  42.078   4.493
46292W        W18717  14.512  18.667  12.936
46293W        W18718  31.073  29.208   3.957
46294W        W18719   3.192  39.847   1.275
46295W        W18720  35.910  21.633   2.355
46296W        W18721  24.349  41.638   4.104
46297W        W18722  27.801   9.552  12.917
46298W        W18723  11.681  42.552   2.748
46299W        W18724   9.365  40.313  14.489
46300W        W18725   9.025  31.537  13.481
46301W        W18726   0.376  19.772  13.144
46302W        W18727  10.176   0.390   4.627
46303W        W18728   4.676  37.996  12.101
46304W        W18729  11.712  41.972  14.095
46305W        W18730  42.910  33.373  14.372
46306W        W18731  20.589  33.049   4.105
46307W        W18732  22.360   2.692  11.308
46308W        W18733  30.647  19.177  14.954
46309W        W18734  38.976  16.116  14.319
46310W        W18735  44.488  16.494  11.052
46311W        W18736  21.935  19.069  11.935
46312W        W18737   2.993   4.262  14.932
46313W        W18738   0.889  33.045   3.719
46314W        W18739  19.358  23.550   3.257
46315W        W18740  16.031  22.574  11.128
46316W        W18741  16.307  29.686  12.605
46317W        W18742  16.422  36.325  13.570
46318W        W18743  22.013   1.106   4.047
46319W        W18744  12.328  11.597   0.923
46320W        W18745  23.688  14.240  11.106
46321W        W18746  41.601  28.005  10.591
46322W        W18747  44.352  27.539   0.732
46323W        W18748  19.019  30.040   1.864
46324W        W18749  29.562  15.330   4.465
46325W        W18750  25.577  42.582   3.750
46326W        W18751  12.029  32.340   0.329
46327W        W18752   9.268  35.338   0.504
46328W        W18753  23.008   4.386   4.703
46329W        W18754  21.047  44.203  11.630
46330W        W18755  18.304   9.671   2.111
46331W        W18756  32.808   2.751  13.731
46332W        W18757  25.880  10.252  12.523
46333W        W18758  26.747  16.086  12.557
46334W        W18759  22.561   6.679   1.306
46335W        W18760  13.509  26.619   3.198
46336W        W18761  35.596  38.734  11.862
46337W        W18762   0.819  39.084  13.679
46338W        W18763  12.597  21.660   2.408
46339W        W18764   6.262  34.698  14.833
46340W        W18765   2.578  14.845   4.973
46341W        W18766   7.665  11.787   0.028
46342W        W18767   9.323  26.600   4.393
46343W        W18768   8.822   8.960  12.020
46344W        W18769   3.837  10.419   4.703
46345W        W18770  11.052   3.962  13.974
46346W        W18771  34.985  34.487  13.066
46347W        W18772   6.450  19.921  13.706
46348W        W18773   0.346   2.235  12.514
46349W        W18774  33.441  18.671  10.696
46350W        W18775  35.909  31.121  11.997
46351W        W18776  18.960  18.498  11.129
46352W        W18777  36.312  36.117  11.098
46353W        W18778  30.686  38.045   2.394
46354W        W18779  40.504   0.795  12.044
46355W        W18780  16.243  12.055  10.823
46356W        W18781   3.278  38.609   0.764
46357W        W18782  36.530  19.725  10.053
46358W        W18783  37.018  42.942   0.078
46359W        W18784   0.059  18.723   0.253
46360W        W18785  38.489  15.278   1.659
46361W        W18786  20.516  15.060  10.625
46362W        W18787   9.831  30.438  11.121
46363W        W18788  39.899  29.918  12.865
46364W        W18789  39.031  10.333   3.180
46365W        W18790  10.477   4.269  13.314
46366W        W18791   6.112  36.140  10.289
46367W        W18792   1.725  27.856   1.264
46368W        W18793  41.861  41.895   0.605
46369W        W18794   8.347  37.848  11.054
46370W        W18795   0.218  15.412   0.332
46371W        W18796  32.225   9.704  13.376
46372W        W18797   5.269  33.590  13.372
46373W        W18798   4.828  38.865  14.647
46374W        W18799  36.428  16.557  12.928
46375W        W18800   9.202  16.893  12.123
46376W        W18801  30.912  11.627   1.315
46377W        W18802  26.594  29.696  12.800
46378W        W18803  30.999  44.766   0.237
46379W        W18804  40.032  29.406   0.904
46380W        W18805  30.271  42.514   0.660
46381W        W18806  14.792  21.214  12.976
46382W        W18807   6.224  18.659   4.277
46383W        W18808  11.649  43.856  13.305
46384W        W18809  29.181  13.620   2.950
46385W        W18810  42.150  41.384   2.803
46386W        W18811  42.536  14.488   4.347
46387W        W18812   7.368   4.646   4.959
46388W        W18813  42.502  19.815   9.817
46389W        W18814  30.494  36.509   3.725
46390W        W18815   1.873  44.033  10.440
46391W        W18816  29.642  14.466  12.112
46392W        W18817   0.038  36.357   2.125
46393W        W18818  25.447  19.005   4.490
46394W        W18819  42.350   0.947  14.887
46395W        W18820  22.189   1.686   0.328
46396W        W18821  20.075  18.600   0.224
46397W        W18822  10.768  44.052   1.013
46398W        W18823  40.274   7.318  14.777
46399W        W18824   3.477  43.444  10.559
46400W        W18825   6.200  43.349   2.653
46401W        W18826   8.204  24.612   2.741
46402W        W18827  41.866  38.413   0.941
46403W        W18828  36.198   2.279  11.147
46404W        W18829  34.649  21.617   2.814
46405W        W18830  43.354  42.993   4.184
46406W        W18831  21.589  20.124  10.722
46407W        W18832  42.997  28.013   0.442
46408W        W18833  15.595  15.438  14.752
46409W        W18834  30.601  38.997  10.490
46410W        W18835  17.472  43.213  11.436
46411W        W18836  29.948  20.101  14.954
46412W        W18837  11.574  33.012  11.785
46413W        W18838  13.115   6.754  14.479
46414W        W18839  26.317  39.995  12.310
46415W        W18840  37.852  38.065   1.888
46416W        W18841  34.513   1.668   4.368
46417W        W18842  13.052  40.326   2.420
46418W        W18843   9.265  40.540  12.420
46419W        W18844  11.430  36.527   1.397
46420W        W18845  17.256  42.098  14.828
46421W        W18846  33.645  31.429  13.782
46422W        W18847  42.727  35.957   0.373
46423W        W18848  42.942   7.148   3.751
46424W        W18849  17.864  24.233  13.896
46425W        W18850  17.301  35.884   3.432
46426W        W18851  37.834  36.460   2.415
46427W        W18852  17.311  37.336   2.408
46428W        W18853  24.097  23.148   0.882
46429W        W18854  21.322  25.619  12.740
46430W        W18855  14.669  29.146   1.813
46431W        W18856  29.618   3.753  12.813
46432W        W18857  28.434  36.310   2.581
46433W        W18858  37.531  17.800   2.751
46434W        W18859   8.056  32.595  12.405
46435W        W18860  38.915  44.841  13.110
46436W        W18861   0.363  15.975   1.928
46437W        W18862  24.703   0.821   3.941
46438W        W18863  23.157  19.808  12.522
46439W        W18864  34.621  43.927   5.070
46440W        W18865   2.968  25.575  13.021
46441W        W18866  13.528  20.376  13.991
46442W        W18867  35.265   8.956  14.029
46443W        W18868  33.660  29.054  13.581
46444W        W18869  27.450  39.874   0.206
46445W        W18870  41.376  40.755   4.561
46446W        W18871  25.471  28.650  10.602
46447W        W18872  36.988   7.534   4.487
46448W        W18873  17.471   4.388   3.427
46449W        W18874  13.333  39.735  12.877
46450W        W18875  29.445   0.314  10.945
46451W        W18876  33.152   0.558   0.403
46452W        W18877   3.732   9.900   3.310
46453W        W18878  21.262  43.333  13.362
46454W        W18879  23.133  25.860  13.012
46455W        W18880  21.429  30.631  11.235
46456W        W18881   3.212  39.442   1.975
46457W        W18882  25.094  29.413   4.703
46458W        W18883  33.396   6.704   0.571
46459W        W18884  14.804  24.099   2.492
46460W        W18885  15.176  31.380  11.045
46461W        W18886   5.905   6.659  12.482
46462W        W18887  36.399  40.812   1.771
46463W        W18888  23.723  38.545   1.230
46464W        W18889  42.833   7.053  14.931
46465W        W18890  33.962  10.945  10.912
46466W        W18891  31.946   3.199   4.243
46467W        W18892  30.452   3.599   0.425
46468W        W18893  17.197   3.882   4.854
46469W        W18894   4.224   9.880  11.531
46470W        W18895  27.945  16.249   2.522
46471W        W18896   5.387  43.072   4.925
46472W        W18897   2.119   4.028  14.842
46473W        W18898  12.872  11.810   4.132
46474W        W18899   9.882  19.386   3.225
46475W        W18900  18.827  44.168  10.932
46476W        W18901  35.663  38.370  12.536
46477W        W18902   1.505   8.994  12.070
46478W        W18903  25.627  16.365  14.431
46479W        W18904  30.345   0.301   4.535
46480W        W18905   5.446  10.188  14.485
46481W        W18906  33.011   4.349   0.288
46482W        W18907  14.424  34.977  14.004
46483W        W18908  14.770  33.458  14.444
46484W        W18909   4.963  44.779  13.093
46485W        W18910  16.015  35.015  14.790
46486W        W18911  34.528  23.647  13.986
46487W        W18912   2.291  18.755   0.918
46488W        W18913  43.900  40.355   2.544
46489W        W18914   5.487  33.421   3.221
46490W        W18915   9.341  38.961   1.408
46491W        W18916   2.099  38.102  14.500
46492W        W18917  19.960  38.634   0.389
46493W        W18918  31.427  40.802   2.301
46494W        W18919  14.313  43.002  13.787
46495W        W18920  15.219   2.906   1.231
46496W        W18921  44.914  43.808  12.368
46497W        W18922  18.120  10.427   1.683
46498W        W18923   0.373  12.654   4.471
46499W        W18924   2.339  19.202   3.288
46500W        W18925   3.684  11.353  11.586
46501W        W18926  19.383   9.475   4.943
46502W        W18927  14.452  38.390   0.966
46503W        W18928   6.868  39.520  11.106
46504W        W18929  15.292  35.389  11.840
46505W        W18930  40.921  24.410  11.117
46506W        W18931  42.915  38.285   3.409
46507W        W18932  14.777  35.741   1.320
46508W        W18933  36.547  18.169  10.943
46509W        W18934  26.427   5.471   1.382
46510W        W18935   2.154  33.893   3.765
46511W        W18936  38.562   1.914  11.084
46512W        W18937   5.279  29.156   0.380
46513W        W18938  24.856   7.220   3.967
46514W        W18939   0.789  19.349   1.650
46515W        W18940  39.883  21.696   1.788
46516W        W18941   2.269  23.508   1.234
46517W        W18942   9.887  16.227  12.665
46518W        W18943  13.240  37.015  10.622
46519W        W18944  17.740  28.146   1.499
46520W        W18945  37.554  32.848   2.169
46521W        W18946  18.374  27.076  14.940
46522W        W18947  12.791  36.439  10.711
46523W        W18948  19.041   8.359   1.212
46524W        W18949  16.353   5.207  12.338
46525W        W18950  16.573   2.269  12.641
46526W        W18951  13.335  26.923   1.731
46527W        W18952  20.094  24.162   2.619
46528W        W18953  24.385  44.802   1.855
46529W        W18954   3.629   9.767  11.966
46530W        W18955  27.992  38.847  10.888
46531W        W18956  10.755  24.684   5.013
46532W        W18957  28.048  39.380  12.597
46533W        W18958  31.933  29.922  10.670
46534W        W18959  42.782   5.831  10.577
46535W        W18960  10.034  18.570   3.577
46536W        W18961  29.425  21.046  12.529
46537W        W18962  18.029  38.304  13.770
46538W        W18963  38.482  26.904  13.391
46539W        W18964   2.884   6.477   1.354
46540W        W18965  39.968  11.757   4.864
46541W        W18966   7.980  40.594  12.268
46542W        W18967  15.078   4.538  13.546
46543W        W18968  32.974  42.813  11.341
46544W        W18969  44.368   3.888  14.634
46545W        W18970  39.107   8.399  11.760
46546W        W18971  27.625  33.876   4.655
46547W        W18972  13.825  18.383   4.614
46548W        W18973   6.192  10.190   1.656
46549W        W18974  16.585  35.975   3.726
46550W        W18975  41.702  12.311  13.952
46551W        W18976  23.243   9.366  13.441
46552W        W18977  21.080  38.805  14.695
46553W        W18978  22.280  13.123  12.496
46554W        W18979  14.790   3.205   0.981
46555W        W18980  26.138  30.982   4.122
46556W        W18981  44.104   0.712  11.951
46557W        W18982  23.720  24.601  10.788
46558W        W18983  26.884  11.423   4.743
46559W        W18984  37.644  32.061   1.760
46560W        W18985   6.316  28.033  14.979
46561W        W18986  10.126   5.908   3.178
46562W        W18987   4.897   0.738   4.128
46563W        W18988  24.234  15.123   4.334
46564W        W18989   6.964  13.954   1.687
46565W        W18990  20.655  19.235  11.156
46566W        W18991   9.596  11.555  14.865
46567W        W18992  27.721  37.446  13.985
46568W        W18993  44.490   5.690  14.019
46569W        W18994  33.284  18.810   4.121
46570W        W18995  32.858  25.614  14.192
46571W        W18996   6.785  39.785   3.102
46572W        W18997  32.636  35.536  10.894
46573W        W18998   8.726  44.910  11.991
46574W        W18999  10.960  29.447  14.925
46575W        W19000   5.970  19.240   0.651
46576W        W19001  31.600  34.710  12.982
46577W        W19002  42.446  22.631   1.679
46578W        W19003   8.125   1.378   0.871
46579W        W19004   5.691  18.161  12.924
46580W        W19005  25.175  30.440   9.740
46581W        W19006  11.464  31.960  14.070
46582W        W19007  20.134   3.593  13.862
46583W        W19008   0.399   8.635  12.976
46584W        W19009  37.573  20.127  11.497
46585W        W19010  41.178  22.924   1.778
46586W        W19011  12.675  43.270   3.985
46587W        W19012  41.728  22.540   0.504
46588W        W19013   2.973  16.629   0.202
46589W        W19014  38.519   5.868  11.481
46590W        W19015  17.597  36.477  11.487
46591W        W19016  11.933  27.182  12.612
46592W        W19017   3.384  35.371   0.888
46593W        W19018  37.087  17.106  11.117
46594W        W19019  42.853  18.280   4.783
46595W        W19020  40.498  23.746   4.596
46596W        W19021  28.225  37.463  14.066
46597W        W19022  17.657  30.741   2.292
46598W        W19023  35.865   4.810   2.086
46599W        W19024  19.746  15.866   1.263
46600W        W19025  39.903  36.720   1.845
46601W        W19026  33.428  14.649  10.938
46602W        W19027  42.112  20.777  14.813
46603W        W19028   2.828  35.624  11.042
46604W        W19029  33.215  44.560  13.500
46605W        W19030  28.050  25.708  14.868
46606W        W19031  12.201   0.795  11.395
46607W        W19032   7.929  26.486   4.627
46608W        W19033   3.269  10.853   2.160
46609W        W19034  32.046  33.957  14.283
46610W        W19035  15.016   9.220   3.845
46611W        W19036   1.968  26.798  11.098
46612W        W19037  36.778  15.864  10.507
46613W        W19038  16.119  38.109   2.338
46614W        W19039  41.546  38.073  13.997
46615W        W19040  24.584  44.372  10.629
46616W        W19041  41.316  13.090   2.657
46617W        W19042  14.135  35.455   2.334
46618W        W19043  37.101  12.290  13.357
46619W        W19044  40.322  11.428  13.455
46620W        W19045   1.276  14.831   4.367
46621W        W19046  38.373  39.316   0.904
46622W        W19047  33.843  17.222   0.040
46623W        W19048  26.563  13.868  13.342
46624W        W19049  18.704  28.182   0.817
46625W        W19050  24.060   8.397  11.995
46626W        W19051  13.725  24.108   4.947
46627W        W19052  36.453  32.059  12.913
46628W        W19053  37.924  33.073  14.085
46629W        W19054   3.550  40.264   3.022
46630W        W19055  13.344  38.088  11.072
46631W        W19056  44.558  43.744  10.527
46632W        W19057  31.036  32.831  10.607
46633W        W19058  16.603  24.532  11.404
46634W        W19059  12.108  31.349  13.903
46635W        W19060   9.463  20.162   1.170
46636W        W19061  26.610  26.235   4.887
46637W        W19062   7.805  18.793  11.545
46638W        W19063   4.738  34.988  13.904
46639W        W19064   6.435   6.752  13.612
46640W        W19065   3.875  27.180  10.762
46641W        W19066  14.120  23.380   5.241
46642W        W19067  12.741  20.010  11.133
46643W        W19068  11.375  25.484  14.029
46644W        W19069   8.534  32.397  12.432
46645W        W19070   7.885  24.151  12.104
46646W        W19071  21.049   2.398   0.221
46647W        W19072   9.855  14.761  11.205
46648W        W19073  32.553   9.671  11.365
46649W        W19074  40.041  15.445   1.303
46650W        W19075  38.793  35.305  14.436
46651W        W19076   7.670   5.400   3.842
46652W        W19077  19.543  13.656  12.559
46653W        W19078  42.415  29.581   3.542
46654W        W19079  26.388  29.524   4.661
46655W        W19080  40.548  11.481  12.549
46656W        W19081   9.865  37.050  14.588
46657W        W19082  31.473  34.573  10.649
46658W        W19083   9.870  43.869  13.289
46659W        W19084  12.396   0.282   1.245
46660W        W19085  17.408  32.962  14.068
46661W        W19086   3.987  23.513  13.507
46662W        W19087   4.410   8.917  11.546
46663W        W19088  44.045  15.134   4.988
46664W        W19089  12.116  29.614   4.579
46665W        W19090  38.129  15.585   1.886
46666W        W19091  38.853  43.736  12.179
46667W        W19092  30.150  35.012  14.790
46668W        W19093   4.842  39.848   1.739
46669W        W19094  23.215  22.019  14.543
46670W        W19095  11.010  28.513   3.572
46671W        W19096  31.178  35.389  13.430
46672W        W19097  29.320   4.697  11.624
46673W        W19098  20.275   6.800  13.743
46674W        W19099   6.647  18.381  13.114
46675W        W19100  10.649  20.285   1.240
46676W        W19101  17.062  34.406   3.203
46677W        W19102  19.794  33.444   1.409
46678W        W19103  30.064  29.998   0.966
46679W        W19104  37.894   8.647   2.864
46680W        W19105  18.619  34.919  14.470
46681W        W19106   8.631  24.665   3.047
46682W        W19107  19.808   8.701  14.839
46683W        W19108   8.805   0.091  12.469
46684W        W19109  23.600  11.719  14.936
46685W        W19110   2.947  25.262   2.898
46686W        W19111  42.514  22.895   0.057
46687W        W19112  21.033  12.285   0.777
46688W        W19113  38.504   0.903  14.804
46689W        W19114  34.464  42.823   3.284
46690W        W19115  17.213  31.030  10.740
46691W        W19116  41.518  21.153  13.460
46692W        W19117   9.012  38.792   2.893
46693W        W19118  11.878   3.257  12.840
46694W        W19119  30.129  23.484  13.089
46695W        W19120  18.285  31.906   4.831
46696W        W19121  13.157  34.813  13.047
46697W        W19122  16.886  15.944  11.144
46698W        W19123  33.971   1.551   0.281
46699W        W19124  18.601  26.000   2.872
46700W        W19125  15.726   7.893  12.600
46701W        W19126  16.324  27.412  12.386
46702W        W19127   6.249  21.032  12.053
46703W        W19128  24.102  34.330   2.708
46704W        W19129  18.559  18.303   3.087
46705W        W19130   9.975  27.413   3.673
46706W        W19131  41.329   6.566  12.090
46707W        W19132  13.763   3.457   4.141
46708W        W19133   5.737   8.797   0.507
46709W        W19134   6.703   0.252   3.214
46710W        W19135   7.536  14.093  12.483
46711W        W19136  23.217  23.924   1.379
46712W        W19137  31.653   7.308  11.974
46713W        W19138  16.924  13.458   3.286
46714W        W19139  35.480  12.046   2.320
46715W        W19140  28.192  36.931   3.830
46716W        W19141  39.289  25.823   3.955
46717W        W19142  10.675  37.248   5.053
46718W        W19143  10.775  22.026   0.795
46719W        W19144   2.478   1.358   4.591
46720W        W19145   9.779  27.518   1.861
46721W        W19146  14.786   0.897   0.341
46722W        W19147  31.580  25.945  11.255
46723W        W19148  26.027  12.737   3.924
46724W        W19149  38.121  23.444  14.324
46725W        W19150  25.616  13.130  11.563
46726W        W19151   9.134  15.564  11.697
46727W        W19152  34.326  30.198  12.071
46728W        W19153  34.742  43.517   0.333
46729W        W19154  39.738  38.564   2.773
46730W        W19155  10.334  10.774   0.192
46731W        W19156  31.005  17.814  14.675
46732W        W19157   6.359  13.047   4.174
46733W        W19158  40.950   6.267   0.416
46734W        W19159  10.372  13.800   0.866
46735W        W19160   0.160   9.543  13.327
46736W        W19161  32.955  34.063   3.717
46737W        W19162  38.368  24.589  14.990
46738W        W19163   4.806  12.161   4.130
46739W        W19164  26.115  23.661   0.723
46740W        W19165   8.793  10.335   0.666
46741W        W19166  37.440  30.002   0.641
46742W        W19167   9.011  43.288   0.455
46743W        W19168  11.873  24.528   2.877
46744W        W19169  22.115   7.835  10.729
46745W        W19170  42.675  25.352  11.895
46746W        W19171  34.086  39.418  10.553
46747W        W19172  33.524  41.226  10.795
46748W        W19173   2.166  26.479  13.335
46749W        W19174   3.249  26.949   3.719
46750W        W19175   7.201  37.343  11.035
46751W        W19176   5.770  25.480   1.835
46752W        W19177  38.316   6.259   3.316
46753W        W19178   1.440  32.959  14.810
46754W        W19179  42.255  18.157  10.616
46755W        W19180  43.965  10.384  11.555
46756W        W19181  18.900  28.452   4.661
46757W        W19182  41.311  43.388  13.290
46758W        W19183  28.444  34.904  12.507
46759W        W19184  23.241  41.369  13.967
46760W        W19185  35.154  12.954  14.962
46761W        W19186  20.547  29.643  13.454
46762W        W19187  27.044   8.657   0.856
46763W        W19188   5.373  15.047   2.648
46764W        W19189  29.400   6.267   1.648
46765W        W19190  34.973  28.106  12.553
46766W        W19191  17.566  22.213   0.809
46767W        W19192  28.723  19.219  14.899
46768W        W19193  11.226  38.401  12.437
46769W        W19194  24.249   2.436   0.423
46770W        W19195  10.756  21.441  12.906
46771W        W19196  29.991  29.468  13.293
46772W        W19197  42.425  30.120   2.501
46773W        W19198  29.104  35.252  14.092
46774W        W19199  32.709  24.665  13.374
46775W        W19200  41.586  40.573   0.830
46776W        W19201   6.759   9.131   3.426
46777W        W19202   7.389   4.292   1.726
46778W        W19203  22.110  29.766   3.337
46779W        W19204  11.111  36.362  11.049
46780W        W19205  40.023  12.331   4.589
46781W        W19206  33.654  34.420   0.320
46782W        W19207   2.659   4.986  12.395
46783W        W19208  28.677  11.108   3.617
46784W        W19209  27.003  25.507   4.610
46785W        W19210  36.590  36.972   2.193
46786W        W19211  28.481  30.095   1.912
46787W        W19212  25.409  36.905   4.091
46788W        W19213  15.627  14.388  14.902
46789W        W19214  36.076  19.803   4.274
46790W        W19215  39.576  18.743   1.000
46791W        W19216   9.136  40.372  13.987
46792W        W19217  38.916  17.805  14.966
46793W        W19218  20.338  12.345  14.424
46794W        W19219  18.275   6.889   2.940
46795W        W19220  29.521  20.099   3.439
46796W        W19221   4.184  20.603  13.417
46797W        W19222  18.588  12.132   2.071
46798W        W19223  19.025  25.476  13.389
46799W        W19224  30.391   5.221  14.046
46800W        W19225   1.967   1.313   4.695
46801W        W19226  39.338  18.558  10.347
46802W        W19227  36.999   0.301  13.576
46803W        W19228  38.353  18.672  11.877
46804W        W19229  40.540   4.632  11.774
46805W        W19230   3.961  30.013   3.772
46806W        W19231  28.615   3.706  12.782
46807W        W19232   4.343  22.250   3.142
46808W        W19233  22.993  44.455  14.022
46809W        W19234  20.014  23.732   0.053
46810W        W19235  16.271  19.835  14.330
46811W        W19236  43.544   2.228  11.173
46812W        W19237  38.463  38.822   4.896
46813W        W19238  14.092  29.914   2.628
46814W        W19239  30.015  20.683  10.342
46815W        W19240  32.568  12.841   3.763
46816W        W19241  43.909  36.366  10.640
46817W        W19242   9.708   5.155   1.921
46818W        W19243   1.177  23.088   3.348
46819W        W19244  30.482  11.234   2.335
46820W        W19245  13.216  33.820  12.635
46821W        W19246  25.036  38.601  11.853
46822W        W19247  19.044  21.108  12.134
46823W        W19248  22.921  26.015   4.220
46824W        W19249  37.267  20.373  14.681
46825W        W19250   1.887  19.113   2.979
46826W        W19251   5.083  36.968   2.421
46827W        W19252  15.711  21.148   0.496
46828W        W19253  11.435  25.389  12.005
46829W        W19254  27.920  42.323  12.928
46830W        W19255  44.820  35.470   1.781
46831W        W19256   2.295   3.721   3.739
46832W        W19257   0.829  37.886  14.487
46833W        W19258   6.290  22.510   3.782
46834W        W19259  31.065  37.874  12.483
46835W        W19260  21.752  33.842  13.537
46836W        W19261  16.762  18.540   2.464
46837W        W19262  44.216  28.059   1.782
46838W        W19263   9.197  35.055   1.540
46839W        W19264  32.656  19.144  11.689
46840W        W19265  12.887  40.886  11.998
46841W        W19266   5.879  22.968  13.933
46842W        W19267  13.825  21.654  11.760
46843W        W19268  28.385  42.223  13.118
46844W        W19269  30.132  10.383   2.770
46845W        W19270  33.438  33.516  10.235
46846W        W19271  12.765  44.126  11.669
46847W        W19272   6.941  26.036  12.811
46848W        W19273  30.174  42.450   4.790
46849W        W19274  25.808  44.875  13.617
46850W        W19275  24.393  29.223  10.889
46851W        W19276  25.458  25.907   0.495
46852W        W19277  33.472   7.793  13.905
46853W        W19278   6.365  35.428  10.875
46854W        W19279   9.181  28.625  13.736
46855W        W19280  44.897  15.664  12.650
46856W        W19281  24.789  25.568   0.798
46857W        W19282  34.062  31.581   3.324
46858W        W19283   2.498  15.775   0.677
46859W        W19284  21.946  14.167   1.234
46860W        W19285   8.193   4.904  10.311
46861W        W19286  29.152  35.324   3.319
46862W        W19287  25.548  10.342   1.455
46863W        W19288  17.233   2.941  14.802
46864W        W19289  33.927  13.164  14.991
46865W        W19290  24.078  20.297   2.272
46866W        W19291  32.694  22.126  11.668
46867W        W19292  12.916  12.775  13.911
46868W        W19293  21.335  40.943  12.520
46869W        W19294   0.736  12.277   4.416
46870W        W19295  32.580  18.755   3.384
46871W        W19296  30.037   4.978  11.997
46872W        W19297  23.968   8.291   0.851
46873W        W19298  35.509  15.724   1.318
46874W        W19299  27.599  24.428  10.658
46875W        W19300  41.356  26.712  11.082
46876W        W19301  18.738  44.567  13.239
46877W        W19302   2.975  37.065  14.886
46878W        W19303  40.198   0.707   0.997
46879W        W19304  44.328   0.526   4.414
46880W        W19305   0.852   8.394  13.002
46881W        W19306  15.945  19.090   3.936
46882W        W19307  19.600  28.521  11.286
46883W        W19308  36.448  29.677  13.585
46884W        W19309  10.871  37.711   2.781
46885W        W19310  43.673  29.554   4.632
46886W        W19311   8.117   5.973  12.920
46887W        W19312  23.368   8.332   4.290
46888W        W19313  37.195  35.456  12.926
46889W        W19314  34.429  28.705  11.532
46890W        W19315  35.452  31.581   2.884
46891W        W19316  22.461  15.408   0.336
46892W        W19317  41.338  25.690  11.964
46893W        W19318  13.421   5.316  12.907
46894W        W19319  32.568  12.662  12.419
46895W        W19320  31.861  18.719  14.928
46896W        W19321   3.685  28.240  11.677
46897W        W19322  38.025   5.118   2.199
46898W        W19323  37.917  21.155   4.339
46899W        W19324  16.845  28.683  10.679
46900W        W19325  14.143  44.314   1.399
46901W        W19326  41.389  42.791   2.703
46902W        W19327  18.257  24.156   1.210
46903W        W19328  41.419  14.871   1.936
46904W        W19329  29.700  20.707  11.181
46905W        W19330  18.351  39.855  13.059
46906W        W19331  14.641  36.699  11.626
46907W        W19332  32.665  14.062   0.088
46908W        W19333  27.967  21.160  12.885
46909W        W19334   0.985   2.337   1.214
46910W        W19335  10.723  26.933  11.917
46911W        W19336  43.866  42.277  11.656
46912W        W19337   6.338  29.831  13.026
46913W        W19338  31.322  36.401   1.816
46914W        W19339  14.571  19.577   4.168
46915W        W19340   9.950  34.378  10.396
46916W        W19341  41.830   0.850  14.889
46917W        W19342   0.889   8.845   4.574
46918W        W19343  10.183  31.229   2.666
46919W        W19344  19.786  36.102   2.133
46920W        W19345  27.645  21.798  11.975
46921W        W19346  22.697  44.927  10.763
46922W        W19347  33.048  15.951  10.774
46923W        W19348  30.183  38.807   4.595
46924W        W19349  43.106   1.287   3.749
46925W        W19350  18.219  24.984   1.389
46926W        W19351  10.430  15.608  13.284
46927W        W19352  36.338   7.825  12.846
46928W        W19353  13.960  41.660   2.009
46929W        W19354  38.760  11.202   3.192
46930W        W19355   2.383  34.865   3.995
46931W        W19356  44.586  25.267  14.297
46932W        W19357  30.195  21.251   1.779
46933W        W19358  13.238   7.155   1.621
46934W        W19359   9.676  16.779   3.256
46935W        W19360  27.640   9.143   3.664
46936W        W19361  22.323   3.752   1.685
46937W        W19362   7.726  24.694  11.644
46938W        W19363  41.250  32.973  14.903
46939W        W19364   0.156  17.078  14.895
46940W        W19365  38.357  24.268  10.751
46941W        W19366  14.474  23.235   4.070
46942W        W19367   2.532  21.062  10.552
46943W        W19368  29.405  35.161   2.867
46944W        W19369  11.359  28.636  14.461
46945W        W19370  18.289  14.801  11.182
46946W        W19371  27.992  13.273  14.981
46947W        W19372  22.045  36.451   1.179
46948W        W19373  29.430  36.880   4.692
46949W        W19374  28.710  37.808  12.654
46950W        W19375  34.987  18.060  14.641
46951W        W19376  15.494  34.121  14.839
46952W        W19377  15.172   2.408  13.356
46953W        W19378  19.257  14.606   4.633
46954W        W19379  13.385   4.024   2.764
46955W        W19380   1.923  10.730   1.848
46956W        W19381  43.937  44.624   2.239
46957W        W19382  39.556  21.583  12.486
46958W        W19383  40.980   3.888  13.960
46959W        W19384  35.598  24.188   1.456
46960W        W19385  33.250  22.504   0.239
46961W        W19386   1.314  43.395  12.913
46962W        W19387   9.736  41.346   0.267
46963W        W19388   0.417  44.044  14.410
46964W        W19389  30.911   0.960   4.327
46965W        W19390  38.012  32.152   1.400
46966W        W19391  28.341   5.381   1.260
46967W        W19392  20.828   4.379   1.420
46968W        W19393  13.593  10.659  11.494
46969W        W19394   8.442  18.297  10.023
46970W        W19395  24.775  30.305  10.568
46971W        W19396  12.390   4.840   4.243
46972W        W19397  21.322  15.563  13.440
46973W        W19398  24.548  21.255  11.013
46974W        W19399  10.236  42.547  11.160
46975W        W19400  26.883  31.223   3.675
46976W        W19401  42.941  19.087  13.864
46977W        W19402  39.834  34.375  14.385
46978W        W19403   0.521  25.163  14.383
46979W        W19404  30.493  35.495   2.786
46980W        W19405  39.752  28.522   1.178
46981W        W19406  29.596  32.511  14.306
46982W        W19407  34.942  29.258   4.173
46983W        W19408  23.216   6.270   4.702
46984W        W19409  12.912  38.996  11.228
46985W        W19410  31.362  37.002  11.170
46986W        W19411  26.177  44.242   4.166
46987W        W19412   7.648  16.563  13.697
46988W        W19413  34.548  18.858   4.696
46989W        W19414   5.380  20.089   0.692
46990W        W19415  41.608  34.420   3.758
46991W        W19416   3.210   0.160  14.257
46992W        W19417  11.749  22.825  11.476
46993W        W19418   1.659  31.994   0.440
46994W        W19419  30.490  38.387   0.691
46995W        W19420   2.412  33.129  11.984
46996W        W19421  14.551  38.037   2.276
46997W        W19422  42.488   2.391   4.194
46998W        W19423  13.504   1.366  14.326
46999W        W19424   2.953  30.899  14.038
47000W        W19425  14.047  20.512  14.015
47001W        W19426  17.474  20.458  11.021
47002W        W19427  38.292  11.616   4.343
47003W        W19428   4.240  30.443   3.648
47004W        W19429  33.639   6.406   3.133
47005W        W19430  26.646  21.342  12.996
47006W        W19431  35.843  35.877  11.091
47007W        W19432  36.410  21.131   0.251
47008W        W19433  40.408  44.563   4.936
47009W        W19434  36.064   3.760  14.829
47010W        W19435  20.618  17.331   4.669
47011W        W19436  37.521  41.144  11.241
47012W        W19437  27.365  28.670   4.749
47013W        W19438  25.753  29.629  10.178
47014W        W19439   5.745  37.861   4.796
47015W        W19440   5.519  33.886   0.713
47016W        W19441  23.248  16.604  13.329
47017W        W19442  39.006   0.317   1.453
47018W        W19443   1.671  36.065  14.289
47019W        W19444  20.005   4.033  11.063
47020W        W19445  19.775  20.099   0.881
47021W        W19446  39.482  17.055   0.971
47022W        W19447   9.710  43.219   2.300
47023W        W19448  26.297  27.854   3.043
47024W        W19449  30.999  32.213  11.654
47025W        W19450  15.706  30.188   1.521
47026W        W19451   8.024  15.743  10.315
47027W        W19452  25.230  10.501   0.381
47028W        W19453   7.871  40.231   2.752
47029W        W19454   2.722   9.248  13.873
47030W        W19455  23.764  15.206  14.397
47031W        W19456  30.898  24.652   2.804
47032W        W19457  17.106  10.068  14.182
47033W        W19458   9.895   4.513   0.388
47034W        W19459   1.627  23.405  12.385
47035W        W19460   9.231  39.580   0.159
47036W        W19461  21.932  10.098  14.899
47037W        W19462  11.612  36.802   0.797
47038W        W19463   4.637  39.591   2.615
47039W        W19464  10.354  13.088  14.764
47040W        W19465  37.424  22.221   1.454
47041W        W19466   1.520  30.547   0.523
47042W        W19467  18.554  38.653  10.719
47043W        W19468  22.107   4.247  11.912
47044W        W19469   1.390  16.609   1.980
47045W        W19470  38.503  29.254  12.401
47046W        W19471   0.838   3.680   1.235
47047W        W19472  33.439  15.603   2.737
47048W        W19473  37.370  41.925  11.630
47049W        W19474   3.751  29.649  11.533
47050W        W19475  11.172  14.736  14.487
47051W        W19476  12.734  15.678  14.442
47052W        W19477  20.233  16.647   1.294
47053W        W19478  17.238   8.196   0.333
47054W        W19479   4.493  37.770   2.511
47055W        W19480   2.345   3.819   0.241
47056W        W19481  14.632  27.208   2.830
47057W        W19482  23.159   7.408  11.537
47058W        W19483   2.956  13.144  12.496
47059W        W19484  40.216  38.389   2.847
47060W        W19485  23.118  30.142  12.531
47061W        W19486   9.711  23.771   0.367
47062W        W19487   6.919  36.292   4.574
47063W        W19488  36.713  36.224   3.198
47064W        W19489   8.264  31.233  14.966
47065W        W19490  40.172  39.506  11.093
47066W        W19491  42.885   1.438  13.220
47067W        W19492   6.662  37.510  11.138
47068W        W19493   5.584  26.843  10.772
47069W        W19494   1.292  41.279   1.781
47070W        W19495  16.076   0.907   3.330
47071W        W19496  41.878  18.197  11.866
47072W        W19497  15.281  17.532   4.547
47073W        W19498   5.734  40.680  13.001
47074W        W19499   3.960  28.579   0.519
47075W        W19500  20.221  31.957   4.658
47076W        W19501  10.198  38.754   4.130
47077W        W19502  21.650  18.131  13.903
47078W        W19503  26.995   7.709  12.213
47079W        W19504  37.017  15.005   2.930
47080W        W19505  25.973  32.383   1.061
47081W        W19506  16.362  22.710   0.380
47082W        W19507  18.023  33.063  12.844
47083W        W19508   4.182  42.139   1.863
47084W        W19509   8.290  35.128  13.916
47085W        W19510  35.136  24.231  13.859
47086W        W19511  10.720   6.751  14.064
47087W        W19512  38.037   7.977   0.934
47088W        W19513  16.135  16.269  10.724
47089W        W19514  28.034  43.949   4.339
47090W        W19515  20.745   7.229   0.761
47091W        W19516  32.114   9.362   2.404
47092W        W19517  39.286  40.608  11.128
47093W        W19518  21.221  24.954   1.354
47094W        W19519  29.151   2.533  14.926
47095W        W19520  18.947  13.331   2.999
47096W        W19521  35.909  23.280   1.330
47097W        W19522  11.867  14.659  12.137
47098W        W19523  29.202   0.450  12.499
47099W        W19524  31.223  40.752  12.834
47100W        W19525  20.133  31.473  12.451
47101W        W19526   1.893  12.659   5.084
47102W        W19527  13.044  26.662   4.609
47103W        W19528  42.349   3.976   4.083
47104W        W19529  21.587  31.835   2.593
47105W        W19530  27.274  17.738   3.260
47106W        W19531  32.879  28.467  14.418
47107W        W19532  15.135   8.349  14.837
47108W        W19533  28.595   4.500  10.636
47109W        W19534  13.061  44.859  13.886
47110W        W19535  35.616  18.060   3.756
47111W        W19536  41.453   3.403  11.706
47112W        W19537  20.280  12.432  12.311
47113W        W19538   6.341  25.669   1.685
47114W        W19539   7.284   6.462   3.201
47115W        W19540  44.905  26.632  11.481
47116W        W19541  25.935  31.001  13.035
47117W        W19542  15.649   6.761  12.036
47118W        W19543  33.158  36.993   2.029
47119W        W19544  43.156   7.395  11.677
47120W        W19545  11.386  10.388   0.420
47121W        W19546  42.620   2.842  14.742
47122W        W19547  33.886  39.970   2.774
47123W        W19548  12.908   7.546  12.983
47124W        W19549   7.128  13.367   0.268
47125W        W19550   2.902  16.630   3.361
47126W        W19551  29.061  12.278  10.962
47127W        W19552  32.477  18.798  12.545
47128W        W19553  42.816  12.590   2.776
47129W        W19554   5.026  13.180  11.304
47130W        W19555   9.406  12.612   1.692
47131W        W19556  26.291  36.930  14.886
47132W        W19557  28.927  26.889   1.466
47133W        W19558  13.676   0.401   1.781
47134W        W19559   6.784  35.859   4.864
47135W        W19560   6.143  15.660   2.254
47136W        W19561   4.114   3.968  12.058
47137W        W19562  29.585  18.906  14.449
47138W        W19563  13.322   0.077  12.450
47139W        W19564  21.737  40.693   2.415
47140W        W19565  15.594   1.967   3.972
47141W        W19566  12.812  39.984  12.020
47142W        W19567  25.748  21.049   4.473
47143W        W19568  35.641  19.498   2.960
47144W        W19569  14.960  43.274   0.831
47145W        W19570  12.703   4.763   1.349
47146W        W19571   8.455  27.072  11.480
47147W        W19572  41.271  10.150  12.868
47148W        W19573  16.800  28.647   2.431
47149W        W19574  18.969  29.108   2.714
47150W        W19575  21.756  44.476   3.181
47151W        W19576  28.251  31.658   4.977
47152W        W19577   4.228  17.911  13.889
47153W        W19578  39.993   8.571   2.383
47154W        W19579   5.354  10.930  13.348
47155W        W19580  32.042   6.704  14.939
47156W        W19581  20.599  43.799  12.480
47157W        W19582  15.165  16.575  12.888
47158W        W19583  32.146  33.373  11.519
47159W        W19584  21.566  14.814  14.070
47160W        W19585  20.652   8.845   0.420
47161W        W19586  30.373  11.270  14.364
47162W        W19587  31.234  18.626   1.761
47163W        W19588  19.331  32.558   0.723
47164W        W19589  42.708  32.635   2.726
47165W        W19590  43.029  35.849   4.556
47166W        W19591   3.484  13.654  11.091
47167W        W19592   8.673   9.313  12.880
47168W        W19593  40.019  33.798  12.949
47169W        W19594  31.480   2.946   4.133
47170W        W19595  37.945  18.864  10.689
47171W        W19596  10.841   9.137  14.105
47172W        W19597  43.813  27.431  13.907
47173W        W19598  18.580  22.946  12.145
47174W        W19599  41.958  10.928  14.161
47175W        W19600  19.723  17.660   2.432
47176W        W19601  36.428  11.099  12.738
47177W        W19602  17.229  16.521   1.847
47178W        W19603   7.079  21.640   1.819
47179W        W19604  26.179  24.986   1.259
47180W        W19605   5.798  17.849   1.993
47181W        W19606   9.821   8.840   1.186
47182W        W19607  20.882   8.214   2.212
47183W        W19608  14.173  25.457  12.955
47184W        W19609   2.487  38.826   4.582
47185W        W19610  16.718  31.604   0.659
47186W        W19611  27.661  18.798  12.131
47187W        W19612  32.947  10.334  14.366
47188W        W19613  23.225   8.642   4.701
47189W        W19614  33.661   6.374  11.937
47190W        W19615  32.430  40.332   0.977
47191W        W19616   8.826  22.711   2.887
47192W        W19617   0.252  33.073   4.800
47193W        W19618  30.708  24.144   2.758
47194W        W19619   1.909  41.006   1.897
47195W        W19620  14.608   8.067  14.901
47196W        W19621  37.491   0.862   3.522
47197W        W19622  14.610   5.997  13.389
47198W        W19623  29.048   5.339  13.478
47199W        W19624   9.759  25.411  12.419
47200W        W19625  40.961  44.504   1.387
47201W        W19626  16.608  14.081   3.908
47202W        W19627  11.146  23.933   3.644
47203W        W19628   8.696  25.807   1.160
47204W        W19629   4.255  35.826   5.147
47205W        W19630  12.357   9.830   4.100
47206W        W19631  30.755  29.991   4.584
47207W        W19632  37.246   5.777   3.728
47208W        W19633   7.644  21.533  10.702
47209W        W19634  27.249   9.808   2.208
47210W        W19635  40.001   4.923  12.527
47211W        W19636  10.967   9.590  13.081
47212W        W19637   1.888  43.474   1.727
47213W        W19638   8.679   4.719  10.997
47214W        W19639  14.867   8.624   4.230
47215W        W19640  41.019  17.883  10.908
47216W        W19641   2.408  35.297   1.253
47217W        W19642  24.465  36.415  13.529
47218W        W19643  26.654  40.489   0.822
47219W        W19644  33.417  10.354  10.010
47220W        W19645  21.951  11.268  14.745
47221W        W19646  35.177  15.602  11.977
47222W        W19647   7.846   7.028   1.016
47223W        W19648   6.336   3.322   1.529
47224W        W19649   3.807  43.374  12.968
47225W        W19650  35.657   9.395   3.303
47226W        W19651  33.433  23.837   2.368
47227W        W19652  12.443  32.109   3.580
47228W        W19653  44.935  30.180   2.465
47229W        W19654   1.490  10.617   4.845
47230W        W19655  10.233  14.349   4.854
47231W        W19656  19.125  24.216  10.696
47232W        W19657  40.471   8.396  13.497
47233W        W19658  39.604  34.340   2.533
47234W        W19659  41.841  15.109  13.726
47235W        W19660  29.626  11.932  14.800
47236W        W19661  27.654  39.727   4.518
47237W        W19662   4.812  19.645   0.717
47238W        W19663  26.536  22.183  13.517
47239W        W19664  31.689   6.778   4.162
47240W        W19665  11.770  40.529  10.677
47241W        W19666  11.417  35.073  14.196
47242W        W19667  30.850  33.120   2.756
47243W        W19668  30.255  15.994   1.454
47244W        W19669  30.044  24.999  11.680
47245W        W19670   9.340  20.028   4.114
47246W        W19671  31.185  43.386   1.290
47247W        W19672   3.470   1.827  12.506
47248W        W19673   9.206  26.876   2.401
47249W        W19674  16.704  13.968  13.333
47250W        W19675  33.717  21.495  10.715
47251W        W19676  31.661  15.182  12.540
47252W        W19677  33.548  16.031   4.495
47253W        W19678  42.576  12.627   1.398
47254W        W19679  29.964  25.565   2.272
47255W        W19680  28.968   9.726  14.604
47256W        W19681   1.814  15.899  13.169
47257W        W19682  34.986  29.945   2.377
47258W        W19683  16.692  20.765  10.815
47259W        W19684  23.268  20.013  11.549
47260W        W19685  18.021  33.374  13.558
47261W        W19686  33.851  44.464  10.434
47262W        W19687  13.701  19.111   3.390
47263W        W19688  17.030   3.970  10.624
47264W        W19689   3.322  34.020  12.549
47265W        W19690  43.092  37.820   1.696
47266W        W19691  27.582  11.879   4.624
47267W        W19692  31.949  40.311   3.071
47268W        W19693  43.513  10.877  14.797
47269W        W19694   4.845  25.202   5.047
47270W        W19695   6.961  25.093  12.547
47271W        W19696  38.549  44.550  10.646
47272W        W19697   4.535  18.072  13.473
47273W        W19698   9.196  31.566   1.731
47274W        W19699   8.273  44.456   2.861
47275W        W19700  23.730  37.453  10.924
47276W        W19701  38.132  16.722  14.959
47277W        W19702  42.791  23.947   0.393
47278W        W19703  19.165  10.828   0.826
47279W        W19704  43.775  26.242   4.549
47280W        W19705   7.768  20.147  13.483
47281W        W19706  15.732  10.619   1.306
47282W        W19707  42.337   8.748  14.399
47283W        W19708  25.046  10.754  12.809
47284W        W19709  28.409  13.929  12.583
47285W        W19710   8.513   1.947  14.809
47286W        W19711  10.154  10.828  14.269
47287W        W19712  28.559  41.418   5.074
47288W        W19713  25.487  30.939  11.903
47289W        W19714  33.489  15.340   2.185
47290W        W19715   0.979  38.019  12.213
47291W        W19716  31.478  30.685  10.124
47292W        W19717   6.806   0.951   2.584
47293W        W19718  31.135  39.407   2.756
47294W        W19719  36.373  26.233  11.611
47295W        W19720  18.733  18.100  14.335
47296W        W19721   2.344  38.870  11.482
47297W        W19722   8.460   7.256  14.320
47298W        W19723  23.103  15.768  11.403
47299W        W19724  10.746  14.463   3.913
47300W        W19725  42.475  33.356   1.384
47301W        W19726  40.115  16.986   4.747
47302W        W19727  39.862   5.656   2.766
47303W        W19728   0.328  44.309  14.878
47304W        W19729   4.303  12.003  13.030
47305W        W19730  41.148  24.533  11.590
47306W        W19731  25.523   0.472   3.191
47307W        W19732   5.320  14.603   4.603
47308W        W19733   2.873  22.656   1.316
47309W        W19734   3.996  25.990   2.904
47310W        W19735  38.352  24.466   0.930
47311W        W19736  31.504   3.356   0.415
47312W        W19737  36.838  13.314   3.842
47313W        W19738  27.027  31.770   3.201
47314W        W19739  44.330  10.107   0.390
47315W        W19740  15.337  24.336   3.118
47316W        W19741   6.836  38.887   1.437
47317W        W19742   0.542  10.642  10.844
47318W        W19743  12.116  21.101  13.182
47319W        W19744  33.198   5.713  10.379
47320W        W19745  13.275  25.155   1.283
47321W        W19746   4.253  22.184  14.300
47322W        W19747  38.860  17.271   4.052
47323W        W19748  40.876  17.594  13.410
47324W        W19749  36.134  27.489   2.532
47325W        W19750  39.309   7.314   3.750
47326W        W19751   1.902  26.555  14.301
47327W        W19752  31.990  26.976  14.222
47328W        W19753  39.541  27.471  13.245
47329W        W19754  17.116  15.653   3.821
47330W        W19755  21.544  26.840  12.677
47331W        W19756  23.472  34.390   0.039
47332W        W19757  11.834  42.327   4.309
47333W        W19758   4.634  27.658  10.077
47334W        W19759  36.665  12.954  14.415
47335W        W19760  24.556  40.919  10.499
47336W        W19761  19.724  13.994   0.593
47337W        W19762  28.220  15.123   4.705
47338W        W19763  11.990   4.939  14.056
47339W        W19764  37.574  24.091  13.251
47340W        W19765  28.620  35.524   2.490
47341W        W19766  32.107  25.167  14.244
47342W        W19767  13.138  38.089  13.545
47343W        W19768  29.618   0.968   1.984
47344W        W19769  34.602  41.259  12.555
47345W        W19770   1.240  33.600   1.962
47346W        W19771   7.141  42.995  12.045
47347W        W19772  16.704  34.928   9.856
47348W        W19773  13.208  38.312  11.579
47349W        W19774  39.845   8.866   2.802
47350W        W19775   0.772  38.614  14.960
47351W        W19776  13.725  13.319  12.612
47352W        W19777  34.694   7.558  14.356
47353W        W19778  11.628  19.153   0.357
47354W        W19779  16.989   4.331   2.815
47355W        W19780  20.972  33.314  11.193
47356W        W19781  36.613  14.847   4.613
47357W        W19782   7.739  14.718   4.207
47358W        W19783  35.940   9.223  13.473
47359W        W19784  34.410   4.822  12.594
47360W        W19785  13.761  28.678  12.469
47361W        W19786   3.442  12.153   2.966
47362W        W19787  23.411  24.180  13.948
47363W        W19788  15.737  44.082   4.217
47364W        W19789  26.718  22.356  13.021
47365W        W19790   2.028  13.160   0.725
47366W        W19791  16.576   7.851  12.921
47367W        W19792  28.890  21.471  11.422
47368W        W19793  14.390  38.356   4.537
47369W        W19794   4.708  13.199  10.898
47370W        W19795   2.708  37.509  14.874
47371W        W19796   0.855  34.311   0.875
47372W        W19797   1.755  23.167  11.910
47373W        W19798  20.927  27.734   2.331
47374W        W19799  35.609  15.965  12.046
47375W        W19800  17.664  33.896  13.804
47376W        W19801  39.759  22.151  11.583
47377W        W19802  39.203  42.423   4.607
47378W        W19803  15.131  17.303   2.212
47379W        W19804  38.456  30.982   1.980
47380W        W19805  13.343  14.795   0.564
47381W        W19806  32.026   7.953   2.874
47382W        W19807   2.766  35.350   2.666
47383W        W19808  43.232  31.227   2.668
47384W        W19809  21.661  25.221  14.643
47385W        W19810  33.051  41.841   0.603
47386W        W19811   4.346  29.400  13.101
47387W        W19812   0.978  31.144  11.113
47388W        W19813  29.441  30.891   1.298
47389W        W19814  38.288  24.201   1.786
47390W        W19815  10.798   4.274   4.798
47391W        W19816  36.486  18.401   4.142
47392W        W19817  15.831  27.758  13.973
47393W        W19818  17.306  13.832   2.699
47394W        W19819  17.325  36.587  11.088
47395W        W19820  20.957  38.538   0.147
47396W        W19821  37.063  10.691  10.834
47397W        W19822  24.548  18.854   3.964
47398W        W19823  14.348  27.647  10.435
47399W        W19824  41.261  28.881   4.253
47400W        W19825   8.127  17.486  12.984
47401W        W19826  38.891   7.715  13.619
47402W        W19827  24.881  23.921   4.045
47403W        W19828  35.767  14.240   4.643
47404W        W19829  28.534  36.961   3.237
47405W        W19830  18.585  30.390   5.109
47406W        W19831  26.453  39.326  13.862
47407W        W19832  35.874  14.300  10.758
47408W        W19833   4.738   6.824   3.755
47409W        W19834  23.459  14.032   3.624
47410W        W19835   1.580  12.162  12.152
47411W        W19836  36.420   2.707   1.818
47412W        W19837  15.594  27.913  12.582
47413W        W19838  35.731  43.456   3.326
47414W        W19839  16.292  42.731   1.327
47415W        W19840  23.396  11.831   5.244
47416W        W19841  12.407  31.664  14.890
47417W        W19842  19.202   4.596   0.290
47418W        W19843  28.972  33.998   3.108
47419W        W19844  43.587  13.785  14.996
47420W        W19845  10.193  23.551   1.076
47421W        W19846   1.909  15.201  13.450
47422W        W19847  34.185  37.359  11.953
47423W        W19848   1.747  44.786  13.606
47424W        W19849   2.654  24.194  10.775
47425W        W19850  40.784  12.783   3.372
47426W        W19851   8.062  43.407   0.854
47427W        W19852  37.616  29.181   0.915
47428W        W19853  16.783   8.267  11.331
47429W        W19854   4.224  20.270   4.684
47430W        W19855  21.481  41.504  11.721
47431W        W19856   2.327  34.568  13.180
47432W        W19857  11.355  12.189   3.699
47433W        W19858  36.768  43.548  11.177
47434W        W19859  30.000  23.436  14.068
47435W        W19860   4.875  42.966   4.861
47436W        W19861   9.809  42.551  14.821
47437W        W19862  30.906  15.315   4.309
47438W        W19863   4.158  35.322   2.871
47439W        W19864  16.631   2.669   0.843
47440W        W19865   1.966  40.384   3.680
47441W        W19866  25.685   5.343   3.841
47442W        W19867  35.703  17.485  14.739
47443W        W19868  29.029  28.523  14.966
47444W        W19869  16.486  31.694  14.313
47445W        W19870  31.411  10.337  11.424
47446W        W19871  11.369   6.423   1.445
47447W        W19872  42.808   3.382   1.581
47448W        W19873  33.888  41.787  10.704
47449W        W19874   3.484  13.063  12.414
47450W        W19875  36.478  23.232   2.619
47451W        W19876  19.018   3.316   4.898
47452W        W19877  12.835  15.717  11.006
47453W        W19878  41.808  24.274  13.503
47454W        W19879  31.910  27.310   4.573
47455W        W19880   2.546  24.800  13.405
47456W        W19881   8.858  16.746  11.266
47457W        W19882   7.983   8.557  11.479
47458W        W19883  27.722  16.014   4.633
47459W        W19884  36.400  35.621  13.185
47460W        W19885   6.281  41.763  14.783
47461W        W19886  42.936  34.096  11.652
47462W        W19887   5.022   6.878  11.198
47463W        W19888   3.737  40.772  13.458
47464W        W19889  42.881  17.188   0.455
47465W        W19890  23.050  11.535   5.022
47466W        W19891  14.286   1.940   5.053
47467W        W19892   0.940   0.916  12.430
47468W        W19893  36.829  15.730  11.003
47469W        W19894   8.487  16.232  13.585
47470W        W19895   2.872  13.399  12.946
47471W        W19896  26.511  32.027   3.265
47472W        W19897  31.437  35.658   0.222
47473W        W19898  39.271  43.934  13.967
47474W        W19899   4.624  36.577  11.949
47475W        W19900  40.484  34.473  10.688
47476W        W19901  24.002  26.682   1.905
47477W        W19902  27.101  22.940  10.124
47478W        W19903  33.587  20.503   4.456
47479W        W19904  14.823  35.685  11.501
47480W        W19905   1.794   0.333   0.339
47481W        W19906   3.153  38.111   0.837
47482W        W19907   8.577  37.899  13.673
47483W        W19908  36.691   8.130  14.395
47484W        W19909  44.444  19.635  11.212
47485W        W19910  31.711  28.535  13.964
47486W        W19911  42.035  40.706   3.939
47487W        W19912  36.987   9.778   5.706
47488W        W19913  18.875  23.841   4.809
47489W        W19914  42.807   5.219  12.722
47490W        W19915   4.862  11.019  10.668
47491W        W19916   5.727  24.939   1.714
47492W        W19917  24.065  38.847  10.236
47493W        W19918  16.222  39.467  14.095
47494W        W19919   9.765  31.711  14.458
47495W        W19920   2.228  28.633  14.019
47496W        W19921  35.355   6.180  10.422
47497W        W19922  18.843  11.718   2.283
47498W        W19923   0.060   7.289  14.063
47499W        W19924  24.905  37.818   1.525
47500W        W19925  27.303  25.512  12.618
47501W        W19926  24.084  21.466   1.337
47502W        W19927   8.727  15.054   0.993
47503W        W19928   6.762  17.836  11.609
47504W        W19929  29.691  22.488  11.580
47505W        W19930   2.843  42.088  14.717
47506W        W19931  29.163   3.230   3.898
47507W        W19932   1.713  42.235   3.755
47508W        W19933  13.289  23.065  11.432
47509W        W19934  28.312  25.397   3.241
47510W        W19935   0.808  36.028   4.104
47511W        W19936  23.183  40.007  10.794
47512W        W19937  13.358  23.418  13.107
47513W        W19938   6.871   7.242  10.684
47514W        W19939  40.111  21.759   0.415
47515W        W19940  15.587   3.293  10.693
47516W        W19941   2.412  13.355   1.061
47517W        W19942  21.492  32.415   4.125
47518W        W19943  17.266  20.423   3.232
47519W        W19944  30.414   7.765  11.667
47520W        W19945  10.171  25.033   4.948
47521W        W19946  32.546  31.466  11.781
47522W        W19947   3.729  19.743  13.580
47523W        W19948   6.703  35.921  11.575
47524W        W19949  11.295  10.213  14.288
47525W        W19950  15.400  39.373   2.735
47526W        W19951  42.097  42.820  14.410
47527W        W19952  28.497  16.519   0.226
47528W        W19953  28.686  40.420  14.466
47529W        W19954  38.538  44.536  12.228
47530W        W19955  13.878   8.411   3.267
47531W        W19956  21.671  18.970   1.325
47532W        W19957  32.988  15.970   1.738
47533W        W19958   4.741  24.241   2.307
47534W        W19959  40.560   1.937   3.629
47535W        W19960   1.760  29.597  11.607
47536W        W19961  23.503  28.127   4.371
47537W        W19962   0.405  22.659  13.362
47538W        W19963  38.721  32.959  10.573
47539W        W19964  17.276  32.091  10.256
47540W        W19965  17.773  33.078   3.895
47541W        W19966  23.544  37.022  11.689
47542W        W19967  15.516   4.790  14.463
47543W        W19968  39.002  23.700  10.697
47544W        W19969   3.790   3.441  12.883
47545W        W19970  40.416  39.361   2.694
47546W        W19971   0.748  44.237   2.134
47547W        W19972  13.090  13.336  14.950
47548W        W19973  35.610  28.614  11.856
47549W        W19974  39.784  10.337  12.960
47550W        W19975  26.007  16.027   0.425
47551W        W19976   8.359  17.095   4.296
47552W        W19977  19.024   4.521   1.693
47553W        W19978  40.500   9.352   3.271
47554W        W19979  28.935  40.733  12.081
47555W        W19980  18.064  38.893  12.457
47556W        W19981   8.342  33.044   0.086
47557W        W19982  19.556  15.222   0.026
47558W        W19983   6.406  20.595   0.357
47559W        W19984  22.347  19.193  13.866
47560W        W19985   4.873  39.998   3.613
47561W        W19986   8.411  34.405  10.988
47562W        W19987  30.089  41.848  11.843
47563W        W19988   4.283  35.003  11.183
47564W        W19989  33.958  15.385   3.448
47565W        W19990  14.904  21.830   1.288
47566W        W19991   7.260  28.446  13.035
47567W        W19992   2.163  32.446  14.240
47568W        W19993  25.031  26.072  13.026
47569W        W19994   3.003  37.370  14.459
47570W        W19995  26.988  38.679   2.540
47571W        W19996  15.817  35.839  11.507
47572W        W19997   6.406  28.481   4.767
47573W        W19998  23.768  39.703   4.162
47574W        W19999   4.819   2.024   2.941
47575W        W20000  15.789   0.669  11.698
47576W        W20001  42.478   1.168   1.375
47577W        W20002  26.015  16.603  12.479
47578W        W20003  11.300  21.956   2.330
47579W        W20004  14.632   2.813   4.739
47580W        W20005  17.536   0.675  12.238
47581W        W20006  10.766   9.267  14.622
47582W        W20007   7.303   3.396   1.495
47583W        W20008  36.573  11.879  10.279
47584W        W20009   6.142  18.159   1.704
47585W        W20010  28.878  29.948  12.971
47586W        W20011  23.485  25.999  11.433
47587W        W20012  34.826  23.733  12.173
47588W        W20013  29.654  21.035  11.610
47589W        W20014  43.252  10.646  13.873
47590W        W20015  20.645  32.386   2.300
47591W        W20016  18.944   2.858  11.443
47592W        W20017  30.412   6.376  13.348
47593W        W20018  11.326  43.861  14.272
47594W        W20019  21.256  20.091  12.581
47595W        W20020  25.528  36.655   1.431
47596W        W20021   5.895  14.905   0.749
47597W        W20022  44.388  20.005   3.196
47598W        W20023  15.932  44.984  13.426
47599W        W20024  33.822  24.165  13.474
47600W        W20025  15.704  37.412  10.787
47601W        W20026  28.559  39.442   1.278
47602W        W20027  23.895  23.957  11.232
47603W        W20028  20.372  12.717  14.835
47604W        W20029   6.594   8.295  13.904
47605W        W20030  40.318  27.103  12.361
47606W        W20031   4.475  37.050  12.094
47607W        W20032  33.969  27.526  12.042
47608W        W20033  27.570  27.113  11.139
47609W        W20034   9.279  26.964  10.904
47610W        W20035  14.882  42.797  10.752
47611W        W20036   9.799   3.549   2.419
47612W        W20037  18.709  14.204  11.476
47613W        W20038  17.316  41.043   4.458
47614W        W20039   0.763   3.758  14.901
47615W        W20040  39.400  25.059   1.382
47616W        W20041  18.383  37.320  12.012
47617W        W20042  37.567  12.265  13.013
47618W        W20043  10.105   5.865  12.101
47619W        W20044  37.665  11.808   2.739
47620W        W20045   8.841  11.257  14.045
47621W        W20046  30.093  22.079  14.467
47622W        W20047  25.803  38.341   1.240
47623W        W20048  13.128  33.097  14.077
47624W        W20049  40.517  18.355   4.277
47625W        W20050  20.787  36.941  12.904
47626W        W20051  42.025   8.907   3.631
47627W        W20052  43.691  26.671  12.386
47628W        W20053  17.756   2.561   3.412
47629W        W20054  28.683  23.162   4.726
47630W        W20055  42.826  22.474   1.219
47631W        W20056  13.804  42.284   3.461
47632W        W20057  11.891  10.302   1.895
47633W        W20058  35.872  31.384   3.123
47634W        W20059   4.273  11.214  14.579
47635W        W20060  15.456  10.262   0.867
47636W        W20061  14.560  27.504   1.580
47637W        W20062  27.954  13.673   5.181
47638W        W20063   2.167  23.043   0.916
47639W        W20064  22.150  20.399   2.764
47640W        W20065  19.661   0.298   4.244
47641W        W20066  10.769  36.154   2.651
47642W        W20067  36.564  21.626  11.106
47643W        W20068  10.910   2.320  13.086
47644W        W20069  17.163  34.903  10.566
47645W        W20070  34.421   2.726   2.728
47646W        W20071  18.701  20.817   4.594
47647W        W20072  32.544   3.261   3.191
47648W        W20073  10.242  27.917  10.581
47649W        W20074  25.216  27.680   3.112
47650W        W20075  14.695  24.081   9.722
47651W        W20076  36.741  38.831   0.516
47652W        W20077  32.520  34.504  14.808
47653W        W20078   1.981   2.390   3.638
47654W        W20079  10.036   4.785   4.634
47655W        W20080  20.531  33.148  13.838
47656W        W20081   6.307   2.790   3.960
47657W        W20082   4.207   8.572  14.834
47658W        W20083  12.136  29.270  11.142
47659W        W20084  33.143  41.928  11.265
47660W        W20085  41.359  40.242   4.562
47661W        W20086   3.502   6.948   1.921
47662W        W20087  12.141  34.703   3.319
47663W        W20088   7.448   7.354   0.839
47664W        W20089  16.762  20.990  11.590
47665W        W20090  40.093  36.076  13.006
47666W        W20091  37.486  18.585  10.442
47667W        W20092  13.599  18.557   3.761
47668W        W20093  24.377  41.981   1.765
47669W        W20094  35.898  25.095   1.842
47670W        W20095   7.335   4.749   1.964
47671W        W20096  32.123  37.070  10.453
47672W        W20097  32.292  13.122  10.736
47673W        W20098  11.194  42.686  11.686
47674W        W20099  43.229  13.232  11.992
47675W        W20100   2.220  30.903   3.853
47676W        W20101  35.018  25.408   2.340
47677W        W20102  28.308  10.382  13.570
47678W        W20103  28.868  28.465   0.782
47679W        W20104  12.813   5.816  13.609
47680W        W20105  26.961  33.576  13.309
47681W        W20106   3.410  20.087   3.408
47682W        W20107   1.338   4.852   4.377
47683W        W20108  32.980  20.329  12.004
47684W        W20109  15.610   8.625  14.386
47685W        W20110   7.745  16.650  14.735
47686W        W20111   4.727  12.549   2.682
47687W        W20112  41.021  33.398   3.260
47688W        W20113  25.031  18.811   2.850
47689W        W20114   1.957   6.344  13.217
47690W        W20115  32.433  38.573   4.637
47691W        W20116  38.818  13.240   1.923
47692W        W20117  35.396   8.299  11.630
47693W        W20118   4.017  38.678  14.476
47694W        W20119   1.394   5.306   4.115
47695W        W20120   2.165  29.380  12.527
47696W        W20121  26.450  10.118   3.474
47697W        W20122   8.200  19.823   1.834
47698W        W20123   7.111  10.525  13.649
47699W        W20124  14.627  30.635  12.981
47700W        W20125  23.177  26.515   3.458
47701W        W20126   3.497  32.323  13.023
47702W        W20127  13.583  28.902  12.029
47703W        W20128  35.864  17.044  14.486
47704W        W20129  38.470  30.886   1.466
47705W        W20130  41.580  36.359  11.550
47706W        W20131  44.882  27.597   1.359
47707W        W20132   2.818  39.078   3.119
47708W        W20133   5.341  44.430  12.999
47709W        W20134  42.344   3.965  12.541
47710W        W20135  19.976  35.940   1.315
47711W        W20136   4.374  19.493   0.492
47712W        W20137   2.215   7.118   1.454
47713W        W20138  37.309  25.266  13.079
47714W        W20139  19.090  34.354  12.645
47715W        W20140  41.340  36.927   4.559
47716W        W20141  25.621   4.400  11.905
47717W        W20142  29.935  21.048  12.546
47718W        W20143  40.760  14.162   0.891
47719W        W20144  23.696  10.442   0.458
47720W        W20145   4.627  41.983  11.183
47721W        W20146  41.911   3.435  14.714
47722W        W20147  28.204  30.091  11.087
47723W        W20148  17.378  30.352  12.529
47724W        W20149  24.625  29.433   2.791
47725W        W20150  38.625   8.913  11.596
47726W        W20151   1.359  15.321   4.510
47727W        W20152  11.331   2.010   1.754
47728W        W20153  22.605  42.526   3.891
47729W        W20154  24.085  27.961  14.960
47730W        W20155  23.593  11.199  13.292
47731W        W20156  11.673  26.174   2.421
47732W        W20157  19.728  33.420  13.917
47733W        W20158  42.415  12.238  10.647
47734W        W20159  32.433  17.754   4.701
47735W        W20160  14.805  36.353   4.704
47736W        W20161  26.195   6.706  13.879
47737W        W20162  34.604  21.069  10.082
47738W        W20163   1.620  31.446   1.098
47739W        W20164  29.456  42.958  10.744
47740W        W20165   6.344  26.387  10.999
47741W        W20166  12.176  26.709   3.022
47742W        W20167   5.539  30.102   2.159
47743W        W20168  28.671  41.728  10.374
47744W        W20169  30.389  42.273  11.861
47745W        W20170  22.319   5.370  13.828
47746W        W20171   7.329  30.360  13.687
47747W        W20172  18.028  41.509  13.881
47748W        W20173  20.366  38.359   4.837
47749W        W20174  16.087  42.579   1.853
47750W        W20175   0.789  34.776   2.308
47751W        W20176  39.106  28.615  12.433
47752W        W20177   6.784  34.384  13.526
47753W        W20178  40.749   9.249   4.077
47754W        W20179   3.090   2.723   1.285
47755W        W20180  24.723   6.143  12.545
47756W        W20181  15.656  12.182   0.537
47757W        W20182   7.674   5.248   0.817
47758W        W20183  18.771   0.971  13.310
47759W        W20184  35.387   9.288  14.895
47760W        W20185  11.411  20.462  11.538
47761W        W20186  24.547  26.042  10.937
47762W        W20187  39.130   2.943   1.619
47763W        W20188   7.540  13.346  12.474
47764W        W20189  37.397  11.344   2.015
47765W        W20190  37.904   9.199  14.747
47766W        W20191  12.147  30.943   3.302
47767W        W20192  28.941   5.771   2.295
47768W        W20193   8.303   0.968   1.489
47769W        W20194   5.160  41.597  11.606
47770W        W20195  38.052  14.595   1.207
47771W        W20196  40.548  20.680  14.784
47772W        W20197  35.370   0.693   4.516
47773W        W20198  44.709   7.453   4.758
47774W        W20199   4.127  32.887   3.739
47775W        W20200  40.366   9.642   0.481
47776W        W20201  11.719  32.806   4.279
47777W        W20202  30.549  37.371   1.662
47778W        W20203   5.704  41.410   1.847
47779W        W20204   3.118   3.688  14.892
47780W        W20205  17.606  31.975   5.052
47781W        W20206  29.554  10.968   0.969
47782W        W20207  19.073  35.653   1.294
47783W        W20208   0.096  33.484   5.098
47784W        W20209   8.875   4.477   4.155
47785W        W20210  39.058  13.531   0.279
47786W        W20211  15.879  34.655  12.952
47787W        W20212   5.784   5.842   3.989
47788W        W20213  44.836   1.483   2.705
47789W        W20214  24.457  42.051  12.331
47790W        W20215  14.813  41.868  10.530
47791W        W20216  10.705  24.131   2.762
47792W        W20217  20.100  20.759   3.172
47793W        W20218  44.781  32.608  13.329
47794W        W20219  33.884   4.783  12.914
47795W        W20220  34.350  40.326  13.800
47796W        W20221  31.483  27.972  11.948
47797W        W20222   0.905  35.996  13.849
47798W        W20223  28.592  15.958  10.664
47799W        W20224  20.609  23.124  10.674
47800W        W20225  20.062  28.307   3.938
47801W        W20226  21.705  25.900  12.977
47802W        W20227   8.251  15.319  13.371
47803W        W20228  37.391  40.104   3.775
47804W        W20229   5.533  34.651   0.056
47805W        W20230  44.561  21.067   2.108
47806W        W20231   2.291  24.684   4.078
47807W        W20232   5.437  20.137   1.207
47808W        W20233  36.917   5.052  13.806
47809W        W20234  16.736  31.222   0.285
47810W        W20235   6.153  12.220   4.376
47811W        W20236  25.826  14.650  10.773
47812W        W20237   0.229  26.269  13.003
47813W        W20238  39.336  12.750  11.586
47814W        W20239  44.489  31.934  10.664
47815W        W20240  29.030   8.836  12.521
47816W        W20241   7.354   0.549  13.099
47817W        W20242  40.918  37.953   4.608
47818W        W20243   9.260   7.676   1.307
47819W        W20244  26.583  35.408   0.061
47820W        W20245  30.594  13.528  11.054
47821W        W20246  20.571  25.541   0.256
47822W        W20247  29.702   5.859   0.479
47823W        W20248  44.126  20.245  14.831
47824W        W20249  27.495   9.329   3.192
47825W        W20250  39.977  16.578   2.950
47826W        W20251  33.568  43.286   1.410
47827W        W20252   4.711  19.545  13.344
47828W        W20253  30.804  12.160   0.322
47829W        W20254  29.423  38.886   2.645
47830W        W20255  42.833  23.287  10.044
47831W        W20256   0.147  12.586  14.879
47832W        W20257   0.271  14.798  10.519
47833W        W20258  20.188  24.035  13.447
47834W        W20259   3.247  15.625   9.924
47835W        W20260  41.443  37.268  14.484
47836W        W20261  21.289  35.524   4.614
47837W        W20262   2.251  29.047   3.640
47838W        W20263  39.433  28.601  10.740
47839W        W20264  34.436   1.980  12.472
47840W        W20265   7.302  11.903  11.771
47841W        W20266  36.299  26.371   3.395
47842W        W20267  31.470   4.196   2.573
47843W        W20268  41.547  29.577   1.863
47844W        W20269   2.688  32.697  13.293
47845W        W20270  29.464  22.031  12.836
47846W        W20271  27.690  32.398  12.997
47847W        W20272  22.554  35.408  13.271
47848W        W20273  39.852   1.163   3.894
47849W        W20274   6.670  17.250   2.900
47850W        W20275  30.030  27.955   3.892
47851W        W20276  11.245  34.086  13.926
47852W        W20277  38.027  38.794  12.328
47853W        W20278  30.609  32.412   3.411
47854W        W20279  29.613  31.482  14.737
47855W        W20280  43.862  44.350   2.678
47856W        W20281  22.586   6.262  11.922
47857W        W20282  36.080   7.512   4.692
47858W        W20283  29.252  33.185  11.187
47859W        W20284  44.064   3.375  11.116
47860W        W20285  19.098  33.469  11.691
47861W        W20286  14.593  10.791  13.546
47862W        W20287  29.968  13.496   0.951
47863W        W20288  10.400  18.105   1.692
47864W        W20289  22.469  21.269   2.812
47865W        W20290  29.138  39.508  11.228
47866W        W20291   5.499  15.366   1.677
47867W        W20292  12.587  24.680   0.480
47868W        W20293  19.830   9.368  11.948
47869W        W20294   7.069  26.155  12.076
47870W        W20295   6.362  20.100   2.035
47871W        W20296  36.491  38.317   4.125
47872W        W20297  29.985   1.200   1.730
47873W        W20298  31.552  19.090   1.523
47874W        W20299   4.094  17.596  12.979
47875W        W20300   2.321  36.088  14.948
47876W        W20301   5.895  16.361   1.868
47877W        W20302  22.123   6.330   2.912
47878W        W20303  14.324  24.739   2.772
47879W        W20304  33.140   1.719   2.553
47880W        W20305  41.660  22.122  13.204
47881W        W20306  35.492   2.085   1.379
47882W        W20307   1.315   7.284   3.742
47883W        W20308  12.147  21.395   2.287
47884W        W20309  43.772  20.632   1.395
47885W        W20310  41.857  35.186  12.424
47886W        W20311  36.493  41.389  10.565
47887W        W20312  20.058   5.374   4.885
47888W        W20313  28.701  31.427   4.260
47889W        W20314  38.467  40.283  10.962
47890W        W20315   0.439  10.352  12.881
47891W        W20316   5.729  38.335  11.469
47892W        W20317  39.181  19.063   1.039
47893W        W20318  18.090  36.418   2.921
47894W        W20319   9.402   2.447  12.693
47895W        W20320  15.401  35.082   1.726
47896W        W20321  44.626  32.609   4.149
47897W        W20322  21.784  32.105  13.665
47898W        W20323  33.606  30.253   0.466
47899W        W20324  28.826  10.421   3.703
47900W        W20325  10.417  13.473   1.598
47901W        W20326  18.268  12.308  11.377
47902W        W20327   8.812  23.242   1.315
47903W        W20328   8.411  20.659   0.001
47904W        W20329  33.841  17.492   2.746
47905W        W20330  44.538  29.501   3.236
47906W        W20331  16.718  26.486  12.105
47907W        W20332   7.421  19.663   2.223
47908W        W20333   0.930  44.290   4.591
47909W        W20334  28.758  33.319   2.695
47910W        W20335  29.571  19.629   3.658
47911W        W20336  28.237  41.305  13.007
47912W        W20337  39.902  26.009   4.591
47913W        W20338  32.815   1.771  13.352
47914W        W20339  11.461   2.192   1.276
47915W        W20340  22.147  30.543  12.396
47916W        W20341  28.560  23.342   2.799
47917W        W20342   8.855  15.811   1.762
47918W        W20343  39.602   0.078  13.470
47919W        W20344  31.125  42.720   3.781
47920W        W20345  43.041  19.431   2.320
47921W        W20346  23.247   3.848   2.655
47922W        W20347  26.467  34.070  10.799
47923W        W20348  27.971  24.165  12.387
47924W        W20349  30.635  19.898   2.218
47925W        W20350  43.347   4.186  10.477
47926W        W20351   3.363  40.363   2.010
47927W        W20352  23.001  39.916   1.473
47928W        W20353  10.106  22.982   2.766
47929W        W20354  12.094  26.193  14.933
47930W        W20355  26.411  18.535   3.163
47931W        W20356  14.581  19.201  14.835
47932W        W20357  44.277  26.049  14.966
47933W        W20358   5.932  20.709  10.881
47934W        W20359   5.686  16.832  11.357
47935W        W20360  10.399  36.000  12.060
47936W        W20361   4.403  30.064   0.750
47937W        W20362  42.960  42.230  14.315
47938W        W20363   8.148   9.380  12.985
47939W        W20364  15.829   9.114   1.342
47940W        W20365   4.859  26.426  13.146
47941W        W20366  25.523  34.531   0.379
47942W        W20367   3.451   3.387  13.380
47943W        W20368  13.625   0.502  11.155
47944W        W20369  15.179  14.091   3.632
47945W        W20370  27.168   2.491   0.732
47946W        W20371  41.139  31.092  11.613
47947W        W20372   7.223  39.317  13.004
47948W        W20373  12.129  20.691  11.972
47949W        W20374  25.493  41.145  12.052
47950W        W20375  20.656  42.282  13.684
47951W        W20376  41.966  10.849   3.146
47952W        W20377  44.593  10.360   2.739
47953W        W20378  35.367  14.157   0.897
47954W        W20379  28.865   8.993   4.046
47955W        W20380  24.600  16.216  11.578
47956W        W20381   6.282  11.765   0.835
47957W        W20382  35.091  11.483  13.421
47958W        W20383   3.262  30.045   0.410
47959W        W20384  29.651  37.078  10.454
47960W        W20385  13.793  36.007  11.572
47961W        W20386  26.596  37.444   3.286
47962W        W20387  14.277   3.373   3.258
47963W        W20388   1.906   9.808   1.685
47964W        W20389  22.642  11.927   0.394
47965W        W20390  37.978   8.198  12.516
47966W        W20391   3.210  29.094  11.508
47967W        W20392   4.997  42.743  14.336
47968W        W20393  38.013  17.289  12.023
47969W        W20394  20.977  28.722  12.395
47970W        W20395  30.728   8.793   2.667
47971W        W20396  29.967  21.516   1.298
47972W        W20397  32.036  21.143  12.426
47973W        W20398   5.628  32.996   3.975
47974W        W20399  25.754   9.723   2.184
47975W        W20400  40.438   8.328  12.559
47976W        W20401  11.818  44.220  13.010
47977W        W20402  16.835   0.013  12.135
47978W        W20403  37.470  25.674  10.581
47979W        W20404  35.072  43.534   4.220
47980W        W20405  10.725  36.482   2.206
47981W        W20406   6.760  39.982  13.494
47982W        W20407  22.736  16.343  14.427
47983W        W20408  14.097  36.469   3.363
47984W        W20409  18.500   4.587  14.754
47985W        W20410  36.044  38.352  10.998
47986W        W20411  39.341  38.826   2.143
47987W        W20412  13.274  32.126  14.569
47988W        W20413  14.478  18.235  14.946
47989W        W20414  14.749  27.770  11.168
47990W        W20415  15.175  19.694   0.250
47991W        W20416  11.397  25.011  12.966
47992W        W20417  28.554  15.722   3.146
47993W        W20418   5.333  31.067  13.246
47994W        W20419  41.135  40.703   2.376
47995W        W20420   6.263  33.537   2.675
47996W        W20421  18.582  32.418  14.354
47997W        W20422  31.157  19.796  14.530
47998W        W20423  26.016  42.379   3.548
47999W        W20424  37.203  23.631   2.933
48000W        W20425  11.491   1.208  14.321
48001W        W20426  26.708   6.894   3.556
48002W        W20427   2.140  24.794  11.177
48003W        W20428  12.020  32.438   3.410
48004W        W20429  38.947  43.891  12.689
48005W        W20430  14.229   2.066  12.092
48006W        W20431  29.931  14.753   3.287
48007W        W20432  42.509  42.907   0.388
48008W        W20433  20.850  34.261  13.765
48009W        W20434  29.649   3.318  13.601
48010W        W20435  17.844  31.030   4.766
48011W        W20436  34.900  34.105   2.347
48012W        W20437  26.004  22.977  13.274
48013W        W20438  25.543  33.819   2.174
48014W        W20439  12.207  11.641  13.967
48015W        W20440  27.188  12.060   1.892
48016W        W20441  22.558  41.353  10.296
48017W        W20442  18.777  19.100   2.388
48018W        W20443   6.087  22.454   2.820
48019W        W20444  21.206   0.812  11.000
48020W        W20445   1.839  35.384   4.500
48021W        W20446  20.770  19.194   4.494
48022W        W20447   1.261  32.197   5.447
48023W        W20448  29.233  19.666   0.863
48024W        W20449  22.115  20.716   3.784
48025W        W20450   6.112  29.257   5.120
48026W        W20451  35.879   8.766   3.133
48027W        W20452  39.281  43.955   0.828
48028W        W20453  18.179   5.255   0.869
48029W        W20454  17.558  24.194  10.362
48030W        W20455  33.643  40.874   2.888
48031W        W20456   8.302  23.630  12.388
48032W        W20457   5.623  18.216   1.647
48033W        W20458  31.374  18.248  11.687
48034W        W20459  44.181   0.691  12.920
48035W        W20460  35.956   9.816  11.578
48036W        W20461   7.692  15.713   1.660
48037W        W20462  42.025   1.958   4.154
48038W        W20463  36.052   5.883   3.259
48039W        W20464  43.741  26.522  13.486
48040W        W20465  15.391  16.607   4.726
48041W        W20466  12.574   2.428  10.151
48042W        W20467  20.212  24.607   4.401
48043W        W20468   1.557   4.831   3.892
48044W        W20469  29.975  35.986   1.750
48045W        W20470  17.736  41.090  12.097
48046W        W20471   0.779  43.464   2.617
48047W        W20472  16.566  15.256  10.704
48048W        W20473  10.192  16.705  10.855
48049W        W20474  35.611  25.305  13.449
48050W        W20475  15.863  41.003  13.388
48051W        W20476  29.949  44.305   4.264
48052W        W20477  36.603  19.679  10.573
48053W        W20478  33.991  27.693  14.732
48054W        W20479  24.661  36.828   3.697
48055W        W20480  28.916  20.217   2.176
48056W        W20481  19.979  35.321  11.034
48057W        W20482  18.075  14.481   3.964
48058W        W20483   9.708   0.683  11.208
48059W        W20484  16.551  24.589   0.419
48060W        W20485  23.141  32.620  14.506
48061W        W20486  42.816  25.851   4.588
48062W        W20487  11.860  41.736  11.935
48063W        W20488  18.063  40.197   4.082
48064W        W20489  37.361  19.030   1.243
48065W        W20490   4.373  20.062  12.916
48066W        W20491  14.024   9.775  13.755
48067W        W20492   3.442   0.943   1.164
48068W        W20493  39.753   0.225  12.979
48069W        W20494  21.429  39.682   3.173
48070W        W20495  27.637  33.998   0.827
48071W        W20496   3.677  34.928   0.788
48072W        W20497   1.287  10.925   4.108
48073W        W20498  38.981  30.697   0.714
48074W        W20499  19.175   9.502   3.270
48075W        W20500   1.293  30.529   0.997
48076W        W20501   5.375   7.622  10.635
48077W        W20502  11.764  35.984  13.912
48078W        W20503   9.809  28.096   1.277
48079W        W20504  22.032  34.337   4.182
48080W        W20505   4.483   6.651  13.543
48081W        W20506  44.437  20.561   4.176
48082W        W20507  21.930  40.414   3.215
48083W        W20508  27.045  40.189   3.385
48084W        W20509  18.550  12.614   2.256
48085W        W20510  37.708  10.711  12.490
48086W        W20511  19.212  17.333  14.300
48087W        W20512   1.529   7.525   2.196
48088W        W20513   1.344  40.134  14.178
48089W        W20514   1.914  37.300   2.912
48090W        W20515  35.022  42.975   4.189
48091W        W20516  33.089  40.076  11.194
48092W        W20517   6.351  40.634  14.471
48093W        W20518  19.585  28.138   4.063
48094W        W20519  38.387   2.441  10.402
48095W        W20520  16.778  25.068   0.340
48096W        W20521  43.751  12.271  12.002
48097W        W20522  26.145  24.114   3.167
48098W        W20523  34.526  32.847  12.635
48099W        W20524  12.761  13.339  14.378
48100W        W20525  33.349  40.233   1.727
48101W        W20526   9.434  38.358   4.618
48102W        W20527  25.608  34.860   3.142
48103W        W20528  40.930  29.070  12.106
48104W        W20529  16.005  31.546  14.224
48105W        W20530   7.610   7.855  13.509
48106W        W20531  33.998   3.703   3.148
48107W        W20532   7.070  29.451  11.987
48108W        W20533   2.012  40.130   0.373
48109W        W20534  31.469   0.243   3.091
48110W        W20535  19.028  19.659   1.409
48111W        W20536   1.018  44.226   0.786
48112W        W20537  31.465   3.418   1.448
48113W        W20538  34.022  21.598   0.894
48114W        W20539  33.496  29.134  13.063
48115W        W20540   1.517   1.267  14.947
48116W        W20541  14.328   8.281  10.585
48117W        W20542  21.292  33.369   0.261
48118W        W20543  29.374   2.115   9.783
48119W        W20544  22.002  23.927  14.352
48120W        W20545  18.495  25.628  14.512
48121W        W20546  27.654  13.732   1.980
48122W        W20547  23.426  19.726   1.201
48123W        W20548  33.818  31.414   3.756
48124W        W20549   9.349  14.251   4.527
48125W        W20550  44.993  44.341   4.559
48126W        W20551   0.708   4.955  11.601
48127W        W20552  25.268  14.184   1.311
48128W        W20553   0.082  32.014  14.410
48129W        W20554  29.188  30.888  13.185
48130W        W20555  26.085  38.323  13.969
48131W        W20556  11.284  34.753  11.443
48132W        W20557   4.809   8.804   1.838
48133W        W20558  29.626  40.274   2.297
48134W        W20559  17.267  14.626   3.811
48135W        W20560  35.766  14.651  11.113
48136W        W20561  37.023  21.210   1.967
48137W        W20562  39.574  24.266  12.406
48138W        W20563   7.978   4.689   2.208
48139W        W20564  18.853   2.434   4.239
48140W        W20565   9.834  18.045   0.773
48141W        W20566  25.937  38.379  11.165
48142W        W20567  24.251  21.878   3.682
48143W        W20568  36.069  29.077  14.615
48144W        W20569  25.532  34.821  11.717
48145W        W20570  20.721  35.600  13.824
48146W        W20571   7.517  34.618   2.672
48147W        W20572  38.099  40.000  11.159
48148W        W20573  26.527  17.934  13.407
48149W        W20574   0.900  27.658   2.711
48150W        W20575  13.769  25.075   4.945
48151W        W20576   6.287  36.516  13.438
48152W        W20577   6.723  27.422   3.452
48153W        W20578  10.905  14.616   1.276
48154W        W20579  14.878  16.553  14.413
48155W        W20580  32.472   5.927  11.671
48156W        W20581  13.167  34.371  11.911
48157W        W20582  21.272  31.321  13.966
48158W        W20583  35.954  43.536   4.116
48159W        W20584  17.668  16.877   4.715
48160W        W20585  43.633  36.354  12.986
48161W        W20586  37.702  36.365  12.865
48162W        W20587  35.447  26.152   2.781
48163W        W20588  32.105   1.412   0.354
48164W        W20589  39.941   7.526   4.507
48165W        W20590  16.077  15.998  13.025
48166W        W20591   2.225  15.072   4.605
48167W        W20592  18.804  30.101  14.375
48168W        W20593  39.395   7.302   2.257
48169W        W20594  33.782  22.311  12.085
48170W        W20595   3.385   6.080  13.614
48171W        W20596  39.425   1.117  13.962
48172W        W20597  32.942  39.027  13.018
48173W        W20598   2.914  39.444  13.785
48174W        W20599  36.018  41.544  10.815
48175W        W20600  27.749  22.281  12.056
48176W        W20601  11.275   2.472  11.881
48177W        W20602  21.558   1.760  10.672
48178W        W20603  33.997  26.636  12.526
48179W        W20604  26.937   6.448  11.704
48180W        W20605  32.935  30.744  12.421
48181W        W20606  11.455  10.184   0.975
48182W        W20607  10.630  19.654   3.643
48183W        W20608  36.842  19.098  12.868
48184W        W20609  24.565   0.444  12.038
48185W        W20610  28.969  40.556   4.689
48186W        W20611   4.620  28.416  14.286
48187W        W20612  22.227   5.212  14.783
48188W        W20613  40.632   1.807  12.891
48189W        W20614  10.239   0.915   4.599
48190W        W20615  36.077  28.163   3.737
48191W        W20616  12.632  35.154  13.486
48192W        W20617  21.973  27.207   3.706
48193W        W20618   6.111  14.112   1.395
48194W        W20619   2.733  24.167   4.370
48195W        W20620   3.164  38.067  12.292
48196W        W20621  30.438  42.743  14.598
48197W        W20622  23.713  31.829   3.686
48198W        W20623   9.890  38.496  12.228
48199W        W20624   0.997   2.202   4.681
48200W        W20625  24.643  16.250  12.472
48201W        W20626  37.137  16.026   1.864
48202W        W20627  33.079  13.734  13.916
48203W        W20628   3.978  31.543  11.132
48204W        W20629  40.319  21.889   4.887
48205W        W20630  22.016   7.217  12.857
48206W        W20631  18.533  39.982  12.132
48207W        W20632  38.483  40.275   3.782
48208W        W20633   7.232  21.544   3.804
48209W        W20634  12.670   4.717   4.684
48210W        W20635  18.668   9.677  14.378
48211W        W20636  20.192  39.242   2.726
48212W        W20637  10.371  32.477   1.994
48213W        W20638  35.108  15.370  13.284
48214W        W20639  25.938  42.270  14.980
48215W        W20640  36.323  36.475  13.013
48216W        W20641   3.698  27.208   3.749
48217W        W20642   1.966   8.705   2.828
48218W        W20643   0.092  16.612  14.431
48219W        W20644  37.611  13.146  11.565
48220W        W20645  11.349  24.695   2.244
48221W        W20646  19.110  22.062  14.370
48222W        W20647  26.224  17.252  14.492
48223W        W20648  13.868  11.873   0.861
48224W        W20649  16.324  37.292   2.139
48225W        W20650   8.357  20.018   3.723
48226W        W20651   2.481  22.255  12.540
48227W        W20652  16.779  32.234  13.944
48228W        W20653  44.368  18.488   2.307
48229W        W20654  29.380   5.429   1.392
48230W        W20655  21.035  43.426  12.892
48231W        W20656  19.933  33.352   2.182
48232W        W20657  25.747  19.626  10.271
48233W        W20658  26.074   7.623   1.628
48234W        W20659  33.019  28.261   0.973
48235W        W20660  25.534   4.689  13.110
48236W        W20661  43.974   2.417   4.213
48237W        W20662  10.417  36.070   2.258
48238W        W20663  13.101  36.428   3.203
48239W        W20664   0.547  35.223  11.003
48240W        W20665  30.600  43.618  14.611
48241W        W20666  26.066  27.053  12.301
48242W        W20667   9.433   1.984  13.913
48243W        W20668   0.550  10.927   1.781
48244W        W20669  40.271  23.460  13.348
48245W        W20670   7.936  14.171  13.430
48246W        W20671  37.763  40.983   1.964
48247W        W20672  22.746  36.669  10.290
48248W        W20673  17.085  21.546   2.810
48249W        W20674   2.041  33.888   4.273
48250W        W20675  11.393  36.803  14.436
48251W        W20676  23.487   3.265   4.377
48252W        W20677  38.894  23.360  11.687
48253W        W20678  22.645  22.591  13.424
48254W        W20679   1.520  18.851  11.192
48255W        W20680  10.315  13.917  13.550
48256W        W20681   1.921   3.717   3.381
48257W        W20682  28.259  10.071  11.547
48258W        W20683  39.822   6.360  12.479
48259W        W20684  36.947   3.006   0.802
48260W        W20685  34.442   9.442   2.567
48261W        W20686  15.285  11.346  12.523
48262W        W20687   3.956  13.850  11.139
48263W        W20688  19.128  16.481   3.158
48264W        W20689  34.624  11.687   2.975
48265W        W20690  10.068   4.145  14.756
48266W        W20691  34.464  19.575  13.977
48267W        W20692   3.262  43.246  11.023
48268W        W20693   2.453   0.941  12.586
48269W        W20694  11.832  21.994  14.217
48270W        W20695   5.719   7.004  12.001
48271W        W20696   9.492  38.543   1.658
48272W        W20697   0.945  23.717   0.248
48273W        W20698  31.708  43.596   3.151
48274W        W20699  39.226   7.208  13.973
48275W        W20700  28.006   2.287   0.437
48276W        W20701   5.903  42.508   3.265
48277W        W20702  23.199  33.464   3.135
48278W        W20703   8.953  37.716  12.406
48279W        W20704  32.367  22.337  13.157
48280W        W20705  25.225  40.001  12.489
48281W        W20706  20.782   5.263  12.784
48282W        W20707  43.539  36.592   4.687
48283W        W20708  14.284  42.587   4.587
48284W        W20709  39.091   1.484   3.889
48285W        W20710  43.085  18.609  12.953
48286W        W20711  44.983  31.376  11.251
48287W        W20712  10.951  20.177   3.735
48288W        W20713  18.796  38.336   2.191
48289W        W20714  32.343  36.607  12.479
48290W        W20715  35.555  14.720  12.946
48291W        W20716  44.964  27.956   1.007
48292W        W20717  43.288   6.212  13.946
48293W        W20718   1.563  37.387   0.005
48294W        W20719  10.453   4.734   2.400
48295W        W20720  16.026  34.868   2.254
48296W        W20721  33.135  13.458  11.571
48297W        W20722  23.353  40.781   0.414
48298W        W20723  32.127  18.989  11.164
48299W        W20724  25.543  42.933   2.473
48300W        W20725  35.079  34.822  14.420
48301W        W20726  24.547  11.092  12.947
48302W        W20727  26.901  30.582  14.389
48303W        W20728  32.055  16.828   1.177
48304W        W20729  30.621  34.813  12.129
48305W        W20730  38.032  22.074   3.682
48306W        W20731  16.330  38.990   2.473
48307W        W20732  42.374  39.495  10.596
48308W        W20733  13.726   4.660  13.315
48309W        W20734  44.940  41.372  14.924
48310W        W20735  39.270  18.778   4.686
48311W        W20736  27.031   2.346  14.885
48312W        W20737  15.410  34.095  14.330
48313W        W20738   4.655  10.146   3.575
48314W        W20739  39.144   8.847  11.537
48315W        W20740  13.199  43.890  12.956
48316W        W20741   2.193  37.585  10.799
48317W        W20742  22.933  44.144  14.467
48318W        W20743  24.273  18.191   0.332
48319W        W20744  22.504   2.982   4.352
48320W        W20745  41.433  44.302   3.682
48321W        W20746   7.208   5.954   4.622
48322W        W20747  40.721   5.139  14.692
48323W        W20748  23.726  27.945  13.439
48324W        W20749  23.641  44.339   4.584
48325W        W20750  11.794   7.240  10.750
48326W        W20751  25.087  35.325   4.039
48327W        W20752  33.278   9.750   3.558
48328W        W20753  19.250   1.423   4.443
48329W        W20754  35.265  37.012  13.166
48330W        W20755  11.721  21.837   0.792
48331W        W20756  23.671   2.662   2.131
48332W        W20757  29.722  37.953   4.021
48333W        W20758   4.916  13.295  13.341
48334W        W20759  44.302  36.406   5.144
48335W        W20760  13.202   0.401  11.477
48336W        W20761  22.614   8.460   3.871
48337W        W20762   8.703  43.882  10.400
48338W        W20763  37.498  17.384  12.828
48339W        W20764   8.220  22.600   0.703
48340W        W20765  42.278  10.581  13.911
48341W        W20766   3.798  38.700  13.431
48342W        W20767  21.579  12.164  10.470
48343W        W20768  17.508  38.847   2.260
48344W        W20769  24.762  14.522  11.986
48345W        W20770   4.723   8.353   2.312
48346W        W20771  20.630   5.004   2.693
48347W        W20772  11.967  17.413   1.487
48348W        W20773  19.024  31.934   1.950
48349W        W20774  14.878  30.872   0.411
48350W        W20775  27.104   8.239  14.012
48351W        W20776  17.993  38.453   0.201
48352W        W20777  30.475  33.457   0.745
48353W        W20778  27.017  31.949   2.378
48354W        W20779  22.611  18.650   3.343
48355W        W20780  21.153  31.460  12.155
48356W        W20781   4.985   5.371   0.685
48357W        W20782  39.329  39.490   0.414
48358W        W20783  35.871  14.160   3.661
48359W        W20784  41.131   0.851   3.699
48360W        W20785  31.662  41.299  11.487
48361W        W20786  15.189  24.792  13.971
48362W        W20787  17.589  23.672  11.379
48363W        W20788   8.824  32.290   4.480
48364W        W20789   6.894  27.157   0.927
48365W        W20790  38.134  33.620  14.803
48366W        W20791   9.808  40.095   0.857
48367W        W20792  20.731   6.829   0.058
48368W        W20793  38.820   1.909   2.296
48369W        W20794  43.977  22.552   1.466
48370W        W20795   9.899  20.138  10.867
48371W        W20796   9.157   8.894   3.385
48372W        W20797   1.431  22.980  12.680
48373W        W20798  43.401  20.014  11.075
48374W        W20799  22.491  38.013   4.737
48375W        W20800   4.444  17.425  13.894
48376W        W20801  41.798  25.282   1.991
48377W        W20802  10.111  21.191   0.019
48378W        W20803  42.453  29.950  14.572
48379W        W20804  10.192  23.074  11.534
48380W        W20805  16.532  33.004  13.135
48381W        W20806  13.192  39.855  10.285
48382W        W20807  20.684  31.718  12.187
48383W        W20808   0.681  30.299  10.761
48384W        W20809  28.931   2.330   0.391
48385W        W20810  17.182  21.451  13.966
48386W        W20811  14.134  25.839   4.518
48387W        W20812  23.398  44.518  10.676
48388W        W20813  40.214  35.471  10.455
48389W        W20814  39.312  27.642   2.258
48390W        W20815  40.835  26.478   2.958
48391W        W20816  26.477  38.313  14.754
48392W        W20817  13.172  16.279   2.231
48393W        W20818  13.425   1.346  11.515
48394W        W20819  44.507   2.083   1.693
48395W        W20820  17.104  42.329  10.600
48396W        W20821  32.961  38.836  14.401
48397W        W20822  30.647  14.058  10.928
48398W        W20823   6.306  31.217   0.771
48399W        W20824   9.594  32.133   4.218
48400W        W20825  29.733  26.117   2.778
48401W        W20826  43.903  41.061   2.691
48402W        W20827  18.308  44.017  12.023
48403W        W20828  42.248  28.565  13.594
48404W        W20829  24.907  32.237   5.116
48405W        W20830  44.415  32.136   4.176
48406W        W20831  18.754  36.515   0.818
48407W        W20832   5.349  25.840  13.827
48408W        W20833  44.449   7.982  10.713
48409W        W20834  12.326  28.188  13.452
48410W        W20835  29.239  41.160   1.185
48411W        W20836   3.799  11.738   2.420
48412W        W20837  44.999  32.342   1.849
48413W        W20838   4.813  23.477   0.245
48414W        W20839  34.127  29.583  11.294
48415W        W20840  42.620  39.390   3.725
48416W        W20841   8.965  42.531   0.783
48417W        W20842  14.394  38.520  13.360
48418W        W20843  19.831  16.285   0.490
48419W        W20844   2.819   0.741  13.523
48420W        W20845  29.214  15.187   3.358
48421W        W20846   7.150   0.693  14.854
48422W        W20847  19.131  37.360   2.252
48423W        W20848   3.404  22.177   1.336
48424W        W20849  20.484   2.936   1.994
48425W        W20850  21.655  27.565   4.495
48426W        W20851  37.554  44.751   4.576
48427W        W20852  40.996  15.468  11.459
48428W        W20853  13.284  24.406   4.215
48429W        W20854  40.769   1.957   1.467
48430W        W20855  24.621  42.064  13.313
48431W        W20856  11.352  44.425   4.484
48432W        W20857  25.154  18.470  10.314
48433W        W20858  11.465   3.292  12.532
48434W        W20859  36.120   8.905  14.750
48435W        W20860  13.670  15.761   2.376
48436W        W20861  40.132  44.194   2.804
48437W        W20862  33.078  36.845  13.564
48438W        W20863  41.195  26.618   0.331
48439W        W20864  40.768  39.084  12.024
48440W        W20865  35.562   8.127  10.765
48441W        W20866  16.943  40.882   3.779
48442W        W20867  13.555   7.210   4.552
48443W        W20868  36.038  34.503  10.606
48444W        W20869  22.254  34.064   4.571
48445W        W20870   4.839  40.718  11.476
48446W        W20871  11.056  41.316  12.038
48447W        W20872  27.174  30.449  14.827
48448W        W20873  33.700  26.289  12.035
48449W        W20874   4.402  40.844   0.863
48450W        W20875  25.508  26.751   1.954
48451W        W20876  20.271  14.653   1.846
48452W        W20877  31.387   6.779   2.367
48453W        W20878   8.225  44.907   3.660
48454W        W20879  33.492  24.056  10.917
48455W        W20880   2.511  30.530   0.437
48456W        W20881  29.528  26.451  10.223
48457W        W20882   0.815  29.631  10.793
48458W        W20883  16.492  26.055   1.314
48459W        W20884  21.255  35.117  13.382
48460W        W20885  18.105  34.471  11.086
48461W        W20886  17.061  12.978  11.734
48462W        W20887   9.389  10.758   3.352
48463W        W20888  16.070  28.656   0.821
48464W        W20889  18.686   0.784   0.424
48465W        W20890  34.465  28.515  13.344
48466W        W20891   2.250  23.512   4.898
48467W        W20892   5.253  29.509   4.931
48468W        W20893   5.608   6.393   1.893
48469W        W20894  44.541  15.586  14.763
48470W        W20895   8.843  13.464  10.493
48471W        W20896  31.238   9.884   0.355
48472W        W20897  30.256  40.250   1.230
48473W        W20898  40.092  35.910  11.683
48474W        W20899  35.678  16.771  13.460
48475W        W20900  26.162  12.534  10.747
48476W        W20901  32.790  27.946   0.012
48477W        W20902  44.246  38.938  11.937
48478W        W20903  17.621  26.494  12.436
48479W        W20904   0.426  30.681   3.287
48480W        W20905  38.921  15.206  11.562
48481W        W20906  20.205  34.043   2.760
48482W        W20907  14.082  39.496  13.894
48483W        W20908  10.326  14.243  12.287
48484W        W20909   1.283  16.778   4.231
48485W        W20910  33.687  23.958   4.797
48486W        W20911   8.799  11.763  11.340
48487W        W20912  41.776   1.075  14.443
48488W        W20913  16.724   3.492  10.643
48489W        W20914  32.641  44.474   3.048
48490W        W20915  14.038  39.780  13.409
48491W        W20916  34.510  29.424  12.491
48492W        W20917   7.137  33.517   0.169
48493W        W20918  20.840  39.905   2.352
48494W        W20919  22.305  28.353   2.734
48495W        W20920   5.441  15.588   1.213
48496W        W20921  14.740  29.447   2.685
48497W        W20922   8.950  12.673   3.797
48498W        W20923  17.677  22.472   3.294
48499W        W20924  33.962  38.992  11.217
48500W        W20925  35.584   1.743  12.076
48501W        W20926  22.933   8.616   4.247
48502W        W20927  17.269  20.963   3.250
48503W        W20928   1.749  32.311   1.847
48504W        W20929  41.102   9.098  12.818
48505W        W20930  42.917  31.052  13.049
48506W        W20931  44.385   2.087   9.735
48507W        W20932  35.364  39.169  14.723
48508W        W20933  38.824   3.913  13.376
48509W        W20934  33.992  30.628   2.463
48510W        W20935   7.300  16.372   4.674
48511W        W20936  42.699   1.970  14.986
48512W        W20937  26.728   0.225   3.937
48513W        W20938  41.724  35.896  11.752
48514W        W20939  31.483   0.844  14.313
48515W        W20940  43.966   2.867  11.027
48516W        W20941  23.173   5.887   3.071
48517W        W20942  27.148   9.357   1.313
48518W        W20943  39.641   0.891  12.346
48519W        W20944  29.481  19.259  13.869
48520W        W20945  43.445   3.999  12.595
48521W        W20946  13.286   6.407  13.363
48522W        W20947  32.595  13.102   0.246
48523W        W20948  42.228  40.298   4.425
48524W        W20949  32.510   8.143   2.693
48525W        W20950  15.784  34.557  14.944
48526W        W20951  25.004  39.296   3.211
48527W        W20952  27.519  36.950  12.951
48528W        W20953  33.112  44.939   3.714
48529W        W20954  29.478  26.370   2.409
48530W        W20955  18.579  32.770   3.706
48531W        W20956  16.267  33.595  11.448
48532W        W20957  18.336  18.788  12.589
48533W        W20958  11.544  24.879   2.691
48534W        W20959   5.203   8.192  14.934
48535W        W20960  12.170  37.468  13.882
48536W        W20961  18.280  21.729   2.291
48537W        W20962  20.831  32.727  12.409
48538W        W20963   2.378  16.192   2.699
48539W        W20964  25.144  11.319   0.108
48540W        W20965  17.424   3.281   4.295
48541W        W20966   1.471  15.746  12.045
48542W        W20967  40.696  22.034   2.286
48543W        W20968   1.067  10.650   4.496
48544W        W20969  14.933   7.196  11.584
48545W        W20970  19.569  23.716  14.811
48546W        W20971  20.367   4.914  14.976
48547W        W20972  43.766  23.074  14.089
48548W        W20973   5.793  19.849  12.473
48549W        W20974  31.906  36.138  11.162
48550W        W20975  19.959   3.806   3.254
48551W        W20976   0.450  14.739   0.391
48552W        W20977  15.626  29.512   2.170
48553W        W20978  41.986   2.708   1.769
48554W        W20979  10.475  11.661  14.419
48555W        W20980  31.740  40.663   2.714
48556W        W20981  35.849  28.436  13.297
48557W        W20982  22.746  41.028  11.575
48558W        W20983  13.310  43.496  10.768
48559W        W20984  31.009  24.006  14.472
48560W        W20985  18.582  22.457  10.737
48561W        W20986  44.708  39.323  13.038
48562W        W20987  34.984   1.245  10.779
48563W        W20988  31.986   2.409   0.134
48564W        W20989  44.880  33.405   0.707
48565W        W20990  36.971  40.495   1.048
48566W        W20991  36.578  19.177   2.057
48567W        W20992  36.873  30.960  12.319
48568W        W20993  13.128  12.497   4.837
48569W        W20994   3.679   2.724  13.580
48570W        W20995  24.681  23.681   3.302
48571W        W20996  11.046  17.171  12.990
48572W        W20997  19.671  23.969   3.387
48573W        W20998  30.559  27.020  12.409
48574W        W20999  27.488  15.719  11.233
48575W        W21000  17.546  11.421  12.876
48576W        W21001  19.781   3.192  13.326
48577W        W21002  37.419  43.079   3.167
48578W        W21003  10.324  21.182   9.886
48579W        W21004  43.299   0.893  10.679
48580W        W21005  22.910  19.830  12.012
48581W        W21006  34.518   3.209  12.100
48582W        W21007   5.845   0.451  13.945
48583W        W21008  38.542  36.361  12.543
48584W        W21009  20.010  26.491   0.271
48585W        W21010   2.488   8.641   2.774
48586W        W21011  10.271  24.150  13.790
48587W        W21012  17.246  14.340   0.509
48588W        W21013  37.292  31.241  14.721
48589W        W21014  19.676  36.011  10.752
48590W        W21015  15.033  32.245   4.099
48591W        W21016  17.735  18.382  10.603
48592W        W21017  37.193  25.583   3.664
48593W        W21018  41.549  12.314  14.549
48594W        W21019  43.321  32.834   3.319
48595W        W21020  41.014  31.127  10.837
48596W        W21021   9.714  43.248  13.054
48597W        W21022  38.364  15.351   3.676
48598W        W21023  27.748   4.856  12.703
48599W        W21024  22.985  18.725  14.392
48600W        W21025  12.157  22.109  12.127
48601W        W21026  31.951  36.810   2.739
48602W        W21027  29.273   0.052   2.807
48603W        W21028   2.163  32.004   0.394
48604W        W21029  35.608   5.186  14.574
48605W        W21030   0.299  40.553  14.696
48606W        W21031  43.464  12.006  12.739
48607W        W21032  40.871   8.828  11.456
48608W        W21033  41.075  19.942  12.947
48609W        W21034  42.247  22.514   1.221
48610W        W21035  25.141  31.584   3.547
48611W        W21036  44.509  34.787  11.762
48612W        W21037   4.764  25.187  14.870
48613W        W21038   6.437  30.408   4.058
48614W        W21039   7.188   2.748  13.583
48615W        W21040  25.280  14.626   2.319
48616W        W21041  39.356  37.073   0.426
48617W        W21042  28.735  25.731  12.726
48618W        W21043   0.008  23.404  13.427
48619W        W21044   2.769  11.543  13.852
48620W        W21045  28.207  21.557  14.996
48621W        W21046  41.508   3.375   2.947
48622W        W21047   1.437  28.099  10.587
48623W        W21048  11.620  44.381   3.156
48624W        W21049   2.424   7.039  14.530
48625W        W21050   3.137  14.753   4.758
48626W        W21051  17.836  15.688  11.974
48627W        W21052   6.848  35.347  12.414
48628W        W21053  19.025   7.865   3.533
48629W        W21054  37.783  17.108   2.791
48630W        W21055  42.444   2.687   0.376
48631W        W21056  13.889  35.082  11.876
48632W        W21057  25.533  20.475   0.953
48633W        W21058  24.928   6.770  13.456
48634W        W21059  32.917   8.859   3.909
48635W        W21060  21.759   0.820  10.273
48636W        W21061  44.524  40.962   4.906
48637W        W21062  39.345  13.989   0.810
48638W        W21063  19.777  26.417  12.758
48639W        W21064  38.057   6.343   0.857
48640W        W21065  22.843  27.552  11.098
48641W        W21066  35.427   5.564  11.798
48642W        W21067  18.092  18.074   4.882
48643W        W21068  30.458  36.982   2.741
48644W        W21069   4.639   3.127   2.904
48645W        W21070  21.078  14.339   3.129
48646W        W21071  30.305   0.915  11.452
48647W        W21072  30.501  30.649  13.452
48648W        W21073  23.803  39.879   3.305
48649W        W21074  24.015  33.279   5.112
48650W        W21075  14.980  37.440   4.887
48651W        W21076  39.969  29.732   3.366
48652W        W21077  42.227  16.784   2.691
48653W        W21078   2.059  28.054  13.419
48654W        W21079  12.932  36.496  14.701
48655W        W21080  28.570  43.002  14.063
48656W        W21081  42.226   9.121   1.723
48657W        W21082  29.385  29.046  13.118
48658W        W21083   8.431  13.188  14.172
48659W        W21084  43.576  39.852  11.505
48660W        W21085   2.354   3.551  11.408
48661W        W21086   6.168  34.022  13.495
48662W        W21087  44.222  40.045  14.104
48663W        W21088  14.180  28.954   1.884
48664W        W21089  38.844  32.120   0.937
48665W        W21090  33.141  25.610   1.619
48666W        W21091   2.209   8.228   2.904
48667W        W21092  44.077  23.089  13.662
48668W        W21093  32.031  35.411   0.956
48669W        W21094  24.982  13.650   3.878
48670W        W21095  24.003  18.603  14.466
48671W        W21096   0.496  19.228  11.908
48672W        W21097   8.268  17.773   0.992
48673W        W21098  22.964   4.180   3.801
48674W        W21099   4.577  20.813  12.332
48675W        W21100  37.858   1.216   2.848
48676W        W21101  10.639  36.646   0.845
48677W        W21102  39.849  27.588   4.549
48678W        W21103  19.636  14.181  12.459
48679W        W21104  28.576  40.945   0.160
48680W        W21105  21.152  23.233  14.008
48681W        W21106  15.692   7.227  11.813
48682W        W21107  26.096  16.590   1.352
48683W        W21108  27.700  27.633   4.437
48684W        W21109  20.186  41.276  10.144
48685W        W21110   5.822  30.348  13.795
48686W        W21111  12.682   8.119   1.493
48687W        W21112  28.554  10.547   3.267
48688W        W21113  19.309  30.915   1.764
48689W        W21114  30.606  20.207  12.651
48690W        W21115  43.800   9.215  11.885
48691W        W21116  17.723  24.450  13.441
48692W        W21117  31.110  19.542   1.053
48693W        W21118  30.067  36.084  13.295
48694W        W21119   2.131  12.154  11.405
48695W        W21120  19.584  32.209  12.973
48696W        W21121  11.484   9.745  13.077
48697W        W21122  27.546  11.896  14.527
48698W        W21123  17.855  34.668  12.474
48699W        W21124  28.679  39.315  10.695
48700W        W21125   6.803  25.661   1.439
48701W        W21126  41.829  24.133  12.006
48702W        W21127  24.982  33.515   3.011
48703W        W21128  19.210  28.625   2.850
48704W        W21129  24.919  29.488  10.570
48705W        W21130   4.003  31.608   1.309
48706W        W21131  17.588   7.576   2.678
48707W        W21132   0.840  36.456   0.864
48708W        W21133   3.855  26.957  11.219
48709W        W21134  39.273  31.590  10.928
48710W        W21135  40.175  11.105  12.485
48711W        W21136  24.547   3.201   0.725
48712W        W21137   6.499  36.080  12.034
48713W        W21138  30.749  39.282  12.208
48714W        W21139   8.311   7.895   3.201
48715W        W21140  41.276  29.112  11.500
48716W        W21141   5.173   0.932  11.198
48717W        W21142  30.278  35.187   1.426
48718W        W21143  20.462  40.264   2.266
48719W        W21144  16.090   1.413  12.319
48720W        W21145  16.147   5.675   4.248
48721W        W21146  37.891  12.505  14.890
48722W        W21147   8.182   2.796   1.667
48723W        W21148   1.970   7.312   2.408
48724W        W21149  43.002  25.604  11.554
48725W        W21150  27.073  14.128   0.794
48726W        W21151   7.670   8.451  10.673
48727W        W21152  30.044  10.487   4.792
48728W        W21153  12.871  17.163   3.108
48729W        W21154  27.950   7.676  12.400
48730W        W21155  34.913  20.249  10.763
48731W        W21156  32.939  31.084  13.870
48732W        W21157  12.263  43.999  11.571
48733W        W21158  18.641  35.719   3.585
48734W        W21159  12.242   8.945  13.143
48735W        W21160  21.713  34.312   2.770
48736W        W21161  15.815  34.675  11.272
48737W        W21162   0.726  26.221  11.788
48738W        W21163  25.213  29.752  13.339
48739W        W21164  31.403  37.415  13.883
48740W        W21165   2.960  19.969   5.056
48741W        W21166  15.709   9.753  11.109
48742W        W21167  42.576  43.473  13.375
48743W        W21168  24.649  19.508   1.003
48744W        W21169  27.822  33.995   0.072
48745W        W21170  21.511  11.044  11.997
48746W        W21171  35.139  23.233  14.302
48747W        W21172   1.371  30.995  12.516
48748W        W21173  41.715   9.809  14.937
48749W        W21174  44.291  31.612   0.496
48750W        W21175   8.189  41.307   0.204
48751W        W21176  33.995  33.408   4.658
48752W        W21177  33.381  36.537   1.874
48753W        W21178  29.947  12.338   3.969
48754W        W21179  44.525  12.317   4.197
48755W        W21180   8.453  15.349   1.303
48756W        W21181  18.818   8.718  12.048
48757W        W21182   1.549  22.620  10.660
48758W        W21183  44.466  21.204   0.868
48759W        W21184  44.393  41.411   3.606
48760W        W21185   4.515   2.465   3.649
48761W        W21186  20.634  12.855  13.047
48762W        W21187  29.447  11.121   2.349
48763W        W21188  30.504   9.072   3.095
48764W        W21189  26.526  35.699   4.079
48765W        W21190  13.613   1.251   5.043
48766W        W21191  13.596   0.902   1.262
48767W        W21192  42.695  29.412   5.059
48768W        W21193   4.792  14.698  10.611
48769W        W21194  26.709  38.503   4.430
48770W        W21195   5.044  26.120   4.550
48771W        W21196  38.685  41.944  11.434
48772W        W21197  14.631  44.266  12.028
48773W        W21198  27.209  25.385   3.147
48774W        W21199  17.030  34.684  11.860
48775W        W21200  38.997  43.085   0.297
48776W        W21201  10.187  15.238   1.773
48777W        W21202  21.634  36.074  13.580
48778W        W21203  16.703   8.145   1.729
48779W        W21204   0.189  39.076   2.552
48780W        W21205  38.572  26.416  13.387
48781W        W21206  20.567  38.304   3.188
48782W        W21207   4.987  15.749   0.346
48783W        W21208  21.590  42.516   1.863
48784W        W21209   8.401  10.161  11.096
48785W        W21210  30.144  35.082  11.106
48786W        W21211   5.577  37.389   1.724
48787W        W21212   8.184  17.132   2.945
48788W        W21213   4.288  27.179   4.319
48789W        W21214  30.903   5.764   0.783
48790W        W21215  17.647  42.839   1.659
48791W        W21216   1.784  23.863   4.434
48792W        W21217  33.019  11.092   3.746
48793W        W21218  25.464  33.500   3.206
48794W        W21219  15.514  31.339   3.380
48795W        W21220  40.979  10.882  10.677
48796W        W21221  11.861   6.681  11.211
48797W        W21222   2.502  38.121   2.212
48798W        W21223  30.618  38.540  13.305
48799W        W21224  29.131   8.026  12.866
48800W        W21225  34.651  11.061   3.380
48801W        W21226  37.902  39.082  14.294
48802W        W21227   3.097  15.202  10.201
48803W        W21228  18.279   5.816  11.734
48804W        W21229  22.337  16.426   2.865
48805W        W21230  39.337   8.160   1.926
48806W        W21231  40.879  26.728   3.829
48807W        W21232  41.204   4.776   2.832
48808W        W21233  42.283  14.584  14.370
48809W        W21234  38.447  38.151  13.798
48810W        W21235  15.078  23.956  14.234
48811W        W21236  20.912  13.265  14.355
48812W        W21237  29.859  22.146  11.930
48813W        W21238  38.594   4.193  12.999
48814W        W21239  10.976   8.908  13.641
48815W        W21240  11.145   9.866  13.471
48816W        W21241  40.622   4.598   1.307
48817W        W21242  27.152   0.408   3.708
48818W        W21243   0.721  22.995  11.649
48819W        W21244   8.424  16.343   0.414
48820W        W21245  14.366  33.623  11.186
48821W        W21246  26.468  30.274  11.159
48822W        W21247  36.392  23.600   9.735
48823W        W21248  10.445  36.409  12.827
48824W        W21249  27.911  35.857  14.734
48825W        W21250   1.232   0.668   2.887
48826W        W21251  19.137  31.202   1.285
48827W        W21252  34.483  28.161  10.624
48828W        W21253  15.125  25.738   0.926
48829W        W21254   8.023  31.082   1.724
48830W        W21255  33.994   1.919  11.632
48831W        W21256  24.468   4.903  11.875
48832W        W21257  40.903  39.043   3.637
48833W        W21258  28.357   8.787  11.453
48834W        W21259   2.429   3.444   2.140
48835W        W21260  13.116  16.801   1.298
48836W        W21261  15.071  40.816  11.649
48837W        W21262  37.403  29.689  13.780
48838W        W21263  16.983  16.248   2.648
48839W        W21264   7.630  30.656  14.933
48840W        W21265  37.052   5.344  10.478
48841W        W21266  21.726  11.304  12.826
48842W        W21267  42.237  20.825  10.326
48843W        W21268  27.023  16.371  12.936
48844W        W21269  37.068  22.482  14.312
48845W        W21270  12.457   4.410   1.649
48846W        W21271   4.189  32.188  14.711
48847W        W21272   2.836  13.465  13.960
48848W        W21273  38.406   7.813  13.858
48849W        W21274  33.156   3.764  11.681
48850W        W21275  10.392  44.895   3.734
48851W        W21276  34.927   6.966  14.963
48852W        W21277  41.554  21.165  11.050
48853W        W21278  15.093  35.638   2.238
48854W        W21279  19.759   4.297  11.955
48855W        W21280  24.603  20.706  14.213
48856W        W21281   0.726  38.007   0.436
48857W        W21282  39.510  29.046  12.459
48858W        W21283   8.968  14.183   1.040
48859W        W21284  27.937  41.007   1.240
48860W        W21285   9.803  40.841  10.964
48861W        W21286  18.557  33.091  14.849
48862W        W21287  30.073  36.857  13.092
48863W        W21288  14.361  43.869   4.341
48864W        W21289  44.970  23.714  12.943
48865W        W21290   4.679   7.343  12.841
48866W        W21291  17.777  14.562   2.825
48867W        W21292   7.217   8.464   4.588
48868W        W21293  39.607   2.429  11.668
48869W        W21294  20.556  12.272   3.280
48870W        W21295  28.381  22.817   2.772
48871W        W21296  35.362   2.304   3.205
48872W        W21297  33.255  39.492  11.352
48873W        W21298  38.496  18.079   1.669
48874W        W21299  34.885  22.695   0.425
48875W        W21300  35.902  44.866  13.893
48876W        W21301  41.121  17.304  11.589
48877W        W21302  36.739  26.708   4.555
48878W        W21303  43.663  14.690   0.752
48879W        W21304  10.893   7.252  14.961
48880W        W21305  35.381  29.400  11.461
48881W        W21306  17.567  33.133  14.796
48882W        W21307   1.716  19.555   4.515
48883W        W21308  18.638  26.597  14.448
48884W        W21309  41.430  38.592  11.663
48885W        W21310  15.211  38.905  11.987
48886W        W21311   1.445  27.633  12.423
48887W        W21312  35.498  23.514   0.234
48888W        W21313  16.557  25.532   4.420
48889W        W21314  28.622  38.300   1.014
48890W        W21315  34.607  32.057   2.600
48891W        W21316  18.129  32.869  13.326
48892W        W21317  27.969  16.067   2.036
48893W        W21318  23.371  24.592  11.703
48894W        W21319   5.155  44.747   1.663
48895W        W21320  42.292  32.692   2.408
48896W        W21321  13.093   0.809  12.883
48897W        W21322  17.187  21.392  11.670
48898W        W21323  33.244  21.901  14.344
48899W        W21324  33.752   2.436   2.196
48900W        W21325  10.726  38.853  12.415
48901W        W21326  21.121  10.636  12.021
48902W        W21327  20.262  44.826   0.284
48903W        W21328  11.773  15.585  10.358
48904W        W21329  10.564  30.497   1.342
48905W        W21330   9.733  24.128  11.604
48906W        W21331  42.019  29.564   3.189
48907W        W21332  44.732  29.093   0.205
48908W        W21333   3.951  19.761  11.912
48909W        W21334   2.890  24.406  13.334
48910W        W21335  22.523  16.364  11.657
48911W        W21336  14.797  31.659   0.740
48912W        W21337   3.365  44.264   2.249
48913W        W21338   9.672   3.158   2.848
48914W        W21339  30.476  15.252  14.803
48915W        W21340   0.506  31.003   0.920
48916W        W21341  17.424   3.319   0.523
48917W        W21342   5.831  31.186  13.152
48918W        W21343  27.777   7.828   2.102
48919W        W21344   8.156  44.518  10.807
48920W        W21345  34.213  21.651   0.400
48921W        W21346  28.009  22.630  10.204
48922W        W21347  26.560  12.347   0.523
48923W        W21348  33.551  36.599  13.503
48924W        W21349   7.395  27.167  10.705
48925W        W21350   9.013  15.004   1.416
48926W        W21351  26.873  38.955   0.924
48927W        W21352   4.179  28.530   4.858
48928W        W21353  33.347  39.962  10.446
48929W        W21354  15.900  22.141  12.352
48930W        W21355  26.509  35.653  13.228
48931W        W21356  41.363  34.348  11.191
48932W        W21357  40.603  35.521  14.906
48933W        W21358  30.618  43.386  11.175
48934W        W21359  33.747   3.086   3.909
48935W        W21360  40.779  38.493   0.287
48936W        W21361  23.489  27.734   2.242
48937W        W21362  27.534  28.403  14.955
48938W        W21363  17.775   3.287  12.162
48939W        W21364   3.433  20.742   4.218
48940W        W21365  17.711  36.469   4.230
48941W        W21366  44.719  12.352  11.055
48942W        W21367  40.469  17.233  12.382
48943W        W21368  35.778   7.763  11.078
48944W        W21369  12.851  44.969  13.411
48945W        W21370  39.406  22.332  13.874
48946W        W21371  26.094  15.276  12.314
48947W        W21372   3.127  24.580  11.115
48948W        W21373  30.093  24.497   0.445
48949W        W21374  43.068  22.581  12.957
48950W        W21375  22.714   5.717   2.846
48951W        W21376  27.065   2.335  13.308
48952W        W21377  14.115   5.182   0.187
48953W        W21378   2.736  28.572  12.344
48954W        W21379   6.472  17.509  10.454
48955W        W21380  38.250  25.415   2.702
48956W        W21381  23.649  43.756   0.763
48957W        W21382   6.825   8.449  10.756
48958W        W21383   8.453  43.330   1.819
48959W        W21384   7.722  43.626   1.461
48960W        W21385   9.163  44.016  10.122
48961W        W21386   2.839  16.765  12.027
48962W        W21387  39.936  40.222   2.200
48963W        W21388  24.663  22.400   4.647
48964W        W21389  13.120  16.561   1.780
48965W        W21390   2.464  38.693   2.098
48966W        W21391   9.261  36.714   0.867
48967W        W21392  36.859  16.165   0.406
48968W        W21393  24.961  12.851  14.418
48969W        W21394  40.454  43.522   3.192
48970W        W21395  37.597  24.183  12.360
48971W        W21396  26.579  29.768   2.744
48972W        W21397  12.407  36.577   3.584
48973W        W21398  29.582  16.856   4.143
48974W        W21399  12.733  12.950   1.835
48975W        W21400   6.905  44.933   4.163
48976W        W21401  35.490  44.300   4.223
48977W        W21402  38.340   0.455  11.166
48978W        W21403  34.300  41.164   1.426
48979W        W21404  11.653   6.397  10.512
48980W        W21405  22.048  38.806   0.860
48981W        W21406  38.304  29.299  10.643
48982W        W21407  29.257   6.648  10.209
48983W        W21408  27.881  33.544   3.766
48984W        W21409  26.672  31.069   4.271
48985W        W21410  36.945  22.445  13.388
48986W        W21411  35.298  19.875  13.393
48987W        W21412  36.095  28.933   4.830
48988W        W21413  22.538  39.985  14.986
48989W        W21414  27.348  25.729   2.264
48990W        W21415  42.150  11.914   1.720
48991W        W21416   3.180  34.494   1.901
48992W        W21417  22.733   2.569  12.159
48993W        W21418  39.771  39.068  12.107
48994W        W21419  22.754  23.063   1.547
48995W        W21420  40.309  39.574  12.449
48996W        W21421  23.266  32.171   4.567
48997W        W21422  17.693  20.913  11.006
48998W        W21423  13.352   9.157   3.137
48999W        W21424   3.541  43.086  14.071
49000W        W21425  17.973  21.443  11.575
49001W        W21426   1.470   4.692   2.916
49002W        W21427   6.327   5.442  12.892
49003W        W21428  29.272  10.252  14.464
49004W        W21429   2.565  27.947  13.565
49005W        W21430  18.607  13.359   2.624
49006W        W21431  27.556  41.013  11.253
49007W        W21432  28.580  16.597   1.218
49008W        W21433  10.299  43.232   0.911
49009W        W21434  22.634  40.858   2.799
49010W        W21435  19.009  34.735   1.474
49011W        W21436  41.281  40.501   4.110
49012W        W21437  35.555   8.834  13.495
49013W        W21438   9.966  36.004  11.364
49014W        W21439  17.051  43.841  12.487
49015W        W21440  10.297  20.354   0.066
49016W        W21441  26.970  21.361   0.312
49017W        W21442  13.258  20.115   1.710
49018W        W21443  42.700   9.653  13.956
49019W        W21444   0.764  12.074  12.968
49020W        W21445  13.599  25.478  13.279
49021W        W21446   0.955  18.829  12.039
49022W        W21447  43.327  34.567   4.570
49023W        W21448  39.832  21.795   4.082
49024W        W21449  30.336  15.046  12.433
49025W        W21450  27.613   8.312  13.410
49026W        W21451  10.433  33.101   3.327
49027W        W21452  26.055  21.952   3.226
49028W        W21453  32.865  28.592  13.566
49029W        W21454  38.473  19.099   2.388
49030W        W21455  31.620  33.720  14.425
49031W        W21456  25.210   1.952   0.445
49032W        W21457  35.021  19.742  10.738
49033W        W21458  15.077  26.201  10.937
49034W        W21459  40.443  18.016  12.084
49035W        W21460  33.725  25.444  14.028
49036W        W21461  29.988  28.218  13.797
49037W        W21462  32.603   7.480  10.515
49038W        W21463   0.223  28.746  13.949
49039W        W21464   7.204   1.769   4.315
49040W        W21465  32.847  23.254  12.361
49041W        W21466   3.273  13.406  13.307
49042W        W21467  35.664  18.639   3.136
49043W        W21468  21.154   8.769   4.200
49044W        W21469  35.076   3.698   4.588
49045W        W21470  38.997  23.246  14.487
49046W        W21471  15.619  31.835   3.254
49047W        W21472  12.771  29.952   0.333
49048W        W21473   2.438   3.409  10.523
49049W        W21474  25.551  22.004  14.238
49050W        W21475  44.542  40.582  13.061
49051W        W21476  15.137  39.801   2.770
49052W        W21477   5.757   5.354  10.946
49053W        W21478  35.464  24.627   4.587
49054W        W21479  43.852   0.258  11.977
49055W        W21480  39.958  20.067   2.935
49056W        W21481  25.514  28.958  12.022
49057W        W21482  43.273  23.046  12.507
49058W        W21483  41.841  23.575   2.630
49059W        W21484  33.161  28.094  14.163
49060W        W21485  21.793  44.782  12.002
49061W        W21486  14.743  38.632  12.542
49062W        W21487  30.416  37.436   4.553
49063W        W21488   6.311  33.991   2.396
49064W        W21489   6.202  11.195  14.005
49065W        W21490  26.569   3.151  12.582
49066W        W21491  27.692   6.771  13.797
49067W        W21492  31.437  16.570  14.559
49068W        W21493   4.325   5.719  13.442
49069W        W21494  23.791  27.712   4.525
49070W        W21495  44.861  39.853   4.642
49071W        W21496  25.170  34.477   3.601
49072W        W21497  19.028  29.126   3.232
49073W        W21498   2.519   2.284   0.243
49074W        W21499  40.019  21.676   3.133
49075W        W21500  41.764  24.301  14.576
49076W        W21501  15.833  21.267  12.908
49077W        W21502  27.996  15.715  11.830
49078W        W21503  20.247   7.739  12.991
49079W        W21504  29.874  35.460  10.698
49080W        W21505  14.919   5.281   3.581
49081W        W21506   7.869  38.333   3.067
49082W        W21507  17.714  42.976   3.800
49083W        W21508  21.892   2.336  13.366
49084W        W21509  19.641   5.301   4.097
49085W        W21510  26.584   3.179  13.111
49086W        W21511  20.701  19.339   1.178
49087W        W21512   0.959   9.180   4.164
49088W        W21513  31.336  14.141   1.289
49089W        W21514   1.353  14.216   2.200
49090W        W21515   9.149  22.914   1.946
49091W        W21516  16.635   7.248  11.261
49092W        W21517  31.645  42.447   0.614
49093W        W21518   9.361   5.427   3.079
49094W        W21519  17.122  31.426  14.421
49095W        W21520  36.463  44.317   5.125
49096W        W21521  42.122  10.395  12.050
49097W        W21522  17.307  14.332   2.787
49098W        W21523  22.258  27.981   1.833
49099W        W21524  33.591  23.570  11.048
49100W        W21525  39.145   3.717   3.675
49101W        W21526  18.838   4.273   2.853
49102W        W21527  42.543  25.104   4.883
49103W        W21528  27.010  13.603  12.541
49104W        W21529  10.939  40.314  11.153
49105W        W21530  43.778  35.701  11.880
49106W        W21531  16.036  11.737  13.770
49107W        W21532  27.228  42.820  12.857
49108W        W21533   5.795  18.698   3.916
49109W        W21534  10.052   2.945   4.934
49110W        W21535  32.040   4.155   1.163
49111W        W21536  29.389  11.337   4.042
49112W        W21537  11.296  34.858   4.191
49113W        W21538  20.653  27.933  14.015
49114W        W21539  24.269   4.836   0.022
49115W        W21540  28.942  38.509  13.100
49116W        W21541   0.578  44.281   4.987
49117W        W21542  14.282  41.118  12.103
49118W        W21543  12.072  33.561  10.717
49119W        W21544  20.045  24.296  13.008
49120W        W21545  38.554  13.678   0.352
49121W        W21546  16.411  44.842  13.398
49122W        W21547  21.989  34.544   4.652
49123W        W21548  29.069  26.525  13.968
49124W        W21549   7.917  26.941  14.912
49125W        W21550  28.044  17.402  13.064
49126W        W21551  27.883  23.192   3.830
49127W        W21552  41.266  10.739  13.740
49128W        W21553  19.379   8.156  11.382
49129W        W21554  35.319  42.320  14.882
49130W        W21555   4.848  20.125  14.025
49131W        W21556  24.132  18.581   3.794
49132W        W21557   6.806  10.918   1.914
49133W        W21558  14.429  10.397  11.180
49134W        W21559  44.629   1.836   3.439
49135W        W21560  33.725  36.303  10.879
49136W        W21561  25.175  44.364   3.307
49137W        W21562   1.825  40.080  11.683
49138W        W21563  11.421  13.127  11.631
49139W        W21564  43.956  39.512  14.013
49140W        W21565  21.507  17.566   0.375
49141W        W21566  12.181  42.828   0.427
49142W        W21567   6.383  32.168  13.007
49143W        W21568  19.647  36.964  12.548
49144W        W21569  26.166   4.041   4.568
49145W        W21570  30.420  20.640  10.682
49146W        W21571  36.469  15.261  12.660
49147W        W21572  34.903  14.149  11.377
49148W        W21573   1.479  40.987  12.868
49149W        W21574   0.091  14.294  12.849
49150W        W21575   6.640  35.987   1.640
49151W        W21576   3.177   8.954   4.555
49152W        W21577  36.242  19.336   0.725
49153W        W21578  30.719  21.551   3.632
49154W        W21579  17.612   3.890   3.378
49155W        W21580  10.218   7.629   1.042
49156W        W21581  19.293  12.290  11.260
49157W        W21582  30.873  36.584  12.039
49158W        W21583  28.198  24.114   4.795
49159W        W21584   5.552  22.391  12.855
49160W        W21585  23.098  11.863   2.695
49161W        W21586  29.554  39.779  11.021
49162W        W21587  13.256  15.128   1.470
49163W        W21588  28.832   7.356   0.802
49164W        W21589   7.895  35.694  10.592
49165W        W21590  26.437  32.638  10.886
49166W        W21591  18.414  14.867   1.810
49167W        W21592  17.666   4.893  12.437
49168W        W21593  24.640  33.646  13.533
49169W        W21594   9.307   4.629  14.291
49170W        W21595  11.300   5.662  11.426
49171W        W21596  20.263   8.778  14.621
49172W        W21597  11.923   5.456  14.016
49173W        W21598  25.688  12.674  12.952
49174W        W21599  20.043  40.626   0.665
49175W        W21600  43.396  24.698   4.930
49176W        W21601  30.987  16.524   1.810
49177W        W21602  34.094  35.029   1.369
49178W        W21603  40.780  21.058   0.753
49179W        W21604  32.040   8.864  12.937
49180W        W21605  39.285  36.390   1.461
49181W        W21606   4.908  37.484   3.723
49182W        W21607  43.964  38.484  10.549
49183W        W21608  17.270  22.101   3.169
49184W        W21609  38.061  24.719   2.353
49185W        W21610  18.681  34.642  14.899
49186W        W21611  20.338   9.231  13.749
49187W        W21612  44.313  32.833  13.407
49188W        W21613  31.914  22.275  10.520
49189W        W21614  13.017   6.269   2.380
49190W        W21615  22.985  21.705   3.231
49191W        W21616   9.177  25.916   3.644
49192W        W21617  42.431  19.557   4.938
49193W        W21618   0.329  40.764   0.969
49194W        W21619  22.976  43.332   0.353
49195W        W21620   1.589  43.995   2.560
49196W        W21621  31.092   1.041  13.902
49197W        W21622  10.762  31.890   1.923
49198W        W21623   9.424  30.997   3.439
49199W        W21624  35.936   3.490   1.996
49200W        W21625  29.538  36.500  14.576
49201W        W21626  42.532  44.853  11.983
49202W        W21627  26.634  43.516   4.559
49203W        W21628  17.341  31.029   1.954
49204W        W21629  43.450  36.066   0.753
49205W        W21630  13.275   1.342   3.228
49206W        W21631   5.082  33.403  14.536
49207W        W21632  15.669   4.378   4.600
49208W        W21633   9.783  16.684  12.981
49209W        W21634   6.248  24.782   1.479
49210W        W21635   4.300   3.485   2.335
49211W        W21636   9.281  43.860  14.715
49212W        W21637  12.855   1.902  14.736
49213W        W21638  29.671  14.726  13.849
49214W        W21639  33.407  27.685   3.646
49215W        W21640   3.843  18.715   0.688
49216W        W21641  41.957  21.786   4.509
49217W        W21642  30.916  11.227  13.383
49218W        W21643  23.525  18.193   0.895
49219W        W21644  44.923   2.305   0.015
49220W        W21645  35.302  18.038   2.803
49221W        W21646  13.829  24.596   5.094
49222W        W21647   1.255   8.387   0.843
49223W        W21648  28.619   8.714   2.761
49224W        W21649  36.265   6.145   3.697
49225W        W21650   8.293  12.739   0.372
49226W        W21651  33.255  41.219  10.001
49227W        W21652  16.017  33.559  13.915
49228W        W21653  44.188  43.472   3.641
49229W        W21654   3.700  40.867   4.089
49230W        W21655  34.309  14.782   0.051
49231W        W21656  26.734   2.444   0.988
49232W        W21657  10.998  18.621   0.076
49233W        W21658  11.480   7.661  13.978
49234W        W21659  28.890  31.096   1.959
49235W        W21660  27.066  34.581  14.084
49236W        W21661  44.877  33.618   2.130
49237W        W21662   9.646  27.567   1.342
49238W        W21663  19.333  33.855   4.840
49239W        W21664   6.167  10.401  11.370
49240W        W21665  43.925  12.803   3.307
49241W        W21666  33.861  39.917  14.796
49242W        W21667  36.055  31.964   3.808
49243W        W21668  30.056  13.943   0.628
49244W        W21669  38.436  40.605   3.313
49245W        W21670  32.644   8.675   2.804
49246W        W21671   8.810  19.668  13.347
49247W        W21672  15.739  39.457   1.285
49248W        W21673  32.402  36.967  14.348
49249W        W21674  17.321   9.591   3.620
49250W        W21675   9.431  33.854   0.245
49251W        W21676   8.807  44.079  12.380
49252W        W21677  14.793  44.754  11.039
49253W        W21678  18.153  10.837   0.975
49254W        W21679  24.090  42.052   3.185
49255W        W21680  12.174  19.253   3.374
49256W        W21681  39.972  36.814  12.487
49257W        W21682   0.504  21.047   2.271
49258W        W21683   3.186  32.013   3.754
49259W        W21684  11.888  24.545  10.281
49260W        W21685  34.695  22.203   0.272
49261W        W21686   7.622  16.143  14.016
49262W        W21687  15.385  26.106  12.680
49263W        W21688  41.380  42.894  13.528
49264W        W21689  10.818  40.938   2.785
49265W        W21690   6.851  36.702   1.258
49266W        W21691  31.311  15.291   4.648
49267W        W21692   9.450  28.646   3.705
49268W        W21693  34.274  39.318  12.221
49269W        W21694  36.998  38.100   2.383
49270W        W21695  17.765  43.446  13.997
49271W        W21696  31.314  23.162  11.842
49272W        W21697   3.027  38.827   3.729
49273W        W21698  14.311  24.557   4.242
49274W        W21699   4.331  37.475  10.692
49275W        W21700   2.933  29.027   2.876
49276W        W21701  38.933  12.181   3.000
49277W        W21702   3.251  22.043  11.174
49278W        W21703   5.742   3.699   1.744
49279W        W21704  13.535  15.110  14.300
49280W        W21705  28.020  10.056   1.833
49281W        W21706   6.726  42.780  12.968
49282W        W21707  40.246  16.340   1.175
49283W        W21708  16.018  17.847   3.070
49284W        W21709  38.620   9.202   0.935
49285W        W21710   1.450  32.413   0.203
49286W        W21711  29.996  15.748  13.003
49287W        W21712  33.523  13.336   4.010
49288W        W21713  10.943  12.217   2.315
49289W        W21714  28.554  11.558  14.381
49290W        W21715  43.764  33.925  11.061
49291W        W21716  37.565   1.550  11.150
49292W        W21717  28.047  34.968  13.873
49293W        W21718   6.429  24.540  10.753
49294W        W21719  43.246  43.463  11.907
49295W        W21720  34.038  39.445   1.923
49296W        W21721   1.732  20.162   0.682
49297W        W21722  13.764  40.314   0.785
49298W        W21723  34.865   9.700   1.432
49299W        W21724  38.471  31.972   2.179
49300W        W21725  32.269  15.228  10.526
49301W        W21726  29.871  41.844  12.638
49302W        W21727  37.028  41.060   3.768
49303W        W21728  19.922   3.761  11.560
49304W        W21729  40.282  10.270  13.009
49305W        W21730  17.308   0.594   1.294
49306W        W21731  21.075   8.432   1.062
49307W        W21732  19.962  34.346   1.505
49308W        W21733   8.429  41.302  11.938
49309W        W21734  31.982   2.065   5.118
49310W        W21735  33.552   2.249  12.801
49311W        W21736  18.027   4.973  11.600
49312W        W21737  17.032  40.188  14.871
49313W        W21738  13.656   1.389  13.831
49314W        W21739  21.210  20.301   4.119
49315W        W21740   7.290   0.394  14.431
49316W        W21741  44.493  33.913   3.672
49317W        W21742  22.664   1.963  10.235
49318W        W21743  17.409  13.617   3.211
49319W        W21744  28.081  29.506   4.528
49320W        W21745   6.618  15.147   3.950
49321W        W21746   1.471  29.175   4.770
49322W        W21747  28.430   6.741   2.863
49323W        W21748  36.430  29.909  10.915
49324W        W21749  41.293  19.180   1.718
49325W        W21750   6.005   7.929   2.365
49326W        W21751  19.702  22.095   2.349
49327W        W21752  16.564   8.299   2.195
49328W        W21753   8.365  33.916   3.572
49329W        W21754  33.331  28.977  10.785
49330W        W21755  11.210  15.840   1.757
49331W        W21756  23.413  31.069  13.073
49332W        W21757  22.334  15.770  13.479
49333W        W21758  21.171  26.743  14.864
49334W        W21759  35.373  24.118  11.461
49335W        W21760  43.890  24.983  13.725
49336W        W21761  39.742  41.951  11.220
49337W        W21762   6.813  35.059  14.450
49338W        W21763  29.625  16.535   0.230
49339W        W21764  23.622  32.650   9.283
49340W        W21765  18.749  36.537  12.691
49341W        W21766  40.548  28.027   4.105
49342W        W21767  31.967  17.170   2.295
49343W        W21768  13.314  25.889  13.063
49344W        W21769  28.076  11.692   4.538
49345W        W21770  10.795  16.431  13.295
49346W        W21771  37.131  39.618  13.928
49347W        W21772  33.947   5.663   1.763
49348W        W21773  35.359   5.794   0.960
49349W        W21774  26.717  28.707  14.453
49350W        W21775  32.821  42.388  14.013
49351W        W21776   3.416  22.125   2.698
49352W        W21777  11.331  15.358   4.496
49353W        W21778  33.018   1.991  14.911
49354W        W21779  11.854  20.692  13.381
49355W        W21780  14.806  31.849  12.219
49356W        W21781  30.172  14.116   1.639
49357W        W21782  32.635  19.668  11.590
49358W        W21783   6.967  24.634  12.192
49359W        W21784  18.157   4.131  12.574
49360W        W21785  16.329  38.561   2.192
49361W        W21786   9.781  34.612  13.788
49362W        W21787  31.342  39.573  10.962
49363W        W21788  15.391   5.871  13.941
49364W        W21789   2.766   0.127   4.122
49365W        W21790  26.649   7.969  13.945
49366W        W21791  29.523  16.692  12.934
49367W        W21792  26.196  33.095  14.940
49368W        W21793  26.510  34.293   4.927
49369W        W21794  34.933   1.064  12.461
49370W        W21795  24.032  32.154  11.090
49371W        W21796   5.965  38.756  11.524
49372W        W21797   8.298   5.719   1.308
49373W        W21798   6.157  13.764  11.550
49374W        W21799  43.777  28.380  12.842
49375W        W21800  40.123  30.885  10.785
49376W        W21801  31.885  36.960  14.413
49377W        W21802  15.742  19.000  13.415
49378W        W21803  25.575  24.407   3.808
49379W        W21804  25.743  21.250  12.895
49380W        W21805   9.830  21.617   3.100
49381W        W21806   6.977  24.037   2.762
49382W        W21807   7.292  17.373  14.465
49383W        W21808  44.979  21.256   4.659
49384W        W21809   9.437   2.250  10.913
49385W        W21810  28.879  23.324   5.174
49386W        W21811  10.686  16.543  11.063
49387W        W21812  18.689  35.384   3.165
49388W        W21813  38.893  32.552   3.737
49389W        W21814  10.560  35.053   2.394
49390W        W21815  13.293   4.522  10.468
49391W        W21816  43.358   6.975  14.280
49392W        W21817  39.080  41.070  11.226
49393W        W21818  39.092  21.487  11.631
49394W        W21819  38.821  38.415   1.720
49395W        W21820  27.516  14.263  14.790
49396W        W21821  21.725  11.967   3.934
49397W        W21822  19.300   6.503  13.926
49398W        W21823  25.668  22.751  11.595
49399W        W21824  21.264  28.273  14.624
49400W        W21825  10.473  39.423   4.167
49401W        W21826  12.880  29.896   1.211
49402W        W21827   8.006  12.820   2.547
49403W        W21828  39.403  33.431  12.430
49404W        W21829  32.161  11.795   0.470
49405W        W21830  41.662  11.129  14.517
49406W        W21831  15.759  12.605  14.362
49407W        W21832  30.062  10.705  13.425
49408W        W21833  38.822  23.514  13.162
49409W        W21834  40.886  36.172  14.714
49410W        W21835   8.980  16.549   0.344
49411W        W21836   1.227  11.710   0.352
49412W        W21837  41.374  42.848   0.978
49413W        W21838  40.084  32.152  11.872
49414W        W21839  16.730  25.490   4.907
49415W        W21840  14.057  43.734  12.062
49416W        W21841  29.498  42.806  14.358
49417W        W21842  27.867   6.181  11.222
49418W        W21843  39.414  39.756  11.568
49419W        W21844  28.020  27.368   3.665
49420W        W21845  42.530   1.891   4.264
49421W        W21846   5.336   4.732   1.491
49422W        W21847  28.527  34.491  12.860
49423W        W21848  33.431  37.546  13.933
49424W        W21849   1.475  39.514   3.732
49425W        W21850  35.306  43.905  14.992
49426W        W21851  43.817  18.684   0.244
49427W        W21852   1.790   9.938   4.249
49428W        W21853  23.485  36.683  12.493
49429W        W21854  15.233  10.230   2.687
49430W        W21855  29.038  36.381   1.728
49431W        W21856   3.725  36.028   1.489
49432W        W21857   5.374  27.943   4.038
49433W        W21858   3.708  23.233   4.692
49434W        W21859  29.617   6.266   4.584
49435W        W21860  12.194  33.581  13.897
49436W        W21861  20.217   9.501  10.299
49437W        W21862  27.308  20.983  12.668
49438W        W21863  14.312  41.444  12.517
49439W        W21864  42.917   4.473  14.353
49440W        W21865  14.550   9.673  13.855
49441W        W21866  31.192  13.287   2.480
49442W        W21867   6.410  41.950  11.633
49443W        W21868  14.289  38.026   4.915
49444W        W21869  15.547  21.065   4.078
49445W        W21870  18.654  21.342   1.802
49446W        W21871  35.457  40.131   1.316
49447W        W21872  36.972  21.945   0.802
49448W        W21873  13.896  43.942  13.778
49449W        W21874  37.984  24.022   4.491
49450W        W21875  31.499  27.199   2.955
49451W        W21876  23.553  23.191  14.576
49452W        W21877  40.305  11.040   1.013
49453W        W21878  17.056  13.748   2.240
49454W        W21879  18.462   9.655   1.563
49455W        W21880  14.894   4.371  12.386
49456W        W21881  18.109  23.505   2.593
49457W        W21882  25.358   4.757   4.586
49458W        W21883  16.592  30.624   4.141
49459W        W21884  32.366  34.428   4.143
49460W        W21885   8.285   7.284   1.235
49461W        W21886  44.015  26.609   3.623
49462W        W21887   9.223  44.002   2.258
49463W        W21888  14.742  39.879  10.774
49464W        W21889  11.597  31.605   3.144
49465W        W21890  40.066  25.483   1.854
49466W        W21891  38.190  32.174   2.599
49467W        W21892  40.030  33.044   2.614
49468W        W21893  21.994  29.162  11.587
49469W        W21894  29.402  22.008   1.371
49470W        W21895   4.712  29.646   0.775
49471W        W21896  32.606  27.974   0.902
49472W        W21897   2.736  19.830  12.294
49473W        W21898   3.271   7.173  14.428
49474W        W21899  26.111  13.086  10.800
49475W        W21900  31.739  19.911   2.769
49476W        W21901   0.274  43.776  14.871
49477W        W21902  13.046  37.678  11.032
49478W        W21903  32.700  17.643  14.742
49479W        W21904  30.565   1.162  10.605
49480W        W21905  39.353  27.421  14.286
49481W        W21906  31.430   4.746  14.895
49482W        W21907   1.786  37.556  12.458
49483W        W21908  44.476  14.280  14.420
49484W        W21909  35.292  40.386   4.636
49485W        W21910  42.724   9.958   1.687
49486W        W21911  19.195  41.726   2.824
49487W        W21912  42.990  16.213  11.608
49488W        W21913   4.949  25.978  13.492
49489W        W21914  19.656  42.314  11.163
49490W        W21915  32.713  13.647  13.326
49491W        W21916  38.628  16.841  14.805
49492W        W21917  13.293  44.675  13.444
49493W        W21918   1.235   6.497   4.208
49494W        W21919   5.248  17.317  10.270
49495W        W21920  31.572   0.917  14.838
49496W        W21921   6.321  44.044  12.402
49497W        W21922   8.263  40.514   4.008
49498W        W21923  31.433   8.250   4.653
49499W        W21924   2.948  38.474   4.396
49500W        W21925  14.844  44.654   0.973
49501W        W21926   0.215   6.807  12.499
49502W        W21927   4.206  24.550  13.954
49503W        W21928   2.086  40.177   2.380
49504W        W21929  34.815  32.582  12.056
49505W        W21930  44.794  37.516  13.898
49506W        W21931  28.222  17.073   2.801
49507W        W21932  11.865   8.909   0.959
49508W        W21933  20.681  20.219  12.152
49509W        W21934  28.221  16.732  14.293
49510W        W21935  20.132  31.401   3.745
49511W        W21936  15.391  38.885  13.533
49512W        W21937   4.668  28.592   3.531
49513W        W21938   8.918  27.910   4.012
49514W        W21939  27.146  22.484   4.263
49515W        W21940  12.188  17.361   0.504
49516W        W21941   7.460   6.671  12.006
49517W        W21942  24.128   6.137   2.623
49518W        W21943  12.132  17.152   4.446
49519W        W21944  23.725  10.943  14.507
49520W        W21945  43.884  26.093   1.881
49521W        W21946   1.910  39.070  13.134
49522W        W21947  11.156   1.253  14.947
49523W        W21948  28.890  27.258   2.382
49524W        W21949  32.807  37.182   3.273
49525W        W21950  40.837  14.147   1.905
49526W        W21951  14.506  42.463   2.385
49527W        W21952   6.156  17.115   4.135
49528W        W21953  31.106  31.451   3.172
49529W        W21954  34.401   6.958   3.357
49530W        W21955  26.947   4.721  12.029
49531W        W21956   6.001  39.267  14.775
49532W        W21957  40.593  20.205   1.701
49533W        W21958   1.061  35.009  14.062
49534W        W21959   9.280   1.432  10.693
49535W        W21960  16.186  36.286  12.992
49536W        W21961  20.595   5.814   0.487
49537W        W21962  20.819  30.143  11.738
49538W        W21963  39.073   0.725  13.927
49539W        W21964   4.520   4.506   2.608
49540W        W21965  16.691  40.232   4.756
49541W        W21966  34.190  36.685  10.985
49542W        W21967  12.207  32.359  11.994
49543W        W21968  35.727  11.728   0.414
49544W        W21969  18.645  18.323   0.364
49545W        W21970  27.991  22.064   3.887
49546W        W21971  10.882  23.750  10.140
49547W        W21972   1.386  10.368  10.433
49548W        W21973   4.727  39.696  13.433
49549W        W21974   3.243   2.292  11.014
49550W        W21975   8.287  36.959   3.046
49551W        W21976   7.461  35.139  12.082
49552W        W21977  20.302   9.957  12.535
49553W        W21978   9.242  42.740  13.629
49554W        W21979  36.867   0.244   4.111
49555W        W21980  35.936  37.011   3.786
49556W        W21981  28.877  42.372  12.988
49557W        W21982  32.443  38.243  14.832
49558W        W21983   5.805   5.750   2.192
49559W        W21984   2.313  29.163   2.235
49560W        W21985  35.260  29.959   4.592
49561W        W21986  44.809  15.246   3.972
49562W        W21987   9.405  29.396   2.169
49563W        W21988  40.534   8.669   1.757
49564W        W21989  36.073  37.826  12.181
49565W        W21990  30.052  42.682   1.838
49566W        W21991  40.443  13.596   3.666
49567W        W21992  30.377  44.600  10.700
49568W        W21993  15.279  36.814  10.804
49569W        W21994  35.192  10.195  10.092
49570W        W21995  37.253  21.557   4.109
49571W        W21996   8.663  19.286   4.203
49572W        W21997   6.644  26.128  12.389
49573W        W21998  14.690   2.341   5.101
49574W        W21999  26.642  30.506  14.883
49575W        W22000  19.117  39.998  10.620
49576W        W22001  15.273  39.262  12.367
49577W        W22002  33.943  40.944   4.258
49578W        W22003   8.466  28.907   1.307
49579W        W22004   5.402  35.917  11.916
49580W        W22005  24.379  17.000   2.374
49581W        W22006  16.594  22.663   2.110
49582W        W22007  39.068   2.967   3.021
49583W        W22008  42.436   6.371   3.686
49584W        W22009  22.608  16.227  10.161
49585W        W22010  33.907   1.093  13.800
49586W        W22011  38.991  33.855   1.775
49587W        W22012   2.318  21.182   1.483
49588W        W22013   7.005  24.639  12.819
49589W        W22014  34.975  34.582   3.229
49590W        W22015  15.127   7.178   4.325
49591W        W22016  11.271   2.413   4.167
49592W        W22017  43.488  12.662  13.586
49593W        W22018  39.860   2.925  13.825
49594W        W22019  35.564  24.172  12.633
49595W        W22020  37.515  19.272  12.547
49596W        W22021  21.572   0.343  11.493
49597W        W22022   6.771   2.773  14.443
49598W        W22023  25.204  22.149   3.764
49599W        W22024  33.986  27.624   3.202
49600W        W22025  34.348  36.911   4.183
49601W        W22026  26.977  19.615  12.431
49602W        W22027  22.460  23.666   2.741
49603W        W22028   8.642  15.180  14.453
49604W        W22029   7.946  34.449  14.691
49605W        W22030  32.138  36.041   1.840
49606W        W22031  33.168   2.536   4.223
49607W        W22032   6.351  40.259  14.942
49608W        W22033  44.837  44.578  12.995
49609W        W22034   4.786   1.443  14.467
49610W        W22035  10.120  32.807   3.837
49611W        W22036  36.407  29.596   4.416
49612W        W22037  16.617  20.213  14.003
49613W        W22038  10.643  18.370   4.128
49614W        W22039  38.319   4.260  12.551
49615W        W22040  28.566  19.540  13.996
49616W        W22041  42.938  42.737   0.732
49617W        W22042  28.216  22.260  13.778
49618W        W22043  14.894  14.953  11.968
49619W        W22044  12.644  31.279  11.437
49620W        W22045  26.030  13.801   1.391
49621W        W22046  32.549  26.783  13.858
49622W        W22047  38.723   9.224   1.460
49623W        W22048  35.390  11.127   1.205
49624W        W22049  42.514   0.543   0.234
49625W        W22050  25.764  12.076  10.669
49626W        W22051   4.394   0.751   4.380
49627W        W22052  29.131   7.333  11.531
49628W        W22053   6.568  12.377  11.188
49629W        W22054  16.378  25.954  12.870
49630W        W22055  27.575  28.618   1.209
49631W        W22056  22.639  15.557  10.500
49632W        W22057  38.957   6.683  13.326
49633W        W22058   5.362  19.117   1.241
49634W        W22059   8.926  14.520  10.573
49635W        W22060  39.775  25.748  14.074
49636W        W22061  15.268  31.905   5.156
49637W        W22062   5.040  38.308  14.845
49638W        W22063  22.606  37.180   5.125
49639W        W22064  18.196  14.118  13.049
49640W        W22065   9.370  11.768   1.951
49641W        W22066   1.432  37.921  10.366
49642W        W22067  37.031  26.479   2.302
49643W        W22068  38.390  16.571  10.441
49644W        W22069  21.524   9.864   1.480
49645W        W22070  43.860  35.838   3.130
49646W        W22071  25.799   7.141  10.058
49647W        W22072  40.480  40.960   3.808
49648W        W22073  44.346  38.908   1.655
49649W        W22074  10.808  40.778   3.306
49650W        W22075  10.820  25.574  11.432
49651W        W22076   5.837  16.001   3.727
49652W        W22077   6.810  29.903   0.477
49653W        W22078  23.499  35.863   1.319
49654W        W22079  44.882  25.952   3.328
49655W        W22080  34.432  32.648   3.304
49656W        W22081   2.501  13.621   1.744
49657W        W22082  30.958  36.712   0.929
49658W        W22083   0.301  11.087   1.358
49659W        W22084  11.185  39.247  11.547
49660W        W22085   8.368  12.687  10.716
49661W        W22086   6.223  28.232  13.859
49662W        W22087  24.722  17.773  11.601
49663W        W22088  26.248   0.711  13.977
49664W        W22089   4.715  43.794   0.865
49665W        W22090  39.802  12.204   1.456
49666W        W22091   7.815   6.258  14.037
49667W        W22092   6.096   4.409  12.691
49668W        W22093  18.032  41.565   2.288
49669W        W22094  40.492  29.849   4.938
49670W        W22095   6.914   0.906  13.984
49671W        W22096   4.360   8.449   4.771
49672W        W22097  16.142   2.087   2.450
49673W        W22098  10.378  23.018   2.286
49674W        W22099  23.054  40.242  12.512
49675W        W22100   0.803  31.624  11.094
49676W        W22101  12.088  37.570  14.422
49677W        W22102  37.258  27.768  12.119
49678W        W22103   4.343  37.105  11.112
49679W        W22104  23.844   6.772   3.163
49680W        W22105  19.779  42.934   2.744
49681W        W22106  10.715  12.968   3.690
49682W        W22107   6.394  35.617   4.574
49683W        W22108  33.410  10.784   0.349
49684W        W22109  10.259  34.117   4.787
49685W        W22110  25.458  42.995  14.733
49686W        W22111  27.663  25.023   3.842
49687W        W22112  17.233  13.964  14.791
49688W        W22113  14.920   4.932  11.012
49689W        W22114  32.530  15.947   1.242
49690W        W22115  16.216  18.798  12.333
49691W        W22116   7.382  40.605   4.284
49692W        W22117  22.375  12.057   1.832
49693W        W22118  41.368  16.397   3.184
49694W        W22119  29.072  27.905   1.684
49695W        W22120  30.680  17.670   2.874
49696W        W22121   5.718  34.371  12.633
49697W        W22122  18.574  24.563   2.718
49698W        W22123  24.942  27.005   2.818
49699W        W22124   8.272  42.471  14.400
49700W        W22125  29.132  42.679   3.192
49701W        W22126  28.636  20.595  11.054
49702W        W22127  11.340  22.019   0.471
49703W        W22128  31.078   7.369   1.754
49704W        W22129   6.358  11.649  11.144
49705W        W22130   0.734  39.039  11.265
49706W        W22131   4.732  42.947   1.991
49707W        W22132   8.014  38.808  10.683
49708W        W22133  43.830  11.751   1.347
49709W        W22134  42.037  38.554   4.284
49710W        W22135  11.792  19.809  13.448
49711W        W22136  28.684  38.044  14.600
49712W        W22137  12.732   0.392   0.796
49713W        W22138  33.775  17.110   0.921
49714W        W22139   3.422  30.205  10.364
49715W        W22140   2.720   0.779  12.026
49716W        W22141  16.278  26.252   2.747
49717W        W22142   5.365  36.625  13.544
49718W        W22143  41.367   7.892   4.173
49719W        W22144  24.953  41.282  12.722
49720W        W22145  24.324  40.275   4.141
49721W        W22146  17.100  34.922   2.287
49722W        W22147   4.011  12.243  12.042
49723W        W22148   1.551   2.188   4.677
49724W        W22149  14.506  36.918  11.177
49725W        W22150   1.328   0.495   0.873
49726W        W22151   0.745   6.285  11.906
49727W        W22152   9.414  27.213  13.797
49728W        W22153  14.318  38.466  14.250
49729W        W22154  37.895  30.082   4.877
49730W        W22155  35.524  42.107  14.431
49731W        W22156   7.786  21.567   0.822
49732W        W22157  27.188  32.978   3.338
49733W        W22158  11.237  16.066  13.148
49734W        W22159  30.976  32.049   2.222
49735W        W22160   4.268  43.735   1.590
49736W        W22161  32.196  31.157   1.767
49737W        W22162  13.679   8.675   3.679
49738W        W22163  20.046  14.302  11.191
49739W        W22164  16.873  27.097   4.034
49740W        W22165  27.094  35.392   2.675
49741W        W22166  27.244  36.520   0.188
49742W        W22167  19.499   7.475   0.238
49743W        W22168  40.852  35.810   3.103
49744W        W22169  23.110  16.237   0.286
49745W        W22170  36.626  43.431   2.839
49746W        W22171  13.265   0.969   3.619
49747W        W22172  32.129  13.629   1.429
49748W        W22173   5.137  42.914  11.222
49749W        W22174  27.262  43.890   0.058
49750W        W22175   2.229   4.690  12.460
49751W        W22176  28.574  27.928  11.260
49752W        W22177   5.007  43.460  13.125
49753W        W22178  32.817  17.750  13.063
49754W        W22179   6.168   3.958  12.979
49755W        W22180   6.710  44.744   0.498
49756W        W22181  11.855  23.771  12.080
49757W        W22182  28.228  41.379   9.768
49758W        W22183  10.648  38.282   2.270
49759W        W22184  36.188   9.688  13.460
49760W        W22185   0.556  44.697   3.224
49761W        W22186  16.024  25.389   2.844
49762W        W22187  44.869   8.694  12.859
49763W        W22188   0.277  44.311  13.922
49764W        W22189  28.614  37.014   2.162
49765W        W22190  37.543  41.483   1.899
49766W        W22191  18.832  39.320   1.466
49767W        W22192  27.485  10.711  10.703
49768W        W22193   5.901  21.463   2.309
49769W        W22194  37.331  22.664   1.050
49770W        W22195  28.986   2.945  14.104
49771W        W22196  37.528  17.884  11.177
49772W        W22197   9.038  40.796   2.323
49773W        W22198  17.751   5.658  14.982
49774W        W22199  43.376  42.359  14.843
49775W        W22200   9.240  29.283  12.436
49776W        W22201   2.000  18.350  13.847
49777W        W22202  17.802  41.977   4.023
49778W        W22203   2.829   7.664   1.878
49779W        W22204  17.552  18.853   1.853
49780W        W22205  16.773  42.781   2.460
49781W        W22206   9.941  18.519   1.019
49782W        W22207  36.445  24.590  10.756
49783W        W22208  30.219   5.872  11.153
49784W        W22209  28.916  16.123  12.340
49785W        W22210  12.224  30.696  12.543
49786W        W22211  22.661  42.404  10.465
49787W        W22212  35.050  23.710  13.132
49788W        W22213  22.528  36.922  12.208
49789W        W22214   1.809  39.329  12.024
49790W        W22215  30.096  14.440  13.989
49791W        W22216  17.451   8.054   2.837
49792W        W22217   3.207  23.718  14.727
49793W        W22218   5.331   3.558  13.309
49794W        W22219  24.477  38.097  13.466
49795W        W22220  20.711  11.217  12.088
49796W        W22221  23.792  10.001  11.813
49797W        W22222  40.048  29.112  13.884
49798W        W22223  17.838  20.007   4.111
49799W        W22224  24.361   6.206  13.897
49800W        W22225  26.400  38.538   3.612
49801W        W22226  38.791  22.776  10.217
49802W        W22227  40.014  34.079   2.681
49803W        W22228  26.700  32.500  14.376
49804W        W22229  14.305  21.964   5.414
49805W        W22230  39.258  24.524   2.891
49806W        W22231   5.461  29.143  14.892
49807W        W22232   1.305  27.774  14.801
49808W        W22233  41.920  17.220   1.972
49809W        W22234  30.424  43.234  11.624
49810W        W22235  21.094  37.618  10.651
49811W        W22236  43.452  30.206   1.155
49812W        W22237  42.553  13.157   0.575
49813W        W22238  15.190  38.567   4.055
49814W        W22239  39.895  28.605   1.650
49815W        W22240  22.794   3.776   4.582
49816W        W22241  12.762  30.633  12.466
49817W        W22242   2.810   9.962  12.122
49818W        W22243  34.369  22.221   4.002
49819W        W22244  40.140  33.089  11.860
49820W        W22245  22.115  35.650  13.110
49821W        W22246  22.007   5.677   0.875
49822W        W22247  29.081  12.591  10.534
49823W        W22248  40.875   6.739  14.496
49824W        W22249  10.548  29.105   4.225
49825W        W22250  17.013  29.358   2.326
49826W        W22251  31.112  28.612  13.115
49827W        W22252  35.539   2.969  13.212
49828W        W22253  19.531  22.547  10.579
49829W        W22254  15.594  41.560  14.380
49830W        W22255  30.306   7.193   2.860
49831W        W22256  39.487   0.255  11.633
49832W        W22257  16.377  17.284   3.822
49833W        W22258  25.292  39.873  11.565
49834W        W22259  33.673  17.220   2.143
49835W        W22260  23.255   9.707   4.535
49836W        W22261  27.386  42.379  11.082
49837W        W22262   5.266   2.779  14.638
49838W        W22263  24.718  19.617   5.031
49839W        W22264  30.951  17.184   4.478
49840W        W22265   4.800  26.446   3.336
49841W        W22266   4.925  29.378  14.071
49842W        W22267  33.569  28.479  10.855
49843W        W22268  42.899  15.781  13.419
49844W        W22269  21.972  28.961  13.597
49845W        W22270  34.466  23.215   3.649
49846W        W22271  12.323  34.010  10.652
49847W        W22272  11.683  30.549  14.652
49848W        W22273  15.636  15.373   0.272
49849W        W22274  44.294  22.265   1.770
49850W        W22275  29.964   8.295  10.726
49851W        W22276  27.578   8.662   4.577
49852W        W22277  32.768   1.789   4.863
49853W        W22278  33.435   7.898  13.097
49854W        W22279  42.516  32.388  10.588
49855W        W22280   4.520   0.269  11.119
49856W        W22281  29.998  26.032   0.391
49857W        W22282   1.019  13.326   3.311
49858W        W22283  25.951  31.514  10.670
49859W        W22284  22.979   3.053   2.048
49860W        W22285   4.720  28.137  10.318
49861W        W22286  25.750  37.498  12.885
49862W        W22287  44.790   4.065  12.399
49863W        W22288  12.193  40.380  14.232
49864W        W22289  14.704  28.075  12.598
49865W        W22290  35.223   1.381   3.269
49866W        W22291  10.787  14.356   5.298
49867W        W22292  35.019   1.412   1.849
49868W        W22293  20.169  31.504  10.760
49869W        W22294  23.655  15.997   4.224
49870W        W22295   4.271  32.134  10.674
49871W        W22296  28.628  29.394  14.031
49872W        W22297  26.577  21.998   4.116
49873W        W22298  11.697  37.015  12.908
49874W        W22299  10.106  16.086   0.750
49875W        W22300  41.822  37.156  14.125
49876W        W22301  37.711  37.936   3.623
49877W        W22302   3.817  38.103  13.074
49878W        W22303  43.828  29.883   4.169
49879W        W22304  20.278  20.180   0.802
49880W        W22305  30.515   4.237  13.494
49881W        W22306  39.559  38.609   4.842
49882W        W22307  34.542   8.299   3.599
49883W        W22308  27.501  25.574  14.864
49884W        W22309  34.951  17.083  14.409
49885W        W22310   4.264  21.875  13.870
49886W        W22311  40.291  37.859  10.977
49887W        W22312  11.646  13.918   0.840
49888W        W22313  14.597  25.518  11.555
49889W        W22314  36.285  30.613  12.935
49890W        W22315  18.748  40.350   1.152
49891W        W22316  14.504  14.793  14.384
49892W        W22317  36.993  12.819   4.086
49893W        W22318  18.882  27.491   3.853
49894W        W22319  20.523   2.384   0.364
49895W        W22320  13.065  28.240  12.959
49896W        W22321  20.949  17.145   5.019
49897W        W22322  35.549   8.766   5.451
49898W        W22323  13.820  14.398   0.356
49899W        W22324  13.309  15.059  11.955
49900W        W22325  24.219  31.556   1.050
49901W        W22326  31.874   2.206  11.621
49902W        W22327  25.414  33.546  14.758
49903W        W22328   5.185  19.731   3.517
49904W        W22329  34.514  43.313   3.597
49905W        W22330   7.371  18.120  12.580
49906W        W22331  19.842  35.059   0.382
49907W        W22332  13.780  19.837   2.859
49908W        W22333  14.516  39.349  10.702
49909W        W22334  33.516  12.975   0.235
49910W        W22335  30.197  15.814   0.319
49911W        W22336  23.623  10.122  14.818
49912W        W22337   4.116   0.678  14.795
49913W        W22338  28.799  33.208  14.251
49914W        W22339   8.605  32.617  14.317
49915W        W22340  16.744   9.469  12.082
49916W        W22341  21.087   0.504  14.026
49917W        W22342  12.426   5.172   1.519
49918W        W22343  13.252  25.204  10.776
49919W        W22344   0.759  31.223   2.986
49920W        W22345  44.688   4.887   1.997
49921W        W22346  18.679  37.150   4.276
49922W        W22347  18.688  14.294   3.073
49923W        W22348  42.330  13.076  13.844
49924W        W22349  13.003  19.773  12.522
49925W        W22350   5.372  21.494  14.288
49926W        W22351  16.690  22.266   2.935
49927W        W22352   6.219  38.392   1.972
49928W        W22353  24.329  39.277  11.915
49929W        W22354  41.694  40.365  10.736
49930W        W22355  17.681  16.133  12.158
49931W        W22356   0.701   4.726  14.848
49932W        W22357  41.569  16.580  13.434
49933W        W22358  25.036  21.157  12.117
49934W        W22359  30.883  42.486  11.620
49935W        W22360  15.150   2.987   4.635
49936W        W22361  28.206  32.429  12.975
49937W        W22362  22.588  28.563   4.627
49938W        W22363   3.352  38.379   0.254
49939W        W22364  33.887   8.943   2.078
49940W        W22365  10.658   3.849  12.551
49941W        W22366  34.515  29.229  12.012
49942W        W22367   7.160  21.325   2.699
49943W        W22368   5.837  11.412   4.885
49944W        W22369  23.665  23.989  14.353
49945W        W22370  29.263  30.439  13.987
49946W        W22371  17.673  43.551   3.639
49947W        W22372  38.515  12.911   2.646
49948W        W22373  27.368  39.030  11.634
49949W        W22374  29.141  28.166   2.172
49950W        W22375  38.236   5.973   3.749
49951W        W22376  30.481   8.412   0.861
49952W        W22377  24.262  17.587   4.960
49953W        W22378   4.785  21.210   1.783
49954W        W22379  16.980  38.442   3.745
49955W        W22380  34.851  39.057  14.497
49956W        W22381   1.873  21.739  11.149
49957W        W22382  27.550  12.086   0.528
49958W        W22383  15.596  17.643  10.759
49959W        W22384  14.535  16.392   4.226
49960W        W22385  16.070  39.584  12.080
49961W        W22386  27.210  21.656   3.739
49962W        W22387  19.525   4.218  14.324
49963W        W22388  10.631  43.759   1.430
49964W        W22389  18.443   0.689  14.551
49965W        W22390  30.575  34.506   1.727
49966W        W22391  37.513  26.940  14.257
49967W        W22392  20.628  18.371  10.742
49968W        W22393  34.102  23.106  11.187
49969W        W22394   5.304   1.941  14.019
49970W        W22395  24.515  31.884   4.874
49971W        W22396  16.091  37.407   3.623
49972W        W22397  38.065   3.480  11.514
49973W        W22398   3.869  44.011   4.507
49974W        W22399  22.225   5.365   4.597
49975W        W22400   4.238   9.620  14.905
49976W        W22401  41.470   9.773   2.175
49977W        W22402  37.855  24.558   4.506
49978W        W22403  43.487  22.806  14.444
49979W        W22404  21.404  32.448  13.803
49980W        W22405  31.969  28.076  11.105
49981W        W22406  32.379  27.871  10.324
49982W        W22407  32.482  38.015   2.424
49983W        W22408  12.112   6.136  13.604
49984W        W22409  35.047  13.723   2.823
49985W        W22410  26.206  18.084  10.833
49986W        W22411  30.101   6.095   4.571
49987W        W22412   0.394  13.417  10.738
49988W        W22413  28.166  40.200  14.485
49989W        W22414  21.179  40.052   0.373
49990W        W22415   4.140   2.882   3.149
49991W        W22416  44.010  18.187   0.928
49992W        W22417  18.514  36.180   2.738
49993W        W22418   7.475  18.055  12.071
49994W        W22419  17.018  19.980  12.859
49995W        W22420  32.895  35.312  11.689
49996W        W22421  37.964  19.797   1.973
49997W        W22422  33.333  16.184  10.388
49998W        W22423  33.706  25.766  12.094
49999W        W22424  19.148  19.564  13.522
50000W        W22425  20.222  12.355   2.800
50001W        W22426  13.264  34.831  11.694
50002W        W22427   9.404  35.394   3.666
50003W        W22428  24.465  24.837  12.469
50004W        W22429  17.602  15.039   2.674
50005W        W22430  10.175  10.356   3.088
50006W        W22431  36.411  16.573  11.622
50007W        W22432   2.959  17.735   4.748
50008W        W22433   9.279  44.319   3.782
50009W        W22434   1.736  29.483  10.687
50010W        W22435   5.350   1.750  13.557
50011W        W22436   3.846  23.722   3.330
50012W        W22437  29.891  24.176  11.673
50013W        W22438  36.753  13.205  11.997
50014W        W22439   2.388  19.517  11.077
50015W        W22440  41.487  44.030  14.553
50016W        W22441  21.219  15.830  12.448
50017W        W22442  26.136  32.011  10.586
50018W        W22443  16.736  24.237  13.826
50019W        W22444  19.474  43.292  11.527
50020W        W22445  15.565  24.276   4.934
50021W        W22446   0.959  22.230  10.458
50022W        W22447   9.110  31.410   4.655
50023W        W22448  10.819  21.252   2.185
50024W        W22449   3.369   3.766   0.410
50025W        W22450  16.909  30.104  13.573
50026W        W22451  26.771   4.709  10.675
50027W        W22452   6.401   7.522  11.577
50028W        W22453   1.282   6.451  13.514
50029W        W22454  30.302  22.840  14.756
50030W        W22455  10.871  27.447   0.020
50031W        W22456  43.070  39.142   3.822
50032W        W22457  19.128   5.692   2.653
50033W        W22458  24.213  38.528   1.418
50034W        W22459  24.209   6.171   4.567
50035W        W22460  40.016  34.631   2.698
50036W        W22461  20.601  28.402   1.454
50037W        W22462  43.399  35.383  10.516
50038W        W22463  18.216   1.838   1.584
50039W        W22464  42.520  40.384  11.046
50040W        W22465  21.767  43.511   4.799
50041W        W22466   2.048  12.965  11.859
50042W        W22467   7.181  19.335  14.322
50043W        W22468   7.824  11.892   1.312
50044W        W22469   5.161   8.609  12.818
50045W        W22470   4.028  33.936   0.286
50046W        W22471  15.470  18.838   3.238
50047W        W22472  20.796  27.935   1.398
50048W        W22473   5.270  37.300  12.314
50049W        W22474  34.117  10.741   0.902
50050W        W22475  11.158  41.825  12.869
50051W        W22476  16.157  39.437   2.257
50052W        W22477  15.309  20.538  13.970
50053W        W22478   6.666  15.866  11.676
50054W        W22479   2.027   2.426   0.233
50055W        W22480   8.354  33.391   3.546
50056W        W22481   4.967   0.440  13.858
50057W        W22482  22.203  16.466  14.295
50058W        W22483  40.402  19.173  14.949
50059W        W22484   5.383   0.814   1.187
50060W        W22485  19.141  31.592  13.967
50061W        W22486  29.976  13.635  12.801
50062W        W22487  20.154   2.893   1.008
50063W        W22488  23.328   2.501   0.925
50064W        W22489  25.636   8.726   2.002
50065W        W22490  36.525  42.854  10.871
50066W        W22491  35.467  28.741  13.482
50067W        W22492  36.776   0.604  13.238
50068W        W22493  34.843  15.623   4.259
50069W        W22494  37.159  30.786  11.936
50070W        W22495  43.569  25.648  13.471
50071W        W22496   0.427   8.076  11.821
50072W        W22497  39.304  18.663  11.867
50073W        W22498  17.332  26.545  11.549
50074W        W22499  40.902  33.919  11.048
50075W        W22500   8.226   6.943   0.302
50076W        W22501  34.045  44.761   0.755
50077W        W22502   3.743  11.782  10.005
50078W        W22503  28.154  22.143   5.254
50079W        W22504  31.458  12.325  13.789
50080W        W22505  11.767  15.294   2.814
50081W        W22506   6.919   5.674   3.308
50082W        W22507  43.045  19.444  11.211
50083W        W22508  37.167  13.174  13.779
50084W        W22509   2.844  13.380   2.808
50085W        W22510  21.224   6.143  10.784
50086W        W22511  36.575  29.663   3.609
50087W        W22512  37.008  22.975  11.519
50088W        W22513  31.459  18.538   4.048
50089W        W22514  39.653  17.386   2.372
50090W        W22515  23.266  42.169  13.392
50091W        W22516  42.006  30.658  14.142
50092W        W22517  14.115   1.166   0.735
50093W        W22518  29.639   9.668  14.076
50094W        W22519   8.674   0.271  10.740
50095W        W22520   9.529   4.944   2.359
50096W        W22521  20.916  29.419   4.505
50097W        W22522  20.949  17.639   3.744
50098W        W22523  43.817   3.871  12.239
50099W        W22524   4.534  18.728   1.231
50100W        W22525  18.639  40.422   4.546
50101W        W22526  22.712   3.201   0.810
50102W        W22527  40.812   2.189   4.788
50103W        W22528  36.571   0.690   4.196
50104W        W22529  44.980  27.141  14.314
50105W        W22530  37.888  13.516  11.354
50106W        W22531  21.298  42.745   0.972
50107W        W22532  10.215  40.661  14.391
50108W        W22533  20.469  18.740  11.138
50109W        W22534  11.036   2.898   1.653
50110W        W22535  11.197  22.525   5.434
50111W        W22536  27.053  25.715  13.032
50112W        W22537   9.132  35.865   0.589
50113W        W22538  11.212  23.263  14.462
50114W        W22539  42.874  37.546   0.425
50115W        W22540   0.359  37.353   2.743
50116W        W22541  15.848  19.976   3.695
50117W        W22542  19.303  28.865   2.401
50118W        W22543   1.138  34.506  13.912
50119W        W22544  40.413  19.574   1.312
50120W        W22545  21.609  34.580   3.331
50121W        W22546  33.828   9.180   4.902
50122W        W22547  32.514   4.862   3.135
50123W        W22548   0.567  15.492   1.997
50124W        W22549  41.760  19.989  14.558
50125W        W22550  42.859  38.920   2.236
50126W        W22551   1.484   7.679   3.430
50127W        W22552   2.880  41.436   3.395
50128W        W22553   4.089  39.319   0.941
50129W        W22554  42.760  38.457  13.922
50130W        W22555  20.746  40.790  10.349
50131W        W22556  27.687  40.226   3.695
50132W        W22557  15.867  36.009   4.114
50133W        W22558   2.281   6.657   0.815
50134W        W22559  16.650  30.336   1.686
50135W        W22560   9.315   5.401  13.856
50136W        W22561  43.775  39.856  12.397
50137W        W22562  39.500  26.706  14.848
50138W        W22563  17.567  25.236   1.874
50139W        W22564  42.431   6.300   2.140
50140W        W22565  18.032  40.456  14.040
50141W        W22566   3.317  40.080   0.259
50142W        W22567   4.815  16.702   4.111
50143W        W22568  44.288  18.664  10.619
50144W        W22569  13.475  18.798   2.783
50145W        W22570  40.919   7.907  14.463
50146W        W22571  13.754  41.286   3.238
50147W        W22572   6.288  20.330  14.921
50148W        W22573  31.689   8.730   0.264
50149W        W22574  37.398  39.449   4.499
50150W        W22575  39.786  35.283  10.687
50151W        W22576  40.920  30.786   0.111
50152W        W22577  42.420  30.415   1.978
50153W        W22578  11.394  38.788  11.531
50154W        W22579  28.699   9.075  12.241
50155W        W22580  23.720  22.587   4.765
50156W        W22581  21.123   7.676  13.003
50157W        W22582  12.362  38.370  14.366
50158W        W22583  11.781  12.684   9.929
50159W        W22584  41.290  36.411   1.325
50160W        W22585  14.167  40.889  10.492
50161W        W22586  42.577  21.055  11.949
50162W        W22587  42.426  10.865  14.342
50163W        W22588   5.017   6.738   0.074
50164W        W22589  22.062  44.470   3.853
50165W        W22590  35.873  37.509   0.346
50166W        W22591  18.177   5.885   0.750
50167W        W22592  26.486  31.855   1.792
50168W        W22593  12.285   3.177   5.048
50169W        W22594  15.118  18.028   4.567
50170W        W22595  18.910  35.818   2.405
50171W        W22596  17.051   3.726  13.050
50172W        W22597   7.270  36.136   0.831
50173W        W22598  40.435   5.727   1.297
50174W        W22599   9.210  38.012   3.188
50175W        W22600   1.722  36.963  14.318
50176W        W22601  24.189  14.148   4.348
50177W        W22602  22.037  33.361  11.731
50178W        W22603  22.710  42.473   3.391
50179W        W22604  25.078  31.406  11.116
50180W        W22605  16.717   4.245  13.342
50181W        W22606  11.165  25.922   4.648
50182W        W22607  26.139  37.398   0.279
50183W        W22608  27.868  39.748   3.626
50184W        W22609  22.350   2.934  12.191
50185W        W22610  12.237   8.468   4.717
50186W        W22611  10.551  38.492   0.916
50187W        W22612  13.185   9.732  10.658
50188W        W22613   8.165  27.696   0.799
50189W        W22614  12.565  43.313  11.466
50190W        W22615   1.888   6.703   1.354
50191W        W22616  19.228  28.218  12.530
50192W        W22617  14.101  18.182  11.623
50193W        W22618   5.490  12.716  13.644
50194W        W22619  35.750   3.307   2.984
50195W        W22620  27.829  36.443  11.933
50196W        W22621  38.420  27.624  14.788
50197W        W22622  27.558  43.048  13.535
50198W        W22623  36.563  26.875  13.374
50199W        W22624   5.658  31.705   0.888
50200W        W22625  26.444  42.062  11.106
50201W        W22626  26.144  42.751   4.240
50202W        W22627  35.503  35.423  13.354
50203W        W22628   6.649  36.077   2.815
50204W        W22629  16.725  15.396   4.084
50205W        W22630   9.336  40.891   1.926
50206W        W22631  40.295   4.980   1.210
50207W        W22632  21.015  22.054   2.770
50208W        W22633  17.254  16.387  14.320
50209W        W22634  18.574  34.137  10.102
50210W        W22635  16.709  30.891   2.322
50211W        W22636  22.018   7.684   4.060
50212W        W22637  42.260  22.774  13.263
50213W        W22638  31.672  34.382   1.722
50214W        W22639  21.974  43.055   3.260
50215W        W22640  42.845  44.983  13.583
50216W        W22641   2.881  40.376   0.060
50217W        W22642  31.457  16.707  11.124
50218W        W22643   3.113   0.383  14.766
50219W        W22644  26.531  18.701  13.054
50220W        W22645  24.014   1.738   2.679
50221W        W22646  35.607  20.710   0.861
50222W        W22647  11.832  15.581  12.113
50223W        W22648   1.607  29.552  13.278
50224W        W22649   9.734  36.112   0.286
50225W        W22650  33.145  11.397   3.355
50226W        W22651  21.538  41.088  12.045
50227W        W22652  32.175  11.119   3.772
50228W        W22653   5.672  21.574  10.378
50229W        W22654   5.886  37.807   3.071
50230W        W22655  22.777  36.889  13.067
50231W        W22656  43.056  12.643   0.969
50232W        W22657  19.224  29.686  12.949
50233W        W22658  29.127  29.721  12.080
50234W        W22659  15.692   3.546  12.138
50235W        W22660  38.071  36.848   2.194
50236W        W22661  13.045  24.656   3.814
50237W        W22662  33.498  10.305  13.243
50238W        W22663  20.620  27.979  13.506
50239W        W22664  17.597  13.188   1.913
50240W        W22665  36.601  12.230  13.515
50241W        W22666  17.516  25.070  12.987
50242W        W22667  33.497  19.707  11.608
50243W        W22668  33.334  34.608   3.394
50244W        W22669  15.164   3.690  10.565
50245W        W22670  13.870  32.532  11.540
50246W        W22671   9.474  22.154   1.668
50247W        W22672   1.426  29.701   0.495
50248W        W22673  40.769  34.183   2.154
50249W        W22674  28.112   7.256  14.730
50250W        W22675   5.678  19.427  11.516
50251W        W22676  38.091  35.928   2.285
50252W        W22677  19.401  14.089   3.769
50253W        W22678  29.472   9.893   0.671
50254W        W22679  23.782  19.236   1.778
50255W        W22680  41.380  30.946   3.880
50256W        W22681  11.873  15.087   3.303
50257W        W22682  10.012  41.452  12.010
50258W        W22683  10.051  32.797   0.270
50259W        W22684  28.799   4.458  11.175
50260W        W22685  20.713  21.704   1.673
50261W        W22686   3.319  43.949  10.464
50262W        W22687  30.086  24.560  11.937
50263W        W22688  21.365  23.776   3.398
50264W        W22689  34.987  10.643  13.117
50265W        W22690  27.782  18.736   3.361
50266W        W22691  19.964  44.256  10.746
50267W        W22692  21.634  12.668  13.477
50268W        W22693   0.301  20.255   3.350
50269W        W22694   7.483   9.140  11.115
50270W        W22695  19.731  42.691  13.795
50271W        W22696  14.493  19.676  12.460
50272W        W22697  27.439  41.263  14.702
50273W        W22698  10.020  18.789  12.115
50274W        W22699  33.168  18.021   4.376
50275W        W22700  44.778  22.572   2.332
50276W        W22701  25.882   5.225  11.156
50277W        W22702  17.121  22.099   0.570
50278W        W22703  27.524  22.457  13.412
50279W        W22704  26.114   4.101  10.694
50280W        W22705  33.005  19.864   0.587
50281W        W22706  39.680  42.775   3.796
50282W        W22707   3.652  33.671  13.774
50283W        W22708  39.793  34.751  10.788
50284W        W22709  12.855  28.924  12.454
50285W        W22710  44.317   3.727  14.132
50286W        W22711   6.763   3.863   2.093
50287W        W22712  20.799  10.788   3.042
50288W        W22713  34.264  26.632   3.637
50289W        W22714  40.374  44.496  11.468
50290W        W22715  32.833  24.766   1.336
50291W        W22716  38.307  27.681   1.229
50292W        W22717   2.892  33.552   1.158
50293W        W22718  43.886  19.509   1.279
50294W        W22719   4.164  16.389   4.196
50295W        W22720   8.625  39.121  14.883
50296W        W22721  29.364  43.840  11.062
50297W        W22722   2.713  40.490  11.136
50298W        W22723  24.653  39.900  14.339
50299W        W22724  21.382   5.396  11.488
50300W        W22725  20.682  21.912  14.327
50301W        W22726   7.287   3.445  13.051
50302W        W22727  23.954   2.023   2.248
50303W        W22728  20.601  19.497   3.289
50304W        W22729  43.269  12.406  11.849
50305W        W22730   5.902   8.748   1.956
50306W        W22731  36.063  13.267   1.261
50307W        W22732  32.160  15.728  10.619
50308W        W22733  12.150  36.536   4.047
50309W        W22734  12.834   8.737  12.443
50310W        W22735  35.373   4.108   3.801
50311W        W22736   3.972  39.174  14.326
50312W        W22737  10.300  29.715   3.727
50313W        W22738  29.197  14.260   3.302
50314W        W22739  17.540   5.655   3.618
50315W        W22740  40.491  44.334  14.286
50316W        W22741  28.967  35.416  13.610
50317W        W22742  23.220  28.621   0.873
50318W        W22743  40.494   4.297  11.251
50319W        W22744  29.662  23.755   0.265
50320W        W22745   4.302  38.451   4.336
50321W        W22746  18.316   9.892   3.533
50322W        W22747   4.750  12.784  12.904
50323W        W22748  22.617  34.376   0.359
50324W        W22749  36.014  16.031  11.570
50325W        W22750   6.921  44.952   2.816
50326W        W22751  22.620  12.389  11.152
50327W        W22752  23.732   3.107   4.807
50328W        W22753  18.627  24.836   1.700
50329W        W22754  12.811   6.934  14.879
50330W        W22755   6.311   4.440   1.029
50331W        W22756  42.996  32.980  14.878
50332W        W22757  24.940   1.737   1.436
50333W        W22758  39.070   0.738  13.035
50334W        W22759  23.080  44.219   1.850
50335W        W22760  33.114  16.739  13.095
50336W        W22761  21.313  10.430   2.832
50337W        W22762  25.587   3.445   1.761
50338W        W22763   9.963   3.909   1.147
50339W        W22764  12.097  13.861  13.627
50340W        W22765  16.127  20.845  14.264
50341W        W22766  17.351  30.804  12.221
50342W        W22767   9.726  14.523   0.488
50343W        W22768  26.132  11.872   3.362
50344W        W22769  23.757   5.895   1.899
50345W        W22770  26.124  24.948  13.830
50346W        W22771  35.553  22.269   1.640
50347W        W22772  13.656  44.250   1.816
50348W        W22773  20.945  40.570  12.907
50349W        W22774   4.702   0.519  12.550
50350W        W22775  11.096  29.060  10.398
50351W        W22776  23.927  14.262  12.022
50352W        W22777  14.550   9.727  12.517
50353W        W22778  30.725  20.623  11.100
50354W        W22779  37.099  28.175  13.233
50355W        W22780  37.415  44.543  14.522
50356W        W22781   0.857  35.523   1.691
50357W        W22782   2.297  33.071  13.348
50358W        W22783  32.344  20.173  10.661
50359W        W22784  26.427   7.483   2.250
50360W        W22785  33.843  26.245   2.619
50361W        W22786  22.472  39.496   2.138
50362W        W22787   2.822  42.178   2.728
50363W        W22788  37.333  42.091  14.437
50364W        W22789  29.692  12.894  13.137
50365W        W22790   0.707  18.041   1.313
50366W        W22791  44.057  20.082  12.856
50367W        W22792  25.770  24.549  13.947
50368W        W22793   0.226  44.198   2.238
50369W        W22794  43.054   0.801  12.874
50370W        W22795  42.534  40.523  12.418
50371W        W22796   3.352  21.951   4.594
50372W        W22797  37.923   4.172   0.818
50373W        W22798  32.528  41.427   0.757
50374W        W22799   7.839  34.427  12.463
50375W        W22800  39.445  26.656  10.707
50376W        W22801  11.077  43.769  13.837
50377W        W22802  20.669   8.722   4.394
50378W        W22803   2.821  44.048   4.310
50379W        W22804  30.111  32.505   4.152
50380W        W22805  35.572   4.402   0.399
50381W        W22806  16.746  22.286   2.426
50382W        W22807  29.386  37.693   2.091
50383W        W22808  12.011  33.868  11.990
50384W        W22809  22.470  22.560  10.708
50385W        W22810  23.512   2.045   0.769
50386W        W22811   7.190   3.742  14.325
50387W        W22812  24.937  28.584  10.618
50388W        W22813  27.564  42.275  14.828
50389W        W22814   9.147  21.058   3.776
50390W        W22815  41.959  33.957   3.020
50391W        W22816  17.395   6.329   0.471
50392W        W22817   4.903  22.710  10.679
50393W        W22818  31.674  23.897  13.733
50394W        W22819  41.288  40.286  11.028
50395W        W22820  41.383   7.113  11.246
50396W        W22821  20.232  28.993   3.285
50397W        W22822  21.179  38.497  10.221
50398W        W22823   9.141  30.968  13.104
50399W        W22824  34.586  28.036   3.804
50400W        W22825  37.451  22.157  14.213
50401W        W22826  20.576  12.954  11.527
50402W        W22827  36.888  15.479   2.769
50403W        W22828  23.546  13.525  11.120
50404W        W22829  24.665  24.461  11.486
50405W        W22830  13.267   6.734  14.963
50406W        W22831   1.062   6.330  11.484
50407W        W22832  22.057  38.488  10.788
50408W        W22833   6.752   8.965  10.696
50409W        W22834  44.813  13.167   2.148
50410W        W22835  34.877   2.418   4.441
50411W        W22836  33.191  23.083   0.708
50412W        W22837  25.112  35.517  11.906
50413W        W22838   1.389  14.541  11.848
50414W        W22839  35.036  30.175  10.438
50415W        W22840  21.275  37.822  13.051
50416W        W22841   4.707  44.428  13.918
50417W        W22842  44.061  24.120   0.878
50418W        W22843   1.808  29.125  12.840
50419W        W22844  43.838  28.590  10.968
50420W        W22845   3.202  23.267   4.556
50421W        W22846  41.544  14.633  13.878
50422W        W22847  17.771  15.533  14.728
50423W        W22848  40.532  32.881  14.018
50424W        W22849  37.144  22.212  10.715
50425W        W22850  38.196  38.383  11.555
50426W        W22851  37.355   4.051  14.485
50427W        W22852   8.198  40.988   2.408
50428W        W22853  40.046   5.720  13.459
50429W        W22854  30.162  32.135  11.354
50430W        W22855  33.178  28.123  12.218
50431W        W22856  31.015  28.470   4.669
50432W        W22857  11.354   3.276  11.128
50433W        W22858  16.865   0.343  10.815
50434W        W22859  43.961  36.315  13.781
50435W        W22860  10.234  14.473  11.454
50436W        W22861  30.263  31.175   2.279
50437W        W22862   0.991  25.738   0.239
50438W        W22863   2.534  35.608  12.948
50439W        W22864  11.169  19.234   2.272
50440W        W22865   9.376  20.112   3.113
50441W        W22866  20.151  26.003  13.568
50442W        W22867   8.649  17.618  12.472
50443W        W22868  40.486  33.939   3.675
50444W        W22869  14.182  19.688  10.657
50445W        W22870   6.036  43.656  11.034
50446W        W22871  43.807  19.038   2.730
50447W        W22872  14.581  20.438  13.439
50448W        W22873  17.791  20.982   3.246
50449W        W22874  43.921  39.027   3.749
50450W        W22875  29.637   8.395   1.743
50451W        W22876  28.136  34.995  12.906
50452W        W22877  11.186  26.220   3.338
50453W        W22878  38.801   6.799  12.851
50454W        W22879  18.971  27.438   2.826
50455W        W22880  15.607  12.719  11.635
50456W        W22881   1.922  26.924  13.415
50457W        W22882  27.287  38.324  14.394
50458W        W22883  29.906   1.306  13.343
50459W        W22884  33.839   2.716  13.920
50460W        W22885  37.149  41.519  12.535
50461W        W22886  40.102  24.991  10.186
50462W        W22887  27.571   4.313   4.667
50463W        W22888  16.705  20.344   0.414
50464W        W22889   5.760   8.118  12.515
50465W        W22890  34.163   1.256  11.197
50466W        W22891   5.655  20.373   3.124
50467W        W22892  39.695  22.905  10.943
50468W        W22893  27.041   5.762   1.840
50469W        W22894  29.034  40.392  10.435
50470W        W22895  40.013  36.424  14.737
50471W        W22896   6.280  18.602  12.294
50472W        W22897   2.316  20.611  11.432
50473W        W22898  27.647  34.266  11.280
50474W        W22899  19.828  22.760   3.144
50475W        W22900  34.535   3.187  13.049
50476W        W22901  18.256  43.360  11.127
50477W        W22902  42.487  41.833   3.741
50478W        W22903  27.318   9.723  10.611
50479W        W22904  28.167  18.575   4.555
50480W        W22905  29.005  43.916   0.470
50481W        W22906  37.479  13.894  11.003
50482W        W22907  15.227  44.322   4.171
50483W        W22908  20.895  28.902  11.459
50484W        W22909   4.447  40.037   4.736
50485W        W22910  31.025  24.475   1.884
50486W        W22911   6.944  31.872   0.628
50487W        W22912  19.573  22.221   0.038
50488W        W22913  11.749  25.561  11.203
50489W        W22914   9.413  21.569   4.256
50490W        W22915  35.493  40.984  12.376
50491W        W22916   9.311  20.451  13.555
50492W        W22917  30.086  22.530   3.574
50493W        W22918   6.134  13.577   3.251
50494W        W22919   5.246  32.504   1.128
50495W        W22920  14.695  38.998   0.936
50496W        W22921  31.541  26.677   0.871
50497W        W22922  16.698   0.872   0.064
50498W        W22923   2.273  42.899  14.815
50499W        W22924  10.146   1.505   1.255
50500W        W22925  22.585  10.428  12.746
50501W        W22926  42.328   6.653   1.171
50502W        W22927  31.600  11.410   1.686
50503W        W22928  15.367  12.425  13.755
50504W        W22929  33.427  34.669  14.914
50505W        W22930  28.113   1.852   1.129
50506W        W22931  32.908  40.328   0.751
50507W        W22932  41.248  37.217  11.941
50508W        W22933  42.573   5.305  14.487
50509W        W22934  21.478  16.678   0.035
50510W        W22935  26.297  13.114   2.471
50511W        W22936  30.101  15.268   0.788
50512W        W22937   9.181  27.770   0.267
50513W        W22938   6.777   9.221   4.443
50514W        W22939  18.284  16.053  12.591
50515W        W22940  34.391  15.863   4.174
50516W        W22941  23.243  43.793   3.660
50517W        W22942  41.902  41.316   4.618
50518W        W22943  15.796  39.229  11.586
50519W        W22944  22.594  22.260   4.177
50520W        W22945  29.410  21.475   1.401
50521W        W22946  40.421   5.903  10.669
50522W        W22947  11.279  43.791   2.774
50523W        W22948  35.667  25.595   1.653
50524W        W22949  18.249  36.506  12.499
50525W        W22950  39.625  13.468   4.204
50526W        W22951  38.807  14.788  10.649
50527W        W22952  40.370  10.726  11.768
50528W        W22953   1.438  42.821   5.036
50529W        W22954  38.499  13.958   1.916
50530W        W22955  19.207   1.326  14.902
50531W        W22956   1.329   8.569  12.913
50532W        W22957  17.260   6.727  13.525
50533W        W22958  17.691  28.994   0.262
50534W        W22959  40.685  20.163  10.781
50535W        W22960  24.802  43.079  14.404
50536W        W22961  20.348  41.906   0.445
50537W        W22962  14.113  14.774   4.197
50538W        W22963  31.626  21.589  13.883
50539W        W22964  19.651  27.917  12.612
50540W        W22965   3.642  40.687  11.176
50541W        W22966  17.314  13.830  11.966
50542W        W22967  29.336  37.532  12.201
50543W        W22968  10.778  42.525   2.927
50544W        W22969  11.734  30.911   0.512
50545W        W22970   0.836  28.428   2.198
50546W        W22971  28.322  44.488  11.062
50547W        W22972  42.215  28.880  12.477
50548W        W22973   4.231  25.065  12.882
50549W        W22974  24.749  28.224   1.210
50550W        W22975  19.209   8.519  12.332
50551W        W22976   4.506  42.015   0.963
50552W        W22977   4.416  41.305  14.803
50553W        W22978  25.022  41.770  12.598
50554W        W22979  39.363  23.804  13.735
50555W        W22980  33.061  10.717   0.750
50556W        W22981  14.614  29.061  10.425
50557W        W22982   2.839  29.019   4.490
50558W        W22983   1.113   2.804   2.274
50559W        W22984  28.745   5.062  12.795
50560W        W22985   7.259  21.145  13.786
50561W        W22986  26.743  16.179   3.211
50562W        W22987  43.078   5.464   0.797
50563W        W22988  39.565  32.165  14.851
50564W        W22989  29.101  39.331   2.133
50565W        W22990  19.284  42.055  11.534
50566W        W22991  22.932  44.003  14.964
50567W        W22992  31.227  21.942   1.788
50568W        W22993   0.713  11.789   2.227
50569W        W22994  38.618  20.663  14.863
50570W        W22995  15.778  36.316   3.690
50571W        W22996   7.864  42.228  11.045
50572W        W22997  22.442  43.714   3.133
50573W        W22998  31.523  31.106  12.013
50574W        W22999  14.390  32.245   5.344
50575W        W23000  43.327  33.915   0.361
50576W        W23001  37.999  37.668  10.252
50577W        W23002   2.672  40.307  12.841
50578W        W23003  18.079  14.414   3.387
50579W        W23004  34.651   6.917   1.779
50580W        W23005  29.028   9.829   4.185
50581W        W23006   8.887   5.128  14.836
50582W        W23007   5.175  27.353   0.765
50583W        W23008   1.522  37.985  13.250
50584W        W23009  14.701  43.337  12.588
50585W        W23010  30.113  10.656   2.063
50586W        W23011  18.720  40.273   3.651
50587W        W23012   0.184  10.099   4.544
50588W        W23013  14.768  12.918   2.410
50589W        W23014  23.726  28.511  14.293
50590W        W23015  25.728  44.153   2.847
50591W        W23016  42.509  23.144   5.227
50592W        W23017  10.631   9.669  12.132
50593W        W23018  35.367  14.054   4.969
50594W        W23019   7.832   0.879  13.313
50595W        W23020  42.330   7.608   1.305
50596W        W23021  36.501   7.214   1.711
50597W        W23022   6.903  34.424   1.798
50598W        W23023  17.632  32.955  11.124
50599W        W23024  32.067   9.546  11.556
50600W        W23025   9.050  31.033   1.931
50601W        W23026  28.423  11.238   2.271
50602W        W23027  25.470  25.988   3.661
50603W        W23028  17.937  31.855  13.323
50604W        W23029  40.519  34.625  12.987
50605W        W23030  21.113  10.876  11.035
50606W        W23031   2.261  36.093   0.882
50607W        W23032  29.016   7.447  14.786
50608W        W23033  38.959   4.695   4.527
50609W        W23034   5.783  12.750   4.874
50610W        W23035  23.054  21.638  14.840
50611W        W23036  15.147   3.255   2.759
50612W        W23037  34.688  29.035  13.401
50613W        W23038  12.746  32.928  14.959
50614W        W23039  23.483   2.141   3.379
50615W        W23040  43.094  35.962   4.057
50616W        W23041  19.748  38.614   3.011
50617W        W23042   0.816  18.712  13.407
50618W        W23043   4.503  36.328   3.457
50619W        W23044   1.387  21.630  12.504
50620W        W23045  16.074  11.079  12.111
50621W        W23046   6.844  43.549   4.043
50622W        W23047   7.252  34.515   0.965
50623W        W23048  42.459  41.866  11.287
50624W        W23049  13.219  12.738   1.769
50625W        W23050  30.450   8.932   0.846
50626W        W23051  25.412  44.236  11.193
50627W        W23052   9.786   7.768   1.285
50628W        W23053  14.572  41.381  13.862
50629W        W23054  12.240   9.000   4.798
50630W        W23055   6.756  38.476  11.036
50631W        W23056  12.202  31.045   2.757
50632W        W23057  35.806  31.790   5.117
50633W        W23058  23.684  34.815   1.468
50634W        W23059  37.848   1.367   1.792
50635W        W23060  13.926  22.339  12.998
50636W        W23061  18.476  30.518   4.292
50637W        W23062  13.874  37.612   4.093
50638W        W23063  13.876  12.582  12.293
50639W        W23064   3.969  17.254   1.760
50640W        W23065  28.957  39.877   3.956
50641W        W23066  16.279   4.087   0.800
50642W        W23067   0.361  12.856   2.930
50643W        W23068  31.328   1.821  14.233
50644W        W23069   2.229   3.537  14.740
50645W        W23070  34.445  21.211  12.880
50646W        W23071  19.234  32.377  11.145
50647W        W23072  30.860  12.615   5.044
50648W        W23073  17.101   3.945  11.559
50649W        W23074  31.513  17.828   0.246
50650W        W23075   4.176  32.741  14.461
50651W        W23076  35.135  13.777  10.624
50652W        W23077  15.199  16.801   3.117
50653W        W23078  33.119  14.081   4.563
50654W        W23079  14.020  33.892   4.294
50655W        W23080  44.954   1.396   4.267
50656W        W23081   9.860  43.979   0.049
50657W        W23082  34.853  38.498  11.973
50658W        W23083  26.472  10.021   2.968
50659W        W23084  11.329  17.767   0.937
50660W        W23085  24.102   8.002  11.683
50661W        W23086   7.272   0.861  12.653
50662W        W23087  30.923  29.932  13.042
50663W        W23088  36.051  27.819   1.212
50664W        W23089   7.892  32.062   4.599
50665W        W23090   3.476  31.419  11.977
50666W        W23091   1.185  19.657   2.803
50667W        W23092   7.920  30.569  11.668
50668W        W23093  11.399  13.871  12.276
50669W        W23094  17.210   6.783   3.802
50670W        W23095   1.823   7.477   4.363
50671W        W23096  11.384  40.035  11.178
50672W        W23097  26.305  26.400   1.656
50673W        W23098  36.463   9.827   0.406
50674W        W23099   7.860  35.662   3.912
50675W        W23100  40.684  22.788   1.712
50676W        W23101  33.953  34.659   1.726
50677W        W23102   5.705  31.998  13.590
50678W        W23103  32.679   9.676  10.469
50679W        W23104  22.583   8.191   3.423
50680W        W23105  27.436  13.177  11.562
50681W        W23106   4.419  28.135   3.502
50682W        W23107  22.439  33.526   4.021
50683W        W23108   7.256   4.983  13.132
50684W        W23109  16.712  37.834   4.706
50685W        W23110  10.726  24.029   0.387
50686W        W23111  28.294  41.017   4.864
50687W        W23112  37.305  32.097  11.670
50688W        W23113  39.604   3.957   3.606
50689W        W23114   4.178   6.526   4.626
50690W        W23115  14.659   5.217   0.803
50691W        W23116  24.310  24.622  12.941
50692W        W23117   3.715  14.070   4.717
50693W        W23118  36.398   7.172  10.686
50694W        W23119  20.312  41.832  11.574
50695W        W23120   4.148   5.496  12.995
50696W        W23121   0.807  43.497   1.161
50697W        W23122   7.781  44.000  12.496
50698W        W23123  34.545   5.455  10.903
50699W        W23124  14.239   1.466   1.188
50700W        W23125  42.787   2.852  12.974
50701W        W23126  34.653  21.314   2.159
50702W        W23127  13.144  27.443   3.096
50703W        W23128   8.645  17.843   0.387
50704W        W23129  28.593   5.806   3.358
50705W        W23130   3.102  16.303  12.041
50706W        W23131  39.970  28.170  14.871
50707W        W23132  22.766  22.017   2.390
50708W        W23133  44.334   3.813  12.349
50709W        W23134  41.777  19.687  10.209
50710W        W23135  43.556  30.446   0.204
50711W        W23136  43.309  17.686  10.230
50712W        W23137  34.637  40.977   2.649
50713W        W23138  13.829  14.266  13.783
50714W        W23139  38.336  17.514  10.761
50715W        W23140   0.374  29.662   1.234
50716W        W23141  44.904  27.069   1.261
50717W        W23142  37.420  26.909   0.354
50718W        W23143  33.196  35.464   3.968
50719W        W23144  37.926   6.293  14.416
50720W        W23145  11.407  25.633  10.791
50721W        W23146   2.357  10.996   2.760
50722W        W23147  40.315  16.999  11.953
50723W        W23148  33.410  29.234  11.900
50724W        W23149   0.288  32.990  12.512
50725W        W23150  42.911   1.431  12.720
50726W        W23151  10.911  35.456  12.659
50727W        W23152  31.509  23.928   3.074
50728W        W23153  35.193  33.331  10.183
50729W        W23154  18.130  19.500   2.883
50730W        W23155   0.962  42.367  10.743
50731W        W23156  40.459   6.921   4.685
50732W        W23157  15.678  30.925   4.654
50733W        W23158  15.429  21.157  12.535
50734W        W23159  33.889  42.088  14.719
50735W        W23160   4.803   3.917  14.786
50736W        W23161   0.786  34.189   3.734
50737W        W23162   2.749  31.082   3.745
50738W        W23163  42.387  31.496   0.013
50739W        W23164   2.341  30.202  13.086
50740W        W23165  39.546  42.620  14.298
50741W        W23166  39.947   8.041   2.408
50742W        W23167  28.695   2.543   2.869
50743W        W23168  14.829  27.065   1.787
50744W        W23169  14.297  17.659   2.657
50745W        W23170  29.345  37.710   0.281
50746W        W23171  30.054  27.375  13.015
50747W        W23172  24.487   1.358  11.063
50748W        W23173  22.152  28.819   2.938
50749W        W23174   2.813  24.668   4.203
50750W        W23175  28.034  33.136  14.822
50751W        W23176   7.128   3.859   1.661
50752W        W23177  17.142  10.557  14.022
50753W        W23178  35.513  12.628  10.705
50754W        W23179  35.866  19.005  13.965
50755W        W23180   3.225  40.409  11.121
50756W        W23181  27.179  18.136   0.994
50757W        W23182  18.973   8.692  13.134
50758W        W23183   9.406  42.833   0.800
50759W        W23184   6.874  10.592   0.028
50760W        W23185  22.172  23.637  10.534
50761W        W23186  39.039  16.576   3.592
50762W        W23187   5.988  29.961   2.339
50763W        W23188  26.911   6.293   0.820
50764W        W23189  16.517  38.537   0.694
50765W        W23190  28.971  43.018   0.800
50766W        W23191  26.796  42.372   0.929
50767W        W23192  43.260  11.678   2.241
50768W        W23193   0.958   0.861   4.201
50769W        W23194   6.129   0.366   1.539
50770W        W23195  10.657  25.593   0.718
50771W        W23196   7.408  33.079  14.992
50772W        W23197  10.326   0.006  11.096
50773W        W23198   6.815  24.216  11.921
50774W        W23199  28.703  23.409  13.333
50775W        W23200   1.927  20.097   1.193
50776W        W23201  23.595  31.958  13.425
50777W        W23202   6.246   8.881  12.891
50778W        W23203  38.044  25.168   4.075
50779W        W23204  21.621  44.394   4.537
50780W        W23205  36.632  19.209  13.330
50781W        W23206  21.896  11.791  11.080
50782W        W23207   2.584  23.205  12.509
50783W        W23208  40.226   8.241   1.706
50784W        W23209   4.398   8.013  11.446
50785W        W23210  20.319  33.399   9.986
50786W        W23211  32.652  12.644   0.491
50787W        W23212  38.575  12.069   3.595
50788W        W23213   3.736   1.743  10.143
50789W        W23214  20.781  32.601   1.303
50790W        W23215  19.649  44.563  13.155
50791W        W23216   3.164   8.079   4.918
50792W        W23217  22.340  20.540  12.454
50793W        W23218  44.788  21.767   0.829
50794W        W23219  18.687  35.943   9.915
50795W        W23220  23.510  20.625   1.755
50796W        W23221  15.480  31.179   1.374
50797W        W23222   0.937  13.472  10.692
50798W        W23223  23.695  32.154   2.876
50799W        W23224  20.445   5.796   2.904
50800W        W23225   7.433  22.665   4.562
50801W        W23226  28.089  20.265  11.567
50802W        W23227   4.926  17.551   1.910
50803W        W23228  30.922  26.790   2.318
50804W        W23229   3.040  16.202  12.804
50805W        W23230   1.968  21.480  12.144
50806W        W23231  11.698  27.615   2.621
50807W        W23232   0.487  44.786  10.488
50808W        W23233  26.055  25.166   2.212
50809W        W23234   6.649   7.804  14.514
50810W        W23235  36.484  23.657  12.565
50811W        W23236  31.354  38.933   1.270
50812W        W23237  17.264  35.587  10.914
50813W        W23238  40.815  18.316   0.342
50814W        W23239  38.127  35.140   4.801
50815W        W23240   2.347  26.329   3.352
50816W        W23241  40.984  33.828   3.601
50817W        W23242  22.912  11.791  13.215
50818W        W23243  14.111  35.615  14.295
50819W        W23244  23.148   7.824  13.382
50820W        W23245   7.971   2.868   0.261
50821W        W23246  14.351  14.759  10.648
50822W        W23247  41.483  14.643   4.484
50823W        W23248  27.499  32.504  14.844
50824W        W23249  41.889  18.282   4.594
50825W        W23250  13.588  32.039  10.804
50826W        W23251   7.235  17.664   2.073
50827W        W23252  19.480  19.198  14.130
50828W        W23253  17.745  22.547   4.224
50829W        W23254  15.294  23.198   3.716
50830W        W23255  19.789  29.107  13.449
50831W        W23256  38.109  25.201   0.840
50832W        W23257   7.636   4.601   4.493
50833W        W23258   2.245   2.339  11.917
50834W        W23259  16.605  36.482  14.565
50835W        W23260  20.097  16.456  12.512
50836W        W23261  44.785   6.685   3.432
50837W        W23262  34.533  40.995  12.077
50838W        W23263   1.859  37.093   1.281
50839W        W23264  30.921   4.443  12.088
50840W        W23265  20.629  19.754   2.848
50841W        W23266  10.708   0.300  12.952
50842W        W23267  44.429   4.820   1.196
50843W        W23268  27.103  26.747  13.092
50844W        W23269  13.149  32.866  12.157
50845W        W23270  23.787   9.992   1.783
50846W        W23271  15.124   2.465   3.339
50847W        W23272  27.968  30.979  14.922
50848W        W23273  10.751  33.539   0.377
50849W        W23274  38.444  22.192  13.810
50850W        W23275   2.928  24.141  14.044
50851W        W23276  26.052   9.356  11.525
50852W        W23277  17.057  16.540  12.499
50853W        W23278  26.950  20.781  11.338
50854W        W23279   8.369   7.277   0.685
50855W        W23280  28.213   8.214   0.893
50856W        W23281  40.582   3.300   0.759
50857W        W23282  10.667  26.076  10.713
50858W        W23283  44.526  25.461  12.938
50859W        W23284  36.622  21.669  12.351
50860W        W23285  21.175  33.423   0.760
50861W        W23286  40.104  36.551   2.340
50862W        W23287  42.596  23.741  12.616
50863W        W23288  21.800  14.564   2.544
50864W        W23289  44.739   9.781   1.286
50865W        W23290  28.746  11.194  12.560
50866W        W23291  41.414  34.133  14.072
50867W        W23292  19.858   1.931   4.905
50868W        W23293  31.209   8.611   2.661
50869W        W23294  21.273  29.867  14.792
50870W        W23295  19.749  37.827  11.883
50871W        W23296   2.451   0.906   0.302
50872W        W23297   6.391   5.868   4.113
50873W        W23298  20.390   9.211   0.858
50874W        W23299   2.528  10.417   4.113
50875W        W23300  27.830  29.436  10.577
50876W        W23301  27.143   1.212  12.441
50877W        W23302  25.937   3.197  14.339
50878W        W23303  33.430   0.035  13.446
50879W        W23304  38.029   7.164   2.252
50880W        W23305  25.439  37.962   3.760
50881W        W23306  36.772  14.509   0.359
50882W        W23307  12.827  25.355  11.758
50883W        W23308  11.713   7.989  14.341
50884W        W23309  21.650  33.859  14.076
50885W        W23310   3.051  19.496   3.295
50886W        W23311  35.004   6.184   1.334
50887W        W23312  34.271   8.926  13.329
50888W        W23313  11.249  24.520  12.960
50889W        W23314  33.425  31.025  14.057
50890W        W23315  24.696  15.510   1.501
50891W        W23316  10.791  35.612   0.845
50892W        W23317  23.327   1.933   1.642
50893W        W23318  30.878   0.017   1.768
50894W        W23319  27.842  12.570  11.163
50895W        W23320  28.207  10.406   1.501
50896W        W23321  24.105  12.703  14.747
50897W        W23322  29.552  24.425   3.164
50898W        W23323  39.464  25.349  12.911
50899W        W23324  20.738   2.043   1.873
50900W        W23325  35.995  35.398  12.107
50901W        W23326  26.414  34.386   3.359
50902W        W23327  19.288  41.994  12.421
50903W        W23328  31.422   0.374  14.532
50904W        W23329  43.943  24.476  13.508
50905W        W23330   9.409   3.750  11.019
50906W        W23331  14.104  30.905   4.505
50907W        W23332   8.427  13.196  14.694
50908W        W23333  21.774  37.388  12.363
50909W        W23334  21.707  15.312   1.945
50910W        W23335  21.671   5.106  14.308
50911W        W23336   8.398  29.059   4.123
50912W        W23337  21.488  30.039   4.211
50913W        W23338  18.679  22.112   2.309
50914W        W23339  32.203  24.097  11.111
50915W        W23340  20.198  14.599  12.025
50916W        W23341  31.362  26.073   4.900
50917W        W23342  11.358   9.340   0.439
50918W        W23343  18.182  11.619  13.974
50919W        W23344  27.200  30.991  14.461
50920W        W23345  38.921  36.962  12.837
50921W        W23346  31.208   3.874  11.515
50922W        W23347  34.475  20.070   2.847
50923W        W23348  37.278  23.345  11.736
50924W        W23349  36.528  32.375   0.331
50925W        W23350  38.587  16.915   3.245
50926W        W23351  36.521   5.810  12.429
50927W        W23352  25.547  36.137   3.656
50928W        W23353  19.349  44.901   4.130
50929W        W23354   7.390  18.258  13.443
50930W        W23355  29.113  31.479  11.938
50931W        W23356  37.546   3.928   2.109
50932W        W23357   1.015  38.592  12.543
50933W        W23358   4.220  43.414   2.809
50934W        W23359   2.235  42.927  12.977
50935W        W23360  29.090  38.013  13.237
50936W        W23361  27.465   3.010  14.494
50937W        W23362   5.737   6.492  12.963
50938W        W23363  38.203  11.304  11.478
50939W        W23364  32.097   7.125   4.078
50940W        W23365  12.858  16.680   2.913
50941W        W23366  41.380  11.886   1.734
50942W        W23367  22.533  35.865   4.252
50943W        W23368   3.436  10.331   0.964
50944W        W23369  28.494  15.494   0.860
50945W        W23370  24.065  38.965  11.062
50946W        W23371  34.341  34.938  14.871
50947W        W23372  24.799  28.023  14.326
50948W        W23373  21.759  41.764   0.248
50949W        W23374  37.298  37.283   4.143
50950W        W23375  40.639  41.042  14.352
50951W        W23376  42.348  43.081   3.180
50952W        W23377  25.041  30.676  10.179
50953W        W23378  21.695  38.595   0.353
50954W        W23379   0.314  34.620   3.561
50955W        W23380  14.720  31.350   0.332
50956W        W23381  30.032  27.253   3.244
50957W        W23382  23.042  12.103  11.074
50958W        W23383  16.754  44.709   2.276
50959W        W23384  44.875  22.960  11.065
50960W        W23385  16.051   7.156   4.511
50961W        W23386  24.726  40.912  13.455
50962W        W23387   2.890  20.642  14.824
50963W        W23388  30.842  41.364  11.091
50964W        W23389  44.712  34.308   3.114
50965W        W23390  31.789   7.785  13.393
50966W        W23391  33.450  14.278   3.214
50967W        W23392  17.606  26.687   3.769
50968W        W23393  14.117  22.004  13.960
50969W        W23394  40.687  35.026   4.130
50970W        W23395  38.000   6.940  14.334
50971W        W23396  38.090  34.529   1.827
50972W        W23397  40.803  17.200  11.981
50973W        W23398  17.646  33.637   2.117
50974W        W23399  12.147   6.672   3.234
50975W        W23400   1.745  29.691  13.786
50976W        W23401  40.681  14.576  12.694
50977W        W23402  35.009  15.828  13.783
50978W        W23403  23.608  24.672   1.081
50979W        W23404  15.201  18.105   3.653
50980W        W23405  19.078  12.681  11.012
50981W        W23406  30.492   1.548  14.346
50982W        W23407   3.125  41.261  14.644
50983W        W23408  18.524  39.300   3.753
50984W        W23409  34.267   4.467   3.454
50985W        W23410  18.142   6.646  13.553
50986W        W23411   5.471  21.514  11.844
50987W        W23412  19.568  41.814  13.261
50988W        W23413  25.229  22.063  13.824
50989W        W23414  35.083  19.272   3.465
50990W        W23415  21.984   4.878  11.181
50991W        W23416  43.071  14.674  14.808
50992W        W23417   5.718  16.809   4.107
50993W        W23418  27.854  44.366   3.004
50994W        W23419  27.895  17.800  11.053
50995W        W23420   9.191  43.084  13.249
50996W        W23421  19.245   2.786  12.837
50997W        W23422  25.085  25.149  12.919
50998W        W23423  15.721  12.779   3.126
50999W        W23424   0.412   0.986   2.071
51000W        W23425   4.936  16.775   3.083
51001W        W23426  41.743  27.497  12.891
51002W        W23427  33.876  40.856   4.759
51003W        W23428  27.572   5.981   1.986
51004W        W23429   4.646  36.009  13.112
51005W        W23430  43.851  27.495  10.974
51006W        W23431  20.012  44.920  12.091
51007W        W23432   8.685  39.872  12.634
51008W        W23433   1.336   3.037   1.787
51009W        W23434  18.171  16.202   3.318
51010W        W23435  36.010  25.637   2.624
51011W        W23436   0.263  41.083  11.906
51012W        W23437  23.550   4.995  12.663
51013W        W23438  14.840  14.293   2.075
51014W        W23439  21.564  34.452  14.985
51015W        W23440  13.052  40.045  12.516
51016W        W23441  21.609  43.429   0.496
51017W        W23442  36.512  16.576  10.727
51018W        W23443  23.037  31.658   3.371
51019W        W23444  23.247  25.531  13.980
51020W        W23445  17.344  17.845  14.798
51021W        W23446   7.730   5.412  14.211
51022W        W23447  21.034  43.271  11.558
51023W        W23448  26.603  26.455   2.091
51024W        W23449  22.732   6.751   2.704
51025W        W23450  33.254  36.462  11.014
51026W        W23451  28.693  24.039   4.622
51027W        W23452  44.450  14.032   2.210
51028W        W23453  43.216  40.074  11.012
51029W        W23454  32.453  39.327  12.914
51030W        W23455  22.980  25.730   3.190
51031W        W23456  18.859  37.635   0.269
51032W        W23457  14.092   6.602  12.672
51033W        W23458  42.409  41.172   4.561
51034W        W23459  11.743  12.897   0.714
51035W        W23460  31.942  26.090  10.476
51036W        W23461  40.413  24.824  12.530
51037W        W23462  25.630   0.084   1.944
51038W        W23463  29.095  23.571  11.111
51039W        W23464  27.750  39.790  12.560
51040W        W23465   5.220  29.410  10.563
51041W        W23466  20.496  24.113   1.960
51042W        W23467   3.339  44.784  11.635
51043W        W23468   1.515  35.958   2.720
51044W        W23469   7.846  18.685  14.040
51045W        W23470  41.920   0.232  10.293
51046W        W23471   3.404   5.248  11.580
51047W        W23472  34.988  11.102   0.873
51048W        W23473  34.910  38.477   0.359
51049W        W23474  11.300   5.409   2.838
51050W        W23475  19.637   1.843   4.273
51051W        W23476  42.409  31.398  13.978
51052W        W23477  31.496   8.587   2.207
51053W        W23478   3.002  21.081  14.382
51054W        W23479  16.296  25.318   0.297
51055W        W23480   9.210  18.628   1.331
51056W        W23481   9.315  42.205   0.979
51057W        W23482  31.638  41.862  14.735
51058W        W23483  31.613  11.712  14.513
51059W        W23484  12.864  27.165  10.580
51060W        W23485  14.745  23.995   3.000
51061W        W23486   1.028  13.841   0.301
51062W        W23487  20.030  12.372  10.528
51063W        W23488  20.353  18.654   1.209
51064W        W23489  42.124  27.478   1.557
51065W        W23490  35.565   5.291   4.558
51066W        W23491   7.075  44.761   2.164
51067W        W23492  25.904  41.980   2.786
51068W        W23493   8.696   1.722  14.406
51069W        W23494  41.494   4.162   4.568
51070W        W23495  30.561  11.270  11.411
51071W        W23496  22.149  21.032  13.860
51072W        W23497  23.782  36.624  11.087
51073W        W23498   2.530  12.773  14.240
51074W        W23499  20.705  15.284  11.606
51075W        W23500  35.092  39.839   2.618
51076W        W23501  21.310  16.035  14.580
51077W        W23502   1.444  23.444  10.661
51078W        W23503  13.826  36.444   2.260
51079W        W23504   0.375  26.719   3.228
51080W        W23505  40.870  30.360   0.409
51081W        W23506   6.835  40.785   4.833
51082W        W23507  32.097  21.675   2.711
51083W        W23508  21.354  31.958  12.410
51084W        W23509  38.430  10.881  14.831
51085W        W23510  36.209  39.260   2.435
51086W        W23511  19.820  16.626  11.589
51087W        W23512  33.443  23.438  12.350
51088W        W23513  31.578  10.039   3.316
51089W        W23514  12.619  29.039  14.340
51090W        W23515  30.045   0.255   0.754
51091W        W23516  25.564  13.675  10.671
51092W        W23517  43.712  10.855  11.485
51093W        W23518  37.305  13.790   0.846
51094W        W23519  18.750  44.467  12.718
51095W        W23520   3.617  35.859   0.982
51096W        W23521  15.807  33.452  12.400
51097W        W23522   1.473   5.327   1.758
51098W        W23523   0.659  12.455   5.277
51099W        W23524   6.747  42.923  14.871
51100W        W23525   0.406  24.476  11.037
51101W        W23526   8.240  27.491  14.255
51102W        W23527  40.602   2.849   2.832
51103W        W23528  14.061  31.979  11.619
51104W        W23529  14.839   2.502  10.055
51105W        W23530  35.421  43.272  11.228
51106W        W23531  26.463  30.769   1.708
51107W        W23532  11.922  10.433   1.044
51108W        W23533  37.890  11.398   3.413
51109W        W23534   2.438   9.378   1.513
51110W        W23535   5.214   5.300   1.748
51111W        W23536  38.079  20.778   1.680
51112W        W23537  19.094  24.834   3.885
51113W        W23538  14.299   8.009  14.258
51114W        W23539   5.203  32.122   2.446
51115W        W23540  39.164  15.791   0.634
51116W        W23541  23.478  12.640   1.410
51117W        W23542  13.237  10.771   4.579
51118W        W23543  41.305  19.515   4.174
51119W        W23544   0.979  37.085  13.909
51120W        W23545  20.562  16.093   4.206
51121W        W23546   5.944   4.847   2.946
51122W        W23547  34.085   7.981   9.888
51123W        W23548   7.865   9.649   3.127
51124W        W23549  11.291  36.791  13.169
51125W        W23550  32.248  44.521   0.720
51126W        W23551  43.491  14.650  11.347
51127W        W23552  27.573  37.701  11.507
51128W        W23553  30.865  25.072  12.506
51129W        W23554   5.612   5.245  12.978
51130W        W23555  10.881   0.866   4.045
51131W        W23556  11.775   2.326   5.395
51132W        W23557  30.140   9.684   1.774
51133W        W23558  11.793  16.592  12.977
51134W        W23559  11.100   3.368   0.308
51135W        W23560  17.157  12.690  12.141
51136W        W23561  22.118   3.322   2.495
51137W        W23562  28.946   5.426   3.157
51138W        W23563  20.549  35.368  13.367
51139W        W23564  26.201  21.745   1.856
51140W        W23565  43.822  38.450  14.808
51141W        W23566   8.143  10.305  12.942
51142W        W23567   6.959   7.924  13.044
51143W        W23568  21.854  23.953  12.998
51144W        W23569  10.694   4.758   2.860
51145W        W23570   6.740  20.689   4.973
51146W        W23571   4.465  28.021   1.502
51147W        W23572   3.970   8.393   3.656
51148W        W23573   7.900  21.075  12.544
51149W        W23574  38.477  35.645  11.491
51150W        W23575  24.904   7.283  12.958
51151W        W23576  43.207  11.874   3.809
51152W        W23577   0.693  36.554  13.020
51153W        W23578   0.425   5.153   0.834
51154W        W23579  23.070  41.968   0.704
51155W        W23580  19.644  27.968   4.999
51156W        W23581   1.168  11.780  13.939
51157W        W23582  29.741  26.798  11.121
51158W        W23583  27.159  37.631   4.071
51159W        W23584   7.364  24.290   1.834
51160W        W23585  27.858  33.977  12.928
51161W        W23586   1.304  23.618   4.368
51162W        W23587  15.289  42.611   4.644
51163W        W23588  33.873  10.906   3.213
51164W        W23589  18.334  11.671  12.997
51165W        W23590  10.576   9.448  11.514
51166W        W23591  29.136  38.770  13.947
51167W        W23592   3.421  12.709  10.447
51168W        W23593   4.815  29.005   4.325
51169W        W23594  10.367  28.505  14.438
51170W        W23595  32.625   3.507   2.757
51171W        W23596  39.806   7.680  13.384
51172W        W23597  33.617   1.412  13.406
51173W        W23598  17.213   1.966   0.948
51174W        W23599  10.915  39.265  11.982
51175W        W23600  21.120   1.252  12.290
51176W        W23601  21.086  28.995  11.938
51177W        W23602  23.881  38.478   0.133
51178W        W23603  32.913  32.965  10.761
51179W        W23604  36.568  42.017   3.865
51180W        W23605  40.341   2.212  10.713
51181W        W23606  39.386   4.267   1.912
51182W        W23607  22.580  29.980   0.033
51183W        W23608   9.257  16.560  10.691
51184W        W23609   9.374   1.354  11.193
51185W        W23610  42.174  21.090   4.324
51186W        W23611  25.949  25.610  14.914
51187W        W23612  13.767  25.745  12.855
51188W        W23613  28.391   1.719   4.166
51189W        W23614  39.267  11.277   4.129
51190W        W23615   6.331   8.053   4.689
51191W        W23616  15.239  21.581   0.941
51192W        W23617  19.765  43.711  11.578
51193W        W23618   3.325   3.582  11.608
51194W        W23619  28.050   4.167   0.217
51195W        W23620  33.357  26.019   2.744
51196W        W23621  21.895  23.171  11.203
51197W        W23622  14.847  11.635  10.686
51198W        W23623  15.898  14.189  12.140
51199W        W23624  12.949  34.401  13.805
51200W        W23625   3.493  30.060  11.404
51201W        W23626  27.551  36.445   4.325
51202W        W23627  37.281  32.984  11.675
51203W        W23628  41.385   3.242  13.032
51204W        W23629  27.527  19.710  14.865
51205W        W23630   0.062  12.502   3.173
51206W        W23631  13.707  21.560  14.477
51207W        W23632  32.630  27.735  13.396
51208W        W23633  42.831  31.068  14.026
51209W        W23634  11.034   2.408   3.666
51210W        W23635  32.528  13.204  12.138
51211W        W23636  28.390  37.417   3.860
51212W        W23637  17.065  13.472  14.778
51213W        W23638  23.731  24.520   4.029
51214W        W23639  29.449   6.599   0.691
51215W        W23640  22.305  16.127   3.358
51216W        W23641  12.697  23.976  10.595
51217W        W23642   9.298  27.009  12.000
51218W        W23643  37.036  21.211  13.859
51219W        W23644  14.318   9.276  10.750
51220W        W23645  20.493  10.143  14.917
51221W        W23646  12.933  30.962  14.260
51222W        W23647  26.906  10.940  12.415
51223W        W23648  25.170  18.255  12.984
51224W        W23649   3.951   7.699   4.927
51225W        W23650  33.459  38.956  12.452
51226W        W23651   8.940  31.407   1.269
51227W        W23652   7.421  30.626   2.481
51228W        W23653  24.660  25.134  12.043
51229W        W23654  35.435  37.624   2.130
51230W        W23655   8.428  30.968  11.728
51231W        W23656  18.220   0.803   2.272
51232W        W23657  17.724  44.650   4.620
51233W        W23658  26.055  25.700  12.062
51234W        W23659   9.178  31.034   2.451
51235W        W23660  24.561  34.134   0.240
51236W        W23661  33.631  43.915  11.128
51237W        W23662  10.766  38.367  12.186
51238W        W23663   8.838  18.126  12.808
51239W        W23664  26.509   2.733  12.913
51240W        W23665  43.249  16.260  10.992
51241W        W23666  43.849  42.258   0.953
51242W        W23667   1.039  42.216  11.225
51243W        W23668  24.308  26.709  11.657
51244W        W23669  18.288   6.174   3.747
51245W        W23670   9.837  41.351  10.849
51246W        W23671   7.945  13.001  12.549
51247W        W23672   5.363  28.382   0.919
51248W        W23673  17.495  33.331  12.049
51249W        W23674  22.259  21.636   0.001
51250W        W23675  29.217  40.587  12.560
51251W        W23676  21.833  30.408  13.064
51252W        W23677  27.030  26.412   3.152
51253W        W23678  26.580  39.821  10.203
51254W        W23679  35.342  28.240  13.406
51255W        W23680  31.115  25.329  12.888
51256W        W23681  36.281  27.417  14.588
51257W        W23682  13.744   1.766   4.994
51258W        W23683   5.915  33.089  12.994
51259W        W23684  38.661  18.246  13.832
51260W        W23685  11.280  29.863  13.427
51261W        W23686  11.851  19.031  10.146
51262W        W23687  39.938  17.764  12.845
51263W        W23688  44.944  24.451   2.796
51264W        W23689  13.659  15.190   0.705
51265W        W23690  40.418  12.841  14.926
51266W        W23691   4.408  39.445   1.357
51267W        W23692  34.582  42.567  14.469
51268W        W23693  40.846  28.689   3.478
51269W        W23694   6.618  37.558   2.356
51270W        W23695   2.026  11.322   3.160
51271W        W23696  35.418  41.603  14.437
51272W        W23697  39.308   2.933  10.508
51273W        W23698  15.144  13.902  14.131
51274W        W23699  29.775  13.929  14.701
51275W        W23700   5.467   4.483  11.987
51276W        W23701  21.539  27.103  14.854
51277W        W23702  27.446  36.150  12.572
51278W        W23703  35.407  26.093  10.662
51279W        W23704  24.401   0.463   2.395
51280W        W23705  37.008  10.451   4.486
51281W        W23706  31.606  38.407   2.458
51282W        W23707  30.447  37.372  11.077
51283W        W23708  19.010  42.503  11.631
51284W        W23709  31.636  25.494  12.783
51285W        W23710  39.824  33.918   0.357
51286W        W23711  35.818  17.205  12.459
51287W        W23712  29.613  14.402   4.947
51288W        W23713   5.159   9.708  12.124
51289W        W23714  28.854  28.045   2.825
51290W        W23715  35.346  31.592  13.081
51291W        W23716   5.873  35.539   4.741
51292W        W23717  42.119  34.979  11.937
51293W        W23718   0.010  44.006  10.560
51294W        W23719  37.351  34.014  10.832
51295W        W23720  40.229   5.263  14.684
51296W        W23721  23.604   6.954  12.919
51297W        W23722  33.357  37.537  10.311
51298W        W23723  26.556  23.174   4.497
51299W        W23724  27.700  39.498  10.917
51300W        W23725   9.278  42.392  10.616
51301W        W23726   5.908  35.528   1.342
51302W        W23727  39.137  17.320   2.304
51303W        W23728  34.298  13.994   3.248
51304W        W23729   0.855  11.440   0.987
51305W        W23730  21.628  15.494   4.128
51306W        W23731  36.163   4.614   1.205
51307W        W23732  41.042  38.964   0.278
51308W        W23733  24.961  25.462   4.686
51309W        W23734  35.432   2.411  13.507
51310W        W23735  24.313  31.961   2.252
51311W        W23736  41.970   5.419  13.804
51312W        W23737  41.608  15.705  11.150
51313W        W23738  37.332  17.200   3.648
51314W        W23739  19.626   7.782  12.395
51315W        W23740  15.300  40.624  11.237
51316W        W23741  13.653  40.271  14.853
51317W        W23742  42.708  22.171   4.452
51318W        W23743  37.649  26.420   3.469
51319W        W23744  42.020   4.087   2.907
51320W        W23745  26.721  38.426  14.287
51321W        W23746  40.909  24.286   4.242
51322W        W23747  25.722  16.308   1.677
51323W        W23748   9.720  11.689   2.835
51324W        W23749  37.019   9.512  13.172
51325W        W23750   9.049   3.214  10.184
51326W        W23751  11.568  41.349   4.650
51327W        W23752   0.237  44.923  14.733
51328W        W23753  16.524  22.227  11.063
51329W        W23754  16.174  10.289   1.333
51330W        W23755  44.339  34.303   2.297
51331W        W23756  10.572  24.372   3.184
51332W        W23757  39.878  19.189   3.654
51333W        W23758   5.243  34.970  12.030
51334W        W23759  28.648  10.057  11.902
51335W        W23760  26.188  37.405   0.816
51336W        W23761  16.182  39.937  14.293
51337W        W23762  12.128   2.446   2.327
51338W        W23763   3.867  17.240  12.684
51339W        W23764  18.657  27.945   0.332
51340W        W23765  16.644  41.299   0.434
51341W        W23766  32.637  32.617   4.576
51342W        W23767  39.609  21.997  14.297
51343W        W23768  37.032  19.597   0.680
51344W        W23769  28.399  29.173   1.941
51345W        W23770  16.787  25.159   1.251
51346W        W23771  24.093   6.199  14.355
51347W        W23772  23.909  35.384   0.772
51348W        W23773  22.916  14.215   1.684
51349W        W23774   6.492   5.790   0.474
51350W        W23775   7.697  12.407   2.309
51351W        W23776  35.804  34.308   2.649
51352W        W23777  25.797  11.277  11.868
51353W        W23778   0.857  30.940   4.322
51354W        W23779  43.334  25.586   0.896
51355W        W23780  28.366  14.566  13.429
51356W        W23781  41.933  26.175   1.775
51357W        W23782  30.260  33.403   4.065
51358W        W23783  42.412  12.234  11.512
51359W        W23784  21.814  12.560   0.016
51360W        W23785  31.513  40.249  11.810
51361W        W23786  10.906  39.765  11.941
51362W        W23787  35.117   7.091   0.524
51363W        W23788  13.142  39.261   0.203
51364W        W23789  26.282  11.211   0.735
51365W        W23790  33.369  33.988   1.442
51366W        W23791  30.971  22.295  14.410
51367W        W23792  23.421  38.466  10.355
51368W        W23793  35.332  12.562  12.979
51369W        W23794  43.044  25.900   3.670
51370W        W23795   9.234  44.490   1.398
51371W        W23796  18.604  33.042   2.137
51372W        W23797  42.385  19.235   3.527
51373W        W23798  16.153  42.728  11.473
51374W        W23799  17.507  13.105   1.402
51375W        W23800  16.752   1.698  11.495
51376W        W23801  29.132  20.662  13.382
51377W        W23802  38.302  25.963  13.409
51378W        W23803  11.406  14.827   1.912
51379W        W23804   2.535  16.710  12.460
51380W        W23805  32.090   8.920  14.899
51381W        W23806  32.889  42.341  12.195
51382W        W23807  40.449   3.638   2.291
51383W        W23808  13.623  41.404  11.057
51384W        W23809  43.263  19.462   0.450
51385W        W23810  43.817  37.758  14.216
51386W        W23811  44.835  44.523   2.212
51387W        W23812  44.881  23.423   2.687
51388W        W23813  18.736   0.753   3.439
51389W        W23814  35.665   2.875   4.854
51390W        W23815  38.243  39.470   1.367
51391W        W23816  44.115  17.041  13.700
51392W        W23817  35.985  32.514  12.079
51393W        W23818   8.140  28.296  10.831
51394W        W23819  17.119   0.995  13.363
51395W        W23820  43.416  42.564  12.978
51396W        W23821  12.081  18.343  10.651
51397W        W23822  27.260  11.735   1.241
51398W        W23823  20.194  24.451  11.908
51399W        W23824   3.795  41.841  14.252
51400W        W23825  38.904  34.767  13.544
51401W        W23826  12.066  43.247   2.199
51402W        W23827  30.206  11.444  12.238
51403W        W23828  18.634  18.591  14.229
51404W        W23829  26.153  32.657  11.356
51405W        W23830  17.955   1.241   0.232
51406W        W23831   3.333  38.782   4.127
51407W        W23832  11.827  17.536   0.992
51408W        W23833   5.137   7.444   2.272
51409W        W23834   8.135  29.119  14.266
51410W        W23835  10.850   0.012  12.556
51411W        W23836  28.118  12.326   3.252
51412W        W23837  40.045  41.435   0.876
51413W        W23838   2.390  38.257   0.283
51414W        W23839  17.302  23.129   3.623
51415W        W23840  40.898  13.330   2.466
51416W        W23841  35.119  44.792   0.057
51417W        W23842  44.589  28.048   1.399
51418W        W23843  30.514  40.305   4.194
51419W        W23844  19.784   2.883  11.160
51420W        W23845  38.836  32.171  12.544
51421W        W23846   5.984  40.379  10.969
51422W        W23847  29.635   9.170  13.936
51423W        W23848  42.036  43.319   1.832
51424W        W23849  10.365   3.851   3.382
51425W        W23850  24.646   7.193   2.218
51426W        W23851   0.469  25.794  11.981
51427W        W23852  28.456  33.387  11.471
51428W        W23853   6.764  42.056   2.971
51429W        W23854  39.233  27.921  14.319
51430W        W23855   1.389  10.722   0.441
51431W        W23856  29.866  13.636   3.751
51432W        W23857  39.751  34.868   2.297
51433W        W23858  33.002  17.551   4.276
51434W        W23859  33.710  20.736  11.599
51435W        W23860  42.224   3.189  11.243
51436W        W23861  34.943   3.988   0.876
51437W        W23862  30.000  11.728  12.585
51438W        W23863   5.493  14.873  14.847
51439W        W23864  19.095  37.353  10.751
51440W        W23865  41.344  10.013  10.742
51441W        W23866  18.096   8.361   0.690
51442W        W23867  31.448   9.199  12.478
51443W        W23868  15.997  13.779   2.160
51444W        W23869  14.966   3.144   5.420
51445W        W23870  13.558   3.393  13.348
51446W        W23871   5.328  11.044  11.913
51447W        W23872   3.636  24.584  14.086
51448W        W23873   5.788  41.842  13.426
51449W        W23874  35.033  21.268  10.920
51450W        W23875  21.268  27.572   1.928
51451W        W23876  13.459  18.100   0.216
51452W        W23877   1.492   9.406  14.828
51453W        W23878  33.985   0.301   0.839
51454W        W23879  28.957   9.028   1.873
51455W        W23880  18.357  30.684  14.974
51456W        W23881  17.050  39.439   3.567
51457W        W23882  16.711   1.423   2.755
51458W        W23883  28.188   9.898  12.899
51459W        W23884  17.778   0.374   2.908
51460W        W23885   9.398  19.609   3.252
51461W        W23886  27.950  36.933   1.434
51462W        W23887  37.490  16.070  14.926
51463W        W23888  19.439   3.703  12.599
51464W        W23889  41.041  38.057  13.895
51465W        W23890  41.416  27.457  11.520
51466W        W23891  17.488  41.806   0.223
51467W        W23892  43.357  38.868   0.526
51468W        W23893   7.764  23.497  10.981
51469W        W23894   3.336   0.652  14.308
51470W        W23895  28.714  19.824  11.707
51471W        W23896  44.870  20.491  12.951
51472W        W23897  23.165   8.932  14.374
51473W        W23898  19.212  37.359   3.533
51474W        W23899  18.796  14.481   4.431
51475W        W23900   2.269  22.114  11.218
51476W        W23901  40.703  28.701   0.764
51477W        W23902  12.661  43.518  12.322
51478W        W23903  12.758  35.927  10.611
51479W        W23904  35.141   9.758   1.008
51480W        W23905  18.500  22.594  14.259
51481W        W23906  27.387   2.752  11.234
51482W        W23907  21.327  38.430   2.678
51483W        W23908  38.980   2.749  11.978
51484W        W23909  32.190  18.537  13.400
51485W        W23910  28.804  12.785  13.453
51486W        W23911  28.203  17.026  13.437
51487W        W23912  23.822   4.452  13.523
51488W        W23913  11.971  28.398  11.582
51489W        W23914  15.361  42.795  13.425
51490W        W23915  21.996   9.374  10.573
51491W        W23916  14.816  23.658   0.712
51492W        W23917  14.618  14.088  14.865
51493W        W23918  22.293  24.560  10.879
51494W        W23919  38.467  12.699   2.162
51495W        W23920  43.208   2.764  12.580
51496W        W23921  34.804  10.604  14.055
51497W        W23922   2.956   8.977  11.885
51498W        W23923  16.781  19.052  14.928
51499W        W23924  20.105  41.220   2.839
51500W        W23925  37.076  14.607   4.664
51501W        W23926  28.263  22.629   3.266
51502W        W23927  42.042  31.328   0.741
51503W        W23928  40.510  37.100   4.315
51504W        W23929  32.702  28.453  12.725
51505W        W23930  20.269  11.578   4.359
51506W        W23931   0.283  37.322   3.708
51507W        W23932   3.970  18.845   3.766
51508W        W23933  19.216  13.598  14.736
51509W        W23934  11.187  18.808   3.702
51510W        W23935   9.418  21.697  14.660
51511W        W23936   5.475  21.122   3.606
51512W        W23937  28.266  39.122   2.081
51513W        W23938  18.937   6.971  14.649
51514W        W23939  30.606   5.609  13.759
51515W        W23940   7.658  11.847   2.358
51516W        W23941  25.543  11.234   4.623
51517W        W23942  22.947  36.586   2.887
51518W        W23943  36.803  37.958   4.608
51519W        W23944  16.759  24.671   1.435
51520W        W23945   2.217   0.822   2.275
51521W        W23946   4.886  34.979   2.405
51522W        W23947  40.370  38.540  10.935
51523W        W23948  28.624  23.001   3.189
51524W        W23949  18.580  23.702  13.544
51525W        W23950  25.974  33.003  10.267
51526W        W23951   5.747  19.881   0.356
51527W        W23952   8.894  34.874  12.069
51528W        W23953  30.048  37.780   4.647
51529W        W23954  19.127  11.462  11.593
51530W        W23955   1.732  20.789   4.096
51531W        W23956  40.077  16.706   1.493
51532W        W23957  43.799  27.348  12.984
51533W        W23958  32.873  16.132   2.236
51534W        W23959   9.402  15.219   2.818
51535W        W23960  37.525  23.917   0.710
51536W        W23961  41.344  36.998   2.046
51537W        W23962   8.540  36.402  12.930
51538W        W23963  24.477  33.143   0.504
51539W        W23964  41.609  35.827  12.976
51540W        W23965  30.227  25.009  10.682
51541W        W23966  20.355  22.234  11.154
51542W        W23967   6.812  30.678  11.900
51543W        W23968  14.391   1.177   1.730
51544W        W23969  14.377  22.333   0.283
51545W        W23970  35.975  29.558  13.792
51546W        W23971  10.311  21.231  14.070
51547W        W23972   3.298  37.823  14.463
51548W        W23973  17.273  33.719   0.364
51549W        W23974  21.612  13.865   1.470
51550W        W23975   2.424  12.175  14.831
51551W        W23976  21.138  16.684   4.169
51552W        W23977   6.961   7.887   2.878
51553W        W23978   4.768  41.189  11.650
51554W        W23979   0.751  37.364   2.367
51555W        W23980   0.966   7.902  14.554
51556W        W23981  17.881   7.245   3.168
51557W        W23982  24.558  36.030  10.682
51558W        W23983  19.861  27.405   0.372
51559W        W23984  26.648   0.536  10.610
51560W        W23985  30.486  30.050   1.630
51561W        W23986  32.813   9.189  14.873
51562W        W23987  10.704  41.128   4.778
51563W        W23988   7.410  29.636  14.274
51564W        W23989  30.742  34.139  12.620
51565W        W23990   8.353   1.240  12.205
51566W        W23991  20.764  35.351   2.815
51567W        W23992  34.674  17.163   4.524
51568W        W23993  34.984   8.064   0.256
51569W        W23994  41.883  29.966  10.355
51570W        W23995   1.799   8.444  11.188
51571W        W23996  11.624  30.166   0.888
51572W        W23997   4.344  15.048   3.547
51573W        W23998  38.687  26.018  12.079
51574W        W23999  19.650   6.255  11.683
51575W        W24000  15.184   8.525  13.063
51576W        W24001   6.617   1.474  13.489
51577W        W24002  27.024  13.792   0.397
51578W        W24003   6.590  17.392   4.200
51579W        W24004  10.309   6.604   0.864
51580W        W24005  20.166   7.852   4.149
51581W        W24006  11.216  29.175   0.860
51582W        W24007  28.103  27.535  10.563
51583W        W24008  15.758  23.934  10.477
51584W        W24009  34.477  44.367  13.967
51585W        W24010  11.002  29.465   0.501
51586W        W24011  18.058   2.837  12.958
51587W        W24012   9.251  30.895  14.617
51588W        W24013   5.859   8.895  10.670
51589W        W24014   4.904  29.936  14.023
51590W        W24015  11.390  34.639  14.568
51591W        W24016  44.684  34.146  12.517
51592W        W24017  20.159  38.546   3.864
51593W        W24018  41.676  15.812   5.026
51594W        W24019  31.929  41.337  12.447
51595W        W24020   7.093  11.490  12.075
51596W        W24021  44.260  21.752   0.862
51597W        W24022  40.898  23.773   2.015
51598W        W24023   4.520  36.102  13.594
51599W        W24024  26.195  12.081  10.395
51600W        W24025   0.882  17.430   3.810
51601W        W24026  42.244   2.278   3.748
51602W        W24027  34.976   7.921   1.756
51603W        W24028  32.112  27.437  14.405
51604W        W24029  11.183  44.632  13.346
51605W        W24030   0.328   0.997   1.563
51606W        W24031  13.760  38.629   3.948
51607W        W24032  27.698   7.343  11.604
51608W        W24033  27.659   3.216   2.405
51609W        W24034  21.604   0.371   4.178
51610W        W24035  16.784  18.523   0.029
51611W        W24036   6.713  12.384   3.740
51612W        W24037  12.798  24.221   4.716
51613W        W24038  13.251  19.054   1.873
51614W        W24039   4.285  35.535  13.015
51615W        W24040  22.197  28.476   3.894
51616W        W24041  33.852  25.981   4.949
51617W        W24042  15.076  22.115  14.834
51618W        W24043  38.774   7.141   0.017
51619W        W24044  43.516  43.501  10.605
51620W        W24045  43.778  21.678  13.887
51621W        W24046   5.981  44.984  10.588
51622W        W24047   6.482  44.821  10.627
51623W        W24048  26.195   6.082   4.948
51624W        W24049  26.008  26.266  12.927
51625W        W24050  36.567  42.303  14.231
51626W        W24051  34.994   8.199   3.156
51627W        W24052  43.642   3.610   1.899
51628W        W24053  20.972  29.091  12.774
51629W        W24054  17.285  23.870   4.236
51630W        W24055  16.197  23.456   0.860
51631W        W24056   1.700  11.964   0.384
51632W        W24057  22.538   1.799  13.908
51633W        W24058  11.083  39.384   1.419
51634W        W24059  15.748  36.590  14.324
51635W        W24060   5.319   3.962  12.428
51636W        W24061  43.128  38.104  11.709
51637W        W24062   3.762  36.869   3.801
51638W        W24063  28.157   3.080   5.203
51639W        W24064   4.248   2.236   0.989
51640W        W24065  28.552  12.071  14.565
51641W        W24066  41.876   8.598   2.205
51642W        W24067   9.675  41.714  12.993
51643W        W24068   0.241  32.388   1.398
51644W        W24069   1.361   8.123   3.160
51645W        W24070  36.928  20.207  13.982
51646W        W24071   2.514  32.888   2.838
51647W        W24072   2.009   4.286   1.890
51648W        W24073  32.511  29.410  11.132
51649W        W24074  41.644  22.988   2.619
51650W        W24075  18.960  30.401  10.897
51651W        W24076   7.416  21.043  10.742
51652W        W24077  23.597   8.149   2.305
51653W        W24078  42.443  36.543  12.439
51654W        W24079  27.533  24.436  13.380
51655W        W24080  29.026  36.904  11.117
51656W        W24081   3.791  20.527   4.910
51657W        W24082  20.294  31.914   3.728
51658W        W24083   1.498  42.056   0.492
51659W        W24084  22.236  29.479  11.954
51660W        W24085  41.702  27.626   3.313
51661W        W24086  13.381  14.618   1.564
51662W        W24087  25.121   2.198  14.964
51663W        W24088  33.808  14.661   1.418
51664W        W24089  40.406  35.800  13.878
51665W        W24090   8.700  11.273  11.482
51666W        W24091  43.430  18.997  12.017
51667W        W24092  44.306  42.323  14.227
51668W        W24093  41.319  13.678  14.765
51669W        W24094  28.657  38.422  10.498
51670W        W24095  24.211  37.339  10.775
51671W        W24096   1.623  24.088  10.712
51672W        W24097  36.811  28.030   1.896
51673W        W24098  34.563  18.578  11.146
51674W        W24099  40.127  41.206  14.900
51675W        W24100  30.450  28.439  11.895
51676W        W24101  16.240  22.953   3.139
51677W        W24102  31.144  17.329   0.990
51678W        W24103  21.488  31.868  11.444
51679W        W24104   4.466  17.694   0.399
51680W        W24105  21.868  13.754  11.979
51681W        W24106  31.072  20.201   2.799
51682W        W24107  40.390  10.388   3.238
51683W        W24108   7.963   7.955   0.728
51684W        W24109  16.155   5.323   4.645
51685W        W24110  26.212  37.603   1.337
51686W        W24111  28.588  18.533  14.050
51687W        W24112   1.070  21.839   3.391
51688W        W24113   3.758  20.058  10.721
51689W        W24114  38.814  31.382  12.917
51690W        W24115   6.324  37.532   3.136
51691W        W24116  13.216   7.875  11.602
51692W        W24117  18.829   7.475   4.212
51693W        W24118  42.083  21.585   4.968
51694W        W24119  40.012  19.987  14.738
51695W        W24120   2.708   5.352  13.384
51696W        W24121  14.901  33.889   0.333
51697W        W24122  19.541  26.214  14.847
51698W        W24123  15.134  23.033   4.647
51699W        W24124  12.120  16.792  11.630
51700W        W24125  30.530  19.120   2.240
51701W        W24126  43.568  35.442  13.430
51702W        W24127   4.329   1.388  14.224
51703W        W24128   8.344   8.770  11.165
51704W        W24129  32.629  26.616   4.939
51705W        W24130  34.648  38.381  12.639
51706W        W24131   1.487   0.722   4.245
51707W        W24132  39.931   9.617   1.425
51708W        W24133  39.971  25.105   3.648
51709W        W24134  15.159  36.950  14.894
51710W        W24135   3.182   4.450  12.536
51711W        W24136  22.514  12.712   4.366
51712W        W24137  38.602  31.133   2.947
51713W        W24138   8.262  10.603  10.810
51714W        W24139  18.706   5.747   2.917
51715W        W24140  18.990  43.973  11.399
51716W        W24141  41.350  27.561  10.677
51717W        W24142  10.754  28.612   2.529
51718W        W24143  19.619  11.881   1.205
51719W        W24144   9.672  40.086  14.915
51720W        W24145  34.578  35.670  11.936
51721W        W24146  24.952  30.375   1.845
51722W        W24147  37.714   4.038   3.285
51723W        W24148  43.443  11.516  14.165
51724W        W24149  11.487   8.027   3.800
51725W        W24150  15.588  16.137  13.923
51726W        W24151  20.163  29.574   0.189
51727W        W24152  39.533   6.501   3.845
51728W        W24153  29.533  25.852   2.356
51729W        W24154   5.158  21.820  13.914
51730W        W24155  18.316  31.964  14.202
51731W        W24156  41.542  34.637   0.325
51732W        W24157   9.396  26.071   1.143
51733W        W24158  30.996   5.756  12.931
51734W        W24159  36.908  16.241   2.306
51735W        W24160  19.819  12.832   3.696
51736W        W24161   6.953  35.128  11.965
51737W        W24162   5.708  38.342   1.759
51738W        W24163  28.569  41.823   1.702
51739W        W24164  24.050  17.343   0.817
51740W        W24165  20.758  12.337   0.320
51741W        W24166   5.252  23.044   1.771
51742W        W24167  31.100  19.156  14.738
51743W        W24168  20.118  33.353  13.578
51744W        W24169  20.985  15.211  14.349
51745W        W24170   6.192  16.214   3.106
51746W        W24171   9.373  26.977   2.887
51747W        W24172  34.879   0.254   0.269
51748W        W24173   4.653  15.778   1.726
51749W        W24174  13.686  40.674   1.826
51750W        W24175   6.760  35.147   1.203
51751W        W24176  38.272  18.284   2.757
51752W        W24177  27.967  43.730  13.644
51753W        W24178  27.028  26.634   4.507
51754W        W24179  10.792   0.855  12.943
51755W        W24180  31.172  16.092  14.448
51756W        W24181  18.628  43.103   0.854
51757W        W24182  23.110  16.506   1.292
51758W        W24183   6.294   5.959   1.387
51759W        W24184  26.727  33.567   0.307
51760W        W24185   4.733  19.583   3.736
51761W        W24186  14.621  27.226  14.998
51762W        W24187  15.366   6.099   2.281
51763W        W24188  23.568  26.167  10.477
51764W        W24189   3.100  12.723   0.066
51765W        W24190  35.477  22.629   4.305
51766W        W24191  41.837  22.510  10.696
51767W        W24192  10.362  35.517  14.899
51768W        W24193   4.916  32.893  11.189
51769W        W24194  23.392  17.150   3.197
51770W        W24195  10.289  13.268   2.337
51771W        W24196  26.688  19.798   2.490
51772W        W24197   5.775  40.289  12.580
51773W        W24198  27.619   5.339  11.955
51774W        W24199  19.015  26.494   2.294
51775W        W24200  20.602  42.225   1.266
51776W        W24201  34.100  23.615  10.305
51777W        W24202   9.905  39.312  11.080
51778W        W24203   5.830  14.856   2.860
51779W        W24204  28.632   9.817   2.603
51780W        W24205  15.138  33.460  12.947
51781W        W24206   5.460  25.517   1.389
51782W        W24207   1.299  25.682  11.403
51783W        W24208  39.887  39.916  14.487
51784W        W24209   8.180  39.842  12.806
51785W        W24210   5.933  42.020  14.468
51786W        W24211  22.121  41.093  10.537
51787W        W24212  29.932  42.268  14.715
51788W        W24213  16.166  36.460  10.760
51789W        W24214  28.639   4.280   2.566
51790W        W24215   6.068   3.207   3.652
51791W        W24216  14.158   4.833  12.537
51792W        W24217  40.862  34.885   4.587
51793W        W24218  26.241  21.025   1.325
51794W        W24219  31.852  20.505  13.986
51795W        W24220  18.248  12.664   3.197
51796W        W24221  40.815  38.476   4.479
51797W        W24222  11.819  10.492  10.576
51798W        W24223  41.585   5.724  14.026
51799W        W24224  36.602  23.404  10.861
51800W        W24225  10.292   8.307  14.002
51801W        W24226  41.285  41.924  11.103
51802W        W24227  41.428  40.442   3.142
51803W        W24228  35.588  37.295   0.824
51804W        W24229   8.707  20.859   0.400
51805W        W24230  33.939  44.082  13.298
51806W        W24231  38.579  41.718   1.308
51807W        W24232  14.998  31.935  14.878
51808W        W24233  28.798  34.573   4.035
51809W        W24234  43.352  19.574  10.803
51810W        W24235  38.587  19.229  10.967
51811W        W24236  35.133  18.244   1.843
51812W        W24237   4.477  18.086  12.543
51813W        W24238  43.322  41.555   1.255
51814W        W24239   9.445  27.493   2.841
51815W        W24240  35.774  35.118  12.951
51816W        W24241   9.668  39.097   0.843
51817W        W24242  22.633  29.541  13.241
51818W        W24243   9.980   8.579  11.489
51819W        W24244  23.035   6.514  11.924
51820W        W24245  14.512  20.290   2.748
51821W        W24246  17.953   1.791  14.040
51822W        W24247   5.852  18.368   0.281
51823W        W24248   0.463  38.226  14.687
51824W        W24249  23.747  10.099   5.509
51825W        W24250  29.786  13.125   3.599
51826W        W24251   9.475  27.752  13.432
51827W        W24252  24.934  33.388   2.214
51828W        W24253   6.110  28.544   4.330
51829W        W24254  36.441  33.874  10.301
51830W        W24255  37.690   5.423   4.639
51831W        W24256  35.428  18.670   1.748
51832W        W24257   7.924  17.838  11.963
51833W        W24258   3.208  11.899  12.062
51834W        W24259  22.876  18.188   1.773
51835W        W24260   4.560  15.270  13.558
51836W        W24261  36.666   7.602  10.719
51837W        W24262  32.146  38.353  14.363
51838W        W24263  32.525   8.075   0.427
51839W        W24264  13.889  40.943  13.998
51840W        W24265  38.057  12.270  12.852
51841W        W24266  37.397  37.809  13.454
51842W        W24267  40.496  43.203  10.660
51843W        W24268   2.991  14.351   3.280
51844W        W24269  36.585   3.873  13.524
51845W        W24270   3.338  37.115   2.046
51846W        W24271  36.016  36.895   1.492
51847W        W24272  21.035  44.915  14.929
51848W        W24273   8.627  34.914  14.240
51849W        W24274  15.198  32.140   3.185
51850W        W24275  28.246  16.016   4.547
51851W        W24276  16.162  43.471  13.472
51852W        W24277  38.374   4.190  13.454
51853W        W24278  19.927  14.312   0.238
51854W        W24279  20.463  44.325   1.453
51855W        W24280   0.989  40.548  11.489
51856W        W24281  41.453   3.413   0.448
51857W        W24282   7.301  26.760   2.828
51858W        W24283  10.647  31.537  14.509
51859W        W24284  22.460  29.539   2.337
51860W        W24285  22.024  37.346  14.469
51861W        W24286  12.223  13.277   4.429
51862W        W24287  18.546  20.287  12.495
51863W        W24288  17.062  14.136   0.938
51864W        W24289  27.009  18.888   2.892
51865W        W24290  32.099  36.504  11.618
51866W        W24291  41.902  35.259   1.502
51867W        W24292   9.176  36.819  11.151
51868W        W24293   6.911  18.061  11.050
51869W        W24294  12.580   5.509  14.274
51870W        W24295  36.186   8.912   9.665
51871W        W24296  22.496   3.484  13.167
51872W        W24297  10.622  27.587   0.442
51873W        W24298   6.656  21.663   1.485
51874W        W24299  43.420   6.487   3.670
51875W        W24300   1.262   0.381  10.917
51876W        W24301  33.621  35.763   4.121
51877W        W24302   1.383  21.993   0.671
51878W        W24303  32.122   0.419  11.876
51879W        W24304  22.216  22.312  11.888
51880W        W24305  44.726   5.925  13.024
51881W        W24306  21.385  28.495  10.663
51882W        W24307  16.635   3.493  14.360
51883W        W24308   1.291   3.994  11.563
51884W        W24309  15.805   3.523  12.962
51885W        W24310   2.391   6.743   2.742
51886W        W24311  13.854  29.193  12.515
51887W        W24312  18.251  32.856  12.424
51888W        W24313  21.606  24.717   4.441
51889W        W24314  23.193  35.965  14.431
51890W        W24315  18.024  21.961   0.714
51891W        W24316  43.564  44.796   4.496
51892W        W24317  38.595  44.286   0.295
51893W        W24318  32.560  33.971   1.028
51894W        W24319  28.362  43.585  14.446
51895W        W24320   8.180  26.870   1.177
51896W        W24321  12.413   7.404   2.635
51897W        W24322   5.474  28.043   1.310
51898W        W24323  19.245   8.315  12.869
51899W        W24324  41.571  33.691   4.266
51900W        W24325  37.564  22.115   0.232
51901W        W24326  14.635  19.278   1.237
51902W        W24327  26.131  43.427   4.605
51903W        W24328  24.156  42.342  13.380
51904W        W24329  23.258  12.232  10.618
51905W        W24330  31.064   8.453  11.973
51906W        W24331   7.390   0.996   3.246
51907W        W24332  33.792   8.398  13.104
51908W        W24333   6.832   4.597   1.184
51909W        W24334   0.209  24.153  14.547
51910W        W24335  29.889  41.420   1.913
51911W        W24336  22.432  24.245  13.826
51912W        W24337  44.944  28.080  11.626
51913W        W24338   6.654  18.281  13.715
51914W        W24339  14.838  11.309  14.442
51915W        W24340  26.532   1.683  13.906
51916W        W24341   1.905  26.547  13.786
51917W        W24342  25.448   9.827   0.756
51918W        W24343  14.443  29.457  14.330
51919W        W24344  18.553  27.642   1.027
51920W        W24345  31.867  15.994   5.040
51921W        W24346  19.494  35.007  12.843
51922W        W24347  37.821   9.704  14.992
51923W        W24348  31.041  27.965   3.885
51924W        W24349  34.151   4.953   3.595
51925W        W24350   5.822   2.370  13.069
51926W        W24351  15.970  26.057   0.684
51927W        W24352   8.686  25.604   4.121
51928W        W24353  26.179  31.433  13.924
51929W        W24354  43.089   0.716  12.000
51930W        W24355  18.407  11.486   4.223
51931W        W24356  41.992  20.623   4.256
51932W        W24357   9.704  33.032   2.899
51933W        W24358  17.147  31.604  10.458
51934W        W24359  13.675  13.908   2.168
51935W        W24360  10.862  21.237  11.570
51936W        W24361  42.111   1.234  11.454
51937W        W24362  40.543  33.615   0.923
51938W        W24363   0.527  34.283   9.745
51939W        W24364  24.523  13.734   2.263
51940W        W24365  25.567  30.022  12.978
51941W        W24366  15.642  41.821   3.174
51942W        W24367   7.222  24.131  14.845
51943W        W24368  17.251   9.379   4.100
51944W        W24369   6.361  19.212  14.524
51945W        W24370  38.948  40.550  12.576
51946W        W24371  20.100  23.092  11.573
51947W        W24372   3.895  42.903   1.380
51948W        W24373   2.667  31.986  12.971
51949W        W24374  22.123  20.355   2.225
51950W        W24375  18.328  11.731   2.357
51951W        W24376  43.303   3.412  13.330
51952W        W24377  38.578  11.712   1.762
51953W        W24378  17.195  38.558  14.549
51954W        W24379  25.152  17.215  12.818
51955W        W24380  17.643  23.755   0.811
51956W        W24381  16.725   1.502  10.604
51957W        W24382  44.716   1.723  13.124
51958W        W24383  32.207   3.989   4.676
51959W        W24384  22.125  15.660   3.423
51960W        W24385  34.898   9.577  12.381
51961W        W24386  21.670  25.282  13.460
51962W        W24387  44.692   9.244   5.016
51963W        W24388  17.622  41.721  11.250
51964W        W24389  18.492  14.538  12.414
51965W        W24390  10.412  11.240   2.370
51966W        W24391   9.664   4.766  11.568
51967W        W24392  25.358  21.116   0.279
51968W        W24393  10.689   6.594   4.120
51969W        W24394  42.028  28.141  14.892
51970W        W24395   0.816  33.409   0.750
51971W        W24396  28.823  10.316   2.483
51972W        W24397  26.906  22.783   4.687
51973W        W24398  43.572  17.146  10.933
51974W        W24399  23.456  42.326   1.869
51975W        W24400   4.199  26.419  14.431
51976W        W24401  35.441   7.390  10.949
51977W        W24402  27.577   3.843   4.434
51978W        W24403  25.074  16.701   2.113
51979W        W24404  19.739  43.484  11.110
51980W        W24405   2.342   4.420   4.896
51981W        W24406  25.724  43.831  14.058
51982W        W24407  19.721  13.797   1.848
51983W        W24408  15.245  37.145  12.690
51984W        W24409  10.380  14.547  14.930
51985W        W24410   6.192   1.183  13.478
51986W        W24411  12.573  16.651   1.929
51987W        W24412  26.287  14.743   3.259
51988W        W24413  40.750  27.022   1.864
51989W        W24414  29.983   2.450   2.260
51990W        W24415  20.562   2.909   4.167
51991W        W24416   1.820  23.921  12.482
51992W        W24417   7.697  20.142   2.830
51993W        W24418  37.456  26.663  14.707
51994W        W24419  29.515   5.457  13.249
51995W        W24420  23.771   7.982   2.802
51996W        W24421  37.492  36.968   3.317
51997W        W24422  41.302  21.269   4.754
51998W        W24423  31.929  45.000  12.548
51999W        W24424  15.316  19.667  13.451
52000W        W24425  10.588  39.930  14.540
52001W        W24426  34.204  29.729   4.056
52002W        W24427  20.718   2.742   0.718
52003W        W24428   3.331  19.791   0.695
52004W        W24429  24.461  30.572   3.562
52005W        W24430  18.549   2.780  12.056
52006W        W24431   7.946  24.900  13.452
52007W        W24432  10.853  39.832   4.138
52008W        W24433  26.460  25.553  14.974
52009W        W24434  21.899  17.133  12.950
52010W        W24435  14.256  33.600   1.740
52011W        W24436  40.608  13.752   2.268
52012W        W24437  26.962  39.270  11.330
52013W        W24438  41.494  43.829  12.399
52014W        W24439  17.655  33.846  12.026
52015W        W24440  28.197  18.055  10.546
52016W        W24441  42.890  12.310   2.304
52017W        W24442  13.455  18.320   1.391
52018W        W24443  20.623  43.508  12.041
52019W        W24444   6.335  41.807   1.225
52020W        W24445  24.754  28.571  14.288
52021W        W24446  37.462  30.669   2.954
52022W        W24447  36.559  31.602  11.672
52023W        W24448  33.385   4.793  11.684
52024W        W24449  27.169  17.369   2.851
52025W        W24450  25.171  17.719  13.017
52026W        W24451  17.732   0.306   3.819
52027W        W24452  24.329   4.363   4.962
52028W        W24453  42.778  34.390  14.090
52029W        W24454   6.654  13.604  11.571
52030W        W24455  25.248  14.535   3.136
52031W        W24456   0.734  42.631  11.111
52032W        W24457  33.452  24.488  13.711
52033W        W24458  27.032  28.640  12.674
52034W        W24459  44.216  27.507   4.024
52035W        W24460  26.112  26.926  10.376
52036W        W24461  14.823  24.624   4.314
52037W        W24462  21.299  20.613   3.641
52038W        W24463  18.725  21.380   3.214
52039W        W24464  19.214  11.330   2.403
52040W        W24465   3.162  40.700  12.030
52041W        W24466  31.772  44.647   0.867
52042W        W24467  39.659  13.142  11.556
52043W        W24468  22.407  21.725  13.829
52044W        W24469  44.732  43.391  12.093
52045W        W24470  11.317  38.067  13.879
52046W        W24471  30.936  34.177   1.895
52047W        W24472  15.857  41.018   2.278
52048W        W24473  24.848  24.293   2.736
52049W        W24474  31.896  36.047   4.623
52050W        W24475  35.366  32.095   2.159
52051W        W24476  22.682   9.638  14.009
52052W        W24477   0.351  23.250  11.953
52053W        W24478  22.794  20.131   0.030
52054W        W24479  13.497   9.234  11.976
52055W        W24480   0.705  16.305   3.119
52056W        W24481   6.290  21.005  11.168
52057W        W24482  33.575  14.515  11.618
52058W        W24483  23.185  22.085   0.977
52059W        W24484  43.304  36.365  11.987
52060W        W24485  25.913  30.440  12.302
52061W        W24486  28.241   7.843   1.286
52062W        W24487  24.368  19.702  11.613
52063W        W24488  14.366  27.658   2.872
52064W        W24489  38.988  30.908   0.252
52065W        W24490  28.926  12.557   0.699
52066W        W24491  13.280  12.003   1.210
52067W        W24492  25.412  32.352  13.103
52068W        W24493  19.004  21.148   0.483
52069W        W24494  37.081  37.140  13.273
52070W        W24495  11.473  36.005  11.033
52071W        W24496  26.690  32.357  13.885
52072W        W24497  30.622  33.099  13.416
52073W        W24498   0.972  28.721   0.815
52074W        W24499  35.444  10.246  13.611
52075W        W24500  13.127  34.956   2.323
52076W        W24501  33.577  41.585   2.149
52077W        W24502   3.859  16.777   3.582
52078W        W24503  32.554  16.432  11.586
52079W        W24504  25.429   5.679   0.731
52080W        W24505  39.453  32.970  14.560
52081W        W24506  40.837  10.142   3.347
52082W        W24507  25.314  15.117   0.741
52083W        W24508  38.052   6.138   1.367
52084W        W24509   3.802  18.617   3.318
52085W        W24510  43.362   6.667  11.169
52086W        W24511   9.913   0.385  11.569
52087W        W24512  10.787  24.469  13.184
52088W        W24513  28.488  12.239  13.041
52089W        W24514  25.992   8.645   0.808
52090W        W24515  31.468  17.672   4.647
52091W        W24516   4.392  19.421   4.087
52092W        W24517  16.828  35.842   4.277
52093W        W24518  33.029   7.835   2.724
52094W        W24519  25.125   8.432   3.379
52095W        W24520  42.002   1.353  14.923
52096W        W24521   3.458   5.855   1.350
52097W        W24522   8.470   8.221   0.803
52098W        W24523  15.241   3.555   1.892
52099W        W24524  13.184   3.723   3.799
52100W        W24525  27.434  12.426   2.322
52101W        W24526  36.651  14.057  11.026
52102W        W24527  35.329   7.473  11.434
52103W        W24528  11.758  31.503   4.578
52104W        W24529  26.958  28.892   5.021
52105W        W24530   6.881   3.036  11.614
52106W        W24531  12.142  37.050   1.256
52107W        W24532  24.700  13.638  10.676
52108W        W24533   5.262  17.053  11.547
52109W        W24534   1.986  26.975   1.148
52110W        W24535  33.063  16.979   2.777
52111W        W24536  16.598  23.713   3.712
52112W        W24537  34.512  40.924   3.601
52113W        W24538  15.451   0.428  14.944
52114W        W24539  26.440  16.591   3.314
52115W        W24540  33.626  18.742  11.167
52116W        W24541   9.243   0.847  11.349
52117W        W24542  39.733  16.197   4.193
52118W        W24543  21.993   3.481   2.982
52119W        W24544  22.809  30.240   1.913
52120W        W24545  40.505  23.924   2.362
52121W        W24546  13.212  35.703   2.154
52122W        W24547   2.303  28.565   3.861
52123W        W24548   4.164  44.329  11.381
52124W        W24549  29.170   4.475   0.376
52125W        W24550  15.366   4.453  11.667
52126W        W24551  28.669  35.556  14.051
52127W        W24552  21.173   8.899  14.763
52128W        W24553  18.766  32.175  11.205
52129W        W24554  12.799  12.166   1.385
52130W        W24555  17.043  11.635  13.028
52131W        W24556  24.061   0.987   0.404
52132W        W24557  35.559  43.904   1.408
52133W        W24558  17.549  38.154   0.428
52134W        W24559  42.411   7.344   1.768
52135W        W24560  37.902   8.672  11.063
52136W        W24561  11.445  25.685   2.555
52137W        W24562  22.060   3.266  11.941
52138W        W24563  11.103  14.792  10.784
52139W        W24564   1.700  10.425  13.780
52140W        W24565  20.893  32.554  13.834
52141W        W24566  37.335  17.565  12.007
52142W        W24567  32.101  39.325   2.708
52143W        W24568  28.083   3.970  13.577
52144W        W24569  19.179  35.859  10.633
52145W        W24570  22.562  32.918   0.880
52146W        W24571   8.381   6.281  14.423
52147W        W24572  18.034   5.318  14.464
52148W        W24573   3.990  10.744  12.913
52149W        W24574   6.773  28.556  12.819
52150W        W24575   6.512  27.190  14.685
52151W        W24576  11.565  12.216  13.000
52152W        W24577   3.455  28.167   3.702
52153W        W24578  20.355  23.626   3.287
52154W        W24579  33.163  35.766  13.864
52155W        W24580  29.194  21.242   5.242
52156W        W24581  18.845  12.711  13.897
52157W        W24582  14.050  39.603   1.140
52158W        W24583  35.035   4.497   0.839
52159W        W24584  36.080  14.659  14.690
52160W        W24585  25.210  38.566   2.712
52161W        W24586  30.875  22.099   4.931
52162W        W24587  20.947  22.368  10.648
52163W        W24588   5.750  38.071   4.243
52164W        W24589  11.761  23.554   3.028
52165W        W24590  42.538   4.160   4.514
52166W        W24591  38.053   5.251   2.708
52167W        W24592  44.888  27.621  14.513
52168W        W24593  42.956  28.482   2.164
52169W        W24594   7.144  24.671   3.726
52170W        W24595  31.582  19.395   4.603
52171W        W24596  39.858  41.531   4.685
52172W        W24597  21.094   1.989  10.701
52173W        W24598  13.254  17.250  13.526
52174W        W24599  20.205  44.857  13.052
52175W        W24600  38.896   8.427   1.925
52176W        W24601  20.946  25.242  12.583
52177W        W24602  12.838  29.527   2.384
52178W        W24603  17.813  26.112   2.209
52179W        W24604  41.978   4.906   2.318
52180W        W24605  28.994  40.543   1.672
52181W        W24606   9.152  16.597   2.135
52182W        W24607  42.397  35.585   3.265
52183W        W24608  17.036  11.764  13.550
52184W        W24609  29.623   2.250   1.385
52185W        W24610  39.430  19.175  14.870
52186W        W24611   3.404  33.501   5.178
52187W        W24612  19.558   6.299   0.664
52188W        W24613   7.799  22.723  14.479
52189W        W24614  40.968  31.753  14.903
52190W        W24615  38.578  24.713  10.692
52191W        W24616   3.757  27.118   4.607
52192W        W24617  28.049   7.380  14.231
52193W        W24618  34.922  25.879  11.544
52194W        W24619   1.884  19.041  14.627
52195W        W24620   4.922  26.164  11.042
52196W        W24621  32.886   1.220   3.312
52197W        W24622   2.774  32.184  10.762
52198W        W24623  30.988  39.350  10.655
52199W        W24624  31.147  15.370  13.595
52200W        W24625  19.824   0.944   5.019
52201W        W24626  36.565  26.905   4.057
52202W        W24627  43.924  17.207  14.416
52203W        W24628  18.109  31.447  14.194
52204W        W24629  32.549  39.097  12.462
52205W        W24630  30.092  19.981  12.606
52206W        W24631   1.287  37.436  12.960
52207W        W24632  15.475  30.029   0.645
52208W        W24633   7.117  16.791  12.591
52209W        W24634  11.054  15.837   4.522
52210W        W24635  37.381  18.827   4.947
52211W        W24636   2.239   8.963   2.464
52212W        W24637  32.354   1.434  14.329
52213W        W24638  30.935  36.153  14.997
52214W        W24639  23.180   8.210   2.906
52215W        W24640  21.222  14.587   1.651
52216W        W24641   9.939  39.471  12.438
52217W        W24642  10.387   4.984   3.219
52218W        W24643  28.208   0.825  14.827
52219W        W24644  40.924  16.142   3.288
52220W        W24645  25.279  23.076  10.732
52221W        W24646   1.448  44.029   4.613
52222W        W24647   2.493  37.366  14.413
52223W        W24648  41.244   4.937  10.592
52224W        W24649  13.225  28.221   1.351
52225W        W24650   5.859  38.941   2.851
52226W        W24651   1.443  43.206  12.082
52227W        W24652  13.505   4.342   1.776
52228W        W24653  28.958  44.737  13.506
52229W        W24654   2.169  14.319   4.101
52230W        W24655  38.793  20.975  12.972
52231W        W24656   2.239  41.118   0.965
52232W        W24657  40.569  38.401  14.835
52233W        W24658  29.673   8.900   0.583
52234W        W24659   7.868  13.325   2.448
52235W        W24660  34.962   1.928   4.222
52236W        W24661  44.203  37.711  14.561
52237W        W24662   5.005   4.902  11.185
52238W        W24663  30.314  12.435   3.084
52239W        W24664   1.563  38.023  12.363
52240W        W24665  29.007   4.663   1.732
52241W        W24666  22.272  16.152  13.837
52242W        W24667  18.116  18.001  11.172
52243W        W24668   4.858  26.921   0.585
52244W        W24669   8.697  15.209  13.580
52245W        W24670  43.935   9.755   0.806
52246W        W24671   8.686  35.942   1.601
52247W        W24672  14.380  22.845   2.261
52248W        W24673  11.205  35.866  11.491
52249W        W24674  35.067  39.416  10.476
52250W        W24675  40.841   2.751  14.346
52251W        W24676  29.687  19.562  10.679
52252W        W24677  32.978  16.747   4.751
52253W        W24678  43.269  31.233  12.349
52254W        W24679  11.356  38.522   4.014
52255W        W24680   9.873  38.809   1.320
52256W        W24681  19.769  19.501   4.019
52257W        W24682   6.146  30.473   3.090
52258W        W24683  11.254  30.736  11.418
52259W        W24684  16.077  13.279   4.213
52260W        W24685  29.092  11.118   4.486
52261W        W24686  33.353  34.587   0.740
52262W        W24687   8.844   9.400   0.611
52263W        W24688  39.923  18.660  10.642
52264W        W24689   4.969  43.942   4.560
52265W        W24690  15.201  21.015   3.692
52266W        W24691  23.806  24.142  14.822
52267W        W24692  30.227  18.116   2.218
52268W        W24693  40.779  38.135  12.160
52269W        W24694  32.861  39.795  11.577
52270W        W24695  29.052  40.223  13.722
52271W        W24696  33.789   8.484  11.068
52272W        W24697  41.464  21.577   2.801
52273W        W24698   1.974  31.836   1.809
52274W        W24699  21.212  13.588   1.257
52275W        W24700   0.152  19.615  13.567
52276W        W24701  29.530   8.829   1.073
52277W        W24702  31.604  31.279   3.147
52278W        W24703  37.297  14.311   3.855
52279W        W24704  40.963   3.350   1.571
52280W        W24705  44.693   6.344  13.869
52281W        W24706   7.164  21.595  13.041
52282W        W24707  28.479  19.028  13.914
52283W        W24708  35.566  19.610   3.496
52284W        W24709   6.664  18.336  11.755
52285W        W24710  19.644  37.035  14.113
52286W        W24711  11.591   7.043  13.604
52287W        W24712  43.619  29.414   3.237
52288W        W24713  13.161  14.688  14.048
52289W        W24714  13.890  31.648   4.143
52290W        W24715  17.151  27.351   4.450
52291W        W24716   9.800  32.482  12.789
52292W        W24717  12.141  11.594  12.489
52293W        W24718  13.914  26.453  14.826
52294W        W24719  28.702  43.859  13.044
52295W        W24720  18.700  11.056  11.623
52296W        W24721  39.590  39.528   0.884
52297W        W24722  24.385  23.572   0.940
52298W        W24723   1.414  20.180  12.393
52299W        W24724  36.583  13.734   2.728
52300W        W24725  13.181   1.317  13.551
52301W        W24726   6.718  12.650  14.583
52302W        W24727  19.992   1.241   2.840
52303W        W24728  15.078  13.674   3.292
52304W        W24729  34.052  17.860   0.842
52305W        W24730  42.380  18.084  11.132
52306W        W24731  19.141  41.187  11.986
52307W        W24732  16.391  24.186  13.462
52308W        W24733   8.910  10.579  11.487
52309W        W24734   4.231  40.866  13.461
52310W        W24735  14.722  32.816  12.486
52311W        W24736   8.755  27.599   2.000
52312W        W24737  40.926  11.442   3.804
52313W        W24738  27.534  38.264   1.807
52314W        W24739   4.208  26.408   4.805
52315W        W24740   5.018   9.846   0.457
52316W        W24741  34.422  10.276   0.819
52317W        W24742  41.803   5.927   4.123
52318W        W24743  40.376  20.302   4.629
52319W        W24744  23.935  11.722   0.716
52320W        W24745  40.760  43.963   1.414
52321W        W24746  18.688   3.682   1.191
52322W        W24747   4.735  13.403  14.663
52323W        W24748  10.264  34.106   3.261
52324W        W24749   5.236  40.711   3.824
52325W        W24750   4.840  16.742   3.587
52326W        W24751  29.185   1.357  12.116
52327W        W24752  13.052  42.892   3.157
52328W        W24753  38.404   6.643  13.468
52329W        W24754  22.765  13.712  12.386
52330W        W24755  38.356   1.498   1.788
52331W        W24756  15.769  18.980  12.555
52332W        W24757  26.926  31.522   5.401
52333W        W24758  36.822  39.334   3.067
52334W        W24759  40.333  19.202   2.702
52335W        W24760   6.874   9.849  12.535
52336W        W24761  38.194  13.222  14.276
52337W        W24762   7.741  13.892   1.832
52338W        W24763  11.365  12.228  11.105
52339W        W24764   1.056  34.604  12.904
52340W        W24765   8.938   9.676  13.168
52341W        W24766  36.898   7.440  13.869
52342W        W24767  26.855  17.202  11.680
52343W        W24768   4.734   6.167   3.195
52344W        W24769  20.043  36.648  12.602
52345W        W24770  30.054  10.407  11.519
52346W        W24771  21.010  41.821  14.435
52347W        W24772   4.832  32.859   2.363
52348W        W24773  37.923  25.065  11.119
52349W        W24774  32.109  32.551   3.704
52350W        W24775  23.260  43.035  11.416
52351W        W24776   1.223  14.988  12.050
52352W        W24777  13.593  25.630  13.794
52353W        W24778  39.207  24.172  14.865
52354W        W24779  34.478  30.170   1.677
52355W        W24780  22.449   5.333  11.534
52356W        W24781   2.357   6.423   0.308
52357W        W24782  42.290   0.435  12.945
52358W        W24783  24.821  22.152  12.431
52359W        W24784  34.254  10.097   0.100
52360W        W24785   9.356  30.988   2.929
52361W        W24786  22.602  42.310   1.961
52362W        W24787  40.203   7.656   3.591
52363W        W24788  38.579   0.815  12.933
52364W        W24789  25.070  11.959   4.517
52365W        W24790  17.223  28.933  11.651
52366W        W24791  10.902   9.408  13.576
52367W        W24792  34.189  30.627   4.136
52368W        W24793  23.910  39.785   0.029
52369W        W24794  28.655   3.342   4.203
52370W        W24795  27.718   0.345  12.421
52371W        W24796   3.436  30.927  12.163
52372W        W24797   8.918  17.125   2.220
52373W        W24798  14.851  11.891   1.179
52374W        W24799   7.751  21.148   0.319
52375W        W24800  23.272  23.041   0.505
52376W        W24801  34.955  34.845   3.676
52377W        W24802  12.791  10.172  12.565
52378W        W24803   4.977  15.303  11.926
52379W        W24804  30.954  36.426   0.450
52380W        W24805  39.621  23.155   4.666
52381W        W24806  16.108  14.562  12.477
52382W        W24807  12.475   9.745   0.182
52383W        W24808  20.184  26.037  10.451
52384W        W24809  21.749   6.843   4.098
52385W        W24810  24.190   5.592  12.945
52386W        W24811  44.009  14.564   5.045
52387W        W24812  30.633   6.716  14.859
52388W        W24813  18.049  32.979  14.863
52389W        W24814  27.454  14.766   4.396
52390W        W24815   6.013  38.355  11.881
52391W        W24816   4.744  30.525   0.872
52392W        W24817  33.961  25.620  12.566
52393W        W24818  18.864  35.633   5.091
52394W        W24819  32.133  10.729   2.831
52395W        W24820  18.516  36.158   0.433
52396W        W24821   2.904  14.501  13.983
52397W        W24822  27.626  27.990  12.187
52398W        W24823  15.344  11.911   3.730
52399W        W24824   9.046  28.933   2.087
52400W        W24825  28.200  30.082   2.918
52401W        W24826  25.536  16.761  11.185
52402W        W24827  18.043  15.241   0.079
52403W        W24828  12.824  40.513   2.858
52404W        W24829  12.261  35.172   0.410
52405W        W24830  43.989  21.963  14.828
52406W        W24831  35.324  40.990   2.417
52407W        W24832  42.034  25.535   0.375
52408W        W24833  37.580   2.992   3.243
52409W        W24834  20.809  30.593   3.399
52410W        W24835  42.766  40.449  12.860
52411W        W24836   9.314  37.080   1.823
52412W        W24837   7.591  37.504   1.192
52413W        W24838   2.820   4.243  14.055
52414W        W24839  12.078  42.871  14.432
52415W        W24840   8.115  30.925  12.827
52416W        W24841  43.975   8.294  14.569
52417W        W24842  29.572  38.408   2.932
52418W        W24843  37.439   9.770   1.338
52419W        W24844   6.454  29.399   1.770
52420W        W24845  40.275  10.919  14.340
52421W        W24846  27.476  38.443  13.021
52422W        W24847  43.774  24.519   3.645
52423W        W24848  22.185  33.406   1.447
52424W        W24849  34.563  43.945  10.903
52425W        W24850  42.870   1.359   2.751
52426W        W24851   3.750  19.796  14.871
52427W        W24852  43.756   6.634  11.553
52428W        W24853  27.282  42.097  14.356
52429W        W24854  28.618   7.428   4.126
52430W        W24855  30.127  34.083   1.299
52431W        W24856  33.549  19.765  13.989
52432W        W24857  33.467  10.301  11.888
52433W        W24858  19.180  33.662  14.644
52434W        W24859  20.741  20.240   1.026
52435W        W24860  19.254  13.509  12.129
52436W        W24861  26.689  15.806   4.280
52437W        W24862   9.686  33.061   0.998
52438W        W24863  11.312   8.427   4.555
52439W        W24864  26.905  35.459   4.434
52440W        W24865  43.979  38.101   1.450
52441W        W24866  36.358  33.891   1.276
52442W        W24867   6.680  10.045  11.530
52443W        W24868  14.288  28.988  11.242
52444W        W24869   2.231   4.501   2.346
52445W        W24870   2.519  14.052  11.124
52446W        W24871  22.625  38.999  11.399
52447W        W24872  13.833   9.836   0.075
52448W        W24873  30.862  16.198  13.886
52449W        W24874  18.818   4.389   2.341
52450W        W24875  28.672  33.516   3.166
52451W        W24876  43.998  20.273   4.209
52452W        W24877  36.514  25.223  13.439
52453W        W24878  37.263  41.761  13.052
52454W        W24879  20.109  23.806   2.254
52455W        W24880  31.655  20.042  13.820
52456W        W24881  25.895  34.064   1.308
52457W        W24882  18.379  41.994   3.171
52458W        W24883  20.560  35.583  12.342
52459W        W24884   4.279   5.270   1.858
52460W        W24885   5.788  32.382  11.526
52461W        W24886  26.233  41.472   1.545
52462W        W24887  22.207  34.420   2.555
52463W        W24888  40.926  39.880   2.672
52464W        W24889  37.467  12.303  11.502
52465W        W24890   7.716  36.045   1.603
52466W        W24891  32.438  31.723  12.235
52467W        W24892  33.962  18.222   4.089
52468W        W24893   3.705  13.355  14.894
52469W        W24894  24.799  14.132  13.501
52470W        W24895  17.963  21.046   2.741
52471W        W24896  12.226  17.561  12.823
52472W        W24897  11.136  41.235  12.868
52473W        W24898  33.139   0.852   2.705
52474W        W24899  15.418  13.605  11.878
52475W        W24900  17.022  34.091   0.954
52476W        W24901  13.917   8.917  10.776
52477W        W24902  33.461  18.324   4.097
52478W        W24903  43.139  39.320  12.037
52479W        W24904  39.382  33.920   3.851
52480W        W24905   4.791  30.509  14.767
52481W        W24906  37.730  21.273   4.819
52482W        W24907  27.615  15.804   4.152
52483W        W24908   0.431  16.496  12.106
52484W        W24909  36.579  24.046   2.388
52485W        W24910  16.078  11.985   3.783
52486W        W24911  44.262  35.025  10.927
52487W        W24912  39.462  25.523  10.422
52488W        W24913  40.053  40.977   2.703
52489W        W24914  20.086  35.678   1.962
52490W        W24915  28.214   0.364   0.910
52491W        W24916  23.816  23.323  13.580
52492W        W24917  20.749  14.229  12.398
52493W        W24918   2.266  25.124   4.353
52494W        W24919   4.683   7.888   0.293
52495W        W24920   7.746   4.824  13.568
52496W        W24921  43.554  14.138   3.228
52497W        W24922  16.642  19.678   3.352
52498W        W24923  17.168  41.474  11.163
52499W        W24924  43.259  44.382  12.042
52500W        W24925  23.615  14.606  12.904
52501W        W24926  18.019  13.652  12.488
52502W        W24927  34.119  14.587   3.868
52503W        W24928  39.466  17.276   1.896
52504W        W24929  34.302   7.870  13.851
52505W        W24930  35.043  11.428   0.399
52506W        W24931  19.261  43.923  13.880
52507W        W24932  42.919  12.016  10.611
52508W        W24933  27.939  33.443  11.500
52509W        W24934  32.009  21.582  13.092
52510W        W24935  26.675  26.551   0.742
52511W        W24936   1.764  31.608   2.812
52512W        W24937   0.113  43.310   2.487
52513W        W24938  19.095  36.939  14.555
52514W        W24939  42.820  42.499  13.862
52515W        W24940  42.340  26.888  13.212
52516W        W24941  34.909  44.220  13.737
52517W        W24942  30.923  23.519   3.194
52518W        W24943  42.977   5.727   3.536
52519W        W24944  26.246   0.755  14.970
52520W        W24945   3.882   6.474  11.511
52521W        W24946   9.881  34.265   4.144
52522W        W24947  44.239  25.083   0.220
52523W        W24948  20.373  23.139  11.131
52524W        W24949  43.623  28.222   1.124
52525W        W24950  40.395  19.712  14.982
52526W        W24951  21.291  36.061  11.506
52527W        W24952  34.179  40.311  14.688
52528W        W24953  31.682   0.234  13.619
52529W        W24954  40.070  19.101  14.524
52530W        W24955  35.721   4.299   2.185
52531W        W24956   0.243  34.817   0.384
52532W        W24957  22.490   1.909   3.619
52533W        W24958  11.848  39.274   0.998
52534W        W24959  11.761  17.489   3.099
52535W        W24960   9.197  35.150   3.264
52536W        W24961   6.343  28.710   0.971
52537W        W24962   8.577  30.101   2.811
52538W        W24963   5.799  32.574   3.363
52539W        W24964  32.584   6.723   0.051
52540W        W24965  20.209  13.117   2.311
52541W        W24966  30.179  16.052  10.529
52542W        W24967  33.121  25.732  14.618
52543W        W24968   9.170  21.228  11.181
52544W        W24969  10.161  10.656  12.992
52545W        W24970  37.461  27.677   1.169
52546W        W24971  32.134  40.489  14.813
52547W        W24972   7.391  24.367  12.013
52548W        W24973  21.913  24.121   0.298
52549W        W24974  24.592   8.235  13.912
52550W        W24975   0.405  26.778  10.146
52551W        W24976  26.707   4.844   0.529
52552W        W24977   8.230  33.538   4.994
52553W        W24978  16.427  18.013  14.843
52554W        W24979  36.588   3.007   2.329
52555W        W24980  22.137  30.491   0.757
52556W        W24981  44.669  30.527  12.429
52557W        W24982  17.831   1.891   2.917
52558W        W24983  33.499  23.726   1.735
52559W        W24984  33.774  26.196   1.777
52560W        W24985  15.809   9.424   2.174
52561W        W24986  44.933   3.523   2.821
52562W        W24987  38.826   0.437  10.231
52563W        W24988   2.499  26.124   0.863
52564W        W24989  32.096   3.541   3.281
52565W        W24990  33.088   5.662   4.617
52566W        W24991  38.765  34.583  13.022
52567W        W24992  23.294  19.246   3.097
52568W        W24993  12.114   2.187  13.825
52569W        W24994  32.501  17.133  13.857
52570W        W24995  19.221  24.095  13.544
52571W        W24996  21.535  34.352  13.942
52572W        W24997   1.682   3.739   2.550
52573W        W24998   6.336   3.111  11.155
52574W        W24999  40.279  33.875   4.533
52575W        W25000  34.057  20.159  10.961
52576W        W25001  13.888   2.876  13.478
52577W        W25002  39.793  29.939   2.853
52578W        W25003  40.334  15.525   2.754
52579W        W25004  39.015  33.564  11.632
52580W        W25005  43.387  19.606   3.826
52581W        W25006  13.241   4.700   2.038
52582W        W25007  28.669  35.946  12.565
52583W        W25008  29.391  34.572  14.920
52584W        W25009  22.503  26.578   2.977
52585W        W25010  12.804   1.900   0.261
52586W        W25011  15.056  26.431   0.436
52587W        W25012  39.322   2.976   4.777
52588W        W25013  29.193  12.613   0.242
52589W        W25014   8.646  41.464   0.493
52590W        W25015  23.037  10.189   4.676
52591W        W25016  34.637  10.027  11.997
52592W        W25017  20.156   8.854  11.010
52593W        W25018  10.786  29.963   3.770
52594W        W25019  40.868   7.736   4.210
52595W        W25020   0.740   6.796  12.495
52596W        W25021  10.138  30.607   4.666
52597W        W25022  23.646   8.481   3.875
52598W        W25023  33.481  25.424  12.437
52599W        W25024  26.465  39.402   4.618
52600W        W25025  16.726  36.413   2.433
52601W        W25026  42.351  31.967   0.789
52602W        W25027  34.075  35.231   2.728
52603W        W25028  20.021  33.193   4.059
52604W        W25029  21.725  10.869  13.077
52605W        W25030  30.388  38.368  11.141
52606W        W25031   5.246  32.698  10.688
52607W        W25032  10.836  37.107   1.722
52608W        W25033  21.863  32.421   2.717
52609W        W25034  35.921  27.277  14.945
52610W        W25035  23.631   4.918   4.378
52611W        W25036   9.590   8.748   2.617
52612W        W25037   7.411   0.384   3.695
52613W        W25038  43.272  36.663  13.932
52614W        W25039  28.201   2.350   1.429
52615W        W25040  21.373  17.257  10.340
52616W        W25041  18.553  34.457   4.291
52617W        W25042  33.008  21.526  14.000
52618W        W25043  10.150  12.586   3.131
52619W        W25044   3.238  25.393  13.445
52620W        W25045  24.181  14.380   0.904
52621W        W25046  11.988  34.942  10.976
52622W        W25047  24.664  31.734   0.844
52623W        W25048  35.407  15.798  12.828
52624W        W25049  12.697  24.476  12.040
52625W        W25050  32.563  34.821   3.237
52626W        W25051  23.510  12.073   2.372
52627W        W25052  23.075  29.715  14.543
52628W        W25053  16.824  31.949   9.925
52629W        W25054  22.613  18.659   2.002
52630W        W25055   3.045   2.333   4.586
52631W        W25056  12.071  37.051  12.544
52632W        W25057   9.947  39.736  12.883
52633W        W25058  39.030  33.295   4.065
52634W        W25059  10.072  12.605   4.497
52635W        W25060  38.315  32.932   0.240
52636W        W25061  25.469   7.070   0.529
52637W        W25062  23.481  34.090  13.824
52638W        W25063  20.635  10.727  10.885
52639W        W25064  31.420  18.745   3.182
52640W        W25065  28.664  25.971   2.857
52641W        W25066  33.626  40.691   3.935
52642W        W25067   7.201  33.683   2.918
52643W        W25068  11.116  20.210  13.331
52644W        W25069  15.127  26.880  14.334
52645W        W25070   0.414   8.779  13.918
52646W        W25071  34.491  25.510  14.503
52647W        W25072  14.252   2.724   0.809
52648W        W25073  12.350  40.779   1.305
52649W        W25074  37.497  29.118  13.565
52650W        W25075   2.137   3.020  11.471
52651W        W25076  28.203  40.857   1.921
52652W        W25077  18.139  36.796  10.678
52653W        W25078  21.538  34.376   0.493
52654W        W25079  39.795  44.904   3.276
52655W        W25080  35.095  24.264   4.880
52656W        W25081   0.714  13.239  11.090
52657W        W25082  19.764  24.473  12.595
52658W        W25083   2.696  18.261   4.762
52659W        W25084  34.764  43.856   1.871
52660W        W25085  11.751  34.275  13.823
52661W        W25086  16.295  13.071  11.214
52662W        W25087  22.080  36.185  13.826
52663W        W25088  38.529  43.370  13.999
52664W        W25089  23.038  35.052   0.846
52665W        W25090  41.762  17.633   1.389
52666W        W25091  24.323  21.976  12.355
52667W        W25092   4.315  43.629  14.469
52668W        W25093  38.732  22.221  14.314
52669W        W25094   4.836  33.696   2.649
52670W        W25095  41.821   8.946   1.340
52671W        W25096  23.028  34.820  13.276
52672W        W25097  43.744  44.397   0.856
52673W        W25098   5.849  35.349  12.593
52674W        W25099   6.129  34.373   0.230
52675W        W25100  15.434  44.357   4.636
52676W        W25101  26.907  27.478  13.457
52677W        W25102  28.887  19.291   1.705
52678W        W25103  30.048  16.268  10.993
52679W        W25104  22.125  17.740   0.852
52680W        W25105  10.186  42.884  10.675
52681W        W25106  35.480  42.404   2.364
52682W        W25107  20.119  39.037   4.111
52683W        W25108  44.993  13.639  14.016
52684W        W25109  43.752  44.869  10.695
52685W        W25110  15.328  14.771   0.796
52686W        W25111  13.618   3.075   4.952
52687W        W25112  17.742  23.171  12.980
52688W        W25113   7.392  17.472  13.912
52689W        W25114   6.654  15.239   3.435
52690W        W25115  37.016  34.770  11.824
52691W        W25116  40.034  26.652  10.680
52692W        W25117  29.739  43.919  14.348
52693W        W25118  24.330  13.654  14.285
52694W        W25119  13.821  41.905   0.321
52695W        W25120  41.918  44.072   3.567
52696W        W25121  13.780  31.363  13.092
52697W        W25122  19.013   0.220   2.350
52698W        W25123   8.112  23.240  12.655
52699W        W25124  33.650  17.308  13.467
52700W        W25125  44.032  29.443   1.856
52701W        W25126  33.195  44.164   0.964
52702W        W25127  32.117  40.817   0.231
52703W        W25128  13.124  30.399   2.334
52704W        W25129  22.484  24.719  13.484
52705W        W25130  30.916  33.326  10.724
52706W        W25131  32.589  40.429  14.570
52707W        W25132   5.484  26.515  14.554
52708W        W25133   0.550  13.645  12.391
52709W        W25134  23.187  33.423  14.908
52710W        W25135  19.619  32.061  11.221
52711W        W25136   0.302  13.302   0.674
52712W        W25137   9.294  34.131   3.113
52713W        W25138  16.064  41.001  12.396
52714W        W25139  11.683  39.577  14.547
52715W        W25140  14.052  43.541  11.106
52716W        W25141  14.633  13.106  11.428
52717W        W25142  35.402  36.872   0.330
52718W        W25143  11.163  19.999  11.518
52719W        W25144  37.996  40.507  11.105
52720W        W25145   1.655  26.157  14.558
52721W        W25146   0.992  33.576   2.599
52722W        W25147  28.583   9.391   4.206
52723W        W25148  33.339  44.496  10.285
52724W        W25149  10.844  35.101   2.831
52725W        W25150  37.085   2.514   3.760
52726W        W25151  15.091  33.428  14.004
52727W        W25152  23.935   6.968  13.309
52728W        W25153   4.399   2.943  11.077
52729W        W25154  18.810  42.162  13.839
52730W        W25155  10.286  38.095  10.857
52731W        W25156  38.954  24.347  11.558
52732W        W25157  21.555  43.046   1.931
52733W        W25158  37.848  30.045   3.399
52734W        W25159  15.339  41.781   1.335
52735W        W25160  11.919  33.015   3.150
52736W        W25161  38.524  12.311  12.577
52737W        W25162  30.405   3.411  14.560
52738W        W25163  42.901  38.809   0.776
52739W        W25164  27.422  33.047  10.295
52740W        W25165  25.708  33.809  12.483
52741W        W25166  19.544  28.797  14.380
52742W        W25167   0.290   2.642  10.747
52743W        W25168  26.607  31.097   1.334
52744W        W25169  37.947   7.657  11.114
52745W        W25170  27.050   9.261  10.603
52746W        W25171  36.072  40.914   3.652
52747W        W25172  29.665  10.574   3.834
52748W        W25173   5.431   4.512  14.503
52749W        W25174  28.287   4.801   3.238
52750W        W25175   4.446  44.808   2.970
52751W        W25176  36.799  14.696  14.821
52752W        W25177  17.160  25.942  12.947
52753W        W25178  13.094   7.261   3.196
52754W        W25179  44.258  44.300   0.730
52755W        W25180  43.222  44.488   0.725
52756W        W25181  18.817   5.270   3.126
52757W        W25182  21.629  35.631  12.256
52758W        W25183  34.855  36.973   2.698
52759W        W25184   7.337  10.656   3.744
52760W        W25185  40.428  44.293   3.609
52761W        W25186  12.589  37.429  11.058
52762W        W25187  41.780  12.027  13.468
52763W        W25188  38.457  24.977   3.794
52764W        W25189  43.051   4.149   0.378
52765W        W25190  33.095  36.262   3.275
52766W        W25191  12.091   4.158   1.918
52767W        W25192  43.168  15.601  13.860
52768W        W25193  16.336  42.397   4.577
52769W        W25194   3.308  32.531  12.540
52770W        W25195  11.165  25.389   3.743
52771W        W25196   3.254  34.417   1.384
52772W        W25197   1.788   3.782   4.402
52773W        W25198  34.546  39.540   1.166
52774W        W25199  27.156  43.858   1.870
52775W        W25200  29.679  42.725   2.774
52776W        W25201  36.091  11.274   1.416
52777W        W25202  17.637  27.656   1.287
52778W        W25203  35.997  34.006  11.116
52779W        W25204  23.873  23.495  14.300
52780W        W25205   3.412  43.028   3.824
52781W        W25206  34.087  42.890  13.846
52782W        W25207  14.126   9.744   4.128
52783W        W25208  23.460   6.555   0.431
52784W        W25209   8.145  19.907   2.760
52785W        W25210  32.682  14.364   4.609
52786W        W25211   0.852  43.476   3.615
52787W        W25212   5.883   6.710  10.709
52788W        W25213  16.966  21.026   3.663
52789W        W25214  40.855  13.703  14.975
52790W        W25215   4.391  37.998   3.548
52791W        W25216  16.353  33.261  10.252
52792W        W25217  36.233  13.583  13.881
52793W        W25218  37.627  22.205  13.234
52794W        W25219  12.835  39.420  12.586
52795W        W25220  17.812  17.548  12.546
52796W        W25221  16.558  38.917  12.770
52797W        W25222  11.985  36.118  12.045
52798W        W25223  31.942   0.644  11.441
52799W        W25224  29.485  40.529   4.623
52800W        W25225   6.391  42.285   5.096
52801W        W25226   6.258  44.994   3.252
52802W        W25227  25.356  25.236  14.934
52803W        W25228   0.790  12.283   2.334
52804W        W25229  42.997  22.120   4.024
52805W        W25230  21.110   2.224   1.215
52806W        W25231   6.886  14.093  13.504
52807W        W25232  21.568  17.159  14.390
52808W        W25233  23.686  13.787   1.852
52809W        W25234  15.683  44.324  11.973
52810W        W25235   5.499  15.544   0.309
52811W        W25236  35.975  17.822   0.920
52812W        W25237  36.570  26.862  10.791
52813W        W25238  24.117  16.871  11.128
52814W        W25239  19.199  31.550   3.670
52815W        W25240  28.031  16.721   0.250
52816W        W25241  25.723  19.543   0.200
52817W        W25242   4.340  12.328   4.988
52818W        W25243  16.379   5.638  10.607
52819W        W25244  15.815  39.305   0.318
52820W        W25245  37.468  16.950   4.310
52821W        W25246  44.988  15.729  14.522
52822W        W25247  32.431  43.840  11.640
52823W        W25248  12.342  13.358   0.297
52824W        W25249  40.358  41.277  11.474
52825W        W25250  31.567  25.965  13.912
52826W        W25251  34.550  30.669  12.957
52827W        W25252   8.536  10.631   2.293
52828W        W25253  25.169   9.579   5.018
52829W        W25254  20.250  19.928  13.487
52830W        W25255   3.358  40.250   4.509
52831W        W25256   1.184  19.815  11.598
52832W        W25257   6.175  38.836  11.966
52833W        W25258  35.492   9.661  10.788
52834W        W25259   9.820  15.203  10.450
52835W        W25260  44.930  33.065  11.479
52836W        W25261  43.330  24.537  14.891
52837W        W25262   3.532  44.958  14.609
52838W        W25263  41.281  39.268  12.503
52839W        W25264   1.874  17.703   3.263
52840W        W25265  14.364  27.175  10.634
52841W        W25266  31.108  31.623   4.583
52842W        W25267  12.747  12.075   3.647
52843W        W25268   3.348   3.411   3.180
52844W        W25269  27.853  32.928  11.373
52845W        W25270  40.807  17.542  14.324
52846W        W25271   2.005  21.633  13.595
52847W        W25272   7.384  10.864  12.673
52848W        W25273  16.682  20.187  11.103
52849W        W25274  36.608  29.906  11.518
52850W        W25275  11.907  30.522  12.068
52851W        W25276  35.707  40.982   3.250
52852W        W25277  13.317  41.311  13.534
52853W        W25278  31.867  29.463  14.938
52854W        W25279  41.552  33.994   4.686
52855W        W25280  37.961  14.824   4.836
52856W        W25281   2.204  32.504   1.710
52857W        W25282  38.339  19.127  12.135
52858W        W25283   9.498  30.205  12.400
52859W        W25284  14.721   8.102  12.077
52860W        W25285  23.070   1.780  12.653
52861W        W25286  22.788  22.281  14.389
52862W        W25287   5.476   3.210  14.849
52863W        W25288  21.115  34.624  14.130
52864W        W25289  26.127  13.912  13.638
52865W        W25290   7.501  44.233  13.486
52866W        W25291  16.607  15.801   1.684
52867W        W25292  13.737  17.937   0.757
52868W        W25293  33.779  26.003   0.413
52869W        W25294  16.221  31.801   3.685
52870W        W25295  19.220  34.836  10.703
52871W        W25296  18.037  14.880   3.132
52872W        W25297  19.590  42.479   0.371
52873W        W25298  33.031  32.063  10.694
52874W        W25299  10.770  41.857   1.276
52875W        W25300   0.287  21.132  10.454
52876W        W25301   5.039  26.065  14.983
52877W        W25302   7.350  42.408   2.681
52878W        W25303  17.745  14.853   3.803
52879W        W25304  31.589  23.619  14.990
52880W        W25305   0.711   9.765  11.275
52881W        W25306  21.332  42.062  13.979
52882W        W25307  31.703  16.728   4.231
52883W        W25308  42.498  37.260  14.504
52884W        W25309  39.761   3.119   0.433
52885W        W25310   3.939  12.712   0.288
52886W        W25311  16.305   9.083   1.970
52887W        W25312   1.844  41.778  10.550
52888W        W25313  34.340  13.754  11.930
52889W        W25314  12.138  24.679   5.053
52890W        W25315  44.058  17.046   3.056
52891W        W25316  13.279  25.480   1.933
52892W        W25317   4.353  28.285  13.834
52893W        W25318  11.830   1.431   3.421
52894W        W25319  39.568  13.210  12.949
52895W        W25320   2.700  19.814  11.374
52896W        W25321   4.629  41.269  10.760
52897W        W25322  11.283  37.930   1.950
52898W        W25323  38.087  24.132  13.266
52899W        W25324  13.746  12.114  12.503
52900W        W25325  38.796  27.518   1.304
52901W        W25326   8.288  44.105  11.614
52902W        W25327   0.793  43.813   4.779
52903W        W25328  11.543  17.048  13.002
52904W        W25329   6.372  38.833   1.202
52905W        W25330  18.687  40.545  13.782
52906W        W25331  42.539  34.324  11.425
52907W        W25332   8.666  31.449   0.816
52908W        W25333  10.589  43.144  10.476
52909W        W25334   5.188  37.270  11.421
52910W        W25335  13.842  36.875   2.723
52911W        W25336   7.673  10.980  11.570
52912W        W25337  16.625  39.437  12.807
52913W        W25338   2.796  23.938   3.903
52914W        W25339  13.219  41.016  10.700
52915W        W25340   5.388  13.592  12.986
52916W        W25341  16.529  24.752   2.439
52917W        W25342   0.407   2.487   1.917
52918W        W25343  14.248   3.200  12.792
52919W        W25344  34.365   7.965  14.355
52920W        W25345  37.768   8.070  12.989
52921W        W25346  12.943  41.884   1.888
52922W        W25347  41.825   0.810   2.214
52923W        W25348  19.507   8.786  13.276
52924W        W25349   3.372  17.055  12.563
52925W        W25350  44.606  43.881   4.185
52926W        W25351  10.337  17.087   2.230
52927W        W25352   9.369  11.436   0.321
52928W        W25353  41.715  41.441   4.153
52929W        W25354  35.917   1.487  12.979
52930W        W25355  20.077  17.426   4.589
52931W        W25356  25.049  39.102   0.500
52932W        W25357  31.424  41.420   4.923
52933W        W25358  19.292  10.200  13.874
52934W        W25359  16.295  40.160  12.629
52935W        W25360  37.525  25.222  12.043
52936W        W25361  24.553  14.569   2.573
52937W        W25362  20.087  18.695   0.748
52938W        W25363  36.573  35.164   2.296
52939W        W25364  17.596  38.859  10.565
52940W        W25365   6.303  31.667  10.294
52941W        W25366  40.819  11.871  10.603
52942W        W25367  43.486  24.134  10.653
52943W        W25368  18.637  40.790  11.672
52944W        W25369  37.194  14.188   4.364
52945W        W25370  43.876   1.404  13.637
52946W        W25371  42.628  43.726  11.620
52947W        W25372  37.822  32.046   4.406
52948W        W25373  22.081   7.228   0.895
52949W        W25374  21.795  28.227   3.712
52950W        W25375   3.084  31.235   3.254
52951W        W25376  11.698  11.389  12.256
52952W        W25377  35.521  13.699  14.333
52953W        W25378  42.266   9.122   0.382
52954W        W25379  17.803  19.738   0.247
52955W        W25380  38.915   9.761  12.681
52956W        W25381  32.666   9.049   0.370
52957W        W25382  26.904  32.112   4.577
52958W        W25383  37.743  36.822  10.639
52959W        W25384  42.609  37.395   4.512
52960W        W25385  37.330  38.536   2.469
52961W        W25386  41.550  26.030   2.778
52962W        W25387  15.150  15.890  13.860
52963W        W25388  20.128  30.036   2.371
52964W        W25389  12.146  17.035  14.245
52965W        W25390  24.298  38.903   1.837
52966W        W25391  37.949  40.767   2.939
52967W        W25392  36.338  21.283   3.269
52968W        W25393  35.283  43.032  11.771
52969W        W25394  11.776  18.063  10.288
52970W        W25395  20.755   7.148   1.709
52971W        W25396  17.146  40.421   1.717
52972W        W25397  35.360  32.583  10.644
52973W        W25398  22.080  23.069  14.915
52974W        W25399  39.309  29.230   4.067
52975W        W25400  13.539   2.918   3.964
52976W        W25401  28.723  31.077  13.379
52977W        W25402  29.710  35.402   0.328
52978W        W25403  14.816  32.499  14.888
52979W        W25404  23.856  18.682   4.198
52980W        W25405   8.449  11.632  10.159
52981W        W25406  15.499  41.435   2.257
52982W        W25407  23.640  32.872   0.327
52983W        W25408  27.983  18.975   3.792
52984W        W25409  44.859  23.553   3.736
52985W        W25410  35.053  12.404   3.249
52986W        W25411   8.311  40.134   3.619
52987W        W25412  25.968  34.620  11.494
52988W        W25413  14.328  40.769  14.358
52989W        W25414   3.375   2.204  12.835
52990W        W25415  37.404  28.522  11.000
52991W        W25416  23.194   6.889  11.572
52992W        W25417   6.890  36.886   0.777
52993W        W25418  27.231  23.540   0.345
52994W        W25419  16.684  35.614   0.547
52995W        W25420  33.103  19.280   1.881
52996W        W25421  30.932  38.922  13.419
52997W        W25422  12.729  32.179   1.801
52998W        W25423  24.006   8.457   2.129
52999W        W25424   9.468  32.000  11.573
53000W        W25425  29.537  26.778   4.979
53001W        W25426  15.686   1.283   3.213
53002W        W25427  27.501   2.283   4.634
53003W        W25428  31.773  27.911   2.316
53004W        W25429  15.731   4.798  11.466
53005W        W25430  22.149  41.466  14.857
53006W        W25431  15.689  30.169  12.927
53007W        W25432   3.904   0.348   4.774
53008W        W25433   1.993  30.405  14.416
53009W        W25434  12.460   9.871  12.827
53010W        W25435  23.203  29.129  14.870
53011W        W25436  38.913  25.625  11.160
53012W        W25437  31.163  22.226   0.921
53013W        W25438  29.635   0.986   1.297
53014W        W25439  14.695  16.011   2.448
53015W        W25440  24.100  17.780   1.744
53016W        W25441  25.527  14.368   1.925
53017W        W25442   0.714  23.512  14.816
53018W        W25443  29.077  42.521  11.607
53019W        W25444  19.188  18.789   1.879
53020W        W25445   8.151  27.687   4.133
53021W        W25446  33.203  38.238   1.433
53022W        W25447  29.926  10.646   1.152
53023W        W25448  14.801  17.741  12.176
53024W        W25449  13.628  35.460  10.754
53025W        W25450  35.264  40.396   3.736
53026W        W25451  12.938  32.115  13.675
53027W        W25452  42.821  15.851  12.442
53028W        W25453  16.861  42.776   2.959
53029W        W25454   1.483  26.949  13.112
53030W        W25455  18.367  21.396  14.502
53031W        W25456   8.749  44.800   3.699
53032W        W25457  36.394  28.604  13.315
53033W        W25458   5.760  38.782   3.336
53034W        W25459  43.146  22.197  13.384
53035W        W25460   7.672   7.686  14.383
53036W        W25461  40.922   7.716  14.974
53037W        W25462  34.068  26.527   0.389
53038W        W25463  39.278  26.007  10.505
53039W        W25464   9.289  44.541   4.264
53040W        W25465  24.136   2.961  10.622
53041W        W25466  25.665   6.720   1.258
53042W        W25467  31.373  33.405   2.794
53043W        W25468  13.198   8.126   1.870
53044W        W25469   2.772  28.574   4.165
53045W        W25470  43.372  41.489  12.371
53046W        W25471  12.685  35.346   0.920
53047W        W25472  19.533   8.170   2.179
53048W        W25473  26.945  22.163   1.780
53049W        W25474   9.881  33.928  11.112
53050W        W25475  15.729  29.356  14.971
53051W        W25476  27.772  37.882  13.362
53052W        W25477  42.807   8.512   4.084
53053W        W25478  27.606  19.911   2.344
53054W        W25479  40.255   4.981   1.729
53055W        W25480   7.838  33.427   4.089
53056W        W25481  38.576  39.869   2.348
53057W        W25482  30.410  35.122  11.630
53058W        W25483  21.229  27.073  10.720
53059W        W25484   6.050   3.882  11.003
53060W        W25485   2.173  40.402  12.857
53061W        W25486  39.728  36.616   2.724
53062W        W25487   5.363  24.568   0.995
53063W        W25488  10.580  25.734   1.220
53064W        W25489  39.461  13.654   4.667
53065W        W25490  42.219  36.139   3.594
53066W        W25491   9.078  31.915   1.320
53067W        W25492  40.992  17.146  13.007
53068W        W25493  12.147  10.857  12.887
53069W        W25494  25.686  26.526  13.759
53070W        W25495  36.569  43.929   2.351
53071W        W25496  39.581  41.070   4.075
53072W        W25497  44.627  11.054   3.170
53073W        W25498  32.607  37.059   1.508
53074W        W25499  37.513   7.449  14.594
53075W        W25500   5.213  17.183   4.632
53076W        W25501  33.378  22.174   2.864
53077W        W25502  12.544   6.934   2.397
53078W        W25503   9.342  40.995   2.749
53079W        W25504  10.347  13.737   2.488
53080W        W25505  33.447  28.695   2.743
53081W        W25506   9.354  39.801   0.864
53082W        W25507  26.738  24.084  13.468
53083W        W25508   0.102  37.113   0.283
53084W        W25509  25.986   4.234   0.273
53085W        W25510   9.384  22.603   9.997
53086W        W25511  32.837  39.087   4.004
53087W        W25512   9.086  10.237  10.506
53088W        W25513  19.928  28.016   3.102
53089W        W25514  34.237  37.132  11.277
53090W        W25515  37.956  24.672  11.601
53091W        W25516  17.984  13.100  11.665
53092W        W25517  10.359  10.824   3.221
53093W        W25518  13.798   8.825   0.974
53094W        W25519  34.483  15.725  13.912
53095W        W25520  14.679  41.972   2.387
53096W        W25521   9.960  27.879   4.214
53097W        W25522  42.807  43.859   1.330
53098W        W25523  43.713  37.853  13.287
53099W        W25524  23.230  26.079   2.524
53100W        W25525  24.203  38.824  13.904
53101W        W25526   6.229  30.133  14.372
53102W        W25527   8.077  28.734  12.015
53103W        W25528  30.123  41.406  12.821
53104W        W25529  11.702   9.357  14.596
53105W        W25530  43.347  16.088   4.154
53106W        W25531  31.156   2.853   1.844
53107W        W25532  26.576  18.167  11.186
53108W        W25533   7.392  16.337  14.454
53109W        W25534  43.823  42.285  14.005
53110W        W25535   2.402  42.413  14.714
53111W        W25536   4.605  34.483  11.654
53112W        W25537  38.098   4.901   0.734
53113W        W25538  15.739  40.771   0.729
53114W        W25539  16.605  19.244  13.873
53115W        W25540  15.228  31.643  12.466
53116W        W25541  21.702   9.822   4.988
53117W        W25542  36.314  15.765  12.361
53118W        W25543  16.100   7.145   2.586
53119W        W25544  23.438   0.770   4.496
53120W        W25545  29.703  36.468  13.123
53121W        W25546  20.536  13.404   3.800
53122W        W25547  26.980  16.902   1.294
53123W        W25548  37.307   8.585  10.286
53124W        W25549  20.237   8.709   0.136
53125W        W25550  38.579   3.431  14.988
53126W        W25551  11.621   6.766   2.216
53127W        W25552  18.111  40.064   2.668
53128W        W25553  37.823  18.376  13.608
53129W        W25554  33.779  37.532  12.450
53130W        W25555  26.981  38.475   4.870
53131W        W25556   8.221   0.324   3.125
53132W        W25557  20.827  43.530   2.566
53133W        W25558  41.289  31.662   1.817
53134W        W25559  43.151   5.444  14.430
53135W        W25560  31.125  29.305  13.848
53136W        W25561  29.399  13.213  14.454
53137W        W25562   6.896  29.683  12.467
53138W        W25563   0.770  26.339   2.280
53139W        W25564  12.566  40.865  13.587
53140W        W25565  33.622  12.781  14.746
53141W        W25566  23.657  19.681  11.662
53142W        W25567  22.473   7.214   2.521
53143W        W25568   8.506  39.936  11.847
53144W        W25569  11.775  37.398   3.178
53145W        W25570   4.650  43.209  14.596
53146W        W25571   5.897  18.633  14.255
53147W        W25572  29.255   3.772  11.598
53148W        W25573  42.924   9.728   0.967
53149W        W25574   6.889   5.728  14.902
53150W        W25575   7.780  20.966  14.808
53151W        W25576   6.739   0.488  13.701
53152W        W25577  33.946   8.639   2.492
53153W        W25578  27.202  34.473  10.424
53154W        W25579  14.625  31.723  11.658
53155W        W25580  25.054  11.597   3.616
53156W        W25581  38.907   7.402  14.539
53157W        W25582  12.881   4.236   4.643
53158W        W25583   9.789   6.373   4.494
53159W        W25584  22.001  31.929  12.052
53160W        W25585  41.386   1.078   3.175
53161W        W25586  30.573  41.630   4.477
53162W        W25587  24.123  32.538   0.995
53163W        W25588  24.533  27.918   0.842
53164W        W25589  21.721  18.036   0.392
53165W        W25590  36.571  44.833   2.177
53166W        W25591  14.296  40.390   0.627
53167W        W25592  41.376   6.569  11.219
53168W        W25593  39.492  12.665  12.621
53169W        W25594  14.574  43.241  11.135
53170W        W25595  41.839  26.447  12.196
53171W        W25596  41.842  43.728  11.074
53172W        W25597  42.557  13.819   2.431
53173W        W25598  18.640   0.307   1.987
53174W        W25599   5.750  38.255   3.299
53175W        W25600   3.379  42.736  14.425
53176W        W25601  37.036  17.058   0.949
53177W        W25602  29.883  41.314   0.486
53178W        W25603  20.303  29.165  13.404
53179W        W25604   1.924  12.695   1.926
53180W        W25605  12.302  10.096   0.885
53181W        W25606  13.674  15.374   3.092
53182W        W25607  34.722  15.206   3.926
53183W        W25608   3.264  43.736  10.924
53184W        W25609  36.857  41.607   2.848
53185W        W25610  40.513  38.935   0.367
53186W        W25611  10.602  43.309   4.152
53187W        W25612  22.269  36.308   4.200
53188W        W25613  16.863  39.912  11.618
53189W        W25614  25.746  22.365   3.348
53190W        W25615  21.574   9.410   0.413
53191W        W25616   5.685   6.730   0.684
53192W        W25617  31.673   0.399   2.637
53193W        W25618  29.284   9.075  12.926
53194W        W25619  24.019  14.578  14.732
53195W        W25620  10.215  22.795  11.095
53196W        W25621  40.498  14.562  13.688
53197W        W25622  20.818  23.518   0.214
53198W        W25623  32.631  31.122  12.612
53199W        W25624  11.771   7.918  10.637
53200W        W25625  26.626  37.585  12.209
53201W        W25626  14.321  44.331  13.977
53202W        W25627  34.015  27.437  10.376
53203W        W25628   6.263  32.198   3.651
53204W        W25629  16.161   5.469   3.684
53205W        W25630  11.764  26.567  13.250
53206W        W25631  28.431  12.768   4.349
53207W        W25632   4.409  40.100  12.203
53208W        W25633  10.195  13.502   3.350
53209W        W25634   4.029  24.684  12.112
53210W        W25635   6.729  14.655   4.096
53211W        W25636  44.899  28.396  14.946
53212W        W25637  17.189  24.660  14.799
53213W        W25638  31.089  38.601   2.466
53214W        W25639  24.082  14.791   3.121
53215W        W25640  10.224  28.319   4.044
53216W        W25641  31.733   3.761   4.673
53217W        W25642  36.478  25.462   1.300
53218W        W25643  11.297  19.334  13.906
53219W        W25644  34.998  36.500   0.371
53220W        W25645  41.937  15.489   1.066
53221W        W25646  23.525  21.245  11.099
53222W        W25647  39.501  37.801  12.994
53223W        W25648  31.678  33.639  12.693
53224W        W25649  31.199  42.548  13.457
53225W        W25650  19.290  25.260   3.118
53226W        W25651  39.824  17.212  14.001
53227W        W25652   9.315  16.183   4.349
53228W        W25653  28.636   4.953   1.338
53229W        W25654   5.710  26.580   4.188
53230W        W25655  43.289   1.841   0.884
53231W        W25656  23.078  15.237  11.551
53232W        W25657  11.687   7.151   4.702
53233W        W25658   4.246   0.769  11.822
53234W        W25659   4.886   9.165   4.235
53235W        W25660  44.442  41.295   2.332
53236W        W25661  31.072   9.320   1.407
53237W        W25662  40.991   6.350   1.792
53238W        W25663  25.591  28.529   1.751
53239W        W25664   5.777  31.891  10.602
53240W        W25665  37.347  32.873  12.431
53241W        W25666  12.700  11.894  13.055
53242W        W25667  40.097  37.978   4.233
53243W        W25668  26.653   0.959  11.587
53244W        W25669  16.255  17.566   1.910
53245W        W25670  16.551  38.343   4.628
53246W        W25671  27.542   1.499  12.505
53247W        W25672  20.874  12.160   5.570
53248W        W25673  43.857   9.089   2.208
53249W        W25674  17.046  27.175   0.479
53250W        W25675   0.481  31.505   4.569
53251W        W25676  18.294   5.357  11.402
53252W        W25677  39.656   3.459   1.471
53253W        W25678  19.017  19.214   3.657
53254W        W25679  11.710  24.501  14.298
53255W        W25680   6.569  37.919  13.817
53256W        W25681   8.600   3.819   3.624
53257W        W25682  25.942  10.217   2.251
53258W        W25683  41.137  12.351   2.265
53259W        W25684  42.985  43.823  11.189
53260W        W25685  23.514  37.996   3.453
53261W        W25686  27.851   3.243   1.337
53262W        W25687   0.231  16.124   3.688
53263W        W25688  17.896   8.706   1.277
53264W        W25689   0.073  29.578   1.644
53265W        W25690  13.362   2.322   2.880
53266W        W25691  21.120  42.817  13.305
53267W        W25692  37.044  34.452   1.938
53268W        W25693   8.154  42.975  13.424
53269W        W25694   3.186  32.689  14.419
53270W        W25695  43.319  38.755   4.132
53271W        W25696  31.859  11.368   3.245
53272W        W25697   8.691   2.353   3.655
53273W        W25698  21.666  25.690   0.491
53274W        W25699  38.443  32.642   1.688
53275W        W25700  12.192  36.592  11.923
53276W        W25701  19.551  44.381   4.117
53277W        W25702  41.378  31.675  14.562
53278W        W25703  31.808   8.252   0.822
53279W        W25704  29.610   4.350   0.136
53280W        W25705  13.345   1.881   3.164
53281W        W25706  22.564   4.489  11.018
53282W        W25707  29.180  33.066  13.924
53283W        W25708  38.929  21.365  14.745
53284W        W25709  31.638   2.328  12.101
53285W        W25710  28.028   2.329   0.945
53286W        W25711  39.440  30.437  12.077
53287W        W25712   7.027  38.548   0.203
53288W        W25713  40.784  44.048   2.765
53289W        W25714  44.828  10.767  10.883
53290W        W25715   3.219  41.424  14.139
53291W        W25716  23.692   1.331   1.469
53292W        W25717  37.968  43.533  12.933
53293W        W25718  27.573   6.456  12.967
53294W        W25719  13.400  30.701  14.499
53295W        W25720  43.101  12.848   0.495
53296W        W25721   5.609  27.219   1.433
53297W        W25722  25.720  25.693   3.318
53298W        W25723  27.152  34.462  11.899
53299W        W25724   6.678  24.707  14.809
53300W        W25725  42.637  41.771  14.872
53301W        W25726   4.160  35.428  11.473
53302W        W25727  41.548  15.557  12.136
53303W        W25728  36.279  40.301  11.399
53304W        W25729  26.643   1.971   3.190
53305W        W25730   7.779   8.613  12.365
53306W        W25731  15.265   3.923   1.496
53307W        W25732  11.807  38.481  13.431
53308W        W25733  22.245  19.506  14.807
53309W        W25734  26.768  13.305   2.473
53310W        W25735  23.055  35.102  11.094
53311W        W25736  37.675  19.381  11.559
53312W        W25737   8.638  24.538  13.939
53313W        W25738   2.708  27.478  11.970
53314W        W25739  43.391  12.235  10.643
53315W        W25740  13.848  13.848   3.870
53316W        W25741  25.934  38.351  14.714
53317W        W25742  44.847   3.636  13.563
53318W        W25743   4.366  29.828  14.841
53319W        W25744  23.813  15.851  12.957
53320W        W25745  12.364  20.554  13.792
53321W        W25746  42.987  29.097  12.936
53322W        W25747  23.113   4.482  14.490
53323W        W25748  17.996  30.013  13.130
53324W        W25749   5.248  28.597  12.365
53325W        W25750  41.543  39.097  11.597
53326W        W25751   4.640  44.390  14.927
53327W        W25752  27.090  42.870   4.571
53328W        W25753  29.017  11.943  13.711
53329W        W25754  39.853  38.422   4.130
53330W        W25755  31.677   0.872  11.054
53331W        W25756  31.020  17.209   0.516
53332W        W25757  38.265   3.454   2.613
53333W        W25758  40.522  38.803  11.610
53334W        W25759  30.257  35.612   1.088
53335W        W25760  11.404  41.595   4.209
53336W        W25761  19.641  15.799   4.050
53337W        W25762  44.333  38.811   3.518
53338W        W25763   2.693  41.389  14.071
53339W        W25764  19.013  15.961   0.936
53340W        W25765   1.961  17.845   2.366
53341W        W25766  43.014  26.065  14.423
53342W        W25767  36.708  28.394  14.542
53343W        W25768   2.352  38.280   1.716
53344W        W25769  20.127  24.636   4.975
53345W        W25770   1.714  20.557   1.333
53346W        W25771  44.408  40.455  12.590
53347W        W25772  27.911  14.082  14.478
53348W        W25773  41.723  12.413  11.718
53349W        W25774  18.157  33.020   1.914
53350W        W25775  20.441  29.661   4.537
53351W        W25776  37.225  18.224   2.751
53352W        W25777  38.886   9.904   3.401
53353W        W25778  41.577  16.671  12.405
53354W        W25779  42.222  37.535  10.995
53355W        W25780  18.053  21.326  13.996
53356W        W25781  11.788  28.945   0.389
53357W        W25782   7.659  36.576  12.969
53358W        W25783  39.461   0.718   0.340
53359W        W25784   4.379  41.106   1.873
53360W        W25785  32.035  31.070  14.839
53361W        W25786   8.683  36.292   4.057
53362W        W25787  20.149   1.397   3.754
53363W        W25788   6.886  19.316   4.225
53364W        W25789  21.015   3.824  12.317
53365W        W25790  26.380   2.992   2.195
53366W        W25791  38.562  24.395  12.348
53367W        W25792   8.863   7.865   0.015
53368W        W25793  26.392  31.900   4.563
53369W        W25794   5.267  26.667  11.841
53370W        W25795   6.279  34.123   3.426
53371W        W25796   3.936  11.828   3.274
53372W        W25797  13.100  10.716  13.884
53373W        W25798  10.068  26.106  13.130
53374W        W25799  36.395   2.310   3.603
53375W        W25800  44.352  14.791  13.373
53376W        W25801  18.651  21.894  12.188
53377W        W25802  37.274  15.681  14.093
53378W        W25803  34.351  25.118   3.691
53379W        W25804   6.179  18.943  12.680
53380W        W25805  41.899  32.124  11.735
53381W        W25806   7.894  31.709   2.147
53382W        W25807  28.826  35.016  11.270
53383W        W25808  34.544  42.749   0.428
53384W        W25809  16.575  23.673  11.677
53385W        W25810  22.974   3.482  13.577
53386W        W25811  12.811   6.715  13.899
53387W        W25812  21.582  16.254  11.839
53388W        W25813  21.590  10.656   4.156
53389W        W25814   3.868  38.647   4.164
53390W        W25815   1.581  11.853  11.145
53391W        W25816  11.975   3.549   2.783
53392W        W25817   7.697  23.189  13.571
53393W        W25818   1.825  15.864  13.710
53394W        W25819  12.705  22.048   1.644
53395W        W25820   7.608  32.135  11.017
53396W        W25821  35.000  40.341   4.209
53397W        W25822  36.361  20.845  14.366
53398W        W25823  23.661   1.713   4.849
53399W        W25824   5.865  18.271  13.850
53400W        W25825  13.404   7.706   0.409
53401W        W25826  27.991  19.677   1.425
53402W        W25827  14.324  38.310   0.475
53403W        W25828   3.173   6.832  10.716
53404W        W25829  25.200  41.413   2.796
53405W        W25830  32.857  40.468   3.668
53406W        W25831  42.060   6.620  11.922
53407W        W25832  37.425  24.903   1.035
53408W        W25833  26.215   4.843  11.928
53409W        W25834  41.608  22.974   5.342
53410W        W25835  13.094   2.731   2.142
53411W        W25836  14.712   8.444  11.102
53412W        W25837  44.245  13.221  11.146
53413W        W25838  22.848  16.413   2.604
53414W        W25839  41.498  10.976   4.485
53415W        W25840  44.158   6.356   0.176
53416W        W25841  16.093  43.168  11.212
53417W        W25842   2.910  18.363  13.937
53418W        W25843  16.263  10.245  12.962
53419W        W25844  19.114  30.645   3.677
53420W        W25845   1.320  20.958   1.314
53421W        W25846   6.811  34.948   4.309
53422W        W25847  25.266  41.833  13.510
53423W        W25848   9.773  32.053  14.054
53424W        W25849  12.841  35.127   3.629
53425W        W25850   3.007  12.921   4.109
53426W        W25851  42.424  36.937  13.511
53427W        W25852  38.861  25.189  14.370
53428W        W25853  25.331  38.871  12.621
53429W        W25854  39.936  20.545   2.714
53430W        W25855  34.985  37.338  12.908
53431W        W25856  33.934  24.008   1.797
53432W        W25857  26.613  23.766   2.306
53433W        W25858  43.811  15.551  12.352
53434W        W25859  10.370  39.157  13.468
53435W        W25860  25.629  44.192   4.201
53436W        W25861  19.863  37.425  12.591
53437W        W25862  19.354  43.385   4.368
53438W        W25863  11.158  32.966  11.037
53439W        W25864  35.926  31.997   1.302
53440W        W25865   0.686  24.536   5.053
53441W        W25866  27.897  29.692  12.590
53442W        W25867  39.747  27.190  14.791
53443W        W25868  37.002  42.999   2.878
53444W        W25869  20.439  38.407  13.867
53445W        W25870  29.118  34.127  11.612
53446W        W25871   7.604  20.523   3.709
53447W        W25872   8.467  34.342   2.411
53448W        W25873  27.969  26.373   3.184
53449W        W25874  37.092   0.458   0.438
53450W        W25875  33.982  31.992   0.054
53451W        W25876   7.325  42.372   3.626
53452W        W25877   6.901  20.691   0.247
53453W        W25878   3.173  23.979  11.496
53454W        W25879  17.995  12.700  13.038
53455W        W25880  44.761  18.904   1.807
53456W        W25881  18.008  42.373   3.194
53457W        W25882  25.391  44.226   2.341
53458W        W25883  40.030  18.375  13.437
53459W        W25884   7.578   2.753   4.177
53460W        W25885  23.230   5.670   1.157
53461W        W25886  18.211   5.183  13.793
53462W        W25887  27.724  36.134  13.422
53463W        W25888  13.028  39.053  13.501
53464W        W25889  11.225  11.938  12.740
53465W        W25890  38.790  33.285   3.145
53466W        W25891  27.041  34.922   2.918
53467W        W25892   9.410  28.839   4.714
53468W        W25893  24.559  42.961   2.245
53469W        W25894  18.616  39.713  11.691
53470W        W25895   5.601   7.724   3.855
53471W        W25896   0.366   9.132   1.241
53472W        W25897  41.260   7.952  13.523
53473W        W25898   0.945   6.692  13.826
53474W        W25899  39.445  40.817  11.588
53475W        W25900  36.390   8.836   2.948
53476W        W25901  15.601  22.001  14.806
53477W        W25902  23.679  16.017  14.058
53478W        W25903  25.650  31.020   2.695
53479W        W25904  24.697  14.329   0.854
53480W        W25905  41.284   8.341  12.211
53481W        W25906   8.933  32.160  10.712
53482W        W25907  12.724  17.573  11.519
53483W        W25908   6.874   5.030  11.549
53484W        W25909  16.070   0.864   1.608
53485W        W25910  22.979  12.257  13.451
53486W        W25911  15.324  22.536   2.420
53487W        W25912  14.316  28.902  12.393
53488W        W25913  35.646  12.390  12.372
53489W        W25914   2.711  18.260   3.087
53490W        W25915  29.910  42.764  10.586
53491W        W25916  41.685  14.369  14.981
53492W        W25917  25.986   3.740  14.340
53493W        W25918   7.877  16.571   3.605
53494W        W25919  36.626   0.640  11.490
53495W        W25920  42.438  16.979   0.242
53496W        W25921   0.152  15.061   0.704
53497W        W25922  40.751   6.580  11.328
53498W        W25923  31.380  27.477  13.812
53499W        W25924  11.062  24.743   0.405
53500W        W25925   7.394   9.846  14.951
53501W        W25926  29.642   6.153   0.905
53502W        W25927   8.579  28.413  13.090
53503W        W25928  25.366  18.419   9.823
53504W        W25929  38.489  11.625   3.854
53505W        W25930  21.049  22.697  13.109
53506W        W25931  15.420  26.227   0.128
53507W        W25932  17.529  12.790  10.431
53508W        W25933   0.249  41.282  12.803
53509W        W25934   3.396   7.803  12.791
53510W        W25935  34.541  34.532   2.479
53511W        W25936  27.112  38.772   1.345
53512W        W25937  19.195  28.269  14.576
53513W        W25938  27.897  12.170   2.367
53514W        W25939  13.681  31.444   1.310
53515W        W25940  28.906  43.831   2.287
53516W        W25941  22.127  18.766   1.476
53517W        W25942   4.920   5.697  10.804
53518W        W25943  42.354  39.276  11.610
53519W        W25944  36.883   3.887  11.851
53520W        W25945  39.802  30.924  12.993
53521W        W25946  13.744  11.464   0.538
53522W        W25947  40.363  15.802   0.822
53523W        W25948  25.597   2.218   2.464
53524W        W25949  21.773   3.841   4.654
53525W        W25950  24.031  12.065   2.299
53526W        W25951   5.749  42.024   4.262
53527W        W25952  41.455  30.000   4.850
53528W        W25953   0.725  31.889  12.005
53529W        W25954  38.407  18.442   1.103
53530W        W25955  22.754  37.618  11.176
53531W        W25956   8.732  25.534  13.465
53532W        W25957   8.649  24.918  13.588
53533W        W25958  17.633   6.443  13.287
53534W        W25959  26.344  41.245   2.374
53535W        W25960   4.611  39.425  12.442
53536W        W25961  32.361  10.340  11.147
53537W        W25962  19.563  32.605   2.864
53538W        W25963  11.080  26.885  12.886
53539W        W25964  33.654   0.818   0.544
53540W        W25965   1.808  12.401  10.630
53541W        W25966  31.431   3.696  11.959
53542W        W25967  24.446  16.746  14.253
53543W        W25968  39.512  21.045   3.780
53544W        W25969  24.612   4.909   1.762
53545W        W25970  31.964  12.637   2.768
53546W        W25971  37.092  37.767   4.213
53547W        W25972  20.572  24.002   2.458
53548W        W25973  39.059   6.630   4.536
53549W        W25974  24.243  13.227   1.323
53550W        W25975  23.610   0.259   3.218
53551W        W25976  29.497  38.058  14.470
53552W        W25977  41.738  28.773  12.625
53553W        W25978  14.325   1.571   2.263
53554W        W25979  35.945  40.311   1.945
53555W        W25980  10.616  12.217   4.313
53556W        W25981   4.800  29.100  10.591
53557W        W25982  20.418  16.069  12.653
53558W        W25983  33.407  30.251  12.082
53559W        W25984  40.766  40.435  12.024
53560W        W25985   0.355  28.380  12.499
53561W        W25986  30.189   1.147  10.971
53562W        W25987   7.196  23.388   3.728
53563W        W25988   4.189  21.784  11.296
53564W        W25989  21.583  36.372   0.865
53565W        W25990  27.308   0.212   3.261
53566W        W25991  29.566  13.827   4.179
53567W        W25992   8.388  31.039  10.459
53568W        W25993  42.259  36.898   0.467
53569W        W25994   9.883  28.547  12.845
53570W        W25995  40.656  24.603  11.582
53571W        W25996  31.438  35.443  12.645
53572W        W25997  31.166   8.210   1.966
53573W        W25998   5.064  41.377   1.209
53574W        W25999  36.571   3.672  13.991
53575W        W26000  38.331  13.833  14.866
53576W        W26001  44.419  41.924   4.452
53577W        W26002  14.025  36.268   4.253
53578W        W26003  23.355  35.046  11.485
53579W        W26004  20.667  24.466  11.175
53580W        W26005   6.940  17.192   4.554
53581W        W26006   5.892  14.293  13.449
53582W        W26007  20.533   3.279  11.949
53583W        W26008   1.525  30.103   0.831
53584W        W26009  16.212   8.737   1.030
53585W        W26010   7.131  26.948   1.355
53586W        W26011  29.010  19.855  14.929
53587W        W26012  21.315  38.037  10.455
53588W        W26013  25.290  30.025   2.727
53589W        W26014  26.243  25.965  11.658
53590W        W26015  16.954  34.148   1.835
53591W        W26016  37.932  35.292  13.991
53592W        W26017  20.233  13.701  12.964
53593W        W26018  32.418  23.082  12.662
53594W        W26019  12.545   0.376   1.723
53595W        W26020   9.828  29.389  14.373
53596W        W26021  42.378  37.718  14.255
53597W        W26022   7.496  18.029   2.339
53598W        W26023  31.708  23.714  10.686
53599W        W26024  22.300  39.495  10.922
53600W        W26025   6.397   7.040  11.131
53601W        W26026   0.778  19.893  14.307
53602W        W26027  21.560   8.422  10.445
53603W        W26028  26.351   6.407  11.160
53604W        W26029   8.818  24.557  10.570
53605W        W26030  38.786   2.918  12.503
53606W        W26031  36.897  30.985   4.489
53607W        W26032  44.171  17.567   4.469
53608W        W26033  19.033   1.824   1.047
53609W        W26034  39.114  43.987   0.326
53610W        W26035   7.242   4.739  14.948
53611W        W26036  35.896  21.099  14.298
53612W        W26037  21.890  42.718  10.191
53613W        W26038  31.550  12.342   2.725
53614W        W26039  39.575  29.557   2.251
53615W        W26040  44.368  36.977  12.152
53616W        W26041  26.179  26.432   5.143
53617W        W26042  39.175  44.040   3.178
53618W        W26043  41.621  19.150  12.577
53619W        W26044  16.110  22.528  14.211
53620W        W26045  28.979  21.224   2.144
53621W        W26046  18.264  17.667   3.613
53622W        W26047  39.855  15.625  11.683
53623W        W26048  39.156  32.067  10.759
53624W        W26049  17.734  37.318   0.723
53625W        W26050  43.890  42.796  11.565
53626W        W26051  36.954  41.040  12.526
53627W        W26052   3.736  36.383   3.621
53628W        W26053  36.119   3.888  13.847
53629W        W26054  36.699  12.508  13.095
53630W        W26055   7.950   7.224  14.367
53631W        W26056  20.832   7.890   1.783
53632W        W26057  11.379  15.634  14.058
53633W        W26058  35.743  19.605   0.267
53634W        W26059  12.085  23.095   2.026
53635W        W26060  16.789  24.719  10.602
53636W        W26061  30.034  25.267   3.514
53637W        W26062  30.491  24.713   1.671
53638W        W26063  44.835  44.517   1.287
53639W        W26064  33.320  33.624   3.592
53640W        W26065  11.727  24.507   1.911
53641W        W26066  31.810  32.548  14.009
53642W        W26067   6.191  39.562  10.686
53643W        W26068  30.958  37.336  14.370
53644W        W26069  33.028   2.927   2.396
53645W        W26070   0.543  33.884   2.785
53646W        W26071   7.945   0.922  10.611
53647W        W26072  31.845  36.048  11.673
53648W        W26073   5.877  30.344  12.532
53649W        W26074  35.512  19.649  14.786
53650W        W26075   0.954  42.794   4.808
53651W        W26076   5.079  25.620  11.547
53652W        W26077  31.169  41.354   2.233
53653W        W26078  28.683  44.397   4.546
53654W        W26079   7.932  25.464  12.519
53655W        W26080  33.065  38.616  10.963
53656W        W26081  44.876  19.932  11.106
53657W        W26082   9.142  24.428  13.824
53658W        W26083  19.190  25.665   0.662
53659W        W26084  34.884  29.835   1.850
53660W        W26085   5.387  36.583  14.891
53661W        W26086   2.075  35.501   3.063
53662W        W26087  37.999  33.912   3.372
53663W        W26088  19.047  29.608   3.452
53664W        W26089  16.232  44.268   2.715
53665W        W26090  42.472  11.126  14.807
53666W        W26091  13.391  12.544  12.454
53667W        W26092   1.182  42.284   0.819
53668W        W26093  16.035  14.052  14.913
53669W        W26094  23.729  35.074  10.435
53670W        W26095   7.434  43.404  11.716
53671W        W26096   7.593  37.145  10.767
53672W        W26097  37.937  25.413   1.442
53673W        W26098  25.276  42.782  12.070
53674W        W26099   4.784   1.300  10.965
53675W        W26100  40.021  19.227   4.770
53676W        W26101  13.742  23.653   2.163
53677W        W26102  21.774  11.997   5.243
53678W        W26103  22.082  22.023   3.165
53679W        W26104  30.927  39.540   0.749
53680W        W26105  32.826  32.464  13.875
53681W        W26106  27.423  31.985   4.686
53682W        W26107  21.186  13.583   0.723
53683W        W26108  27.100  13.394  11.224
53684W        W26109   9.688   8.287   2.919
53685W        W26110  35.261   2.406   0.272
53686W        W26111   7.426  35.446   3.707
53687W        W26112   0.769   7.892  12.946
53688W        W26113  13.609  24.105   3.473
53689W        W26114   2.392  20.125   4.805
53690W        W26115  44.437   7.782   4.077
53691W        W26116  34.077  17.116   1.826
53692W        W26117  16.731  31.714  13.855
53693W        W26118  26.311  43.042   4.952
53694W        W26119  31.350  37.320   1.632
53695W        W26120  20.466  38.426  12.744
53696W        W26121  25.438   6.635   0.796
53697W        W26122  22.029   1.516  13.922
53698W        W26123  21.762   3.484  12.473
53699W        W26124  29.599   4.783  12.949
53700W        W26125   6.016  33.863   0.459
53701W        W26126  25.357  18.025  12.433
53702W        W26127  40.887  18.161   2.654
53703W        W26128  18.125  40.495   4.517
53704W        W26129  44.951  20.289  14.316
53705W        W26130  18.590  19.611   1.802
53706W        W26131  30.747  31.126  13.380
53707W        W26132  17.781  31.733   2.037
53708W        W26133  13.651   1.504  11.077
53709W        W26134  42.226  43.348  11.062
53710W        W26135   4.530  20.324   4.195
53711W        W26136  25.119  27.182   0.468
53712W        W26137  18.607  23.321   1.493
53713W        W26138  17.296  14.184   4.570
53714W        W26139  14.321  25.823   1.270
53715W        W26140  31.023  30.701   3.587
53716W        W26141  18.165   2.278  11.370
53717W        W26142  40.679  25.105  13.949
53718W        W26143  29.075  17.107   4.074
53719W        W26144  44.196  40.954   0.418
53720W        W26145   0.009  18.820   2.915
53721W        W26146  36.696  11.815  11.963
53722W        W26147  32.725  35.921  12.267
53723W        W26148  42.210   0.767   1.512
53724W        W26149  20.325   2.915   1.497
53725W        W26150  16.351  17.070  12.421
53726W        W26151  21.506  41.413   0.531
53727W        W26152  42.028  19.625   2.148
53728W        W26153  27.592   2.506  12.481
53729W        W26154  40.464   9.868   2.371
53730W        W26155  21.976  23.104  13.083
53731W        W26156  44.491  21.139   4.602
53732W        W26157  11.670  35.040  10.586
53733W        W26158  12.648  11.848   2.749
53734W        W26159  27.055  30.135   3.371
53735W        W26160  33.827  11.714   0.775
53736W        W26161  22.006   0.846   2.614
53737W        W26162  22.673  10.026   5.018
53738W        W26163  35.310  21.140   0.794
53739W        W26164  12.683  24.870  11.692
53740W        W26165  18.066  41.950  14.455
53741W        W26166  32.194  14.537  13.136
53742W        W26167  40.732  32.512  11.132
53743W        W26168  11.365  32.977  13.408
53744W        W26169  21.719  20.561  14.358
53745W        W26170  42.362  31.678   3.367
53746W        W26171  15.251  32.438   2.726
53747W        W26172  15.047  29.266   1.425
53748W        W26173   2.182  28.867   1.381
53749W        W26174  25.169  26.633   3.261
53750W        W26175  15.134  29.915   3.972
53751W        W26176  13.856  13.289   2.646
53752W        W26177   2.447  33.840   1.025
53753W        W26178  34.648  34.067  13.164
53754W        W26179   9.353   3.292  13.429
53755W        W26180  40.589  41.437   0.887
53756W        W26181  13.397  18.147  11.108
53757W        W26182  32.418  25.630   2.724
53758W        W26183  39.526  43.720   3.920
53759W        W26184   9.289  32.546  12.536
53760W        W26185  24.044  15.627  13.988
53761W        W26186  18.610  26.102   4.291
53762W        W26187  14.989   3.817  11.046
53763W        W26188  19.961  34.512  13.280
53764W        W26189  12.849  44.512   0.719
53765W        W26190  42.289  32.621   1.879
53766W        W26191  31.510   1.842   2.181
53767W        W26192  12.670  11.586  11.198
53768W        W26193  37.157  24.570   1.319
53769W        W26194  10.255   1.784   4.107
53770W        W26195  19.688   6.789   3.499
53771W        W26196  27.473  17.493   3.697
53772W        W26197   6.169  19.559   0.280
53773W        W26198  40.503  26.121   3.219
53774W        W26199  15.651  14.852   1.547
53775W        W26200  34.784  17.835   2.802
53776W        W26201   5.005   1.927  14.419
53777W        W26202  27.941  29.668  11.032
53778W        W26203  42.937  23.082  12.901
53779W        W26204  13.384  37.889   0.363
53780W        W26205   4.291  37.605  11.199
53781W        W26206   4.590  20.177  10.999
53782W        W26207  26.205  12.136  13.448
53783W        W26208   4.314  41.731  12.838
53784W        W26209  35.947  13.417  10.786
53785W        W26210  12.124  15.755   0.390
53786W        W26211  35.424  13.992   1.381
53787W        W26212   3.916  33.687   1.263
53788W        W26213  43.323   3.783   2.941
53789W        W26214  41.218  41.701   1.773
53790W        W26215  20.927  10.081   4.184
53791W        W26216  35.609   7.737   2.824
53792W        W26217  44.247  37.498  12.163
53793W        W26218  34.433   7.924  12.921
53794W        W26219   0.920  36.024  10.255
53795W        W26220  20.804  25.315  13.393
53796W        W26221  37.859  11.693   0.926
53797W        W26222  37.649  40.583   3.308
53798W        W26223  14.817  11.548  12.514
53799W        W26224  23.761  19.252  11.986
53800W        W26225   0.546  29.404   1.768
53801W        W26226  16.839  31.415   1.741
53802W        W26227  14.735  44.595  10.532
53803W        W26228  33.589  16.766  12.254
53804W        W26229  28.465  19.685   1.705
53805W        W26230  19.139  35.392   3.818
53806W        W26231   5.234  14.269  11.182
53807W        W26232  15.348   5.185  14.873
53808W        W26233  43.831  20.061   9.645
53809W        W26234   9.641  19.540   2.768
53810W        W26235  18.963  30.070   3.198
53811W        W26236  33.017   2.305  13.933
53812W        W26237  10.089   4.907   1.440
53813W        W26238  29.192  28.612  14.030
53814W        W26239  38.032  25.695  13.019
53815W        W26240   5.095  25.207  14.457
53816W        W26241  21.111   1.046  13.963
53817W        W26242  29.112  15.240  11.581
53818W        W26243  38.486  44.997   2.699
53819W        W26244  13.142  37.294   4.616
53820W        W26245  20.348   7.867   2.006
53821W        W26246   2.203  12.370   3.284
53822W        W26247  32.009  19.660   0.020
53823W        W26248  20.954  35.446  14.289
53824W        W26249  29.965  21.027  14.680
53825W        W26250   6.326  33.606   0.821
53826W        W26251  20.206   5.772  10.602
53827W        W26252  16.329  13.818  13.006
53828W        W26253  12.636  10.678  14.841
53829W        W26254  20.171  15.287  14.909
53830W        W26255   7.377  33.563  13.772
53831W        W26256  17.813  39.331   1.347
53832W        W26257  36.458  23.559   2.201
53833W        W26258  26.407  31.400   3.559
53834W        W26259  41.962  23.927  11.103
53835W        W26260  25.034   8.286   4.656
53836W        W26261   6.453   5.716  11.538
53837W        W26262  15.938  13.095  13.841
53838W        W26263  24.480  32.063  12.044
53839W        W26264  13.578  14.442  11.931
53840W        W26265   4.435  39.154  12.846
53841W        W26266  20.547  24.978   0.129
53842W        W26267  40.851  25.483   1.032
53843W        W26268   5.341  20.011   1.704
53844W        W26269   2.839  21.930   4.348
53845W        W26270  35.774  25.543   0.837
53846W        W26271  17.385  29.729   3.826
53847W        W26272  12.299   7.378   3.717
53848W        W26273  34.896  44.026  12.980
53849W        W26274   0.307  27.674   2.268
53850W        W26275  18.219  33.134   1.418
53851W        W26276  14.513  13.083   2.850
53852W        W26277  13.375  35.204   0.948
53853W        W26278   9.177  32.805  11.173
53854W        W26279  40.920  30.451  13.533
53855W        W26280  15.829   4.941  14.920
53856W        W26281   2.439  12.327  13.942
53857W        W26282  33.481  33.477  13.708
53858W        W26283  28.994  25.714  11.711
53859W        W26284  24.074  43.707   1.348
53860W        W26285  38.807  12.304   4.440
53861W        W26286  24.169  26.867  14.048
53862W        W26287  42.621   7.244   2.297
53863W        W26288   7.499  17.130   2.340
53864W        W26289   0.448  27.412   2.683
53865W        W26290  27.605  15.692  13.155
53866W        W26291  34.430  29.011   0.989
53867W        W26292   3.064  29.177  12.410
53868W        W26293   9.907  35.068  14.580
53869W        W26294  19.342  35.039   4.179
53870W        W26295  39.581  36.148  13.004
53871W        W26296  10.205  23.022   4.738
53872W        W26297  21.846  19.856  11.119
53873W        W26298  23.013  34.133   0.718
53874W        W26299  26.006  44.643   3.213
53875W        W26300  33.083   0.805  14.797
53876W        W26301  10.635   0.350   1.227
53877W        W26302  10.155  22.618   0.970
53878W        W26303  16.847  25.664   1.347
53879W        W26304  24.557  34.632   0.334
53880W        W26305  43.866  11.258   3.566
53881W        W26306  20.126  42.483  14.425
53882W        W26307  15.109  10.590  12.987
53883W        W26308  21.444  22.009   2.468
53884W        W26309   7.719  44.666  11.065
53885W        W26310  38.529   9.446  12.545
53886W        W26311  14.627  12.664  13.526
53887W        W26312  42.437  14.115   3.608
53888W        W26313  20.790   5.348  14.303
53889W        W26314   0.931  24.577  14.278
53890W        W26315  24.470   6.303  12.135
53891W        W26316  22.786   1.427   3.694
53892W        W26317  23.319   1.799  11.990
53893W        W26318  34.098  12.455   0.275
53894W        W26319  40.572  20.109  13.414
53895W        W26320  17.528  31.390   3.762
53896W        W26321  23.305  39.786   3.325
53897W        W26322  44.748  14.724  11.206
53898W        W26323   7.259   5.607  10.960
53899W        W26324   3.875  44.273  10.964
53900W        W26325   3.074  25.623   2.492
53901W        W26326  32.860  28.408   3.723
53902W        W26327   5.498  36.908  14.480
53903W        W26328   1.255  24.092  13.075
53904W        W26329   8.101  24.004   2.335
53905W        W26330   4.318   6.431  10.411
53906W        W26331  28.717  22.224  13.824
53907W        W26332   3.768  26.550   4.493
53908W        W26333  21.459  41.990  13.087
53909W        W26334  33.298  23.698  14.226
53910W        W26335  21.092  44.067   0.249
53911W        W26336   0.254  41.504  14.344
53912W        W26337   5.015  31.945  11.045
53913W        W26338  13.261  21.964  12.541
53914W        W26339  30.155  29.565  13.798
53915W        W26340  28.150  41.954   4.541
53916W        W26341  10.413  41.396  14.836
53917W        W26342  22.776   4.466  11.535
53918W        W26343   5.788   8.467  14.386
53919W        W26344  26.767  32.915  12.973
53920W        W26345   9.219  29.937  10.605
53921W        W26346  30.295  12.305   0.249
53922W        W26347  34.372  18.680  10.662
53923W        W26348   1.766   3.294   4.607
53924W        W26349   2.978   1.534  14.320
53925W        W26350  26.257  10.870   1.884
53926W        W26351  31.887  26.475  14.357
53927W        W26352  12.096  19.189   2.854
53928W        W26353  29.429  44.927  10.611
53929W        W26354  30.502  37.633  14.288
53930W        W26355   2.202   4.266   0.474
53931W        W26356  10.171   4.275   3.635
53932W        W26357  31.672  41.738   3.419
53933W        W26358  24.765  33.563  14.039
53934W        W26359  25.651  36.938  14.815
53935W        W26360   0.976  41.333  10.808
53936W        W26361   0.564   1.365  14.826
53937W        W26362  37.676  14.488  13.612
53938W        W26363  15.923   8.569   2.017
53939W        W26364  15.312  14.838  10.419
53940W        W26365  32.938  17.958   1.860
53941W        W26366  16.789   6.698   2.710
53942W        W26367  25.720  34.616   4.460
53943W        W26368  33.973  23.050   2.855
53944W        W26369  11.097  23.580   1.382
53945W        W26370   8.333   0.177  13.049
53946W        W26371   9.850  43.789   4.091
53947W        W26372  43.534  41.443  10.602
53948W        W26373  44.833  23.161  13.977
53949W        W26374  34.111   4.730  13.926
53950W        W26375   8.322  31.461  14.482
53951W        W26376   2.169   0.994   1.780
53952W        W26377  20.453   1.561   1.331
53953W        W26378  23.011   0.579   2.640
53954W        W26379  44.848  23.953   4.124
53955W        W26380  28.088  10.669   2.912
53956W        W26381   1.931  21.229   0.918
53957W        W26382  40.913   9.768  11.610
53958W        W26383  22.987   9.930  14.351
53959W        W26384   5.413  15.748   3.273
53960W        W26385  29.030  40.773   0.358
53961W        W26386  33.509  10.172  10.497
53962W        W26387  26.035   0.944   3.766
53963W        W26388   4.598  41.586  13.733
53964W        W26389  24.569  16.280  14.027
53965W        W26390  21.680  32.564   0.203
53966W        W26391   1.489  18.649   2.840
53967W        W26392  28.957  11.315  12.085
53968W        W26393  20.634  21.098  14.962
53969W        W26394   6.383  36.163  13.795
53970W        W26395  37.979  11.886   4.050
53971W        W26396  23.910  23.950  12.059
53972W        W26397   7.906  19.865  13.090
53973W        W26398  29.203  27.523  14.086
53974W        W26399  27.305  44.347   2.255
53975W        W26400  21.121   1.118   5.203
53976W        W26401  21.002  10.401   3.313
53977W        W26402  20.006  19.129   2.827
53978W        W26403   7.359  40.062   3.309
53979W        W26404  14.813   4.184   2.901
53980W        W26405  13.605  14.671   4.246
53981W        W26406  25.535   0.974   3.721
53982W        W26407   5.712  32.440  10.667
53983W        W26408  30.982  10.757  13.672
53984W        W26409  39.863  30.048   1.503
53985W        W26410  43.536  19.745   0.946
53986W        W26411  29.540  11.917   2.746
53987W        W26412  15.554  42.183   0.852
53988W        W26413  28.112  39.088   3.107
53989W        W26414  21.813   8.783   1.822
53990W        W26415  19.344  27.663  11.683
53991W        W26416  36.521   4.727  13.835
53992W        W26417   3.769  25.310   0.816
53993W        W26418  36.092  19.038   4.683
53994W        W26419  30.383  35.443  12.976
53995W        W26420  42.342  24.524   3.170
53996W        W26421  33.967  13.868  11.147
53997W        W26422  43.991  25.911  11.022
53998W        W26423  34.543  25.598   3.894
53999W        W26424   8.987  41.289   2.499
54000W        W26425  19.707  19.100  12.200
54001W        W26426  37.157  10.357   0.194
54002W        W26427  14.496  39.072  11.187
54003W        W26428  12.661  20.625   1.351
54004W        W26429  20.743   6.889  11.489
54005W        W26430   0.162  21.707   4.094
54006W        W26431  41.054  16.533   1.421
54007W        W26432  14.673  35.345   0.996
54008W        W26433  29.515  21.553   4.985
54009W        W26434  15.147  13.755   1.363
54010W        W26435  31.628   1.808  12.903
54011W        W26436  25.618  16.696  12.147
54012W        W26437  11.869  21.823  14.704
54013W        W26438  33.989  36.877  13.527
54014W        W26439  34.986  26.681  13.546
54015W        W26440   9.111  25.150  14.390
54016W        W26441  37.973  29.749  14.492
54017W        W26442  17.249   3.684  13.967
54018W        W26443  13.523  31.103  11.568
54019W        W26444  30.100  12.143  13.357
54020W        W26445  44.476  20.302  14.098
54021W        W26446  43.755  21.126   3.608
54022W        W26447  35.371  36.075   2.354
54023W        W26448  17.830  14.244   0.642
54024W        W26449  38.525  26.856  14.283
54025W        W26450  44.479  37.110  13.933
54026W        W26451  11.736  41.307   2.827
54027W        W26452  16.830  29.182   0.343
54028W        W26453  41.363  11.877   0.820
54029W        W26454  24.227  29.209   4.295
54030W        W26455   1.510  16.972  10.739
54031W        W26456  19.501   5.207  14.192
54032W        W26457  35.563   7.646  12.119
54033W        W26458   5.168  25.372   4.205
54034W        W26459  30.952   2.336   2.724
54035W        W26460   4.388   0.360   3.679
54036W        W26461   1.237  37.526  14.019
54037W        W26462  30.576   7.561   1.798
54038W        W26463  19.070  12.835  14.360
54039W        W26464  29.526  23.850  11.026
54040W        W26465  42.805   2.589   1.487
54041W        W26466  31.677  36.515  13.056
54042W        W26467  20.812  22.026  11.006
54043W        W26468  15.239  22.763   1.386
54044W        W26469  17.595  16.507   3.895
54045W        W26470  32.260   4.209   2.032
54046W        W26471  23.713  41.875   3.510
54047W        W26472  35.563  31.072  12.855
54048W        W26473  43.733  34.582  14.447
54049W        W26474  30.684  32.874  12.359
54050W        W26475  30.618  36.148   4.093
54051W        W26476  44.938   9.980  11.045
54052W        W26477  14.855   6.333  11.193
54053W        W26478   2.012  36.995  13.855
54054W        W26479   2.923  12.935  12.037
54055W        W26480  20.071  33.842  12.711
54056W        W26481   0.019  29.132   4.027
54057W        W26482  44.312  37.939   0.608
54058W        W26483  18.940  36.339   2.257
54059W        W26484  29.345   2.494   1.752
54060W        W26485  11.750  12.420  13.865
54061W        W26486  11.807  32.881  14.903
54062W        W26487  36.990  24.160  12.085
54063W        W26488  12.083  42.859   2.828
54064W        W26489  22.574  29.612   0.381
54065W        W26490  34.762   1.266  12.013
54066W        W26491  40.015  37.929  14.352
54067W        W26492  14.951   8.212  11.597
54068W        W26493  32.108  10.382  14.875
54069W        W26494  24.017   9.136   4.703
54070W        W26495  11.669  39.753  13.854
54071W        W26496   0.884  18.279   1.778
54072W        W26497  37.450  31.736   4.163
54073W        W26498  13.349   6.880  10.685
54074W        W26499  21.458  31.656   3.242
54075W        W26500  37.883  13.019   2.318
54076W        W26501  12.671   2.515  11.121
54077W        W26502  11.341   3.857   2.267
54078W        W26503  43.983  11.200   2.633
54079W        W26504   7.643  26.385  11.518
54080W        W26505   7.004   0.333  12.804
54081W        W26506  38.829  13.397   2.462
54082W        W26507  44.909  20.689   3.945
54083W        W26508  19.156  37.430  13.328
54084W        W26509  25.064   7.899  12.104
54085W        W26510  30.341   1.537   1.913
54086W        W26511  42.001  13.798   4.510
54087W        W26512  12.133  44.514  12.763
54088W        W26513  20.606  21.060   4.033
54089W        W26514   0.235  21.134   2.700
54090W        W26515  10.864   5.136  10.687
54091W        W26516  24.148  22.543  13.635
54092W        W26517  41.736  18.950   9.694
54093W        W26518  28.412  24.000   5.474
54094W        W26519  20.199  44.811   1.664
54095W        W26520  10.927   7.805  12.829
54096W        W26521  32.976  17.321  13.884
54097W        W26522  39.334   1.914   1.358
54098W        W26523  43.004  19.321   4.659
54099W        W26524  24.286  36.094  11.126
54100W        W26525   7.906  28.459   3.676
54101W        W26526  38.833   9.692  11.732
54102W        W26527  19.316  26.510   3.804
54103W        W26528  17.756  22.962   3.379
54104W        W26529  19.611  12.046  14.743
54105W        W26530  32.010   6.436   2.674
54106W        W26531  25.278  33.547  14.151
54107W        W26532   5.271  10.316  13.141
54108W        W26533  14.909   2.814   3.726
54109W        W26534  16.657   3.718  13.382
54110W        W26535   1.477  18.730   2.307
54111W        W26536   2.197   3.880   2.403
54112W        W26537  42.380  12.156   1.326
54113W        W26538   6.897  19.093  14.696
54114W        W26539  33.823  19.486   1.704
54115W        W26540  41.543  32.185  12.114
54116W        W26541   8.411  33.116  12.457
54117W        W26542   6.203  17.578   1.164
54118W        W26543  34.208   3.316   0.002
54119W        W26544  11.739  17.121   0.686
54120W        W26545  37.588   6.176   2.129
54121W        W26546  18.186   7.765   1.003
54122W        W26547   4.109   6.838  13.871
54123W        W26548  24.148   3.725  11.512
54124W        W26549   4.508   3.357  12.384
54125W        W26550  24.164  25.293  10.836
54126W        W26551  14.223  22.876  14.021
54127W        W26552  14.369  20.508   3.373
54128W        W26553  44.511   8.254  11.172
54129W        W26554  41.348  18.250   0.738
54130W        W26555  11.325  28.605   3.170
54131W        W26556  29.894  14.522   1.287
54132W        W26557   8.221   5.695   3.645
54133W        W26558  40.103  13.957  11.434
54134W        W26559  16.231  39.868  11.662
54135W        W26560   9.890  21.772   3.573
54136W        W26561  26.314  42.669  10.124
54137W        W26562  30.520  10.482  10.295
54138W        W26563  33.559   5.939   4.736
54139W        W26564  23.640  16.598  11.092
54140W        W26565  28.532  44.007  11.048
54141W        W26566  36.944  39.863  10.767
54142W        W26567   4.057  11.806  13.516
54143W        W26568  24.686  13.179   4.574
54144W        W26569  43.807  40.777  11.430
54145W        W26570  29.972  20.923  10.798
54146W        W26571  14.086  18.552  14.792
54147W        W26572   8.834  20.230  13.428
54148W        W26573  14.847   9.600   2.371
54149W        W26574  12.165   5.508  11.418
54150W        W26575  44.231  30.733   0.759
54151W        W26576  11.782  17.110  12.561
54152W        W26577  21.671  38.497   1.807
54153W        W26578  27.098  14.830   1.978
54154W        W26579  44.471   1.454   0.748
54155W        W26580  12.373  41.055   1.768
54156W        W26581  29.659   5.711   3.714
54157W        W26582  23.601   3.168   2.227
54158W        W26583  28.955  15.096  13.424
54159W        W26584   7.717  36.777  11.537
54160W        W26585  42.926   9.379  14.665
54161W        W26586  19.124   4.332  13.976
54162W        W26587  35.537  18.083  12.838
54163W        W26588  40.382  38.741   1.566
54164W        W26589  31.114  25.238  12.046
54165W        W26590  21.640  24.231   4.643
54166W        W26591  39.909  21.803  14.915
54167W        W26592  44.761   6.171   1.415
54168W        W26593  33.193  23.526  10.705
54169W        W26594  18.119  32.536   2.113
54170W        W26595   7.512  17.117  12.530
54171W        W26596  11.618  38.583  12.952
54172W        W26597  40.027  10.167  13.886
54173W        W26598  14.771  15.834   1.760
54174W        W26599  17.795  42.109   2.804
54175W        W26600  18.576  33.611  10.106
54176W        W26601  40.932  44.333   2.337
54177W        W26602   6.302  28.498   1.463
54178W        W26603  39.402   8.644   1.773
54179W        W26604   6.536   3.228  10.704
54180W        W26605  21.613  35.954   0.058
54181W        W26606  31.162  38.291   4.284
54182W        W26607  15.159   7.950  13.268
54183W        W26608  11.392  10.361   3.355
54184W        W26609  23.589   3.666   2.334
54185W        W26610  38.761  31.852  14.960
54186W        W26611  23.612  26.479   3.733
54187W        W26612  39.553  19.723   2.685
54188W        W26613  41.862  40.028   2.228
54189W        W26614  41.793  26.470   1.392
54190W        W26615  10.608  34.517   3.654
54191W        W26616  27.889  24.733   1.534
54192W        W26617  16.169   7.057  11.070
54193W        W26618  27.673  17.802   0.858
54194W        W26619  36.306  15.280  12.145
54195W        W26620  26.979  32.185  11.504
54196W        W26621   4.030  26.319   0.842
54197W        W26622  37.946   7.216   3.242
54198W        W26623  24.745  21.394   4.416
54199W        W26624   9.918  37.883  11.244
54200W        W26625   0.558  43.427  11.559
54201W        W26626   0.809  27.901   4.140
54202W        W26627  31.770  33.571   0.371
54203W        W26628  22.039  20.352   0.432
54204W        W26629   3.946  37.120   0.221
54205W        W26630  36.571  11.826  11.149
54206W        W26631  12.928  37.939  14.001
54207W        W26632  41.636  28.520  13.065
54208W        W26633   7.236   0.853   4.447
54209W        W26634  17.068   5.758  14.122
54210W        W26635  11.865  23.581   4.016
54211W        W26636  43.572  24.546   0.312
54212W        W26637  12.538  22.701  13.921
54213W        W26638  39.912  44.064   1.419
54214W        W26639   9.745  29.066   0.379
54215W        W26640  31.911   2.539  14.629
54216W        W26641  17.191   8.855  12.747
54217W        W26642  29.321  24.786  13.316
54218W        W26643  19.152  28.084   1.497
54219W        W26644  13.684   7.233  13.742
54220W        W26645  44.788   1.547   1.211
54221W        W26646  44.955  13.563  12.467
54222W        W26647  43.267   7.357  13.292
54223W        W26648  33.187  38.062  13.885
54224W        W26649   8.350  31.140   4.337
54225W        W26650  23.925  23.232  14.949
54226W        W26651  28.279  35.438   1.864
54227W        W26652  44.351  18.309  13.520
54228W        W26653  37.871  24.179  10.650
54229W        W26654  35.216  12.561  11.104
54230W        W26655  23.030  33.141  14.492
54231W        W26656  42.484   4.128   2.271
54232W        W26657  23.393  15.656  12.403
54233W        W26658  10.105  40.780  11.675
54234W        W26659  33.145  26.666  11.110
54235W        W26660  15.293  31.042   3.036
54236W        W26661  13.632  26.653  12.323
54237W        W26662  21.935  15.413   0.351
54238W        W26663  25.236  24.008  11.576
54239W        W26664  35.353  14.187  11.641
54240W        W26665  34.919  37.782   2.355
54241W        W26666  34.324   0.361   4.914
54242W        W26667   0.452   8.788   4.850
54243W        W26668   9.852  17.567   3.799
54244W        W26669  44.867   1.035  12.401
54245W        W26670  21.295  43.284   2.686
54246W        W26671   8.910  10.671   2.986
54247W        W26672   1.018  27.072  10.836
54248W        W26673  20.637  22.050   2.407
54249W        W26674  23.029  13.298  13.424
54250W        W26675  34.049  23.514  10.845
54251W        W26676  11.183   6.824   3.629
54252W        W26677   1.972  13.272  11.451
54253W        W26678  39.708  35.183  13.986
54254W        W26679  19.743  17.692   0.690
54255W        W26680   5.230  35.270   1.417
54256W        W26681  41.274  39.075   3.234
54257W        W26682  29.389  38.003   2.532
54258W        W26683  37.635   0.696   5.048
54259W        W26684  14.308   8.892   2.383
54260W        W26685   1.335  13.310   4.556
54261W        W26686   1.674   5.337   0.451
54262W        W26687  35.138  21.714  14.139
54263W        W26688   3.992  32.448   1.857
54264W        W26689   2.740   2.946  13.595
54265W        W26690  29.782  32.650   0.708
54266W        W26691  25.968  22.567  10.410
54267W        W26692  27.246  26.981  14.388
54268W        W26693  41.926   5.785   1.038
54269W        W26694  33.323  29.997  10.317
54270W        W26695   0.773  30.776  13.322
54271W        W26696  24.347  19.624  14.113
54272W        W26697  27.222   0.372  12.368
54273W        W26698   2.950   1.384  11.163
54274W        W26699  44.686   6.900  13.380
54275W        W26700  31.964  30.246  11.058
54276W        W26701  13.896   5.340  13.082
54277W        W26702  36.579  35.722  10.877
54278W        W26703  23.995   6.665   4.672
54279W        W26704  41.582   8.627  14.049
54280W        W26705  15.765  35.332   2.845
54281W        W26706   8.445   3.018   3.176
54282W        W26707  33.124  44.455   1.841
54283W        W26708  16.442   6.134   0.007
54284W        W26709  10.976  10.221   0.796
54285W        W26710  14.588   0.520   0.031
54286W        W26711   6.155  26.668  13.400
54287W        W26712  37.348  26.024  14.468
54288W        W26713  20.185   4.278   3.188
54289W        W26714  20.117   0.329   0.308
54290W        W26715  14.668  27.982  12.095
54291W        W26716  27.642   6.771   0.413
54292W        W26717   7.430  15.552  12.908
54293W        W26718  11.525  14.361   2.800
54294W        W26719   0.854  12.744  11.779
54295W        W26720  18.725  16.642   0.457
54296W        W26721  22.228  16.753  11.433
54297W        W26722  18.077  32.686   3.737
54298W        W26723  11.559  35.002   2.318
54299W        W26724  37.160  36.041  11.895
54300W        W26725  30.907  39.998   2.800
54301W        W26726  35.899  41.594   4.085
54302W        W26727   2.472  19.641   1.971
54303W        W26728  34.076   2.731   3.717
54304W        W26729  20.132   7.607   3.669
54305W        W26730  36.398  20.321  14.278
54306W        W26731   2.364  11.383  12.655
54307W        W26732  22.681   2.612   2.098
54308W        W26733  22.259  32.981   2.309
54309W        W26734   9.480  16.558   2.697
54310W        W26735  29.954  25.430  13.892
54311W        W26736   8.988  30.152  12.476
54312W        W26737  26.805  28.019   1.927
54313W        W26738  34.694   8.970  14.496
54314W        W26739  18.592  35.601  11.680
54315W        W26740  16.300   7.003   3.540
54316W        W26741  28.604  41.028  14.651
54317W        W26742  41.276  23.501  13.943
54318W        W26743  41.744  28.549  13.560
54319W        W26744  15.024   2.044   0.746
54320W        W26745  40.850   5.631  13.077
54321W        W26746   7.794   1.033  11.502
54322W        W26747   2.758  40.826  13.373
54323W        W26748  39.280  29.713   1.361
54324W        W26749  42.960  37.574   4.085
54325W        W26750  18.310   9.635  12.577
54326W        W26751  23.025  30.235  13.017
54327W        W26752  16.615  20.271  13.021
54328W        W26753  18.326  19.711   0.230
54329W        W26754   4.879  31.293   2.409
54330W        W26755   2.734  43.205   1.354
54331W        W26756  28.598   4.211  13.939
54332W        W26757  44.262  39.551  12.901
54333W        W26758  40.393  31.595  12.077
54334W        W26759  14.577  30.873  14.759
54335W        W26760  42.232  36.030   2.149
54336W        W26761  16.642  13.191  14.915
54337W        W26762  35.920  34.222   0.483
54338W        W26763  44.003  30.200   2.812
54339W        W26764  26.147  33.507  11.568
54340W        W26765  27.129   4.949  13.924
54341W        W26766  20.622  34.459   0.133
54342W        W26767  17.707  31.400  11.113
54343W        W26768  14.564  32.644  11.160
54344W        W26769  34.056   1.866  12.149
54345W        W26770  30.512  34.768  11.291
54346W        W26771  13.936  34.418   3.380
54347W        W26772  37.378  19.360   3.512
54348W        W26773  40.471  18.847  13.477
54349W        W26774  15.983  40.299  13.975
54350W        W26775  29.680  16.191   4.802
54351W        W26776  29.669  14.562   2.850
54352W        W26777  36.089  18.741   4.239
54353W        W26778   5.506  10.711  12.334
54354W        W26779  44.560  28.608  11.133
54355W        W26780  30.640  30.048   3.281
54356W        W26781  41.724  38.891   5.188
54357W        W26782  10.665  38.636   3.860
54358W        W26783   4.436  37.071   0.846
54359W        W26784  44.914  40.003  10.517
54360W        W26785  37.930  33.968   3.951
54361W        W26786   6.156  44.821  14.448
54362W        W26787  38.620  41.168   2.138
54363W        W26788  39.260   4.066   3.265
54364W        W26789  15.702   2.397   2.357
54365W        W26790  26.612  11.113  14.369
54366W        W26791  19.122  25.297  12.009
54367W        W26792   7.622  38.365   1.624
54368W        W26793  25.842  40.322   2.124
54369W        W26794  28.238  27.643   1.866
54370W        W26795  40.894  19.172   4.488
54371W        W26796  29.446  32.166  13.972
54372W        W26797  24.062  34.119   3.848
54373W        W26798  10.100  24.790   2.646
54374W        W26799  29.405  44.184  10.068
54375W        W26800  39.449   9.058  13.431
54376W        W26801  39.983  43.890   2.397
54377W        W26802  12.603  17.434   0.780
54378W        W26803  41.512  41.212  10.544
54379W        W26804   7.390  11.888  13.496
54380W        W26805  31.875   3.962  12.058
54381W        W26806   2.986  32.463  12.120
54382W        W26807   9.595  17.660   4.573
54383W        W26808  19.122  21.291   1.400
54384W        W26809  43.415   6.259  11.614
54385W        W26810  29.633  24.031   3.540
54386W        W26811  12.215  26.808  14.417
54387W        W26812   5.884  39.043   4.192
54388W        W26813  20.244  19.782   2.227
54389W        W26814  31.922   4.905  10.734
54390W        W26815  41.434  14.217  13.038
54391W        W26816  34.969   7.662   4.062
54392W        W26817  41.936  41.994   1.086
54393W        W26818  14.047  28.828  13.317
54394W        W26819   1.047  30.237   1.768
54395W        W26820   3.285  11.688  13.093
54396W        W26821  14.390  43.431   0.047
54397W        W26822  28.322   5.658  12.987
54398W        W26823  13.836  42.433   0.244
54399W        W26824   4.584  43.958  12.069
54400W        W26825  33.177  27.693   4.089
54401W        W26826  30.986  13.528   4.870
54402W        W26827  25.548  10.748  13.005
54403W        W26828  30.940  14.046   4.705
54404W        W26829  41.945  26.227   4.174
54405W        W26830  18.615  30.081  11.100
54406W        W26831  39.839  12.710   2.270
54407W        W26832  34.420  24.628   0.197
54408W        W26833  20.142  24.042   3.632
54409W        W26834  22.521  11.574   2.708
54410W        W26835  41.829  37.646  13.969
54411W        W26836  37.478  35.695  12.136
54412W        W26837  24.663   9.337  12.385
54413W        W26838  20.586  39.543  13.021
54414W        W26839  38.606  27.766   3.693
54415W        W26840  36.577  18.519   1.191
54416W        W26841  13.426   4.616   9.960
54417W        W26842  36.422   3.744   1.189
54418W        W26843  15.641  25.210  12.995
54419W        W26844   1.779  10.560  10.720
54420W        W26845  18.206   8.557  11.347
54421W        W26846  21.274   0.286   0.951
54422W        W26847  41.936  15.811  13.377
54423W        W26848  19.699  14.313   2.801
54424W        W26849  38.886   6.889   1.862
54425W        W26850  26.356  35.327  11.466
54426W        W26851  39.202  28.847  11.516
54427W        W26852   3.998   3.491   1.429
54428W        W26853  35.977  21.254  13.811
54429W        W26854  15.630   6.366   3.323
54430W        W26855  44.560  40.775   2.220
54431W        W26856   7.888  39.866   3.744
54432W        W26857  30.548  26.142   1.331
54433W        W26858   6.452  34.217  14.863
54434W        W26859  11.647   7.473  14.446
54435W        W26860  14.718   2.004  10.132
54436W        W26861   4.577  20.357   0.860
54437W        W26862  40.476   3.697  13.913
54438W        W26863  32.416  39.898   4.590
54439W        W26864  26.721  21.491   1.257
54440W        W26865  31.107  14.265  10.190
54441W        W26866  16.090  27.139  12.028
54442W        W26867  10.132  44.879   4.752
54443W        W26868  16.436  28.694   2.825
54444W        W26869  15.681  39.929   1.973
54445W        W26870  36.911   0.043  11.961
54446W        W26871  19.444  35.234  11.122
54447W        W26872  20.812  12.665  10.960
54448W        W26873  44.050  25.389  11.032
54449W        W26874   0.842  36.043  12.960
54450W        W26875   9.246  18.483  12.567
54451W        W26876  10.179  23.566   4.684
54452W        W26877  44.907  40.275  10.949
54453W        W26878  30.426  37.333   3.158
54454W        W26879  13.729  14.910   2.231
54455W        W26880  12.799  31.913   4.882
54456W        W26881  21.627  12.665   2.625
54457W        W26882  17.521   9.163   0.433
54458W        W26883  30.982  37.627   0.874
54459W        W26884   9.341  26.593   1.321
54460W        W26885   7.124   9.645  13.472
54461W        W26886  35.621   1.414   2.271
54462W        W26887  16.034   2.805  13.806
54463W        W26888  33.003   4.025  13.130
54464W        W26889  24.447  35.895   3.088
54465W        W26890  24.669  17.702  11.102
54466W        W26891   8.259  18.242  11.619
54467W        W26892   4.470   6.958   4.557
54468W        W26893  40.752  29.464   1.478
54469W        W26894  14.067  16.184  14.498
54470W        W26895  43.485   9.633  11.522
54471W        W26896  44.860  42.786   1.931
54472W        W26897  30.816  41.438   3.649
54473W        W26898  11.140  21.253  11.149
54474W        W26899  14.186  38.908  11.629
54475W        W26900   4.925  18.748  13.892
54476W        W26901  30.974  18.766   2.223
54477W        W26902  24.680   5.782  13.769
54478W        W26903   1.041   3.514  11.508
54479W        W26904  20.142  43.907  12.940
54480W        W26905  23.744  11.230   0.830
54481W        W26906  14.114  20.518  13.046
54482W        W26907  29.587  20.065  11.584
54483W        W26908   6.090  19.494   4.516
54484W        W26909  41.360  15.065  13.595
54485W        W26910  35.691   6.479  11.841
54486W        W26911  17.331  12.067   3.167
54487W        W26912  21.495  29.009   1.345
54488W        W26913  20.160  44.778  14.437
54489W        W26914   6.158  21.128   2.655
54490W        W26915  37.096  35.102   2.325
54491W        W26916  26.629  30.091  13.103
54492W        W26917  14.540  39.444  11.991
54493W        W26918  33.653  10.814  10.123
54494W        W26919  28.873  35.417  11.583
54495W        W26920  13.691   6.914  12.752
54496W        W26921  40.338   1.955  11.598
54497W        W26922  17.670  23.379  14.953
54498W        W26923   2.007  11.375  11.910
54499W        W26924  39.932  17.867  11.979
54500W        W26925  15.762  12.164   2.101
54501W        W26926  16.816  33.022   0.426
54502W        W26927  43.470  20.490  14.167
54503W        W26928  35.630  16.757   4.280
54504W        W26929  35.435  29.367   0.488
54505W        W26930  19.928  37.404   2.921
54506W        W26931  17.096   5.795  11.983
54507W        W26932   1.043  43.854   4.329
54508W        W26933  24.049  10.383   4.592
54509W        W26934  23.199  35.044  12.001
54510W        W26935  40.339   6.649  14.540
54511W        W26936   0.572  25.675   2.884
54512W        W26937   4.499  43.018   0.138
54513W        W26938  26.120  35.937   1.863
54514W        W26939  42.953   2.386  14.718
54515W        W26940  38.031  39.537   2.794
54516W        W26941  42.567  39.931   2.817
54517W        W26942  19.649  23.035   0.375
54518W        W26943  43.409   3.145  12.908
54519W        W26944   5.910  13.697  14.640
54520W        W26945  36.379  11.518  14.752
54521W        W26946  12.264   8.009   4.468
54522W        W26947  18.804  37.740  14.519
54523W        W26948  23.005  32.404   2.363
54524W        W26949   2.820  11.446   3.689
54525W        W26950  29.457  27.638  12.238
54526W        W26951  28.783  20.950   4.015
54527W        W26952  28.428   7.400   2.442
54528W        W26953  30.195  18.141  14.137
54529W        W26954  28.011  29.941   0.474
54530W        W26955  40.934  24.919  11.259
54531W        W26956   5.379  41.756  10.729
54532W        W26957  35.104   4.693   3.195
54533W        W26958   9.230  42.565  13.142
54534W        W26959  16.859  12.945  12.449
54535W        W26960  28.629   2.268  14.065
54536W        W26961  24.815  22.730  12.805
54537W        W26962  38.999  33.592  12.151
54538W        W26963   7.477  34.949   2.282
54539W        W26964   9.608  20.806   0.479
54540W        W26965  10.246   7.240  13.353
54541W        W26966   1.970   0.426   2.902
54542W        W26967   2.043   0.700   4.134
54543W        W26968  42.457   2.389  12.984
54544W        W26969  36.957  17.611   3.397
54545W        W26970   1.232  27.139   1.381
54546W        W26971  13.297  10.302  12.753
54547W        W26972  13.170  24.725  11.072
54548W        W26973  22.195  38.965  10.941
54549W        W26974  34.222  24.595   3.898
54550W        W26975   2.758  44.260   0.422
54551W        W26976  23.883  24.419   0.707
54552W        W26977   5.783   7.926  10.498
54553W        W26978   7.214  23.697   2.435
54554W        W26979   8.373  37.720   0.793
54555W        W26980   3.222   6.596  13.543
54556W        W26981  39.544  41.051   2.608
54557W        W26982  39.406  17.226  14.923
54558W        W26983  11.140  28.113   1.457
54559W        W26984  41.524  42.935  12.545
54560W        W26985  27.334   0.777  10.638
54561W        W26986  18.988  44.047   0.737
54562W        W26987   8.783  28.134   2.088
54563W        W26988   5.488  21.103  11.533
54564W        W26989  21.800   7.299   4.316
54565W        W26990   0.420  25.027   2.314
54566W        W26991  30.772  17.413  14.424
54567W        W26992  27.901  28.965   0.697
54568W        W26993  17.548  41.289   3.161
54569W        W26994   1.730   4.291   4.104
54570W        W26995  22.181  30.165  11.495
54571W        W26996  26.122  22.915  11.353
54572W        W26997   3.378  13.729   4.499
54573W        W26998   2.321  15.173  14.041
54574W        W26999   1.538  39.806  13.428
54575W        W27000  19.767  14.651   4.567
54576W        W27001  15.447  42.731  10.720
54577W        W27002   2.577   7.328   3.256
54578W        W27003  22.180  14.660   1.459
54579W        W27004   8.885  24.155   2.834
54580W        W27005  41.963  10.711   1.639
54581W        W27006  34.450  27.923   0.761
54582W        W27007   6.166   3.823  14.918
54583W        W27008  29.041  22.210  12.616
54584W        W27009  43.670   3.737   0.021
54585W        W27010   9.900  40.960  10.479
54586W        W27011   1.368  22.414  14.173
54587W        W27012  33.610  34.273  14.597
54588W        W27013  38.813  31.330   3.381
54589W        W27014  28.129  43.423   2.410
54590W        W27015  18.558  32.332   0.393
54591W        W27016  20.185  10.653   2.768
54592W        W27017  43.880   5.343   4.773
54593W        W27018  15.712  43.538   2.626
54594W        W27019  14.798  18.889   2.671
54595W        W27020  20.564  31.929   5.158
54596W        W27021  21.567  13.189  13.565
54597W        W27022  22.104  31.201  14.456
54598W        W27023  25.650  38.184  12.133
54599W        W27024   2.713  24.135  14.554
54600W        W27025  32.536  16.195  12.959
54601W        W27026  14.148  13.807   3.429
54602W        W27027  11.905  36.677  14.360
54603W        W27028  11.608  17.520  11.628
54604W        W27029  38.974   2.405   0.900
54605W        W27030  16.656  11.217  13.008
54606W        W27031  44.242  42.847  14.939
54607W        W27032   6.166  26.181  12.727
54608W        W27033  13.534   2.350  14.284
54609W        W27034  18.229  39.860  13.902
54610W        W27035  12.654  28.549  13.102
54611W        W27036   7.215   4.319   0.309
54612W        W27037  36.290   9.254   2.651
54613W        W27038   7.224  23.082   4.802
54614W        W27039   6.162  43.866   5.010
54615W        W27040   7.111  41.892   3.462
54616W        W27041  31.731   9.822  13.321
54617W        W27042  31.988   8.333  14.270
54618W        W27043  41.849  23.521   2.104
54619W        W27044  42.502  44.595   0.121
54620W        W27045  40.988  27.232   3.838
54621W        W27046  31.143   0.520   4.230
54622W        W27047   7.248  44.766  11.230
54623W        W27048  41.063   3.227  14.878
54624W        W27049  29.976  40.505  13.233
54625W        W27050  29.120  37.303   4.577
54626W        W27051   7.731   4.565  14.552
54627W        W27052   0.469  33.666   3.257
54628W        W27053  15.633  38.753   1.472
54629W        W27054  43.266  27.537   3.176
54630W        W27055   3.346  29.169   4.601
54631W        W27056  25.133  17.068  11.886
54632W        W27057  13.226   2.260  11.122
54633W        W27058  17.742  11.700  14.303
54634W        W27059  13.296  10.138  10.057
54635W        W27060  23.592  25.726   2.329
54636W        W27061  20.607  43.447  10.669
54637W        W27062  14.318  18.705   2.693
54638W        W27063  11.216  29.648   1.628
54639W        W27064  21.091  43.450  13.901
54640W        W27065  18.589  37.662   0.718
54641W        W27066  18.376  21.142  10.722
54642W        W27067  21.982  23.512   0.887
54643W        W27068  37.960  30.924   0.208
54644W        W27069  29.971  42.110   3.419
54645W        W27070   9.793  16.832   4.582
54646W        W27071  28.407   1.910  12.029
54647W        W27072  23.725  14.273   4.483
54648W        W27073  10.338  42.013   0.433
54649W        W27074  25.559  33.849   4.702
54650W        W27075  23.269   3.298   3.395
54651W        W27076   3.844   2.495   2.897
54652W        W27077  18.669  29.017   4.770
54653W        W27078   0.835  43.211   0.707
54654W        W27079  23.604  21.279  13.400
54655W        W27080   7.927   2.293  13.525
54656W        W27081   6.239  41.703   4.275
54657W        W27082   5.396  12.393  10.731
54658W        W27083  19.898  42.041   4.616
54659W        W27084  18.785  33.848   3.522
54660W        W27085  14.593   9.185  14.062
54661W        W27086  44.496  12.602   4.609
54662W        W27087  22.992  38.398  10.666
54663W        W27088  16.781  36.371   4.376
54664W        W27089  12.554  27.648  13.332
54665W        W27090  14.056   0.786  12.863
54666W        W27091  29.544  24.528   3.678
54667W        W27092   3.529  18.552  12.559
54668W        W27093  19.675   5.362   0.205
54669W        W27094  19.044   9.484  12.634
54670W        W27095   5.263  22.366   4.999
54671W        W27096  29.951  22.242  12.425
54672W        W27097   3.182  40.549  13.719
54673W        W27098  22.036  23.082   1.815
54674W        W27099  41.532  13.339  11.064
54675W        W27100  29.185   9.740  12.045
54676W        W27101  13.134  12.333   3.396
54677W        W27102  34.428   8.646   2.646
54678W        W27103   5.419  18.616  10.692
54679W        W27104  29.365  24.951  12.118
54680W        W27105  41.200  16.678  13.813
54681W        W27106  40.776  37.290  13.327
54682W        W27107  42.347   1.007   4.466
54683W        W27108   0.774   5.527   3.282
54684W        W27109  33.982  23.159  12.195
54685W        W27110  28.258  44.740  11.507
54686W        W27111  14.360  29.101   4.754
54687W        W27112   2.404  32.961   0.045
54688W        W27113  13.632   2.716   2.200
54689W        W27114  37.003  24.798  10.804
54690W        W27115   6.757  17.748   2.318
54691W        W27116  34.991   6.606  14.244
54692W        W27117   6.722  33.723   2.748
54693W        W27118  34.734  34.418  13.986
54694W        W27119  33.055  34.359   1.712
54695W        W27120  40.019  30.561  13.890
54696W        W27121   5.262   8.916   0.762
54697W        W27122  12.599  36.301  13.813
54698W        W27123  17.942  38.423   0.711
54699W        W27124  11.312  11.536  14.734
54700W        W27125  33.167  38.352  14.420
54701W        W27126  38.225   0.410  12.931
54702W        W27127  32.482  26.944   1.906
54703W        W27128  21.129  16.193   5.009
54704W        W27129  37.092  43.822  14.809
54705W        W27130  11.519   4.758  13.984
54706W        W27131  20.712   6.394  14.250
54707W        W27132  40.332  42.376  13.880
54708W        W27133  32.882  16.548   0.921
54709W        W27134  29.129  25.481  12.982
54710W        W27135  44.225  12.678   2.684
54711W        W27136  35.788  37.101  14.999
54712W        W27137   3.278  20.524   4.774
54713W        W27138  20.986  34.999   3.142
54714W        W27139   9.647  23.316  14.386
54715W        W27140  24.733  35.837  11.128
54716W        W27141  41.392  37.326   2.438
54717W        W27142  17.165   1.778  10.534
54718W        W27143  22.736  43.755   2.701
54719W        W27144   1.298  38.424  12.152
54720W        W27145  35.737  26.853   4.597
54721W        W27146  37.894   4.843  12.187
54722W        W27147  18.017   9.168   0.229
54723W        W27148  18.373  16.773   4.581
54724W        W27149  16.111  41.753   4.604
54725W        W27150   3.921  39.540   2.316
54726W        W27151  38.946  40.778   3.236
54727W        W27152  12.550  40.972   2.818
54728W        W27153   4.617  44.604   5.190
54729W        W27154  35.871  15.015  14.325
54730W        W27155  27.625  22.297   4.565
54731W        W27156  30.169  41.443  10.084
54732W        W27157  38.456  39.558   3.136
54733W        W27158   0.557  28.969  14.295
54734W        W27159   0.564  30.650   9.934
54735W        W27160  44.845  30.232   2.970
54736W        W27161  37.033  32.751  11.014
54737W        W27162  12.795  35.346  14.077
54738W        W27163  33.197  11.309  13.967
54739W        W27164  26.034  10.611  13.137
54740W        W27165  23.946   9.483   4.331
54741W        W27166  32.530  13.198   2.429
54742W        W27167  37.292  16.617  14.510
54743W        W27168  39.094  15.725   4.659
54744W        W27169   8.871  24.121  11.962
54745W        W27170  41.347  10.060   5.178
54746W        W27171  20.446  33.354   2.222
54747W        W27172   7.837  34.137   1.110
54748W        W27173  36.014  20.232  13.058
54749W        W27174   2.424   1.463   3.641
54750W        W27175  39.593  43.840  11.419
54751W        W27176  42.452  33.091  12.312
54752W        W27177  30.946  41.790   2.700
54753W        W27178   3.693   2.861  11.995
54754W        W27179  38.185  42.791   5.064
54755W        W27180  43.065   2.541   2.949
54756W        W27181  43.865  42.996   2.018
54757W        W27182   3.393  26.488   1.469
54758W        W27183   1.918  20.975  14.910
54759W        W27184  32.905  37.972   0.711
54760W        W27185  36.424  10.173   3.357
54761W        W27186  23.306  34.500  14.107
54762W        W27187  22.028  17.736  13.770
54763W        W27188   9.913   2.733  13.001
54764W        W27189  14.087  35.561   2.866
54765W        W27190  40.527  20.881   3.545
54766W        W27191  16.259   7.381   1.343
54767W        W27192  41.341   3.710   1.415
54768W        W27193  14.317  30.371   2.712
54769W        W27194  34.001  39.196  13.535
54770W        W27195  39.294   6.583   1.130
54771W        W27196  14.105  33.428   3.303
54772W        W27197  41.490  29.862  13.566
54773W        W27198  24.560   5.418  14.107
54774W        W27199  28.815   3.502   4.686
54775W        W27200  16.019  41.511   2.144
54776W        W27201  10.795  22.275   0.333
54777W        W27202  25.002  17.989   4.198
54778W        W27203   6.926   1.987   1.847
54779W        W27204  19.412  28.412  10.577
54780W        W27205   6.623   6.186   4.596
54781W        W27206  29.197  34.487  11.168
54782W        W27207  21.486  36.559  11.552
54783W        W27208  28.932  18.204  14.286
54784W        W27209   4.418  33.895  10.506
54785W        W27210  41.759  18.849  11.903
54786W        W27211   3.591   5.448   4.138
54787W        W27212  33.203  35.396   2.955
54788W        W27213  37.822   4.435  12.540
54789W        W27214   1.974  37.939   3.641
54790W        W27215  43.649  28.681  11.442
54791W        W27216  16.182  23.032   2.135
54792W        W27217  13.331  29.030  10.919
54793W        W27218  26.844  18.431  13.368
54794W        W27219  32.543   4.295   4.429
54795W        W27220  21.902  37.044  14.025
54796W        W27221  38.519  39.475  10.545
54797W        W27222  33.935  35.120   0.762
54798W        W27223   6.901  12.557   4.720
54799W        W27224  38.747  39.505  14.305
54800W        W27225   4.116  41.445  14.408
54801W        W27226   9.194  33.549  13.520
54802W        W27227  21.527  23.031  10.326
54803W        W27228   9.168  17.718  13.873
54804W        W27229  15.803  14.680  12.882
54805W        W27230  20.316  34.222  12.477
54806W        W27231  28.050  31.964  14.261
54807W        W27232  29.624  27.339   0.317
54808W        W27233  21.407  40.897  11.021
54809W        W27234  14.041  34.596  12.052
54810W        W27235  40.376  41.012   3.322
54811W        W27236  27.908  18.247  14.388
54812W        W27237  29.527  41.713   2.658
54813W        W27238  33.077   2.153  12.562
54814W        W27239  13.594  27.484   3.857
54815W        W27240  15.281   9.618  11.427
54816W        W27241  43.820  34.971  11.189
54817W        W27242  12.581   2.660   2.225
54818W        W27243  30.674  30.871   2.188
54819W        W27244   4.310  28.960   2.799
54820W        W27245  44.833  19.019  14.904
54821W        W27246  29.636  21.034   0.513
54822W        W27247   1.381   6.725  14.375
54823W        W27248  15.895  38.117   4.068
54824W        W27249  40.174   4.027  14.296
54825W        W27250  43.824   1.437  10.894
54826W        W27251  31.347  43.098  12.507
54827W        W27252  19.606  44.568  13.664
54828W        W27253  28.180  29.645   4.037
54829W        W27254  42.784  13.208   3.641
54830W        W27255  11.536  18.205   4.142
54831W        W27256   0.732   9.688   0.955
54832W        W27257  13.412  15.201  10.561
54833W        W27258   1.501  26.734  12.343
54834W        W27259  15.507  19.586   2.344
54835W        W27260   3.908  28.175  14.580
54836W        W27261  16.591  28.659  12.605
54837W        W27262  38.094   4.791   1.671
54838W        W27263  29.038  10.335   1.502
54839W        W27264  16.180  19.592   1.080
54840W        W27265   5.317  38.131   3.568
54841W        W27266  14.157   4.331  11.057
54842W        W27267  43.981  34.586  10.243
54843W        W27268   5.282  43.857   0.467
54844W        W27269  44.451  15.308  13.420
54845W        W27270  44.703  39.783  12.800
54846W        W27271  27.675  35.028   0.747
54847W        W27272  12.354   1.664   0.412
54848W        W27273  29.032  20.631  14.576
54849W        W27274  26.224   3.364  11.889
54850W        W27275  43.508  39.678   2.596
54851W        W27276   1.010   4.815   3.816
54852W        W27277   3.026  15.078   3.199
54853W        W27278   2.062   8.731   0.325
54854W        W27279  31.039  20.631   1.808
54855W        W27280  12.638   0.762   0.014
54856W        W27281  12.226  20.660   3.329
54857W        W27282  41.427  24.274   0.754
54858W        W27283  17.704   9.185   1.401
54859W        W27284  31.386  11.992  12.453
54860W        W27285  12.882  32.866   3.113
54861W        W27286   2.711   5.693   1.011
54862W        W27287  28.474   0.801   0.900
54863W        W27288  25.969  21.116   2.625
54864W        W27289  20.736   9.838   9.682
54865W        W27290  19.133  42.588   3.818
54866W        W27291  38.454  36.824   0.818
54867W        W27292  14.917  23.697  12.899
54868W        W27293  32.800  41.908   2.691
54869W        W27294  39.468   2.224  14.289
54870W        W27295  25.806  37.125   0.584
54871W        W27296  20.767   3.910  10.734
54872W        W27297  42.864  34.055  13.034
54873W        W27298   6.879  16.294  14.406
54874W        W27299   2.018  41.617   4.544
54875W        W27300   6.329  41.246  11.974
54876W        W27301  36.457  22.018  12.008
54877W        W27302  11.338  28.729   0.576
54878W        W27303  44.756   4.916  13.930
54879W        W27304  22.700  40.429   4.585
54880W        W27305   2.994  30.105  10.661
54881W        W27306  44.071  13.355   4.186
54882W        W27307  18.824  22.579   5.079
54883W        W27308  39.360  39.920   3.625
54884W        W27309  10.908  21.093  10.722
54885W        W27310  41.252  37.658  14.980
54886W        W27311  20.126  37.140   1.650
54887W        W27312  36.507  42.809  12.404
54888W        W27313  38.023  21.044   2.130
54889W        W27314  39.206  27.717  12.318
54890W        W27315  31.441  25.208   0.917
54891W        W27316   1.004   1.515  10.485
54892W        W27317  13.539  26.509   3.723
54893W        W27318  14.569  35.907   0.873
54894W        W27319  44.471  28.207  12.562
54895W        W27320  35.934  36.086   0.355
54896W        W27321  25.484  18.036  13.351
54897W        W27322   9.161  37.217   3.934
54898W        W27323  15.679  44.369   1.140
54899W        W27324   0.808  10.641  12.605
54900W        W27325   6.199  42.405   2.173
54901W        W27326  37.529  12.877  14.683
54902W        W27327  27.262   9.929   5.010
54903W        W27328  21.018  29.900  13.891
54904W        W27329  32.103   3.301   2.824
54905W        W27330  33.644  38.131  12.995
54906W        W27331  10.397   3.353   3.241
54907W        W27332   8.658   8.845  13.480
54908W        W27333  43.953   0.872  14.540
54909W        W27334  29.249  34.018   3.753
54910W        W27335  29.415  16.987  10.427
54911W        W27336   8.811  19.223   2.878
54912W        W27337   3.700  39.331   1.882
54913W        W27338   1.975  35.894   1.743
54914W        W27339  25.562  44.431   0.834
54915W        W27340  31.087  20.754  14.298
54916W        W27341  20.173  26.086  12.503
54917W        W27342   4.854  19.215  11.019
54918W        W27343  24.491  37.653   3.267
54919W        W27344  12.502  43.473   2.012
54920W        W27345  27.237  17.048   3.820
54921W        W27346  10.247   8.758  14.299
54922W        W27347  44.437   7.463  10.656
54923W        W27348  38.361  13.893   0.797
54924W        W27349  15.326  13.407   0.867
54925W        W27350  42.261  13.216   2.312
54926W        W27351  32.422  17.166  13.314
54927W        W27352  17.598  20.152   0.496
54928W        W27353   0.405   4.930   2.406
54929W        W27354  38.599  10.712   0.696
54930W        W27355  41.264  10.197   2.413
54931W        W27356  23.395   8.861   4.207
54932W        W27357  15.160  17.315   3.136
54933W        W27358  42.552   1.148  13.524
54934W        W27359  37.799  38.853  12.798
54935W        W27360   2.192  25.450  13.944
54936W        W27361  24.388  21.689  13.994
54937W        W27362   0.488  24.880   3.843
54938W        W27363  19.686  13.649   3.790
54939W        W27364  24.174   0.221   2.010
54940W        W27365  22.101  43.287   3.812
54941W        W27366  26.174  21.571   3.553
54942W        W27367  41.070  36.427  14.275
54943W        W27368   2.302  11.921   4.169
54944W        W27369  41.446  38.503  12.160
54945W        W27370   1.438  35.454  11.148
54946W        W27371  38.929   8.593   5.019
54947W        W27372   1.915   2.283  10.711
54948W        W27373  37.089   0.850  12.216
54949W        W27374  44.959  41.308   1.483
54950W        W27375  17.228  41.291   3.598
54951W        W27376  15.579  25.722   2.178
54952W        W27377   0.695  19.174   2.133
54953W        W27378  15.739  31.538   1.669
54954W        W27379  18.312  26.690  11.448
54955W        W27380  19.852  10.826   3.162
54956W        W27381  20.919  16.023   2.856
54957W        W27382  38.893   7.172  13.541
54958W        W27383  43.902  40.828  12.361
54959W        W27384   1.465  29.132  14.780
54960W        W27385   4.906  32.160   0.386
54961W        W27386  23.155  42.700  14.551
54962W        W27387  22.608  26.639  12.047
54963W        W27388  24.928  10.917   0.385
54964W        W27389   7.393  18.067   4.764
54965W        W27390  22.695   5.261   3.724
54966W        W27391  17.137  27.376  14.634
54967W        W27392   9.226  14.650   4.169
54968W        W27393  12.210   9.889   1.822
54969W        W27394  27.105  28.891   1.333
54970W        W27395  31.953   0.245   3.328
54971W        W27396  37.158  10.156  11.130
54972W        W27397   6.827  36.893  14.817
54973W        W27398  30.579  34.965   2.814
54974W        W27399   5.777  21.530  13.959
54975W        W27400  41.550   8.791  12.172
54976W        W27401   7.429  30.259   3.177
54977W        W27402  26.227  30.400  12.997
54978W        W27403   9.275  10.832   1.729
54979W        W27404  18.856  27.575  14.368
54980W        W27405  18.762  11.567   5.051
54981W        W27406  37.340  18.534   0.049
54982W        W27407   6.422  33.670   5.512
54983W        W27408  31.503  44.605  11.963
54984W        W27409  41.282  22.043   2.875
54985W        W27410  15.714  37.114  12.069
54986W        W27411  37.161   8.190   0.475
54987W        W27412  18.396   6.269  11.915
54988W        W27413   8.859  28.692   0.071
54989W        W27414  40.803   9.224   0.734
54990W        W27415   9.467  27.380  11.690
54991W        W27416  43.824  32.079   3.680
54992W        W27417  32.808  23.505   3.749
54993W        W27418  32.940   5.770   2.711
54994W        W27419  35.953  21.722   3.290
54995W        W27420  22.172  22.775   2.793
54996W        W27421  26.567  31.438  11.558
54997W        W27422  27.423  32.529  12.580
54998W        W27423  18.709   8.503  11.456
54999W        W27424  36.399  25.494  13.008
55000W        W27425  25.665   5.849   4.831
55001W        W27426  44.996   4.611   2.336
55002W        W27427  10.886  16.317  10.634
55003W        W27428  38.399  17.300  14.709
55004W        W27429  10.187  16.679   1.659
55005W        W27430  11.639  38.967   2.745
55006W        W27431  10.023  14.956   0.531
55007W        W27432  21.766  40.975   3.739
55008W        W27433  16.110  15.139   0.808
55009W        W27434  33.151  27.465   1.395
55010W        W27435   2.246   4.412  12.889
55011W        W27436  32.051   8.717   0.862
55012W        W27437  37.100  41.998   3.776
55013W        W27438  11.920  43.270   0.679
55014W        W27439  30.946  25.266   3.214
55015W        W27440  40.884  42.282   0.020
55016W        W27441  14.278  21.235  10.596
55017W        W27442  40.504  22.277   4.623
55018W        W27443  13.482   9.702   0.452
55019W        W27444  26.019  37.870  14.863
55020W        W27445  41.009  19.553   0.814
55021W        W27446   5.568  22.014  10.671
55022W        W27447  18.125  29.378   2.940
55023W        W27448  30.501  40.472  11.910
55024W        W27449  14.126  37.943   0.932
55025W        W27450   4.218  21.647  14.932
55026W        W27451  33.939   1.809   1.398
55027W        W27452  26.371   2.986   3.345
55028W        W27453  32.328  33.064   4.497
55029W        W27454  29.963  41.869   2.444
55030W        W27455  16.244  15.842  11.965
55031W        W27456  23.602  15.878   0.948
55032W        W27457  44.355  26.096  11.985
55033W        W27458  37.842  40.125  14.364
55034W        W27459  14.154  20.710  13.541
55035W        W27460  28.001  12.379   3.762
55036W        W27461  33.360  19.718   1.801
55037W        W27462   6.420  44.919  12.638
55038W        W27463  29.886  35.895   2.787
55039W        W27464  25.011  43.333  13.458
55040W        W27465   5.027  40.696  13.789
55041W        W27466  14.119  28.566   3.320
55042W        W27467   5.585  21.944   2.258
55043W        W27468  14.716  22.698   1.075
55044W        W27469  12.149  20.553  14.289
55045W        W27470  25.262  22.494  13.497
55046W        W27471  15.618  19.840   0.851
55047W        W27472  43.220  39.989   0.355
55048W        W27473  20.247  27.566  11.952
55049W        W27474  37.448  23.037   2.299
55050W        W27475   3.886  10.871  11.571
55051W        W27476  30.611  25.980  10.399
55052W        W27477  15.641  18.166   0.338
55053W        W27478  27.624  13.086  13.012
55054W        W27479  29.936   1.041   0.870
55055W        W27480   5.340   4.081   0.963
55056W        W27481   1.304  41.612   0.712
55057W        W27482   9.298  39.289  12.012
55058W        W27483  15.730   4.699   5.008
55059W        W27484   1.528   7.399   0.896
55060W        W27485   1.717  42.321  13.897
55061W        W27486  31.576   1.073   2.149
55062W        W27487  37.600  17.098  13.528
55063W        W27488  14.871  34.238   2.778
55064W        W27489  16.266  35.505  14.828
55065W        W27490  35.550   8.776  11.536
55066W        W27491  27.484  17.261   3.248
55067W        W27492   8.368  44.027   1.274
55068W        W27493  37.724  44.161  10.165
55069W        W27494  21.736  37.872   4.314
55070W        W27495  39.107  12.834  11.132
55071W        W27496   9.746  40.837   1.630
55072W        W27497  43.485  28.881  11.905
55073W        W27498  21.842  15.147   4.546
55074W        W27499   4.625  25.085   2.583
55075W        W27500  28.370  31.706   1.316
55076W        W27501  28.577  10.247  12.852
55077W        W27502  42.403  25.940   0.499
55078W        W27503  17.731   2.066  10.612
55079W        W27504  21.138   1.449  10.806
55080W        W27505  29.947  30.843  11.836
55081W        W27506  24.550   0.210   0.352
55082W        W27507   9.835  25.054   3.700
55083W        W27508   7.788  32.512  14.720
55084W        W27509  35.387  26.034   4.824
55085W        W27510  36.519  20.773  14.866
55086W        W27511  26.244  44.543   4.617
55087W        W27512  40.607   1.851   0.297
55088W        W27513  20.970   3.159   2.709
55089W        W27514  23.243  10.301   0.704
55090W        W27515  20.647  36.375   0.717
55091W        W27516  15.167  18.818   0.793
55092W        W27517  41.844  32.844   2.226
55093W        W27518   1.316  38.808   1.731
55094W        W27519   3.240   9.876  14.787
55095W        W27520  16.759  24.732   0.902
55096W        W27521  24.331  38.339   0.500
55097W        W27522  39.410  30.973  12.159
55098W        W27523  26.959  40.054  14.684
55099W        W27524  34.374  39.885  12.055
55100W        W27525  37.433   4.261  11.603
55101W        W27526   0.790   8.254   2.883
55102W        W27527  42.046  40.208  13.560
55103W        W27528  27.075  17.395  12.901
55104W        W27529  44.883   0.016  12.658
55105W        W27530   5.195  18.140  10.771
55106W        W27531  41.786   5.860   2.537
55107W        W27532   8.590  37.590   4.681
55108W        W27533  32.186  42.059   1.827
55109W        W27534   0.869  22.933   4.317
55110W        W27535  13.506   8.106  13.748
55111W        W27536  13.422  12.725   0.806
55112W        W27537  34.840  14.461  12.918
55113W        W27538  11.893  20.117   3.579
55114W        W27539  20.026   6.471   0.796
55115W        W27540  19.054   2.844  10.587
55116W        W27541  32.900  25.259  11.072
55117W        W27542   5.462  13.581   1.792
55118W        W27543  37.436  17.018  11.897
55119W        W27544  19.250  21.443  14.856
55120W        W27545  39.348   1.180   2.183
55121W        W27546  38.807  19.799  11.683
55122W        W27547  27.981  31.412   0.450
55123W        W27548  29.555   8.171   4.540
55124W        W27549  13.866  12.698   3.238
55125W        W27550  17.827  31.699   9.813
55126W        W27551  24.747  21.046  10.587
55127W        W27552  24.995  11.822   0.819
55128W        W27553  38.435  15.248   0.284
55129W        W27554  10.207  29.548  13.963
55130W        W27555  27.896   9.824  10.734
55131W        W27556   0.866  17.035   2.408
55132W        W27557  24.740  35.338  12.985
55133W        W27558  25.651  32.990  13.555
55134W        W27559  29.531  32.566  10.676
55135W        W27560  43.281  27.270   2.223
55136W        W27561  17.473  28.231   5.044
55137W        W27562   2.783  36.624   2.087
55138W        W27563  37.957  43.589   0.776
55139W        W27564  14.673  42.287  12.135
55140W        W27565   8.027  29.390   0.240
55141W        W27566  15.095  19.333  14.848
55142W        W27567   5.154  33.134   4.418
55143W        W27568  10.215  30.476   3.250
55144W        W27569  25.734  17.877   0.287
55145W        W27570   4.925   6.173   2.357
55146W        W27571  25.438   1.366   3.338
55147W        W27572  10.222  41.906   3.630
55148W        W27573  10.214  37.589  10.964
55149W        W27574   2.426  30.944  11.702
55150W        W27575   0.081  27.627  12.821
55151W        W27576  41.097  20.817   3.211
55152W        W27577  11.984  35.001  14.099
55153W        W27578  39.417  26.247  11.464
55154W        W27579  22.002   7.715   2.924
55155W        W27580  39.936  42.543   2.554
55156W        W27581  22.236   9.981   4.239
55157W        W27582  38.214  34.838  14.056
55158W        W27583  32.714  18.496  13.533
55159W        W27584   6.154  31.083  13.565
55160W        W27585  42.191  39.058  13.775
55161W        W27586   6.554  19.471  11.102
55162W        W27587  41.548  32.984  12.417
55163W        W27588  29.528  30.058   3.173
55164W        W27589  44.724  32.043  11.970
55165W        W27590  17.460  17.171  12.751
55166W        W27591  39.473  34.540   3.243
55167W        W27592  30.077  16.843   0.266
55168W        W27593  33.850  25.743   2.676
55169W        W27594   0.293  25.396  12.569
55170W        W27595  35.844  21.398  12.307
55171W        W27596  27.074  42.010   0.350
55172W        W27597  11.274  32.625  11.618
55173W        W27598   1.034  27.111  13.364
55174W        W27599  39.674  25.557   0.393
55175W        W27600   8.109   6.189  13.398
55176W        W27601   1.510  10.636   3.193
55177W        W27602   2.915  27.711   1.751
55178W        W27603   5.717  17.313  11.526
55179W        W27604  15.326   1.380  13.554
55180W        W27605   6.386  29.992   3.140
55181W        W27606  21.028   7.297  11.239
55182W        W27607   8.802   3.242   1.279
55183W        W27608  41.934   5.960   0.321
55184W        W27609  37.119   9.372  13.676
55185W        W27610   8.401   6.760  12.471
55186W        W27611  28.036   6.279  10.744
55187W        W27612  21.995  44.075  11.029
55188W        W27613  42.830  32.605  10.231
55189W        W27614   5.555  42.844   4.066
55190W        W27615  26.996  17.331  13.859
55191W        W27616  31.731  14.739  14.727
55192W        W27617  41.703  20.035  10.632
55193W        W27618  19.744   9.960   3.686
55194W        W27619  38.209  24.662   4.110
55195W        W27620  20.800  16.099   1.932
55196W        W27621  44.058  30.709  10.210
55197W        W27622   5.724  24.964   0.797
55198W        W27623  28.560  17.844  12.356
55199W        W27624  38.777  39.820   2.823
55200W        W27625  31.935  26.213  10.968
55201W        W27626  22.426  40.550   2.392
55202W        W27627   6.781  40.017  11.057
55203W        W27628  39.720  42.328  10.852
55204W        W27629  40.565   6.907  14.951
55205W        W27630   7.260  32.203   3.285
55206W        W27631  36.105  18.754   3.345
55207W        W27632   3.258  16.681  12.976
55208W        W27633  12.396   9.630   0.673
55209W        W27634   4.737   3.620   3.072
55210W        W27635  36.860  37.157   1.308
55211W        W27636  16.141  27.041   1.042
55212W        W27637  36.967  22.047  12.139
55213W        W27638  38.890  40.928   3.751
55214W        W27639  26.002   8.766   2.617
55215W        W27640  18.968  43.436  11.432
55216W        W27641   3.464  34.995  13.475
55217W        W27642  33.026  13.382   4.148
55218W        W27643  15.123  16.070   0.714
55219W        W27644  20.213  23.565  12.406
55220W        W27645  15.074   3.312   3.730
55221W        W27646  19.162  13.857  14.271
55222W        W27647  28.333  18.752   2.262
55223W        W27648  36.405  29.182   3.831
55224W        W27649   2.893  34.925   0.257
55225W        W27650  34.133  31.537  14.328
55226W        W27651  12.686  37.777  14.860
55227W        W27652  37.833   9.061  12.835
55228W        W27653   6.400  33.183   3.356
55229W        W27654  23.744  30.942  13.449
55230W        W27655  11.118  37.347  10.941
55231W        W27656  29.515   5.010  13.483
55232W        W27657  22.005  20.625   4.813
55233W        W27658  10.313   2.293   4.217
55234W        W27659  20.510  12.197  14.895
55235W        W27660  10.873  34.057   3.353
55236W        W27661  17.721   5.801  10.402
55237W        W27662  16.116  29.929   4.104
55238W        W27663   7.253  19.964  12.144
55239W        W27664  21.077  38.369   3.327
55240W        W27665  22.498   5.777   1.868
55241W        W27666   6.480  33.050  14.603
55242W        W27667  15.737  39.471   4.246
55243W        W27668  36.104  40.173   0.516
55244W        W27669  21.030  17.043   4.518
55245W        W27670  16.758  41.908  14.842
55246W        W27671  30.564  12.415  13.367
55247W        W27672  18.208  18.018   1.084
55248W        W27673  17.847  41.557   1.811
55249W        W27674  37.991  20.564  13.987
55250W        W27675  24.021   9.093   0.463
55251W        W27676  15.668  15.700   4.526
55252W        W27677  40.900  21.549  10.677
55253W        W27678   7.768  36.107  14.406
55254W        W27679   5.182  31.610   2.679
55255W        W27680   7.682   5.761  10.661
55256W        W27681  30.827  12.896  12.510
55257W        W27682  23.369   4.236  11.651
55258W        W27683   3.835   4.662   0.755
55259W        W27684  39.984  38.843  13.374
55260W        W27685  43.888  39.085   2.377
55261W        W27686   9.534  24.728   1.340
55262W        W27687  35.055  28.479   3.384
55263W        W27688  31.878  40.788  13.877
55264W        W27689  18.569  30.592   1.437
55265W        W27690  28.878  20.449  10.011
55266W        W27691  42.598  28.649   0.927
55267W        W27692   4.513  24.650   2.874
55268W        W27693  32.959  44.725  12.099
55269W        W27694   0.307  17.186   4.585
55270W        W27695  32.380  30.551  11.103
55271W        W27696  40.384  36.257  11.969
55272W        W27697  30.828   1.753   1.054
55273W        W27698  12.148  22.981  12.926
55274W        W27699   2.130  17.982   1.304
55275W        W27700  25.203  14.210  14.755
55276W        W27701  33.631  18.202  12.727
55277W        W27702  41.358  44.627   2.383
55278W        W27703   6.160   1.282  11.488
55279W        W27704  41.910  15.325  11.491
55280W        W27705  41.573   7.726   4.977
55281W        W27706  16.102  23.921   4.174
55282W        W27707  23.059  26.351   0.879
55283W        W27708  42.524  26.884   1.302
55284W        W27709   6.032  22.539  12.915
55285W        W27710   9.171   7.768  14.297
55286W        W27711  13.285  15.976  10.974
55287W        W27712   2.434  26.402   5.001
55288W        W27713  40.055  43.564  13.376
55289W        W27714  44.834   4.991   0.377
55290W        W27715   4.785  19.230  11.965
55291W        W27716  35.585  17.950  14.911
55292W        W27717  28.629   1.234   4.275
55293W        W27718  10.260  37.649   9.591
55294W        W27719  41.727   2.259   3.862
55295W        W27720   8.810  31.943   0.704
55296W        W27721  28.509   5.394   2.280
55297W        W27722  42.960  37.584  13.578
55298W        W27723  43.955  21.563  12.406
55299W        W27724  24.973  25.984  14.923
55300W        W27725   2.871   4.501   2.714
55301W        W27726   3.885  38.843   1.808
55302W        W27727  34.326   4.323  12.380
55303W        W27728   2.944  33.993  11.870
55304W        W27729  34.393   1.177   0.734
55305W        W27730   8.110  24.110  12.599
55306W        W27731  41.547  44.256  13.456
55307W        W27732  14.842  13.849  11.853
55308W        W27733   6.273  28.048   2.973
55309W        W27734   6.445  16.127   4.020
55310W        W27735  15.272  14.171  14.532
55311W        W27736  15.954  31.091   4.232
55312W        W27737   8.193  38.596   3.856
55313W        W27738  23.503  17.126   1.847
55314W        W27739  17.486  38.945   4.107
55315W        W27740  34.366  21.645  13.164
55316W        W27741  21.394  21.539  12.947
55317W        W27742  43.515  37.977   1.265
55318W        W27743  11.207   6.715  14.304
55319W        W27744  20.754  41.489  14.755
55320W        W27745  11.637   7.376  12.629
55321W        W27746   6.126   6.946   3.887
55322W        W27747  30.167  11.683  13.576
55323W        W27748   3.980  15.864   3.472
55324W        W27749  18.005   7.671  11.913
55325W        W27750  28.810  41.877   3.737
55326W        W27751  17.549  40.091  13.232
55327W        W27752  13.670  11.785  11.607
55328W        W27753  15.334  43.215  11.537
55329W        W27754  33.554  38.743   3.315
55330W        W27755  26.449  30.628  10.759
55331W        W27756  10.237  11.248   3.939
55332W        W27757  31.691  41.074   4.142
55333W        W27758   1.027  10.117   4.203
55334W        W27759  23.609  37.549   4.195
55335W        W27760  28.194  32.541   4.604
55336W        W27761   3.816  44.921   1.369
55337W        W27762  15.267   8.047   0.237
55338W        W27763  11.740  25.696  13.725
55339W        W27764  25.701  10.235  13.027
55340W        W27765  22.795  36.509  12.043
55341W        W27766  35.590  36.797  13.492
55342W        W27767  36.107  33.989   3.617
55343W        W27768  29.449  40.135  14.966
55344W        W27769   7.429  13.123  10.682
55345W        W27770  38.609  15.894  10.084
55346W        W27771  42.472   7.860  12.612
55347W        W27772  26.619  22.142   3.151
55348W        W27773  43.052  24.558  12.088
55349W        W27774  25.712  20.310   1.817
55350W        W27775   5.802   0.374  11.523
55351W        W27776  44.968  23.012  14.885
55352W        W27777  24.446  32.662  11.471
55353W        W27778  11.855  38.058   0.691
55354W        W27779  15.133  37.497  11.890
55355W        W27780  34.798   0.983   1.663
55356W        W27781  41.408  31.916   2.270
55357W        W27782  30.974  25.730  10.685
55358W        W27783   3.867  12.632   1.304
55359W        W27784  16.978  31.637   3.149
55360W        W27785  43.075  35.772  10.742
55361W        W27786   4.415  19.851   4.415
55362W        W27787   1.712  37.519  11.617
55363W        W27788  44.162  14.789  13.882
55364W        W27789   9.439   9.719   3.955
55365W        W27790  40.601  35.165  14.353
55366W        W27791  39.527   2.702   0.201
55367W        W27792  39.227  18.218  11.618
55368W        W27793  35.167   1.862   0.144
55369W        W27794  19.846  26.688   1.031
55370W        W27795  22.447  15.071  14.009
55371W        W27796  43.563  28.401   3.316
55372W        W27797   1.837   6.142  11.953
55373W        W27798  29.570  18.127   3.280
55374W        W27799  13.228  10.110   0.798
55375W        W27800  38.475   5.759  13.470
55376W        W27801  40.530  11.000   4.606
55377W        W27802  34.555  15.691   4.699
55378W        W27803  32.891  29.424   3.711
55379W        W27804  22.181  37.793   1.376
55380W        W27805  10.743   6.245  11.077
55381W        W27806   9.699   7.830   4.179
55382W        W27807  21.131  42.299  13.394
55383W        W27808  32.482  25.945   1.362
55384W        W27809  35.136  14.412   3.113
55385W        W27810  26.180  12.853   2.929
55386W        W27811  34.115  42.605  14.265
55387W        W27812  31.693  22.947   9.617
55388W        W27813  32.942  31.674  12.075
55389W        W27814  18.097  39.944  12.430
55390W        W27815  28.593  35.946   0.923
55391W        W27816  12.071  15.799   4.728
55392W        W27817  13.658  41.512   1.501
55393W        W27818  18.322   6.918   1.002
55394W        W27819   1.008  35.756  11.137
55395W        W27820  43.741  39.964  13.863
55396W        W27821  31.687  16.192   2.888
55397W        W27822   3.423   1.243  12.025
55398W        W27823   2.209  10.550  13.735
55399W        W27824  24.291  36.994  11.976
55400W        W27825  11.253  12.563  14.816
55401W        W27826   5.939  24.022  11.131
55402W        W27827  37.037  28.029  14.335
55403W        W27828  35.876  29.490  12.821
55404W        W27829  13.139   9.187   2.630
55405W        W27830  43.912   6.621   1.845
55406W        W27831  22.149   9.173  13.048
55407W        W27832  14.626  18.044   2.411
55408W        W27833  14.567  24.566   4.769
55409W        W27834  41.831  13.891   0.493
55410W        W27835  23.271  44.027  10.777
55411W        W27836  43.513  10.916  11.960
55412W        W27837  16.153  20.941   0.428
55413W        W27838  23.587  23.458   1.847
55414W        W27839   7.217   6.620   2.694
55415W        W27840   8.755  14.717   1.753
55416W        W27841  43.563  15.019   4.120
55417W        W27842  23.995   1.949  12.004
55418W        W27843   5.476  22.673  13.797
55419W        W27844   8.360  30.064  12.999
55420W        W27845   2.350  36.346   1.878
55421W        W27846   3.899   8.127  11.410
55422W        W27847  35.471  36.361   4.036
55423W        W27848  29.131  23.304   4.330
55424W        W27849  15.307  26.610  14.793
55425W        W27850   1.943   2.409   2.739
55426W        W27851  28.519  34.349   4.964
55427W        W27852  41.846   2.680   0.758
55428W        W27853  17.572   2.069   3.338
55429W        W27854  36.226  41.500   4.503
55430W        W27855  12.274  24.040   1.762
55431W        W27856  22.781   1.427  14.163
55432W        W27857  22.227  31.688   0.227
55433W        W27858   3.676   2.985  12.579
55434W        W27859  36.983  22.460  14.811
55435W        W27860  20.098  15.344   2.749
55436W        W27861  37.554   2.154   2.911
55437W        W27862  26.512  26.070   2.399
55438W        W27863   7.792  16.240  12.984
55439W        W27864  19.081   1.426   2.758
55440W        W27865  43.784  27.509   3.423
55441W        W27866  25.664  32.019  12.472
55442W        W27867   6.168  15.626  11.646
55443W        W27868   6.214   0.671  13.571
55444W        W27869   9.736   8.791   4.703
55445W        W27870  40.372  39.320  11.555
55446W        W27871  39.055  26.063   1.256
55447W        W27872  34.143   7.401  12.176
55448W        W27873  36.047  40.299  12.108
55449W        W27874  10.223  30.425  11.487
55450W        W27875  39.226   1.624   3.109
55451W        W27876  40.409  12.173   0.364
55452W        W27877  41.767  30.423  11.057
55453W        W27878  43.046  13.781  10.372
55454W        W27879   6.960  15.146   1.550
55455W        W27880  25.954  43.659   2.918
55456W        W27881  15.578  41.800  12.972
55457W        W27882  25.575  39.729  10.252
55458W        W27883  39.129  34.714   4.701
55459W        W27884  29.485  37.878   3.024
55460W        W27885  35.455  29.699   0.946
55461W        W27886   5.670  30.626   0.829
55462W        W27887  22.175  42.538  10.596
55463W        W27888  26.675  31.524   4.033
55464W        W27889  35.217   6.282  11.935
55465W        W27890  40.180  25.539   0.433
55466W        W27891   2.992  10.884  12.803
55467W        W27892  20.829   1.945   0.370
55468W        W27893  38.880   2.832  11.453
55469W        W27894  15.339  11.368   0.851
55470W        W27895  27.496   5.738   1.524
55471W        W27896  23.797   3.613  13.861
55472W        W27897  24.128   7.073  11.434
55473W        W27898  30.061  28.128  14.775
55474W        W27899   6.687  28.488   0.660
55475W        W27900  18.838  37.342  13.913
55476W        W27901  17.499  12.778   2.440
55477W        W27902  11.057  27.053  14.756
55478W        W27903   6.218   9.112   2.852
55479W        W27904  15.211  32.476  11.896
55480W        W27905  12.136  41.722   0.907
55481W        W27906   0.584  38.393  10.660
55482W        W27907  44.453  16.058   0.048
55483W        W27908   9.924  43.074  12.395
55484W        W27909  10.339  30.724   0.911
55485W        W27910  29.747  40.499   2.879
55486W        W27911  12.589  36.991   0.904
55487W        W27912  13.631  25.773  11.862
55488W        W27913   2.822  31.185   2.038
55489W        W27914   2.309  36.061  12.826
55490W        W27915   5.909   4.129  11.865
55491W        W27916   9.666  26.213   4.299
55492W        W27917  35.139  33.807   3.723
55493W        W27918  27.685   0.561   3.212
55494W        W27919  27.463   4.211  11.252
55495W        W27920  24.704  39.940  12.408
55496W        W27921  25.125  40.711   0.060
55497W        W27922  40.546  34.472   3.537
55498W        W27923  24.275  43.470   1.809
55499W        W27924  35.424   7.910   4.200
55500W        W27925   1.793   9.615   2.915
55501W        W27926  24.828  44.250   3.703
55502W        W27927   5.859  10.781  13.934
55503W        W27928  22.830  32.770   1.304
55504W        W27929  19.057   3.245   0.833
55505W        W27930   2.885   6.167   4.340
55506W        W27931  22.977  16.869   3.308
55507W        W27932  25.013   9.830  14.889
55508W        W27933  42.503  22.543   2.846
55509W        W27934  14.087  44.659   3.169
55510W        W27935  13.726  16.127  13.099
55511W        W27936  29.672   0.472   0.443
55512W        W27937  12.676   1.853  11.530
55513W        W27938   5.948   4.719   0.780
55514W        W27939  18.565   0.446   2.481
55515W        W27940  37.898  40.374  13.919
55516W        W27941  30.868  13.315  13.032
55517W        W27942  33.552  19.998  10.866
55518W        W27943   1.163  33.423  13.126
55519W        W27944  39.897   9.109  10.729
55520W        W27945  39.048  14.892   4.220
55521W        W27946  34.590  29.508   0.980
55522W        W27947   9.144  34.419  11.938
55523W        W27948  42.370  17.714   0.833
55524W        W27949   6.531  17.651  14.301
55525W        W27950  13.723  18.058   2.263
55526W        W27951  33.959  30.634   1.933
55527W        W27952   0.396  10.583   1.419
55528W        W27953  11.156  41.995  12.333
55529W        W27954  11.662  32.561  14.421
55530W        W27955  19.277  40.447  12.411
55531W        W27956   1.305  18.618   4.661
55532W        W27957  32.721  27.416  11.835
55533W        W27958  14.075   2.962  14.018
55534W        W27959  15.850  19.271   3.213
55535W        W27960  20.160  17.506  12.874
55536W        W27961   3.228  35.087  13.929
55537W        W27962  22.597  19.507  11.589
55538W        W27963  42.059   8.834  13.973
55539W        W27964  28.860  35.404  13.094
55540W        W27965   5.750  32.603  12.878
55541W        W27966  25.169  42.808   3.965
55542W        W27967   8.332  18.705  13.471
55543W        W27968  43.070   2.317  12.305
55544W        W27969  34.324  12.341   3.644
55545W        W27970  30.021  20.020  14.120
55546W        W27971  32.691   7.933   4.235
55547W        W27972  16.783  18.788  10.996
55548W        W27973  17.122  15.326   5.648
55549W        W27974  43.810  35.248  11.623
55550W        W27975  16.183  11.500   3.934
55551W        W27976  27.212  22.274   0.797
55552W        W27977  35.866  19.380   1.113
55553W        W27978   2.299  20.476  10.937
55554W        W27979   8.194  18.108  10.678
55555W        W27980  32.016  10.833  14.596
55556W        W27981  35.272  43.185  12.933
55557W        W27982   7.366  44.817   2.582
55558W        W27983   8.711  20.771   3.228
55559W        W27984  17.226  11.260  10.097
55560W        W27985   6.803  11.378   4.333
55561W        W27986  28.258   6.897   2.370
55562W        W27987  35.884  14.169   0.755
55563W        W27988   4.211  40.509   4.779
55564W        W27989  30.133  25.651   3.864
55565W        W27990   2.533   8.196   4.769
55566W        W27991  26.609  24.664   1.246
55567W        W27992  41.058  32.291  11.955
55568W        W27993  33.916  26.139  11.502
55569W        W27994  12.655  22.251   5.480
55570W        W27995  17.314   8.725   2.266
55571W        W27996   7.381  31.038  14.469
55572W        W27997   1.209  42.367  13.904
55573W        W27998  38.561  33.920   4.459
55574W        W27999  21.211  16.830  11.677
55575W        W28000  32.788  43.824   0.799
55576W        W28001  11.919  33.917  14.199
55577W        W28002  28.043  14.082   1.839
55578W        W28003  32.087   4.793  12.603
55579W        W28004   8.374  39.668   2.249
55580W        W28005  26.443   6.791   1.851
55581W        W28006   1.825  43.549   2.673
55582W        W28007  20.164  27.521  12.473
55583W        W28008   6.919  32.101   0.169
55584W        W28009  42.442   7.326   0.873
55585W        W28010  12.703  12.807   4.661
55586W        W28011  15.162   1.077  10.846
55587W        W28012   7.853  42.886   0.039
55588W        W28013   8.699  33.534  14.373
55589W        W28014   0.528  22.986   2.645
55590W        W28015   0.709   3.185   1.430
55591W        W28016  16.278  31.919   9.763
55592W        W28017  22.888   0.217   0.687
55593W        W28018  44.241  39.355  10.984
55594W        W28019  43.974  37.925  12.829
55595W        W28020  11.746  11.884  11.558
55596W        W28021  40.521  44.961  10.645
55597W        W28022  38.114  23.202  14.776
55598W        W28023  27.191   8.813  10.789
55599W        W28024   6.376  11.734   0.252
55600W        W28025  11.625   3.272  10.650
55601W        W28026   9.063  40.959   0.593
55602W        W28027   5.015  23.626   4.837
55603W        W28028   0.992   8.987   1.889
55604W        W28029  25.942  23.648  14.755
55605W        W28030  17.049  19.944   3.191
55606W        W28031  12.745   2.302  10.631
55607W        W28032  20.200  42.456  13.910
55608W        W28033  27.945  35.050  11.593
55609W        W28034  20.359  30.370  14.869
55610W        W28035  21.943   4.418  14.687
55611W        W28036  36.314  14.157   2.896
55612W        W28037   1.908   8.894   4.875
55613W        W28038   4.004  32.202  12.918
55614W        W28039  12.662  42.033  14.202
55615W        W28040  29.141  27.094  10.722
55616W        W28041  38.605   1.226   0.507
55617W        W28042  23.541  32.353   3.769
55618W        W28043  15.985   6.802   2.186
55619W        W28044  21.595  43.345  13.769
55620W        W28045  16.506  26.923  12.318
55621W        W28046  14.818  37.333  12.462
55622W        W28047  17.845  28.410  11.997
55623W        W28048  23.096  20.399   4.268
55624W        W28049   2.958  13.468   3.659
55625W        W28050  18.630  39.859  10.753
55626W        W28051   4.619  19.105   2.403
55627W        W28052  37.930  17.495  13.952
55628W        W28053   8.552  21.585  10.584
55629W        W28054  21.505  43.909   1.467
55630W        W28055   2.371   5.850  11.715
55631W        W28056  11.650  12.202   1.250
55632W        W28057  18.560   6.269  12.517
55633W        W28058  27.888   9.628   4.402
55634W        W28059   2.205  35.351   4.107
55635W        W28060  43.155  10.448  12.817
55636W        W28061   2.356  13.185   2.781
55637W        W28062  37.364  23.662  13.937
55638W        W28063  23.807  19.310   3.201
55639W        W28064  41.522  14.636  13.355
55640W        W28065   9.619  30.971   3.923
55641W        W28066  29.642  13.128   5.061
55642W        W28067  43.375  32.176  14.442
55643W        W28068  17.783  41.028   1.832
55644W        W28069  22.097  30.923  11.906
55645W        W28070  30.127  31.594   1.352
55646W        W28071  39.979  10.670   2.331
55647W        W28072   9.911  40.938  13.554
55648W        W28073   6.892  41.330  13.900
55649W        W28074   5.317  17.615  11.604
55650W        W28075  35.328  34.065  11.393
55651W        W28076  43.544  42.997  11.982
55652W        W28077  41.430  30.114  11.639
55653W        W28078   7.908  11.723   4.530
55654W        W28079  23.708   0.373  12.490
55655W        W28080  33.036   6.972   0.301
55656W        W28081  20.360   4.900   0.896
55657W        W28082   1.517  11.168   3.212
55658W        W28083  40.560  17.800   4.157
55659W        W28084  43.963  35.560  14.471
55660W        W28085  26.377  11.494   4.801
55661W        W28086  37.609  23.147  14.947
55662W        W28087  20.088  19.500   4.753
55663W        W28088  41.261  23.497   4.089
55664W        W28089  30.912   9.259   3.349
55665W        W28090  26.049  15.351   4.923
55666W        W28091  10.263  10.357   2.587
55667W        W28092  13.802  22.143  13.468
55668W        W28093   7.835  27.511   0.449
55669W        W28094   3.788  40.963  10.774
55670W        W28095   4.905  34.332  11.260
55671W        W28096  13.724  38.430  11.045
55672W        W28097  43.690  39.332  11.674
55673W        W28098  35.838   3.840  10.630
55674W        W28099   1.028  25.250  11.203
55675W        W28100  22.717  11.092   0.795
55676W        W28101  21.042  26.563   0.327
55677W        W28102  28.553  41.590   2.772
55678W        W28103  14.332  17.891  11.248
55679W        W28104   1.189  14.861   1.506
55680W        W28105  40.406  42.039  12.091
55681W        W28106  16.742  29.553   3.199
55682W        W28107  22.220  18.146   0.362
55683W        W28108  10.779   9.311   3.676
55684W        W28109  37.842  36.411  11.474
55685W        W28110  40.977  43.101   0.411
55686W        W28111  33.685  11.116   4.157
55687W        W28112  25.028  13.654   4.383
55688W        W28113   1.707  44.892  11.218
55689W        W28114  17.507   1.020   1.827
55690W        W28115  27.892  23.779  14.528
55691W        W28116  36.291  10.202  11.451
55692W        W28117  33.869  39.604   0.296
55693W        W28118  17.369   6.414   2.250
55694W        W28119  38.531  39.273   1.738
55695W        W28120  22.130  15.154   1.645
55696W        W28121  18.819  27.591  11.594
55697W        W28122  43.961  37.288  10.576
55698W        W28123  22.176   5.354  11.109
55699W        W28124  42.351  23.982   3.042
55700W        W28125  21.576   8.605  14.946
55701W        W28126  30.797  41.405  10.226
55702W        W28127  13.163  38.428  13.946
55703W        W28128  14.128   9.269  13.811
55704W        W28129  32.134  22.527   4.073
55705W        W28130  20.950  33.558  12.425
55706W        W28131  21.046  27.514   1.226
55707W        W28132  32.186  43.832   1.417
55708W        W28133  29.279  23.474   3.869
55709W        W28134  16.316   9.242  10.752
55710W        W28135  13.131  21.755   2.174
55711W        W28136  13.107  29.733  13.074
55712W        W28137   5.177  31.092  13.869
55713W        W28138  37.942  33.206  12.932
55714W        W28139  20.673  10.562   1.625
55715W        W28140  34.956  18.102   3.180
55716W        W28141  28.007  38.912  14.312
55717W        W28142  31.203   7.114   3.994
55718W        W28143  32.604  32.593   0.300
55719W        W28144  43.073  42.546   4.145
55720W        W28145  28.107   0.906  13.554
55721W        W28146   6.784   8.192   3.944
55722W        W28147  21.205  23.162   4.192
55723W        W28148  23.657   7.593   3.816
55724W        W28149  13.568  19.772   4.795
55725W        W28150  13.379  28.572  11.645
55726W        W28151  44.410  27.607  14.739
55727W        W28152  21.550  16.691  14.112
55728W        W28153  23.997  24.686   2.831
55729W        W28154  37.267  34.989   4.022
55730W        W28155  19.599  18.114   3.814
55731W        W28156  40.261  30.103   1.855
55732W        W28157  24.649   3.196  11.196
55733W        W28158  26.431  34.793   5.040
55734W        W28159  32.390  26.983  10.480
55735W        W28160  12.872  39.863   3.065
55736W        W28161  14.135   7.521  14.338
55737W        W28162  11.783  10.179   0.119
55738W        W28163  27.474  38.978   4.128
55739W        W28164  32.956  38.425   4.557
55740W        W28165  11.177  37.189   5.178
55741W        W28166  13.839   8.634   2.352
55742W        W28167  32.294   2.608  12.858
55743W        W28168  34.107   7.907   0.374
55744W        W28169  21.575   6.798  12.102
55745W        W28170   3.077  10.649   0.714
55746W        W28171  11.381  21.317  10.689
55747W        W28172  33.475  32.605  13.537
55748W        W28173  38.084  30.561  13.861
55749W        W28174   2.626  24.473  13.782
55750W        W28175   6.817  31.157   4.070
55751W        W28176  25.199  43.406   3.294
55752W        W28177   9.485  33.656  13.980
55753W        W28178  41.016  10.346   2.887
55754W        W28179   9.916  30.339   0.974
55755W        W28180  11.695   5.380  12.160
55756W        W28181  18.767  35.826   1.894
55757W        W28182   8.162  38.477   2.435
55758W        W28183  32.959  39.547  12.105
55759W        W28184  37.034  31.658  12.405
55760W        W28185   6.110  25.763  11.616
55761W        W28186  19.746  22.322   2.851
55762W        W28187  43.361  33.248   2.299
55763W        W28188  31.981   8.320   4.489
55764W        W28189  38.127  37.026   1.187
55765W        W28190  16.844  24.003  10.787
55766W        W28191  27.958  27.688  14.293
55767W        W28192  40.562  12.296   3.199
55768W        W28193   0.391  13.614  11.510
55769W        W28194  17.722   7.973   3.626
55770W        W28195  26.180  23.642   2.588
55771W        W28196  22.973   8.963  11.427
55772W        W28197  11.848   5.749   2.287
55773W        W28198   6.169  24.418  13.901
55774W        W28199   0.763  37.131  11.711
55775W        W28200  11.668  36.079   2.448
55776W        W28201  28.162  27.492   0.686
55777W        W28202  22.238  14.474  14.436
55778W        W28203  11.471  32.182  12.604
55779W        W28204  31.189  18.581  12.034
55780W        W28205  37.294  29.403   4.131
55781W        W28206  42.965   5.769   4.143
55782W        W28207  17.733  34.441  13.729
55783W        W28208  44.839  12.118  12.356
55784W        W28209   1.926  34.323  12.047
55785W        W28210  32.292  38.686   3.772
55786W        W28211  25.108  29.237  13.404
55787W        W28212   2.285  35.706   2.177
55788W        W28213  10.790  19.983   0.860
55789W        W28214  10.615  11.225   3.026
55790W        W28215  32.576   1.961  10.651
55791W        W28216  17.420   2.037  12.857
55792W        W28217   4.219  41.358   1.459
55793W        W28218  25.021  24.108   0.275
55794W        W28219  44.337  40.926  11.269
55795W        W28220  38.987  30.576   4.981
55796W        W28221  38.910  29.515  13.982
55797W        W28222  35.638  28.056  12.999
55798W        W28223   8.417  22.474   4.609
55799W        W28224  37.580  36.026   2.319
55800W        W28225  11.623  31.026   1.512
55801W        W28226   1.604  28.572  11.239
55802W        W28227  23.478  30.671  11.927
55803W        W28228  19.729  35.001  10.692
55804W        W28229  41.001  21.612   4.107
55805W        W28230  31.952  17.793   3.360
55806W        W28231  22.735  20.078   4.103
55807W        W28232  33.926  43.918  12.266
55808W        W28233  14.153  31.071  12.804
55809W        W28234  10.514   7.915   2.449
55810W        W28235  18.626  35.510   4.136
55811W        W28236  27.413  34.286  13.829
55812W        W28237  25.264   2.374  14.014
55813W        W28238  27.722  23.677   3.924
55814W        W28239  19.007  26.944  13.896
55815W        W28240  32.092  32.345  14.380
55816W        W28241  31.502  42.408  10.555
55817W        W28242  16.723   1.806  13.345
55818W        W28243   6.367   4.654  13.552
55819W        W28244  29.241  22.194  10.124
55820W        W28245  43.050  39.012  14.694
55821W        W28246  13.643  43.749   3.647
55822W        W28247  40.502  36.244   2.406
55823W        W28248  18.198  26.624  14.742
55824W        W28249   0.884  42.536   3.725
55825W        W28250  36.408  24.638   3.018
55826W        W28251  21.502  26.516   2.913
55827W        W28252  15.802  31.485  14.756
55828W        W28253  44.666  23.094   2.305
55829W        W28254  40.119  41.425  13.808
55830W        W28255  32.132  34.412  14.483
55831W        W28256  33.860  26.583  14.246
55832W        W28257  29.739   3.270  12.087
55833W        W28258  36.465  18.390   0.293
55834W        W28259  13.537  19.671  13.104
55835W        W28260  41.326  39.759   4.420
55836W        W28261  20.056  31.457  13.451
55837W        W28262  34.494  15.109  11.148
55838W        W28263  43.484   6.893  13.366
55839W        W28264  35.038  43.466   1.726
55840W        W28265  23.089  27.366  12.951
55841W        W28266  17.660  28.726   4.170
55842W        W28267   0.804  29.953   1.355
55843W        W28268  27.558   3.536  12.806
55844W        W28269  32.532  23.028  11.376
55845W        W28270  17.740   4.935  14.285
55846W        W28271  37.308  21.550   0.892
55847W        W28272  44.573  43.307  13.339
55848W        W28273  42.394   2.156   0.379
55849W        W28274   9.456  34.125   2.260
55850W        W28275  41.842  20.975  10.658
55851W        W28276  17.901  26.571   3.378
55852W        W28277  37.479  42.597   3.320
55853W        W28278  14.461  34.354   5.645
55854W        W28279   8.141  32.165   5.064
55855W        W28280  38.106  35.425   0.719
55856W        W28281  17.018  16.660   1.406
55857W        W28282  43.390  10.334   4.276
55858W        W28283  36.483  19.794  11.581
55859W        W28284  41.913  18.080  12.347
55860W        W28285  20.166  19.719  11.637
55861W        W28286  32.736  20.655   4.089
55862W        W28287  13.090  12.295  14.932
55863W        W28288  41.830   3.601  14.240
55864W        W28289  40.952  39.989  14.885
55865W        W28290  10.607  27.261  14.569
55866W        W28291  13.409  31.200  14.332
55867W        W28292  25.777   1.776   2.283
55868W        W28293  18.112   2.090   0.612
55869W        W28294  35.112  13.885   0.175
55870W        W28295   6.790  36.475   4.059
55871W        W28296   4.327  29.434  13.613
55872W        W28297  34.155  26.144   3.509
55873W        W28298  31.813  12.413  13.418
55874W        W28299  10.699  36.126   0.838
55875W        W28300  43.820   8.907   2.693
55876W        W28301  29.371   9.565  13.646
55877W        W28302  36.970  18.165  13.280
55878W        W28303  23.702  40.499   3.668
55879W        W28304  24.101  20.180  12.939
55880W        W28305  43.378  33.874  11.760
55881W        W28306  32.550   4.823   2.625
55882W        W28307  27.435  33.421   1.517
55883W        W28308   6.430  12.253  14.921
55884W        W28309  25.687  33.026   3.277
55885W        W28310  14.907   1.089  13.404
55886W        W28311  26.173  26.212  11.142
55887W        W28312  22.662  41.506  12.685
55888W        W28313  25.790   6.972  14.479
55889W        W28314  38.279  14.767   0.428
55890W        W28315  32.844  33.536   3.342
55891W        W28316   8.954  11.538   1.323
55892W        W28317  38.309  44.984  13.945
55893W        W28318  23.638  21.789  13.559
55894W        W28319  34.688  11.069   1.691
55895W        W28320  11.909  41.814   2.801
55896W        W28321  38.082   1.005   4.976
55897W        W28322  38.481   5.882   1.184
55898W        W28323  33.033  25.573   2.881
55899W        W28324  41.338  21.812   2.364
55900W        W28325  11.177  33.713  12.451
55901W        W28326  11.627  40.721   2.374
55902W        W28327  13.318   5.250   0.993
55903W        W28328  18.987  30.367   4.568
55904W        W28329  10.284  40.350   4.796
55905W        W28330   9.100  27.195   3.753
55906W        W28331  21.644  32.906   4.114
55907W        W28332  44.958   6.415  14.792
55908W        W28333  38.828  17.732   2.239
55909W        W28334  27.606  15.540  14.906
55910W        W28335  35.311   1.762  13.895
55911W        W28336  18.133  44.319   2.736
55912W        W28337  41.248  28.531  13.418
55913W        W28338  20.089  27.111  14.588
55914W        W28339  37.073  26.008   3.993
55915W        W28340  17.008  22.656   3.795
55916W        W28341   3.422  29.466  13.578
55917W        W28342  29.711  12.357   1.877
55918W        W28343  25.698  41.659  10.787
55919W        W28344   6.715  33.482  14.396
55920W        W28345  39.656  20.558   3.155
55921W        W28346  18.496  43.261  14.482
55922W        W28347  14.776  40.605  13.521
55923W        W28348   6.622  29.966  10.673
55924W        W28349  19.561   8.662   3.291
55925W        W28350   2.473  27.148  10.489
55926W        W28351  24.590  19.060  14.757
55927W        W28352  32.194  28.523  10.996
55928W        W28353  38.893   4.224   0.966
55929W        W28354  17.003  27.619  13.369
55930W        W28355  37.055  21.498  14.705
55931W        W28356  26.737  39.423   4.181
55932W        W28357   4.896  20.120   0.513
55933W        W28358  26.740  30.555  12.884
55934W        W28359  26.162   2.786   3.805
55935W        W28360  28.095   2.744   4.013
55936W        W28361  31.763  30.026   4.298
55937W        W28362  39.087  35.129  14.856
55938W        W28363   2.746  21.848  11.138
55939W        W28364  32.061  29.467   3.845
55940W        W28365  37.464   8.714   1.912
55941W        W28366  15.628  14.169  10.203
55942W        W28367   8.580  11.221   0.568
55943W        W28368  43.743  17.662  14.198
55944W        W28369  33.829  19.101   2.422
55945W        W28370  15.539   6.227  12.483
55946W        W28371  13.462  27.676   4.864
55947W        W28372   6.008   1.992   4.638
55948W        W28373  41.292  13.758   3.298
55949W        W28374  21.242   9.273  10.046
55950W        W28375  43.073  12.124   0.888
55951W        W28376  28.950  21.524   0.752
55952W        W28377  21.331  12.210  14.283
55953W        W28378  42.837  34.376   0.987
55954W        W28379   9.757  42.608  10.505
55955W        W28380   6.444   1.252  12.793
55956W        W28381  23.536  26.694  12.109
55957W        W28382  17.464  17.284  11.396
55958W        W28383  28.589  29.148   3.887
55959W        W28384  35.609  43.081   2.604
55960W        W28385   7.673   3.469   3.865
55961W        W28386  34.401  30.697   1.683
55962W        W28387  24.507   9.153   4.562
55963W        W28388   9.684  42.275  12.401
55964W        W28389  21.113  33.676  13.282
55965W        W28390  34.054  38.096   0.308
55966W        W28391  34.039   8.366  14.443
55967W        W28392  15.196  34.016  12.161
55968W        W28393  21.625  42.939  13.465
55969W        W28394  16.711  29.577  11.187
55970W        W28395  17.697  10.724   1.762
55971W        W28396  13.510  36.940   4.546
55972W        W28397  23.263  19.701   3.619
55973W        W28398  39.803  35.288  13.272
55974W        W28399  14.773  31.454  14.839
55975W        W28400   1.930   2.940   2.718
55976W        W28401  30.021   5.995  13.018
55977W        W28402  27.548   6.057  13.314
55978W        W28403   3.940  41.750  10.394
55979W        W28404  14.330  13.842  11.595
55980W        W28405  21.504  17.511  12.002
55981W        W28406  37.715  10.395   2.731
55982W        W28407  44.216   6.173   3.325
55983W        W28408   9.788  39.069   4.356
55984W        W28409  14.847   5.234  12.169
55985W        W28410   2.199  28.952  10.788
55986W        W28411  35.057   7.448   5.464
55987W        W28412  16.639  21.687  12.989
55988W        W28413   6.335  11.679  14.246
55989W        W28414  12.896   4.098   2.568
55990W        W28415  25.540  18.088  10.226
55991W        W28416   1.769   1.802   1.895
55992W        W28417  15.377  41.872   0.484
55993W        W28418  44.035  24.521  12.032
55994W        W28419  24.251  16.382   1.719
55995W        W28420   4.514  30.938   4.160
55996W        W28421  20.462   9.230   4.204
55997W        W28422   7.849   7.013  10.719
55998W        W28423  21.343   1.963   0.349
55999W        W28424  24.959  28.940   1.257
56000W        W28425  33.292  35.176  14.947
56001W        W28426  41.737   2.551  10.671
56002W        W28427  10.086  41.222   1.702
56003W        W28428  42.569  37.015   2.671
56004W        W28429  31.541  36.553  10.409
56005W        W28430   6.306  43.375   3.632
56006W        W28431  31.724   8.771   2.672
56007W        W28432  25.593  28.401  11.033
56008W        W28433  24.197   1.408  14.280
56009W        W28434  44.783   7.207   0.421
56010W        W28435  41.252  12.075   4.585
56011W        W28436   2.836  35.357   3.193
56012W        W28437  30.837  39.993  10.156
56013W        W28438  44.273  17.916   3.202
56014W        W28439  15.195  44.426  14.320
56015W        W28440  21.512  30.019  10.657
56016W        W28441  13.406   8.931   2.242
56017W        W28442  39.539   2.848   2.826
56018W        W28443  37.469  12.735   0.689
56019W        W28444   3.528  26.923   1.835
56020W        W28445  31.372   0.287   3.599
56021W        W28446  18.174  16.776  11.238
56022W        W28447  26.555  28.483  14.927
56023W        W28448  19.999  13.270   3.925
56024W        W28449  37.498  35.157  11.405
56025W        W28450  23.590  34.298  12.018
56026W        W28451   3.223  42.360   3.579
56027W        W28452  19.839   1.430   3.322
56028W        W28453  21.985   5.286  10.639
56029W        W28454  24.977  25.745   1.298
56030W        W28455  25.666   9.789  13.290
56031W        W28456  44.384  28.869   3.674
56032W        W28457  43.760  20.640   1.947
56033W        W28458   3.491  30.013  12.388
56034W        W28459  22.641   1.240  13.280
56035W        W28460  42.490   4.962   1.863
56036W        W28461  10.193   2.530   1.152
56037W        W28462  25.746   1.754   3.154
56038W        W28463  39.504  43.437   2.678
56039W        W28464  37.956  16.244   2.626
56040W        W28465  15.146  12.080  11.975
56041W        W28466  15.452   0.177   4.143
56042W        W28467  39.204   5.346   0.887
56043W        W28468  12.629  30.332   1.344
56044W        W28469  19.052  13.297  12.560
56045W        W28470  11.141   8.788   0.788
56046W        W28471  40.148  38.979   4.896
56047W        W28472   8.916   0.849  14.790
56048W        W28473   7.955  13.231  14.355
56049W        W28474  32.402  32.166   3.948
56050W        W28475   4.729   7.706   0.770
56051W        W28476  31.341  22.295  13.012
56052W        W28477  41.848  42.415   1.413
56053W        W28478  42.556  28.970  12.078
56054W        W28479  22.092  39.753  12.352
56055W        W28480  37.449  27.994   0.244
56056W        W28481  37.048   5.888   4.200
56057W        W28482  12.111  18.861   4.175
56058W        W28483  44.484  12.835  14.486
56059W        W28484  14.049  10.654  12.421
56060W        W28485  14.335   9.691   2.760
56061W        W28486  20.073  41.963  14.390
56062W        W28487  29.138   6.893   1.409
56063W        W28488  38.114  20.124  11.261
56064W        W28489   2.772  34.035   4.967
56065W        W28490  36.468  21.979   4.206
56066W        W28491  42.849   1.160  11.938
56067W        W28492   8.437  26.238  12.497
56068W        W28493  10.773   9.835   3.582
56069W        W28494  21.712  40.544  14.753
56070W        W28495  31.090  38.385  13.378
56071W        W28496  15.159   2.531  12.469
56072W        W28497   0.421  35.826  11.755
56073W        W28498  44.183  19.132   0.499
56074W        W28499  44.824  37.293   0.689
56075W        W28500  33.231  21.185   1.091
56076W        W28501   5.148  14.577  13.266
56077W        W28502  23.026  44.844   1.350
56078W        W28503  23.250  26.433  13.918
56079W        W28504  27.787   3.497  12.363
56080W        W28505  41.968  32.943   3.400
56081W        W28506  12.095  40.989   3.089
56082W        W28507  15.299  31.467  14.878
56083W        W28508   2.922  12.600   3.237
56084W        W28509  15.950   1.799   4.369
56085W        W28510  16.820   9.708   0.040
56086W        W28511  11.348  40.090  14.336
56087W        W28512   3.216  16.190   0.780
56088W        W28513  30.401   8.327   2.211
56089W        W28514  15.301  40.961  14.012
56090W        W28515  11.792   3.716   0.407
56091W        W28516  16.570  20.295  12.061
56092W        W28517  40.269  16.681  14.361
56093W        W28518  13.759  43.649  12.491
56094W        W28519  10.401  12.752   1.673
56095W        W28520  42.949  27.218   2.863
56096W        W28521  18.396   5.328  13.293
56097W        W28522  21.089  32.828   4.105
56098W        W28523  39.761  18.070  14.990
56099W        W28524  40.974  18.392  12.363
56100W        W28525  18.750  10.229   0.199
56101W        W28526   6.245  36.544   3.874
56102W        W28527  36.055  25.992   3.085
56103W        W28528  15.383  25.649   3.682
56104W        W28529  15.607  23.705  11.239
56105W        W28530  13.176  32.044   2.133
56106W        W28531  29.606  30.666  12.996
56107W        W28532  25.700  44.450  14.407
56108W        W28533  30.982  32.400   4.135
56109W        W28534  23.687  11.639   4.390
56110W        W28535   4.847  14.846  12.842
56111W        W28536  25.659  16.865   4.475
56112W        W28537   9.971   7.304  10.437
56113W        W28538  28.908  34.942   3.062
56114W        W28539   9.391  12.404  13.938
56115W        W28540   5.419  21.409   4.249
56116W        W28541  36.690  41.818   0.485
56117W        W28542  24.508   6.681   0.722
56118W        W28543  44.309  21.193  11.089
56119W        W28544  10.740  38.444  14.053
56120W        W28545  39.830  22.683   0.045
56121W        W28546  14.489  16.748   0.407
56122W        W28547  23.724   3.340  11.461
56123W        W28548  43.968  33.031   0.241
56124W        W28549   9.566  23.687  12.894
56125W        W28550  25.713   4.371   4.603
56126W        W28551  25.123   3.491  10.146
56127W        W28552  23.641  21.855   2.693
56128W        W28553  35.023  38.313  13.073
56129W        W28554  35.115  16.814  13.447
56130W        W28555  25.513  16.669  12.652
56131W        W28556  31.953  13.136  11.167
56132W        W28557  10.515  24.275  12.788
56133W        W28558  28.982  21.940  13.079
56134W        W28559  16.686  20.461  14.859
56135W        W28560  35.403  22.068   2.670
56136W        W28561   4.054  38.177  14.482
56137W        W28562  28.575  28.928   4.354
56138W        W28563  44.216   2.839   5.050
56139W        W28564  24.434  19.121  14.277
56140W        W28565  15.515  35.118  13.448
56141W        W28566  16.683   8.478   2.661
56142W        W28567  36.122  27.695  11.099
56143W        W28568  31.015  13.969   0.869
56144W        W28569   7.170  37.358  12.462
56145W        W28570  24.928  26.404  11.117
56146W        W28571  37.433  10.138  11.594
56147W        W28572  34.673  25.059   4.365
56148W        W28573  15.078  27.076  13.861
56149W        W28574   1.491   5.760  12.022
56150W        W28575  37.473  17.871   4.506
56151W        W28576  35.696  41.579  12.434
56152W        W28577  38.999  24.165   2.548
56153W        W28578   4.838  34.376  14.873
56154W        W28579  35.559  41.444  13.598
56155W        W28580  14.152   7.843  14.735
56156W        W28581   1.825  24.742  14.330
56157W        W28582  16.610  19.647   4.370
56158W        W28583  36.295   7.156   2.870
56159W        W28584  17.993  30.012   2.992
56160W        W28585  34.636  38.027   0.448
56161W        W28586  28.674  38.074   3.308
56162W        W28587   1.393  38.912  12.370
56163W        W28588  33.642  33.167  12.470
56164W        W28589  32.649  24.438   2.405
56165W        W28590  12.723  19.465   4.193
56166W        W28591  34.851   9.262  14.884
56167W        W28592  36.374  12.220   4.785
56168W        W28593  39.591  35.854  11.516
56169W        W28594  38.314  26.951  12.034
56170W        W28595  39.327  19.046  13.946
56171W        W28596   4.638  36.769  12.566
56172W        W28597  29.951   6.335  11.135
56173W        W28598   4.456  16.572  13.984
56174W        W28599  37.185  33.364  13.375
56175W        W28600  30.158  34.592  10.952
56176W        W28601   2.277  32.556  14.717
56177W        W28602   6.977  31.548   3.756
56178W        W28603  44.674  44.622   0.788
56179W        W28604  26.211  35.040  13.894
56180W        W28605   2.809  43.361  12.974
56181W        W28606  15.867  18.173   0.807
56182W        W28607   7.082  31.420  12.636
56183W        W28608  44.738  42.972   2.416
56184W        W28609  27.576  20.007   1.426
56185W        W28610  20.443  21.141   2.763
56186W        W28611  23.168  41.302  11.555
56187W        W28612   8.754   3.968  12.868
56188W        W28613  37.027  28.382   0.835
56189W        W28614  14.207   6.339   1.191
56190W        W28615  11.949  21.178   4.883
56191W        W28616   7.344   4.150  12.146
56192W        W28617  20.334  22.580   4.077
56193W        W28618   1.192  15.365   1.347
56194W        W28619  20.671   8.177  13.901
56195W        W28620  33.759  11.417  13.039
56196W        W28621   8.742   0.210  14.269
56197W        W28622  44.435   8.920   1.932
56198W        W28623   9.905  20.950  12.486
56199W        W28624  19.505   9.227   1.777
56200W        W28625  38.960  44.801  14.518
56201W        W28626  23.966  19.273  13.408
56202W        W28627  17.608   0.510   1.719
56203W        W28628   8.095   4.508  13.861
56204W        W28629  10.427  25.679   2.853
56205W        W28630  27.092   5.989   1.323
56206W        W28631  11.647  23.358   2.245
56207W        W28632   3.345   4.854  10.972
56208W        W28633  43.928  15.229   1.964
56209W        W28634  12.842  33.399   0.298
56210W        W28635  19.280  38.398   4.058
56211W        W28636   5.687  37.603   1.216
56212W        W28637  27.640   1.691   0.947
56213W        W28638   9.877  24.489   4.426
56214W        W28639  29.192  30.658  14.454
56215W        W28640  29.201  14.644  14.116
56216W        W28641  43.254   6.883   3.375
56217W        W28642  44.993  27.689   2.701
56218W        W28643  13.933  22.042   0.291
56219W        W28644  17.805  18.200  13.246
56220W        W28645  34.612  10.791  10.673
56221W        W28646  13.798  35.426   1.896
56222W        W28647  12.676  18.151   3.634
56223W        W28648  20.246  24.658  11.438
56224W        W28649  41.305  25.018   3.975
56225W        W28650  29.902   2.653   1.224
56226W        W28651  18.705  12.575   0.283
56227W        W28652  37.195  35.905   1.053
56228W        W28653  22.224  21.038  11.527
56229W        W28654   2.064   1.456   0.798
56230W        W28655   6.177   0.591   3.261
56231W        W28656  10.695  35.821   1.349
56232W        W28657   1.429  33.951  11.041
56233W        W28658  33.970   0.085  13.624
56234W        W28659  12.074  41.008  12.463
56235W        W28660  27.600   4.322  11.754
56236W        W28661  17.615  15.670  11.515
56237W        W28662   4.456  10.904  11.348
56238W        W28663  28.145  30.871   3.259
56239W        W28664  42.628  12.380   0.930
56240W        W28665  20.793  35.880   0.045
56241W        W28666  15.556  26.618   9.978
56242W        W28667  34.513  19.665  10.856
56243W        W28668  18.299  36.964   0.005
56244W        W28669  19.146  42.895   4.225
56245W        W28670  10.028  26.186   1.865
56246W        W28671  19.613  34.612   2.344
56247W        W28672  11.680  12.460   1.942
56248W        W28673   2.470  23.891   0.967
56249W        W28674   6.917  42.993   0.482
56250W        W28675  13.874  40.912   4.547
56251W        W28676  39.438  10.695   1.738
56252W        W28677  37.887  28.658   4.675
56253W        W28678  19.479  23.637   1.499
56254W        W28679  44.072   5.766  11.724
56255W        W28680  42.352  37.058  14.985
56256W        W28681  10.237  21.654  12.322
56257W        W28682   9.757  37.948  14.992
56258W        W28683  19.306   1.034  14.427
56259W        W28684  39.281  28.719   1.027
56260W        W28685  35.011  29.649   0.701
56261W        W28686  30.146  22.160   0.886
56262W        W28687   1.000   0.062  12.059
56263W        W28688  17.630  38.564  13.998
56264W        W28689   3.548  36.579  11.163
56265W        W28690  13.469  41.795   1.915
56266W        W28691   0.434   7.581  11.889
56267W        W28692  25.204  26.500  11.853
56268W        W28693  32.455   8.813   3.269
56269W        W28694   3.455  37.903   4.057
56270W        W28695  31.735  29.627  11.680
56271W        W28696  29.683   0.516  11.946
56272W        W28697  38.855   2.776  14.331
56273W        W28698   9.001  37.523   3.046
56274W        W28699  29.564   6.427   2.117
56275W        W28700   6.267  28.200   3.996
56276W        W28701  29.107   7.300  10.649
56277W        W28702  22.468  14.599  12.943
56278W        W28703  31.837  31.525   1.921
56279W        W28704  16.919  14.331   0.018
56280W        W28705   0.084  37.623   3.351
56281W        W28706  18.441  26.131  12.963
56282W        W28707  34.163   6.953   4.143
56283W        W28708  33.536  26.373  11.239
56284W        W28709  11.022  41.132   0.495
56285W        W28710  15.633  39.981  11.078
56286W        W28711  14.279  34.818   3.370
56287W        W28712  44.852  29.517   4.344
56288W        W28713  32.940   2.280  13.423
56289W        W28714   6.104  21.906   2.107
56290W        W28715  10.999   2.864   0.333
56291W        W28716  24.195  25.076  13.337
56292W        W28717  14.567  27.611  13.366
56293W        W28718   3.167  38.342  14.610
56294W        W28719  30.454   7.330  13.358
56295W        W28720  38.396  20.124  12.462
56296W        W28721   4.607  11.684   4.152
56297W        W28722  17.722  34.974   1.554
56298W        W28723   7.343   8.174   2.680
56299W        W28724  13.162  14.648  10.632
56300W        W28725   4.770  37.703   4.325
56301W        W28726  37.822  40.933  10.855
56302W        W28727  34.383  30.468   2.154
56303W        W28728   6.688  11.415  14.953
56304W        W28729  12.648  24.172  11.623
56305W        W28730  11.797  23.076  10.407
56306W        W28731  35.423  22.573  12.068
56307W        W28732  41.387  43.014   3.202
56308W        W28733  17.354  44.101  14.786
56309W        W28734  17.237  42.083   2.646
56310W        W28735  31.263  34.034  12.723
56311W        W28736   9.763  20.145  14.489
56312W        W28737  30.013  31.394  11.494
56313W        W28738  30.725  44.813  14.529
56314W        W28739   2.474  18.731   2.497
56315W        W28740  18.741  16.711  13.209
56316W        W28741   5.290  18.320   2.279
56317W        W28742   3.654   8.937  11.141
56318W        W28743  36.348  17.622   1.369
56319W        W28744   1.323   1.577   1.763
56320W        W28745   0.842   5.464  14.497
56321W        W28746  12.660   0.512  11.151
56322W        W28747  42.606  16.886  14.767
56323W        W28748   9.114  37.710  13.796
56324W        W28749  24.802  41.677  13.896
56325W        W28750   2.722  37.910   1.769
56326W        W28751  11.447  19.361  10.321
56327W        W28752  25.621  13.154  10.689
56328W        W28753  25.065  35.374   0.413
56329W        W28754  40.743  33.919   1.292
56330W        W28755  17.679  25.252   3.334
56331W        W28756  27.165  33.626   4.699
56332W        W28757  33.545  11.826   4.069
56333W        W28758   1.409  31.873  13.504
56334W        W28759  26.881  18.993  13.335
56335W        W28760   6.133   4.342   3.263
56336W        W28761   7.653   1.795  12.362
56337W        W28762   8.093   9.142  10.873
56338W        W28763  15.576  21.052  12.053
56339W        W28764  33.614  27.878  12.388
56340W        W28765  25.698  16.159   3.091
56341W        W28766  37.970   3.505   3.797
56342W        W28767  14.638   4.868  12.813
56343W        W28768  40.504  35.133   1.233
56344W        W28769  14.064  24.188   1.658
56345W        W28770  15.239  18.302   4.122
56346W        W28771  15.904  22.616  13.748
56347W        W28772  44.776   3.560   2.302
56348W        W28773  43.935  13.827   4.386
56349W        W28774  38.897  24.633  13.267
56350W        W28775  12.930  12.661   0.511
56351W        W28776  15.063   1.610  10.118
56352W        W28777  27.922  10.708  12.467
56353W        W28778  18.884  37.341  12.166
56354W        W28779  40.103  21.784  11.590
56355W        W28780  12.107  16.323   3.033
56356W        W28781  44.743  43.084   1.098
56357W        W28782  31.358  24.084  11.487
56358W        W28783  11.646  35.475   3.778
56359W        W28784  25.664  14.090   0.944
56360W        W28785   1.425   7.709   1.733
56361W        W28786  26.162  26.023  12.479
56362W        W28787  23.279   9.275  14.949
56363W        W28788   8.069   6.977  11.708
56364W        W28789  10.656  16.089  14.327
56365W        W28790   0.403  20.837   4.208
56366W        W28791  27.054  23.230   0.739
56367W        W28792  32.797  29.380  13.532
56368W        W28793  16.803  12.766   1.838
56369W        W28794  19.323  32.074   4.805
56370W        W28795  30.803  33.799  14.776
56371W        W28796  12.131   7.486   4.529
56372W        W28797   4.910  38.519  12.403
56373W        W28798  10.870  21.185  12.433
56374W        W28799  35.857   1.661   3.824
56375W        W28800  38.434  11.459  14.870
56376W        W28801  19.075  42.464  12.565
56377W        W28802  37.303  22.265  11.486
56378W        W28803   5.986  13.441  13.372
56379W        W28804  41.874   8.691  12.572
56380W        W28805   0.300  10.185  14.363
56381W        W28806   4.894  19.601  11.592
56382W        W28807  26.816  15.780   3.782
56383W        W28808  26.295  44.875  14.877
56384W        W28809  11.606  10.768  11.446
56385W        W28810  17.268  41.632  12.553
56386W        W28811   0.914  27.022  12.869
56387W        W28812  41.799   2.038  10.651
56388W        W28813  32.840  35.352   4.313
56389W        W28814  11.823  18.509  11.375
56390W        W28815   1.759  39.331   0.784
56391W        W28816  18.165  38.984   3.547
56392W        W28817  42.258  19.792   4.045
56393W        W28818  43.061  16.377  13.473
56394W        W28819  31.525  20.377  11.990
56395W        W28820  33.033  10.467  13.871
56396W        W28821   9.829  26.667   3.535
56397W        W28822  32.998  43.843  12.338
56398W        W28823  37.423  36.116   3.611
56399W        W28824  19.079  10.741   2.690
56400W        W28825  21.619  22.557   0.701
56401W        W28826  25.304   7.043  11.145
56402W        W28827  26.909  25.078   4.315
56403W        W28828  16.526  30.493  12.871
56404W        W28829  38.441   4.277   4.584
56405W        W28830   2.296  23.173  11.229
56406W        W28831  31.057   0.991   3.312
56407W        W28832  43.422   1.310  14.978
56408W        W28833  19.961  22.465  12.128
56409W        W28834  24.159  37.991   4.718
56410W        W28835  31.110   7.959  14.120
56411W        W28836   8.819  10.781   4.742
56412W        W28837   8.897  27.209   2.798
56413W        W28838  16.097  17.200  10.200
56414W        W28839  19.511  32.563  13.837
56415W        W28840  19.233  14.033   1.841
56416W        W28841  22.949   1.507  12.213
56417W        W28842  12.539  16.162   1.739
56418W        W28843  21.285  25.460   1.882
56419W        W28844  13.720  22.716  12.286
56420W        W28845  30.529  19.536   4.515
56421W        W28846  28.057  12.285  13.944
56422W        W28847   4.398   8.794  10.644
56423W        W28848   2.536  33.912   2.052
56424W        W28849  26.028  13.366   1.945
56425W        W28850   2.306  34.476   4.337
56426W        W28851  44.754  24.080  10.752
56427W        W28852  19.927  31.022  12.238
56428W        W28853  39.956   0.469  14.521
56429W        W28854  22.889  32.383  11.561
56430W        W28855  28.716  32.299   2.704
56431W        W28856  35.317  42.211   3.707
56432W        W28857  19.038  21.132  11.591
56433W        W28858  11.758  21.328  14.869
56434W        W28859  28.186   4.701   1.388
56435W        W28860  24.975   1.898  12.313
56436W        W28861  27.558  14.166   1.686
56437W        W28862  15.678  40.256  14.781
56438W        W28863  10.208  42.233  14.973
56439W        W28864  42.366  10.689  12.406
56440W        W28865   4.766  14.554  12.419
56441W        W28866   8.705  10.132   4.141
56442W        W28867  40.833  44.236   0.939
56443W        W28868  20.863  32.955  11.608
56444W        W28869  31.641  13.151   2.254
56445W        W28870  42.552  35.244   4.531
56446W        W28871  38.629  24.450   3.716
56447W        W28872  24.588  19.705   4.523
56448W        W28873   7.208  38.083   2.780
56449W        W28874   4.001   7.693   2.483
56450W        W28875  19.478  43.911  11.186
56451W        W28876   7.202  22.666  11.046
56452W        W28877   5.645  19.649  14.420
56453W        W28878  36.140  38.510  14.730
56454W        W28879  14.365  31.943  11.188
56455W        W28880  35.483  20.461  11.148
56456W        W28881   9.674  27.190   3.254
56457W        W28882   0.871  14.125   2.920
56458W        W28883  11.604  13.658  11.868
56459W        W28884   5.294  29.097  12.285
56460W        W28885  37.428  21.237  14.984
56461W        W28886  31.135   7.129  14.715
56462W        W28887   6.387  24.952  11.637
56463W        W28888  16.629   6.987   1.332
56464W        W28889   5.268  36.270   0.302
56465W        W28890   2.762   4.695  12.823
56466W        W28891  39.333  29.861  11.433
56467W        W28892  44.692   8.728  13.329
56468W        W28893  43.875  41.996   3.733
56469W        W28894   0.391  40.768   2.816
56470W        W28895   5.203  29.483  11.961
56471W        W28896  19.117  27.521   2.340
56472W        W28897   5.263   3.239   2.659
56473W        W28898   3.464   8.282  14.497
56474W        W28899  32.483  10.215   4.293
56475W        W28900  31.073  44.424  13.574
56476W        W28901  11.675  33.441  12.541
56477W        W28902  37.374   4.553  14.576
56478W        W28903   0.407  18.342  14.290
56479W        W28904   2.894  23.867  11.910
56480W        W28905  31.853  22.134   3.888
56481W        W28906  11.113  12.926  10.513
56482W        W28907  39.877  37.589   3.726
56483W        W28908  19.530  38.389  13.128
56484W        W28909  20.056  43.510   1.397
56485W        W28910  17.292  36.901  11.594
56486W        W28911  24.656  34.584  11.636
56487W        W28912  33.451  14.328  12.085
56488W        W28913  13.908  29.171   2.752
56489W        W28914  19.458  20.167  14.502
56490W        W28915  14.664   1.284   3.630
56491W        W28916   8.062  14.515  14.279
56492W        W28917  21.296  41.058  11.546
56493W        W28918  35.503  14.530   3.486
56494W        W28919  26.570  17.682   2.642
56495W        W28920  15.779  35.683  11.984
56496W        W28921  30.219  34.149  12.577
56497W        W28922  14.095  27.629   1.298
56498W        W28923   5.244  37.491  10.839
56499W        W28924  14.529  27.900   1.230
56500W        W28925  33.790  23.499   2.599
56501W        W28926  23.586  26.186   0.852
56502W        W28927  41.304  30.735  12.939
56503W        W28928   0.324   3.447  13.594
56504W        W28929  38.000  19.303  14.879
56505W        W28930  11.623   5.012   1.879
56506W        W28931  34.966   7.965   3.633
56507W        W28932  20.555  10.261  12.182
56508W        W28933   6.500  36.183  11.123
56509W        W28934   0.773  38.673  11.644
56510W        W28935  22.743  43.819   4.557
56511W        W28936   4.012   6.847   1.851
56512W        W28937  40.787   5.795   0.900
56513W        W28938  35.480  11.551  12.807
56514W        W28939  31.439  29.519  12.118
56515W        W28940  10.707  36.906  11.015
56516W        W28941   3.427  24.143  13.003
56517W        W28942  16.625   6.654  11.956
56518W        W28943   2.386  13.113  11.211
56519W        W28944  26.251  19.717   2.756
56520W        W28945   1.446  23.670  12.791
56521W        W28946  31.068  19.775  10.399
56522W        W28947  34.506   8.979   3.026
56523W        W28948  42.516  41.325  11.468
56524W        W28949   6.552  27.777   2.597
56525W        W28950  13.117  29.631   2.813
56526W        W28951  27.020  21.543  11.899
56527W        W28952  33.753  13.784   3.339
56528W        W28953  36.919  18.353   0.796
56529W        W28954  43.977   1.021   2.064
56530W        W28955  24.493   4.882  10.940
56531W        W28956  34.098  23.695  13.542
56532W        W28957  38.218  22.514  11.134
56533W        W28958  26.222  15.040  14.517
56534W        W28959  30.727  23.563   1.168
56535W        W28960  35.384  13.367   2.021
56536W        W28961   2.836  44.863   0.483
56537W        W28962   3.597   0.468   4.317
56538W        W28963  28.422  34.340   0.592
56539W        W28964  17.241  39.936   1.775
56540W        W28965   4.337  10.327  12.059
56541W        W28966  22.221  40.302  13.769
56542W        W28967  42.460  27.240   4.529
56543W        W28968  25.415   6.612  12.601
56544W        W28969  16.270   2.762  13.357
56545W        W28970   2.995   6.183   3.273
56546W        W28971  19.166  29.724  14.359
56547W        W28972  21.506  13.842  10.715
56548W        W28973  27.707  27.506  14.744
56549W        W28974   0.140  18.271   4.242
56550W        W28975  42.422   4.351  14.119
56551W        W28976  42.808  39.390   1.953
56552W        W28977  32.811  31.101   3.220
56553W        W28978  44.284  19.924  11.605
56554W        W28979  37.873  11.252   0.653
56555W        W28980  40.841   7.202   3.034
56556W        W28981  24.980  27.252  14.548
56557W        W28982  34.707  31.709  11.543
56558W        W28983   7.383  39.837   3.850
56559W        W28984   1.895  16.360  13.546
56560W        W28985  34.557  16.047   3.693
56561W        W28986  31.448  27.026   4.418
56562W        W28987  35.829   6.397  11.300
56563W        W28988  13.098  24.193  11.086
56564W        W28989   8.641  26.181  11.182
56565W        W28990  10.263  27.481  10.880
56566W        W28991  41.892   3.420  10.547
56567W        W28992  42.387   2.734   2.800
56568W        W28993   3.658  20.151  11.206
56569W        W28994  16.094  43.695  11.187
56570W        W28995  27.435  19.016   0.408
56571W        W28996  17.784  30.373  13.450
56572W        W28997  33.158  29.138  12.389
56573W        W28998  14.762  13.127  13.784
56574W        W28999  33.169  38.113  10.904
56575W        W29000  29.120  18.228  11.791
56576W        W29001  28.458   3.204  13.806
56577W        W29002  11.832  17.293  13.335
56578W        W29003  25.923  32.600   3.729
56579W        W29004   2.013   7.673  12.875
56580W        W29005  27.013  35.949  14.493
56581W        W29006  24.179   9.348  12.126
56582W        W29007   7.822  20.841   1.181
56583W        W29008  34.929   4.799  13.466
56584W        W29009  11.928   6.618  13.554
56585W        W29010  33.930   6.827   3.196
56586W        W29011  33.850  32.357  13.818
56587W        W29012  42.223  10.406   2.298
56588W        W29013  19.078  26.516   1.243
56589W        W29014  38.281  17.642  14.336
56590W        W29015  37.050  19.433  13.521
56591W        W29016  21.108  42.917  12.795
56592W        W29017  37.250  16.647  13.971
56593W        W29018  37.854  32.980   2.918
56594W        W29019  23.161  15.380  11.046
56595W        W29020  40.079   1.508   3.366
56596W        W29021  29.900  15.518   1.220
56597W        W29022  18.116  16.435   2.629
56598W        W29023  28.660  31.490   1.694
56599W        W29024  11.175  15.780   2.747
56600W        W29025  38.445  43.011  12.646
56601W        W29026   6.933  15.680   3.268
56602W        W29027   0.413  30.596  14.001
56603W        W29028  30.428  38.916  14.356
56604W        W29029   1.464  33.467   2.405
56605W        W29030  38.402  29.620   0.802
56606W        W29031  15.314   2.704  14.781
56607W        W29032  23.759  38.895   3.999
56608W        W29033   6.855  37.341  13.537
56609W        W29034  38.849  28.404   4.248
56610W        W29035  15.523  19.168   2.848
56611W        W29036  21.663   5.172  12.476
56612W        W29037  26.360  14.798  13.282
56613W        W29038  19.750   4.479   2.347
56614W        W29039  23.931  21.654  11.693
56615W        W29040  22.728   0.462   1.620
56616W        W29041   9.742   0.739   4.562
56617W        W29042   4.508  25.999   1.714
56618W        W29043  35.512  41.871  11.685
56619W        W29044  37.546  30.175   2.627
56620W        W29045  38.865  35.441   1.225
56621W        W29046  28.256  30.907  12.091
56622W        W29047  21.582  39.920  10.277
56623W        W29048  29.402  34.565   4.716
56624W        W29049  16.730   1.963   1.705
56625W        W29050  10.847   5.959   0.650
56626W        W29051  27.540  35.870   1.245
56627W        W29052  41.854  44.876  13.546
56628W        W29053   7.669  16.189   2.355
56629W        W29054  34.547  38.625   3.187
56630W        W29055  35.045  24.739  13.077
56631W        W29056   7.725  36.058   3.128
56632W        W29057  22.309   7.417   4.425
56633W        W29058  13.641  31.098  12.642
56634W        W29059   5.402  31.546  10.612
56635W        W29060  12.779   6.224   5.165
56636W        W29061  41.187  39.553   3.976
56637W        W29062  33.159  34.188  12.129
56638W        W29063  26.452   2.537   1.991
56639W        W29064  21.752   9.972  12.324
56640W        W29065  17.248   0.407   2.116
56641W        W29066   7.751   7.161   3.339
56642W        W29067  31.103  10.985  12.504
56643W        W29068  22.160   8.527  14.429
56644W        W29069  26.130   9.476  14.872
56645W        W29070  42.675  34.990   4.962
56646W        W29071  20.884   9.122   0.805
56647W        W29072  42.473  29.518   1.711
56648W        W29073  30.570  34.463  13.511
56649W        W29074  43.950  10.337   3.530
56650W        W29075  32.698  28.788  12.329
56651W        W29076  10.930   6.119   4.093
56652W        W29077  18.549   8.613   2.521
56653W        W29078  36.139  23.628   0.950
56654W        W29079   7.188  23.790  10.374
56655W        W29080   3.240  26.627  12.395
56656W        W29081   4.264  34.354   0.455
56657W        W29082  31.968  22.969   3.881
56658W        W29083  11.148  27.477  13.902
56659W        W29084   6.280  26.023   3.689
56660W        W29085   7.152  42.464  11.553
56661W        W29086  24.564  41.376   3.353
56662W        W29087  25.513   2.135  13.616
56663W        W29088  10.885   8.247  11.451
56664W        W29089  25.920  34.135  12.136
56665W        W29090   8.685  40.043  14.579
56666W        W29091  39.554   9.157   0.977
56667W        W29092  16.029   7.744   1.045
56668W        W29093   5.459  19.091   2.781
56669W        W29094   9.388  40.765  11.943
56670W        W29095  10.293  34.840   0.507
56671W        W29096   4.502   9.421   1.351
56672W        W29097  12.258  22.827   0.408
56673W        W29098  36.087  19.848   2.036
56674W        W29099  24.134  18.284   2.677
56675W        W29100   6.867  30.279   1.899
56676W        W29101   0.474  40.425   0.167
56677W        W29102  33.553  21.604   3.682
56678W        W29103  12.758  40.470   1.423
56679W        W29104  16.751  29.401   1.870
56680W        W29105   1.679  19.749   0.332
56681W        W29106  29.473  34.257   2.552
56682W        W29107   7.093  40.899  12.129
56683W        W29108   3.302  21.790   2.298
56684W        W29109  28.037  16.143  13.856
56685W        W29110  44.002  10.146  10.937
56686W        W29111  12.773   9.939   3.094
56687W        W29112   6.132  22.196   0.953
56688W        W29113  36.611  12.848   2.700
56689W        W29114  28.560  33.903   2.805
56690W        W29115  11.166  39.339   1.922
56691W        W29116  29.540  13.906  13.053
56692W        W29117  33.525  27.285  12.057
56693W        W29118   4.330  18.895   0.781
56694W        W29119  12.264  43.323   0.286
56695W        W29120  34.139  24.818   1.474
56696W        W29121  15.140  14.864  11.434
56697W        W29122   6.773  33.166  11.158
56698W        W29123  17.426  35.009  11.979
56699W        W29124   6.709  38.434   1.702
56700W        W29125  38.516   1.970   1.874
56701W        W29126  23.856  29.035  14.332
56702W        W29127   5.823  23.822  10.656
56703W        W29128   2.555  30.585   4.579
56704W        W29129  42.515  42.378   2.762
56705W        W29130  31.952  37.569   1.360
56706W        W29131  40.513  27.250   0.839
56707W        W29132  10.881  34.146  13.507
56708W        W29133   4.842   6.210   0.317
56709W        W29134  10.113  36.395   4.009
56710W        W29135  38.369  24.165   4.837
56711W        W29136   8.141  34.043  11.656
56712W        W29137  30.975  27.482   0.744
56713W        W29138  12.112  27.498  10.680
56714W        W29139  13.476  16.001   4.052
56715W        W29140  15.164   8.163   0.741
56716W        W29141  23.210  40.306   1.171
56717W        W29142  13.341  37.028   2.827
56718W        W29143  25.984  20.777   0.919
56719W        W29144  25.484   3.151   3.190
56720W        W29145  17.748  32.995   1.594
56721W        W29146  33.608   0.943   2.435
56722W        W29147  35.159   6.860   9.802
56723W        W29148  28.521  25.901   0.054
56724W        W29149  27.369   6.735   0.952
56725W        W29150  43.480   9.657   1.662
56726W        W29151  28.023  24.132   2.722
56727W        W29152  39.572  37.115   2.824
56728W        W29153  16.801  35.897  14.797
56729W        W29154   6.908   3.008  13.942
56730W        W29155  20.264   3.488  12.599
56731W        W29156  39.973  33.654   4.142
56732W        W29157  23.583  19.546  12.524
56733W        W29158  13.165  23.104   4.739
56734W        W29159  34.651  37.317  14.544
56735W        W29160  39.919  40.540  13.760
56736W        W29161  35.414  24.562  10.703
56737W        W29162  12.157   0.555   0.889
56738W        W29163   2.722  28.573  14.085
56739W        W29164  33.090  31.026  12.856
56740W        W29165  14.682   0.339   1.812
56741W        W29166  41.308  26.540   4.642
56742W        W29167  14.322  39.282   2.741
56743W        W29168  23.986   5.376   1.318
56744W        W29169  32.673  44.448  13.959
56745W        W29170  21.704   3.459   1.246
56746W        W29171  14.436  41.321  10.668
56747W        W29172  41.497  18.056  11.077
56748W        W29173  14.000  43.740   3.264
56749W        W29174  42.053   2.573  11.592
56750W        W29175  28.165  14.113   5.431
56751W        W29176  32.109  11.821  10.897
56752W        W29177   3.279  19.725   4.710
56753W        W29178  43.856  24.345  14.850
56754W        W29179   3.653   1.303   4.443
56755W        W29180   0.921  15.669  14.053
56756W        W29181  30.720  19.567  12.030
56757W        W29182   9.247  43.437   1.374
56758W        W29183  35.416  30.185  12.946
56759W        W29184  40.266  14.068   3.754
56760W        W29185  27.506   3.202   0.928
56761W        W29186  28.387  17.770  10.956
56762W        W29187  20.986  29.170   4.001
56763W        W29188  29.601  19.687  13.563
56764W        W29189   1.400  25.041   4.349
56765W        W29190  15.170  31.928  12.909
56766W        W29191  41.031   0.786  12.855
56767W        W29192  35.508  11.630   3.254
56768W        W29193  28.776  32.043  11.801
56769W        W29194  15.448   1.920  11.067
56770W        W29195   5.395  43.975  12.450
56771W        W29196   5.322  35.519  12.677
56772W        W29197   7.461   2.413  13.311
56773W        W29198   5.579  41.606  12.887
56774W        W29199  12.236  26.238  14.430
56775W        W29200  26.069  27.013   1.406
56776W        W29201  36.183  31.994  14.892
56777W        W29202  20.259  30.042   4.848
56778W        W29203  34.844  23.923   3.372
56779W        W29204  36.489   0.709   2.383
56780W        W29205  44.061   0.444  11.520
56781W        W29206  23.113  12.740   0.261
56782W        W29207  16.790  14.385   2.864
56783W        W29208  20.463  21.480  13.878
56784W        W29209   0.416  43.340  10.716
56785W        W29210  31.521  38.556  12.613
56786W        W29211   5.729   7.878  11.005
56787W        W29212  43.277   9.934  12.904
56788W        W29213  12.276  13.746  12.631
56789W        W29214  17.992  18.478   0.996
56790W        W29215   0.479  27.739  13.950
56791W        W29216   7.400  33.542   4.338
56792W        W29217  41.354   9.200  11.893
56793W        W29218   7.831  28.709  14.245
56794W        W29219  20.756  21.006  14.446
56795W        W29220  19.700  37.510  13.442
56796W        W29221  21.568  42.407   1.320
56797W        W29222  32.833  36.372  12.480
56798W        W29223  22.254  31.191   3.445
56799W        W29224   2.698  26.121  11.746
56800W        W29225   3.651   5.520  12.888
56801W        W29226  15.313  38.421  12.844
56802W        W29227   3.834   4.946  12.197
56803W        W29228   2.475  20.341   3.855
56804W        W29229  14.086  42.283   4.213
56805W        W29230  19.366  12.256   4.143
56806W        W29231  37.894  27.042   1.841
56807W        W29232  42.548  10.733  12.895
56808W        W29233  33.153  15.291  12.889
56809W        W29234  29.046   2.023   2.731
56810W        W29235  14.853  20.617  12.570
56811W        W29236  22.928  41.962   4.168
56812W        W29237  16.404   0.866  13.819
56813W        W29238  43.544  26.741   4.488
56814W        W29239   0.232  14.799  11.053
56815W        W29240  33.693  32.677  11.681
56816W        W29241  39.278   9.870  14.083
56817W        W29242  19.540  29.044   1.056
56818W        W29243   2.836   0.435   3.630
56819W        W29244  39.517  16.026   2.876
56820W        W29245  33.099   4.348   3.678
56821W        W29246  15.166   5.708   2.684
56822W        W29247   2.868   7.235  10.618
56823W        W29248  42.847  33.973   4.162
56824W        W29249  41.272  17.236   3.972
56825W        W29250  32.770  22.308  11.173
56826W        W29251   1.624   8.225  13.996
56827W        W29252   4.858  10.696   1.659
56828W        W29253  34.896  36.592  14.871
56829W        W29254  23.704  31.150  10.104
56830W        W29255  43.505  32.973   0.010
56831W        W29256  22.120  16.958   4.157
56832W        W29257   1.470  43.569  13.381
56833W        W29258  13.167  24.645   1.363
56834W        W29259  10.789   6.273   1.928
56835W        W29260  14.081  16.606  11.910
56836W        W29261  44.487  24.084  11.378
56837W        W29262  44.894  16.612  13.403
56838W        W29263  41.882  41.448   1.322
56839W        W29264  21.716   6.885  10.628
56840W        W29265   3.532   1.418  13.770
56841W        W29266   1.679  11.727   3.914
56842W        W29267  41.507  36.100   2.957
56843W        W29268  31.376   2.739   3.660
56844W        W29269  41.928   6.833  14.397
56845W        W29270  40.031   9.863  13.285
56846W        W29271  43.580   5.771  11.493
56847W        W29272  11.409   8.120  11.536
56848W        W29273  33.620   1.307  14.883
56849W        W29274  37.557  33.846   1.398
56850W        W29275  22.456  39.093  12.655
56851W        W29276  20.762  32.303   1.751
56852W        W29277  27.612  22.037  12.482
56853W        W29278   3.948  28.045   2.335
56854W        W29279  21.283  19.815  14.219
56855W        W29280  14.089  13.215   3.111
56856W        W29281  18.691  20.521  11.902
56857W        W29282  35.841   6.851   5.337
56858W        W29283  30.877  43.913   1.864
56859W        W29284  17.732  33.518   3.635
56860W        W29285  32.735   8.213  13.469
56861W        W29286  32.616  11.337  14.778
56862W        W29287  15.154  37.042  12.190
56863W        W29288   2.830   5.235  10.884
56864W        W29289  20.764   6.245   2.228
56865W        W29290  29.175   2.733  10.681
56866W        W29291  30.305  26.495  13.434
56867W        W29292  39.562   6.245  13.808
56868W        W29293  21.654  36.000  13.066
56869W        W29294  43.384  42.087   2.723
56870W        W29295  43.090   4.328  12.985
56871W        W29296  28.300   3.768  15.000
56872W        W29297  10.833  14.733  14.003
56873W        W29298  38.139  35.878   0.970
56874W        W29299   8.847  24.775   0.208
56875W        W29300  37.063   1.768  13.280
56876W        W29301  16.544  13.212   3.992
56877W        W29302  15.158  32.673   1.295
56878W        W29303   7.797  21.983  14.750
56879W        W29304   7.294   0.869  11.192
56880W        W29305   0.814  28.704   2.647
56881W        W29306  29.270  24.685   5.131
56882W        W29307   9.210  30.437  11.451
56883W        W29308  14.188  30.486   4.199
56884W        W29309  35.860  39.930  10.647
56885W        W29310   9.935  34.583  13.287
56886W        W29311  41.899  12.881   4.416
56887W        W29312  44.707  42.866   0.256
56888W        W29313   6.923   0.199   0.364
56889W        W29314  30.298  38.573   1.873
56890W        W29315   3.663  13.745   0.243
56891W        W29316  28.433  24.929   4.296
56892W        W29317  10.937  22.425  14.618
56893W        W29318  26.748   0.353   4.789
56894W        W29319   5.722  28.941  12.583
56895W        W29320  16.827  37.755  11.495
56896W        W29321  24.949   4.727   0.983
56897W        W29322  42.261  13.199   3.678
56898W        W29323  11.307  31.240   4.421
56899W        W29324  30.963  43.509  13.368
56900W        W29325   3.293  39.251   4.338
56901W        W29326  37.014   0.962   2.370
56902W        W29327   7.825  31.009   4.878
56903W        W29328   3.733   0.947  10.739
56904W        W29329  10.387  12.010  14.801
56905W        W29330  38.930  13.371   3.780
56906W        W29331  12.184   7.905  13.399
56907W        W29332   2.720  41.552  12.399
56908W        W29333  34.006  32.845   3.762
56909W        W29334  25.034  12.876  12.500
56910W        W29335  13.819   4.277   1.373
56911W        W29336   3.708   5.779   4.580
56912W        W29337  33.384  32.447  14.045
56913W        W29338  35.975  15.265   3.586
56914W        W29339  15.679  20.506   1.304
56915W        W29340  22.490  24.205  14.351
56916W        W29341  40.950  44.535   3.725
56917W        W29342  15.042  36.571   4.223
56918W        W29343   2.017  31.032  11.242
56919W        W29344  33.407  43.890   4.187
56920W        W29345  21.476  29.722   5.090
56921W        W29346  28.100  42.369  10.539
56922W        W29347   1.221  44.986  12.541
56923W        W29348   4.995   9.920   4.518
56924W        W29349  14.405  13.151   0.045
56925W        W29350   0.805  31.588  12.959
56926W        W29351   7.258  34.430  11.477
56927W        W29352  17.079   3.540  12.379
56928W        W29353  26.626   2.418  10.937
56929W        W29354  24.450  26.698   0.421
56930W        W29355   0.358  11.377   0.232
56931W        W29356  35.484  41.407  10.946
56932W        W29357   3.269  20.040   3.893
56933W        W29358  21.115   4.900   4.019
56934W        W29359  11.815  20.112  14.449
56935W        W29360  43.465  42.333  10.686
56936W        W29361  44.554  17.710  11.541
56937W        W29362  27.066  24.178   4.580
56938W        W29363  13.207  23.698   2.751
56939W        W29364  33.342   0.469   2.414
56940W        W29365  21.630  24.579  14.054
56941W        W29366  37.523  21.860   3.759
56942W        W29367   9.583   6.383   2.618
56943W        W29368  42.393  12.757  10.606
56944W        W29369  33.602  10.645   0.825
56945W        W29370  26.141  28.084  14.304
56946W        W29371   4.399  20.345  13.826
56947W        W29372  26.137  28.759  12.109
56948W        W29373  34.954  39.341   0.365
56949W        W29374  24.759   2.811  12.490
56950W        W29375  43.719  43.371   4.109
56951W        W29376  21.314  31.993  13.540
56952W        W29377  15.772  28.928  12.516
56953W        W29378  24.430  30.084   1.408
56954W        W29379  31.435  36.192   3.731
56955W        W29380  13.784  32.617   4.369
56956W        W29381  22.209  25.860   4.915
56957W        W29382  15.347  15.739   2.308
56958W        W29383  18.334  15.555  12.375
56959W        W29384  35.271  25.035   0.353
56960W        W29385  25.602  40.480  11.507
56961W        W29386   7.851  20.653   0.222
56962W        W29387  11.223  19.289   3.334
56963W        W29388  14.331  44.956  10.454
56964W        W29389  32.018  40.926  11.499
56965W        W29390  27.389  32.900   0.436
56966W        W29391   7.269  13.243   2.859
56967W        W29392  22.124  13.341  10.655
56968W        W29393  30.742   7.934   2.196
56969W        W29394   1.059  40.231   5.304
56970W        W29395  43.034  17.740   1.892
56971W        W29396  37.587  29.860   4.032
56972W        W29397   1.840  41.222   1.423
56973W        W29398  35.060   2.356  13.875
56974W        W29399  17.101  26.868   4.624
56975W        W29400  38.872  21.703  10.907
56976W        W29401  12.265  11.889   4.617
56977W        W29402   9.354  44.829   3.761
56978W        W29403  21.371  40.352   1.275
56979W        W29404   7.365  13.358   2.367
56980W        W29405  38.683  20.511   2.222
56981W        W29406  13.457  42.021   2.812
56982W        W29407  22.201  43.532   0.795
56983W        W29408  19.033  19.256  10.600
56984W        W29409  17.577  24.837   0.868
56985W        W29410  10.526  22.663  12.431
56986W        W29411  14.542  27.745   9.942
56987W        W29412  43.261  16.628  11.778
56988W        W29413  13.244  40.390   1.767
56989W        W29414  34.204  17.539   0.239
56990W        W29415  22.803  39.814   3.298
56991W        W29416  13.208  11.685  14.301
56992W        W29417  40.477  10.212   4.075
56993W        W29418  35.900  35.965   1.577
56994W        W29419  28.678  44.484   0.767
56995W        W29420  29.467  12.879  12.681
56996W        W29421  42.404  38.915   0.919
56997W        W29422   5.709  12.816  11.491
56998W        W29423  34.734  27.128  13.657
56999W        W29424  44.001  40.512   0.267
57000W        W29425   6.240  24.915  13.844
57001W        W29426  36.056   1.273   4.769
57002W        W29427  16.181  33.297   2.352
57003W        W29428  44.504  32.539  12.019
57004W        W29429  29.521   5.751  11.968
57005W        W29430  23.490  38.449   4.203
57006W        W29431  12.152  43.415  14.789
57007W        W29432  11.055  42.967  14.319
57008W        W29433  32.170   0.226  13.920
57009W        W29434   3.012   3.145  14.784
57010W        W29435   6.401  29.125  10.278
57011W        W29436  12.168   1.376  13.566
57012W        W29437  14.585  20.821   4.475
57013W        W29438  35.913  41.121  12.608
57014W        W29439  16.739  30.197  10.971
57015W        W29440  26.576  21.994   2.653
57016W        W29441   4.463  10.672   4.967
57017W        W29442  27.007  29.351   3.687
57018W        W29443  32.052   7.877   2.351
57019W        W29444  31.048  19.712  11.588
57020W        W29445   0.965  44.750  10.258
57021W        W29446  31.034  20.298  14.509
57022W        W29447  35.946   6.036   9.961
57023W        W29448  29.111  35.450  12.067
57024W        W29449  33.126  43.481  12.674
57025W        W29450  19.991  25.563  12.539
57026W        W29451   2.822   7.315   0.269
57027W        W29452  12.105  36.846   2.308
57028W        W29453  43.259  43.549   2.954
57029W        W29454  12.641  16.269   4.329
57030W        W29455   5.867  18.982   1.102
57031W        W29456  26.462  26.675  11.085
57032W        W29457  16.580  34.397  14.279
57033W        W29458  10.829   6.668   3.235
57034W        W29459  32.973  25.873  13.171
57035W        W29460  42.219  11.016  11.140
57036W        W29461   3.125   4.266   2.307
57037W        W29462  22.925  43.322  13.118
57038W        W29463  29.121  40.731  13.781
57039W        W29464   1.299  25.065   0.361
57040W        W29465  23.573  13.571  12.840
57041W        W29466  27.599  26.659   2.212
57042W        W29467  34.866  23.531   0.027
57043W        W29468  37.482  34.949   1.363
57044W        W29469  22.143  19.007  10.903
57045W        W29470  19.729  39.428   1.863
57046W        W29471   0.815  10.854   2.709
57047W        W29472   0.263  15.615   1.579
57048W        W29473   3.146  41.264  10.863
57049W        W29474  16.693  30.015  13.071
57050W        W29475  18.133  31.570   2.377
57051W        W29476  38.924   5.457   3.223
57052W        W29477  25.732  43.319   3.305
57053W        W29478  12.253  19.726  13.645
57054W        W29479  19.707   9.591   4.537
57055W        W29480  19.317  30.269   1.218
57056W        W29481  33.129  30.640  14.749
57057W        W29482   7.015  17.051   3.630
57058W        W29483  22.005  38.990   4.322
57059W        W29484  10.923  14.632   2.323
57060W        W29485   4.400  13.064   3.166
57061W        W29486   1.736   4.192   3.255
57062W        W29487  26.465  21.142   0.228
57063W        W29488  29.991  21.765   4.971
57064W        W29489  14.045  34.651  10.674
57065W        W29490  28.276   1.100   2.250
57066W        W29491   7.566  17.080  11.352
57067W        W29492  11.745   7.107   3.071
57068W        W29493   1.970  19.300  13.597
57069W        W29494  26.290  17.639   2.185
57070W        W29495  25.983  33.458   3.231
57071W        W29496  18.675  37.869  14.035
57072W        W29497  28.046  12.854   3.564
57073W        W29498  13.728   2.339  11.129
57074W        W29499  20.750   8.326   3.638
57075W        W29500  10.438  16.713   3.754
57076W        W29501  42.304   3.460   0.822
57077W        W29502  25.973  11.758   2.312
57078W        W29503   4.244   2.234   2.669
57079W        W29504  18.046   0.419  13.876
57080W        W29505   2.733  36.570  14.893
57081W        W29506  40.889  44.591   0.563
57082W        W29507   3.732  43.774   2.238
57083W        W29508  17.907  16.637   4.322
57084W        W29509  27.752  25.657  14.411
57085W        W29510  21.326  29.448  13.891
57086W        W29511  32.681  28.178  14.003
57087W        W29512  25.977  10.740   2.280
57088W        W29513  28.143  28.384   3.720
57089W        W29514  13.753  33.964  12.889
57090W        W29515  42.404  42.768  14.006
57091W        W29516  42.290  28.006   1.628
57092W        W29517  42.340  13.056  11.185
57093W        W29518  19.042   9.089  13.478
57094W        W29519  24.172  19.630   4.039
57095W        W29520  19.954  20.100  14.344
57096W        W29521  41.139  25.308  14.043
57097W        W29522  31.472  16.227  13.480
57098W        W29523  10.253  37.132  14.038
57099W        W29524  27.664  21.687  13.966
57100W        W29525  34.275  17.275  11.138
57101W        W29526  34.865  15.140   1.744
57102W        W29527  12.940   7.713   3.395
57103W        W29528  18.868  31.217   4.507
57104W        W29529   4.315  17.420   4.106
57105W        W29530  30.623  41.140   0.104
57106W        W29531  10.606  30.576   3.692
57107W        W29532  24.934   2.798  13.795
57108W        W29533  15.556  25.167  11.699
57109W        W29534   0.682  22.074  11.613
57110W        W29535  18.105  33.399  10.243
57111W        W29536  15.239  30.253   1.256
57112W        W29537  31.346  31.467   4.111
57113W        W29538  44.415  34.954  13.444
57114W        W29539  27.049  15.958  11.041
57115W        W29540   0.953  17.803   2.230
57116W        W29541   6.007  11.785   4.141
57117W        W29542  41.879  27.645  11.605
57118W        W29543  42.489  27.033   2.681
57119W        W29544  34.543  22.794  10.640
57120W        W29545   9.347  41.495  12.649
57121W        W29546  15.152  18.730   2.265
57122W        W29547  42.482   2.202   1.240
57123W        W29548  39.025  31.252  13.408
57124W        W29549  28.720  21.439  14.986
57125W        W29550  15.955  18.359   2.247
57126W        W29551   6.429  26.630   2.450
57127W        W29552   1.157  37.645  13.469
57128W        W29553  32.435  26.588  12.913
57129W        W29554  38.405  29.685  13.709
57130W        W29555  28.679  11.021   0.352
57131W        W29556  21.663  12.121   2.575
57132W        W29557  31.000  16.789   2.719
57133W        W29558  19.769  26.645   3.594
57134W        W29559   3.258  15.085  13.884
57135W        W29560   9.661  24.627   2.869
57136W        W29561  18.062   4.266   1.674
57137W        W29562  32.453  14.975   1.260
57138W        W29563  32.370  10.100   0.468
57139W        W29564  22.648  28.436   5.106
57140W        W29565  20.223   5.369   1.450
57141W        W29566  43.135  28.225   0.916
57142W        W29567  26.054   9.885  14.026
57143W        W29568  43.912  32.095   5.018
57144W        W29569  28.739  37.495   1.301
57145W        W29570  43.952  39.401   2.788
57146W        W29571  18.767  17.093  14.163
57147W        W29572  10.026  27.534   4.607
57148W        W29573   6.394  22.679   2.229
57149W        W29574  23.976  19.393   2.242
57150W        W29575  44.164  27.357  11.372
57151W        W29576   5.725  30.815  14.012
57152W        W29577  31.226  40.801   2.830
57153W        W29578  39.331   6.856  12.823
57154W        W29579  36.495  42.880  11.394
57155W        W29580   7.668  11.237  13.867
57156W        W29581  30.661   6.225   0.847
57157W        W29582  24.719  42.516  12.804
57158W        W29583  15.167  22.273  11.614
57159W        W29584  15.956  32.890   1.559
57160W        W29585  31.096  16.420  10.367
57161W        W29586  12.677  17.608   0.300
57162W        W29587  31.744  21.122  13.001
57163W        W29588  10.806  17.352   2.165
57164W        W29589  40.985  27.761  11.612
57165W        W29590  16.617  20.076   4.123
57166W        W29591  24.047  19.724   0.416
57167W        W29592  19.824  37.885   2.802
57168W        W29593  20.231  18.764   2.467
57169W        W29594  24.541   1.302   3.784
57170W        W29595  17.699   7.178  10.666
57171W        W29596  29.391   4.756   0.950
57172W        W29597  43.327  16.687  12.675
57173W        W29598  17.520  30.922   1.471
57174W        W29599  17.414  10.228  11.694
57175W        W29600   9.840  11.784  14.432
57176W        W29601  36.984  39.250  12.067
57177W        W29602   9.690  41.446   3.604
57178W        W29603   0.370  14.454  13.891
57179W        W29604  42.050  23.368  13.397
57180W        W29605  11.982   4.694  10.318
57181W        W29606   7.846  16.707  12.710
57182W        W29607  43.995  10.284  10.432
57183W        W29608  13.274  37.145   1.761
57184W        W29609  14.834  42.444  11.668
57185W        W29610  17.770  34.289  10.195
57186W        W29611  34.966  37.792   1.369
57187W        W29612  15.307  30.523   0.760
57188W        W29613  42.359  27.210   3.697
57189W        W29614  32.445  16.281   0.842
57190W        W29615  26.911   9.300   2.647
57191W        W29616   1.686  23.399  13.950
57192W        W29617   4.068  43.255   3.628
57193W        W29618  40.036  19.722   1.751
57194W        W29619  37.619   7.848  12.397
57195W        W29620  26.501  42.815   2.719
57196W        W29621  44.455  10.559   3.222
57197W        W29622   4.452   1.823  13.473
57198W        W29623  39.280  42.948   0.731
57199W        W29624  30.505   3.308   1.918
57200W        W29625  10.071  30.682  12.000
57201W        W29626  40.999   0.527   1.532
57202W        W29627  15.368   8.419   4.130
57203W        W29628   3.658  21.065  11.376
57204W        W29629  25.400  21.792   2.882
57205W        W29630  32.725  10.426  10.783
57206W        W29631   7.849   7.219   0.530
57207W        W29632  12.623  42.057  12.903
57208W        W29633  24.659   4.489  14.882
57209W        W29634  43.530  19.957   0.463
57210W        W29635  30.388  19.560   2.554
57211W        W29636   7.720  22.473   0.682
57212W        W29637  31.915  28.474   3.610
57213W        W29638  15.727  25.434   4.073
57214W        W29639  39.495  33.839  11.474
57215W        W29640  27.771   9.761   4.896
57216W        W29641  32.528  24.777  11.544
57217W        W29642  11.656  15.615   1.944
57218W        W29643  23.220   6.265  12.911
57219W        W29644  33.957   6.638   2.722
57220W        W29645  22.114   5.397  14.312
57221W        W29646  34.797  14.617  11.139
57222W        W29647  15.055   5.184   0.349
57223W        W29648  15.132   1.487   3.771
57224W        W29649  28.418  30.403  12.124
57225W        W29650  39.763  40.809  14.987
57226W        W29651  20.866  21.073   0.820
57227W        W29652  26.084  31.522   4.826
57228W        W29653  39.015  39.327  13.832
57229W        W29654  12.315   2.988   5.576
57230W        W29655  22.753  26.542  13.312
57231W        W29656  19.288  23.459  11.578
57232W        W29657   9.742   2.875   0.334
57233W        W29658  13.339  25.664  12.587
57234W        W29659  36.997  32.089   1.316
57235W        W29660  36.650  21.534  12.844
57236W        W29661  44.837   8.424  14.782
57237W        W29662  43.066  40.032  11.506
57238W        W29663  13.236  42.273   1.320
57239W        W29664   6.406   0.297  10.804
57240W        W29665   4.943  38.866   1.821
57241W        W29666  17.521  20.754   2.857
57242W        W29667  42.461   2.184  13.474
57243W        W29668  28.497  32.532   3.236
57244W        W29669  28.137  15.455  10.078
57245W        W29670   7.393  28.689  12.581
57246W        W29671   2.371  19.638  14.046
57247W        W29672  32.450   3.452  14.346
57248W        W29673  29.994  14.116   4.249
57249W        W29674  19.565   8.365   1.176
57250W        W29675  12.624  13.214   3.454
57251W        W29676  38.296  10.788  13.843
57252W        W29677  10.106   2.309   2.485
57253W        W29678  36.760  23.424  11.674
57254W        W29679  13.310  44.317   2.194
57255W        W29680   6.484  25.144   2.262
57256W        W29681  33.734  21.563   4.167
57257W        W29682   1.840  19.381  12.618
57258W        W29683   8.879   5.661   0.497
57259W        W29684  20.627  42.493  10.649
57260W        W29685  35.287  40.636  14.231
57261W        W29686  39.028  33.201   9.838
57262W        W29687  13.745   5.673  13.567
57263W        W29688   2.860  11.417   2.847
57264W        W29689   7.529  10.702   2.356
57265W        W29690  30.067  34.978  10.608
57266W        W29691  14.812   3.775   4.934
57267W        W29692  23.094  15.032   1.318
57268W        W29693   3.890   5.973   0.726
57269W        W29694   1.782  13.583   3.344
57270W        W29695  37.596  21.712  13.381
57271W        W29696  18.739  34.381   3.360
57272W        W29697  41.293   4.881  13.081
57273W        W29698  12.895  41.552   3.806
57274W        W29699  32.329  38.308  13.014
57275W        W29700  20.749  11.717   4.533
57276W        W29701   4.741  29.486   4.156
57277W        W29702  42.462   1.959   4.767
57278W        W29703   6.678  44.420   2.263
57279W        W29704  32.430  17.289  11.934
57280W        W29705  26.942  13.284  11.691
57281W        W29706   1.177  17.348  14.990
57282W        W29707  40.649   6.158   1.437
57283W        W29708  40.040   7.236  11.938
57284W        W29709  27.363  26.497  11.265
57285W        W29710   3.967  35.130  10.781
57286W        W29711  27.626  37.593  11.011
57287W        W29712  25.400   3.731  14.800
57288W        W29713  18.831  44.484  14.375
57289W        W29714  38.067  32.345   1.898
57290W        W29715   7.724  11.245   4.487
57291W        W29716  26.483  41.058   2.859
57292W        W29717  25.951  35.065  13.408
57293W        W29718  38.979   0.408   2.980
57294W        W29719  39.968  15.913   1.118
57295W        W29720  37.935  23.813  12.059
57296W        W29721  37.245  29.476   0.737
57297W        W29722  14.624  18.434  13.391
57298W        W29723   5.183  28.067  10.546
57299W        W29724   1.900  12.111   2.151
57300W        W29725  38.912  20.631   4.279
57301W        W29726  23.147  18.541  11.938
57302W        W29727  29.860  34.265   2.879
57303W        W29728  38.330   1.299   4.200
57304W        W29729  15.565  34.666  10.240
57305W        W29730   4.923   1.860  11.208
57306W        W29731  32.980  40.060  12.009
57307W        W29732  31.685  18.727  12.095
57308W        W29733   2.783  20.745   3.309
57309W        W29734   8.456  43.034  10.782
57310W        W29735   3.048  14.228  11.838
57311W        W29736  36.482  22.073   3.688
57312W        W29737  11.273  42.903  10.703
57313W        W29738   0.711  42.429   1.792
57314W        W29739   1.294  17.170   3.673
57315W        W29740  40.605  21.316   2.836
57316W        W29741  26.930  15.727  10.594
57317W        W29742  28.142  31.698   2.208
57318W        W29743  21.780  31.947  13.163
57319W        W29744  43.799  11.673   4.283
57320W        W29745  29.903  36.635  11.157
57321W        W29746  44.386   6.484   3.700
57322W        W29747  41.139  22.896  13.436
57323W        W29748  29.704  19.318  14.800
57324W        W29749  28.579   5.039  10.540
57325W        W29750  24.040  16.184   0.823
57326W        W29751  16.354  34.660   1.840
57327W        W29752   4.661  33.829  11.202
57328W        W29753  35.584   7.239  11.820
57329W        W29754  38.084  20.062   1.159
57330W        W29755   1.057   1.671  11.195
57331W        W29756  34.448  30.185   0.264
57332W        W29757  21.180  24.669  13.805
57333W        W29758   0.465  31.601  14.780
57334W        W29759  32.350  10.861  11.146
57335W        W29760  29.061  20.256  13.754
57336W        W29761  18.688  43.539   4.883
57337W        W29762  35.320  44.833  13.054
57338W        W29763  44.736   1.989   2.831
57339W        W29764  14.559  35.546   2.661
57340W        W29765  18.736  40.556  14.863
57341W        W29766   5.866  16.715   3.225
57342W        W29767  13.051  33.109  11.303
57343W        W29768  35.894  27.687  11.903
57344W        W29769   7.339   0.811   3.953
57345W        W29770  38.395  38.216   0.830
57346W        W29771   3.229  30.382   4.935
57347W        W29772  36.217  21.011  10.538
57348W        W29773  13.399   5.088  10.137
57349W        W29774  31.903  42.438  14.410
57350W        W29775  12.003   2.784   5.233
57351W        W29776   4.957  15.106  10.309
57352W        W29777  43.681  41.863   1.422
57353W        W29778  19.632  23.994  12.940
57354W        W29779  30.459  18.597   2.251
57355W        W29780  38.420  44.187   2.458
57356W        W29781  41.981  29.514  10.053
57357W        W29782  33.122  18.588  11.111
57358W        W29783   3.821  22.832  10.939
57359W        W29784  16.628  18.213   2.858
57360W        W29785  28.316  14.714  14.838
57361W        W29786  43.995  36.053   2.669
57362W        W29787   3.172  26.125   0.021
57363W        W29788  36.593  16.066   2.841
57364W        W29789  21.426  34.622  13.129
57365W        W29790  36.619  32.091  13.395
57366W        W29791  15.887  41.741   4.118
57367W        W29792  38.109  21.389  12.248
57368W        W29793  14.699  13.378   4.380
57369W        W29794  36.838  31.427   1.772
57370W        W29795   3.448   6.815   2.853
57371W        W29796  44.341   6.999   3.611
57372W        W29797  11.058  30.298  12.071
57373W        W29798   4.256  11.612   0.060
57374W        W29799   2.666   1.697   2.021
57375W        W29800  25.133  37.342  13.736
57376W        W29801  22.110  18.825  12.875
57377W        W29802  22.446   9.879  10.590
57378W        W29803  29.926   7.818  12.333
57379W        W29804   2.423  17.805   4.718
57380W        W29805  38.855  36.654   1.704
57381W        W29806  28.957  36.480   2.638
57382W        W29807  36.958  19.609   1.562
57383W        W29808  22.681  42.779   0.807
57384W        W29809  14.300  14.813   3.678
57385W        W29810   4.036  10.745  10.607
57386W        W29811  31.748  38.128   4.090
57387W        W29812  20.795  37.302  10.213
57388W        W29813  12.449  18.116  14.386
57389W        W29814   0.344  29.686  14.967
57390W        W29815  24.349   4.250   4.397
57391W        W29816  22.512   4.997   0.300
57392W        W29817  37.926  39.062   0.900
57393W        W29818  21.424   2.342  14.306
57394W        W29819  36.355  15.684  11.801
57395W        W29820  39.297  36.487  11.160
57396W        W29821  29.490  35.850  11.940
57397W        W29822  34.376  38.063  11.631
57398W        W29823  10.704   4.865  14.388
57399W        W29824  42.044  33.399   0.750
57400W        W29825   8.914   3.689  11.041
57401W        W29826  39.320  40.418   2.766
57402W        W29827   0.778  26.687  10.526
57403W        W29828  28.395  28.208  11.640
57404W        W29829  21.181  33.977   1.352
57405W        W29830  24.909  40.613  13.858
57406W        W29831  42.914   3.876   2.432
57407W        W29832   6.770  22.329  12.607
57408W        W29833  35.638  13.675  12.142
57409W        W29834   2.360  38.332   1.193
57410W        W29835  10.721  24.998  14.484
57411W        W29836  25.895  18.631   3.304
57412W        W29837  20.184  15.069  11.829
57413W        W29838  20.606  13.113   2.853
57414W        W29839  41.144  31.165   1.883
57415W        W29840  27.673  17.318   1.918
57416W        W29841  29.961  39.991  14.797
57417W        W29842  16.087   3.436   3.762
57418W        W29843  28.491  14.335   4.205
57419W        W29844  16.574  26.139   3.152
57420W        W29845   4.892  11.631   0.425
57421W        W29846  21.713  21.105  13.607
57422W        W29847  40.565  18.122  11.110
57423W        W29848  10.912  33.335  12.024
57424W        W29849  25.870   7.185   1.430
57425W        W29850  39.305  42.212  10.417
57426W        W29851  15.221   3.671   2.406
57427W        W29852  24.632   2.389   2.313
57428W        W29853   6.797  20.403   2.715
57429W        W29854   5.338  18.038  11.934
57430W        W29855  27.966  28.605  14.773
57431W        W29856   8.871  43.211   3.817
57432W        W29857  30.550  27.205  10.947
57433W        W29858  24.554  36.577  10.722
57434W        W29859  34.233   5.199   9.986
57435W        W29860  38.941   6.179  11.494
57436W        W29861  25.045  20.183  14.468
57437W        W29862  15.334  41.019  10.765
57438W        W29863  38.561  25.595  13.113
57439W        W29864   1.915  41.946  14.271
57440W        W29865  38.341  12.917   0.733
57441W        W29866  17.590   4.440  13.359
57442W        W29867   8.867  32.147   3.853
57443W        W29868  44.836  41.012   3.018
57444W        W29869  13.223  25.377  10.295
57445W        W29870   6.783  16.783   2.710
57446W        W29871   4.833  39.543   3.866
57447W        W29872  38.271  27.581   0.318
57448W        W29873  33.125  38.091  12.978
57449W        W29874  27.933   6.990   4.276
57450W        W29875   9.256  23.808  13.290
57451W        W29876  28.151   1.343  10.620
57452W        W29877  43.473   4.334   3.724
57453W        W29878   9.843  19.746   2.326
57454W        W29879  23.510  20.768   3.609
57455W        W29880  20.812  15.224  13.530
57456W        W29881  32.686  29.960   0.192
57457W        W29882  20.326  38.067  10.527
57458W        W29883  19.120  12.162   3.693
57459W        W29884  35.554  40.304  13.923
57460W        W29885   0.985  25.791  11.995
57461W        W29886   8.625   7.880   4.013
57462W        W29887  37.928  10.009   4.546
57463W        W29888  19.005  25.688   3.261
57464W        W29889  18.198   2.352  12.339
57465W        W29890  30.123  41.813  14.009
57466W        W29891   3.964  21.976  12.553
57467W        W29892  25.382  37.869  11.606
57468W        W29893  32.538   0.992  14.139
57469W        W29894  14.136  14.634  13.591
57470W        W29895  41.877   4.488   2.643
57471W        W29896  37.445  30.801   0.246
57472W        W29897  38.965  13.124   0.991
57473W        W29898  31.691  18.851   5.006
57474W        W29899  36.127  11.933   1.993
57475W        W29900   2.540  29.052   3.223
57476W        W29901   4.217  24.130   2.284
57477W        W29902  38.279  12.195  11.099
57478W        W29903   7.627   8.283  13.952
57479W        W29904   3.151  13.580   3.188
57480W        W29905   3.782  36.726  14.539
57481W        W29906  18.614  32.859   0.323
57482W        W29907  37.055   9.217  14.447
57483W        W29908  35.039  39.029   4.692
57484W        W29909  43.791  39.120   0.380
57485W        W29910   2.379  19.730  14.589
57486W        W29911  13.531  34.675  12.124
57487W        W29912  39.090  24.079  11.103
57488W        W29913   6.986  27.986   2.803
57489W        W29914  39.214  43.568   1.874
57490W        W29915  43.282  20.285   2.570
57491W        W29916  40.073  33.624  10.735
57492W        W29917  41.813   3.458   2.356
57493W        W29918  34.894  14.217  11.898
57494W        W29919  30.382  38.873  10.947
57495W        W29920  42.242  24.513  11.921
57496W        W29921  17.708   9.451  13.165
57497W        W29922   9.976  36.254   3.515
57498W        W29923  14.084   2.742  12.648
57499W        W29924  20.476   7.269  14.829
57500W        W29925  22.742  26.509  11.147
57501W        W29926  31.701  22.273   1.713
57502W        W29927  21.267  12.180   0.303
57503W        W29928  23.422   6.725   2.285
57504W        W29929   4.555  37.099   3.690
57505W        W29930  31.369  14.811  10.660
57506W        W29931  36.861   7.279   1.324
57507W        W29932  20.670  13.641   0.787
57508W        W29933   8.311  15.013  12.968
57509W        W29934   4.192   0.916  10.493
57510W        W29935  43.786  12.922  12.575
57511W        W29936  11.946  36.370   3.587
57512W        W29937  35.390  22.615   0.516
57513W        W29938  19.171  12.593   3.261
57514W        W29939   2.297  39.934  11.575
57515W        W29940   8.624  17.822  10.641
57516W        W29941  19.763  27.678  12.136
57517W        W29942  17.878  25.029  11.533
57518W        W29943  25.508   2.459  14.463
57519W        W29944  11.354  16.070   1.237
57520W        W29945  22.226  24.594   3.800
57521W        W29946  13.602  21.950   5.682
57522W        W29947  14.307  18.676   4.532
57523W        W29948   1.713  39.937   2.708
57524W        W29949  21.800  42.309  11.488
57525W        W29950   4.371   7.454   4.725
57526W        W29951  34.842   2.475  14.384
57527W        W29952  26.456  28.712   4.313
57528W        W29953  29.519  19.813  14.969
57529W        W29954  44.169  36.398  14.518
57530W        W29955   3.974  39.001   0.453
57531W        W29956  37.321  33.703   2.335
57532W        W29957  26.944  39.046  10.822
57533W        W29958  32.683  25.755   2.291
57534W        W29959   2.278  22.716   3.877
57535W        W29960  22.305  37.002  11.759
57536W        W29961  30.178  17.609   2.264
57537W        W29962  21.741  32.924  13.292
57538W        W29963  30.636  39.138   2.143
57539W        W29964  14.383  40.195   2.878
57540W        W29965  18.636  28.237   2.756
57541W        W29966  34.995  16.205   0.829
57542W        W29967  20.402  37.553  11.144
57543W        W29968   2.353  11.509   2.830
57544W        W29969  17.914  27.204   1.666
57545W        W29970  41.563  33.962   1.668
57546W        W29971   9.162   9.208  13.009
57547W        W29972  18.667  14.839  10.644
57548W        W29973  19.996  28.032  11.832
57549W        W29974  17.764  23.159   3.851
57550W        W29975  38.958   1.492  11.608
57551W        W29976  17.287  14.694  12.817
57552W        W29977  16.017   8.874   2.830
57553W        W29978  17.587  44.301   2.907
57554W        W29979   9.612  15.748  11.613
57555W        W29980  11.865   8.774   2.411
57556W        W29981   6.856   6.072  11.529
57557W        W29982  25.245  13.187   2.218
57558W        W29983  10.779  28.106  14.360
57559W        W29984  36.596  39.784   0.911
57560W        W29985   8.071  34.987  13.169
57561W        W29986  41.520  23.096  14.781
57562W        W29987  44.221  30.001  13.757
57563W        W29988   6.755  25.525   3.004
57564W        W29989   8.413   9.733   2.006
57565W        W29990   8.161  16.270  14.931
57566W        W29991   6.391  14.654   0.950
57567W        W29992  28.921  29.914  11.482
57568W        W29993   8.304  42.571  12.691
57569W        W29994  24.018  15.090  10.935
57570W        W29995   3.513  28.815   0.351
57571W        W29996  33.797  29.473  12.183
57572W        W29997  30.044  10.453  12.954
57573W        W29998  20.415  43.007   0.059
57574W        W29999   5.438  17.613  10.692
57575W        W30000  43.830   4.273  13.573
57576W        W30001   6.029  39.434  12.714
57577W        W30002  36.587  15.231   3.149
57578W        W30003   6.545   3.074   2.586
57579W        W30004  10.073  42.865  11.558
57580W        W30005  34.847  37.986  12.127
57581W        W30006   6.396  41.405  10.282
57582W        W30007  35.904  30.571   1.196
57583W        W30008   2.552   6.953  12.825
57584W        W30009  40.968  33.311   5.113
57585W        W30010  27.486  12.720   1.142
57586W        W30011  10.763  25.298   1.413
57587W        W30012   5.349  31.504  12.406
57588W        W30013  21.247  30.917  14.858
57589W        W30014  23.557   9.405  13.885
57590W        W30015   4.262   3.403  11.277
57591W        W30016  32.415  31.505   2.790
57592W        W30017   2.834  37.595  13.634
57593W        W30018  43.814  32.884  10.982
57594W        W30019  24.265  30.528   2.194
57595W        W30020  11.298  33.676   1.245
57596W        W30021  13.189  20.751   1.713
57597W        W30022  12.193  21.662   2.750
57598W        W30023   8.752  19.027  13.137
57599W        W30024  16.324  17.104   2.757
57600W        W30025   9.289  27.976   2.681
57601W        W30026  38.326  39.831   0.963
57602W        W30027  10.866  35.990   5.069
57603W        W30028  18.632  12.391  13.540
57604W        W30029  15.299  22.503  11.169
57605W        W30030  36.359  38.919  12.520
57606W        W30031   4.360  44.726   1.871
57607W        W30032  36.549   1.181   2.182
57608W        W30033  14.614  19.920  13.437
57609W        W30034   6.717  10.830   3.690
57610W        W30035  31.196  24.534  11.724
57611W        W30036  35.575  24.515  13.977
57612W        W30037  24.475  26.109  14.742
57613W        W30038   7.788  15.305  14.474
57614W        W30039   2.259  35.801   0.373
57615W        W30040   0.863  25.660   3.595
57616W        W30041  44.563   6.093   2.912
57617W        W30042   8.653   6.734  10.611
57618W        W30043  37.128  11.807   2.048
57619W        W30044   7.274  15.127   2.726
57620W        W30045  32.140  34.274  11.178
57621W        W30046  41.592  32.673  11.983
57622W        W30047   4.278  17.212   4.574
57623W        W30048  39.088  40.775  13.478
57624W        W30049  18.708  11.734   1.758
57625W        W30050   3.727  29.142  11.597
57626W        W30051   1.918  23.523   3.578
57627W        W30052  34.021   2.438  13.014
57628W        W30053   9.295  36.602  14.716
57629W        W30054  36.493   8.819   3.902
57630W        W30055  37.315  15.119  12.366
57631W        W30056  13.580  28.203  14.296
57632W        W30057   9.599  15.797   4.530
57633W        W30058  41.815  28.382   4.677
57634W        W30059   1.307  27.080   4.530
57635W        W30060   5.887  41.998  10.749
57636W        W30061  13.660  18.259  12.478
57637W        W30062  24.621  38.545   3.566
57638W        W30063  30.328  26.235  11.455
57639W        W30064  12.849   6.011   4.224
57640W        W30065  36.097   8.238   0.787
57641W        W30066   0.903  40.757   2.196
57642W        W30067  28.370  10.495  10.530
57643W        W30068  15.136  32.512   0.381
57644W        W30069   7.992  24.960   2.105
57645W        W30070  27.945  16.110  13.330
57646W        W30071  24.543   9.125  11.021
57647W        W30072  17.875  16.277   1.264
57648W        W30073  30.622  33.494   1.771
57649W        W30074  38.338  34.531   3.212
57650W        W30075  35.160   0.305   1.305
57651W        W30076   8.642  21.586  14.386
57652W        W30077  40.535  13.087  12.525
57653W        W30078  42.942  21.980  12.104
57654W        W30079  13.822  30.511   1.823
57655W        W30080  30.366   8.707   1.343
57656W        W30081  11.127   1.373   4.061
57657W        W30082  23.052  28.448  13.833
57658W        W30083   6.324  18.495  14.012
57659W        W30084   2.261  19.657  12.489
57660W        W30085  43.354   6.101   9.845
57661W        W30086  40.445  23.121   4.045
57662W        W30087  39.792  28.147   2.785
57663W        W30088  31.359  11.240   4.657
57664W        W30089  34.348  40.252  12.464
57665W        W30090  12.783  37.573   0.773
57666W        W30091  43.345  21.463  14.068
57667W        W30092  21.987   7.245  14.994
57668W        W30093   9.667  22.086  12.677
57669W        W30094   5.319  42.458   3.834
57670W        W30095  30.618  26.681  11.036
57671W        W30096  43.334   6.484  14.379
57672W        W30097  44.179   4.382   1.318
57673W        W30098   3.232  17.162  12.064
57674W        W30099  10.915  17.209   0.550
57675W        W30100  31.705   2.738  12.888
57676W        W30101  12.774  35.595   0.472
57677W        W30102  27.587  22.832   5.447
57678W        W30103  36.378  44.635  10.699
57679W        W30104   8.551  12.160  14.270
57680W        W30105   3.263  43.467   4.073
57681W        W30106  32.476  34.659  12.520
57682W        W30107  16.698  41.964  11.190
57683W        W30108  39.850  25.059   0.335
57684W        W30109  25.420   7.339  12.937
57685W        W30110  39.146  11.643   0.770
57686W        W30111  23.238  19.640   2.121
57687W        W30112  32.855  13.099   1.587
57688W        W30113  37.435   9.102  10.248
57689W        W30114  28.090  13.340  13.061
57690W        W30115  22.174  11.781   4.140
57691W        W30116  35.408  15.287  14.490
57692W        W30117  41.748  29.014   0.026
57693W        W30118  39.476  15.416   4.819
57694W        W30119   8.359   9.243   0.698
57695W        W30120  43.697  41.053  11.907
57696W        W30121  14.146   6.944   0.736
57697W        W30122  26.095  32.526  10.465
57698W        W30123  12.166  14.295   4.578
57699W        W30124  15.066  34.808   2.560
57700W        W30125  13.610  20.195  10.610
57701W        W30126   9.526  14.554  13.600
57702W        W30127  40.265  38.920  12.039
57703W        W30128  10.732  11.167  12.032
57704W        W30129  30.944   1.848   0.562
57705W        W30130   2.152   3.382  12.089
57706W        W30131   8.544  12.369   3.763
57707W        W30132  38.087   2.523  13.844
57708W        W30133  35.002  32.983  13.406
57709W        W30134  41.947   8.412   3.388
57710W        W30135  20.534  24.258   1.452
57711W        W30136  44.856   5.929   0.557
57712W        W30137  34.535  36.330  11.130
57713W        W30138  10.695  24.193   3.676
57714W        W30139   2.714   4.634  13.736
57715W        W30140  37.076  28.913  14.927
57716W        W30141  22.766   3.261   3.776
57717W        W30142  15.829  27.424  12.530
57718W        W30143  13.754  14.986  11.293
57719W        W30144  18.593   4.867   3.385
57720W        W30145  24.132  32.640   4.430
57721W        W30146  32.654  32.060   1.989
57722W        W30147  33.519  18.679   1.344
57723W        W30148  24.303  12.509   4.986
57724W        W30149   5.658   1.173  11.112
57725W        W30150  21.060  30.086   1.504
57726W        W30151   2.877  39.800   0.313
57727W        W30152   0.481  25.662   0.304
57728W        W30153  10.162  39.357   5.190
57729W        W30154  11.725  15.575  11.079
57730W        W30155  40.426  41.550  12.328
57731W        W30156  15.310   6.696   4.690
57732W        W30157  16.218  30.213   2.168
57733W        W30158  30.497  21.767   5.066
57734W        W30159  33.433   4.886   4.181
57735W        W30160   7.679  17.214   2.837
57736W        W30161  37.974  39.034   2.804
57737W        W30162  37.476   6.811   1.491
57738W        W30163  30.558   7.178  13.910
57739W        W30164   3.038  17.042  13.317
57740W        W30165  15.316   3.392   1.027
57741W        W30166  21.567   0.985   0.287
57742W        W30167  42.020   5.430   2.370
57743W        W30168  38.038  20.748   0.764
57744W        W30169   1.235  24.479   2.281
57745W        W30170  30.073  18.164   0.982
57746W        W30171  14.666   4.629   3.085
57747W        W30172   2.317  35.742  11.102
57748W        W30173  15.194  26.041   1.400
57749W        W30174  36.969  33.527   4.264
57750W        W30175  42.223  11.660   3.450
57751W        W30176   1.125  22.098  11.327
57752W        W30177  13.494  33.715  12.073
57753W        W30178  32.583  41.400  13.956
57754W        W30179   2.801  30.155   2.225
57755W        W30180  31.124  10.709   2.357
57756W        W30181  17.810  28.198   2.899
57757W        W30182  39.296   5.386   1.907
57758W        W30183   5.902  24.770   2.673
57759W        W30184  27.459  15.092   2.408
57760W        W30185  10.615   9.813  13.437
57761W        W30186  12.391   1.807  12.383
57762W        W30187   9.550  33.601   0.689
57763W        W30188  24.583   9.166  13.140
57764W        W30189  35.537  15.009   3.699
57765W        W30190  10.727   5.871   3.604
57766W        W30191  39.023  29.486   3.123
57767W        W30192  44.954   9.470   0.460
57768W        W30193  22.313  32.562  14.806
57769W        W30194  17.523   6.484   4.082
57770W        W30195  41.601   5.545   1.905
57771W        W30196  39.903  22.074   0.785
57772W        W30197  37.033   4.822   0.886
57773W        W30198  21.731   1.234   2.369
57774W        W30199  41.730  25.731  11.624
57775W        W30200  42.758   6.136  14.757
57776W        W30201  33.940  14.388   3.105
57777W        W30202   4.183  27.515   4.688
57778W        W30203   8.800  38.316   0.367
57779W        W30204  33.142  14.928   0.675
57780W        W30205  26.535  14.874  12.341
57781W        W30206  42.372  10.077  12.410
57782W        W30207  14.354  40.345   1.909
57783W        W30208  39.524   1.901   3.747
57784W        W30209  19.958  27.134   0.815
57785W        W30210  42.944   8.578  14.693
57786W        W30211  37.546  38.943   4.572
57787W        W30212  11.419  24.499  10.033
57788W        W30213  14.048  22.311  12.171
57789W        W30214   2.754  13.866  11.588
57790W        W30215  42.783   6.182   0.295
57791W        W30216   6.816  34.965   2.336
57792W        W30217  12.103  11.704   0.440
57793W        W30218  24.148  36.113   5.095
57794W        W30219  27.956  15.859   1.559
57795W        W30220   6.285   7.304   0.395
57796W        W30221  42.472   3.601   2.267
57797W        W30222  24.646  23.146   0.790
57798W        W30223  14.371  40.127  11.076
57799W        W30224  22.656  17.865   0.454
57800W        W30225  19.238  12.514   1.854
57801W        W30226  25.561  37.589   4.593
57802W        W30227  21.998  25.664   3.075
57803W        W30228   5.910  25.526  12.088
57804W        W30229   1.527  41.948  12.981
57805W        W30230   4.346  21.440   2.359
57806W        W30231  34.513  44.267  12.140
57807W        W30232  31.090  27.566   2.802
57808W        W30233   2.717   1.417  12.569
57809W        W30234  10.178   9.339  11.168
57810W        W30235  35.039   6.145   3.130
57811W        W30236  22.287  11.762   1.392
57812W        W30237   2.025  24.906  14.782
57813W        W30238   5.176   7.116   0.379
57814W        W30239  30.466  43.223  13.815
57815W        W30240  38.003  13.572   2.132
57816W        W30241  21.582   5.006   9.932
57817W        W30242  19.008  24.681   1.402
57818W        W30243  43.458   2.366   4.232
57819W        W30244  30.005  19.268   3.693
57820W        W30245  13.492   0.867   3.130
57821W        W30246   1.058  31.325  14.074
57822W        W30247   3.255  28.620   0.800
57823W        W30248  35.073  43.406   0.713
57824W        W30249   6.924   0.487  10.991
57825W        W30250  33.260   5.769   0.468
57826W        W30251  33.662  33.099  11.140
57827W        W30252   3.327  30.969  14.420
57828W        W30253  42.216   6.984  10.109
57829W        W30254   6.281  24.185  13.362
57830W        W30255  18.168   0.271  12.316
57831W        W30256  39.801  26.643  14.054
57832W        W30257  16.257  24.857   0.103
57833W        W30258  29.411  21.424   2.393
57834W        W30259  23.962   0.523  14.026
57835W        W30260  29.237   5.776  11.087
57836W        W30261  40.015  36.325  12.546
57837W        W30262  41.227  24.756   3.544
57838W        W30263   7.628   1.934  10.524
57839W        W30264   5.171  40.151  13.683
57840W        W30265  38.529  38.990  11.682
57841W        W30266  24.224   6.226   1.470
57842W        W30267  20.256  33.888   0.407
57843W        W30268  12.065   8.810   0.332
57844W        W30269  15.477  26.007   0.582
57845W        W30270  16.985  36.165  14.390
57846W        W30271  18.287   3.197  10.821
57847W        W30272  29.703  41.501  13.883
57848W        W30273  33.115  41.994   4.392
57849W        W30274   2.807   9.105  13.365
57850W        W30275  17.228  13.605   4.536
57851W        W30276  14.749  17.372   0.928
57852W        W30277  26.553  21.217  14.320
57853W        W30278  11.199  27.739  13.449
57854W        W30279  33.526  16.328   4.912
57855W        W30280  27.431  17.114   2.343
57856W        W30281  33.636   6.885  12.987
57857W        W30282  44.728  18.494  14.935
57858W        W30283  18.017  20.292   0.263
57859W        W30284  11.740   2.913   1.803
57860W        W30285  27.733  36.363   3.422
57861W        W30286  26.251   4.529   3.834
57862W        W30287  14.345  33.875  10.278
57863W        W30288  38.910  38.908   2.408
57864W        W30289  39.597  22.233  12.857
57865W        W30290  28.046  29.492   2.193
57866W        W30291  38.454  35.530  10.620
57867W        W30292  25.392  24.778   5.009
57868W        W30293   2.257  20.202  11.795
57869W        W30294  33.519  44.145  13.622
57870W        W30295  18.583  23.992  10.594
57871W        W30296  40.976  33.847  12.746
57872W        W30297  24.295  42.958   1.752
57873W        W30298  13.650  35.959  12.057
57874W        W30299  11.852  40.113   1.317
57875W        W30300  12.888   5.175  12.972
57876W        W30301   2.054  34.664  14.859
57877W        W30302   2.319  12.916   1.385
57878W        W30303   2.712  41.657   2.679
57879W        W30304  41.609  31.306  11.594
57880W        W30305   5.897   8.595  12.590
57881W        W30306  17.822  12.398   3.348
57882W        W30307   8.075  33.474   0.630
57883W        W30308  17.980  42.083  13.967
57884W        W30309  11.872  16.887   4.038
57885W        W30310  13.433  14.443   4.906
57886W        W30311   7.601  32.349  14.273
57887W        W30312  34.143  21.702   2.851
57888W        W30313  37.627   2.052  11.039
57889W        W30314  30.462   8.965  13.633
57890W        W30315   9.341  22.506  10.653
57891W        W30316  14.202  38.839   4.124
57892W        W30317   8.272  34.182   1.429
57893W        W30318  22.328  30.765   3.150
57894W        W30319  31.623  10.079   4.151
57895W        W30320   9.220   8.459   2.823
57896W        W30321  12.658  12.580   0.072
57897W        W30322  37.877  38.884   4.096
57898W        W30323  28.534  29.577   0.188
57899W        W30324  34.053   5.497   1.277
57900W        W30325  40.386  28.958  14.647
57901W        W30326  25.699   8.167   4.180
57902W        W30327  36.931  30.378  14.724
57903W        W30328   3.783   7.412   4.004
57904W        W30329   1.347  23.686   1.939
57905W        W30330  40.253  34.962  10.614
57906W        W30331  22.757  32.621   4.457
57907W        W30332  18.548  27.033   4.881
57908W        W30333   9.452   6.822   3.290
57909W        W30334   0.795  23.419   0.642
57910W        W30335   5.710   1.542  14.959
57911W        W30336  43.746  18.708   1.679
57912W        W30337   8.014  21.621  12.631
57913W        W30338  36.141  16.058   1.972
57914W        W30339  24.536  27.706  13.871
57915W        W30340  35.868   9.186   0.794
57916W        W30341  15.004  16.778   0.405
57917W        W30342   3.706   6.057   1.753
57918W        W30343  12.696  14.471  13.919
57919W        W30344  33.161   1.052  11.080
57920W        W30345  30.443  39.544   3.476
57921W        W30346  26.044  39.113  13.584
57922W        W30347  17.188   6.007  12.445
57923W        W30348  14.811  33.455   4.701
57924W        W30349  37.817  27.359  14.434
57925W        W30350  27.573  37.749   1.816
57926W        W30351  32.127  40.914  13.403
57927W        W30352  32.039  19.678   4.704
57928W        W30353  27.423  30.540  14.343
57929W        W30354   6.210  19.104  13.567
57930W        W30355  29.531   1.338   4.562
57931W        W30356  43.726  19.732  13.016
57932W        W30357  26.015  30.223   1.961
57933W        W30358  18.176  24.974   0.392
57934W        W30359   3.414  44.732   1.878
57935W        W30360  29.870  21.626  10.439
57936W        W30361   7.090  42.340  13.697
57937W        W30362  19.160   3.350  10.693
57938W        W30363  16.132  27.798   3.048
57939W        W30364  25.520   1.344   2.483
57940W        W30365   4.856  25.656   0.774
57941W        W30366  22.220  31.872   4.206
57942W        W30367  38.277  39.802   3.695
57943W        W30368   0.418   8.240  13.365
57944W        W30369   1.056   3.407  10.210
57945W        W30370   8.542  43.094   4.819
57946W        W30371  37.225  10.567   5.363
57947W        W30372   1.061   9.449   3.696
57948W        W30373  25.331  34.175  12.641
57949W        W30374  15.402  37.279  13.602
57950W        W30375  37.152  11.327   2.888
57951W        W30376   7.325   6.131   0.382
57952W        W30377  24.582  12.291  13.564
57953W        W30378  44.332  44.502  14.364
57954W        W30379   0.346   9.389   0.779
57955W        W30380  39.582  23.518  13.338
57956W        W30381  28.998  22.123   4.672
57957W        W30382   6.479  31.498   3.742
57958W        W30383   1.437  34.237   0.627
57959W        W30384  26.198  39.719  11.512
57960W        W30385  23.552  35.643  13.547
57961W        W30386  38.573   9.852   2.621
57962W        W30387  30.972   2.296   5.225
57963W        W30388  17.175   1.436  13.800
57964W        W30389  16.672  21.837   1.279
57965W        W30390  37.802  30.458   1.468
57966W        W30391  21.135   4.773   1.330
57967W        W30392  22.864  17.345   3.104
57968W        W30393  19.251  38.840   0.374
57969W        W30394  44.000  44.553  13.537
57970W        W30395  38.059  29.453  11.722
57971W        W30396  24.430  44.577   1.402
57972W        W30397  17.658  44.831  11.200
57973W        W30398  43.818  22.780  14.914
57974W        W30399  42.766   6.923   1.003
57975W        W30400   6.193   3.912   1.886
57976W        W30401   5.471  11.115  13.852
57977W        W30402  22.814  26.897   2.162
57978W        W30403  30.752   4.465   1.227
57979W        W30404  28.072  27.124  14.804
57980W        W30405   3.350   5.704  13.267
57981W        W30406  16.169  34.740   5.425
57982W        W30407  10.639  18.884   4.195
57983W        W30408  34.679   6.964  11.423
57984W        W30409  17.376   9.067  11.432
57985W        W30410  18.179  43.302   2.795
57986W        W30411  36.114  37.971   0.497
57987W        W30412   1.999   5.654  11.983
57988W        W30413  14.822  30.564  10.781
57989W        W30414  29.695  32.388   0.271
57990W        W30415  38.562  40.812  13.476
57991W        W30416  31.686  37.815  13.753
57992W        W30417  16.917  12.345   2.955
57993W        W30418   8.244  14.073   2.507
57994W        W30419  11.773   3.044  11.492
57995W        W30420   4.409  22.065   3.648
57996W        W30421  16.205  17.000  14.780
57997W        W30422  21.255   0.527   3.745
57998W        W30423  26.588  28.467  14.010
57999W        W30424   5.221  36.192   1.215
58000W        W30425   4.160  13.930   4.408
58001W        W30426  35.144  13.438  13.729
58002W        W30427  37.566   3.012   4.160
58003W        W30428  36.646  22.491  11.952
58004W        W30429  35.604  10.213   4.408
58005W        W30430  37.113  18.359   1.294
58006W        W30431  33.561  29.420  12.631
58007W        W30432  29.481   2.486   2.234
58008W        W30433  30.674  29.541   2.393
58009W        W30434  10.341  19.578   0.397
58010W        W30435  43.899  39.538   3.677
58011W        W30436   8.372  25.732  12.604
58012W        W30437  16.619  37.074   3.724
58013W        W30438  21.648  33.779   2.844
58014W        W30439  15.564  28.073  14.526
58015W        W30440  36.030   7.864  11.962
58016W        W30441  40.988  38.966   2.777
58017W        W30442  29.755   4.828   3.366
58018W        W30443  28.997  30.458   4.562
58019W        W30444  23.458  24.654  12.504
58020W        W30445   5.660   3.955  12.817
58021W        W30446  20.504  24.342   2.869
58022W        W30447  36.632  25.086   3.131
58023W        W30448  23.532  18.050   4.922
58024W        W30449   7.882   9.577  12.550
58025W        W30450  12.834  19.980   2.236
58026W        W30451  22.010  16.534   3.239
58027W        W30452  11.627  35.778  13.453
58028W        W30453  16.881  24.055  14.264
58029W        W30454  39.060  28.979   3.654
58030W        W30455  31.587  10.835   0.378
58031W        W30456   2.818  33.568  11.022
58032W        W30457  41.350   6.633   2.297
58033W        W30458   7.891  44.659  14.451
58034W        W30459  14.786  31.839   1.228
58035W        W30460   4.928   5.324   2.222
58036W        W30461  41.851   3.198   0.703
58037W        W30462  20.481  21.648  10.933
58038W        W30463  37.091   3.809   1.890
58039W        W30464  28.151  18.598  12.241
58040W        W30465  30.212   3.496   4.994
58041W        W30466   3.496   3.097  11.547
58042W        W30467  11.480  12.707  11.959
58043W        W30468  34.831   1.410   0.993
58044W        W30469   6.373  18.592   1.910
58045W        W30470  17.197  41.387   4.098
58046W        W30471  43.444  18.218   1.643
58047W        W30472   5.389   2.592   4.461
58048W        W30473  34.728  13.422  12.072
58049W        W30474  30.200  10.818   0.759
58050W        W30475  18.623  15.687   4.956
58051W        W30476  40.553  41.090   0.379
58052W        W30477  25.103  24.014  14.379
58053W        W30478  38.016  22.239  11.995
58054W        W30479  29.427  17.588   0.650
58055W        W30480   6.093   7.703  13.445
58056W        W30481  38.038  38.735   3.206
58057W        W30482  15.778   8.327   3.775
58058W        W30483  23.299  39.513  13.508
58059W        W30484  27.082  14.723  11.611
58060W        W30485  44.496   5.353   2.749
58061W        W30486  44.246  10.277   1.791
58062W        W30487  34.429  11.335   1.322
58063W        W30488  44.425  19.963   4.170
58064W        W30489  24.053  43.043   4.676
58065W        W30490   0.738  18.731  12.508
58066W        W30491  14.521   6.946  13.399
58067W        W30492   0.722  22.406  11.188
58068W        W30493   3.280  13.046  12.903
58069W        W30494  43.705  19.272  12.799
58070W        W30495  35.197  24.125   1.121
58071W        W30496  12.393  26.996  11.419
58072W        W30497  43.914  13.490  11.483
58073W        W30498  39.284  28.699  14.949
58074W        W30499  30.541  21.518  12.619
58075W        W30500  43.379  23.051  14.925
58076W        W30501  39.398  32.680  12.828
58077W        W30502  35.411  23.217   3.512
58078W        W30503   5.864  22.920  11.783
58079W        W30504  43.470  37.085   0.870
58080W        W30505   5.667  25.512   4.233
58081W        W30506  43.793  13.681  13.050
58082W        W30507  21.859  44.966  11.172
58083W        W30508  13.292  41.787   4.586
58084W        W30509  25.697   1.365   4.662
58085W        W30510  40.319   8.605   2.764
58086W        W30511  10.826  32.029  12.051
58087W        W30512  37.975  21.291   2.579
58088W        W30513  28.178  38.857  11.855
58089W        W30514   1.966  22.963  13.904
58090W        W30515  31.941  14.179   4.580
58091W        W30516  11.253  35.861  12.329
58092W        W30517  28.689  39.616  13.490
58093W        W30518  28.668  13.120   4.702
58094W        W30519  28.634  41.217  10.423
58095W        W30520  18.113  34.960   5.109
58096W        W30521  13.802  11.002   3.887
58097W        W30522  18.159  29.044  12.651
58098W        W30523  22.576  28.075   0.264
58099W        W30524  42.234  21.198   0.998
58100W        W30525   2.263   1.911  14.972
58101W        W30526  43.434  44.791   3.387
58102W        W30527  37.480   6.666   5.429
58103W        W30528  34.520  42.157  12.476
58104W        W30529  40.534   6.446   2.886
58105W        W30530  22.506   6.171   1.289
58106W        W30531  28.489   6.720   1.849
58107W        W30532  42.871   8.887  11.568
58108W        W30533   0.727  17.150   0.792
58109W        W30534  22.673  39.277   2.546
58110W        W30535  13.426  23.956  13.822
58111W        W30536  28.368  29.945  12.900
58112W        W30537   5.390  29.189  13.895
58113W        W30538  38.742  42.921   0.794
58114W        W30539  39.007  35.382  12.552
58115W        W30540  12.057   2.824   4.702
58116W        W30541   3.258  14.968  13.312
58117W        W30542  37.439   9.263   1.920
58118W        W30543  19.974  40.549  14.294
58119W        W30544  37.954   0.042  14.971
58120W        W30545  26.925  36.850   1.461
58121W        W30546  40.205   5.563   1.758
58122W        W30547  36.010   7.674  13.887
58123W        W30548  12.248  19.749  10.748
58124W        W30549  15.578  15.604   3.612
58125W        W30550   4.434  25.994   0.806
58126W        W30551  23.664  41.934   4.674
58127W        W30552   5.988   8.409  12.115
58128W        W30553  43.446  22.320   0.685
58129W        W30554   7.194  25.318  12.141
58130W        W30555  10.709  42.398  14.919
58131W        W30556   4.833  27.218   1.737
58132W        W30557  28.488  40.908   2.753
58133W        W30558  26.430   2.941  12.109
58134W        W30559  34.463  38.506   2.282
58135W        W30560  36.843  27.501  14.478
58136W        W30561  23.675   7.320   2.920
58137W        W30562   3.263  35.651  14.072
58138W        W30563  28.639  12.141  11.223
58139W        W30564  32.003  33.084   1.085
58140W        W30565  28.907  11.027  13.331
58141W        W30566  35.505   1.971   4.081
58142W        W30567  39.842  14.860   3.727
58143W        W30568  38.376  38.937   4.168
58144W        W30569   0.699  41.021  11.105
58145W        W30570   8.094  14.290   1.348
58146W        W30571   2.439  40.944  13.965
58147W        W30572  39.795   0.850  14.221
58148W        W30573  32.129   0.401  13.412
58149W        W30574  13.056   7.416  12.483
58150W        W30575  25.172  33.033   0.879
58151W        W30576  10.929  36.607   1.703
58152W        W30577  32.188  17.998  11.304
58153W        W30578  28.305  19.688  12.015
58154W        W30579  18.895   1.932   5.025
58155W        W30580  33.907   9.792   1.273
58156W        W30581  30.739  29.595  11.454
58157W        W30582   3.453  14.307   3.553
58158W        W30583  41.418  43.917  13.073
58159W        W30584  12.231  21.979   0.047
58160W        W30585  19.565  12.323   1.500
58161W        W30586   4.842   2.892   1.466
58162W        W30587  37.680  18.884  14.857
58163W        W30588  35.905  30.025  12.860
58164W        W30589  17.883  17.691   3.187
58165W        W30590  18.661  26.104  13.514
58166W        W30591  27.718  10.933   2.652
58167W        W30592  38.262  20.540   1.253
58168W        W30593  32.659  29.755  11.707
58169W        W30594  30.563  11.293  14.854
58170W        W30595  23.533  20.087  11.990
58171W        W30596   9.506  21.128  14.309
58172W        W30597  23.155  16.569  12.826
58173W        W30598  43.070   0.779   5.029
58174W        W30599  28.078   7.281  10.656
58175W        W30600  43.995  10.822   3.288
58176W        W30601   8.235  40.713  10.649
58177W        W30602  18.219  32.636   1.595
58178W        W30603  32.972  38.044   2.223
58179W        W30604  30.248  23.702   2.768
58180W        W30605  19.543  20.780  11.667
58181W        W30606   8.773  38.820   2.419
58182W        W30607  36.989   9.745   5.138
58183W        W30608   8.432  11.305  10.568
58184W        W30609  34.855  20.060  12.526
58185W        W30610  35.147   3.721   2.320
58186W        W30611  31.990   9.418  12.052
58187W        W30612  24.913   5.661  12.473
58188W        W30613  20.068  16.544   3.609
58189W        W30614  17.522   8.444  14.975
58190W        W30615  16.168  14.621   0.737
58191W        W30616   9.132  17.688   0.266
58192W        W30617   1.815  38.912  12.653
58193W        W30618   9.894  25.884  11.701
58194W        W30619  34.459   4.462  11.031
58195W        W30620   7.846   6.716  13.127
58196W        W30621  39.432   7.120   1.785
58197W        W30622   6.373  23.649  14.022
58198W        W30623   8.857  22.060  11.431
58199W        W30624  22.100  17.644  10.770
58200W        W30625  38.323   8.836  13.907
58201W        W30626  15.041  32.916  12.099
58202W        W30627  11.433  37.324   0.101
58203W        W30628  44.620  36.761  12.967
58204W        W30629  13.230  30.081   3.741
58205W        W30630  16.652   0.015  12.942
58206W        W30631  11.753  12.266  12.035
58207W        W30632  28.012  22.636   3.757
58208W        W30633  29.181  30.198  11.878
58209W        W30634  41.856  10.307  10.727
58210W        W30635   1.737  30.759   3.902
58211W        W30636  29.001  11.288   0.661
58212W        W30637  28.763  27.706  12.819
58213W        W30638  24.296  37.407   2.828
58214W        W30639  27.070  29.633  12.624
58215W        W30640  10.087  27.277   1.526
58216W        W30641   4.293   7.223  13.568
58217W        W30642  21.129  24.032   4.557
58218W        W30643  24.648  16.205   3.614
58219W        W30644  17.784   7.697  10.543
58220W        W30645  12.674  16.074   2.226
58221W        W30646   3.254  22.526   0.951
58222W        W30647  14.188   6.607  12.158
58223W        W30648  28.501  34.933   3.771
58224W        W30649  39.017  44.951   2.721
58225W        W30650   7.406  43.753  13.815
58226W        W30651  11.650  25.273   3.610
58227W        W30652  25.499   7.536   0.312
58228W        W30653  32.020  33.439   1.445
58229W        W30654   0.316  12.091   4.152
58230W        W30655  14.139  23.191   0.024
58231W        W30656  36.908  14.865   0.722
58232W        W30657   8.722   0.501   3.202
58233W        W30658  24.350  28.169   3.784
58234W        W30659  31.561   3.096  11.182
58235W        W30660  17.137  13.999  13.595
58236W        W30661  32.014   4.802  13.116
58237W        W30662  38.403  16.173   3.554
58238W        W30663  32.210  27.674   2.970
58239W        W30664  14.489  13.961  11.040
58240W        W30665   1.829  31.217   4.145
58241W        W30666   3.963   1.720  12.582
58242W        W30667   7.553  27.977  13.767
58243W        W30668  15.352  30.677   0.259
58244W        W30669  30.346  44.949   4.131
58245W        W30670  11.771   3.955  11.781
58246W        W30671  28.522  43.255   4.541
58247W        W30672  14.079  32.218  10.835
58248W        W30673  22.680   8.701   4.684
58249W        W30674  12.395   1.152   0.279
58250W        W30675  17.317  16.576   3.445
58251W        W30676  10.443   7.122  10.612
58252W        W30677   2.512  30.399  14.478
58253W        W30678  26.606  25.788   0.438
58254W        W30679  24.564   3.412   3.675
58255W        W30680   0.340  16.038   2.825
58256W        W30681  43.605  23.954   2.769
58257W        W30682  28.513  35.410  12.693
58258W        W30683  42.984  22.953   0.242
58259W        W30684  30.070  29.734   1.724
58260W        W30685  35.545  36.008  13.773
58261W        W30686  11.322  44.342   2.691
58262W        W30687  31.791  28.252  14.381
58263W        W30688  20.621  19.583  13.526
58264W        W30689  10.232  18.927  13.415
58265W        W30690   3.857  44.359  14.147
58266W        W30691  12.441  39.014  11.461
58267W        W30692  44.770   8.955  11.110
58268W        W30693  10.761  43.482  13.442
58269W        W30694  10.654  19.932  11.302
58270W        W30695  24.215  10.392   0.930
58271W        W30696   2.662  39.506   0.793
58272W        W30697   1.834  12.555  12.880
58273W        W30698  39.183   5.741  11.294
58274W        W30699  26.164  25.528   0.404
58275W        W30700  43.425  36.348   4.192
58276W        W30701  15.122  32.468   4.545
58277W        W30702  29.980  30.899  11.303
58278W        W30703  39.460  33.554  11.929
58279W        W30704  39.811  18.285   4.523
58280W        W30705   3.431  20.648  14.807
58281W        W30706  35.624  25.750  11.249
58282W        W30707   0.690  27.428  12.648
58283W        W30708  18.450  25.128   0.810
58284W        W30709  14.503  44.258  14.789
58285W        W30710  37.372   8.465  12.444
58286W        W30711  25.583  43.119   3.794
58287W        W30712  41.918  18.055  11.395
58288W        W30713  42.981  27.426  12.324
58289W        W30714  40.810  40.804   1.987
58290W        W30715  20.652   1.469   2.338
58291W        W30716   4.198  36.610   0.894
58292W        W30717  23.043  13.319   4.620
58293W        W30718  34.954  34.913   4.543
58294W        W30719  21.107  24.558  14.849
58295W        W30720  34.875   6.905   3.591
58296W        W30721  25.126  16.308   3.797
58297W        W30722  36.788  28.573  12.506
58298W        W30723  22.148  13.606  11.574
58299W        W30724  37.830  40.813   4.419
58300W        W30725  21.094  19.290   4.034
58301W        W30726  14.233  19.187  11.579
58302W        W30727  13.232  22.860   0.935
58303W        W30728  14.945  22.928   0.446
58304W        W30729   5.852  16.621  13.669
58305W        W30730  22.288   4.338   3.256
58306W        W30731   8.596  17.289   3.809
58307W        W30732  35.554  34.133  10.927
58308W        W30733  13.897  36.970  14.286
58309W        W30734  42.199  40.392  10.621
58310W        W30735  32.370   1.473   2.565
58311W        W30736  27.881   6.059   0.862
58312W        W30737  24.529  17.276   2.788
58313W        W30738   0.499   0.734   0.278
58314W        W30739  20.520  42.811  12.569
58315W        W30740  13.622   6.554   1.387
58316W        W30741  36.439  27.588  14.141
58317W        W30742  35.335  20.249  11.615
58318W        W30743  12.226  20.338   0.295
58319W        W30744  13.000  36.273   2.235
58320W        W30745   1.367  11.701  14.451
58321W        W30746  26.492   1.614  14.821
58322W        W30747  24.428  35.323   0.931
58323W        W30748  39.295  15.366   4.326
58324W        W30749  34.000  13.445  11.635
58325W        W30750  11.891   7.941  13.835
58326W        W30751   4.849  29.387  12.330
58327W        W30752  44.505   6.662  14.876
58328W        W30753   1.552  10.385   3.718
58329W        W30754  17.230  23.180  11.888
58330W        W30755  38.574   5.300  10.819
58331W        W30756   5.405   4.855   0.446
58332W        W30757  32.920  43.245  13.536
58333W        W30758  19.031  11.184  12.568
58334W        W30759  24.715  15.858  13.281
58335W        W30760  25.563  39.965   3.626
58336W        W30761  11.429  31.144   2.083
58337W        W30762   5.679  19.383   0.260
58338W        W30763   4.581  14.409   2.719
58339W        W30764  38.043   0.287   2.738
58340W        W30765  14.652  32.933  10.735
58341W        W30766  26.892  27.163  11.706
58342W        W30767  10.094  15.588  10.717
58343W        W30768  41.782  32.131  13.475
58344W        W30769  19.008   9.728   1.506
58345W        W30770   1.873  18.898   0.120
58346W        W30771   6.332  18.256   9.891
58347W        W30772  19.490  42.833  12.814
58348W        W30773  25.659  33.229   9.694
58349W        W30774  37.575   9.136   2.423
58350W        W30775  27.530  18.511   0.345
58351W        W30776  15.217   6.975  10.713
58352W        W30777  32.242  40.112  14.393
58353W        W30778  37.853   5.041  10.344
58354W        W30779  30.110   6.826   1.410
58355W        W30780  20.102  39.862  12.568
58356W        W30781  29.585  11.180   3.237
58357W        W30782  36.095   4.269  11.358
58358W        W30783  37.509  40.443   2.817
58359W        W30784   8.617  31.647  11.622
58360W        W30785  27.797  21.319   0.535
58361W        W30786  32.535  33.259  10.210
58362W        W30787  34.038  27.178  11.343
58363W        W30788  24.262   6.320   3.132
58364W        W30789  30.193  41.918  14.976
58365W        W30790  12.101  34.404  11.251
58366W        W30791   0.795   3.938   3.350
58367W        W30792  27.432  36.947   1.410
58368W        W30793  21.406   3.090  13.818
58369W        W30794  39.259  41.567   0.221
58370W        W30795  40.183  13.421   2.721
58371W        W30796  39.849  43.170  13.057
58372W        W30797   7.682  11.148   3.135
58373W        W30798  33.591  39.560   2.890
58374W        W30799  38.969  26.873  14.578
58375W        W30800   1.015  44.411  12.431
58376W        W30801  26.566  19.179  11.070
58377W        W30802  28.056  26.257   2.298
58378W        W30803  29.873   3.280   4.682
58379W        W30804   7.299  28.351   1.614
58380W        W30805   3.319  33.310  11.977
58381W        W30806   6.393   0.876   2.892
58382W        W30807   8.422  32.987   3.219
58383W        W30808   3.859   1.801   3.692
58384W        W30809  40.247  17.440   4.532
58385W        W30810   6.825  26.173  10.350
58386W        W30811   1.024  29.202   1.676
58387W        W30812  25.421  11.311   2.700
58388W        W30813  19.311  38.343   2.271
58389W        W30814   4.344   8.272   0.224
58390W        W30815  38.822  40.311   0.320
58391W        W30816  39.594  41.429  12.385
58392W        W30817  24.809   7.204   4.500
58393W        W30818  37.262   2.203  12.881
58394W        W30819  25.471  23.191  13.922
58395W        W30820  43.277   6.060   0.334
58396W        W30821  34.078  43.366  11.469
58397W        W30822  41.754  10.346   1.947
58398W        W30823   6.129  15.702  10.929
58399W        W30824  31.052  21.066   5.215
58400W        W30825  13.196   2.885  12.347
58401W        W30826  42.890   4.632  13.441
58402W        W30827  38.100  28.023  14.074
58403W        W30828   0.718  36.115   2.448
58404W        W30829  34.172  38.573   1.323
58405W        W30830  15.619  19.784   3.263
58406W        W30831  29.369  21.107   3.797
58407W        W30832   3.764  17.151  11.185
58408W        W30833   1.543   4.646   1.173
58409W        W30834   7.421  14.591   3.764
58410W        W30835  25.686  17.371   0.323
58411W        W30836  39.287  43.296   1.408
58412W        W30837  27.785  21.751   3.203
58413W        W30838  42.368  37.050   4.207
58414W        W30839  17.992  25.548  12.402
58415W        W30840  30.049  11.836   2.711
58416W        W30841  37.869  28.757  13.534
58417W        W30842  19.719   0.982   2.250
58418W        W30843  43.732  34.922   1.248
58419W        W30844  41.359   5.820   3.868
58420W        W30845  23.392  25.465   1.922
58421W        W30846   9.925  37.449   2.694
58422W        W30847   4.456   0.292  12.159
58423W        W30848   1.293  33.119   9.714
58424W        W30849  16.652   1.217   2.280
58425W        W30850  21.507  44.687  14.846
58426W        W30851  10.113  31.940  10.307
58427W        W30852  37.458   2.854  13.123
58428W        W30853  38.501  32.126   3.893
58429W        W30854  16.260   4.658  12.988
58430W        W30855  18.363   8.728   2.042
58431W        W30856  21.893   2.507  14.457
58432W        W30857  35.788  13.205  11.999
58433W        W30858  33.477  26.639   4.710
58434W        W30859  44.311  11.013  12.696
58435W        W30860  17.076   4.854  10.399
58436W        W30861   3.199   9.843   4.123
58437W        W30862  11.800  40.016  10.557
58438W        W30863   6.386  23.678  10.317
58439W        W30864  43.904  35.426   0.347
58440W        W30865   0.837  30.031   2.235
58441W        W30866  42.543  26.499  12.845
58442W        W30867  14.967  34.393  11.057
58443W        W30868  37.818  12.729  13.008
58444W        W30869   3.760  29.040  14.162
58445W        W30870   0.048  29.449   3.255
58446W        W30871  36.389  29.737   0.921
58447W        W30872   0.313  30.932   2.809
58448W        W30873  39.960  17.250   0.337
58449W        W30874  25.670  38.582  14.331
58450W        W30875   2.518  34.053  10.564
58451W        W30876   6.284  34.520  13.526
58452W        W30877   6.173   9.675   4.610
58453W        W30878  28.463  29.631  11.166
58454W        W30879  15.558  33.732  11.921
58455W        W30880  10.732  27.555  13.619
58456W        W30881   7.936  21.034   2.328
58457W        W30882  29.800  18.254  14.466
58458W        W30883  24.732  21.777   1.920
58459W        W30884  17.575  31.345   1.154
58460W        W30885  11.137  17.525  14.959
58461W        W30886  34.089  16.640  12.285
58462W        W30887  42.973  15.295  11.208
58463W        W30888   1.374  19.566  12.503
58464W        W30889  33.595  19.180  14.917
58465W        W30890  41.863  44.941  14.076
58466W        W30891  18.798  22.646   4.015
58467W        W30892  31.314  42.885  11.641
58468W        W30893  14.307  14.304  14.497
58469W        W30894  13.691  10.350   2.733
58470W        W30895  30.423  18.971  10.688
58471W        W30896  31.124   6.221  13.122
58472W        W30897   1.729  24.377   1.279
58473W        W30898  27.956  29.982   1.989
58474W        W30899  26.232  32.302   4.066
58475W        W30900  41.169  22.805   5.093
58476W        W30901   1.432  18.519   0.866
58477W        W30902  28.715  18.008  10.635
58478W        W30903  37.578  29.227   4.611
58479W        W30904  23.026  12.798  14.314
58480W        W30905  22.262  10.298   0.970
58481W        W30906  44.464  27.550  14.227
58482W        W30907  29.160  20.264   2.641
58483W        W30908  42.835  21.108  14.311
58484W        W30909  30.581  11.704   0.556
58485W        W30910  43.723  12.662  11.265
58486W        W30911  18.121  40.876   2.788
58487W        W30912  28.791   7.874   1.278
58488W        W30913  19.810  18.400   5.080
58489W        W30914  25.741  27.226  10.635
58490W        W30915  36.945  18.217   0.286
58491W        W30916  27.545   0.401  11.448
58492W        W30917  17.561   0.488  11.185
58493W        W30918  35.844  21.693  13.534
58494W        W30919  41.527  23.120   4.847
58495W        W30920  17.172   9.456   1.893
58496W        W30921  35.636   9.628   0.976
58497W        W30922  37.468  14.679  12.640
58498W        W30923  28.936  23.095   3.884
58499W        W30924   7.452  25.089  13.454
58500W        W30925  17.068   5.396  11.672
58501W        W30926  42.987  41.399  14.851
58502W        W30927  37.085  28.942   3.944
58503W        W30928  23.744  20.048   0.914
58504W        W30929  22.160   8.466   3.627
58505W        W30930  23.275  44.191  13.704
58506W        W30931   6.434  23.196  11.125
58507W        W30932  41.277   1.944  13.899
58508W        W30933   1.936  33.015   2.859
58509W        W30934  35.485  23.424  13.081
58510W        W30935  26.648   8.490  14.069
58511W        W30936   2.468   8.357   0.279
58512W        W30937  19.707  30.372   2.313
58513W        W30938  37.065  27.207   2.766
58514W        W30939   9.831  19.148  13.729
58515W        W30940  18.446  24.552  11.187
58516W        W30941  40.483  40.021  12.214
58517W        W30942  36.833  21.065  11.616
58518W        W30943  43.790  27.683  13.408
58519W        W30944  42.589   6.708  13.678
58520W        W30945   9.586   4.322  14.989
58521W        W30946  44.064  15.828  10.947
58522W        W30947  44.468   9.716   4.879
58523W        W30948  22.989   7.836   2.596
58524W        W30949   5.187  21.567   3.593
58525W        W30950  21.460  36.906   4.130
58526W        W30951  42.231  34.837   3.347
58527W        W30952  37.648  27.183  13.228
58528W        W30953  27.477  41.027  12.757
58529W        W30954  10.281  30.940  10.658
58530W        W30955  42.212   3.829  14.902
58531W        W30956  42.681  21.124   4.296
58532W        W30957   7.220  29.236  14.825
58533W        W30958  36.695  25.918   0.696
58534W        W30959   3.444  12.347  11.932
58535W        W30960  22.628  42.457  10.979
58536W        W30961   6.259  11.600  12.510
58537W        W30962  42.906  10.809   3.664
58538W        W30963  11.646  27.461  13.316
58539W        W30964  10.715  39.883   0.037
58540W        W30965  15.086  30.020   1.845
58541W        W30966  23.635  17.827   1.950
58542W        W30967  25.660  44.375   9.885
58543W        W30968  12.389  22.152   3.986
58544W        W30969  31.574   2.202   1.488
58545W        W30970  22.633  24.616   1.157
58546W        W30971  44.191  43.690  13.412
58547W        W30972   2.879  42.049   0.249
58548W        W30973  37.373   1.711   4.686
58549W        W30974  25.607  30.011  13.539
58550W        W30975  15.727  23.246   0.806
58551W        W30976   4.795   7.310   3.610
58552W        W30977  34.442  35.939   1.547
58553W        W30978   3.186   2.336  11.527
58554W        W30979  34.301  13.110  12.019
58555W        W30980  21.552  28.502   1.303
58556W        W30981  40.361   3.829   4.678
58557W        W30982  17.348  20.307  11.543
58558W        W30983  17.734  10.420  12.835
58559W        W30984  32.624  43.586   1.265
58560W        W30985  27.963  37.935  12.383
58561W        W30986  11.859  18.311   1.806
58562W        W30987  16.045  29.042  12.108
58563W        W30988  26.498  20.590   1.512
58564W        W30989  26.744  14.042   1.722
58565W        W30990   2.487  32.584   3.244
58566W        W30991   0.978  39.547   2.833
58567W        W30992   7.781  12.832   0.181
58568W        W30993  35.641   7.838  11.625
58569W        W30994   7.778  39.508   3.365
58570W        W30995  12.290  30.575   1.863
58571W        W30996  32.546  43.477  14.846
58572W        W30997  23.415  44.302  14.287
58573W        W30998   6.851  12.936   1.762
58574W        W30999  18.926   2.485  11.810
58575W        W31000   5.837  35.556  10.914
58576W        W31001  21.541  44.815   4.841
58577W        W31002   5.182  22.652   2.638
58578W        W31003  27.726  36.820   3.135
58579W        W31004  25.863  14.253   3.991
58580W        W31005  15.556  18.251  14.309
58581W        W31006  15.672  40.024  14.317
58582W        W31007  30.040   4.079  10.852
58583W        W31008  37.824  19.315  12.108
58584W        W31009  12.681  33.595  11.957
58585W        W31010  39.377   4.642   0.304
58586W        W31011  19.466  14.992  12.500
58587W        W31012  41.925  24.208  14.029
58588W        W31013  14.727  28.709   0.874
58589W        W31014  18.435  41.520   0.861
58590W        W31015   1.912  11.693   4.383
58591W        W31016  40.036   3.942   3.299
58592W        W31017  37.326  27.482   2.396
58593W        W31018  42.866  14.189   1.719
58594W        W31019  32.619  34.375  11.521
58595W        W31020  20.674   9.170   4.688
58596W        W31021  42.575   1.690   0.462
58597W        W31022  25.578  21.517  12.475
58598W        W31023  41.767  10.059  13.005
58599W        W31024   6.731  30.593  12.401
58600W        W31025  24.113  35.760  10.784
58601W        W31026  32.817  26.953   2.916
58602W        W31027   1.083  11.636  11.162
58603W        W31028  28.542  19.688  14.986
58604W        W31029   7.217  44.559  12.144
58605W        W31030  35.047  37.592   3.291
58606W        W31031  39.430  33.570   2.397
58607W        W31032  39.673  31.393   3.605
58608W        W31033   3.194  20.169  11.437
58609W        W31034  24.902  40.374   1.926
58610W        W31035  41.910  36.436  14.550
58611W        W31036  33.987  44.494   3.713
58612W        W31037  43.366   8.630  10.447
58613W        W31038   3.776  41.833   1.841
58614W        W31039  11.897  13.343  11.570
58615W        W31040  19.336  17.055   1.787
58616W        W31041  11.801  18.098   4.573
58617W        W31042  38.431   2.814  11.209
58618W        W31043  13.214  31.539  12.913
58619W        W31044  19.076  13.820  13.401
58620W        W31045   1.258   2.791   0.193
58621W        W31046  32.432  14.877   2.611
58622W        W31047  18.146  43.839   1.528
58623W        W31048   6.374   6.427  14.011
58624W        W31049  26.018   1.546  13.848
58625W        W31050  38.320   4.496   2.665
58626W        W31051  42.831  21.254  10.622
58627W        W31052  31.475  12.318  12.892
58628W        W31053   1.264   8.907   0.761
58629W        W31054  10.109  29.389   4.112
58630W        W31055  10.758  26.544   0.237
58631W        W31056  41.538   0.005   1.001
58632W        W31057  35.621  42.817  11.370
58633W        W31058  32.352  25.107   0.548
58634W        W31059   0.554   2.385  13.882
58635W        W31060  10.111   3.288   3.712
58636W        W31061   1.383  27.170  12.655
58637W        W31062  10.707  29.539   4.847
58638W        W31063  29.491  38.595  11.885
58639W        W31064  41.293  22.981  10.288
58640W        W31065  39.133  25.098  14.801
58641W        W31066  13.512  24.734   5.493
58642W        W31067  19.129   5.971   4.205
58643W        W31068  11.873  42.913  13.555
58644W        W31069   1.573  11.677  14.938
58645W        W31070  22.294  29.059  12.562
58646W        W31071   4.433   5.625   3.855
58647W        W31072  12.107  32.931   0.904
58648W        W31073  35.601   7.145  10.534
58649W        W31074   5.853  33.713   1.234
58650W        W31075  17.117   5.879   4.282
58651W        W31076  14.096  16.367  11.442
58652W        W31077  38.902  26.487  14.237
58653W        W31078  14.613  29.423   1.198
58654W        W31079  34.540  44.876  11.539
58655W        W31080  36.766  29.511  10.673
58656W        W31081  36.309  13.290   2.734
58657W        W31082  39.494  19.056   1.444
58658W        W31083  31.055  28.938  10.436
58659W        W31084   6.176   7.979  13.905
58660W        W31085  31.386  26.415   0.452
58661W        W31086  41.284  11.293   2.743
58662W        W31087  36.139   8.753   0.788
58663W        W31088  15.207  28.978  13.112
58664W        W31089  26.872  21.541   2.755
58665W        W31090  17.479  36.291  14.354
58666W        W31091  24.057  37.370  13.520
58667W        W31092  14.107  36.961   0.654
58668W        W31093   0.293   5.752   0.324
58669W        W31094   6.163  10.075   4.979
58670W        W31095   4.840  32.602   3.370
58671W        W31096  34.604  21.776   1.895
58672W        W31097   1.233  38.356  11.653
58673W        W31098   1.777  25.234   5.132
58674W        W31099  40.926   0.031   3.770
58675W        W31100  14.015  34.783   4.203
58676W        W31101   3.314  20.149   2.870
58677W        W31102  25.448  12.382   1.339
58678W        W31103  39.642  44.953   4.577
58679W        W31104   4.342  26.147   4.157
58680W        W31105  34.901  22.785  13.988
58681W        W31106  30.705  13.810   2.862
58682W        W31107   7.214   7.381  12.642
58683W        W31108  16.620  41.828   0.350
58684W        W31109  38.823  33.074   3.641
58685W        W31110  18.332  10.340   2.616
58686W        W31111  11.307   0.209  14.043
58687W        W31112  36.488  26.002  13.028
58688W        W31113  23.637  44.662  11.121
58689W        W31114   9.849  24.573  13.336
58690W        W31115  35.491  31.746  13.557
58691W        W31116  36.876  37.975  10.589
58692W        W31117  20.292  16.900  12.339
58693W        W31118  21.435   3.591   4.364
58694W        W31119   1.322  39.928   3.062
58695W        W31120  36.364  24.957  13.005
58696W        W31121  22.868   8.990  14.829
58697W        W31122   0.032  14.810  14.605
58698W        W31123  27.412   5.300   0.309
58699W        W31124  14.899  15.079   3.033
58700W        W31125  30.277  21.196   4.129
58701W        W31126  23.281  19.974   4.039
58702W        W31127   3.688  23.690  13.029
58703W        W31128  29.596  18.439  13.481
58704W        W31129  24.331   1.081  14.864
58705W        W31130  15.369  34.363   3.331
58706W        W31131  14.195  36.293  10.571
58707W        W31132  15.449  29.648  10.673
58708W        W31133   4.835  18.038  10.397
58709W        W31134  13.807   0.164   2.230
58710W        W31135  44.766  33.498  14.260
58711W        W31136  40.945  36.273  12.595
58712W        W31137   3.591   2.270   4.563
58713W        W31138   7.749  34.158  12.022
58714W        W31139  32.020  20.991   4.613
58715W        W31140  23.540  39.323   0.913
58716W        W31141  29.804  24.627   5.148
58717W        W31142  30.730  44.870  10.968
58718W        W31143   9.730  24.927   4.702
58719W        W31144  30.087  39.199  12.164
58720W        W31145  33.392   6.907   3.123
58721W        W31146   8.136   1.392   1.805
58722W        W31147   0.237   1.204   0.314
58723W        W31148  36.411  23.946  13.955
58724W        W31149  21.066  19.876  12.155
58725W        W31150   0.922  39.486   4.268
58726W        W31151  17.848   9.668   3.540
58727W        W31152   5.730  29.468  12.769
58728W        W31153  14.165  28.185  14.964
58729W        W31154  23.649  21.271   3.602
58730W        W31155  18.128  19.583   4.300
58731W        W31156  36.114  15.153   4.505
58732W        W31157  15.318  14.331   4.576
58733W        W31158  16.320  18.472  13.930
58734W        W31159  35.345  32.892   1.687
58735W        W31160   8.398  18.255   4.930
58736W        W31161  17.242  35.787   1.471
58737W        W31162  22.620  21.152  13.719
58738W        W31163  37.455   9.341  14.985
58739W        W31164  33.505  31.609   5.026
58740W        W31165  44.739  34.913  13.867
58741W        W31166  34.111  32.346   3.785
58742W        W31167  23.147  11.085   3.126
58743W        W31168  15.689  29.199   4.034
58744W        W31169  31.156   8.439   3.882
58745W        W31170  26.953  21.892  13.532
58746W        W31171   0.494   1.008   0.741
58747W        W31172   3.242  26.886   4.613
58748W        W31173  39.707  21.045  11.675
58749W        W31174  13.089  26.799  12.717
58750W        W31175   6.894   6.784  10.451
58751W        W31176  23.689  37.021  12.829
58752W        W31177  30.452  11.927   5.026
58753W        W31178  28.428  41.857   0.309
58754W        W31179  37.109  28.772  12.121
58755W        W31180  13.191  41.966  12.093
58756W        W31181  18.356  16.449   1.259
58757W        W31182  27.851  11.870  12.845
58758W        W31183  21.779   1.517  11.094
58759W        W31184  33.587  13.296  13.341
58760W        W31185  19.864  34.119  13.597
58761W        W31186   2.786  38.979  13.590
58762W        W31187  36.549  42.485   2.178
58763W        W31188  26.520   6.599  12.162
58764W        W31189  43.166  37.846  10.536
58765W        W31190  13.195  29.031   0.729
58766W        W31191  18.162  41.997  11.476
58767W        W31192  26.047  10.418   4.273
58768W        W31193  25.635   3.480   9.946
58769W        W31194  18.291  28.143  14.711
58770W        W31195  36.440   4.560  14.915
58771W        W31196  24.248   2.294  13.952
58772W        W31197  21.024  39.959   1.221
58773W        W31198   2.051  15.264  10.423
58774W        W31199   8.938   3.431   1.750
58775W        W31200   3.351   9.594   1.509
58776W        W31201  28.585   0.182  11.510
58777W        W31202  44.532  16.763  11.990
58778W        W31203  31.206   4.321   2.162
58779W        W31204  35.381   4.886   1.941
58780W        W31205  31.145  24.232  13.060
58781W        W31206  14.571  25.792  12.929
58782W        W31207  20.023   8.487  13.423
58783W        W31208   8.548  17.782   1.897
58784W        W31209  12.828  21.451   4.287
58785W        W31210  19.146  30.144   3.658
58786W        W31211  17.374   8.100  13.040
58787W        W31212  31.795  21.257  14.436
58788W        W31213  42.355  39.783  14.869
58789W        W31214  22.039  43.704  14.424
58790W        W31215  10.597  37.872   0.398
58791W        W31216  21.201  29.089  11.088
58792W        W31217  15.140   0.226   2.713
58793W        W31218  39.843  22.700  12.993
58794W        W31219  41.942  33.753  12.429
58795W        W31220   7.323  21.471   4.690
58796W        W31221   8.239  23.034   4.478
58797W        W31222  25.220  11.597  14.309
58798W        W31223  41.369  34.982  12.465
58799W        W31224  30.697  43.024   2.710
58800W        W31225  39.455   9.626   1.872
58801W        W31226  26.139  42.409   1.725
58802W        W31227  10.534  41.022  11.576
58803W        W31228  44.240  21.293   2.593
58804W        W31229   3.356  23.814   3.859
58805W        W31230  43.399  41.202   2.187
58806W        W31231  14.326  21.065   1.411
58807W        W31232  10.853  28.612  14.472
58808W        W31233  32.589  30.899  13.076
58809W        W31234  23.014  28.481  10.534
58810W        W31235   9.937  26.653   1.273
58811W        W31236  22.154   4.430   0.948
58812W        W31237   0.772  29.391   4.138
58813W        W31238  38.958  22.301  13.386
58814W        W31239  31.268  18.658   0.830
58815W        W31240   8.202   6.769  14.394
58816W        W31241  16.086  26.639   3.755
58817W        W31242  43.875  35.275   0.858
58818W        W31243  40.632   3.711   2.769
58819W        W31244   5.905   1.038  12.905
58820W        W31245  15.619  22.465   9.852
58821W        W31246   8.116  32.396  14.334
58822W        W31247  14.185   6.410   0.686
58823W        W31248  11.255  18.829  10.689
58824W        W31249  16.602  35.410  10.899
58825W        W31250  37.420  36.023   0.594
58826W        W31251  21.795  15.742  13.591
58827W        W31252  22.189  25.628   0.512
58828W        W31253  36.138  32.959   3.730
58829W        W31254  31.581  20.741   1.819
58830W        W31255  42.883  16.048  13.873
58831W        W31256   8.809   1.224  10.593
58832W        W31257  23.190  39.461   1.287
58833W        W31258  38.965  20.748  10.789
58834W        W31259  20.151  23.171   1.672
58835W        W31260  39.793   6.866  11.632
58836W        W31261   9.219   3.382   2.729
58837W        W31262  27.636  14.617  13.059
58838W        W31263   4.993  34.843   3.733
58839W        W31264  13.835  43.539  11.593
58840W        W31265  44.774   3.924  14.012
58841W        W31266  25.405   0.768   0.708
58842W        W31267  27.692  17.100  13.599
58843W        W31268  41.732  29.612   0.459
58844W        W31269  27.438   0.892   3.671
58845W        W31270  27.135  19.149  14.949
58846W        W31271  37.400  17.702   3.655
58847W        W31272   6.941  20.712  13.362
58848W        W31273  17.160  23.486  13.323
58849W        W31274  41.679  15.064   0.894
58850W        W31275  37.995  35.056   2.762
58851W        W31276  12.321  41.466  11.542
58852W        W31277   6.778  35.316  13.534
58853W        W31278  31.602  41.390  10.603
58854W        W31279   1.980   1.878  13.459
58855W        W31280  38.343   1.751  11.528
58856W        W31281  28.534   8.708  14.313
58857W        W31282  41.479  15.003   4.087
58858W        W31283   0.318  25.069  11.562
58859W        W31284   0.857  34.487  14.806
58860W        W31285  39.350  26.707  11.229
58861W        W31286  36.635  42.863   4.288
58862W        W31287   9.807   5.992   2.311
58863W        W31288  17.584  27.595  14.788
58864W        W31289  19.707  16.582   2.400
58865W        W31290  14.175  21.000  12.889
58866W        W31291  33.755  41.989   1.882
58867W        W31292   6.858  16.668   4.719
58868W        W31293  11.683  37.350   9.990
58869W        W31294   4.644  42.203  14.292
58870W        W31295  25.568  31.200   0.827
58871W        W31296  25.181  34.494   2.082
58872W        W31297  40.801  24.696   4.554
58873W        W31298  12.402   7.673   4.119
58874W        W31299  22.367  13.847  12.064
58875W        W31300  13.617   5.718   1.743
58876W        W31301   9.640  22.136  11.138
58877W        W31302  19.931  17.656  14.788
58878W        W31303  12.869  21.126   0.225
58879W        W31304  26.473   2.837  14.414
58880W        W31305  23.161  12.611  14.777
58881W        W31306   5.645  36.112   0.661
58882W        W31307   9.766   5.637   3.814
58883W        W31308  36.171  18.292   1.787
58884W        W31309  14.558  41.636   1.408
58885W        W31310   6.991  24.030   1.531
58886W        W31311  28.945  14.031   2.781
58887W        W31312   6.669  37.659  14.528
58888W        W31313  37.538  18.059   1.412
58889W        W31314  15.145  41.030   2.329
58890W        W31315  39.141  31.493   3.771
58891W        W31316  38.598  26.956  11.119
58892W        W31317   5.849  34.381  14.782
58893W        W31318  33.404  39.514   0.534
58894W        W31319  27.064  26.739   2.162
58895W        W31320  21.125  29.146  13.528
58896W        W31321  44.802  35.469   2.668
58897W        W31322  31.178  39.408  13.437
58898W        W31323  34.504  30.955   2.312
58899W        W31324  14.619  39.739   0.399
58900W        W31325  16.636  36.994  10.694
58901W        W31326  40.564  11.904   2.780
58902W        W31327  27.534  10.828  11.636
58903W        W31328   2.384  38.058  12.073
58904W        W31329   9.648   3.645  11.854
58905W        W31330  20.751  39.693  14.526
58906W        W31331  17.619  25.473  11.535
58907W        W31332  44.456  40.990  13.820
58908W        W31333  32.045  13.363   4.015
58909W        W31334  38.044  15.883  12.192
58910W        W31335   5.957  39.588   2.329
58911W        W31336  10.366  31.647  13.048
58912W        W31337   0.261  25.941  12.546
58913W        W31338  39.534  34.394   4.595
58914W        W31339  39.039   2.471  12.420
58915W        W31340  20.679  30.894   1.671
58916W        W31341   8.928  27.703   2.971
58917W        W31342   4.867  34.037   4.089
58918W        W31343  37.581  15.227  14.890
58919W        W31344  18.197  32.930   4.186
58920W        W31345  42.828  42.036   0.262
58921W        W31346   9.609  41.363  13.869
58922W        W31347  17.062  20.118  11.971
58923W        W31348  17.008  43.563  12.990
58924W        W31349  10.690  10.831  14.807
58925W        W31350   8.430  39.084  14.383
58926W        W31351   4.436  10.608   0.791
58927W        W31352   8.664  42.861   1.749
58928W        W31353  36.970   6.369  12.955
58929W        W31354   6.160  16.618  12.598
58930W        W31355  44.764  29.189   3.585
58931W        W31356  11.107  16.070  14.050
58932W        W31357   7.916   9.909  11.073
58933W        W31358  18.258  34.608   1.757
58934W        W31359   4.840  19.779  10.174
58935W        W31360  28.021  15.179  14.918
58936W        W31361  14.850  27.982   4.237
58937W        W31362  21.492  30.162  12.018
58938W        W31363  44.804  39.876  14.258
58939W        W31364  12.137   8.142  12.876
58940W        W31365  37.398   6.650   9.761
58941W        W31366   5.560   5.851  14.057
58942W        W31367  21.220  28.257  12.469
58943W        W31368  16.404  11.778   0.107
58944W        W31369  37.853  15.707  14.868
58945W        W31370  15.033  40.159  12.393
58946W        W31371  28.043  44.406  14.868
58947W        W31372  15.020  32.665  10.480
58948W        W31373  30.396   5.461   1.400
58949W        W31374  21.865  39.919   3.307
58950W        W31375  27.606  22.995  14.894
58951W        W31376   2.484  42.037   1.033
58952W        W31377   0.944  41.506  11.277
58953W        W31378  20.962  35.116  14.924
58954W        W31379  35.947  38.449   0.211
58955W        W31380  36.383  42.407  13.730
58956W        W31381  42.825  30.924   2.338
58957W        W31382  29.037  43.770  12.583
58958W        W31383  30.689  10.945   0.663
58959W        W31384  30.145  21.079  11.772
58960W        W31385  12.944   9.390   1.982
58961W        W31386  43.269  17.286   1.856
58962W        W31387  30.016  32.536  14.889
58963W        W31388  39.954   8.850  14.263
58964W        W31389  34.598  16.828  11.099
58965W        W31390  29.505   9.618   3.531
58966W        W31391  17.096  18.275  12.018
58967W        W31392  21.533  13.131   2.844
58968W        W31393  21.558   9.310  12.547
58969W        W31394  39.981  23.550  10.760
58970W        W31395  20.463   2.483  14.386
58971W        W31396  30.380   2.381  13.091
58972W        W31397  35.946  18.256  12.029
58973W        W31398   6.575   8.232   0.714
58974W        W31399   4.366   5.107   4.351
58975W        W31400   3.488  18.155  13.406
58976W        W31401   1.459  44.934   0.494
58977W        W31402  25.652  23.441  14.365
58978W        W31403  42.364  42.724  11.559
58979W        W31404  44.444  37.464  11.661
58980W        W31405   0.647  39.149   1.202
58981W        W31406  32.137  22.614  10.191
58982W        W31407   0.180  10.671  11.626
58983W        W31408  38.327  32.387   3.086
58984W        W31409  40.373  12.021  11.693
58985W        W31410  22.181  12.219   0.306
58986W        W31411  24.178  13.860   0.795
58987W        W31412  36.492  15.758  10.076
58988W        W31413  35.758  10.873   1.465
58989W        W31414  42.756  36.475   0.125
58990W        W31415   1.290  26.462   3.181
58991W        W31416  35.022  44.966   2.008
58992W        W31417   7.942  44.803   0.799
58993W        W31418  23.120  19.273   4.952
58994W        W31419  22.272  14.930  13.523
58995W        W31420  43.995   0.043   1.713
58996W        W31421  33.977   4.213  11.104
58997W        W31422  24.984  17.881   0.873
58998W        W31423  23.065   6.609   1.384
58999W        W31424   1.526  30.764   2.408
59000W        W31425  21.486  11.830  10.090
59001W        W31426  40.179  30.922  14.304
59002W        W31427  26.413  23.301  13.103
59003W        W31428  38.369  31.989  12.471
59004W        W31429  37.386  16.519   4.588
59005W        W31430  42.721  23.049  10.482
59006W        W31431   2.046  16.828   2.289
59007W        W31432  41.315  23.527  11.566
59008W        W31433  23.161   7.549   3.992
59009W        W31434   2.736  15.587   0.232
59010W        W31435  41.039   8.782   1.742
59011W        W31436  14.575  17.673  14.822
59012W        W31437  17.296  15.826   0.998
59013W        W31438  11.593   8.892  14.334
59014W        W31439  29.168  20.827   3.391
59015W        W31440   0.453  21.278   4.478
59016W        W31441  28.567  10.771   2.735
59017W        W31442  17.643  44.374   0.873
59018W        W31443  21.724  36.904  12.588
59019W        W31444  37.307   9.855  14.913
59020W        W31445  33.520   0.176   4.640
59021W        W31446  15.302   9.052  10.798
59022W        W31447  43.857   5.215  13.697
59023W        W31448  17.055   5.779  13.615
59024W        W31449   0.002  15.843   3.178
59025W        W31450  27.745  11.461   3.566
59026W        W31451  28.549   9.483  13.405
59027W        W31452  35.834  39.519  13.851
59028W        W31453  41.876  24.867   0.951
59029W        W31454   2.770  13.405  11.384
59030W        W31455  21.474  21.360   4.262
59031W        W31456   7.317  36.444  14.317
59032W        W31457  19.198   8.167   2.587
59033W        W31458  17.193  42.496   4.331
59034W        W31459  31.136  20.289  13.505
59035W        W31460  30.922  17.672   4.710
59036W        W31461  39.295   2.937  12.507
59037W        W31462  39.244  22.624  11.124
59038W        W31463   1.975   4.926   0.608
59039W        W31464  20.620  11.410   4.970
59040W        W31465  20.997  16.528   2.727
59041W        W31466   8.952  28.343  11.039
59042W        W31467   4.260  26.148   1.274
59043W        W31468  17.628  12.326  10.651
59044W        W31469  10.501  20.760   0.356
59045W        W31470  24.575  32.658   1.230
59046W        W31471   5.858  38.069  12.635
59047W        W31472  44.859  10.605  13.713
59048W        W31473  21.256  13.662  11.150
59049W        W31474  38.932  32.506  10.660
59050W        W31475   5.465  25.031   1.253
59051W        W31476  16.849  13.705   1.754
59052W        W31477  33.490  30.351  11.059
59053W        W31478  14.856  40.987  11.032
59054W        W31479  28.816  15.420  11.201
59055W        W31480   5.794  27.551   3.122
59056W        W31481  38.598  36.385   3.572
59057W        W31482   7.625  28.614   2.402
59058W        W31483  24.061  43.748  12.125
59059W        W31484  21.522  27.673  13.094
59060W        W31485  22.095   6.115  11.882
59061W        W31486  37.036  26.985  11.633
59062W        W31487  20.584   0.316  14.789
59063W        W31488  29.499   3.442   1.777
59064W        W31489  30.224  32.374  12.653
59065W        W31490  18.195  12.568   3.691
59066W        W31491   7.331  22.177  14.040
59067W        W31492  17.594  36.118  12.324
59068W        W31493  43.908  29.208  13.514
59069W        W31494  30.953   8.776   3.138
59070W        W31495  16.589  39.797  12.432
59071W        W31496  20.040  14.889  10.525
59072W        W31497   8.205   6.639  10.863
59073W        W31498  14.341  28.887  11.719
59074W        W31499  18.162  19.108  12.998
59075W        W31500  12.712  41.768   2.364
59076W        W31501   6.910  27.012  10.770
59077W        W31502  36.529  40.284   2.249
59078W        W31503   4.406   5.213  14.382
59079W        W31504   0.231  31.422   2.787
59080W        W31505  16.884   8.175   3.509
59081W        W31506  38.152   6.528   4.854
59082W        W31507  31.740  44.920  14.042
59083W        W31508  24.960  11.910   5.029
59084W        W31509  26.021  23.928   2.180
59085W        W31510  37.983   1.751   2.725
59086W        W31511  30.894  25.189   0.957
59087W        W31512   3.382   7.337  10.599
59088W        W31513  35.998  29.114   2.170
59089W        W31514   9.786  25.448  11.446
59090W        W31515  30.050  42.694  12.447
59091W        W31516  19.519  25.711   3.286
59092W        W31517  31.095  29.489  11.074
59093W        W31518  33.980   8.679  11.492
59094W        W31519  29.291  21.216  10.171
59095W        W31520  17.121  37.635   3.401
59096W        W31521   0.438  40.779  10.687
59097W        W31522   4.018  43.209   0.923
59098W        W31523  20.545  17.442   0.387
59099W        W31524   8.869   1.022  11.068
59100W        W31525  43.275  38.011   4.691
59101W        W31526  34.664  33.526   3.627
59102W        W31527  17.270   4.744  13.052
59103W        W31528  13.342  18.014   1.811
59104W        W31529  34.036  22.069   2.275
59105W        W31530  38.032  21.979  13.527
59106W        W31531  44.890   8.679   4.150
59107W        W31532  20.699  30.393   0.264
59108W        W31533   4.278  38.502  13.582
59109W        W31534  34.594   0.935   3.155
59110W        W31535  22.856  30.506   4.220
59111W        W31536   1.351  41.472   1.227
59112W        W31537   5.171   8.568   2.134
59113W        W31538  41.560  39.259  10.828
59114W        W31539   1.543  22.508   4.701
59115W        W31540  17.214  25.654   4.620
59116W        W31541  31.487  10.255  14.072
59117W        W31542  12.272  34.144  14.530
59118W        W31543   9.675  17.557  14.957
59119W        W31544   9.306  16.028   2.899
59120W        W31545   4.737  27.938   0.545
59121W        W31546  32.241  24.544   3.210
59122W        W31547  43.306   5.941  10.659
59123W        W31548  18.181   1.490  14.840
59124W        W31549  10.964  23.143  13.490
59125W        W31550  31.889  15.667  11.065
59126W        W31551  20.701  21.135  12.606
59127W        W31552  22.731  40.246   5.217
59128W        W31553   4.024  33.970   1.721
59129W        W31554   1.354   3.823   3.553
59130W        W31555  32.842  12.756   2.413
59131W        W31556  26.196  44.433   1.919
59132W        W31557  38.871  26.059  14.520
59133W        W31558  44.588   0.773  11.110
59134W        W31559  36.820  31.165   3.147
59135W        W31560  19.697  25.762   0.776
59136W        W31561  24.674  15.718   4.089
59137W        W31562  44.743  27.599  13.399
59138W        W31563  33.070  18.897   0.838
59139W        W31564  42.314  35.539   1.675
59140W        W31565  16.422  14.383  13.477
59141W        W31566  22.248   1.355  10.920
59142W        W31567  20.537  44.695   3.587
59143W        W31568  35.384  14.171   3.839
59144W        W31569  39.269  22.044  11.610
59145W        W31570  26.102  40.747   4.517
59146W        W31571  26.687  42.371   2.457
59147W        W31572   0.544  27.692   4.709
59148W        W31573  19.777  35.802  14.922
59149W        W31574  39.161  18.076  12.482
59150W        W31575  41.742   8.978   0.372
59151W        W31576   5.790  17.654  14.942
59152W        W31577   8.748  28.199   4.411
59153W        W31578  21.799  32.574  14.705
59154W        W31579  44.842   9.192  13.507
59155W        W31580   9.893  31.405   4.358
59156W        W31581   1.013  22.044  12.993
59157W        W31582  26.472   8.339  10.802
59158W        W31583  36.121   2.974   3.135
59159W        W31584  43.314  36.913   0.386
59160W        W31585  31.082  24.022   4.902
59161W        W31586  22.555  37.941   1.029
59162W        W31587   4.908  20.991   3.144
59163W        W31588  10.143  11.250  11.354
59164W        W31589  37.361  29.022  14.499
59165W        W31590   5.308  36.494   0.804
59166W        W31591  12.067   0.452  13.371
59167W        W31592  20.667  36.546  11.100
59168W        W31593  11.132  24.370  12.028
59169W        W31594  34.252  18.114  10.599
59170W        W31595  22.971   1.297   1.777
59171W        W31596  33.676   1.101  11.113
59172W        W31597  31.397  37.501  10.993
59173W        W31598   4.267  39.420  11.135
59174W        W31599  28.986  40.406  14.941
59175W        W31600  37.822  30.570  14.843
59176W        W31601  39.550   9.875  13.048
59177W        W31602  20.589  32.782   2.751
59178W        W31603   8.519  18.526  13.943
59179W        W31604  18.792  19.111   4.127
59180W        W31605  14.271  28.636   4.541
59181W        W31606  39.812  31.042  13.938
59182W        W31607  15.904  23.440  14.939
59183W        W31608  42.228  17.242  13.508
59184W        W31609  12.606  15.709  11.469
59185W        W31610  39.400  27.892   1.800
59186W        W31611  27.417  21.339   3.299
59187W        W31612   1.206  42.125   3.740
59188W        W31613  38.187  34.349   2.738
59189W        W31614  44.698  38.016   3.379
59190W        W31615  17.338  26.421   4.152
59191W        W31616  29.899  13.097  11.323
59192W        W31617  29.929  17.774  11.883
59193W        W31618  23.005  36.060   1.353
59194W        W31619  16.087  24.904   2.700
59195W        W31620  21.495   0.400  10.459
59196W        W31621  10.455  17.820   2.937
59197W        W31622  35.473  35.817  11.476
59198W        W31623  20.317  36.372   1.316
59199W        W31624   3.647  21.681  11.141
59200W        W31625   7.494  30.570  10.710
59201W        W31626  19.315  19.138  11.883
59202W        W31627   7.424  44.973   0.764
59203W        W31628  25.722   8.742  10.834
59204W        W31629  43.016  24.293   4.601
59205W        W31630   8.616  32.963  13.066
59206W        W31631  21.131  39.676  13.015
59207W        W31632   5.655  42.339  14.130
59208W        W31633  10.246   7.608   2.770
59209W        W31634  11.558  40.015  13.415
59210W        W31635  27.566  25.599   1.812
59211W        W31636  23.689  13.819  14.979
59212W        W31637   0.961  43.758  13.550
59213W        W31638  14.350  10.275   1.898
59214W        W31639  43.254  37.445  11.101
59215W        W31640  22.625  12.071  10.751
59216W        W31641  17.066  43.360  10.731
59217W        W31642  17.786  21.492   3.286
59218W        W31643  26.198  16.630  12.961
59219W        W31644  12.067   2.006  10.508
59220W        W31645  10.571  40.977   0.297
59221W        W31646  21.173  20.228   0.352
59222W        W31647   9.146  14.592   3.184
59223W        W31648  12.182   9.121   2.175
59224W        W31649   4.740  24.053   1.817
59225W        W31650   8.751   8.794   1.263
59226W        W31651  20.247  28.184  10.829
59227W        W31652  14.103  27.195   2.750
59228W        W31653   7.381  31.903  12.451
59229W        W31654  36.413  28.714  12.820
59230W        W31655  34.331  35.875  11.114
59231W        W31656  26.046  29.234  10.352
59232W        W31657  29.297  24.281  12.370
59233W        W31658  36.383  11.231  13.239
59234W        W31659   2.761  11.676   2.262
59235W        W31660   0.777   6.098   1.355
59236W        W31661   3.024  30.159   1.732
59237W        W31662   4.216  36.571   4.303
59238W        W31663   2.464  11.713  13.051
59239W        W31664   2.503  10.930  12.914
59240W        W31665  31.590  44.350  13.522
59241W        W31666  43.787  25.207  13.288
59242W        W31667  14.814  38.248   4.259
59243W        W31668  40.030  21.593   5.177
59244W        W31669  22.117  20.586   1.705
59245W        W31670  44.854  26.126   3.817
59246W        W31671  21.059  17.148  11.289
59247W        W31672  19.017  35.838  11.505
59248W        W31673  30.159  13.685  11.907
59249W        W31674  26.871  34.103   1.439
59250W        W31675  17.083  30.616   1.450
59251W        W31676  21.030  19.239   2.817
59252W        W31677  13.567   7.348  10.673
59253W        W31678  30.230  28.744  11.512
59254W        W31679  22.069  10.365   2.319
59255W        W31680  11.273  17.687   2.370
59256W        W31681  40.372  13.600  13.988
59257W        W31682  26.113   7.065  14.881
59258W        W31683  31.934  32.103   2.692
59259W        W31684  41.335  23.414   1.769
59260W        W31685  24.314  27.745   4.567
59261W        W31686  36.106   9.241  12.123
59262W        W31687  25.960  32.272   4.514
59263W        W31688  36.097  23.688   4.048
59264W        W31689  20.699  11.938  11.622
59265W        W31690   8.743  42.506   4.986
59266W        W31691  24.749  35.530  14.979
59267W        W31692   6.137  15.145   4.173
59268W        W31693  34.919  43.696   2.611
59269W        W31694   5.260  31.404   0.724
59270W        W31695  28.115  21.598   0.808
59271W        W31696  14.884  19.239   4.884
59272W        W31697   3.018  38.770   0.351
59273W        W31698  16.933  25.570   2.807
59274W        W31699  25.417  24.131  11.099
59275W        W31700  12.543  37.479  11.902
59276W        W31701  26.069  25.986  13.425
59277W        W31702  26.612  10.401  11.186
59278W        W31703   0.440  22.606   3.011
59279W        W31704  15.459  11.663   0.439
59280W        W31705  29.340  32.721   0.116
59281W        W31706  31.585  19.114   2.025
59282W        W31707  29.656  21.210   1.779
59283W        W31708  39.764  16.286   1.396
59284W        W31709  11.885  31.578   2.171
59285W        W31710   1.060   0.373  14.815
59286W        W31711   5.275  25.200   3.349
59287W        W31712  44.370  10.042  11.636
59288W        W31713  15.305  35.789  13.937
59289W        W31714   4.277  26.657   4.349
59290W        W31715  32.080  17.031  10.758
59291W        W31716  20.904  37.381  14.659
59292W        W31717  42.300   2.681   1.302
59293W        W31718  20.704  26.669   0.776
59294W        W31719  26.401   3.394  14.405
59295W        W31720  22.930  26.474   2.680
59296W        W31721  16.845  38.794   2.330
59297W        W31722  29.641   0.460  13.936
59298W        W31723   6.476  27.822   0.501
59299W        W31724  19.588  44.708   1.016
59300W        W31725  10.286  17.068   4.666
59301W        W31726   7.556  22.034   2.262
59302W        W31727  24.452  32.115   0.054
59303W        W31728  17.749  13.855  13.012
59304W        W31729  28.646   2.563   2.342
59305W        W31730  38.532  19.234  14.881
59306W        W31731  42.879  42.727   1.975
59307W        W31732  19.538  40.741  12.750
59308W        W31733  22.743  38.379   3.828
59309W        W31734  36.540  15.132  14.758
59310W        W31735   6.291  22.467  12.459
59311W        W31736  19.357   3.203   0.324
59312W        W31737  41.258  27.564  14.226
59313W        W31738   8.694  42.705   1.237
59314W        W31739  23.098  33.951   4.050
59315W        W31740  41.475  26.383   1.881
59316W        W31741  29.152  18.142   2.298
59317W        W31742   2.834  30.626  11.536
59318W        W31743   2.561   9.260   4.064
59319W        W31744  44.775  34.489  11.430
59320W        W31745  20.570  20.688  11.406
59321W        W31746  20.593  34.092   1.442
59322W        W31747   4.631  33.923  12.128
59323W        W31748  17.580  43.819   2.677
59324W        W31749  40.329  32.135  13.322
59325W        W31750  22.735  42.702   9.939
59326W        W31751  33.986  38.873   2.696
59327W        W31752  24.298  10.077   3.729
59328W        W31753   9.784  37.131  12.603
59329W        W31754   8.329  28.175  12.610
59330W        W31755   9.609   6.816  10.877
59331W        W31756  31.380  36.166   0.287
59332W        W31757  37.603  44.903  10.748
59333W        W31758  23.953  21.961   1.364
59334W        W31759  34.838  13.980  14.687
59335W        W31760   1.638  22.229  11.107
59336W        W31761  25.695   2.460   1.494
59337W        W31762  34.019   7.789   3.176
59338W        W31763  17.292  41.488   5.010
59339W        W31764  16.235  23.082   2.635
59340W        W31765  15.281  13.764  10.615
59341W        W31766   3.001  28.942   0.003
59342W        W31767  38.879   6.735  11.552
59343W        W31768   7.133  34.824   1.400
59344W        W31769  28.053  37.354   0.003
59345W        W31770  29.266  31.944  13.537
59346W        W31771  34.643  30.672   3.125
59347W        W31772   2.137  17.162  14.764
59348W        W31773  26.755   7.748   4.621
59349W        W31774  44.234  39.343   1.353
59350W        W31775  28.095  18.263   3.131
59351W        W31776  43.477  19.454  14.040
59352W        W31777   4.689  33.085  14.348
59353W        W31778  42.797   8.205   1.446
59354W        W31779  13.671  26.500  10.327
59355W        W31780  11.378  21.292  12.432
59356W        W31781   8.621   2.294   0.401
59357W        W31782  23.245   7.620   3.486
59358W        W31783  23.497  17.320   4.459
59359W        W31784  41.722  28.502  10.772
59360W        W31785  10.224  38.450  13.953
59361W        W31786  33.722  41.024  11.233
59362W        W31787  35.287  12.282   2.803
59363W        W31788  34.910  19.029  14.455
59364W        W31789   3.170  42.540   4.660
59365W        W31790   3.163  35.800   4.703
59366W        W31791  39.026  33.206   2.399
59367W        W31792   0.411   1.344   3.888
59368W        W31793  39.341  26.678  10.161
59369W        W31794  24.384   2.814  14.488
59370W        W31795  27.133  16.594   1.708
59371W        W31796   7.846  10.830   1.116
59372W        W31797  18.832  13.591  13.917
59373W        W31798  35.039  16.288   3.706
59374W        W31799  14.188  35.108  14.448
59375W        W31800   0.885  30.728   3.864
59376W        W31801  31.923  30.754  10.980
59377W        W31802  17.647  36.082   3.829
59378W        W31803  42.370  10.227  10.693
59379W        W31804  18.123  11.925   4.265
59380W        W31805  36.948   3.002  12.283
59381W        W31806  20.745  42.008   4.863
59382W        W31807  22.991  22.558   3.225
59383W        W31808  41.418  36.366  10.682
59384W        W31809  30.484  25.791   0.222
59385W        W31810  40.965   7.900  11.173
59386W        W31811  35.537  33.486   3.155
59387W        W31812  26.120  17.615  10.631
59388W        W31813  22.280  33.452   4.497
59389W        W31814   1.481  37.988   3.376
59390W        W31815  35.578  18.645   4.583
59391W        W31816  29.683   5.900  13.466
59392W        W31817   4.823  31.962  14.000
59393W        W31818  44.109  44.500  12.422
59394W        W31819  11.231  32.228  14.442
59395W        W31820  24.063  39.171   0.935
59396W        W31821  30.067  42.129   4.396
59397W        W31822  44.523  15.846   3.814
59398W        W31823  11.852  39.771  11.935
59399W        W31824  14.681  24.258  14.932
59400W        W31825  41.095  38.770  12.445
59401W        W31826  25.854  32.005  12.996
59402W        W31827  21.103  13.240   4.791
59403W        W31828  20.609   4.332  12.379
59404W        W31829  32.301  31.246   3.231
59405W        W31830  27.029  22.377  13.650
59406W        W31831  21.433  15.224   0.295
59407W        W31832  34.124  34.208   4.058
59408W        W31833   1.748   4.380  14.270
59409W        W31834  12.764  15.637   3.332
59410W        W31835  24.704  27.135   1.297
59411W        W31836   5.791  34.073   2.296
59412W        W31837   5.411  22.667  11.671
59413W        W31838   7.289  23.808  13.084
59414W        W31839  10.421  17.700  12.499
59415W        W31840  40.518   7.273   0.807
59416W        W31841  43.849   5.427  13.236
59417W        W31842  21.502   8.871  10.215
59418W        W31843  37.034   0.918   4.323
59419W        W31844  28.088  29.457   0.783
59420W        W31845  25.676  40.880  11.181
59421W        W31846  44.832  28.353  12.946
59422W        W31847  10.093  44.406   0.344
59423W        W31848   7.082   4.422  13.962
59424W        W31849  30.508  23.983   1.417
59425W        W31850  43.771  28.806  13.132
59426W        W31851  15.575  42.528   4.227
59427W        W31852  34.097  29.231   4.028
59428W        W31853   8.335  18.701   4.637
59429W        W31854  25.001  38.009  12.536
59430W        W31855   2.536   8.912   1.238
59431W        W31856  22.431   4.324  14.760
59432W        W31857   5.378  36.223   3.071
59433W        W31858  16.517  42.758   0.207
59434W        W31859  38.245   0.491   0.794
59435W        W31860   0.438   1.677   0.213
59436W        W31861  41.272  33.419   3.708
59437W        W31862  21.030  18.075  11.546
59438W        W31863  38.473  38.570   0.407
59439W        W31864  28.617   0.488   1.736
59440W        W31865  20.609  11.457  10.145
59441W        W31866  42.575  33.983   1.831
59442W        W31867   6.287  11.164   3.606
59443W        W31868  19.957  28.981  11.442
59444W        W31869  25.712  37.100  14.323
59445W        W31870   4.998  13.841   3.573
59446W        W31871  10.387  34.815   2.831
59447W        W31872   0.740  35.069   4.994
59448W        W31873  30.749  22.526  10.611
59449W        W31874  42.235  33.562   2.752
59450W        W31875  11.081  34.428   0.742
59451W        W31876  38.987  41.488   3.277
59452W        W31877  20.645   6.705  12.424
59453W        W31878   4.423  44.348  13.304
59454W        W31879  38.542  11.416   2.771
59455W        W31880  16.643  33.494   1.168
59456W        W31881  36.134  41.844   3.566
59457W        W31882  24.998  36.242   4.909
59458W        W31883  27.418  40.534   3.372
59459W        W31884   5.396  17.547   3.760
59460W        W31885  39.976   0.481  13.467
59461W        W31886  13.591  20.738  11.447
59462W        W31887  41.535  28.600  11.267
59463W        W31888  39.792   1.302   4.417
59464W        W31889  27.088  28.971   0.386
59465W        W31890  32.432   0.776  11.572
59466W        W31891  20.213  37.627  14.461
59467W        W31892  25.666  36.778  11.179
59468W        W31893  20.079   1.922  14.876
59469W        W31894  17.353  29.434  12.442
59470W        W31895  41.045   6.184   2.277
59471W        W31896  18.106   3.901  14.362
59472W        W31897   2.214  16.183   0.931
59473W        W31898  36.968  33.304  14.468
59474W        W31899  19.248  30.071  10.650
59475W        W31900  13.544  44.426   0.014
59476W        W31901  26.226  29.704  14.743
59477W        W31902   6.815  15.186   1.031
59478W        W31903   4.228  16.869   2.237
59479W        W31904  36.982  32.599   4.186
59480W        W31905  11.832  30.987   4.973
59481W        W31906  14.645  25.280  14.682
59482W        W31907  23.789  21.177  11.537
59483W        W31908  42.829  38.380   4.691
59484W        W31909  39.040  22.797  13.509
59485W        W31910  37.059  42.974  13.607
59486W        W31911  17.915  19.079   2.152
59487W        W31912  40.473  43.301  13.708
59488W        W31913  38.445  34.472  14.819
59489W        W31914   3.217  25.724  12.573
59490W        W31915  37.283  39.590   3.951
59491W        W31916   7.631  37.602  12.368
59492W        W31917  16.325  37.348   1.404
59493W        W31918  10.730   0.422   4.684
59494W        W31919   1.222   4.234   3.235
59495W        W31920  42.829  17.952   2.313
59496W        W31921  12.076  20.341  11.589
59497W        W31922  34.968  25.653  13.562
59498W        W31923   8.939  11.300  10.451
59499W        W31924  24.437  11.289   4.166
59500W        W31925   7.479   6.868   0.681
59501W        W31926  16.118   2.843   1.719
59502W        W31927   9.107  34.065  11.416
59503W        W31928   6.912  31.088  13.897
59504W        W31929   2.850  38.377   1.941
59505W        W31930  32.852  17.469   1.978
59506W        W31931  18.947   3.744  11.921
59507W        W31932   4.371  12.598  12.381
59508W        W31933  24.118  29.332   3.811
59509W        W31934  12.140  27.724   2.339
59510W        W31935  31.971  44.397  10.593
59511W        W31936  43.018  32.480  14.696
59512W        W31937   3.831  11.826   0.788
59513W        W31938  28.309  29.571  10.677
59514W        W31939  28.043   1.836  10.447
59515W        W31940  19.184  32.561  10.667
59516W        W31941  38.379  44.669   2.253
59517W        W31942  40.026  35.697   1.722
59518W        W31943   4.464   0.816   0.749
59519W        W31944  39.492   3.391  14.524
59520W        W31945  16.746  44.345   0.975
59521W        W31946  39.029   3.310  14.742
59522W        W31947   2.423   9.262  11.705
59523W        W31948  16.430  16.724   4.482
59524W        W31949  11.162   3.703  12.565
59525W        W31950  11.857  38.533  14.388
59526W        W31951  16.009  36.292   1.267
59527W        W31952   0.426   0.021   1.775
59528W        W31953  37.965  13.152  10.533
59529W        W31954  15.284  32.647  11.419
59530W        W31955  28.167  22.584  12.030
59531W        W31956  12.712   9.673  12.423
59532W        W31957  13.813  15.981   4.786
59533W        W31958  11.324  15.877  11.221
59534W        W31959  36.697   5.113   4.606
59535W        W31960  16.618  38.124   0.981
59536W        W31961  19.302  20.703  14.584
59537W        W31962  13.664  41.079   2.753
59538W        W31963   7.161  29.116  13.395
59539W        W31964  18.178  14.116   1.026
59540W        W31965  19.719  24.458  11.662
59541W        W31966  19.581  35.511   4.124
59542W        W31967  27.549  28.762   2.456
59543W        W31968   9.274  42.952   2.232
59544W        W31969  30.364   1.812   2.717
59545W        W31970  29.708  29.508  11.625
59546W        W31971   2.054  34.084  10.314
59547W        W31972  17.207  32.419   1.451
59548W        W31973  21.114  20.994   3.092
59549W        W31974  30.919  12.405   0.835
59550W        W31975  34.054   6.200   4.664
59551W        W31976  10.183  29.253   2.775
59552W        W31977  16.208  27.640   0.522
59553W        W31978  11.721   1.723  12.983
59554W        W31979  18.180  34.618  11.750
59555W        W31980  44.771  38.150   0.789
59556W        W31981  36.060  41.255   1.808
59557W        W31982  17.570   0.998  10.805
59558W        W31983  33.420  36.030  11.235
59559W        W31984   5.194  43.176  12.160
59560W        W31985  22.054  23.278   3.728
59561W        W31986  17.197   0.764   4.109
59562W        W31987  13.183  17.842  12.902
59563W        W31988  21.507  11.675  11.419
59564W        W31989   5.186  43.857   1.802
59565W        W31990  43.334  10.196   3.295
59566W        W31991  10.685  30.624  10.720
59567W        W31992  34.911  30.490   0.542
59568W        W31993  24.279  19.396  11.999
59569W        W31994  29.734  26.885   1.235
59570W        W31995  25.071  41.385  11.727
59571W        W31996   2.754  26.924   1.210
59572W        W31997  24.757  31.941   3.791
59573W        W31998  25.921  40.912  12.933
59574W        W31999  37.664  39.278  11.636
59575W        W32000   9.764  41.605  10.394
59576W        W32001  38.086  10.918   1.779
59577W        W32002  31.414  35.033   3.719
59578W        W32003   7.688   9.213   1.743
59579W        W32004  35.616  27.093  13.858
59580W        W32005  10.620   1.551  12.494
59581W        W32006  32.589  26.426  14.692
59582W        W32007  16.880   0.303   1.234
59583W        W32008  19.898  35.352   4.521
59584W        W32009  36.581  37.421  13.496
59585W        W32010  20.016  20.581  14.104
59586W        W32011  43.812   1.011  12.799
59587W        W32012  44.992   4.485  12.628
59588W        W32013  22.627  39.123   0.333
59589W        W32014  19.637  33.787   2.226
59590W        W32015  40.847   0.891  14.766
59591W        W32016  17.184  25.714   3.729
59592W        W32017  43.322  42.533   2.372
59593W        W32018  19.055  26.016  14.010
59594W        W32019  40.361  29.327  14.281
59595W        W32020  17.791   1.624  12.660
59596W        W32021  37.377  13.295   2.866
59597W        W32022  10.336  26.198   2.309
59598W        W32023  17.678   2.835  11.472
59599W        W32024   4.653  21.212   2.741
59600W        W32025  16.929  36.399  13.510
59601W        W32026  29.554  15.588   1.988
59602W        W32027  17.419  24.808   3.183
59603W        W32028  11.777  42.905  10.577
59604W        W32029  22.187  37.154   2.887
59605W        W32030  41.931  24.341   0.895
59606W        W32031   4.244   0.887  14.333
59607W        W32032  27.200  13.878  12.096
59608W        W32033  19.594   2.861  10.652
59609W        W32034  38.055   2.871   1.830
59610W        W32035  18.657   0.446  12.633
59611W        W32036   0.416  21.336  14.326
59612W        W32037  18.690  23.037  13.028
59613W        W32038  41.308  22.053   4.263
59614W        W32039  42.179  42.117  12.539
59615W        W32040  43.883   3.424  14.157
59616W        W32041  36.144  22.742   3.194
59617W        W32042  21.078  25.936  14.045
59618W        W32043   9.186  42.764   0.328
59619W        W32044  39.825  39.408  12.530
59620W        W32045  42.732   4.494   3.224
59621W        W32046  11.288  38.501  13.395
59622W        W32047  18.222  26.080  14.477
59623W        W32048  10.027  43.420  11.093
59624W        W32049  31.521  28.978  12.182
59625W        W32050  21.198  26.235  14.934
59626W        W32051  44.557  20.584   2.343
59627W        W32052  38.326  39.488  12.378
59628W        W32053  23.643   8.503  12.652
59629W        W32054  27.287   0.273   1.766
59630W        W32055  19.488   0.519  12.967
59631W        W32056   8.136  41.370   0.722
59632W        W32057  20.698  20.533   2.320
59633W        W32058  31.603   4.690   3.624
59634W        W32059  28.088  25.239  14.523
59635W        W32060  42.326  35.403  10.560
59636W        W32061   7.410  11.790   1.622
59637W        W32062  28.006  32.348  10.027
59638W        W32063  19.125   5.940   0.494
59639W        W32064  22.044   9.860   1.376
59640W        W32065   3.966  11.290  10.629
59641W        W32066   9.346  25.069   3.476
59642W        W32067  35.384  34.100   4.860
59643W        W32068  26.493  21.644   3.140
59644W        W32069   3.158   7.824   2.806
59645W        W32070  31.996  32.777   0.667
59646W        W32071  38.508  36.294   1.686
59647W        W32072  36.789  18.651  13.136
59648W        W32073  37.426  25.665  12.297
59649W        W32074  26.991  43.330  11.167
59650W        W32075  15.327  17.612   0.401
59651W        W32076  27.969  23.556  10.746
59652W        W32077  43.495  29.437  14.208
59653W        W32078  20.669  14.155   0.698
59654W        W32079  17.205  37.144   3.244
59655W        W32080  43.389  35.085  12.412
59656W        W32081  20.186  32.640  11.574
59657W        W32082  16.591  22.709   2.688
59658W        W32083   9.828  16.137  13.671
59659W        W32084  10.700  37.336   2.153
59660W        W32085  21.672  20.055  14.459
59661W        W32086  15.103   9.748   2.806
59662W        W32087  21.539   9.220   1.763
59663W        W32088  18.440  36.015  12.973
59664W        W32089   6.234  25.163   3.683
59665W        W32090  16.113  43.306   2.349
59666W        W32091  30.491   1.385  11.530
59667W        W32092  28.697  20.379  12.366
59668W        W32093  13.257  36.559  12.767
59669W        W32094  22.818   4.428  13.377
59670W        W32095  12.619  10.209   4.355
59671W        W32096  11.665   5.085  12.631
59672W        W32097  30.682  21.662  13.103
59673W        W32098  11.912  14.329   3.165
59674W        W32099  39.914  22.058   1.321
59675W        W32100  38.063  26.889  14.584
59676W        W32101   6.852   0.950   4.031
59677W        W32102   2.964  28.595  10.651
59678W        W32103   9.324   6.454  13.897
59679W        W32104  17.857  17.534  14.455
59680W        W32105  24.208  29.208  13.467
59681W        W32106  37.715  28.089   5.372
59682W        W32107  14.144   6.290   0.172
59683W        W32108   0.279  38.545  14.076
59684W        W32109  35.938  37.088   5.087
59685W        W32110  14.019  23.222   2.272
59686W        W32111  38.740   2.231   3.625
59687W        W32112  18.095  25.982   4.188
59688W        W32113  29.441   4.994  10.842
59689W        W32114  14.086  38.599   1.295
59690W        W32115  14.605  43.364  14.038
59691W        W32116  29.389  29.087  13.953
59692W        W32117  16.138  24.031  11.005
59693W        W32118  15.794  42.016   1.296
59694W        W32119  25.012  39.310   2.292
59695W        W32120  26.984  23.049   2.047
59696W        W32121  20.647  24.992   4.498
59697W        W32122  29.231   3.374   2.702
59698W        W32123  32.091  21.669  11.971
59699W        W32124  38.054  37.756   0.424
59700W        W32125  13.224   1.053  14.003
59701W        W32126   1.204   3.307   1.229
59702W        W32127   3.301  24.750   3.862
59703W        W32128  20.045  16.192  14.134
59704W        W32129   7.623  31.192  13.448
59705W        W32130  20.277  36.659   1.822
59706W        W32131  23.634  32.463   4.286
59707W        W32132   0.387  22.166  13.587
59708W        W32133   3.252   3.700   2.772
59709W        W32134  26.705   9.676  12.084
59710W        W32135  35.747   3.130  14.963
59711W        W32136  42.332  17.228   3.834
59712W        W32137  35.790  32.049   4.687
59713W        W32138  29.342   7.163  11.101
59714W        W32139   3.529  42.955  10.679
59715W        W32140  21.320   9.871   4.577
59716W        W32141  20.814   7.499   3.162
59717W        W32142   0.081  25.385  11.112
59718W        W32143  43.923   9.169  14.739
59719W        W32144  22.791  28.452  14.983
59720W        W32145  10.851  38.600   2.613
59721W        W32146  26.032  21.996  11.577
59722W        W32147  35.778  27.977  13.509
59723W        W32148   7.615  44.310  10.286
59724W        W32149  36.513  37.361  11.708
59725W        W32150  16.516  23.067  12.144
59726W        W32151   4.391  21.223   0.936
59727W        W32152  30.558  33.765   3.240
59728W        W32153  27.173  15.970   2.952
59729W        W32154  35.645   6.007  11.694
59730W        W32155  24.109  30.237  13.017
59731W        W32156  15.093  12.083   3.279
59732W        W32157  18.426  41.595   4.527
59733W        W32158   2.447  40.784   4.601
59734W        W32159  27.756  12.226  12.478
59735W        W32160  17.198  33.880  10.683
59736W        W32161  18.746  22.744   1.347
59737W        W32162  39.926  34.743   1.786
59738W        W32163  33.426  24.387  12.336
59739W        W32164  16.550  22.606  10.695
59740W        W32165  37.387  42.634  13.818
59741W        W32166  27.572  26.990  14.813
59742W        W32167  40.164  35.512   2.999
59743W        W32168  16.211   1.352   4.232
59744W        W32169  31.815  18.561  10.716
59745W        W32170  34.674  33.107  12.219
59746W        W32171  19.175   7.506  12.541
59747W        W32172  23.757  15.394  13.169
59748W        W32173  32.077  27.002   0.122
59749W        W32174   7.413  25.421   4.171
59750W        W32175  10.440  21.092   3.448
59751W        W32176  31.110   1.505   3.236
59752W        W32177  38.176  40.516  14.564
59753W        W32178  25.153  44.762  13.340
59754W        W32179   3.694  22.963  12.492
59755W        W32180  15.367  37.003  13.163
59756W        W32181  35.433  32.526   4.218
59757W        W32182  20.729  19.088  13.549
59758W        W32183  43.830  35.337  14.032
59759W        W32184  38.310  20.618   0.281
59760W        W32185  26.205  10.845  14.563
59761W        W32186  29.075  12.113   2.769
59762W        W32187  27.027  26.188   2.337
59763W        W32188  31.996  29.069  11.717
59764W        W32189  31.069  16.845  13.283
59765W        W32190  19.650  10.698  13.929
59766W        W32191  33.896  11.931   2.228
59767W        W32192  15.118  33.382   0.019
59768W        W32193  25.777  14.713   2.417
59769W        W32194  27.067  11.111   0.007
59770W        W32195  33.594  44.966  13.952
59771W        W32196   3.411  10.298  13.970
59772W        W32197  15.771  40.100  10.582
59773W        W32198  33.940  34.480  13.639
59774W        W32199  23.106   2.878  14.308
59775W        W32200  21.133  33.100   1.793
59776W        W32201  25.480   6.668  14.757
59777W        W32202  42.881   8.970  13.414
59778W        W32203   5.759  38.541   0.348
59779W        W32204  28.282  11.722   4.073
59780W        W32205  42.748  43.375  11.036
59781W        W32206  19.674  15.036  12.995
59782W        W32207  24.798  20.784  11.084
59783W        W32208  23.933  39.677   0.968
59784W        W32209   5.229  27.882  12.895
59785W        W32210  11.213  11.350  13.403
59786W        W32211  10.234   1.139   2.873
59787W        W32212  40.795  11.060  11.113
59788W        W32213  12.591  38.420   3.182
59789W        W32214  30.991   6.445   3.513
59790W        W32215  10.423  17.257   0.375
59791W        W32216  27.692  31.101  13.518
59792W        W32217  22.252   2.454  13.010
59793W        W32218  27.864  19.151   1.559
59794W        W32219   0.293  40.137  14.363
59795W        W32220   2.417  30.657  13.394
59796W        W32221  11.794  18.404  12.433
59797W        W32222  41.498  36.845  14.827
59798W        W32223  39.542  17.342  14.428
59799W        W32224  28.151  40.331   1.913
59800W        W32225  14.621   1.466   4.112
59801W        W32226  15.969  28.074   0.368
59802W        W32227   1.926  37.586  10.342
59803W        W32228  30.436  31.889   3.674
59804W        W32229  44.748  25.440   2.391
59805W        W32230  36.882  30.143  11.926
59806W        W32231  41.767  14.863   0.413
59807W        W32232  39.921  36.525  12.043
59808W        W32233  34.810   5.870  13.739
59809W        W32234  36.099  36.169  14.855
59810W        W32235   2.940  37.013  10.552
59811W        W32236  33.127  42.315   2.730
59812W        W32237  37.435  39.600  12.568
59813W        W32238  16.643  41.822   4.771
59814W        W32239  31.054   3.220   1.185
59815W        W32240  16.178  38.555  14.874
59816W        W32241  21.554  19.686   2.394
59817W        W32242  42.437   5.947   4.105
59818W        W32243  41.218   4.668   5.197
59819W        W32244  36.952  20.552   0.106
59820W        W32245  12.631  29.688  14.052
59821W        W32246  13.529  40.472   4.520
59822W        W32247  11.267  32.627   4.082
59823W        W32248  31.588  33.518   1.745
59824W        W32249   1.198   5.144   1.237
59825W        W32250  10.624  39.353   1.744
59826W        W32251   9.187  15.672   0.533
59827W        W32252  40.484  30.641  13.312
59828W        W32253  39.513  30.463   0.721
59829W        W32254   9.921  35.970  11.886
59830W        W32255   2.763  11.228  11.477
59831W        W32256  14.663   1.829   2.877
59832W        W32257   7.945  14.426   3.799
59833W        W32258  19.526  36.501   4.129
59834W        W32259  23.784   9.625  13.437
59835W        W32260  16.259  22.853   4.961
59836W        W32261  23.498  27.198  12.077
59837W        W32262   0.318  11.578   3.278
59838W        W32263  22.630  32.140  12.902
59839W        W32264  32.144  42.092  13.868
59840W        W32265  32.312  26.899   4.563
59841W        W32266   9.715   6.803  13.968
59842W        W32267  21.037  24.308  12.452
59843W        W32268  38.419  11.287  10.615
59844W        W32269  29.699   1.061   4.147
59845W        W32270  37.063  26.863  14.971
59846W        W32271  33.494   9.576   3.113
59847W        W32272  41.366  41.933   3.184
59848W        W32273  10.265  20.329  14.548
59849W        W32274  27.982   2.123   4.530
59850W        W32275  27.418   9.815  11.537
59851W        W32276  29.735   2.974   2.901
59852W        W32277  35.006  44.321  10.033
59853W        W32278  39.903  25.569  13.111
59854W        W32279   3.846  20.703  11.929
59855W        W32280  33.041   3.486   5.019
59856W        W32281  40.928  41.569   4.436
59857W        W32282  36.560  26.317   2.403
59858W        W32283   2.419  32.912   3.801
59859W        W32284   0.869  25.775  13.367
59860W        W32285  41.525  28.294   2.290
59861W        W32286  28.470  15.162  14.580
59862W        W32287  25.057  33.191  12.396
59863W        W32288  18.668   4.292   0.970
59864W        W32289  35.374  26.173   4.272
59865W        W32290   7.123   8.577   1.461
59866W        W32291   3.481  35.634   4.330
59867W        W32292  23.014  31.349   1.303
59868W        W32293  31.563  43.870   1.803
59869W        W32294  17.848  27.376  14.382
59870W        W32295  25.092  11.622  11.152
59871W        W32296  18.310   4.389   3.561
59872W        W32297  14.384  20.164   3.780
59873W        W32298  16.065  43.437  14.410
59874W        W32299  35.912  16.857   2.646
59875W        W32300  42.966  37.427  12.513
59876W        W32301  42.284  19.235   1.927
59877W        W32302  15.865  24.632  13.086
59878W        W32303  17.511  14.527   0.933
59879W        W32304  28.929  11.917   3.368
59880W        W32305  16.762   4.455   1.661
59881W        W32306  38.096  27.108   2.388
59882W        W32307  22.151  28.536   4.968
59883W        W32308  11.624   1.252   0.822
59884W        W32309   3.974   7.854  13.890
59885W        W32310  16.549  34.565  10.559
59886W        W32311  29.195   9.353   4.164
59887W        W32312   3.316  25.605   0.057
59888W        W32313  14.435   4.791  11.101
59889W        W32314  32.700  27.503   4.148
59890W        W32315  16.406  39.466   2.740
59891W        W32316  42.800  28.915  14.050
59892W        W32317  43.302  16.321  14.453
59893W        W32318   4.551  16.684   4.570
59894W        W32319  16.134   3.171   0.037
59895W        W32320  16.813  24.524  12.850
59896W        W32321  10.860  30.525   1.892
59897W        W32322  15.661   8.842  11.134
59898W        W32323  43.585  25.551  12.964
59899W        W32324  30.646  28.698   0.343
59900W        W32325  29.641   6.961   1.236
59901W        W32326  41.391  29.037  12.355
59902W        W32327  39.319  30.630  13.012
59903W        W32328  31.473   1.800  11.419
59904W        W32329  43.670  18.329   2.451
59905W        W32330   4.343  24.797  14.845
59906W        W32331  15.116   3.493  10.076
59907W        W32332  30.949   0.516  12.994
59908W        W32333  12.866  11.774  10.724
59909W        W32334   5.743  31.915   4.317
59910W        W32335  35.989  32.374   2.971
59911W        W32336  23.184  14.831   3.234
59912W        W32337   7.219  16.709   2.407
59913W        W32338   5.461   2.214  10.665
59914W        W32339  17.817  15.740  14.255
59915W        W32340  38.563  31.450  13.665
59916W        W32341   7.735   3.033  14.834
59917W        W32342  33.566   1.788  12.514
59918W        W32343  27.114   3.772  12.632
59919W        W32344   1.815   3.834   2.061
59920W        W32345   3.299  35.601  12.408
59921W        W32346  33.431  40.183  14.524
59922W        W32347   6.443  11.772   1.801
59923W        W32348   4.248  38.027  13.395
59924W        W32349  40.789  28.025   2.720
59925W        W32350  20.865  21.252  10.048
59926W        W32351  20.080  11.376   0.565
59927W        W32352  24.113  22.042   2.833
59928W        W32353  29.457   8.640  12.702
59929W        W32354  41.394   0.292   1.767
59930W        W32355  28.067  20.928   4.551
59931W        W32356  33.686  37.141  13.206
59932W        W32357   4.425  42.796  12.446
59933W        W32358  27.485   9.364   0.293
59934W        W32359  24.064  16.394  14.246
59935W        W32360  23.885  35.082  14.728
59936W        W32361   6.194   6.651  12.048
59937W        W32362  15.697  12.640  12.556
59938W        W32363  43.338  27.232   0.903
59939W        W32364   9.336  10.159  12.077
59940W        W32365  37.505  27.624   3.576
59941W        W32366   4.097  38.967  11.940
59942W        W32367   2.669   6.892  14.084
59943W        W32368  32.851   0.747   3.112
59944W        W32369  21.219   5.501   1.978
59945W        W32370  12.812   6.607   2.702
59946W        W32371  44.983   5.250   1.720
59947W        W32372  37.039  27.704  12.590
59948W        W32373  15.939  42.590  11.025
59949W        W32374  40.385  28.437   3.877
59950W        W32375  18.206   4.244   1.183
59951W        W32376  32.900  15.746  12.905
59952W        W32377   5.986  10.660   1.436
59953W        W32378   9.310   5.760   1.341
59954W        W32379  13.801  22.076  14.382
59955W        W32380  11.394  29.499  10.328
59956W        W32381  44.866  20.203   3.109
59957W        W32382  13.556  29.471   4.537
59958W        W32383  15.698  43.770  13.372
59959W        W32384  11.598  39.393   3.379
59960W        W32385  27.475  22.790  14.423
59961W        W32386  32.166   3.457   4.638
59962W        W32387  30.025  18.469   3.437
59963W        W32388  13.818  14.897  10.680
59964W        W32389  42.494   4.731  14.960
59965W        W32390  16.870   8.235  14.449
59966W        W32391  29.571   0.388   3.615
59967W        W32392  36.333   7.398   9.960
59968W        W32393  38.484   1.307   1.329
59969W        W32394  10.592  41.344   4.046
59970W        W32395  20.713   1.732   2.778
59971W        W32396  30.219  21.520   3.673
59972W        W32397  11.734  35.836   0.686
59973W        W32398  18.983  16.523  13.772
59974W        W32399  40.304   1.268  11.981
59975W        W32400  33.137  19.300   2.860
59976W        W32401   4.242  43.912  13.058
59977W        W32402   3.995  40.116   3.225
59978W        W32403  36.643  31.921  12.101
59979W        W32404  42.209   2.829  13.104
59980W        W32405  40.743   7.844   0.453
59981W        W32406  40.499   4.008   1.915
59982W        W32407   1.593  11.599   1.341
59983W        W32408  42.094   1.783  10.268
59984W        W32409  36.860  30.551   1.663
59985W        W32410  27.428  40.932  14.330
59986W        W32411  32.687  41.462   2.386
59987W        W32412  37.939  40.940   1.240
59988W        W32413   6.109  12.203  14.508
59989W        W32414  23.154  10.669  11.466
59990W        W32415  33.328  33.809  13.327
59991W        W32416  34.299  23.618  12.674
59992W        W32417  42.558  22.040   3.763
59993W        W32418  10.026  33.508   0.865
59994W        W32419   0.275  19.723  11.653
59995W        W32420   6.371  14.990   2.731
59996W        W32421  22.583   2.733  12.624
59997W        W32422  15.378  33.928   3.065
59998W        W32423  13.190  16.743   3.743
59999W        W32424   6.853  15.611   4.680
60000W        W32425  36.474  41.931   1.720
60001W        W32426  21.072  26.547   4.110
60002W        W32427  32.166   7.235  11.635
60003W        W32428  24.433   3.853   0.964
60004W        W32429  28.646  25.511  14.246
60005W        W32430  28.827  10.375  10.199
60006W        W32431  44.927  12.867   4.651
60007W        W32432   0.478  14.593  14.853
60008W        W32433  36.305   3.975   3.036
60009W        W32434   6.766   2.228  11.223
60010W        W32435  11.879   8.689  14.768
60011W        W32436   0.456  36.396  14.323
60012W        W32437  40.732  41.358   4.892
60013W        W32438  34.108   5.786  14.781
60014W        W32439  31.362  32.065   4.692
60015W        W32440  11.750   2.443   4.526
60016W        W32441  18.091  23.983   1.665
60017W        W32442  13.764  40.883   3.657
60018W        W32443   7.640   4.733   3.171
60019W        W32444  20.943   6.407   4.139
60020W        W32445  25.601  32.672   1.419
60021W        W32446  36.467   1.769  12.437
60022W        W32447  17.502  17.076  13.285
60023W        W32448   0.213  39.366   1.361
60024W        W32449  15.758  28.336  14.955
60025W        W32450   9.777  23.435  11.604
60026W        W32451  24.885   9.605   1.226
60027W        W32452  43.550  20.700   3.339
60028W        W32453  24.072   2.789   3.372
60029W        W32454  16.352  31.561  11.657
60030W        W32455  32.130   2.784   0.455
60031W        W32456  36.622   9.687   0.888
60032W        W32457   4.322  41.935  13.466
60033W        W32458  17.242  44.741   0.764
60034W        W32459  36.629  30.332   3.282
60035W        W32460   3.042  15.181   0.449
60036W        W32461  17.072   7.718   2.651
60037W        W32462  18.029  39.950  14.914
60038W        W32463  24.014   6.216   4.076
60039W        W32464  21.556  19.135  11.571
60040W        W32465  26.415  32.378  12.126
60041W        W32466  27.879  21.777   5.463
60042W        W32467   4.097  16.378   2.122
60043W        W32468  15.057  17.669  10.469
60044W        W32469  28.434  40.441  13.036
60045W        W32470  20.198   3.736  14.936
60046W        W32471  28.201   0.386  12.564
60047W        W32472   6.012  34.545  13.953
60048W        W32473  39.944  44.307  13.047
60049W        W32474   6.795   1.437   4.272
60050W        W32475  13.314   8.316  10.706
60051W        W32476  29.004   5.788  10.637
60052W        W32477  12.779  40.126  10.483
60053W        W32478   9.258  10.064   1.297
60054W        W32479  29.935  26.410   5.005
60055W        W32480  12.901   3.284  12.494
60056W        W32481   9.797  12.693   2.699
60057W        W32482  27.930  16.331   3.074
60058W        W32483  11.162  37.809  14.571
60059W        W32484  19.655  10.628   4.624
60060W        W32485  36.926  17.813  12.197
60061W        W32486  24.253  12.825   4.564
60062W        W32487   4.965  19.233   2.768
60063W        W32488  17.539  13.787  14.374
60064W        W32489  11.266   0.891   2.795
60065W        W32490  12.098   1.631   1.869
60066W        W32491   4.450  23.477  11.985
60067W        W32492   9.572   6.791  11.380
60068W        W32493  34.612  16.034   1.919
60069W        W32494  14.497  22.416  11.536
60070W        W32495  19.654  13.386   4.276
60071W        W32496   3.212  24.254  12.028
60072W        W32497  32.117   0.476  12.564
60073W        W32498  19.734   0.932   3.189
60074W        W32499  38.899  37.822   0.253
60075W        W32500   0.743   2.960   3.604
60076W        W32501   2.657   8.663  14.895
60077W        W32502  17.035   7.430  10.996
60078W        W32503  33.091  36.452   0.102
60079W        W32504   4.226  28.569   3.771
60080W        W32505  27.731  41.654   4.589
60081W        W32506   9.819  31.620   3.376
60082W        W32507   3.791  14.614   2.218
60083W        W32508  33.256   7.900   1.386
60084W        W32509  15.965  29.656  12.973
60085W        W32510  36.028  38.768   2.342
60086W        W32511  28.451  38.785   2.884
60087W        W32512  26.370  24.081  11.930
60088W        W32513  11.648  14.521  10.219
60089W        W32514  32.749  17.326   4.662
60090W        W32515   3.826  36.417   4.616
60091W        W32516  42.350  31.339   4.327
60092W        W32517  37.051   5.696   3.241
60093W        W32518  26.046  28.604  14.925
60094W        W32519  29.713  15.938  12.111
60095W        W32520  42.033   5.700  14.902
60096W        W32521  23.246  30.207  11.064
60097W        W32522  12.637  15.605   2.477
60098W        W32523  16.995  14.250  10.201
60099W        W32524  24.519  39.410   1.828
60100W        W32525  15.785  16.826   0.896
60101W        W32526  44.973  41.524  11.523
60102W        W32527  34.125  33.498   2.801
60103W        W32528  25.681  25.524  12.569
60104W        W32529  11.150  19.691   1.336
60105W        W32530  43.325   6.145  11.125
60106W        W32531  13.732  29.937   3.758
60107W        W32532  11.638  44.000   3.721
60108W        W32533  27.474  26.124   3.297
60109W        W32534  23.737   5.354  11.983
60110W        W32535  29.158  23.465  13.077
60111W        W32536  13.657  38.547   2.085
60112W        W32537  41.949  40.750  11.605
60113W        W32538  29.095  26.638  11.039
60114W        W32539  37.696   2.484   5.029
60115W        W32540  34.382  39.266  14.688
60116W        W32541   0.320   6.410   4.199
60117W        W32542   7.739  38.930  14.935
60118W        W32543  36.959  11.118  12.646
60119W        W32544  10.172  32.661   2.903
60120W        W32545   7.865  25.435  11.173
60121W        W32546  29.930  40.954   2.649
60122W        W32547  22.804  26.105   0.336
60123W        W32548  32.970   8.700   3.371
60124W        W32549  24.073  44.015  11.228
60125W        W32550   1.778  13.818   2.882
60126W        W32551  20.542  41.940  14.584
60127W        W32552   7.695  12.340   3.363
60128W        W32553  24.082  22.101  11.443
60129W        W32554  36.987  37.045   3.164
60130W        W32555  42.952  18.157   0.343
60131W        W32556  32.140  23.738   4.551
60132W        W32557  27.530  30.691   1.134
60133W        W32558  38.006   5.124  11.512
60134W        W32559  16.541  43.886   0.925
60135W        W32560  13.237   6.665  12.012
60136W        W32561  25.948  36.013  12.601
60137W        W32562  17.850  36.899   3.063
60138W        W32563  33.287  27.680  13.486
60139W        W32564  20.482  39.839   1.974
60140W        W32565  26.667  32.027   4.127
60141W        W32566  34.999   5.683   4.978
60142W        W32567   7.679  40.543  13.987
60143W        W32568  22.227  33.959   1.354
60144W        W32569  33.942   4.825  13.424
60145W        W32570  44.120  27.162   0.462
60146W        W32571   9.854   7.217  12.480
60147W        W32572  29.640  38.874  12.969
60148W        W32573  29.336   1.587   2.702
60149W        W32574   0.232  42.846   2.273
60150W        W32575  22.689  19.264  14.843
60151W        W32576  23.269   5.745   3.848
60152W        W32577  39.764  29.089  12.901
60153W        W32578  36.392  30.237   2.368
60154W        W32579  39.734  32.368  14.016
60155W        W32580  37.510  36.367  10.517
60156W        W32581  28.264   9.300  12.098
60157W        W32582  44.374   2.900  12.118
60158W        W32583   3.823  42.970  10.245
60159W        W32584  26.177   4.275  11.174
60160W        W32585  43.891  16.149  11.711
60161W        W32586  31.040  40.300   1.588
60162W        W32587   3.686  40.029   1.235
60163W        W32588  32.879  10.421   3.105
60164W        W32589  18.129  18.347   1.487
60165W        W32590   7.701  32.119   3.660
60166W        W32591  34.431  44.371  11.154
60167W        W32592  42.608  30.648   3.299
60168W        W32593  27.155  14.388  12.973
60169W        W32594   1.370   4.787   4.904
60170W        W32595   9.267  41.976  11.879
60171W        W32596  30.911  14.189  12.200
60172W        W32597  26.682   6.308   1.655
60173W        W32598  34.051  28.708   1.167
60174W        W32599  12.313  26.722   4.482
60175W        W32600  37.818   8.498   9.478
60176W        W32601  18.154  34.122  14.537
60177W        W32602  24.118  22.528   1.692
60178W        W32603   4.323  10.121   3.981
60179W        W32604  10.085  10.383  10.479
60180W        W32605  19.402  31.592   0.700
60181W        W32606  44.302  29.951  11.215
60182W        W32607  24.971  20.477  13.936
60183W        W32608  29.181  10.891   3.817
60184W        W32609   4.724  20.267  10.491
60185W        W32610  22.557   2.980   1.716
60186W        W32611  16.642  41.056   1.164
60187W        W32612  36.287  43.747   0.178
60188W        W32613  35.496  34.343  13.027
60189W        W32614  30.702  33.963  13.648
60190W        W32615  32.988  23.748  13.824
60191W        W32616  16.575  10.508   3.741
60192W        W32617   9.551  20.931   5.148
60193W        W32618  43.755  24.067  11.122
60194W        W32619  39.913  28.083   0.877
60195W        W32620   9.280  41.587   4.428
60196W        W32621  22.809  21.726   1.956
60197W        W32622   0.480  13.449  13.864
60198W        W32623   0.810  15.883  12.593
60199W        W32624   8.925  35.564  13.398
60200W        W32625  42.848   5.392   4.945
60201W        W32626  11.768  15.326   3.811
60202W        W32627  29.576  28.079  14.594
60203W        W32628  21.163  39.413  12.551
60204W        W32629  25.463  37.353  11.622
60205W        W32630  20.182  41.967   3.361
60206W        W32631  39.385  20.765  11.971
60207W        W32632   3.943   2.429   1.373
60208W        W32633  17.995  39.222   4.851
60209W        W32634   7.243  39.799  13.199
60210W        W32635  14.791  29.134   5.085
60211W        W32636  10.343  33.921  11.301
60212W        W32637  21.919  36.419  14.318
60213W        W32638  26.751  15.741  14.320
60214W        W32639  41.436   5.483  11.592
60215W        W32640   1.945  24.283   4.667
60216W        W32641  28.517   0.427  14.403
60217W        W32642  40.717  35.990  11.661
60218W        W32643  30.859  38.984   1.386
60219W        W32644  29.995   0.938  10.541
60220W        W32645  14.235  30.084  12.565
60221W        W32646  32.754  17.966  12.609
60222W        W32647   1.960  41.021   4.549
60223W        W32648  33.625  27.594   2.729
60224W        W32649  34.544  31.690  10.708
60225W        W32650  10.303  28.752   2.744
60226W        W32651   9.330  19.402   0.830
60227W        W32652  16.530  28.926  13.946
60228W        W32653  22.568   0.939   4.592
60229W        W32654  39.461  27.153  11.577
60230W        W32655  14.593  30.028  10.614
60231W        W32656  34.468   9.236   4.040
60232W        W32657  35.975  41.533   0.823
60233W        W32658  42.424  18.497   4.562
60234W        W32659  19.733  11.741   0.200
60235W        W32660  27.940  41.104   0.355
60236W        W32661   5.677  10.244   1.454
60237W        W32662  21.991  41.936  13.097
60238W        W32663  33.120  24.256  11.207
60239W        W32664   8.443  32.540   1.807
60240W        W32665  33.287  26.122   0.350
60241W        W32666  23.964  42.316  13.866
60242W        W32667  23.175   0.335   3.669
60243W        W32668  37.993  19.095   2.194
60244W        W32669  42.407  35.669   3.773
60245W        W32670  17.250  41.242  13.522
60246W        W32671   1.829  42.730   1.280
60247W        W32672   5.705  32.441   2.218
60248W        W32673  36.500  35.384   2.776
60249W        W32674   3.750  21.680   2.050
60250W        W32675  32.552  21.243  14.261
60251W        W32676  28.809   9.227  12.861
60252W        W32677  24.125  23.948   1.266
60253W        W32678  44.888  13.048  12.541
60254W        W32679  17.028  17.760  12.000
60255W        W32680  29.230   3.787  10.723
60256W        W32681  41.604  12.325   0.890
60257W        W32682  31.160   6.165  14.921
60258W        W32683  42.773   5.922   2.652
60259W        W32684  18.813  43.465  12.540
60260W        W32685   2.830  28.401  11.862
60261W        W32686  31.008  34.943  11.162
60262W        W32687  44.376  14.010  12.979
60263W        W32688  26.425   8.140   4.713
60264W        W32689  34.898  24.527  10.662
60265W        W32690  13.044  38.966   2.606
60266W        W32691  20.296  16.990   1.676
60267W        W32692  39.494   3.869   4.522
60268W        W32693   5.140  29.987  13.309
60269W        W32694  34.289  39.681  13.932
60270W        W32695  25.424  25.448   2.400
60271W        W32696   0.517  27.093  13.381
60272W        W32697  11.854  13.499  14.296
60273W        W32698  26.555  13.721  14.444
60274W        W32699  26.893  43.462   0.034
60275W        W32700  37.827  29.702  13.022
60276W        W32701  38.866   7.934  14.536
60277W        W32702  34.521  38.861   2.689
60278W        W32703  42.034  36.096  13.981
60279W        W32704  10.170   1.824  11.511
60280W        W32705  26.513  35.167  12.378
60281W        W32706  21.712  35.864   4.667
60282W        W32707  27.003  33.935   2.446
60283W        W32708  44.382  43.302   0.249
60284W        W32709  23.065  21.637  11.136
60285W        W32710   1.813  16.704   4.247
60286W        W32711  14.956  12.296  13.395
60287W        W32712  43.482  29.384  11.984
60288W        W32713  24.131  31.570  13.701
60289W        W32714   7.825  34.937  12.438
60290W        W32715   0.392  38.931  12.896
60291W        W32716  35.911   9.917  14.761
60292W        W32717  22.625   6.217   2.687
60293W        W32718  43.849  21.062   1.679
60294W        W32719  16.288  43.734   1.376
60295W        W32720  21.297   1.834  14.402
60296W        W32721  33.183   2.106   3.457
60297W        W32722  11.663   3.303   2.360
60298W        W32723  19.727  11.536  14.700
60299W        W32724  36.887  33.475   4.808
60300W        W32725   2.072  10.875  10.461
60301W        W32726  12.083  21.351   1.305
60302W        W32727  25.948  23.641   1.722
60303W        W32728  37.973  37.055  11.897
60304W        W32729  30.037  42.503  11.409
60305W        W32730  31.931  27.203   3.722
60306W        W32731  29.219  31.519  12.448
60307W        W32732  11.699  37.830  14.687
60308W        W32733   7.441  36.919  12.615
60309W        W32734  27.557  17.750   4.365
60310W        W32735  39.879  26.628  10.182
60311W        W32736  14.058  13.091   1.391
60312W        W32737  11.213  19.062   2.761
60313W        W32738  43.416  16.705   3.407
60314W        W32739  11.696  11.375  10.769
60315W        W32740  29.854  21.899   0.330
60316W        W32741   6.510  26.026   3.231
60317W        W32742  20.218  27.147  11.628
60318W        W32743  42.905   7.151   1.867
60319W        W32744  26.063   8.662  13.025
60320W        W32745  18.229  34.151  11.563
60321W        W32746   2.068   0.414  11.272
60322W        W32747  31.117  40.074   3.290
60323W        W32748  31.590  29.016   3.248
60324W        W32749  18.641  34.849   4.672
60325W        W32750  22.659  29.172  11.997
60326W        W32751  25.378  37.783  13.815
60327W        W32752  17.619  17.043  14.840
60328W        W32753  10.325   2.918  10.579
60329W        W32754  15.073   5.973  10.869
60330W        W32755  10.986  34.304  14.348
60331W        W32756  24.964  19.968  11.124
60332W        W32757   5.226  41.898   3.085
60333W        W32758  27.415  31.966  12.908
60334W        W32759   2.554  42.357   2.301
60335W        W32760  31.534  12.287   3.418
60336W        W32761  25.560   4.132   2.313
60337W        W32762  35.959   8.911   0.277
60338W        W32763   8.291  22.928  11.598
60339W        W32764   8.882  27.039   5.068
60340W        W32765  35.579  39.597  12.741
60341W        W32766  23.046  30.970  11.931
60342W        W32767   8.168  18.252  13.135
60343W        W32768  44.228   8.435  12.442
60344W        W32769  27.382  33.615   3.822
60345W        W32770  27.579  25.154  14.356
60346W        W32771  24.994  36.393  11.603
60347W        W32772  44.366  22.252   3.858
60348W        W32773  39.370  36.000   4.401
60349W        W32774  24.280  11.818  12.360
60350W        W32775  33.564  11.859   1.376
60351W        W32776  12.109  25.722   4.116
60352W        W32777  39.834  23.138   0.308
60353W        W32778   0.445  44.745   0.166
60354W        W32779  20.661  20.700  12.342
60355W        W32780  18.787  19.774  10.688
60356W        W32781  23.071  35.369  12.456
60357W        W32782  20.291  26.494   1.836
60358W        W32783  33.115  15.680   2.315
60359W        W32784  19.057  23.103  14.373
60360W        W32785  22.702   6.912  14.935
60361W        W32786   3.686  30.579  13.523
60362W        W32787  22.050  37.368  12.793
60363W        W32788  15.156  29.774   2.313
60364W        W32789   3.807  39.068   3.215
60365W        W32790   7.251  25.174   3.731
60366W        W32791  43.972  12.224   2.284
60367W        W32792  29.627  22.925   2.837
60368W        W32793  22.772   9.750  11.995
60369W        W32794  33.870   9.964  11.975
60370W        W32795  13.331  24.063  14.316
60371W        W32796   2.514  24.670  12.375
60372W        W32797  13.321  22.873   5.188
60373W        W32798  36.855  25.069   5.059
60374W        W32799   7.890  12.171   4.216
60375W        W32800   6.948  34.118   1.182
60376W        W32801  16.855  21.038  12.489
60377W        W32802  34.157  26.201  14.515
60378W        W32803   0.470  23.177  13.499
60379W        W32804  36.435  15.617   1.877
60380W        W32805  19.682  15.752  10.405
60381W        W32806   4.449  19.269   2.891
60382W        W32807  34.014   5.982   3.794
60383W        W32808  16.189  28.613  14.811
60384W        W32809   6.973   6.595   1.354
60385W        W32810  34.134  17.688   3.411
60386W        W32811  40.792  40.192  11.141
60387W        W32812  34.406  20.204   2.340
60388W        W32813   0.096  35.901   1.891
60389W        W32814  14.760  36.728   2.276
60390W        W32815  12.191  17.792   0.209
60391W        W32816  15.719  41.720   1.736
60392W        W32817  16.179   3.395   0.492
60393W        W32818  27.694  22.250  11.059
60394W        W32819  11.137  26.692   0.575
60395W        W32820  43.784  44.284   4.093
60396W        W32821  26.603  26.442  14.736
60397W        W32822  38.900  18.287   4.112
60398W        W32823  30.915   5.315   0.500
60399W        W32824  29.588  34.555  12.118
60400W        W32825  14.404  29.989  11.124
60401W        W32826  15.824  39.604  13.370
60402W        W32827  32.442  21.202   4.850
60403W        W32828  30.914  28.463  14.428
60404W        W32829  44.108  35.362   4.758
60405W        W32830  26.645  41.575  10.366
60406W        W32831  39.462  29.420  11.673
60407W        W32832  26.431  29.688   4.153
60408W        W32833  30.193   2.879   0.273
60409W        W32834   2.851  21.170   1.713
60410W        W32835  43.501  35.576   4.672
60411W        W32836  16.736  22.782   4.756
60412W        W32837  12.784  24.059  14.369
60413W        W32838  36.069  29.603   0.158
60414W        W32839  25.272  13.272   1.303
60415W        W32840  24.577  34.968  13.936
60416W        W32841  29.335  22.475  14.888
60417W        W32842  41.034  27.746   3.673
60418W        W32843   0.516  25.005   4.368
60419W        W32844   5.384  44.830   4.217
60420W        W32845   6.769  41.454   0.552
60421W        W32846  40.341  37.152   4.827
60422W        W32847  14.538  34.454   0.741
60423W        W32848  28.508  42.482   1.403
60424W        W32849  11.306  29.188   1.377
60425W        W32850   1.250  19.138  13.843
60426W        W32851  43.825  10.173  14.335
60427W        W32852   2.968   4.265   1.786
60428W        W32853  19.947  10.910  13.398
60429W        W32854  38.953  38.583  10.211
60430W        W32855  16.211  12.825   2.224
60431W        W32856  41.540  23.522  14.413
60432W        W32857  13.329  22.927   2.738
60433W        W32858  17.188  18.108   1.939
60434W        W32859  25.148  26.572  13.811
60435W        W32860  34.986   7.243  11.122
60436W        W32861   2.937   1.904  12.505
60437W        W32862  38.602  15.345  14.819
60438W        W32863  34.885   2.955   2.679
60439W        W32864  18.692  25.607   0.863
60440W        W32865  41.762  36.404  13.667
60441W        W32866   4.497  40.958   2.350
60442W        W32867  23.422  15.338   1.622
60443W        W32868  17.260  36.972  13.071
60444W        W32869   0.313  16.842   0.902
60445W        W32870  17.695  10.338  13.798
60446W        W32871  20.067   0.066   1.198
60447W        W32872  12.839  25.681  11.256
60448W        W32873  30.661  13.980   4.259
60449W        W32874  15.070  23.915   1.685
60450W        W32875  24.124  13.302  11.939
60451W        W32876  20.076  28.939  10.475
60452W        W32877  15.893  41.239   0.904
60453W        W32878  13.714  14.658   3.249
60454W        W32879  40.709  24.701  13.077
60455W        W32880  22.082   2.405  10.988
60456W        W32881   7.295  26.978   4.109
60457W        W32882   4.099  19.801  11.056
60458W        W32883  22.585  44.248  10.369
60459W        W32884  32.518   7.722  14.234
60460W        W32885   1.589  25.895   3.434
60461W        W32886  39.083  32.105  14.646
60462W        W32887   6.585  31.709  12.791
60463W        W32888   4.023  28.125   0.072
60464W        W32889  40.840  16.492   4.534
60465W        W32890  32.008  41.024  10.606
60466W        W32891  11.357  15.549   1.331
60467W        W32892  42.522   9.220   2.848
60468W        W32893   9.816   0.262  14.521
60469W        W32894  35.869  40.791   1.784
60470W        W32895  26.532  16.784   4.487
60471W        W32896  36.320   0.999  14.855
60472W        W32897   5.748  28.493  12.335
60473W        W32898  31.664  30.941  12.998
60474W        W32899  11.112  42.329   3.862
60475W        W32900  19.137  24.353   2.638
60476W        W32901   4.855  17.560   4.635
60477W        W32902  32.811  21.039  11.538
60478W        W32903  32.259   6.815   1.386
60479W        W32904   8.810  36.643  14.523
60480W        W32905  14.089  28.308   0.468
60481W        W32906  32.432   0.455   3.137
60482W        W32907  18.557  31.462   4.899
60483W        W32908  16.529  42.352   2.267
60484W        W32909  27.547  34.719   4.920
60485W        W32910  35.956  44.282   0.037
60486W        W32911  39.756  37.099   3.634
60487W        W32912  30.072  11.309   2.652
60488W        W32913  32.845  15.952  13.379
60489W        W32914  28.834  37.434  12.336
60490W        W32915  29.820  16.133  11.634
60491W        W32916  29.111  38.314   3.179
60492W        W32917  40.958  20.174  11.657
60493W        W32918  21.760  25.570  10.929
60494W        W32919  42.501   1.494  14.874
60495W        W32920  36.478  12.267  14.014
60496W        W32921   5.955   9.199  11.086
60497W        W32922  41.224  43.373   4.071
60498W        W32923   8.685  15.354   3.311
60499W        W32924  41.532  36.765  14.311
60500W        W32925   7.953   5.867  14.381
60501W        W32926  44.128   4.045   3.582
60502W        W32927  43.339  33.476   1.834
60503W        W32928   2.415   6.018  12.941
60504W        W32929  41.295  35.089  11.441
60505W        W32930  25.526  17.082  13.990
60506W        W32931  19.081  44.205   2.089
60507W        W32932   6.666  36.145   0.342
60508W        W32933  10.167  41.839  10.636
60509W        W32934  27.735   6.793   2.357
60510W        W32935  33.904  20.615   2.293
60511W        W32936  37.522  21.032  14.000
60512W        W32937   6.425  15.600   4.112
60513W        W32938  25.145  30.928   0.930
60514W        W32939  18.145  35.121  14.562
60515W        W32940  22.090  40.362   4.539
60516W        W32941  19.736  25.991   0.298
60517W        W32942   3.715  28.133  10.697
60518W        W32943  44.901  31.479  14.034
60519W        W32944  31.947  21.961  14.104
60520W        W32945  41.119   9.637  12.151
60521W        W32946  35.004  17.764   1.960
60522W        W32947  29.827  31.870  11.058
60523W        W32948  16.719  17.134  14.818
60524W        W32949  26.917  12.338   2.249
60525W        W32950   8.402  37.215   0.853
60526W        W32951   1.767  43.449  11.159
60527W        W32952  38.512   7.566   0.315
60528W        W32953   5.746  29.850  13.734
60529W        W32954  40.073  19.809  12.926
60530W        W32955  21.151  37.894   0.394
60531W        W32956   2.921   9.630   2.757
60532W        W32957  23.426  25.071  13.807
60533W        W32958  17.589  42.338   2.383
60534W        W32959   5.327   6.630   4.458
60535W        W32960   1.581  19.721   1.873
60536W        W32961  41.475  25.120   1.250
60537W        W32962   9.827  35.877  10.896
60538W        W32963   8.761  32.931  11.812
60539W        W32964  15.533  15.245  13.176
60540W        W32965  16.714  11.317  12.441
60541W        W32966   9.146  33.604  12.558
60542W        W32967  31.537  36.014  10.356
60543W        W32968  32.014  17.741   3.877
60544W        W32969  35.964  30.450  14.226
60545W        W32970  35.613  20.304  13.412
60546W        W32971   8.788  31.899   2.472
60547W        W32972   4.742   6.800   3.209
60548W        W32973  23.560  31.663  10.112
60549W        W32974  16.599  29.387  14.880
60550W        W32975  24.066  37.951   3.528
60551W        W32976  39.477  18.078  12.922
60552W        W32977   0.339  31.473   0.350
60553W        W32978  10.841  14.364   0.246
60554W        W32979  21.779  21.572   1.745
60555W        W32980  14.615  31.096   4.708
60556W        W32981  43.928  19.085  14.280
60557W        W32982  22.500  14.527  11.100
60558W        W32983  19.334  44.201  12.075
60559W        W32984  17.010  44.537  12.139
60560W        W32985  20.682  23.805  13.533
60561W        W32986   0.466   8.676  11.185
60562W        W32987   3.482  35.002   1.652
60563W        W32988   1.488   3.210  10.423
60564W        W32989  23.114  40.768   0.897
60565W        W32990  44.258  36.460   1.780
60566W        W32991  15.275  22.532   0.448
60567W        W32992   5.507   0.468  13.193
60568W        W32993  35.952  14.701   0.731
60569W        W32994  11.801  40.490   1.692
60570W        W32995   0.733  11.618   4.129
60571W        W32996  30.033  14.187  11.994
60572W        W32997  25.055  32.226   4.194
60573W        W32998  37.190  22.209  12.977
60574W        W32999   6.909  19.050   0.213
60575W        W33000  20.686  34.377   1.877
60576W        W33001  21.661  18.846   4.622
60577W        W33002   3.153  18.312  14.392
60578W        W33003  10.937  24.663  13.648
60579W        W33004  29.549   6.226  14.748
60580W        W33005  14.197  22.699   4.899
60581W        W33006  11.647   1.184   3.828
60582W        W33007  22.529  20.499  10.643
60583W        W33008  11.784  34.547   4.175
60584W        W33009  32.887  26.875  11.568
60585W        W33010   9.222  19.593  11.200
60586W        W33011  34.537   7.854   4.298
60587W        W33012   5.266  21.221  13.326
60588W        W33013  18.533  13.891   3.356
60589W        W33014   0.753  11.335   2.019
60590W        W33015  31.353  39.843  11.538
60591W        W33016  32.962  34.577   2.220
60592W        W33017   2.383  33.535  13.634
60593W        W33018  28.622  36.346  10.627
60594W        W33019  20.605  19.656  14.874
60595W        W33020   3.273   0.804  11.417
60596W        W33021  44.990  37.030  13.911
60597W        W33022   6.183  13.266  14.763
60598W        W33023  11.151   2.838  10.278
60599W        W33024  18.528  14.756   3.202
60600W        W33025  30.852  18.040   0.290
60601W        W33026  22.473  39.775  13.104
60602W        W33027  43.487  19.611   4.356
60603W        W33028  19.489  40.842   1.283
60604W        W33029  43.359  33.639  14.273
60605W        W33030   4.441  28.496  10.832
60606W        W33031   9.257  27.463   1.722
60607W        W33032  40.392  11.788  14.349
60608W        W33033  35.539   9.907   3.432
60609W        W33034  35.446  18.814   2.265
60610W        W33035  42.886  38.858  12.052
60611W        W33036  24.049  11.622   9.736
60612W        W33037  38.006  18.727   2.829
60613W        W33038  43.984  15.237  13.720
60614W        W33039  37.542  29.006  10.924
60615W        W33040  20.306  32.476   1.058
60616W        W33041  40.283  11.444   2.651
60617W        W33042   2.774   2.363  11.237
60618W        W33043  35.580  42.386  11.654
60619W        W33044  40.044  25.992   2.669
60620W        W33045   7.217  42.332   2.185
60621W        W33046  30.433  38.492  12.839
60622W        W33047  40.341  34.381  12.515
60623W        W33048  17.388  33.356   5.264
60624W        W33049   8.621  23.211   2.815
60625W        W33050  36.921  26.259  13.841
60626W        W33051  24.511  12.847   2.433
60627W        W33052  35.037  35.273   2.779
60628W        W33053  17.689  31.386   1.665
60629W        W33054   9.301  20.465  11.059
60630W        W33055  40.794  16.690  12.055
60631W        W33056  30.903  24.319  10.691
60632W        W33057  38.531  18.189   2.252
60633W        W33058  41.902  43.652   3.854
60634W        W33059  32.990   7.953  14.088
60635W        W33060  26.168  22.492  13.733
60636W        W33061   0.329  22.244  12.010
60637W        W33062  41.431  20.566   1.033
60638W        W33063  44.336  30.975   2.781
60639W        W33064   6.307  25.640   2.206
60640W        W33065   2.699  33.256   1.522
60641W        W33066  38.360  22.197  11.582
60642W        W33067  34.315  43.873  14.251
60643W        W33068   9.612  33.139  10.291
60644W        W33069  19.457   7.749  10.647
60645W        W33070  18.639  22.198   1.492
60646W        W33071   3.509  28.465  11.200
60647W        W33072  32.406  18.592  13.943
60648W        W33073   9.587  22.707   1.720
60649W        W33074  21.083  39.956  12.513
60650W        W33075  29.131  36.957   4.180
60651W        W33076  13.536  11.410   2.687
60652W        W33077  23.564  43.248   4.699
60653W        W33078  21.608  30.231   3.322
60654W        W33079  42.780  37.390  14.943
60655W        W33080  32.577  10.799   3.695
60656W        W33081  18.304  28.134  12.419
60657W        W33082  11.046  32.930   4.668
60658W        W33083  34.327  32.930   2.857
60659W        W33084  26.251  39.558  13.452
60660W        W33085  38.095  33.647   4.338
60661W        W33086  30.148  29.547   1.246
60662W        W33087  31.674  19.851   2.260
60663W        W33088  21.407  20.785  13.364
60664W        W33089  40.836  12.582  12.079
60665W        W33090   3.267  38.766  14.901
60666W        W33091  29.486  36.653   1.829
60667W        W33092   3.956  20.995   1.218
60668W        W33093  26.019   9.239  14.012
60669W        W33094  19.628  22.983  13.016
60670W        W33095  24.768  19.223  12.076
60671W        W33096  20.353  11.890   3.003
60672W        W33097  12.903   3.944   4.181
60673W        W33098  15.138   1.836   2.600
60674W        W33099   4.939  41.389  14.752
60675W        W33100  10.776   9.956   4.087
60676W        W33101  38.755  12.675   3.072
60677W        W33102  35.890  40.311   2.902
60678W        W33103   0.527  32.078  11.085
60679W        W33104  27.085  17.893   2.766
60680W        W33105   9.846   0.456   3.216
60681W        W33106   9.500  33.590   9.854
60682W        W33107  27.011   3.015   4.103
60683W        W33108  13.429  15.291  12.424
60684W        W33109   4.227  20.702   3.401
60685W        W33110  43.975   7.846   4.342
60686W        W33111  19.541  22.769  12.137
60687W        W33112  17.050   3.295   1.386
60688W        W33113  11.599  31.368  12.443
60689W        W33114  21.142  14.326  10.207
60690W        W33115   2.728  19.110   0.553
60691W        W33116  41.813   1.224  11.926
60692W        W33117  19.635  28.644   2.083
60693W        W33118  42.055   5.416  14.467
60694W        W33119   7.257  25.472  11.641
60695W        W33120  17.756  32.172   4.125
60696W        W33121  36.180  32.485  13.040
60697W        W33122   0.356   0.883  10.694
60698W        W33123  40.273   7.843  12.347
60699W        W33124  14.444   1.799  12.514
60700W        W33125  29.292   8.024   1.447
60701W        W33126  19.080  30.811  11.181
60702W        W33127   3.687  42.503  10.486
60703W        W33128  26.510  21.689  13.347
60704W        W33129  11.144   2.785   3.096
60705W        W33130  15.599  43.924   1.372
60706W        W33131  36.983   5.307  14.263
60707W        W33132  43.872  21.288   5.130
60708W        W33133   1.401  20.333  11.443
60709W        W33134  44.456   1.833  14.390
60710W        W33135   9.190  13.525   3.388
60711W        W33136  18.896   6.894  11.923
60712W        W33137   2.681  37.478   4.230
60713W        W33138  20.696   6.366  14.773
60714W        W33139  43.009  17.607   2.806
60715W        W33140  25.062  12.781   4.416
60716W        W33141  21.063  43.885   0.758
60717W        W33142  37.288  38.811   3.720
60718W        W33143  32.621  23.734  13.467
60719W        W33144  21.596   2.911   3.048
60720W        W33145   0.934  15.607   4.494
60721W        W33146  23.766   2.872   4.187
60722W        W33147  26.494  13.754   3.212
60723W        W33148  28.732  35.058   4.224
60724W        W33149  20.514  20.223  11.665
60725W        W33150  16.847  31.473  11.459
60726W        W33151  35.047  39.121   5.216
60727W        W33152  27.583  24.321   2.240
60728W        W33153   7.370  26.588   2.335
60729W        W33154  28.479  14.653  10.314
60730W        W33155  38.517  16.708   0.333
60731W        W33156  42.980  35.834   0.859
60732W        W33157   6.919  18.260   3.196
60733W        W33158  15.697  34.636   3.053
60734W        W33159   4.602  17.744  13.072
60735W        W33160  18.298  35.862  10.639
60736W        W33161  24.291  35.504  14.003
60737W        W33162   5.670  31.649   1.782
60738W        W33163   8.299  25.113  12.327
60739W        W33164  27.583  23.597   9.860
60740W        W33165  16.776  16.853  11.549
60741W        W33166   7.277  42.070   0.871
60742W        W33167  28.666  34.059  12.554
60743W        W33168   9.615  37.890   2.788
60744W        W33169   8.296  13.698   3.249
60745W        W33170  29.936  13.251   2.564
60746W        W33171  39.943  33.864   3.155
60747W        W33172  31.331  20.166  10.622
60748W        W33173  20.652   0.809  13.899
60749W        W33174  27.425  30.009  14.041
60750W        W33175  27.623  21.422   2.585
60751W        W33176  14.349  32.135  10.391
60752W        W33177  30.266  14.692   4.585
60753W        W33178  41.009  43.384  10.684
60754W        W33179   0.308   1.843  13.950
60755W        W33180  27.642  28.895   3.356
60756W        W33181  44.299  16.553   1.345
60757W        W33182  37.589  10.796  13.349
60758W        W33183   1.584  18.315  11.172
60759W        W33184  36.040  27.036   2.813
60760W        W33185  24.100  12.454   3.288
60761W        W33186  26.156  10.405  11.481
60762W        W33187  33.461  27.474  11.144
60763W        W33188  22.949  22.557  11.572
60764W        W33189  18.154  29.100  10.678
60765W        W33190  11.912  16.284  10.532
60766W        W33191   1.328   3.941  12.144
60767W        W33192   6.284   7.221  13.477
60768W        W33193  23.763  38.793  10.659
60769W        W33194  37.700   5.361  11.142
60770W        W33195   1.900  28.571  11.705
60771W        W33196  19.228  20.796   2.278
60772W        W33197  42.831  29.190  13.557
60773W        W33198  34.329   2.958  12.533
60774W        W33199  34.399  41.861   4.612
60775W        W33200  38.918  28.308  14.924
60776W        W33201   0.763  29.217   2.690
60777W        W33202  18.542   7.828   3.318
60778W        W33203  25.191  24.493  11.387
60779W        W33204  30.371  22.613   4.675
60780W        W33205  24.622  35.130   0.296
60781W        W33206   7.227  40.032  11.280
60782W        W33207  12.600  37.473   0.282
60783W        W33208  24.026  13.903  12.986
60784W        W33209   5.806   3.717   0.879
60785W        W33210  23.765  25.418   4.066
60786W        W33211   4.754  26.287  10.568
60787W        W33212   1.411  31.949   1.755
60788W        W33213  32.665  26.185  13.583
60789W        W33214  12.097  12.042  14.813
60790W        W33215  17.199  21.766  10.680
60791W        W33216  13.102  39.556  14.772
60792W        W33217  31.225  41.764  13.051
60793W        W33218  29.054   3.681  13.396
60794W        W33219  39.917  12.358  12.424
60795W        W33220  27.999  26.765   1.433
60796W        W33221   5.305   5.797   0.466
60797W        W33222   5.196  43.840   4.086
60798W        W33223  39.854  40.839  10.712
60799W        W33224  12.659  34.512   0.780
60800W        W33225  29.257  39.070  11.449
60801W        W33226  33.483  13.766  14.294
60802W        W33227  21.784  13.735  11.129
60803W        W33228  44.804   7.486  14.999
60804W        W33229  32.627   4.895   1.718
60805W        W33230   8.249  37.487  13.627
60806W        W33231  36.622  25.903  11.233
60807W        W33232  38.352  18.819   4.628
60808W        W33233  16.439  28.943   0.615
60809W        W33234  36.106   7.826  10.603
60810W        W33235  14.845  33.461   0.942
60811W        W33236  34.476  24.239   0.541
60812W        W33237  43.870  25.445   0.799
60813W        W33238  26.077  16.812   4.150
60814W        W33239  38.928  11.676  14.838
60815W        W33240  33.366   0.543  11.979
60816W        W33241  38.279   5.467  13.875
60817W        W33242  36.465  27.005  12.847
60818W        W33243  38.358  23.143   0.260
60819W        W33244  23.061  44.660  14.492
60820W        W33245  11.305  18.237   3.196
60821W        W33246  19.366   1.549  14.471
60822W        W33247  30.669  28.096   3.145
60823W        W33248   5.026  35.999  14.415
60824W        W33249  25.946  44.734   4.187
60825W        W33250  18.825  31.961  12.476
60826W        W33251   9.764  18.667  13.467
60827W        W33252   3.346  18.181   1.322
60828W        W33253   5.193   5.276   0.210
60829W        W33254   2.837   1.052  11.583
60830W        W33255   3.717  13.104   2.473
60831W        W33256  35.119   7.653  10.254
60832W        W33257   0.913   2.948  14.529
60833W        W33258   2.183   1.674  11.924
60834W        W33259  40.040   6.428   3.776
60835W        W33260  18.684  37.240  14.413
60836W        W33261  18.880  13.016   0.473
60837W        W33262  27.643  43.738   0.339
60838W        W33263  19.097  36.605   1.814
60839W        W33264   2.426  19.178  13.819
60840W        W33265   1.973  23.004   2.320
60841W        W33266  12.228  34.583  13.907
60842W        W33267  24.284  36.377  14.955
60843W        W33268  38.461  25.034   2.292
60844W        W33269  43.833  42.923   4.348
60845W        W33270  14.412  29.055   2.819
60846W        W33271   5.156   8.702  11.079
60847W        W33272  13.714   1.888   9.902
60848W        W33273  24.191  11.342  10.915
60849W        W33274  20.084  33.523   4.456
60850W        W33275   2.425  23.946   1.761
60851W        W33276  43.763  13.243  11.919
60852W        W33277  27.759  40.703   1.726
60853W        W33278  37.073  27.040  14.497
60854W        W33279  34.387  30.456  12.512
60855W        W33280  32.028   1.382   3.365
60856W        W33281  28.924   7.879   0.080
60857W        W33282  30.196   9.358   2.171
60858W        W33283   4.656  32.908   3.750
60859W        W33284   6.736   1.251   4.946
60860W        W33285   5.146  28.436  10.114
60861W        W33286  19.795  12.232  12.402
60862W        W33287  30.004   3.783   0.201
60863W        W33288  34.892  33.416  11.078
60864W        W33289  16.045   2.652  12.111
60865W        W33290  14.781  11.759   2.881
60866W        W33291   8.081  19.453  13.971
60867W        W33292   1.460  39.958  12.912
60868W        W33293  11.207  42.495   0.178
60869W        W33294   2.922  37.338   4.684
60870W        W33295  29.538  31.844  14.380
60871W        W33296  14.919  31.333   1.166
60872W        W33297  33.858   2.307   3.524
60873W        W33298  16.532  10.771  13.645
60874W        W33299   8.984   4.054   4.922
60875W        W33300  26.908  28.893  14.905
60876W        W33301   0.966  28.522  13.003
60877W        W33302  43.415  10.766   2.369
60878W        W33303  30.836  10.206   0.466
60879W        W33304  21.971   6.431   0.474
60880W        W33305  14.775  16.692  14.928
60881W        W33306   5.899   2.503  10.686
60882W        W33307  23.708  28.611  11.210
60883W        W33308  16.600  20.799   1.437
60884W        W33309   2.216  39.976  14.048
60885W        W33310  44.867   4.137   3.125
60886W        W33311  39.076  18.704  12.981
60887W        W33312  35.087  27.159   0.737
60888W        W33313  30.388  10.234   2.107
60889W        W33314  16.846  14.246   2.312
60890W        W33315  35.870  22.530  11.315
60891W        W33316   2.949   6.157   3.807
60892W        W33317  11.248  14.333  12.434
60893W        W33318   7.965  18.752   0.955
60894W        W33319  41.327  21.309   2.332
60895W        W33320  19.294  10.745  14.303
60896W        W33321  21.227  26.427   2.115
60897W        W33322  14.166  34.910  13.564
60898W        W33323   5.193  15.942  11.183
60899W        W33324  15.772   3.974  13.353
60900W        W33325  18.823  10.307   2.783
60901W        W33326   8.307  11.696   1.430
60902W        W33327  12.039   3.523  12.427
60903W        W33328  13.257  22.699   3.822
60904W        W33329  29.973  15.695  10.833
60905W        W33330  42.807   0.279  12.064
60906W        W33331  26.844  16.784  10.383
60907W        W33332  18.122  23.970   0.748
60908W        W33333  22.030  31.635   2.762
60909W        W33334  13.215  13.601  14.394
60910W        W33335  35.025  12.779  11.517
60911W        W33336  38.004   9.158   3.075
60912W        W33337  12.059  39.074   2.332
60913W        W33338  37.998  43.898   1.757
60914W        W33339   4.494  32.261   3.200
60915W        W33340  43.984  26.366  13.916
60916W        W33341  36.448  27.878   4.036
60917W        W33342   8.330  11.861   4.200
60918W        W33343   6.753   8.261   4.455
60919W        W33344  43.013  23.675  12.113
60920W        W33345  34.172  36.873  13.053
60921W        W33346  19.101   8.967   3.312
60922W        W33347  35.139  19.210  14.903
60923W        W33348  17.884  17.322   3.566
60924W        W33349   3.763  27.035  11.709
60925W        W33350  42.970  10.172   0.165
60926W        W33351   0.689   7.818   2.129
60927W        W33352  18.480  39.382   4.706
60928W        W33353  34.738  14.519   9.957
60929W        W33354  42.765  32.662   0.702
60930W        W33355   2.269  28.435   0.074
60931W        W33356   8.442  24.663   0.478
60932W        W33357   8.684  37.772  14.493
60933W        W33358  23.679  43.565  14.920
60934W        W33359  30.752   5.961  11.173
60935W        W33360   1.010  18.748  11.174
60936W        W33361   2.455  38.026   2.712
60937W        W33362  37.983   6.863   3.687
60938W        W33363   8.441  18.879   2.796
60939W        W33364  13.807   2.514   2.665
60940W        W33365   9.168  37.940   0.302
60941W        W33366  27.069  30.576  12.435
60942W        W33367  38.456  15.500  11.720
60943W        W33368  18.936  41.691   4.594
60944W        W33369  36.580  16.812   4.321
60945W        W33370   0.420  15.095  11.557
60946W        W33371  38.537  16.124   0.823
60947W        W33372  17.521  21.645   4.630
60948W        W33373   0.991  30.942   1.046
60949W        W33374  13.759  12.853   0.380
60950W        W33375   3.710  31.330   0.862
60951W        W33376  18.506  20.467  14.975
60952W        W33377   5.390  20.124   4.879
60953W        W33378   7.209  37.538   0.265
60954W        W33379  25.624  10.184   0.404
60955W        W33380  28.447  13.498  14.210
60956W        W33381  14.990  40.301  11.594
60957W        W33382  35.226  19.852   0.252
60958W        W33383  11.738  25.200   1.489
60959W        W33384  16.262  10.864   0.325
60960W        W33385   6.814  28.800  10.371
60961W        W33386  20.729  29.410   3.607
60962W        W33387   0.249  25.398   4.154
60963W        W33388  12.138  40.126  12.651
60964W        W33389   8.067  10.666  11.691
60965W        W33390  23.606  29.176  12.125
60966W        W33391   2.479  13.717   2.718
60967W        W33392  28.971  16.112   2.289
60968W        W33393   5.210  40.958  13.335
60969W        W33394  35.452  38.019  12.858
60970W        W33395   0.236  10.283   1.867
60971W        W33396  17.567  20.563   2.374
60972W        W33397   7.644  18.772   3.097
60973W        W33398  40.758   6.806   4.274
60974W        W33399  26.294  38.288  11.554
60975W        W33400   1.385  21.762   3.795
60976W        W33401  42.606  22.739   5.548
60977W        W33402   4.026  39.036   2.278
60978W        W33403  21.123  20.245   2.349
60979W        W33404  26.480  25.015  11.071
60980W        W33405  27.875  19.646   5.012
60981W        W33406  28.150  13.881  11.313
60982W        W33407   6.037  43.953  11.466
60983W        W33408  15.145  10.702  13.925
60984W        W33409   2.508  23.483   0.191
60985W        W33410  21.866   0.887  14.870
60986W        W33411  33.428  42.701  11.071
60987W        W33412  20.314   9.332  13.242
60988W        W33413  31.941  37.539  14.946
60989W        W33414  19.751  35.102  14.432
60990W        W33415   5.371  16.634  12.708
60991W        W33416   7.838  30.496  10.327
60992W        W33417  10.461   3.890   4.677
60993W        W33418  24.421  44.099  12.896
60994W        W33419  20.247  24.483  12.427
60995W        W33420  38.788  28.754   0.139
60996W        W33421  29.145  24.573  11.459
60997W        W33422  28.427   0.995   1.755
60998W        W33423  20.611  19.791  11.418
60999W        W33424  10.892  22.026   2.640
61000W        W33425  12.383  12.396   4.618
61001W        W33426   5.689   8.699  11.111
61002W        W33427  27.985  16.494   1.661
61003W        W33428  15.135   4.494   2.261
61004W        W33429   9.879  44.379  10.730
61005W        W33430   1.975  38.767  11.116
61006W        W33431  14.343  40.004   3.479
61007W        W33432  21.718   0.076   2.535
61008W        W33433  18.049  34.740  10.122
61009W        W33434  10.674  14.337   2.655
61010W        W33435  21.224  15.016  14.800
61011W        W33436   1.443  21.304  14.263
61012W        W33437  38.171  43.246   3.668
61013W        W33438  27.383  39.566  10.008
61014W        W33439  32.644  15.778  11.502
61015W        W33440  35.776  32.890   0.851
61016W        W33441  38.605  11.461   0.376
61017W        W33442  19.520  28.030   0.943
61018W        W33443  16.737  18.756  14.030
61019W        W33444  32.910   6.758   0.767
61020W        W33445  21.510  38.114  14.579
61021W        W33446  10.314  44.262   1.880
61022W        W33447  38.352  25.619  12.072
61023W        W33448  30.605  17.231   3.604
61024W        W33449   0.491  34.717  10.022
61025W        W33450  32.218   4.499  10.914
61026W        W33451   6.363   3.736   4.861
61027W        W33452  31.094   1.654  11.106
61028W        W33453  39.507   7.251   4.265
61029W        W33454  27.383  43.317   4.194
61030W        W33455  29.675  27.654   2.366
61031W        W33456  33.040  20.637  12.466
61032W        W33457  29.963   7.838  14.772
61033W        W33458  43.768  33.163  11.454
61034W        W33459  28.718  40.500   5.141
61035W        W33460  32.340  20.247   4.744
61036W        W33461  43.847  33.983   0.371
61037W        W33462  37.495  38.876   1.149
61038W        W33463  41.542  21.194   1.779
61039W        W33464  42.687  44.698  11.518
61040W        W33465  26.575  44.294   2.867
61041W        W33466  43.538  44.679  13.733
61042W        W33467  35.555  18.680  14.217
61043W        W33468  23.411  21.963   1.902
61044W        W33469  23.217  42.387   3.167
61045W        W33470  29.159  11.793   0.752
61046W        W33471  42.109  22.692  10.073
61047W        W33472   4.769  22.471   4.768
61048W        W33473  12.823   4.637  11.277
61049W        W33474  40.592  37.397   0.773
61050W        W33475  10.739  19.626  10.843
61051W        W33476  24.006  18.775  13.544
61052W        W33477  39.381   5.173  14.669
61053W        W33478  21.085  31.610   3.606
61054W        W33479  21.547  14.731   4.689
61055W        W33480   3.134   6.248   2.718
61056W        W33481  35.598  27.063   3.821
61057W        W33482  30.026  16.195   3.189
61058W        W33483  12.243  29.407   0.594
61059W        W33484   4.759  42.973   4.326
61060W        W33485   1.739  37.740   2.608
61061W        W33486  12.320   4.415  12.875
61062W        W33487  13.074  13.595   4.876
61063W        W33488  26.620  18.670  11.055
61064W        W33489   8.096  40.922   1.004
61065W        W33490  15.587  25.692  11.549
61066W        W33491  43.971  35.520   2.232
61067W        W33492  30.224  33.867  13.866
61068W        W33493  13.405  38.819   0.258
61069W        W33494   9.808   1.217   3.734
61070W        W33495  44.281  16.156   4.163
61071W        W33496  36.943  18.798   1.491
61072W        W33497  20.857   7.992  11.863
61073W        W33498  34.823  37.858   3.671
61074W        W33499  27.983  32.453  13.439
61075W        W33500   2.896  25.543  11.104
61076W        W33501  17.223   5.757  10.235
61077W        W33502  27.667  37.760  11.996
61078W        W33503  15.736  35.466   0.954
61079W        W33504  13.691  25.036   3.414
61080W        W33505  36.652  36.845  14.693
61081W        W33506  16.217  28.626  11.849
61082W        W33507  38.554   7.262  11.796
61083W        W33508   0.041  27.081  11.180
61084W        W33509  17.723  20.714  13.819
61085W        W33510  27.106  42.617  10.666
61086W        W33511  19.561  35.098   3.674
61087W        W33512  26.189  18.291   3.585
61088W        W33513  42.434  38.747   4.644
61089W        W33514  15.781  12.734   1.721
61090W        W33515  43.828  38.975   4.795
61091W        W33516  23.981  38.155  12.505
61092W        W33517  37.040   3.586  13.538
61093W        W33518  39.277  41.076  13.860
61094W        W33519  27.112  34.082  13.325
61095W        W33520  15.788  12.818  11.160
61096W        W33521  42.059   5.364  10.488
61097W        W33522  19.170   9.285  10.654
61098W        W33523  38.017  10.760  14.303
61099W        W33524  12.061  30.406  13.011
61100W        W33525  39.746   1.928   3.217
61101W        W33526  16.925  15.415  10.248
61102W        W33527   1.225  12.352   4.611
61103W        W33528  42.920  14.180  13.027
61104W        W33529  21.701   9.941   2.351
61105W        W33530   1.440  33.014  11.047
61106W        W33531  12.682  37.654   3.636
61107W        W33532  42.771  17.769   3.234
61108W        W33533  18.854   7.784  13.880
61109W        W33534  17.099  28.963   2.009
61110W        W33535  29.424   5.414   0.482
61111W        W33536  13.868  30.258   2.958
61112W        W33537   5.841  19.134  14.411
61113W        W33538   5.915   0.196  11.059
61114W        W33539  11.839  38.859  12.429
61115W        W33540   3.691  38.000   0.408
61116W        W33541  44.576  37.064   1.317
61117W        W33542  29.538  23.751  10.249
61118W        W33543  10.913  15.091   0.773
61119W        W33544   3.784  42.868  13.030
61120W        W33545  35.309  28.614   4.789
61121W        W33546  18.034  21.576   2.801
61122W        W33547   8.612  35.086   1.666
61123W        W33548  33.020  27.605  12.669
61124W        W33549  16.965   7.456   0.891
61125W        W33550  39.643  38.908   4.088
61126W        W33551  43.410  40.306  13.635
61127W        W33552  21.144   1.621   2.341
61128W        W33553  37.080  34.651   1.473
61129W        W33554  36.670   9.292   3.022
61130W        W33555  17.891   4.123   0.273
61131W        W33556  22.726  44.067   1.474
61132W        W33557  29.158   8.325  12.414
61133W        W33558  44.932  30.125   0.875
61134W        W33559  34.851   2.010   1.002
61135W        W33560  12.347  14.507   3.757
61136W        W33561  24.112  13.787  12.112
61137W        W33562  14.532  42.524   4.119
61138W        W33563  34.541  36.533  12.008
61139W        W33564  20.938   3.061  11.101
61140W        W33565   7.919   7.863  13.959
61141W        W33566  39.571   8.298   1.002
61142W        W33567  10.742  14.208   4.781
61143W        W33568  23.779   4.841  13.932
61144W        W33569  35.580  33.508   3.683
61145W        W33570  20.158  24.680   2.431
61146W        W33571   2.964  34.830   3.870
61147W        W33572   4.966  16.357  11.415
61148W        W33573   7.379  28.680   4.590
61149W        W33574  13.876  32.154  13.366
61150W        W33575  27.109  35.031   4.766
61151W        W33576  26.619  24.478   1.765
61152W        W33577  26.472  41.939   4.075
61153W        W33578   9.768  35.969  13.830
61154W        W33579  39.827  44.577  13.479
61155W        W33580  32.526  10.903  11.918
61156W        W33581  39.541  18.227  14.140
61157W        W33582  25.934   3.122  10.583
61158W        W33583   2.238  12.620   4.687
61159W        W33584   1.422  38.807   2.284
61160W        W33585   4.422   7.468  10.678
61161W        W33586   8.145  21.266   1.263
61162W        W33587  40.426  33.381   1.879
61163W        W33588   9.380   7.832   1.796
61164W        W33589  38.369  20.547  14.366
61165W        W33590  31.421  22.540   0.605
61166W        W33591  19.539  22.134  10.877
61167W        W33592   2.119  15.122  11.932
61168W        W33593  22.531  20.012   2.756
61169W        W33594  27.090  43.400   3.757
61170W        W33595  23.595  13.390  14.697
61171W        W33596  14.809  18.594   4.246
61172W        W33597  30.598   5.870   3.097
61173W        W33598  26.537  31.088  12.678
61174W        W33599   4.108   3.458   3.702
61175W        W33600  28.230  39.610   4.432
61176W        W33601  35.412  13.343  10.741
61177W        W33602  15.252  31.563   2.943
61178W        W33603   1.803   2.292   0.671
61179W        W33604  21.044  39.032  13.726
61180W        W33605   8.192  25.052   4.580
61181W        W33606  38.824  40.204   2.020
61182W        W33607  30.428  11.367  13.244
61183W        W33608  10.120  17.691  11.542
61184W        W33609  11.104  16.792  10.799
61185W        W33610  24.702  37.793  12.061
61186W        W33611   9.872  22.973   2.268
61187W        W33612  15.178  28.525  11.997
61188W        W33613   5.800  16.027  13.958
61189W        W33614  10.362  20.602   4.137
61190W        W33615  34.448  12.652  10.691
61191W        W33616  16.735  28.555   3.370
61192W        W33617  23.375  19.602  12.072
61193W        W33618  28.723  30.419  14.927
61194W        W33619  34.461  43.741   2.823
61195W        W33620  25.070   6.436   3.429
61196W        W33621  44.007  32.070   1.254
61197W        W33622  35.539  30.553   3.956
61198W        W33623  31.966  33.609   2.420
61199W        W33624  27.601  22.927  10.257
61200W        W33625   0.430  31.454   9.379
61201W        W33626  30.767  39.835  10.668
61202W        W33627  32.200  18.673   0.902
61203W        W33628  26.981  33.137   2.893
61204W        W33629  37.884  11.819  11.139
61205W        W33630  40.602   2.861  12.866
61206W        W33631  31.005  27.111  12.679
61207W        W33632  23.001  21.333   2.864
61208W        W33633  41.011   0.554  13.312
61209W        W33634  31.570  31.505  10.608
61210W        W33635  18.683   4.133  12.520
61211W        W33636  18.084  13.607  14.876
61212W        W33637  39.585  26.402   1.844
61213W        W33638   4.716   9.887  13.996
61214W        W33639  20.135  42.513   3.134
61215W        W33640  35.145  10.387   0.337
61216W        W33641   2.201  32.531  13.364
61217W        W33642   4.645   8.672   3.683
61218W        W33643   1.710   7.688   1.298
61219W        W33644   2.795   8.269  11.929
61220W        W33645  12.548   3.778  14.047
61221W        W33646   5.250   2.752  13.486
61222W        W33647  33.998  15.252  11.376
61223W        W33648  21.598   1.519  13.540
61224W        W33649  26.201  17.873  12.091
61225W        W33650  41.059  34.639  11.661
61226W        W33651  39.368  39.057  12.882
61227W        W33652  17.580  14.174  10.763
61228W        W33653  27.625  12.330   3.381
61229W        W33654  18.179  25.927  13.595
61230W        W33655  13.724  44.963   4.639
61231W        W33656  25.793  25.641   2.102
61232W        W33657  31.651  20.272  12.477
61233W        W33658  42.625  14.251   2.181
61234W        W33659   9.346   1.931  12.915
61235W        W33660  15.250  27.547  11.150
61236W        W33661  18.093  26.926  13.127
61237W        W33662   0.244   6.727   3.791
61238W        W33663  37.372  38.398   0.917
61239W        W33664  36.656   6.268   1.755
61240W        W33665  20.168  40.206   1.733
61241W        W33666  31.142   4.697  11.113
61242W        W33667  20.090   5.412   4.358
61243W        W33668  20.466  31.888   0.827
61244W        W33669  44.866  17.015  12.817
61245W        W33670  42.848  29.259   0.803
61246W        W33671  41.046  30.211   2.324
61247W        W33672  42.486   9.627  12.121
61248W        W33673  10.980  28.732   0.182
61249W        W33674  30.227  19.953   0.417
61250W        W33675  24.541  14.075   0.428
61251W        W33676  31.225  29.048  13.408
61252W        W33677   8.878  19.575  11.572
61253W        W33678  23.903  25.645   1.881
61254W        W33679   9.618  21.371   3.823
61255W        W33680  37.903  19.642   2.829
61256W        W33681  30.447  19.383  11.051
61257W        W33682  21.713  10.561   1.783
61258W        W33683  44.262  30.228  10.108
61259W        W33684   1.192  22.998  10.738
61260W        W33685  43.418  18.109   3.169
61261W        W33686  41.578  30.670  12.483
61262W        W33687  44.747  36.219   4.775
61263W        W33688  27.259  40.558   1.523
61264W        W33689  42.019  40.379   1.312
61265W        W33690   0.407  12.786   3.448
61266W        W33691  10.323  20.783  13.776
61267W        W33692  30.898  42.579  13.874
61268W        W33693  44.827   4.808   1.511
61269W        W33694  24.010   7.139  12.638
61270W        W33695  29.400  35.668   2.824
61271W        W33696  10.670  35.577  13.152
61272W        W33697  12.312  30.008  14.414
61273W        W33698  40.332  34.832   4.476
61274W        W33699  25.166  39.386  10.913
61275W        W33700  31.359  23.488  13.584
61276W        W33701  41.589   3.966  10.607
61277W        W33702   5.108  14.307  12.085
61278W        W33703  21.422  17.641   3.929
61279W        W33704  24.549   9.291   4.078
61280W        W33705  32.212  38.982   1.908
61281W        W33706   7.785  29.591   3.769
61282W        W33707  19.475   5.432   3.629
61283W        W33708  35.719  10.424  14.024
61284W        W33709  42.163  42.834  11.055
61285W        W33710  10.579   3.289  14.369
61286W        W33711  22.775  33.710   0.978
61287W        W33712  12.059  17.639  13.659
61288W        W33713  37.110  25.297  10.725
61289W        W33714   7.191  35.382  11.106
61290W        W33715   6.589   5.276   4.527
61291W        W33716  21.019  15.185   2.792
61292W        W33717   2.806  23.896  11.156
61293W        W33718   0.775  34.369  12.523
61294W        W33719   2.070   9.433   2.540
61295W        W33720  25.440  21.836   4.112
61296W        W33721   8.335  24.196   0.820
61297W        W33722  17.060  12.796   1.385
61298W        W33723  39.897   4.998   2.403
61299W        W33724   0.811  39.928   0.835
61300W        W33725   2.842  22.900   4.758
61301W        W33726  21.518  31.095   3.177
61302W        W33727  25.223  38.815   0.052
61303W        W33728  39.248  28.407  10.294
61304W        W33729   1.718  36.317  13.019
61305W        W33730  37.166  25.145   1.801
61306W        W33731  28.726  36.373   0.158
61307W        W33732  20.821  10.902   0.323
61308W        W33733  10.827   4.168   4.289
61309W        W33734   7.330   4.795  12.228
61310W        W33735  15.829   0.194   2.407
61311W        W33736   2.995   6.316  12.384
61312W        W33737  38.594  11.995  13.537
61313W        W33738  12.314   8.845   1.753
61314W        W33739  18.332  44.873   1.862
61315W        W33740  14.122   4.335  13.410
61316W        W33741  22.022  12.250   4.356
61317W        W33742   6.385  28.997   3.355
61318W        W33743  19.280  19.333   1.070
61319W        W33744  25.924   0.574   5.079
61320W        W33745  22.226  44.608  11.108
61321W        W33746  20.533  30.462   3.820
61322W        W33747  19.189  44.356  13.057
61323W        W33748   3.598  42.865   5.263
61324W        W33749  43.698   2.508   3.790
61325W        W33750   3.679  12.721   4.589
61326W        W33751  10.741  29.423  12.016
61327W        W33752   5.109   6.197   1.854
61328W        W33753  31.712   9.655  12.435
61329W        W33754  44.940  30.155  13.418
61330W        W33755   2.344  41.744   5.061
61331W        W33756   2.443  25.527  12.974
61332W        W33757  42.030  30.530   3.296
61333W        W33758  12.667  42.257  13.628
61334W        W33759  44.024   6.829   2.703
61335W        W33760  43.867   3.908   0.495
61336W        W33761   1.555  25.021  14.918
61337W        W33762  39.206   5.391   3.664
61338W        W33763  16.269  39.025   1.958
61339W        W33764  12.564   6.784  14.405
61340W        W33765   4.412  40.114   1.891
61341W        W33766  11.209  14.305   1.947
61342W        W33767  17.042   2.404  13.555
61343W        W33768   6.730  31.982   1.638
61344W        W33769  33.599  22.519   4.128
61345W        W33770   2.151  24.463  12.824
61346W        W33771   8.581  19.132   1.765
61347W        W33772  25.415   8.642  11.745
61348W        W33773  26.540  27.150   5.113
61349W        W33774  41.406  37.604   0.497
61350W        W33775  33.914  44.830   3.261
61351W        W33776  36.566  10.255  13.770
61352W        W33777  29.859  12.087   2.301
61353W        W33778  24.645  35.575  11.569
61354W        W33779  34.091  25.532   4.879
61355W        W33780  18.581  21.523  10.416
61356W        W33781  29.273  30.150   2.295
61357W        W33782   9.304  15.310   4.611
61358W        W33783   5.772  20.210  14.908
61359W        W33784  25.456  38.197  11.214
61360W        W33785  15.053  42.479   4.157
61361W        W33786  30.512   9.277  12.342
61362W        W33787  11.700  21.482  14.352
61363W        W33788  31.294  20.666  12.543
61364W        W33789  25.950  32.461   5.409
61365W        W33790  25.488  35.028  12.609
61366W        W33791  36.332  34.705   2.719
61367W        W33792  21.227  37.015   0.572
61368W        W33793  26.183  17.542  13.286
61369W        W33794  11.614  28.159  11.136
61370W        W33795  12.380  35.417  14.969
61371W        W33796  35.296  32.974  11.511
61372W        W33797  13.620  13.541  11.269
61373W        W33798  22.404  41.232   0.476
61374W        W33799  21.945  24.967  14.270
61375W        W33800  16.172  30.024   4.595
61376W        W33801  15.315  17.290  13.822
61377W        W33802  15.665  20.364   2.714
61378W        W33803   3.076  41.480   2.309
61379W        W33804   1.873   6.514  11.135
61380W        W33805  23.084   2.799  10.693
61381W        W33806  43.254  32.189  12.690
61382W        W33807  19.349  41.981  10.721
61383W        W33808   0.356  11.698  10.698
61384W        W33809  37.197  13.242  13.269
61385W        W33810   2.030   3.282   3.638
61386W        W33811   5.854  42.625  12.186
61387W        W33812  25.637  19.174  12.109
61388W        W33813  27.536  44.349   0.053
61389W        W33814  39.398   6.420  11.562
61390W        W33815  36.872  12.174   0.313
61391W        W33816  23.021  25.677  14.410
61392W        W33817  29.523  12.937  14.901
61393W        W33818  21.584   6.225   0.192
61394W        W33819  18.649  33.595  11.442
61395W        W33820  20.052   3.753   2.404
61396W        W33821  34.358  42.360  11.176
61397W        W33822  36.529  10.626  14.449
61398W        W33823   6.359  16.275  11.579
61399W        W33824   0.645   8.934  10.755
61400W        W33825  22.793  27.695  13.436
61401W        W33826  44.920  41.743   1.779
61402W        W33827   9.619  30.510   3.644
61403W        W33828  20.749  18.915  10.747
61404W        W33829   9.248  28.950  14.833
61405W        W33830   6.165  32.162  13.956
61406W        W33831  38.561  25.259  13.964
61407W        W33832  24.945  31.069   0.475
61408W        W33833  40.306  14.317   4.221
61409W        W33834  17.953   6.331  12.193
61410W        W33835  25.545  16.077  13.980
61411W        W33836  13.560  33.087   4.821
61412W        W33837  10.146  22.034   3.163
61413W        W33838  41.862  41.001  12.059
61414W        W33839  14.711  14.903   0.312
61415W        W33840  22.986  34.201   1.220
61416W        W33841  38.590   4.656   1.734
61417W        W33842  41.442   7.635  11.162
61418W        W33843  33.202  21.017   3.232
61419W        W33844  20.980  36.044  13.774
61420W        W33845  23.522  26.494   1.824
61421W        W33846  23.450   4.079   3.837
61422W        W33847  20.571  17.906  11.032
61423W        W33848  13.085  11.376  10.966
61424W        W33849  33.458  38.593  11.681
61425W        W33850   8.119  24.532   3.723
61426W        W33851   8.755  38.627  13.880
61427W        W33852  35.447  30.574  13.285
61428W        W33853  15.594  26.579  12.575
61429W        W33854  15.326  32.398   3.670
61430W        W33855  24.192  18.119  14.421
61431W        W33856   9.166   8.347   0.075
61432W        W33857  23.546  25.184   1.248
61433W        W33858  36.200  11.812   3.725
61434W        W33859   8.386  37.942   1.263
61435W        W33860  43.156  25.391   3.791
61436W        W33861  17.302   2.594   3.699
61437W        W33862  37.475  28.203   1.146
61438W        W33863  10.784   0.922   4.544
61439W        W33864   0.275  34.867  13.313
61440W        W33865   7.143   2.078  10.627
61441W        W33866  22.109  17.484  13.298
61442W        W33867   5.750  36.532   4.077
61443W        W33868  11.150  25.416   2.891
61444W        W33869  34.875  37.291   1.409
61445W        W33870  27.445   5.791   0.988
61446W        W33871  23.883   2.791   1.654
61447W        W33872  26.200  30.176  10.629
61448W        W33873   2.810  27.532  13.941
61449W        W33874  13.303  13.782   0.300
61450W        W33875  36.022  21.609   0.823
61451W        W33876   5.725   0.826  12.445
61452W        W33877  37.274  17.784  14.278
61453W        W33878   4.952  19.237  14.072
61454W        W33879  37.418   7.204   0.869
61455W        W33880   4.803  40.783  10.685
61456W        W33881   5.665   2.303  12.032
61457W        W33882   4.274  23.675   0.210
61458W        W33883  23.080  16.708  14.230
61459W        W33884  26.689  27.944  13.530
61460W        W33885  12.286  10.063  12.384
61461W        W33886  36.501  14.755  14.369
61462W        W33887  10.304  18.113  10.525
61463W        W33888   8.267  33.525  13.494
61464W        W33889  23.288  19.104  11.037
61465W        W33890  17.856  22.992  13.477
61466W        W33891   5.959  23.807  14.295
61467W        W33892  26.571  39.977   2.496
61468W        W33893  42.878  32.546   0.181
61469W        W33894  25.123  22.242   0.762
61470W        W33895  16.149  15.537   1.879
61471W        W33896   6.479  14.393   0.502
61472W        W33897  23.284  18.642   0.841
61473W        W33898  25.917  23.118  14.844
61474W        W33899  12.486   0.253   0.060
61475W        W33900  40.552  39.110   1.861
61476W        W33901   0.241  19.751   3.155
61477W        W33902  29.443   7.399   0.510
61478W        W33903   8.098  30.880   0.449
61479W        W33904  22.638  38.391  11.981
61480W        W33905  25.784  32.185  10.246
61481W        W33906  19.733   3.354   3.280
61482W        W33907  37.851  17.782   3.192
61483W        W33908  42.616  42.449   1.005
61484W        W33909   7.423  20.562  13.425
61485W        W33910  39.446  28.115   4.099
61486W        W33911  36.576  30.975   1.703
61487W        W33912   3.382  19.241  12.028
61488W        W33913   6.638  16.520  11.977
61489W        W33914  36.020  14.967   1.200
61490W        W33915  35.370  12.517   4.703
61491W        W33916   9.889  13.791  12.412
61492W        W33917  23.622  19.470  10.711
61493W        W33918  33.313  37.379  12.575
61494W        W33919   1.449  19.325  14.725
61495W        W33920  21.829  34.126  11.695
61496W        W33921  11.845  41.830   4.092
61497W        W33922  35.959  16.559   3.115
61498W        W33923   5.871  36.400   1.658
61499W        W33924   6.731  27.924   3.285
61500W        W33925  29.313   8.806   4.953
61501W        W33926  33.801  42.841   2.778
61502W        W33927  10.715  10.899   4.299
61503W        W33928  28.731   0.857   0.455
61504W        W33929  11.507  20.113   2.850
61505W        W33930  37.070  38.072   1.301
61506W        W33931  27.618  43.861  11.684
61507W        W33932   9.180  29.477  13.847
61508W        W33933  12.027  24.981   1.857
61509W        W33934   1.508  38.433   4.171
61510W        W33935  42.525  40.830   3.778
61511W        W33936  30.945  28.570   3.108
61512W        W33937  12.061  26.005  12.504
61513W        W33938  15.454  11.172   3.652
61514W        W33939  27.660  13.595  11.251
61515W        W33940  42.268  27.333  11.803
61516W        W33941  32.891   9.221  13.376
61517W        W33942  24.066  16.290   2.213
61518W        W33943  26.945   6.915  13.515
61519W        W33944  33.343  15.065  13.812
61520W        W33945  30.238   8.103  12.641
61521W        W33946  18.176  22.613  14.892
61522W        W33947  22.713  14.710   0.063
61523W        W33948  22.959  34.595  14.999
61524W        W33949  36.864  28.605   4.586
61525W        W33950   3.811  32.403   0.027
61526W        W33951  18.551   2.469  11.077
61527W        W33952  38.244  27.925  11.988
61528W        W33953   8.300  25.923   3.574
61529W        W33954  32.099  40.780   3.300
61530W        W33955   9.460   6.193   3.617
61531W        W33956  14.769   9.059   0.794
61532W        W33957  17.287  14.138  13.097
61533W        W33958  40.823  37.101  12.190
61534W        W33959   3.897  32.912  14.902
61535W        W33960  42.752   6.927  11.727
61536W        W33961   6.280  13.879  13.354
61537W        W33962  13.843   4.751  14.915
61538W        W33963  15.736   1.916  10.639
61539W        W33964  19.416   2.380  11.915
61540W        W33965   1.015  19.047   4.541
61541W        W33966   3.950  22.304  13.050
61542W        W33967   2.791  42.534  10.902
61543W        W33968  16.619  10.201   3.320
61544W        W33969  37.807   6.207  11.961
61545W        W33970  10.757  21.017   0.770
61546W        W33971  10.274  43.770   0.983
61547W        W33972  32.742  28.881   1.860
61548W        W33973   6.540  29.421   0.470
61549W        W33974  16.594  41.862   3.372
61550W        W33975  24.993  44.028   1.444
61551W        W33976  19.817  10.464   3.726
61552W        W33977  35.559  19.499   1.565
61553W        W33978   8.323  15.994  14.520
61554W        W33979  32.050  22.773  10.685
61555W        W33980  16.322  16.039  14.389
61556W        W33981  16.671   2.591  11.669
61557W        W33982  23.965  15.026   1.929
61558W        W33983   7.472  37.423  12.881
61559W        W33984   7.281  22.136   0.525
61560W        W33985   6.701  17.738  12.491
61561W        W33986  22.298  15.504   4.997
61562W        W33987  41.214  15.116   3.640
61563W        W33988  24.923  14.126   4.594
61564W        W33989   7.443  28.230  12.344
61565W        W33990   4.291  12.525  12.884
61566W        W33991   7.675   3.723   2.942
61567W        W33992   2.548  18.407  10.335
61568W        W33993   1.880   2.351   1.214
61569W        W33994  14.852  20.708  14.984
61570W        W33995  13.766  29.085  14.903
61571W        W33996  38.518  20.592   4.611
61572W        W33997  21.692   4.489   1.186
61573W        W33998  33.157  15.815  11.588
61574W        W33999  21.180  34.362  11.059
61575W        W34000  41.964  34.363   3.389
61576W        W34001  31.101   4.326  14.846
61577W        W34002  23.013   4.676   1.400
61578W        W34003   5.736  22.800   4.726
61579W        W34004   5.056  36.060   4.316
61580W        W34005  36.538  36.060   2.435
61581W        W34006  43.481  15.086  11.112
61582W        W34007   8.752  40.741  10.785
61583W        W34008  30.133  37.566   1.881
61584W        W34009  40.344  26.655   2.857
61585W        W34010   6.409  15.552  14.478
61586W        W34011  28.157   3.463  13.455
61587W        W34012  32.054  44.366   0.268
61588W        W34013  20.157  38.826   4.946
61589W        W34014  29.417  13.376   2.553
61590W        W34015  23.266  36.755  12.980
61591W        W34016  11.745  14.169  12.574
61592W        W34017  17.244   0.216  12.453
61593W        W34018   8.883  33.060  14.346
61594W        W34019  30.364  18.003   4.503
61595W        W34020  26.416  25.045   3.196
61596W        W34021  17.361   0.454   0.336
61597W        W34022  26.919  38.763  13.657
61598W        W34023  23.039  36.533   1.161
61599W        W34024   4.550  31.259   3.376
61600W        W34025   8.362  28.123  14.379
61601W        W34026  23.003  12.195   2.309
61602W        W34027  29.900   5.332   3.308
61603W        W34028  15.604  35.611   3.261
61604W        W34029  40.337   2.859   3.281
61605W        W34030  37.622   8.902  12.339
61606W        W34031  35.078   3.878  13.087
61607W        W34032  19.618  14.555  13.768
61608W        W34033  35.462  32.192   5.087
61609W        W34034  15.516  20.347  11.392
61610W        W34035  28.081  36.562   4.930
61611W        W34036  14.640  41.098   2.133
61612W        W34037  32.089  12.333  14.823
61613W        W34038  30.619  44.967   0.507
61614W        W34039  43.419   5.565   0.417
61615W        W34040  11.128  28.232   2.309
61616W        W34041  15.166  33.085  10.746
61617W        W34042  41.007  15.626   1.157
61618W        W34043  23.250  31.756  13.774
61619W        W34044  10.731  30.859  14.039
61620W        W34045   3.295  24.576   1.763
61621W        W34046  34.568   5.786   4.699
61622W        W34047   5.943  13.353   4.223
61623W        W34048  22.262  15.772  12.955
61624W        W34049  35.478  30.719   3.480
61625W        W34050  29.659  30.048  14.766
61626W        W34051  27.486  24.671   1.221
61627W        W34052  21.492  30.699   3.650
61628W        W34053  42.086  38.918   0.211
61629W        W34054   0.192   9.452  12.444
61630W        W34055  15.374  24.764  13.099
61631W        W34056  26.541  40.500   2.775
61632W        W34057  32.850   9.342   1.701
61633W        W34058  10.646  36.082  13.960
61634W        W34059  13.185  29.166   0.221
61635W        W34060  28.774  31.951  14.756
61636W        W34061  13.038  13.200   3.141
61637W        W34062  19.588  15.608  10.895
61638W        W34063  18.296   7.795  14.859
61639W        W34064  22.921  36.008   4.569
61640W        W34065   0.031  34.477  13.007
61641W        W34066  44.601  40.601   0.418
61642W        W34067  24.163  19.248   0.159
61643W        W34068  25.697   6.221   1.438
61644W        W34069  22.307  17.113  10.154
61645W        W34070   8.356  12.675  12.569
61646W        W34071  12.318   1.352  10.238
61647W        W34072  37.335  12.238   4.618
61648W        W34073  33.483  20.181   2.119
61649W        W34074  21.116  40.358  11.131
61650W        W34075  31.366  30.537   2.793
61651W        W34076  15.987  36.810   1.326
61652W        W34077   3.975  15.225   1.453
61653W        W34078  23.492   4.760   2.424
61654W        W34079   1.611  13.609  11.315
61655W        W34080  27.183  37.394  11.385
61656W        W34081   6.643   6.255   0.863
61657W        W34082  23.604   6.138   0.745
61658W        W34083  18.706  27.456   0.569
61659W        W34084  44.379  10.431   2.263
61660W        W34085  43.441  35.627  13.932
61661W        W34086  23.745  35.884   3.592
61662W        W34087  21.467  19.494  13.858
61663W        W34088  18.160   4.686   2.635
61664W        W34089   1.336   9.921  14.955
61665W        W34090   0.766  40.471  13.236
61666W        W34091  34.092   3.884  11.631
61667W        W34092  39.865  43.740  10.594
61668W        W34093  30.652  30.550  14.783
61669W        W34094  37.488   8.121   4.823
61670W        W34095  11.336  37.846   0.051
61671W        W34096  11.324  32.454   0.927
61672W        W34097  27.443  28.568  11.432
61673W        W34098  14.822   1.381  12.954
61674W        W34099  37.985  23.756   1.864
61675W        W34100  12.889   4.294   0.702
61676W        W34101  19.365   6.391   3.724
61677W        W34102   0.744  39.269   2.441
61678W        W34103   8.356  19.082   2.286
61679W        W34104   6.149  16.745   1.572
61680W        W34105  17.989  10.291   3.451
61681W        W34106  42.493   2.255  14.442
61682W        W34107  39.469  15.567  12.047
61683W        W34108  34.363  16.713   4.702
61684W        W34109   1.395  38.472   3.647
61685W        W34110  28.038  20.164  13.555
61686W        W34111  11.643  11.093  13.513
61687W        W34112  29.919  21.683   3.276
61688W        W34113  21.282  37.335   3.371
61689W        W34114   4.344  10.410   4.456
61690W        W34115   3.942  30.910   0.703
61691W        W34116  38.529   3.363  10.353
61692W        W34117  10.269  38.987   4.585
61693W        W34118   5.412   3.676   3.918
61694W        W34119  17.744   7.821   4.622
61695W        W34120   4.659  24.922  14.447
61696W        W34121  33.949  26.617  10.043
61697W        W34122   7.611  18.989   1.877
61698W        W34123  27.588  11.515  12.053
61699W        W34124   4.486  31.598   3.783
61700W        W34125  36.574   8.962   5.236
61701W        W34126  26.650  21.562  13.835
61702W        W34127  34.623  22.527   4.348
61703W        W34128  16.146  34.762   1.254
61704W        W34129  38.301  37.333  13.091
61705W        W34130  13.098   5.656   1.667
61706W        W34131   8.262   2.181   2.225
61707W        W34132  35.317   5.969  13.678
61708W        W34133  35.058  18.338  10.321
61709W        W34134  36.992   8.849   3.740
61710W        W34135  17.798  29.133   0.749
61711W        W34136  14.296  35.535   1.352
61712W        W34137   4.135  19.146  14.337
61713W        W34138  36.323  44.395   2.272
61714W        W34139  43.057   0.972  13.363
61715W        W34140  21.172  12.691  14.476
61716W        W34141  27.464  37.987   0.960
61717W        W34142   3.899  43.956  14.480
61718W        W34143   2.452   3.713   2.825
61719W        W34144  36.528  35.939   0.211
61720W        W34145  17.248   4.938  11.828
61721W        W34146  44.156  16.331  14.371
61722W        W34147   9.668  28.136  13.087
61723W        W34148  36.036  12.706   0.041
61724W        W34149  24.556  23.522  11.370
61725W        W34150  39.255  24.897  13.006
61726W        W34151   9.794  38.275   1.332
61727W        W34152  33.353  25.139   4.599
61728W        W34153  23.474  41.198   0.750
61729W        W34154  22.961  17.121  14.557
61730W        W34155  32.318  29.539   3.138
61731W        W34156  17.084  12.270   1.246
61732W        W34157  37.515   4.401  14.107
61733W        W34158  42.412  20.365   2.783
61734W        W34159   4.279  36.876  12.957
61735W        W34160  11.554   8.826   0.496
61736W        W34161  11.621  35.138   1.375
61737W        W34162  20.317  26.582  12.587
61738W        W34163  15.131   5.128  10.551
61739W        W34164  44.515  13.913  14.012
61740W        W34165   1.234  32.958   0.749
61741W        W34166  43.017  10.923  13.012
61742W        W34167   4.535   9.423  13.830
61743W        W34168  33.595  13.324   3.126
61744W        W34169  27.037  35.856   4.066
61745W        W34170  35.174  40.464   2.432
61746W        W34171  10.847  20.631  12.426
61747W        W34172  30.528  11.541   1.916
61748W        W34173  39.163  25.626   0.401
61749W        W34174  37.537  39.285   1.775
61750W        W34175  31.500  22.615  14.316
61751W        W34176  29.515  37.895  13.989
61752W        W34177  36.187  11.703  12.068
61753W        W34178  13.124  20.283  10.443
61754W        W34179  13.210  16.825  13.120
61755W        W34180  10.276  17.128  14.159
61756W        W34181  17.724  23.896  10.768
61757W        W34182   9.425   7.047   0.738
61758W        W34183   0.262  43.469  12.088
61759W        W34184  29.864  15.892  13.893
61760W        W34185  38.255  25.200  12.950
61761W        W34186  40.528  24.290   0.921
61762W        W34187  14.239  34.665   1.691
61763W        W34188  21.448  22.996  12.161
61764W        W34189  18.083  42.536   2.340
61765W        W34190  27.880  17.024  11.628
61766W        W34191  19.741  21.502   3.175
61767W        W34192  29.094  16.351  14.512
61768W        W34193  13.326  38.958   1.165
61769W        W34194   8.322  40.539   2.695
61770W        W34195  43.305   3.232   2.143
61771W        W34196  26.173  35.063  11.886
61772W        W34197   1.733   6.676   0.860
61773W        W34198   8.444   1.306   2.231
61774W        W34199   0.123   5.420  13.357
61775W        W34200  14.171  44.212  13.465
61776W        W34201   4.346   7.471  12.088
61777W        W34202  21.789  35.470  10.954
61778W        W34203   4.213  14.784   1.377
61779W        W34204   0.461  23.163   3.846
61780W        W34205  16.491  20.748  13.365
61781W        W34206   9.664  39.544   4.562
61782W        W34207  42.801  42.294  14.815
61783W        W34208  20.594  21.938  13.307
61784W        W34209   7.054  29.453   0.411
61785W        W34210  43.671  26.215   0.354
61786W        W34211  35.606   2.225   2.749
61787W        W34212   5.952   5.484   3.631
61788W        W34213  33.112  14.719   0.125
61789W        W34214   3.740   6.848   4.186
61790W        W34215  28.086  41.817  13.043
61791W        W34216   7.331  22.995  12.181
61792W        W34217  25.562  22.507   4.619
61793W        W34218  11.211  11.432  12.886
61794W        W34219  11.612  41.154  12.593
61795W        W34220   9.989  31.871  11.560
61796W        W34221  30.424   6.427  14.468
61797W        W34222  36.298  16.133   0.464
61798W        W34223  15.183  19.093  11.516
61799W        W34224  15.113  31.026   3.518
61800W        W34225  41.008  31.579  11.577
61801W        W34226  27.674   7.014  10.511
61802W        W34227  23.901  13.072   0.959
61803W        W34228  10.705  36.056  13.413
61804W        W34229  15.289  24.668   3.602
61805W        W34230  19.623  30.655   3.704
61806W        W34231  10.910  11.814   4.158
61807W        W34232  14.184  18.169   0.887
61808W        W34233  17.576  27.430   0.819
61809W        W34234  44.071  41.249  11.591
61810W        W34235  33.856  33.829  13.746
61811W        W34236  41.735  34.154   0.310
61812W        W34237  13.585  27.568   1.528
61813W        W34238  29.899  39.388  13.834
61814W        W34239  21.750  28.924   4.535
61815W        W34240  33.559  22.678  13.788
61816W        W34241  33.667  37.012  12.705
61817W        W34242  31.575  17.759   2.745
61818W        W34243  14.325   3.420  14.016
61819W        W34244  18.742  25.684   3.690
61820W        W34245  30.234  26.567  12.329
61821W        W34246   6.234   4.796  12.367
61822W        W34247  17.464  33.019   3.118
61823W        W34248  26.773  17.686   3.129
61824W        W34249  20.779  34.832   2.703
61825W        W34250  35.439   8.155  14.458
61826W        W34251  12.105  25.573   4.976
61827W        W34252   8.563  40.523  14.425
61828W        W34253   7.749  39.817   4.235
61829W        W34254  27.302  31.383  12.024
61830W        W34255  25.556  22.468   0.978
61831W        W34256  27.973  22.788   9.713
61832W        W34257   6.310  35.155  13.738
61833W        W34258  18.682  41.373   1.292
61834W        W34259  32.095   7.322  10.675
61835W        W34260  41.792   6.420   3.317
61836W        W34261  24.680  17.606  10.599
61837W        W34262  16.612  22.575  13.202
61838W        W34263  22.113  21.274  11.990
61839W        W34264  44.030  42.351   5.093
61840W        W34265   2.997  31.049  13.094
61841W        W34266   7.718  24.080  14.075
61842W        W34267  29.495  13.314   3.219
61843W        W34268  26.918   0.863   3.709
61844W        W34269  17.561  16.741  12.463
61845W        W34270  12.639  30.989   3.061
61846W        W34271  17.666  33.106   2.647
61847W        W34272   4.889  43.329  11.018
61848W        W34273  33.190  26.103  13.586
61849W        W34274  17.247  36.282   1.634
61850W        W34275  36.921   9.821  12.101
61851W        W34276  24.266   2.838   0.073
61852W        W34277  13.100   9.817  13.952
61853W        W34278  32.410  28.707   2.223
61854W        W34279  26.161  31.362  12.438
61855W        W34280   8.625   3.278   3.700
61856W        W34281  37.474   0.024   4.090
61857W        W34282  27.883  17.111  14.892
61858W        W34283  26.709   0.937   3.250
61859W        W34284  22.134   4.100   4.089
61860W        W34285  41.271   0.032   4.160
61861W        W34286  37.554   1.468   1.308
61862W        W34287  10.810  40.250   3.191
61863W        W34288   2.979  13.759  13.560
61864W        W34289   6.244   2.933   2.168
61865W        W34290  20.117   1.193  10.746
61866W        W34291   3.682   8.490   2.425
61867W        W34292  24.784  18.538   1.030
61868W        W34293  24.273  16.366  11.174
61869W        W34294  32.334  13.127   1.501
61870W        W34295   5.002  28.123   5.171
61871W        W34296  15.039  40.167  13.568
61872W        W34297   8.806  15.859   2.670
61873W        W34298  24.121  38.311  13.127
61874W        W34299  38.518  21.547  10.385
61875W        W34300   3.690  30.918   1.887
61876W        W34301   2.321  18.184   4.380
61877W        W34302   3.468  43.783   3.287
61878W        W34303  15.871  26.082  12.813
61879W        W34304  21.855  39.007  13.586
61880W        W34305  34.891  22.610  14.480
61881W        W34306  27.718  21.486   3.680
61882W        W34307   6.589  13.074   1.346
61883W        W34308  31.583  36.889   1.877
61884W        W34309   4.469  42.248   4.194
61885W        W34310  22.700   9.619   0.847
61886W        W34311  21.676  10.783   2.649
61887W        W34312   3.008  44.978   0.973
61888W        W34313  26.957   9.925  11.700
61889W        W34314  16.645  10.127  14.771
61890W        W34315  11.441  10.191  10.307
61891W        W34316  10.609   2.656  13.316
61892W        W34317  40.829  38.348  13.492
61893W        W34318  30.282  41.429  10.989
61894W        W34319  10.218   5.941  13.990
61895W        W34320  17.569  38.862   1.381
61896W        W34321  16.882  37.817  14.826
61897W        W34322  20.344  19.528   0.330
61898W        W34323  25.525  43.456  13.380
61899W        W34324  34.594  20.591  14.756
61900W        W34325  21.558  17.994   2.214
61901W        W34326  33.998  35.829  12.564
61902W        W34327   6.271  25.592   3.381
61903W        W34328  32.162  26.679  10.976
61904W        W34329  16.330  10.216   2.641
61905W        W34330  29.035  43.342  12.873
61906W        W34331  43.756  37.527   1.363
61907W        W34332  12.845  13.410  11.750
61908W        W34333  23.163   7.718  12.866
61909W        W34334  33.097   9.743  14.429
61910W        W34335  33.293  13.359  10.575
61911W        W34336  40.850  22.362   5.469
61912W        W34337   9.829  18.696   2.209
61913W        W34338  24.495  11.230   4.663
61914W        W34339  44.280  24.675   2.413
61915W        W34340  32.930  29.453  12.035
61916W        W34341  27.030  36.576   4.610
61917W        W34342  31.468   3.250  11.665
61918W        W34343   6.192  15.660  14.008
61919W        W34344  24.885   5.946  11.038
61920W        W34345  27.117   3.841  10.715
61921W        W34346  28.403   3.670   1.881
61922W        W34347  14.861   4.805   4.788
61923W        W34348  37.421  25.053   3.671
61924W        W34349  29.093  43.074   1.832
61925W        W34350  12.604  19.115  11.080
61926W        W34351  31.100   3.503   2.620
61927W        W34352  16.231  11.935   3.305
61928W        W34353  16.596  24.641  12.397
61929W        W34354  15.692   5.583   3.145
61930W        W34355  29.058   4.930  11.248
61931W        W34356   9.364  23.523  12.446
61932W        W34357  38.339  37.978   4.624
61933W        W34358  21.024  29.599  12.572
61934W        W34359  25.779  17.609  14.850
61935W        W34360  32.942  38.786   3.153
61936W        W34361   9.281   4.823   1.879
61937W        W34362  40.086   5.248   3.431
61938W        W34363   6.334  38.809   2.248
61939W        W34364   4.175  38.491  11.632
61940W        W34365  33.318  13.092   1.818
61941W        W34366  29.139  21.103   1.683
61942W        W34367  13.881   7.028  11.984
61943W        W34368  31.722  26.009  14.696
61944W        W34369   8.383  28.672  14.468
61945W        W34370   5.601  13.068   4.466
61946W        W34371   8.569  20.193   2.715
61947W        W34372   2.517  16.965  13.323
61948W        W34373  26.554  35.445  14.549
61949W        W34374  34.803  14.626  10.628
61950W        W34375  24.242  26.933   3.314
61951W        W34376  20.294  16.324  14.592
61952W        W34377  22.631  36.485   2.483
61953W        W34378  15.022  39.974   4.086
61954W        W34379  29.106  18.760   1.505
61955W        W34380  40.435  31.201  13.327
61956W        W34381  13.858  29.806   3.225
61957W        W34382  36.607  38.365  13.844
61958W        W34383  42.076  22.184   2.228
61959W        W34384  12.495   3.937   3.828
61960W        W34385   1.256  31.455  13.236
61961W        W34386  36.418  12.531   2.348
61962W        W34387  30.372   9.292   4.651
61963W        W34388  16.494   6.779   2.284
61964W        W34389  17.088  11.076   3.246
61965W        W34390   1.014  33.613  10.303
61966W        W34391  24.719  18.662   2.453
61967W        W34392  33.396  34.981   3.809
61968W        W34393   4.059  10.662  13.423
61969W        W34394  15.664  30.891   0.956
61970W        W34395   3.537   9.250  14.040
61971W        W34396   2.586   1.491  11.635
61972W        W34397  42.268  39.743  13.705
61973W        W34398  23.794   6.951   0.516
61974W        W34399  26.993  39.486   4.630
61975W        W34400   6.992  18.833  12.986
61976W        W34401  38.400  19.084  10.516
61977W        W34402  25.728  22.141   3.831
61978W        W34403  14.149  36.533   1.554
61979W        W34404  27.123  39.741   3.137
61980W        W34405  43.937  41.375  13.980
61981W        W34406   0.219  30.651  14.878
61982W        W34407  24.851  20.978   0.343
61983W        W34408  37.399  28.706  11.668
61984W        W34409   0.851  27.997  12.111
61985W        W34410  39.075  34.860  14.392
61986W        W34411  15.801   9.028   1.852
61987W        W34412  20.060  30.416   3.601
61988W        W34413  38.034  24.575  14.062
61989W        W34414  25.940  22.443  14.715
61990W        W34415  14.014  19.459  12.419
61991W        W34416   5.789  31.552  10.209
61992W        W34417   7.834   5.300   3.127
61993W        W34418  22.267  44.461   3.382
61994W        W34419  25.283  18.150   1.651
61995W        W34420  29.308  23.640  14.405
61996W        W34421  44.246  15.710   1.836
61997W        W34422  26.710  24.092   3.193
61998W        W34423  33.103  20.098  13.811
61999W        W34424  41.341  28.985  14.702
62000W        W34425   2.784  33.911  13.778
62001W        W34426  30.515  24.686   4.533
62002W        W34427   2.316  31.524   0.448
62003W        W34428  43.409  11.420  11.096
62004W        W34429  32.884  22.240   2.965
62005W        W34430  40.858  18.229   1.267
62006W        W34431  10.397  14.865   0.922
62007W        W34432   0.346   6.238   1.818
62008W        W34433  11.346  25.249   0.755
62009W        W34434  21.478  34.121   3.197
62010W        W34435  44.381  39.154   5.229
62011W        W34436  20.463  21.700   1.196
62012W        W34437   7.738  11.803  10.811
62013W        W34438  23.000  19.009   2.176
62014W        W34439  11.078   3.315   3.795
62015W        W34440  13.841  18.617  10.858
62016W        W34441   7.168  18.697   3.321
62017W        W34442  38.902  15.569   1.457
62018W        W34443  15.625  28.990   2.179
62019W        W34444   0.286  44.776   1.330
62020W        W34445  26.175  33.869   0.911
62021W        W34446  32.312  33.375   3.189
62022W        W34447  22.400  17.688   2.382
62023W        W34448   6.690  41.004   2.332
62024W        W34449  26.008  17.730  14.386
62025W        W34450  44.318  17.990   4.204
62026W        W34451  14.877  30.111  11.029
62027W        W34452  28.947  39.762  13.950
62028W        W34453  30.356   1.751   1.268
62029W        W34454  21.108  20.762  12.578
62030W        W34455  24.384  41.338   2.429
62031W        W34456  33.985  25.050   1.964
62032W        W34457   9.443   2.097   0.053
62033W        W34458  12.309  44.869  10.679
62034W        W34459   3.200  14.284   9.833
62035W        W34460  12.141  31.726   3.191
62036W        W34461  20.046  14.258   4.821
62037W        W34462  26.598   7.625   5.130
62038W        W34463   2.783  28.130  10.739
62039W        W34464  10.728  11.542   0.501
62040W        W34465  27.845  43.416  11.495
62041W        W34466  38.448  13.204   4.666
62042W        W34467  32.361  43.896   3.664
62043W        W34468   7.921  22.398   0.216
62044W        W34469  22.165  38.544  11.288
62045W        W34470  15.518  20.490  13.503
62046W        W34471  27.005  20.552   4.272
62047W        W34472  32.679  25.541  14.843
62048W        W34473  23.648  26.489  11.401
62049W        W34474  31.444  33.381   4.575
62050W        W34475  23.018  10.650   1.022
62051W        W34476  17.251  17.612   4.885
62052W        W34477  38.139  23.918  11.044
62053W        W34478  11.098   1.770  12.524
62054W        W34479  28.618  17.010   0.344
62055W        W34480  15.802  21.733  13.921
62056W        W34481  20.828   5.907  14.538
62057W        W34482  17.572  30.443   1.254
62058W        W34483  42.499   9.712   1.284
62059W        W34484  36.061  40.371  14.448
62060W        W34485   2.673   6.678  14.991
62061W        W34486  31.411  30.993   4.745
62062W        W34487  27.693  39.426  10.394
62063W        W34488   5.453   7.288   0.792
62064W        W34489  32.963  38.389  11.922
62065W        W34490   6.594  21.710   2.005
62066W        W34491  29.588  28.222   3.776
62067W        W34492  34.386  12.193   4.682
62068W        W34493  12.946  24.131  13.894
62069W        W34494  32.084   1.072  13.378
62070W        W34495  18.370  17.878   2.274
62071W        W34496  26.520  11.288   4.370
62072W        W34497   7.940   4.541   3.540
62073W        W34498  37.992   4.402   4.403
62074W        W34499  16.602  26.182   4.209
62075W        W34500  40.021  38.334   2.368
62076W        W34501  35.505   7.464  13.900
62077W        W34502   5.636  18.260   0.756
62078W        W34503  22.721  16.124   0.737
62079W        W34504  41.105  41.053  10.836
62080W        W34505  25.885  31.909  13.921
62081W        W34506  11.644  42.880  11.513
62082W        W34507  41.372  22.610   1.364
62083W        W34508  32.208  16.055  11.457
62084W        W34509   7.241  44.355  10.677
62085W        W34510   1.970   0.485   1.817
62086W        W34511  42.645  25.204   3.870
62087W        W34512  26.208  31.512  14.841
62088W        W34513  13.823  17.157  12.962
62089W        W34514  19.773  42.973  11.818
62090W        W34515   0.670  33.600  11.716
62091W        W34516   9.963   2.282  11.594
62092W        W34517  28.603  24.660  12.935
62093W        W34518  43.097  15.782  11.036
62094W        W34519   6.508  29.746   0.878
62095W        W34520   1.487  15.869   3.107
62096W        W34521   8.588  44.012   4.756
62097W        W34522  24.985  27.448  11.531
62098W        W34523  21.191   5.434  13.465
62099W        W34524  43.055  39.250   1.494
62100W        W34525  19.274  30.675  13.893
62101W        W34526  17.217  44.056  12.037
62102W        W34527  15.730  40.386   4.226
62103W        W34528   7.397   0.044  10.821
62104W        W34529  27.448   9.086  14.850
62105W        W34530   9.656  37.677   3.876
62106W        W34531  41.025  19.026   0.826
62107W        W34532  17.855  22.554  12.621
62108W        W34533  30.375  41.724   3.651
62109W        W34534  40.041  24.428  11.133
62110W        W34535   0.042  11.935  11.041
62111W        W34536   1.357  25.684  14.416
62112W        W34537  38.357  11.179   3.569
62113W        W34538  12.761  23.315   3.446
62114W        W34539  35.064  40.896   3.852
62115W        W34540  14.331  11.645  12.412
62116W        W34541  43.000  27.065   3.358
62117W        W34542   7.381  41.185  14.780
62118W        W34543  10.882  42.296  11.682
62119W        W34544  13.298  25.471  11.606
62120W        W34545  32.516   9.713   1.831
62121W        W34546  21.691  38.160  13.028
62122W        W34547  41.499  10.215  14.339
62123W        W34548  30.422   5.768  14.821
62124W        W34549  19.560  17.723   0.202
62125W        W34550  10.949  13.344  11.614
62126W        W34551  38.733  40.741  11.033
62127W        W34552  35.426  31.597   2.340
62128W        W34553  14.883  15.229   1.368
62129W        W34554   3.875  32.605  11.984
62130W        W34555  35.858  27.198   3.260
62131W        W34556  20.817  23.945  14.892
62132W        W34557   2.412  11.590   4.568
62133W        W34558   3.684  42.008   3.314
62134W        W34559  42.942  21.536   1.712
62135W        W34560  38.988  38.955  10.604
62136W        W34561  15.689  38.638  13.166
62137W        W34562  33.335  23.125  11.077
62138W        W34563  21.486   9.331  14.510
62139W        W34564  32.895  28.975  10.499
62140W        W34565   8.339  16.056  12.593
62141W        W34566  42.394  26.452  11.510
62142W        W34567  17.081  31.996   2.133
62143W        W34568  17.009  14.723  12.382
62144W        W34569  21.747  25.370  11.912
62145W        W34570  20.917  20.240   3.683
62146W        W34571   8.703  16.345   3.190
62147W        W34572  26.213  36.407  14.055
62148W        W34573  39.350  24.220  11.946
62149W        W34574  32.408  42.531  12.115
62150W        W34575   6.330  19.230   1.001
62151W        W34576   6.468   1.354   3.534
62152W        W34577  10.896   5.394   1.389
62153W        W34578  11.434   4.506  10.643
62154W        W34579  27.004  40.051  14.180
62155W        W34580  23.913  15.797   2.152
62156W        W34581  20.276  20.049   0.246
62157W        W34582   5.661  13.124  12.022
62158W        W34583  27.528  30.343  12.560
62159W        W34584   5.476  34.885  13.407
62160W        W34585  12.116   6.651   2.347
62161W        W34586   6.137  34.210  11.407
62162W        W34587  38.708  34.386   2.667
62163W        W34588  39.829   6.732  13.590
62164W        W34589  24.292  12.178  11.612
62165W        W34590  24.507  19.585   2.081
62166W        W34591  42.746  34.860   1.227
62167W        W34592  38.744  15.719  12.586
62168W        W34593   6.695   1.797   3.673
62169W        W34594  13.753  28.607  14.658
62170W        W34595   0.996  25.196  12.667
62171W        W34596   0.777  32.970   9.814
62172W        W34597   0.830   7.113   1.315
62173W        W34598   1.957   9.383   3.345
62174W        W34599  17.089  12.208  12.040
62175W        W34600  44.665   4.094   3.590
62176W        W34601   6.483  20.579  10.270
62177W        W34602  41.766  10.167   0.964
62178W        W34603  26.453  26.566  10.585
62179W        W34604   7.798  21.106  13.490
62180W        W34605  26.240  15.006  11.378
62181W        W34606  41.804   0.175   3.741
62182W        W34607  18.309   4.835  12.020
62183W        W34608  42.725  36.962  12.468
62184W        W34609  30.831  24.609   4.103
62185W        W34610  39.492  43.383  10.600
62186W        W34611  36.570  40.026  13.313
62187W        W34612  13.971  17.323  13.434
62188W        W34613  32.363   1.894   3.289
62189W        W34614  11.352   5.966   3.054
62190W        W34615  40.546  19.282   0.848
62191W        W34616   7.705  20.633   1.644
62192W        W34617  28.487  20.491   1.303
62193W        W34618  11.167  27.889  14.967
62194W        W34619  12.455  17.255   3.413
62195W        W34620  20.817   9.427  13.310
62196W        W34621  16.615   9.761   4.272
62197W        W34622  24.942  34.195  12.972
62198W        W34623  22.000  17.624  14.796
62199W        W34624  25.953  11.230  11.387
62200W        W34625  19.518  12.611  14.904
62201W        W34626   0.845  35.622   0.314
62202W        W34627  29.240  31.427  13.999
62203W        W34628  23.268  10.258   0.184
62204W        W34629  26.773  37.926  14.396
62205W        W34630  42.699  10.309   2.082
62206W        W34631  42.422  10.585   1.442
62207W        W34632  41.775  20.022   0.418
62208W        W34633  17.459  40.872   1.430
62209W        W34634   1.211   1.857  13.970
62210W        W34635   2.466  32.474  13.813
62211W        W34636   4.931  42.297   2.685
62212W        W34637  13.815  27.778  14.111
62213W        W34638  36.567  28.177  14.997
62214W        W34639  37.549  27.986  11.018
62215W        W34640   0.766   9.463   0.395
62216W        W34641  24.252  41.872  14.602
62217W        W34642  21.506  11.837   2.179
62218W        W34643  33.588  41.705  12.355
62219W        W34644   9.678  14.605  10.747
62220W        W34645  31.722  44.536  12.436
62221W        W34646  11.960  28.047   2.691
62222W        W34647  29.001  31.378  10.403
62223W        W34648   9.924  28.399   2.800
62224W        W34649  32.403   7.223  14.431
62225W        W34650  30.991  25.906   1.738
62226W        W34651  30.630  25.510   0.650
62227W        W34652   3.147   4.954  12.509
62228W        W34653  26.701  11.272   1.248
62229W        W34654  25.987  32.387  10.942
62230W        W34655   7.877  27.715  11.995
62231W        W34656  41.948   7.153  12.053
62232W        W34657  43.291   1.684  13.020
62233W        W34658   0.238  30.559   0.822
62234W        W34659  12.554  20.971  10.933
62235W        W34660  43.006  33.081   2.679
62236W        W34661  34.612  16.342  14.626
62237W        W34662  32.382  29.140  14.950
62238W        W34663  18.231  42.870  10.392
62239W        W34664  44.791  40.298   2.269
62240W        W34665   2.167   1.920   3.725
62241W        W34666  12.769   8.904   1.948
62242W        W34667   8.166  39.565  11.964
62243W        W34668   6.109   8.769  13.437
62244W        W34669   8.456  15.202  12.521
62245W        W34670  12.368  41.772  11.949
62246W        W34671  36.864  39.023  12.505
62247W        W34672  23.256  44.317   0.443
62248W        W34673  39.328  31.013  14.873
62249W        W34674  14.082  29.685   0.456
62250W        W34675  40.520  35.681  13.017
62251W        W34676  34.066  21.704  11.477
62252W        W34677   7.118  17.840  12.948
62253W        W34678  42.541  32.755  11.367
62254W        W34679  10.101  26.145   0.359
62255W        W34680  30.593   1.938   1.685
62256W        W34681   2.753   7.938   5.163
62257W        W34682   8.694  28.144  11.453
62258W        W34683   4.751  15.053  14.817
62259W        W34684   7.651  37.038  11.978
62260W        W34685  36.932  26.013  13.392
62261W        W34686   2.444  43.909   1.424
62262W        W34687  28.092  33.930   1.418
62263W        W34688  23.044  36.938  12.287
62264W        W34689  14.658  37.740  14.671
62265W        W34690   3.682   8.832  12.068
62266W        W34691  24.138  31.974   9.778
62267W        W34692  13.863   2.372  10.086
62268W        W34693   5.289  29.023   2.626
62269W        W34694  32.459  25.046   1.594
62270W        W34695  26.538  15.139  14.935
62271W        W34696  14.172  39.711   2.517
62272W        W34697  21.079  19.997  10.728
62273W        W34698  12.152  38.657  13.938
62274W        W34699  37.787  16.706   2.472
62275W        W34700  28.094   1.402  12.125
62276W        W34701  20.520  11.779   2.149
62277W        W34702  10.698  44.203  11.127
62278W        W34703   4.074  22.168  14.918
62279W        W34704  14.573  12.575   2.782
62280W        W34705  31.552  44.544   2.262
62281W        W34706  31.344  21.059   0.131
62282W        W34707   8.219   4.965   4.499
62283W        W34708  13.268  43.281  13.732
62284W        W34709  32.381  36.122   1.389
62285W        W34710  42.870  13.697  12.788
62286W        W34711  19.520  18.465   3.380
62287W        W34712  11.953   0.176   0.155
62288W        W34713  36.407  11.579   0.997
62289W        W34714  20.871  12.491  14.036
62290W        W34715  37.738  14.263   2.861
62291W        W34716   4.921  14.200   2.329
62292W        W34717  19.349  22.923   2.263
62293W        W34718   4.738  25.795  10.708
62294W        W34719  19.050   6.476   4.123
62295W        W34720  36.487   4.493  13.033
62296W        W34721  31.808  24.257  12.016
62297W        W34722   4.373  43.075   4.634
62298W        W34723  31.739  23.037  12.110
62299W        W34724  32.554  26.957  11.982
62300W        W34725  24.692   6.894   0.259
62301W        W34726   3.721   5.499   3.637
62302W        W34727  40.337  11.285  11.085
62303W        W34728  39.755  19.634   4.954
62304W        W34729  40.970  20.576  10.671
62305W        W34730  22.264   4.985   3.784
62306W        W34731  20.002  40.009   2.177
62307W        W34732  20.232  34.008  14.483
62308W        W34733  36.413  39.352  13.260
62309W        W34734   8.748   3.728  14.500
62310W        W34735  24.969  40.839  13.013
62311W        W34736  15.740  14.569   4.130
62312W        W34737  12.639  34.475  11.920
62313W        W34738  14.087   3.937   0.012
62314W        W34739   2.432   1.098   4.144
62315W        W34740  24.330  24.329  12.499
62316W        W34741   6.203  23.749   3.244
62317W        W34742  36.559   7.847  10.284
62318W        W34743  23.059  41.427   1.663
62319W        W34744  26.546  19.288   4.512
62320W        W34745  14.529  19.004   3.083
62321W        W34746  44.120  31.617   5.081
62322W        W34747  33.938   2.354  13.530
62323W        W34748   3.495  16.060   0.356
62324W        W34749  43.744  42.467   3.307
62325W        W34750  13.855  44.334   2.339
62326W        W34751   9.167  33.222  13.937
62327W        W34752   0.443  41.494   2.167
62328W        W34753  11.392  44.260  11.566
62329W        W34754   4.964   3.850  11.070
62330W        W34755   6.229  32.507  10.784
62331W        W34756  13.079  23.442   4.313
62332W        W34757  31.726   0.446  14.094
62333W        W34758   3.454  34.386  11.056
62334W        W34759  21.171  40.133  10.036
62335W        W34760   7.297  15.803   4.504
62336W        W34761  40.167  14.951   1.076
62337W        W34762  41.849  16.110   3.210
62338W        W34763  26.933   1.459  11.174
62339W        W34764   0.796   4.519   3.277
62340W        W34765  26.039   0.006   2.718
62341W        W34766  15.812  34.832  13.838
62342W        W34767   6.534  16.840  12.927
62343W        W34768  34.055  29.565   1.674
62344W        W34769   9.298  28.520  14.260
62345W        W34770  32.247  21.092  12.892
62346W        W34771  10.038  40.905   0.256
62347W        W34772   1.913  19.405   0.027
62348W        W34773   7.417  22.745   2.860
62349W        W34774  38.756  14.394   2.797
62350W        W34775  29.080  31.034  11.703
62351W        W34776  10.153  42.998  12.872
62352W        W34777  42.042  12.045  14.912
62353W        W34778  23.526   2.039  14.351
62354W        W34779   1.979  44.685  14.455
62355W        W34780  21.607  32.710  11.917
62356W        W34781  16.162  40.429   1.294
62357W        W34782  15.346  12.476  11.227
62358W        W34783   1.914  23.602  10.773
62359W        W34784  23.253  20.647  14.011
62360W        W34785  43.795  17.330  12.324
62361W        W34786  24.089  16.305  14.787
62362W        W34787  41.397  25.447  12.444
62363W        W34788  33.106   7.796  13.486
62364W        W34789  34.525  21.535   0.949
62365W        W34790  41.393  22.062   1.522
62366W        W34791   3.507  26.464  13.288
62367W        W34792  42.992  20.812   4.598
62368W        W34793  33.644  24.224   4.353
62369W        W34794  30.481  22.520   2.749
62370W        W34795   0.952  22.729   5.249
62371W        W34796  14.087  40.978  13.462
62372W        W34797  13.332   7.671  11.127
62373W        W34798  36.024   4.910  13.896
62374W        W34799  43.950   7.119   3.953
62375W        W34800  33.214  17.252   3.484
62376W        W34801  34.351  31.128   3.276
62377W        W34802  28.739  18.594  14.560
62378W        W34803  24.750  30.712   2.237
62379W        W34804   3.107   2.022  14.438
62380W        W34805  43.728   4.741  11.679
62381W        W34806  19.639  11.553  14.184
62382W        W34807  13.650  18.714  13.130
62383W        W34808  24.099  28.939  14.776
62384W        W34809  31.035  13.510   3.430
62385W        W34810   0.889   7.825   4.576
62386W        W34811   2.417  30.636  14.941
62387W        W34812  22.289   6.785   4.987
62388W        W34813  39.096  43.255   3.328
62389W        W34814  10.914   9.716   4.518
62390W        W34815  37.630  38.106   5.037
62391W        W34816   1.349  19.263   3.567
62392W        W34817  18.128  24.649   2.415
62393W        W34818   5.354  37.111   4.667
62394W        W34819  17.596  32.202  12.760
62395W        W34820  17.565  19.550  11.778
62396W        W34821  24.194   7.759   0.166
62397W        W34822   9.612  15.649  14.430
62398W        W34823   1.361  24.102   4.263
62399W        W34824   5.421  40.008  14.596
62400W        W34825  17.624  10.065  12.474
62401W        W34826   1.812  41.007  11.192
62402W        W34827  12.750  28.496   1.419
62403W        W34828  16.853  31.980   5.553
62404W        W34829  23.770  30.438  13.452
62405W        W34830  14.831  14.676   0.795
62406W        W34831  19.265  38.785  13.851
62407W        W34832  21.116  15.320  12.525
62408W        W34833  31.247  11.849   2.645
62409W        W34834  36.404  40.288   1.708
62410W        W34835  14.426  26.933   3.265
62411W        W34836  38.194  41.950   3.089
62412W        W34837  15.257   1.274   0.376
62413W        W34838  35.804  27.106  12.541
62414W        W34839  30.938  20.784   4.746
62415W        W34840  21.238  34.056   4.544
62416W        W34841  10.433  22.054  13.920
62417W        W34842  17.618   8.317   2.257
62418W        W34843  37.839  19.742   1.484
62419W        W34844  25.204   7.725   3.803
62420W        W34845   7.223  37.471  10.535
62421W        W34846  27.757  40.748  10.219
62422W        W34847  44.226  19.478   4.107
62423W        W34848  11.904   9.792   2.741
62424W        W34849  30.098  36.514   0.984
62425W        W34850  39.290  41.804  14.343
62426W        W34851   7.276  25.172   1.871
62427W        W34852  36.524   6.253  10.735
62428W        W34853  17.061  10.793   2.810
62429W        W34854   0.280  22.535   1.953
62430W        W34855  19.103  23.943   0.913
62431W        W34856  18.806   9.336  11.178
62432W        W34857  39.496   8.704   0.182
62433W        W34858  24.486   1.572  14.952
62434W        W34859  30.435  19.570   3.604
62435W        W34860   1.321  30.991   4.100
62436W        W34861  19.803   7.208   4.080
62437W        W34862  17.497  18.467  12.922
62438W        W34863  35.077  20.123   1.752
62439W        W34864   8.915  39.594  13.879
62440W        W34865   1.846   7.020  11.139
62441W        W34866   3.693   9.337   1.819
62442W        W34867  23.463  43.775   3.190
62443W        W34868  33.522   8.842  12.217
62444W        W34869  27.672  24.795  12.986
62445W        W34870  21.049  26.088   1.719
62446W        W34871   8.559  19.562  13.790
62447W        W34872   8.763  19.022   4.645
62448W        W34873  40.547  39.522   2.191
62449W        W34874  37.661  28.234   0.664
62450W        W34875   4.402  28.530  10.316
62451W        W34876  28.230   4.231   4.248
62452W        W34877   5.066   2.832   2.943
62453W        W34878  35.088   7.698   4.561
62454W        W34879  33.398  41.241   0.947
62455W        W34880   5.242   3.119   4.454
62456W        W34881  14.657   3.966   4.483
62457W        W34882  34.553  27.237  11.480
62458W        W34883  35.196  40.969   3.359
62459W        W34884   0.128  36.822   2.697
62460W        W34885  32.480   8.832  13.256
62461W        W34886  17.509   1.494   1.606
62462W        W34887  39.801  21.720  12.055
62463W        W34888  18.031  17.107  13.179
62464W        W34889  10.353  25.110   2.312
62465W        W34890   0.595   6.409  10.042
62466W        W34891  38.513   5.317   2.373
62467W        W34892  16.067  37.392  11.707
62468W        W34893  28.954  14.251  11.504
62469W        W34894  17.510  30.189  13.013
62470W        W34895  17.951  32.061  14.556
62471W        W34896   4.028  26.495  11.080
62472W        W34897   3.664  28.475  12.619
62473W        W34898  29.711  34.370  11.166
62474W        W34899  21.084  39.774   4.802
62475W        W34900  43.461  27.121   4.111
62476W        W34901   6.122  22.111  14.307
62477W        W34902   4.304   4.197   4.626
62478W        W34903  43.983  39.894   2.723
62479W        W34904  32.384  35.566  12.386
62480W        W34905  44.288  35.935  11.179
62481W        W34906  13.921  30.706   2.696
62482W        W34907  33.571  38.088  11.687
62483W        W34908   1.421  33.660   3.388
62484W        W34909  36.078  38.658   4.152
62485W        W34910  17.322  27.042  14.962
62486W        W34911   6.782  25.672  11.066
62487W        W34912  23.220  22.937  14.293
62488W        W34913  15.634  18.841  11.515
62489W        W34914  10.412  21.571  10.603
62490W        W34915  13.371  21.771  10.609
62491W        W34916  30.957   6.311   4.522
62492W        W34917  16.265  37.436   4.138
62493W        W34918  32.483  37.503   2.303
62494W        W34919  40.862  35.969   4.026
62495W        W34920   4.376  25.141   2.132
62496W        W34921  17.731  19.834   1.857
62497W        W34922   0.660  20.437   4.840
62498W        W34923  39.990   2.378   1.088
62499W        W34924   7.249  18.968   2.825
62500W        W34925  26.822   8.143  11.127
62501W        W34926  24.682  17.245  14.476
62502W        W34927   0.869   3.017  11.511
62503W        W34928  13.165   8.205  11.988
62504W        W34929   3.583  38.935  11.918
62505W        W34930  26.282   5.717   3.076
62506W        W34931  43.205  25.761  12.440
62507W        W34932  14.716  15.245   1.860
62508W        W34933  27.734  15.858   2.799
62509W        W34934  20.796  38.349  11.028
62510W        W34935   0.472  29.619  11.994
62511W        W34936  21.996  19.084   3.607
62512W        W34937  11.169  44.216  12.395
62513W        W34938  36.120  35.131   0.426
62514W        W34939  41.986  24.560   1.377
62515W        W34940   2.395  31.591  14.258
62516W        W34941  19.230   2.246   3.320
62517W        W34942   6.133  12.261   3.628
62518W        W34943  39.599   0.836   2.740
62519W        W34944  42.013   3.086   2.684
62520W        W34945  13.153  37.929  10.594
62521W        W34946  38.120  30.540  10.295
62522W        W34947  34.651  35.353  14.867
62523W        W34948  14.884  26.148   1.829
62524W        W34949  18.035  41.998   4.496
62525W        W34950  30.569  14.202   0.996
62526W        W34951   4.234  33.997  10.994
62527W        W34952  27.428  40.103   1.185
62528W        W34953  37.818   3.826  14.419
62529W        W34954  19.126  12.445   2.748
62530W        W34955  36.429  19.290   3.674
62531W        W34956  39.436  28.920  14.446
62532W        W34957  13.213  35.934   3.356
62533W        W34958  40.143  44.350  14.871
62534W        W34959   7.308  20.085   4.973
62535W        W34960  24.718  36.413  13.991
62536W        W34961  11.222  27.472  12.950
62537W        W34962  26.156  21.054   2.144
62538W        W34963  29.737  20.203  12.946
62539W        W34964  19.994  16.685  14.830
62540W        W34965   5.397  32.971  13.022
62541W        W34966  11.076  27.312  12.470
62542W        W34967   2.435  21.789   2.314
62543W        W34968  43.944  19.838   4.543
62544W        W34969  23.001  39.936   4.575
62545W        W34970   8.766   1.801  11.441
62546W        W34971  27.896  15.796  10.931
62547W        W34972   6.852  27.380   1.377
62548W        W34973   5.381  20.563   0.014
62549W        W34974  42.871   1.508  14.217
62550W        W34975  40.749  26.504   4.678
62551W        W34976   5.407  11.768  14.049
62552W        W34977  26.146  25.392   1.741
62553W        W34978  33.880  31.110   4.169
62554W        W34979  37.565  31.363  12.576
62555W        W34980   5.259  38.434  10.671
62556W        W34981  23.881  12.290   3.755
62557W        W34982   1.301  41.328   4.161
62558W        W34983  23.679   2.218  14.840
62559W        W34984  44.536  39.573   2.749
62560W        W34985  31.176  21.703  13.202
62561W        W34986  18.784   0.429   1.457
62562W        W34987   8.660   2.016  10.969
62563W        W34988  30.618  16.649  13.096
62564W        W34989  36.819  25.204  12.985
62565W        W34990  33.558  20.241   1.156
62566W        W34991   0.676  29.723  11.497
62567W        W34992  39.850   8.613   1.479
62568W        W34993  18.246  29.652   3.843
62569W        W34994  20.600  13.496  14.010
62570W        W34995  36.627  37.933   0.490
62571W        W34996  16.556   1.457   1.783
62572W        W34997  44.400   7.691   2.233
62573W        W34998  18.772  10.149  14.139
62574W        W34999   3.846   3.461   4.246
62575W        W35000  16.744  12.661  11.011
62576W        W35001  17.503  41.540  12.995
62577W        W35002  43.303   8.364   3.940
62578W        W35003  30.911   4.382  13.780
62579W        W35004  29.460  44.624   0.426
62580W        W35005  13.977  27.351   2.258
62581W        W35006   6.400  26.597  12.443
62582W        W35007  28.978   3.272  11.530
62583W        W35008   8.288  19.958  13.968
62584W        W35009  26.965  40.077   2.160
62585W        W35010   3.215  23.526   0.783
62586W        W35011  15.830  25.310   3.338
62587W        W35012  20.492  41.454  11.939
62588W        W35013  40.865  14.129  11.887
62589W        W35014  13.933  12.412   0.169
62590W        W35015   3.963  27.901   1.453
62591W        W35016   7.836  32.922   4.060
62592W        W35017  26.543  12.076   3.739
62593W        W35018  28.578  26.172   2.375
62594W        W35019   0.479  16.104   0.037
62595W        W35020  43.538  43.755   0.247
62596W        W35021  40.485  18.262   0.911
62597W        W35022  10.684  32.185   2.326
62598W        W35023  14.651  14.774   1.279
62599W        W35024  21.466  16.437   0.989
62600W        W35025  26.396  13.088   3.741
62601W        W35026   3.205  12.300  10.713
62602W        W35027  14.577  33.354   3.094
62603W        W35028  23.622  43.047   2.754
62604W        W35029  28.203  41.026  10.200
62605W        W35030  40.936  20.811  13.845
62606W        W35031   9.363  19.326  11.994
62607W        W35032   3.177  35.039   4.646
62608W        W35033  44.415  25.711  11.204
62609W        W35034  29.011  10.399  14.030
62610W        W35035  42.211  35.906   0.322
62611W        W35036  43.066  22.262   5.045
62612W        W35037  39.095  19.622  13.848
62613W        W35038  39.918  37.851  12.508
62614W        W35039  24.095  28.536   3.104
62615W        W35040   1.730   0.186   3.291
62616W        W35041  10.779  33.415  10.288
62617W        W35042  22.914  38.398  13.883
62618W        W35043   7.248   5.727   2.010
62619W        W35044  36.403  36.463  11.985
62620W        W35045  21.750  22.108  12.596
62621W        W35046  19.563   5.566   4.930
62622W        W35047  11.755  27.076  12.071
62623W        W35048  15.588  35.172   2.216
62624W        W35049  18.981  11.971  11.630
62625W        W35050   8.590   6.952   1.028
62626W        W35051  32.715  34.539   3.787
62627W        W35052  19.343  14.770  11.599
62628W        W35053  14.536  10.782  14.054
62629W        W35054  39.886  21.531   0.860
62630W        W35055  25.585  30.462   4.050
62631W        W35056  17.839   1.059   3.123
62632W        W35057  13.366  34.392   1.515
62633W        W35058  18.437  36.992   3.812
62634W        W35059  23.002  20.559   1.825
62635W        W35060  25.140  28.950   3.803
62636W        W35061  20.475  32.437  11.007
62637W        W35062  24.675  12.427  14.572
62638W        W35063  20.543   2.119  13.470
62639W        W35064  33.363   1.730  14.594
62640W        W35065  36.924   8.906   5.662
62641W        W35066  33.737  28.163   0.347
62642W        W35067  40.482  17.707  14.753
62643W        W35068  24.458  26.706   2.820
62644W        W35069  24.571  24.513  10.985
62645W        W35070  36.156  42.378   4.583
62646W        W35071   4.173  42.037   0.537
62647W        W35072  36.561  29.141   4.681
62648W        W35073   9.750  24.644  10.906
62649W        W35074  44.347  38.409   0.959
62650W        W35075  27.916  34.696  10.677
62651W        W35076  34.430   7.583   0.655
62652W        W35077  43.829  10.890  12.416
62653W        W35078  13.199   8.128   0.696
62654W        W35079   7.901   8.878  14.821
62655W        W35080  33.910  20.804  11.114
62656W        W35081  33.408  28.473  14.431
62657W        W35082   9.766  31.422  14.024
62658W        W35083  33.401  26.704  14.458
62659W        W35084  25.157  17.335   3.669
62660W        W35085  36.445  40.517   0.299
62661W        W35086  28.744  41.588   0.838
62662W        W35087  15.602  13.310  12.274
62663W        W35088  37.747  42.408   3.737
62664W        W35089  43.080   8.276  14.290
62665W        W35090  38.313  40.020   1.895
62666W        W35091  38.850  42.311  12.589
62667W        W35092  15.858  44.249   3.340
62668W        W35093  39.752  28.605  14.687
62669W        W35094  42.396  39.348  12.474
62670W        W35095  29.666  15.083   3.608
62671W        W35096  14.408  43.811   2.933
62672W        W35097  33.519  44.412  11.201
62673W        W35098   3.238  21.540  12.475
62674W        W35099  27.616   3.232  14.969
62675W        W35100  23.268  23.781   4.054
62676W        W35101  24.592  34.847   0.797
62677W        W35102  36.667   1.866   2.881
62678W        W35103  33.359  28.898   2.285
62679W        W35104  41.870  14.972   2.301
62680W        W35105  25.483  38.414  11.686
62681W        W35106  32.462   2.353   1.989
62682W        W35107  41.259   4.428   0.343
62683W        W35108  24.648  12.869  12.879
62684W        W35109  30.119  27.003  12.646
62685W        W35110  17.565  19.151   4.745
62686W        W35111  43.287  10.956   2.828
62687W        W35112  31.534  17.248  13.894
62688W        W35113  17.072  14.539   3.303
62689W        W35114  28.995  44.908   2.388
62690W        W35115  24.450   7.724  10.981
62691W        W35116  25.306   5.688  11.645
62692W        W35117   4.856  35.546   3.220
62693W        W35118  18.689  12.420   3.050
62694W        W35119  10.290  33.941   0.713
62695W        W35120  41.251  41.466   3.455
62696W        W35121   6.189   6.533   4.633
62697W        W35122   0.250  12.101   0.798
62698W        W35123  29.186  29.298  13.503
62699W        W35124  20.973   7.984  13.527
62700W        W35125  25.728  17.272  14.422
62701W        W35126   9.939  21.240   3.442
62702W        W35127  35.750  22.520   2.832
62703W        W35128  43.195  36.816   4.374
62704W        W35129  30.925  44.261  13.109
62705W        W35130  14.379  13.732   1.756
62706W        W35131  36.855  13.185   1.796
62707W        W35132  42.490  34.687   4.499
62708W        W35133  42.675  44.203  11.386
62709W        W35134  37.045   1.523  11.078
62710W        W35135  32.645  37.893  13.004
62711W        W35136   2.922  20.737  13.906
62712W        W35137  14.217  36.589   0.078
62713W        W35138  12.424  20.721  11.515
62714W        W35139  16.368   0.576   2.398
62715W        W35140   0.677   9.279  11.428
62716W        W35141  15.111  36.476  11.738
62717W        W35142  19.536  39.785   2.171
62718W        W35143  21.099  43.995   4.294
62719W        W35144  32.914  17.733  12.200
62720W        W35145  26.072  18.890   0.853
62721W        W35146  42.941  10.024  13.646
62722W        W35147   0.575  37.426   3.261
62723W        W35148   1.387   4.261  13.908
62724W        W35149   8.667   1.784   2.310
62725W        W35150   7.488  24.189   1.330
62726W        W35151  19.714  26.151   2.250
62727W        W35152  36.613   4.074   4.485
62728W        W35153  15.763   3.314  11.685
62729W        W35154  20.128  39.087  14.286
62730W        W35155  34.001  37.469   4.422
62731W        W35156  26.767  18.652  11.901
62732W        W35157  22.265  16.524   1.708
62733W        W35158  18.608  18.381  13.753
62734W        W35159  22.625  21.944  14.786
62735W        W35160  13.661   4.850   1.737
62736W        W35161  34.085   3.892  10.684
62737W        W35162  22.662  38.599   3.377
62738W        W35163  25.126  14.475  10.716
62739W        W35164   6.454  14.714  12.840
62740W        W35165  19.938   0.287  12.950
62741W        W35166   0.483  16.331  12.619
62742W        W35167  32.176  30.019  12.961
62743W        W35168  21.214  12.023  12.975
62744W        W35169  28.039  23.223   2.842
62745W        W35170  30.503  35.876  14.859
62746W        W35171  21.969  28.240   1.451
62747W        W35172  43.024  14.691   4.286
62748W        W35173   8.974  38.445   1.711
62749W        W35174   3.181  23.068  12.468
62750W        W35175   7.293  36.456   1.441
62751W        W35176  10.804  19.269  14.103
62752W        W35177   5.415  41.556   0.845
62753W        W35178  28.201   1.050   1.265
62754W        W35179   7.924  15.736   4.188
62755W        W35180  15.554  28.078   2.209
62756W        W35181  40.531  21.525  11.615
62757W        W35182  13.526  30.351  11.222
62758W        W35183   5.920  39.253  11.587
62759W        W35184  20.885  38.584   2.885
62760W        W35185  11.969  18.708  14.850
62761W        W35186  25.493   9.106  11.955
62762W        W35187  41.035  18.147   3.570
62763W        W35188   5.392  11.206   0.863
62764W        W35189  14.086  30.348   2.246
62765W        W35190   8.037   8.000   4.943
62766W        W35191  10.626  29.702   3.335
62767W        W35192  44.489  28.345  11.601
62768W        W35193  18.801  33.872   0.337
62769W        W35194  30.598  19.470  11.539
62770W        W35195   4.446   9.135  14.905
62771W        W35196  27.988  10.920  12.944
62772W        W35197  32.104  26.308  14.842
62773W        W35198  42.971  42.097  10.620
62774W        W35199  23.545  31.715  14.865
62775W        W35200  30.417  31.474   0.908
62776W        W35201   9.657  12.850  12.740
62777W        W35202  44.823  19.095   3.636
62778W        W35203  40.981  40.522  14.944
62779W        W35204  35.490  39.092  12.866
62780W        W35205  24.987  17.132  13.306
62781W        W35206  34.540  14.103  12.701
62782W        W35207  31.549  34.030   3.615
62783W        W35208  32.857  30.495   4.705
62784W        W35209  24.703  23.088  14.451
62785W        W35210  27.401  27.231   1.028
62786W        W35211  35.402   6.536   1.195
62787W        W35212  22.754  24.672   2.319
62788W        W35213  22.848   6.827   3.378
62789W        W35214  11.823   0.725  13.005
62790W        W35215  40.872  43.222  12.897
62791W        W35216  12.283  21.571  11.454
62792W        W35217   2.781  23.832   1.378
62793W        W35218   8.019  17.208   2.453
62794W        W35219  28.169  16.628   4.039
62795W        W35220  13.081  22.753  13.961
62796W        W35221  27.150  21.094  10.501
62797W        W35222  16.616  37.811   1.396
62798W        W35223  23.966   5.730  11.132
62799W        W35224  14.988  38.992   4.315
62800W        W35225   5.276  22.209  11.912
62801W        W35226   1.963  20.775  13.548
62802W        W35227  39.998  31.859  14.813
62803W        W35228   0.095   8.890   5.207
62804W        W35229   3.547   9.234   2.312
62805W        W35230  16.224  12.299   4.630
62806W        W35231  28.814   5.829  12.941
62807W        W35232   0.788  31.391  11.559
62808W        W35233  20.089  17.162   1.232
62809W        W35234  19.619  43.826  13.057
62810W        W35235  44.836  33.183   3.560
62811W        W35236  12.976  22.991   1.458
62812W        W35237  13.265  22.057   0.463
62813W        W35238   1.857   2.694  13.124
62814W        W35239  21.030  43.010   4.558
62815W        W35240  28.553  28.280  10.856
62816W        W35241  23.455  36.190  12.323
62817W        W35242  32.313  27.135  12.980
62818W        W35243  39.792   1.222  11.992
62819W        W35244  19.726  17.642   2.939
62820W        W35245  43.685  22.120   1.120
62821W        W35246  34.026   5.938  14.295
62822W        W35247  34.592  44.231   3.675
62823W        W35248  35.085  44.371   3.917
62824W        W35249  14.360   4.310  11.513
62825W        W35250  33.989  22.973   1.837
62826W        W35251  12.363  34.867  10.649
62827W        W35252  20.039  39.046   3.200
62828W        W35253  27.060   1.537   4.362
62829W        W35254  16.103   9.266  14.692
62830W        W35255  14.019   5.379   2.396
62831W        W35256  24.036  38.984   3.168
62832W        W35257  40.212   7.966   4.547
62833W        W35258  21.717   5.682  14.301
62834W        W35259   8.924  12.532   1.508
62835W        W35260   4.220  16.624  14.462
62836W        W35261   4.806  31.487  11.128
62837W        W35262  12.664  42.230   0.015
62838W        W35263  19.345  26.195   4.724
62839W        W35264  23.437   0.252  10.674
62840W        W35265   0.005  42.846   0.714
62841W        W35266  26.460  32.158   0.463
62842W        W35267  29.123  40.952  14.862
62843W        W35268  39.909  10.638  10.664
62844W        W35269  17.164  42.938  13.812
62845W        W35270   0.657  30.563   1.825
62846W        W35271  20.083   4.079  14.009
62847W        W35272  25.938  38.070   3.282
62848W        W35273  37.130  16.602   0.744
62849W        W35274  40.751  29.885   0.591
62850W        W35275  10.714  23.214  11.437
62851W        W35276  42.628  27.409   1.394
62852W        W35277  38.861   1.267  14.773
62853W        W35278  21.181  22.475  12.283
62854W        W35279  24.146  41.238   5.012
62855W        W35280  23.443   7.609  11.159
62856W        W35281  37.867   3.290   0.810
62857W        W35282   2.465  24.365   2.732
62858W        W35283  22.088  44.498   2.332
62859W        W35284  21.463  20.484  11.481
62860W        W35285  22.687   5.755  13.642
62861W        W35286  34.710  43.163  12.552
62862W        W35287  10.242  42.419  12.992
62863W        W35288  39.782   6.813   0.387
62864W        W35289   8.312  43.985  12.524
62865W        W35290  15.151  33.947   5.014
62866W        W35291  33.642  28.285   4.824
62867W        W35292   2.166  39.136  10.232
62868W        W35293  40.858  32.653   3.094
62869W        W35294  28.149  12.192   4.718
62870W        W35295  24.516  28.864   0.567
62871W        W35296  35.451  16.533  14.898
62872W        W35297   3.334   5.737  11.502
62873W        W35298   8.496   7.945  14.024
62874W        W35299  35.093  37.592  14.815
62875W        W35300  20.572  34.956  13.048
62876W        W35301   9.152   9.740  13.626
62877W        W35302  21.777  33.704   2.351
62878W        W35303  23.614  17.760   0.451
62879W        W35304   4.311   3.231   1.723
62880W        W35305  27.488  43.953  13.820
62881W        W35306   7.077  28.962   3.807
62882W        W35307   1.682  40.250  12.129
62883W        W35308   7.419  34.068  11.143
62884W        W35309   1.269  34.841  11.167
62885W        W35310  20.697  25.530  11.053
62886W        W35311  21.709  23.171  12.615
62887W        W35312  33.476   4.594  12.605
62888W        W35313  18.525   2.774  10.555
62889W        W35314   8.782  42.378   3.709
62890W        W35315  24.159  32.636   3.462
62891W        W35316  37.571  26.021  13.983
62892W        W35317  10.793   3.494   1.076
62893W        W35318  23.797  32.461   1.359
62894W        W35319   7.822  21.987   0.525
62895W        W35320  33.544  13.539  11.865
62896W        W35321  26.293   3.649   1.016
62897W        W35322  44.231  33.667  11.197
62898W        W35323  14.012   9.508  14.258
62899W        W35324   3.687   4.616  12.557
62900W        W35325  37.107  43.993  11.149
62901W        W35326  10.277  16.096   2.327
62902W        W35327  26.736   4.746   0.016
62903W        W35328  20.233  23.207  13.872
62904W        W35329   2.243  44.793  12.931
62905W        W35330  13.565  34.884   0.064
62906W        W35331  18.686  39.886   4.643
62907W        W35332   6.112   3.784  14.297
62908W        W35333  15.605  23.899  14.892
62909W        W35334  32.839   1.285   2.742
62910W        W35335   1.802  34.996   0.179
62911W        W35336  26.687  19.785   0.508
62912W        W35337  20.628  20.663   2.830
62913W        W35338  30.440  14.886  11.169
62914W        W35339  28.595  34.430   1.622
62915W        W35340  31.016  36.352  12.490
62916W        W35341  27.687  31.143  11.269
62917W        W35342  44.795  32.918   3.139
62918W        W35343  33.010   6.465   0.201
62919W        W35344  12.510  10.900   1.755
62920W        W35345  27.069  11.368  14.302
62921W        W35346  25.646   5.249  14.840
62922W        W35347  17.747  16.055   0.805
62923W        W35348  16.120  30.992  12.026
62924W        W35349   2.675  14.683   1.216
62925W        W35350   1.216  42.845   2.412
62926W        W35351   0.641  44.425   0.516
62927W        W35352  35.822  21.594   1.337
62928W        W35353  32.165  42.600   1.829
62929W        W35354  13.640  29.399   0.341
62930W        W35355   0.730  43.154  11.149
62931W        W35356  33.078  42.453   4.127
62932W        W35357  15.264  31.403  14.361
62933W        W35358   2.933  35.011  10.724
62934W        W35359  31.909   2.380   4.711
62935W        W35360   7.873  23.732   1.326
62936W        W35361  20.471  20.684  12.820
62937W        W35362  13.803   4.975   2.693
62938W        W35363   7.641  39.936   5.228
62939W        W35364  25.548  37.444   2.321
62940W        W35365  25.825  13.906   1.862
62941W        W35366  32.482  16.902   4.792
62942W        W35367  15.358  28.886  11.622
62943W        W35368  32.684   0.767   4.540
62944W        W35369  13.859  31.411  14.423
62945W        W35370  34.900  32.068  11.947
62946W        W35371   3.287  15.600   0.249
62947W        W35372  20.132  17.383  12.388
62948W        W35373  43.468  18.708  12.591
62949W        W35374  32.591  34.902   0.353
62950W        W35375  11.399   5.001  10.822
62951W        W35376  11.321  34.366   2.689
62952W        W35377  11.923  22.993   2.504
62953W        W35378   7.246  27.561  13.967
62954W        W35379  36.884  25.664   4.323
62955W        W35380  19.106  29.658  12.436
62956W        W35381  31.617  14.198   3.613
62957W        W35382  28.902  42.074  11.773
62958W        W35383  41.117  30.575  14.486
62959W        W35384  44.355  33.145  12.935
62960W        W35385  16.203  14.047   1.772
62961W        W35386  44.416  30.526   1.206
62962W        W35387   1.904  14.517   2.261
62963W        W35388  25.925  15.723  10.747
62964W        W35389  41.555  11.795   4.262
62965W        W35390  24.287  12.370  10.787
62966W        W35391  32.481  37.548   1.302
62967W        W35392  22.263  30.459  11.889
62968W        W35393  16.794   7.809  12.460
62969W        W35394  40.996  26.131  13.047
62970W        W35395  33.620  21.998   3.301
62971W        W35396  19.245  25.618   1.695
62972W        W35397  24.122  32.022  13.495
62973W        W35398  17.305  34.622   4.184
62974W        W35399  35.583   2.905  14.522
62975W        W35400   5.777  26.124  13.870
62976W        W35401   5.888  30.335   4.007
62977W        W35402  18.927  42.314  14.326
62978W        W35403  12.782   4.259   1.219
62979W        W35404   5.704  30.706  13.437
62980W        W35405   7.671  39.960  13.452
62981W        W35406  44.370   0.075  12.404
62982W        W35407   1.618   6.796  12.992
62983W        W35408  38.424   9.710  14.244
62984W        W35409  28.532   2.902   0.944
62985W        W35410   6.292  37.594  14.870
62986W        W35411  31.390  27.046  14.982
62987W        W35412  21.040  21.302   4.026
62988W        W35413  30.237  18.604   0.802
62989W        W35414  22.989  13.265   1.857
62990W        W35415  18.004   3.498  11.760
62991W        W35416  14.744  42.018  12.615
62992W        W35417  43.269   5.753   1.211
62993W        W35418   1.844  28.855   4.554
62994W        W35419  44.440  15.222   1.803
62995W        W35420  25.615  23.518   3.612
62996W        W35421   0.367  21.174   0.337
62997W        W35422   2.980  43.010   0.918
62998W        W35423  10.157  44.966  14.104
62999W        W35424  28.437   0.827   3.644
63000W        W35425  35.958  43.429   2.843
63001W        W35426  37.974  19.201   4.668
63002W        W35427  34.460   7.396   1.665
63003W        W35428  30.635   8.646  11.094
63004W        W35429  16.586  36.572  13.147
63005W        W35430  31.959   5.358  10.998
63006W        W35431  18.727  27.976   4.523
63007W        W35432  32.065  39.072  12.633
63008W        W35433  29.734  39.887  12.532
63009W        W35434   0.859   3.507   4.907
63010W        W35435  33.807  35.464   1.240
63011W        W35436   0.309  18.751  13.467
63012W        W35437  12.830  43.321  14.416
63013W        W35438  23.212   5.649  10.715
63014W        W35439  35.777  26.280  12.637
63015W        W35440  21.561  13.039   4.690
63016W        W35441  41.907  21.809   1.793
63017W        W35442  29.754  21.032   4.180
63018W        W35443   7.681  15.063  11.614
63019W        W35444  17.057  34.501  12.350
63020W        W35445  39.831  38.613   1.784
63021W        W35446  39.945   5.147   2.908
63022W        W35447  28.107  13.855  13.005
63023W        W35448  42.791  24.212   3.221
63024W        W35449   8.408  37.397   3.393
63025W        W35450  37.791  21.992   2.205
63026W        W35451   2.138  23.949  11.561
63027W        W35452   2.696  18.779   4.900
63028W        W35453  28.027  11.313  10.587
63029W        W35454  41.479  26.071   4.843
63030W        W35455  31.419  16.740  14.061
63031W        W35456   6.793  22.582   1.104
63032W        W35457  11.843  20.206  12.057
63033W        W35458  38.487   4.422  10.576
63034W        W35459  35.555  28.579   3.212
63035W        W35460  38.965   0.524   0.461
63036W        W35461  26.719  13.354   2.980
63037W        W35462   7.203  14.089  13.974
63038W        W35463  18.339  42.897  10.900
63039W        W35464  37.545  42.955   2.169
63040W        W35465  20.529  36.647   2.307
63041W        W35466  15.591  40.887  11.548
63042W        W35467  35.027   4.192   3.148
63043W        W35468   4.421  20.873   2.415
63044W        W35469  35.470   0.974   3.038
63045W        W35470  27.126  38.404   0.288
63046W        W35471  20.543  31.385  11.119
63047W        W35472  13.861  35.398  12.736
63048W        W35473   5.789  19.189   1.572
63049W        W35474  16.446  25.287  14.338
63050W        W35475  28.049   9.373   3.904
63051W        W35476  43.479   8.834   1.903
63052W        W35477  35.457  20.109   3.641
63053W        W35478   0.026  14.691  12.158
63054W        W35479   1.696  32.644  13.315
63055W        W35480  42.817  41.046   1.487
63056W        W35481   9.749  37.032   4.551
63057W        W35482   0.435  42.748  13.963
63058W        W35483  41.780  17.686  11.993
63059W        W35484  25.989  35.561  11.734
63060W        W35485  13.912  29.470   3.679
63061W        W35486  23.214   6.767  13.932
63062W        W35487   3.315  40.895  12.469
63063W        W35488   9.718  42.996  11.926
63064W        W35489  44.046  12.982   3.809
63065W        W35490   9.240  42.448   2.287
63066W        W35491   3.205  20.762   0.247
63067W        W35492  39.930  16.488  14.841
63068W        W35493  36.107  27.488  12.404
63069W        W35494   4.724  37.651  12.972
63070W        W35495  13.695  25.100  12.330
63071W        W35496  33.386  11.301   1.208
63072W        W35497  44.778  26.926  13.878
63073W        W35498  30.362  16.061  14.858
63074W        W35499   7.872   5.775  12.204
63075W        W35500  28.501  28.095  12.606
63076W        W35501   5.427   1.774   1.716
63077W        W35502  44.854  41.100  10.635
63078W        W35503  43.109  11.785   1.742
63079W        W35504  10.183  19.290   4.945
63080W        W35505   7.148  28.475  10.618
63081W        W35506   4.312  23.131   0.970
63082W        W35507   8.151  37.458  12.236
63083W        W35508  33.956   4.148   1.818
63084W        W35509  29.172  20.178   1.716
63085W        W35510  12.133  15.349   1.878
63086W        W35511  27.614  10.922   1.730
63087W        W35512  15.194  22.578   1.897
63088W        W35513  17.110  41.798   3.481
63089W        W35514  34.570   3.249   0.838
63090W        W35515   2.987  12.534   0.809
63091W        W35516  36.513  42.248   0.265
63092W        W35517  11.109  38.020  11.965
63093W        W35518  42.812  11.407   1.437
63094W        W35519  16.128  10.101  11.740
63095W        W35520  43.592  40.953   4.738
63096W        W35521  14.708  34.210  10.056
63097W        W35522  38.831  14.020   1.212
63098W        W35523  23.630  10.272  10.472
63099W        W35524  17.302  35.198   9.594
63100W        W35525   2.724   8.388   2.254
63101W        W35526  17.812  38.152   2.780
63102W        W35527  40.554   6.275   2.403
63103W        W35528   1.034   8.318  14.242
63104W        W35529  41.769   7.917   0.303
63105W        W35530  20.573  41.779  10.966
63106W        W35531  40.888  26.243  12.538
63107W        W35532   6.753  32.344  12.428
63108W        W35533   6.855  33.663  12.047
63109W        W35534  27.274  40.877   5.015
63110W        W35535  25.861   8.867  11.569
63111W        W35536   8.232  41.601   3.634
63112W        W35537  32.062   5.263  13.330
63113W        W35538  25.110  25.591   0.262
63114W        W35539   1.290  24.497  10.764
63115W        W35540  42.033  12.136  12.552
63116W        W35541  18.985  29.151  14.806
63117W        W35542  35.362  32.839  12.842
63118W        W35543  29.926  38.307  14.512
63119W        W35544  39.848  17.870   2.261
63120W        W35545  27.651  20.519   3.706
63121W        W35546  22.651  24.691  13.965
63122W        W35547  25.150  42.533   1.785
63123W        W35548  35.093  30.999  11.080
63124W        W35549  43.200   1.075   0.473
63125W        W35550  22.587   1.838  12.444
63126W        W35551  23.763  33.640  13.764
63127W        W35552  18.600   0.940  13.873
63128W        W35553  13.350  32.595   0.326
63129W        W35554  38.797   4.367   4.165
63130W        W35555  13.302  43.388  11.671
63131W        W35556   5.314  25.417   5.019
63132W        W35557  31.743   3.258  14.846
63133W        W35558  34.725  15.619   3.415
63134W        W35559  34.985  41.608  11.620
63135W        W35560  27.963  33.884   5.063
63136W        W35561  16.160  32.555  14.542
63137W        W35562  20.122  24.203   0.241
63138W        W35563  39.322  42.936  11.372
63139W        W35564  34.158  29.547   0.184
63140W        W35565  36.863  41.075   1.728
63141W        W35566  33.581  30.196  12.998
63142W        W35567  19.757  40.561   4.857
63143W        W35568  17.452   3.324   1.042
63144W        W35569  23.055   5.186  12.654
63145W        W35570  44.812  37.771   4.275
63146W        W35571   7.112   5.331   4.543
63147W        W35572  35.047   7.380   4.964
63148W        W35573  37.083  27.949   2.342
63149W        W35574   7.168  16.222   2.214
63150W        W35575   9.787   8.748   4.173
63151W        W35576  12.708  44.424  10.628
63152W        W35577  10.807  11.811  13.015
63153W        W35578  41.894  11.252  14.961
63154W        W35579  20.249  21.819  11.516
63155W        W35580  10.845  22.290   1.233
63156W        W35581  10.317  31.893  13.491
63157W        W35582   6.705  22.801  13.401
63158W        W35583  36.779  10.684  14.004
63159W        W35584  14.545  24.999  11.557
63160W        W35585   1.388  36.660   4.502
63161W        W35586  15.862  22.121   1.888
63162W        W35587  39.218  35.083   3.894
63163W        W35588  28.983   1.218   0.706
63164W        W35589  19.494   8.224  10.863
63165W        W35590  33.399  39.923   4.233
63166W        W35591  43.301  15.443  12.871
63167W        W35592  26.629  20.736  14.099
63168W        W35593  41.536  28.903  11.888
63169W        W35594  44.476  44.720  13.375
63170W        W35595  30.998  28.429   4.146
63171W        W35596  43.202   4.717  13.874
63172W        W35597   5.995   7.499   2.635
63173W        W35598  21.447   1.805   3.820
63174W        W35599   1.166  11.804   3.925
63175W        W35600   8.807  42.271  13.179
63176W        W35601  33.383  37.888  14.817
63177W        W35602  33.556  27.253  10.176
63178W        W35603  10.263  12.712  11.049
63179W        W35604  10.053  44.925   0.144
63180W        W35605  22.504   1.045  11.972
63181W        W35606   1.374  29.474   1.972
63182W        W35607  26.330   5.665   0.864
63183W        W35608  32.052  32.949  11.227
63184W        W35609  19.076  35.580  11.054
63185W        W35610  10.221  41.428  12.967
63186W        W35611   5.184  33.469   3.647
63187W        W35612  14.367   1.777  13.386
63188W        W35613  32.063   7.866   0.536
63189W        W35614  22.164  28.985  12.047
63190W        W35615   9.224  10.839   4.372
63191W        W35616  15.082   8.467   1.708
63192W        W35617  26.132  34.168  11.647
63193W        W35618  38.461  20.244  13.934
63194W        W35619  16.093   8.802  10.593
63195W        W35620  36.696  13.290  14.003
63196W        W35621  39.977  40.225   3.069
63197W        W35622   7.093  12.334   4.100
63198W        W35623   5.678   1.761   0.822
63199W        W35624  36.550   9.593   1.894
63200W        W35625  39.476  41.297   3.259
63201W        W35626  31.874  21.663   2.250
63202W        W35627  35.446  20.766  11.564
63203W        W35628   1.456  44.511   0.873
63204W        W35629  16.457   0.567   3.173
63205W        W35630  32.613  24.438  11.163
63206W        W35631  21.538  38.296   4.123
63207W        W35632  38.425   1.351   3.285
63208W        W35633   8.351  37.519  13.108
63209W        W35634   1.312  21.876  14.251
63210W        W35635  26.773  37.660   2.851
63211W        W35636  32.351   3.511  12.937
63212W        W35637   3.120  18.006  11.629
63213W        W35638  11.852  41.571  13.397
63214W        W35639  14.331  38.777   0.282
63215W        W35640  32.807  36.441   4.756
63216W        W35641  43.013   1.480  11.191
63217W        W35642  23.650  24.832  12.056
63218W        W35643   8.199  34.646   4.289
63219W        W35644   4.790  40.793   4.230
63220W        W35645  35.085  25.545   1.626
63221W        W35646  37.051   4.059  13.338
63222W        W35647  14.938  35.573   0.619
63223W        W35648  29.658  16.788  13.930
63224W        W35649  12.835  34.023  11.710
63225W        W35650   5.258  25.922   2.164
63226W        W35651  24.671  25.508  13.891
63227W        W35652   7.918   7.839   4.096
63228W        W35653  21.392  35.501   1.786
63229W        W35654   2.954  31.978  11.630
63230W        W35655   9.958  33.802  12.607
63231W        W35656  40.285  27.320   1.776
63232W        W35657   7.589   5.260  12.853
63233W        W35658   5.269  16.730   3.861
63234W        W35659  23.697  12.603   0.921
63235W        W35660   9.496   4.902  13.885
63236W        W35661   3.726  31.154   0.290
63237W        W35662   7.940  42.323   1.852
63238W        W35663  38.018  23.496   4.447
63239W        W35664   6.370  23.625  10.835
63240W        W35665  12.248  38.175  12.528
63241W        W35666  31.927   1.717   1.876
63242W        W35667  18.760   5.366   1.513
63243W        W35668   8.215  36.045   1.905
63244W        W35669  32.083   9.857  14.475
63245W        W35670  12.623  24.134   0.978
63246W        W35671   4.874  40.375  14.678
63247W        W35672  13.170   7.886  14.757
63248W        W35673   6.478  29.682  10.081
63249W        W35674  14.533  33.570  11.940
63250W        W35675  18.087  27.063   0.370
63251W        W35676  14.801  25.705  11.991
63252W        W35677  17.829  25.732  11.939
63253W        W35678  44.069  26.171   1.314
63254W        W35679  16.907  21.266  10.751
63255W        W35680  38.854  13.881   3.629
63256W        W35681   5.210  20.543   0.514
63257W        W35682  44.193   3.667   0.056
63258W        W35683   6.658  41.792  11.188
63259W        W35684  31.513  20.800   3.143
63260W        W35685  19.342  33.696   0.486
63261W        W35686  30.129  26.403  11.000
63262W        W35687  28.872   5.715   0.898
63263W        W35688  44.827  30.815   1.649
63264W        W35689  23.618  14.754   3.907
63265W        W35690  15.175   5.433   3.129
63266W        W35691  39.849  24.656  11.928
63267W        W35692  42.497  15.056  14.290
63268W        W35693   0.172  22.284   3.334
63269W        W35694  33.176   6.244   0.643
63270W        W35695  42.530  41.329   3.729
63271W        W35696  42.897  30.064   4.600
63272W        W35697  29.631  43.468  12.914
63273W        W35698  17.802  16.264   0.327
63274W        W35699  44.297  24.602   0.891
63275W        W35700  17.333  28.347  11.971
63276W        W35701  10.590  37.085  14.905
63277W        W35702  44.781  35.009  11.342
63278W        W35703  40.941  12.258   2.725
63279W        W35704  39.428  40.246   4.777
63280W        W35705  34.354  13.196  10.817
63281W        W35706  15.292  40.189   3.675
63282W        W35707  18.233   9.241  12.934
63283W        W35708  31.566  10.658  14.389
63284W        W35709  33.947  14.319  10.366
63285W        W35710  26.780  31.382  12.017
63286W        W35711  32.422  39.292  10.922
63287W        W35712  24.775   7.101  12.251
63288W        W35713  25.262  28.435  12.261
63289W        W35714  29.363   9.661   0.065
63290W        W35715   7.219   3.421  13.941
63291W        W35716   0.874  40.273   4.748
63292W        W35717  20.213   6.093  12.055
63293W        W35718  19.987  21.920  14.886
63294W        W35719  21.965   1.873   3.670
63295W        W35720  28.000  28.720   2.742
63296W        W35721  44.332  42.413   4.658
63297W        W35722  37.399  44.091  13.359
63298W        W35723  23.111  37.269   3.328
63299W        W35724   6.342  17.552  13.507
63300W        W35725  18.178  11.605   3.356
63301W        W35726  28.850  40.996   4.973
63302W        W35727  21.034  27.279  14.810
63303W        W35728   7.741  14.327  12.068
63304W        W35729  29.098  26.004  13.918
63305W        W35730   8.769  26.676  13.448
63306W        W35731   3.912  31.008  11.292
63307W        W35732   2.047  12.040  12.321
63308W        W35733  40.065  23.025  10.615
63309W        W35734  26.409  22.656   4.646
63310W        W35735  23.716  14.710   0.163
63311W        W35736  10.900  35.895   3.078
63312W        W35737  39.005  40.754   4.953
63313W        W35738  19.161   5.647   3.214
63314W        W35739   7.123  38.242  13.949
63315W        W35740  39.822   1.885  13.505
63316W        W35741   1.969  40.616  11.584
63317W        W35742  32.573   8.487   1.235
63318W        W35743  21.220  28.173   1.533
63319W        W35744  23.692  15.204   3.154
63320W        W35745  15.272   1.032   1.639
63321W        W35746  16.750  33.285   1.628
63322W        W35747  21.009  18.817   4.170
63323W        W35748  38.105  25.098  14.814
63324W        W35749  38.086  13.834  12.098
63325W        W35750  28.063  41.599  11.018
63326W        W35751  13.567  23.542  13.562
63327W        W35752  40.984  12.876  14.106
63328W        W35753  32.603  28.336   1.276
63329W        W35754  11.234  17.322  11.023
63330W        W35755  40.826   0.978   1.335
63331W        W35756  38.067   9.949   2.747
63332W        W35757  25.985   2.600   3.352
63333W        W35758   1.953  15.723   1.832
63334W        W35759  35.528  15.539  12.349
63335W        W35760  40.475  22.546  11.235
63336W        W35761  42.849   0.002  11.161
63337W        W35762  11.879  23.426  12.963
63338W        W35763   3.793  13.633   4.194
63339W        W35764  21.172  15.598   1.938
63340W        W35765   3.246  39.841  10.683
63341W        W35766  17.623  22.719   0.885
63342W        W35767  44.690  18.217   4.489
63343W        W35768  43.973  19.830   2.253
63344W        W35769  21.111  39.259   0.953
63345W        W35770  15.180  28.958   1.864
63346W        W35771  29.020  10.588   2.874
63347W        W35772  32.150   1.830  10.200
63348W        W35773  27.693  38.767   4.562
63349W        W35774  35.986   8.951  12.754
63350W        W35775  28.822  13.420   3.780
63351W        W35776   1.882  21.623   3.712
63352W        W35777  20.739  44.302   3.350
63353W        W35778   4.058  10.748   0.461
63354W        W35779  17.674   8.909  10.646
63355W        W35780  19.113  16.986   0.806
63356W        W35781   4.310   1.304   0.932
63357W        W35782  24.434  35.971  12.436
63358W        W35783   6.691   4.017  10.900
63359W        W35784   9.816  36.795  12.994
63360W        W35785   7.868  10.588   4.564
63361W        W35786  17.188  30.427   0.429
63362W        W35787  40.262  42.720   4.608
63363W        W35788  41.784   6.906  13.452
63364W        W35789   1.806   9.424  13.801
63365W        W35790  32.886  18.860   2.157
63366W        W35791  42.886  33.792  12.052
63367W        W35792  29.236  31.861  11.627
63368W        W35793  22.788  25.220   3.204
63369W        W35794  12.651   4.670  11.773
63370W        W35795   9.138   5.724  11.028
63371W        W35796  17.814  27.550  11.606
63372W        W35797   1.313  27.697   3.704
63373W        W35798  23.564  25.038  11.556
63374W        W35799  11.772  32.037   0.985
63375W        W35800  28.137  14.333  12.021
63376W        W35801   5.255  19.442   4.501
63377W        W35802   3.745  22.801  12.989
63378W        W35803  43.629  44.355   3.594
63379W        W35804   5.648  43.367  12.553
63380W        W35805  32.148  41.091  12.893
63381W        W35806  31.664  23.685  13.228
63382W        W35807  42.875   8.309   2.592
63383W        W35808  18.253  33.169  11.546
63384W        W35809  16.273  30.444   0.431
63385W        W35810  42.096  17.762  13.573
63386W        W35811  28.614  13.407   4.275
63387W        W35812   0.373  36.959   3.150
63388W        W35813  16.570  20.814   0.200
63389W        W35814  34.093   0.888   2.919
63390W        W35815  32.714   9.856  12.523
63391W        W35816  37.530   5.511   3.387
63392W        W35817  18.328  12.742  11.662
63393W        W35818   2.569  18.066  12.441
63394W        W35819  14.503  42.951  13.301
63395W        W35820  43.400   5.754   3.855
63396W        W35821  42.982  34.094  14.486
63397W        W35822  38.717  34.960  13.994
63398W        W35823  30.413  25.236   1.664
63399W        W35824  37.211  10.036  10.239
63400W        W35825   0.187   7.792  14.856
63401W        W35826  15.875  44.338  12.873
63402W        W35827  37.347  31.384   1.908
63403W        W35828  42.111   7.295   2.198
63404W        W35829  27.174   1.168   0.268
63405W        W35830  17.055  17.210   4.094
63406W        W35831   1.450  34.896   2.673
63407W        W35832   5.264  22.949  14.928
63408W        W35833   4.016  15.829   2.944
63409W        W35834  25.187   8.825   1.668
63410W        W35835  11.297   7.284   2.872
63411W        W35836   7.595  26.554  10.498
63412W        W35837  18.581  28.897  11.454
63413W        W35838  17.849  27.117   3.938
63414W        W35839  25.660  42.953  12.581
63415W        W35840  35.815  40.687  13.345
63416W        W35841   6.312  28.383   1.985
63417W        W35842   3.210   1.399  12.466
63418W        W35843  10.927  31.878   0.417
63419W        W35844  27.564   1.256   0.664
63420W        W35845  40.436  31.555  14.841
63421W        W35846  18.806  19.041  11.835
63422W        W35847  29.562   4.240  10.763
63423W        W35848   3.764  17.710  13.362
63424W        W35849  36.627   1.344   3.207
63425W        W35850  17.803  23.909  13.474
63426W        W35851  34.900  34.463   1.321
63427W        W35852  40.249  33.869  11.884
63428W        W35853  43.483  36.085  12.495
63429W        W35854  27.038  23.497  14.415
63430W        W35855   9.349  32.129   0.888
63431W        W35856  36.209  14.127   1.182
63432W        W35857  24.887  37.537   1.962
63433W        W35858  10.478  28.604   3.612
63434W        W35859   3.923  10.112   4.302
63435W        W35860   3.117  13.121  11.623
63436W        W35861  32.346  39.480   3.142
63437W        W35862   4.939  33.859  13.038
63438W        W35863  32.892  38.221   3.250
63439W        W35864  22.556  35.817   4.943
63440W        W35865  12.091   8.405   2.700
63441W        W35866  16.841  15.162   2.259
63442W        W35867   9.642  44.758   2.306
63443W        W35868   5.462  42.246   3.398
63444W        W35869  22.939   5.444   4.150
63445W        W35870  14.797  23.683   4.190
63446W        W35871  36.100   7.179  13.489
63447W        W35872   7.978  23.018  10.783
63448W        W35873   2.238  20.814   3.841
63449W        W35874   7.506  41.102   4.211
63450W        W35875   3.733  30.357   4.081
63451W        W35876  32.665  37.435  14.380
63452W        W35877  16.521  25.784   0.863
63453W        W35878  19.285  14.308  13.415
63454W        W35879  36.603  13.607   3.272
63455W        W35880  36.280  16.779   3.463
63456W        W35881   8.850  19.861   2.371
63457W        W35882  28.141  18.828  11.068
63458W        W35883  43.562   2.021   0.183
63459W        W35884  16.248   6.651  14.306
63460W        W35885  37.677  40.767  11.592
63461W        W35886  20.033  16.637  11.096
63462W        W35887  25.471   3.405   3.644
63463W        W35888   6.268  14.119  14.015
63464W        W35889  29.434  13.780  12.582
63465W        W35890  43.239  25.716   3.141
63466W        W35891  19.378  23.506   0.350
63467W        W35892  19.361  10.686   3.150
63468W        W35893  24.665   5.634   4.282
63469W        W35894  28.374   8.787  11.985
63470W        W35895  27.037   3.907  11.229
63471W        W35896  10.080  36.411  11.048
63472W        W35897  20.101   3.254  10.669
63473W        W35898  29.903   1.522  14.752
63474W        W35899   3.775  28.614   1.027
63475W        W35900   0.195  14.660   1.935
63476W        W35901  40.917  31.795  12.019
63477W        W35902  38.023  38.298  12.448
63478W        W35903  42.545   3.230  13.577
63479W        W35904  27.691  16.727  12.387
63480W        W35905  10.342  20.793  14.831
63481W        W35906  29.573   6.657  12.044
63482W        W35907   5.034  44.061   2.843
63483W        W35908  41.350  12.116  12.829
63484W        W35909  23.207  37.560  14.547
63485W        W35910   5.597   6.341   4.063
63486W        W35911  20.073  11.185   3.574
63487W        W35912  35.518   7.426   4.712
63488W        W35913  33.193   8.118  12.179
63489W        W35914  38.812  24.229   1.672
63490W        W35915   5.221  24.200   3.228
63491W        W35916   8.793  28.038   1.167
63492W        W35917  34.320  43.533  10.685
63493W        W35918  23.712  43.592  12.520
63494W        W35919  30.606  33.343   5.147
63495W        W35920  40.022  18.829  13.154
63496W        W35921  44.908   8.484   2.370
63497W        W35922   9.839  37.635  11.690
63498W        W35923  27.733  25.301  12.869
63499W        W35924  12.394  30.919  12.962
63500W        W35925   0.331  13.292  14.320
63501W        W35926  25.917  14.022  11.785
63502W        W35927   5.891   2.797  12.802
63503W        W35928  43.031  41.675  12.040
63504W        W35929   8.926   8.875   4.057
63505W        W35930  12.213  35.326   2.630
63506W        W35931   3.838  11.224  13.039
63507W        W35932   2.344  32.535   1.186
63508W        W35933  14.830  24.627   3.812
63509W        W35934  20.698  44.918   2.695
63510W        W35935   6.289  25.212   0.928
63511W        W35936   8.866  39.771   2.430
63512W        W35937  42.845   8.233   3.657
63513W        W35938  26.490  44.509  13.992
63514W        W35939  12.469  28.021   3.984
63515W        W35940  41.446  10.077   4.663
63516W        W35941  39.997  22.981   1.341
63517W        W35942   9.587  17.644  11.568
63518W        W35943   1.702   8.226   1.273
63519W        W35944   9.153  33.516   4.156
63520W        W35945  26.723  38.095  11.115
63521W        W35946  19.025  15.571   1.970
63522W        W35947  40.289   4.637   5.048
63523W        W35948   8.397  24.104  12.164
63524W        W35949   6.522   1.448  11.160
63525W        W35950  24.395   5.189   2.313
63526W        W35951   0.291  28.468  11.585
63527W        W35952  18.962  16.633  14.816
63528W        W35953  31.677   5.926   1.252
63529W        W35954  36.309  36.959   4.717
63530W        W35955  42.428  22.776   3.313
63531W        W35956  39.941  33.224   1.727
63532W        W35957  32.487  24.733   2.784
63533W        W35958   2.337  30.481   4.137
63534W        W35959  24.016  38.426   3.265
63535W        W35960   3.038  44.015   0.058
63536W        W35961  34.102   3.936   1.183
63537W        W35962  17.940   5.322   3.333
63538W        W35963  31.153   1.818  12.657
63539W        W35964  41.616   5.430   4.104
63540W        W35965   5.218  12.136   1.811
63541W        W35966  40.381  12.038  12.564
63542W        W35967  36.522  41.996   4.936
63543W        W35968  25.572  12.869   1.257
63544W        W35969  31.094   7.946   3.781
63545W        W35970  27.880  20.516  11.956
63546W        W35971  34.562   1.788  12.006
63547W        W35972  44.385  15.275  14.038
63548W        W35973   1.262  18.837  13.077
63549W        W35974  20.664  14.789  12.149
63550W        W35975   2.240   0.483  13.432
63551W        W35976  31.480  17.263   4.041
63552W        W35977  21.046  29.957  12.984
63553W        W35978  29.598  37.752   0.726
63554W        W35979  44.446  27.098  10.469
63555W        W35980  16.227  27.587   1.021
63556W        W35981  35.854  19.116  12.184
63557W        W35982   7.856  26.456   0.366
63558W        W35983  24.068   7.618  11.297
63559W        W35984  35.857  10.061   0.800
63560W        W35985   6.026  42.996  14.221
63561W        W35986   7.911   2.336  12.181
63562W        W35987  28.390   4.190   1.767
63563W        W35988  36.588  22.306  14.427
63564W        W35989  37.926   8.766   4.202
63565W        W35990  44.664  29.897   0.484
63566W        W35991  19.663  39.460  13.546
63567W        W35992  18.240  15.119  13.005
63568W        W35993  25.709  35.954  14.767
63569W        W35994  33.431  28.098  13.733
63570W        W35995   4.807  20.918   4.913
63571W        W35996  32.150   9.693   0.859
63572W        W35997  34.504  28.425  11.098
63573W        W35998  28.500   7.118   0.296
63574W        W35999  37.637  10.310  10.195
63575W        W36000   1.107   9.898  13.358
63576W        W36001  44.803  37.010  14.833
63577W        W36002  25.097   0.781  13.063
63578W        W36003  37.741   8.257   1.312
63579W        W36004  25.361  13.790  13.508
63580W        W36005  39.602   1.696  12.089
63581W        W36006  30.404   7.009   3.879
63582W        W36007  40.902  33.477   1.678
63583W        W36008  29.942  26.508  10.530
63584W        W36009  30.075  33.121   1.239
63585W        W36010  34.752  20.544  12.254
63586W        W36011  40.443  15.000   2.817
63587W        W36012   3.220   1.247   3.369
63588W        W36013  34.678   3.975   0.419
63589W        W36014   4.293  27.677   3.254
63590W        W36015  34.877   2.739  11.142
63591W        W36016  19.596  26.922  12.285
63592W        W36017  14.148  36.111  14.452
63593W        W36018   9.139  33.631  14.912
63594W        W36019  34.436  31.106  13.907
63595W        W36020   4.108  39.479   4.072
63596W        W36021  38.614  22.905   0.911
63597W        W36022  42.440  15.138   3.418
63598W        W36023  19.031  44.982   4.517
63599W        W36024   1.034  36.810  12.613
63600W        W36025  14.716  42.485   3.122
63601W        W36026   3.885  35.144  10.279
63602W        W36027  34.144  20.092   3.233
63603W        W36028  43.001  36.859   0.811
63604W        W36029   7.153  20.656   2.393
63605W        W36030  21.527  15.770  12.028
63606W        W36031  19.257  41.370  14.224
63607W        W36032   8.327  10.895   4.596
63608W        W36033   1.281   9.478   2.912
63609W        W36034  21.540   1.004  13.488
63610W        W36035  42.563  24.967   4.322
63611W        W36036  36.472  38.900  13.512
63612W        W36037  34.878  20.050   2.546
63613W        W36038   2.285  35.931  13.323
63614W        W36039   3.910   5.633   1.110
63615W        W36040   8.142  17.718  12.438
63616W        W36041  12.038  22.583  10.003
63617W        W36042  15.597  13.697   3.228
63618W        W36043  22.523  36.364  10.729
63619W        W36044  13.119   2.768   3.078
63620W        W36045   6.974  19.164   3.232
63621W        W36046  23.575  30.609  10.186
63622W        W36047  25.747  37.533   9.796
63623W        W36048  44.975   8.916  12.063
63624W        W36049  17.554  43.943  11.179
63625W        W36050  33.137  14.534   3.570
63626W        W36051  26.042  22.310   4.775
63627W        W36052  44.514  15.533   2.281
63628W        W36053  18.487   0.739   1.752
63629W        W36054  10.903   8.803  12.603
63630W        W36055   6.230  13.629   2.182
63631W        W36056  26.137  10.208   0.828
63632W        W36057  30.228   3.069   1.312
63633W        W36058   6.421  12.029   3.976
63634W        W36059  19.725  43.799  10.711
63635W        W36060  24.666  15.019  12.051
63636W        W36061  17.625  28.544   1.889
63637W        W36062   4.831   5.673   0.262
63638W        W36063  22.300  13.955  14.420
63639W        W36064  36.420  20.554  11.135
63640W        W36065   3.956   0.455   2.751
63641W        W36066  17.307  27.745   4.944
63642W        W36067   4.724  37.887  11.230
63643W        W36068  31.168   2.884   2.848
63644W        W36069  19.551  41.636   0.498
63645W        W36070  44.434  36.989   3.299
63646W        W36071  15.000  37.579   0.626
63647W        W36072   5.983  20.784   0.573
63648W        W36073  15.641  12.105  14.081
63649W        W36074   1.099  18.123   4.617
63650W        W36075   0.011  37.019   1.611
63651W        W36076  42.991  34.513   3.709
63652W        W36077  24.783  19.239  11.142
63653W        W36078  16.850   8.351  13.959
63654W        W36079  41.207  29.532   3.650
63655W        W36080   2.395  21.557   3.273
63656W        W36081  33.391  28.136  13.226
63657W        W36082  29.688  12.734   0.352
63658W        W36083  12.387  15.196  11.751
63659W        W36084  34.994   4.422  10.592
63660W        W36085  13.315  24.642  14.754
63661W        W36086   6.900  43.469  14.441
63662W        W36087  25.052  32.624  12.848
63663W        W36088  25.642  18.043   2.664
63664W        W36089  21.575   4.741   3.782
63665W        W36090  35.170   6.977  10.734
63666W        W36091   4.982  14.241  10.397
63667W        W36092   8.469  36.152  13.754
63668W        W36093  17.520  37.148   0.276
63669W        W36094   9.791   0.706   3.676
63670W        W36095  21.072  18.753   1.851
63671W        W36096   2.335  29.645   1.430
63672W        W36097  20.786  38.514   2.387
63673W        W36098  21.949  39.419  13.874
63674W        W36099  25.496  28.518  13.642
63675W        W36100   7.760  21.637   0.140
63676W        W36101  35.447  22.158  14.806
63677W        W36102  19.271  39.337  12.387
63678W        W36103  24.199  43.971   1.786
63679W        W36104   3.260  14.535   0.403
63680W        W36105  22.421  34.330  14.437
63681W        W36106  38.899  16.626  12.598
63682W        W36107   4.707  37.428  11.493
63683W        W36108  12.900  40.999  11.088
63684W        W36109  12.941  34.861  12.075
63685W        W36110  30.133  35.570  11.170
63686W        W36111  38.762  34.160   2.166
63687W        W36112  34.424  18.324  14.736
63688W        W36113  21.092  22.500   3.583
63689W        W36114   1.684   8.760  10.781
63690W        W36115  43.856   0.395  14.315
63691W        W36116  34.706  30.674   4.147
63692W        W36117  42.244  21.703   2.188
63693W        W36118  25.069  42.313  13.390
63694W        W36119  25.652  14.705   0.793
63695W        W36120   3.883  41.446   3.178
63696W        W36121  19.187  34.383  12.142
63697W        W36122  30.418  16.540   4.505
63698W        W36123  38.995  12.743   4.226
63699W        W36124   7.779   1.296  12.986
63700W        W36125  18.934  10.397  10.259
63701W        W36126   6.696   7.475   1.324
63702W        W36127   5.440  20.746   2.799
63703W        W36128  30.330  34.542   4.493
63704W        W36129  14.853  36.918  14.426
63705W        W36130  27.960  11.217  11.157
63706W        W36131   5.738  35.283  13.632
63707W        W36132  19.151   6.005  13.882
63708W        W36133  24.524  40.819   1.194
63709W        W36134  30.446   9.686  12.645
63710W        W36135  27.909  23.687   4.559
63711W        W36136  10.584   5.916   1.635
63712W        W36137   5.900  37.215   2.136
63713W        W36138  23.948   1.448  11.922
63714W        W36139  22.059  10.780   3.674
63715W        W36140   2.880   3.225   3.378
63716W        W36141   2.402  14.202  12.481
63717W        W36142  22.635  31.512   4.170
63718W        W36143  37.821  41.272   5.234
63719W        W36144  17.307  31.551   5.079
63720W        W36145   4.676  25.079   4.571
63721W        W36146   4.696   6.994   1.418
63722W        W36147  26.212  10.268  14.369
63723W        W36148  30.563  28.199   0.387
63724W        W36149  18.490  42.540  11.633
63725W        W36150   2.614  27.942  11.711
63726W        W36151  38.571  36.105   2.166
63727W        W36152  23.970   6.444   0.454
63728W        W36153  30.613   4.308  11.638
63729W        W36154  17.586  12.409   0.769
63730W        W36155  19.597   7.450  12.888
63731W        W36156  18.512  13.238  11.667
63732W        W36157  12.663  27.623   3.767
63733W        W36158  11.203  17.399   1.816
63734W        W36159  21.375  20.964   0.684
63735W        W36160  30.480  10.549   1.690
63736W        W36161  14.733  44.403   2.798
63737W        W36162  21.354  20.628   1.108
63738W        W36163  10.651  15.774   2.914
63739W        W36164  30.113  14.077  11.505
63740W        W36165  26.712  17.796  13.873
63741W        W36166  18.848  41.805  11.631
63742W        W36167   0.483  20.576  13.502
63743W        W36168   0.023  20.745  10.705
63744W        W36169  17.687  39.951   0.429
63745W        W36170  24.015  35.508   2.758
63746W        W36171   1.945  23.729   0.871
63747W        W36172  30.550  43.969   3.588
63748W        W36173  35.088  18.701   1.342
63749W        W36174   4.448  24.844   4.153
63750W        W36175  31.814  23.240  13.529
63751W        W36176   1.270  37.134  13.455
63752W        W36177  15.676  21.395   2.791
63753W        W36178   2.286  26.358  11.534
63754W        W36179  30.006   0.101  13.038
63755W        W36180  38.736   3.898  12.526
63756W        W36181  36.135  25.640  11.209
63757W        W36182  38.730  33.552   2.730
63758W        W36183  13.313   1.275   5.490
63759W        W36184  42.869   9.518  13.490
63760W        W36185  23.921  42.022   2.693
63761W        W36186  35.568  12.254  14.216
63762W        W36187  20.956  31.434   3.128
63763W        W36188  43.908   1.066  14.047
63764W        W36189  24.042  26.506  14.412
63765W        W36190  41.562  19.391  10.573
63766W        W36191  36.058  41.047  13.946
63767W        W36192  38.696  21.118  11.579
63768W        W36193   7.148  26.501  11.391
63769W        W36194   1.233  44.484   0.393
63770W        W36195   4.460  13.382   3.622
63771W        W36196  28.091  23.754   9.765
63772W        W36197   9.906  14.264  12.607
63773W        W36198  29.261  41.732  11.021
63774W        W36199  15.240  40.264  14.508
63775W        W36200  33.316  12.240  10.338
63776W        W36201  17.845   2.683   2.440
63777W        W36202  38.477   0.816   4.618
63778W        W36203  43.485  15.178  13.904
63779W        W36204  33.693  13.830   2.232
63780W        W36205  41.714  11.203  12.574
63781W        W36206   4.134  14.825  11.737
63782W        W36207   5.389  42.098  13.779
63783W        W36208   6.351  23.084  14.556
63784W        W36209  43.785  24.200   3.223
63785W        W36210  34.623  10.370   0.354
63786W        W36211   3.587   2.364  11.877
63787W        W36212   8.147  43.810  12.039
63788W        W36213  20.972  20.110  13.939
63789W        W36214   5.090   0.281  12.901
63790W        W36215  44.546   1.977  12.370
63791W        W36216   1.325  39.355  12.639
63792W        W36217  23.040  23.775  11.951
63793W        W36218  21.056  42.284  11.972
63794W        W36219   3.191   4.076  11.624
63795W        W36220  19.515  29.034  11.197
63796W        W36221  12.688  13.745   4.524
63797W        W36222   6.830   8.863  12.554
63798W        W36223  10.287  42.334   4.016
63799W        W36224  41.317  44.493   4.151
63800W        W36225  21.765  19.789  14.908
63801W        W36226  43.320  26.642  13.815
63802W        W36227  20.654  27.101   3.237
63803W        W36228  22.299  44.419  13.301
63804W        W36229   7.638  11.170   0.778
63805W        W36230  14.287   2.712  10.802
63806W        W36231  26.251  17.221  10.954
63807W        W36232  17.131   5.758  13.108
63808W        W36233  27.716  27.156   4.232
63809W        W36234  10.827  18.043  14.931
63810W        W36235  19.329  16.792   5.011
63811W        W36236  35.400  28.021  11.208
63812W        W36237   1.020   7.917   0.835
63813W        W36238  13.530  21.293   4.001
63814W        W36239   3.678  13.919  10.698
63815W        W36240   9.835  14.174  12.092
63816W        W36241  39.254  10.113   4.507
63817W        W36242   7.887  30.464   3.344
63818W        W36243   2.389  15.617   1.573
63819W        W36244  40.592  13.023   4.998
63820W        W36245  30.622  15.709   0.586
63821W        W36246  30.325  36.525   2.945
63822W        W36247  42.046  13.420   3.045
63823W        W36248  27.039  34.595  11.433
63824W        W36249  28.408  38.909   0.537
63825W        W36250  28.311  17.661   3.325
63826W        W36251  20.183  11.364  13.444
63827W        W36252  41.918   7.969   1.198
63828W        W36253   1.956  29.316   1.266
63829W        W36254   3.839  35.646   0.287
63830W        W36255  36.089  15.346  14.681
63831W        W36256  20.854  12.264  14.499
63832W        W36257  16.299   7.533  10.951
63833W        W36258  29.976  28.597  12.014
63834W        W36259   2.407  26.765   0.074
63835W        W36260  31.112   9.580  11.174
63836W        W36261  39.774   0.973  13.330
63837W        W36262  35.491  32.522  14.302
63838W        W36263   2.870  30.762  14.628
63839W        W36264  19.677  34.797   1.840
63840W        W36265  23.970  33.909  11.390
63841W        W36266  37.927  41.311   0.251
63842W        W36267   9.906  27.145   1.078
63843W        W36268  10.189   4.635  13.058
63844W        W36269  38.332  33.083   0.738
63845W        W36270  13.757  21.069  14.250
63846W        W36271  44.934  34.593   3.943
63847W        W36272  44.323  10.690  12.296
63848W        W36273  22.273  25.616  13.655
63849W        W36274   8.224  28.398  11.625
63850W        W36275  24.554  17.680   1.491
63851W        W36276  18.730  35.234  12.558
63852W        W36277  42.238  34.922  12.868
63853W        W36278   3.228  43.755   2.339
63854W        W36279  35.057  12.905   3.186
63855W        W36280   8.335  24.337   3.304
63856W        W36281  27.616  22.029  11.513
63857W        W36282  40.970  23.570  12.370
63858W        W36283  29.852  13.955   4.726
63859W        W36284  34.417  28.508  14.535
63860W        W36285   7.139   0.253  13.469
63861W        W36286  36.839  18.189  11.877
63862W        W36287  13.450  19.457  11.156
63863W        W36288  37.797  26.232  10.652
63864W        W36289  19.486  29.045  14.818
63865W        W36290   1.670  39.722  10.850
63866W        W36291  28.448  28.923  14.444
63867W        W36292   5.328  24.067  10.454
63868W        W36293  44.935  14.917  11.654
63869W        W36294  15.559  28.164  12.116
63870W        W36295  11.599  23.665  12.521
63871W        W36296  41.386  20.053   5.435
63872W        W36297  31.145  27.518   4.200
63873W        W36298  29.347  30.669  12.007
63874W        W36299  37.483  25.961   2.258
63875W        W36300  15.570  33.298  13.806
63876W        W36301  26.757   9.716   2.327
63877W        W36302  10.577  43.722  14.007
63878W        W36303  11.816  20.206   4.795
63879W        W36304  25.154  22.122   4.573
63880W        W36305   4.198  38.451  13.058
63881W        W36306  35.992  44.236  13.431
63882W        W36307   9.843   3.543  13.554
63883W        W36308  15.355   4.300  14.514
63884W        W36309   9.782   6.340  10.747
63885W        W36310  34.438  14.860   4.253
63886W        W36311   3.350  32.355   2.644
63887W        W36312   1.546  32.053  11.152
63888W        W36313  34.951  22.652   1.494
63889W        W36314  11.592  30.516   1.335
63890W        W36315   7.942  35.483   2.760
63891W        W36316  41.034  43.527   3.625
63892W        W36317   3.056  40.986   3.205
63893W        W36318  32.067   4.054  10.698
63894W        W36319  11.217   4.269   2.590
63895W        W36320  20.425  27.170  12.873
63896W        W36321   0.460  44.288   3.801
63897W        W36322   2.064   2.001   5.028
63898W        W36323  33.442  37.046  11.396
63899W        W36324  37.125  43.801  12.494
63900W        W36325  22.610  41.024   4.152
63901W        W36326  43.593  19.506  11.244
63902W        W36327  25.788   1.296   2.930
63903W        W36328  42.337  24.193   0.517
63904W        W36329   7.783  39.134   0.980
63905W        W36330  40.947   8.577   3.137
63906W        W36331   7.225  14.394   4.990
63907W        W36332  43.786   9.426   3.548
63908W        W36333   4.755  34.830  11.295
63909W        W36334  40.461  21.016  13.306
63910W        W36335  22.782  15.824   0.320
63911W        W36336  34.243  24.426  11.931
63912W        W36337   7.428  14.191  13.522
63913W        W36338  19.554  10.207   0.824
63914W        W36339  21.300   4.357   3.956
63915W        W36340  38.080  19.598   4.991
63916W        W36341  19.530  27.255  11.423
63917W        W36342  28.077   0.614   4.580
63918W        W36343  17.098  19.544   4.540
63919W        W36344  38.097  15.783   3.815
63920W        W36345  42.377  18.210   3.571
63921W        W36346  31.989  18.195  12.987
63922W        W36347  40.885   4.082   3.926
63923W        W36348   1.046  26.278   4.928
63924W        W36349  18.153  27.593   3.808
63925W        W36350  30.925   2.674   4.869
63926W        W36351  19.602  25.851  11.657
63927W        W36352  31.335  28.562  10.673
63928W        W36353  32.498  43.819   4.158
63929W        W36354  42.908  18.606  13.997
63930W        W36355  18.216  13.640   4.440
63931W        W36356   5.623  15.901  12.280
63932W        W36357  36.561   7.906   3.058
63933W        W36358  36.943  36.912   0.857
63934W        W36359  32.235  33.490   0.136
63935W        W36360   5.680  34.448   1.884
63936W        W36361   9.655  24.643  10.395
63937W        W36362  33.797   7.908   1.379
63938W        W36363  18.045  22.888  14.338
63939W        W36364   5.186  28.565  13.417
63940W        W36365  16.774  10.357  12.830
63941W        W36366   5.676  18.757   3.418
63942W        W36367  37.592   1.239   4.827
63943W        W36368  25.184   3.154  12.405
63944W        W36369  22.993  38.823   1.234
63945W        W36370  32.503  20.954  13.313
63946W        W36371  27.018  17.720  13.341
63947W        W36372  42.875  27.255   1.848
63948W        W36373   0.330   5.886   4.132
63949W        W36374  28.537  13.710   2.529
63950W        W36375  18.942  32.853   3.350
63951W        W36376  17.142  30.511   0.947
63952W        W36377  32.617  33.401  10.723
63953W        W36378  20.344  35.082   2.810
63954W        W36379  11.587  25.611   4.100
63955W        W36380   2.732   4.763   4.958
63956W        W36381   5.404  30.562  12.500
63957W        W36382  17.659   4.194   2.021
63958W        W36383  13.750  29.880  14.131
63959W        W36384  40.820   7.594  11.608
63960W        W36385  23.374   5.204   2.138
63961W        W36386  28.460  23.687   2.213
63962W        W36387  40.271  33.477   3.711
63963W        W36388   4.722  30.519   0.318
63964W        W36389   7.203  28.508   2.100
63965W        W36390   2.724   5.796  14.104
63966W        W36391  38.657  30.435  10.300
63967W        W36392  20.658   7.431  13.037
63968W        W36393  21.675  18.006   2.990
63969W        W36394  25.628  30.536  13.744
63970W        W36395  12.077  30.426   0.456
63971W        W36396  15.782  22.730   5.082
63972W        W36397  36.720  11.895   3.677
63973W        W36398   8.944  17.749  11.998
63974W        W36399   7.010   9.972  11.157
63975W        W36400  15.548  11.904  12.908
63976W        W36401  31.464   8.262  14.472
63977W        W36402  12.051   3.866   0.843
63978W        W36403  44.018  36.333   3.120
63979W        W36404  31.881  25.133   4.733
63980W        W36405   0.614  13.731   2.428
63981W        W36406  32.292  39.001   0.943
63982W        W36407  11.300  10.344  12.311
63983W        W36408   1.975  36.639   2.223
63984W        W36409  16.593  12.171  11.178
63985W        W36410  21.141  12.836  13.311
63986W        W36411  13.242  13.747  11.646
63987W        W36412  21.492  26.165  13.365
63988W        W36413  30.858  27.384   3.789
63989W        W36414  37.487   5.343  14.380
63990W        W36415  21.228  25.991   4.562
63991W        W36416   7.491  35.197   2.732
63992W        W36417  39.297  27.667   3.256
63993W        W36418  33.095   8.226  14.977
63994W        W36419  22.127  38.069  14.002
63995W        W36420  37.932  12.646   0.952
63996W        W36421  43.688  18.076  11.681
63997W        W36422  19.227  41.142  13.758
63998W        W36423   9.170  17.151   3.810
63999W        W36424  43.331  31.401   3.149
64000W        W36425   0.895  34.415  11.576
64001W        W36426  11.255  11.338  11.047
64002W        W36427  42.426  17.099   4.325
64003W        W36428  19.283   3.431  12.184
64004W        W36429  38.783  33.144  12.348
64005W        W36430  40.775  32.865   3.660
64006W        W36431  34.505   7.848   1.918
64007W        W36432  10.637  33.972   2.896
64008W        W36433   0.275   3.112   3.365
64009W        W36434  36.829  15.950   4.969
64010W        W36435  16.594  36.073  12.030
64011W        W36436  29.691  26.557   4.540
64012W        W36437  35.077  27.459   4.104
64013W        W36438  43.513  33.401  10.247
64014W        W36439  29.163  41.453  12.581
64015W        W36440   6.271  31.998  12.518
64016W        W36441  26.142  19.629  13.864
64017W        W36442   7.196  28.967   2.727
64018W        W36443  25.032  12.586  11.146
64019W        W36444  21.968  26.520   4.176
64020W        W36445   5.640  44.704  14.430
64021W        W36446  21.510  15.559   4.618
64022W        W36447   7.747  42.355  11.541
64023W        W36448   6.895  41.434   3.320
64024W        W36449  11.151  28.998  13.202
64025W        W36450  17.197  30.057  11.717
64026W        W36451  14.680   0.277   3.740
64027W        W36452  26.995  16.543   4.523
64028W        W36453  27.933  36.635   0.668
64029W        W36454  31.375  15.651   1.218
64030W        W36455  40.347   6.388   4.682
64031W        W36456   0.755  30.559   0.808
64032W        W36457  21.158   8.585  10.782
64033W        W36458  10.264   8.815  11.094
64034W        W36459  33.945  28.524  12.075
64035W        W36460  40.407  43.385  14.226
64036W        W36461  15.261  38.440   3.126
64037W        W36462  42.033  22.241  10.295
64038W        W36463  33.831  14.744   0.263
64039W        W36464   5.709  17.291  13.806
64040W        W36465   6.272  21.067   1.765
64041W        W36466  42.527  42.903   2.318
64042W        W36467   9.163  13.063  10.332
64043W        W36468   8.119  43.280  14.816
64044W        W36469  40.770   4.123   4.544
64045W        W36470  41.762  21.822   1.043
64046W        W36471  33.193  32.935  11.186
64047W        W36472  27.453   1.323  11.201
64048W        W36473  26.778  27.629  11.118
64049W        W36474  36.873  44.742  10.711
64050W        W36475  19.089  27.057   1.262
64051W        W36476  10.639   6.238  13.998
64052W        W36477   5.429  31.868   3.070
64053W        W36478  15.798  37.280   1.437
64054W        W36479  36.284   7.656  11.045
64055W        W36480  14.054  28.234  14.452
64056W        W36481  19.170  17.102  10.649
64057W        W36482   9.731  10.308  13.457
64058W        W36483  20.044   7.976  13.405
64059W        W36484  27.010  40.931   1.242
64060W        W36485   2.407   4.442   4.363
64061W        W36486  41.039  31.055  14.639
64062W        W36487  44.322  12.624  14.951
64063W        W36488   9.797  22.238  10.628
64064W        W36489  36.531  17.672   4.601
64065W        W36490  25.676  26.680   4.147
64066W        W36491  26.832  33.068  11.083
64067W        W36492  21.700  44.719  13.962
64068W        W36493  11.773   0.801   4.170
64069W        W36494   1.005  36.918   3.591
64070W        W36495   6.280  15.479  10.473
64071W        W36496  30.164  42.940   4.125
64072W        W36497   6.429  44.440   3.708
64073W        W36498  14.799   8.259   0.329
64074W        W36499  25.514   3.938   1.472
64075W        W36500  32.984  24.679  13.841
64076W        W36501  17.759   2.016  14.515
64077W        W36502   3.328   1.168  14.283
64078W        W36503  10.805   3.762   2.260
64079W        W36504  10.650   1.763   1.347
64080W        W36505   5.212   5.253  13.333
64081W        W36506   8.939  26.625   4.751
64082W        W36507   8.426   2.914  12.849
64083W        W36508  38.517  41.548  13.893
64084W        W36509   3.693   2.567   1.951
64085W        W36510  16.246  31.578   4.155
64086W        W36511  21.491  32.160   4.676
64087W        W36512  29.508  31.805   1.825
64088W        W36513  32.450   0.539   2.303
64089W        W36514  23.901  11.237   4.143
64090W        W36515  43.767   3.457   1.392
64091W        W36516  15.534   9.743   3.368
64092W        W36517  42.486  10.265   4.216
64093W        W36518  12.121  35.686  11.780
64094W        W36519  23.634   9.672   0.788
64095W        W36520  15.620   9.133  14.850
64096W        W36521  23.116  35.443  10.633
64097W        W36522   9.371  10.042  10.109
64098W        W36523  25.622   2.190   3.368
64099W        W36524  41.187   1.914   1.781
64100W        W36525   1.886  36.966   1.811
64101W        W36526  25.048  41.487  14.371
64102W        W36527   2.523   6.111  11.317
64103W        W36528  13.335   4.425  12.967
64104W        W36529   9.365  33.804  11.052
64105W        W36530   1.494   9.624   3.350
64106W        W36531   5.823  27.035   3.016
64107W        W36532  36.049  41.054  11.690
64108W        W36533  13.865  11.306  13.572
64109W        W36534  33.666  23.665  10.016
64110W        W36535   9.900  25.405  11.939
64111W        W36536  44.739  39.582   0.468
64112W        W36537   9.659  27.948   4.648
64113W        W36538   4.358  33.519  10.870
64114W        W36539  23.171  33.782  10.572
64115W        W36540  23.178   7.154  10.559
64116W        W36541  29.702  39.514   4.403
64117W        W36542  43.412  12.784  12.226
64118W        W36543  14.538  29.963   0.265
64119W        W36544   4.476  26.125   2.684
64120W        W36545  15.302  31.577   0.854
64121W        W36546  41.100  34.250  11.993
64122W        W36547  25.946  16.781  14.500
64123W        W36548  37.692   8.208   0.482
64124W        W36549  17.670   6.554  13.809
64125W        W36550  37.583  41.299   2.384
64126W        W36551  17.654  35.537   0.253
64127W        W36552  17.965  43.594   2.383
64128W        W36553  37.365  34.585   4.338
64129W        W36554  24.690  35.254  12.025
64130W        W36555  34.850  36.312  13.320
64131W        W36556  17.175  26.680   2.832
64132W        W36557  18.660  20.786  12.325
64133W        W36558  24.742  22.612  12.256
64134W        W36559  29.324  25.127  10.393
64135W        W36560  24.503  23.172   4.215
64136W        W36561  12.298   3.650  11.009
64137W        W36562  18.090  22.232   4.511
64138W        W36563  30.449  16.320   1.904
64139W        W36564  40.351  16.659  13.841
64140W        W36565  15.642  30.134  10.595
64141W        W36566   9.352  26.608  12.708
64142W        W36567  28.920  22.301   0.433
64143W        W36568  38.744  12.199   1.795
64144W        W36569  34.476  33.867   4.284
64145W        W36570   9.293  41.959  12.404
64146W        W36571  43.553   0.966  13.660
64147W        W36572  22.747  10.156   0.967
64148W        W36573  17.557  26.640   4.676
64149W        W36574  25.507  21.456   1.000
64150W        W36575   9.795   5.436  13.434
64151W        W36576  25.128   7.835  12.960
64152W        W36577  13.692   1.278   3.552
64153W        W36578   8.137  16.255   0.858
64154W        W36579  42.250  42.579   3.161
64155W        W36580  32.819  10.366  12.610
64156W        W36581  31.928  26.543  11.413
64157W        W36582   9.235  39.324   2.658
64158W        W36583  35.325  38.376  12.117
64159W        W36584  22.453   0.939   2.850
64160W        W36585  24.517  27.177  14.777
64161W        W36586   6.147  35.812  12.925
64162W        W36587  36.937  33.048   4.480
64163W        W36588  14.116  14.163  10.762
64164W        W36589  40.833   7.381  12.444
64165W        W36590  32.509  13.548   0.006
64166W        W36591  29.516   4.934   4.261
64167W        W36592  22.495  12.017  13.409
64168W        W36593   3.225  30.481   1.346
64169W        W36594   9.250  37.112   3.239
64170W        W36595  43.704  27.952   1.658
64171W        W36596  31.200  43.833  12.990
64172W        W36597   0.859  16.652   3.471
64173W        W36598  43.181  29.609  11.579
64174W        W36599  27.271  41.730  11.050
64175W        W36600  41.067  28.466   1.680
64176W        W36601  44.349  39.930  12.087
64177W        W36602  18.361   1.301  14.393
64178W        W36603  39.440   4.460   3.579
64179W        W36604  44.052  42.512   1.368
64180W        W36605  29.110  18.482   4.739
64181W        W36606  20.241  26.440   0.782
64182W        W36607  28.092   6.377   3.714
64183W        W36608  26.150  44.127   3.170
64184W        W36609   4.718   9.053   0.866
64185W        W36610  42.889  39.587  10.705
64186W        W36611  26.308  41.226  13.077
64187W        W36612  39.729  29.515  12.582
64188W        W36613  20.553  32.112  13.932
64189W        W36614  35.546  31.298  13.775
64190W        W36615  13.284  16.791   3.216
64191W        W36616  29.348   8.851   4.118
64192W        W36617  44.846  11.549   0.316
64193W        W36618   0.702  41.958   3.795
64194W        W36619  20.298  21.504  13.348
64195W        W36620   6.321  34.499   0.704
64196W        W36621  21.083  40.643   5.126
64197W        W36622   6.275   1.661  10.729
64198W        W36623  38.777  30.231  12.388
64199W        W36624  42.255  19.301  13.532
64200W        W36625  17.520  42.480   3.055
64201W        W36626  19.906  12.309  11.910
64202W        W36627  20.821  18.832   1.285
64203W        W36628  37.855  15.316   3.733
64204W        W36629  26.174  21.274   4.690
64205W        W36630  12.235  25.488  13.838
64206W        W36631  26.957   4.430   0.367
64207W        W36632  26.040  17.749   1.746
64208W        W36633  36.550  38.862   2.224
64209W        W36634  29.456  41.855   9.714
64210W        W36635   3.312  18.325  10.776
64211W        W36636  34.955   6.080  14.194
64212W        W36637   9.366   4.888  14.769
64213W        W36638  21.501  36.448   2.229
64214W        W36639  34.606  25.390   4.855
64215W        W36640   1.719  34.325   2.126
64216W        W36641  40.459  24.304  12.418
64217W        W36642   8.265   5.297  14.858
64218W        W36643  26.044  15.325  14.918
64219W        W36644  33.963  24.152  11.596
64220W        W36645  27.080  22.438  14.185
64221W        W36646   4.770  29.960  11.163
64222W        W36647  17.274  42.540  12.121
64223W        W36648   1.171  17.702  11.141
64224W        W36649  14.312   0.667   3.032
64225W        W36650  17.544  18.769   4.421
64226W        W36651  20.073  42.961   0.934
64227W        W36652  41.379  34.882  14.894
64228W        W36653  16.177   9.862  11.315
64229W        W36654  36.642   7.628  14.278
64230W        W36655  37.077  27.282   3.596
64231W        W36656  41.984   0.709   4.027
64232W        W36657  13.075  21.573   0.364
64233W        W36658  38.484  15.235   2.159
64234W        W36659  39.550  28.199  13.006
64235W        W36660  33.393  44.977   4.159
64236W        W36661  17.235  44.974   4.579
64237W        W36662  16.855  31.634  12.533
64238W        W36663   2.114  27.290  11.148
64239W        W36664   7.897  26.493   1.430
64240W        W36665   9.522  39.401  12.753
64241W        W36666  12.719  10.145   1.396
64242W        W36667  38.734  22.562  11.095
64243W        W36668  44.725  13.782  11.972
64244W        W36669  27.149  34.503   1.200
64245W        W36670  14.768   4.775  13.896
64246W        W36671  40.522  19.616   2.947
64247W        W36672   2.771  35.950  14.110
64248W        W36673  32.480  13.237  11.188
64249W        W36674  19.793  44.014   3.195
64250W        W36675  21.131   8.119   2.700
64251W        W36676   4.812  41.457  10.312
64252W        W36677  19.115  23.178  12.381
64253W        W36678  26.038  36.597   1.443
64254W        W36679  16.547  25.109  13.863
64255W        W36680   5.310   5.321  11.242
64256W        W36681  14.953  22.719  11.519
64257W        W36682  25.931  29.488   4.857
64258W        W36683   5.405  42.520   1.942
64259W        W36684  18.493  34.641   9.870
64260W        W36685  27.489   8.141   4.544
64261W        W36686   1.553  13.561   2.239
64262W        W36687  12.776  44.288  11.149
64263W        W36688  19.076  13.290  11.679
64264W        W36689   2.698  26.715   3.410
64265W        W36690  11.207  20.584   4.465
64266W        W36691  22.125  32.268  12.836
64267W        W36692   2.059  32.577   4.541
64268W        W36693  44.356  27.132  14.502
64269W        W36694  15.490  15.620  12.506
64270W        W36695  12.190  43.952   1.254
64271W        W36696   3.960  38.849  10.464
64272W        W36697  26.722   9.408   4.082
64273W        W36698  30.195  41.861  13.088
64274W        W36699  31.427  43.774   4.855
64275W        W36700   9.426  17.330  12.417
64276W        W36701  22.728  20.694  14.012
64277W        W36702  42.378  23.689  10.886
64278W        W36703  14.361  42.108   3.776
64279W        W36704  39.313  20.582  11.157
64280W        W36705  35.968  32.419   0.985
64281W        W36706  42.441  22.163   0.029
64282W        W36707  27.697  24.557   3.607
64283W        W36708  18.902   7.458   3.196
64284W        W36709  36.585  13.798  12.905
64285W        W36710  23.270  25.250  11.987
64286W        W36711  19.492  21.625   1.221
64287W        W36712   9.336   5.153  14.329
64288W        W36713   3.254   3.946   1.402
64289W        W36714  20.188  27.955   4.337
64290W        W36715  21.392   6.759   2.758
64291W        W36716  31.622   5.685   2.674
64292W        W36717  21.570   3.763  11.192
64293W        W36718  36.874   1.890  14.320
64294W        W36719  25.704  16.901   3.640
64295W        W36720  14.094  39.379  10.383
64296W        W36721   1.974   1.000   0.460
64297W        W36722  23.701  37.942   4.997
64298W        W36723   0.451   1.551  13.532
64299W        W36724   3.022  44.612   2.861
64300W        W36725  17.585  32.209   9.860
64301W        W36726   0.863  24.969  13.975
64302W        W36727  13.423  34.963   2.754
64303W        W36728  25.356  16.688  11.653
64304W        W36729  16.294  44.247   0.469
64305W        W36730  11.286  17.772  11.916
64306W        W36731   0.246   5.890  12.245
64307W        W36732   1.816  19.303   0.549
64308W        W36733   5.113  29.229   3.835
64309W        W36734  33.507  12.355   3.630
64310W        W36735  38.631  44.958  10.322
64311W        W36736  41.021  34.473  10.739
64312W        W36737  36.533  19.769  12.436
64313W        W36738  25.212   0.819   4.128
64314W        W36739  24.953  32.516   0.016
64315W        W36740  21.707  21.522   4.706
64316W        W36741  24.027   3.470   1.321
64317W        W36742   7.290   1.973  11.118
64318W        W36743  31.868  22.265  13.021
64319W        W36744  36.193   6.929  10.167
64320W        W36745   9.776   5.290  14.079
64321W        W36746  33.907  17.632   1.869
64322W        W36747   6.271  27.066   2.712
64323W        W36748  16.895  32.492  10.167
64324W        W36749   3.638   3.625   3.793
64325W        W36750  22.159  24.291  12.145
64326W        W36751  19.025  30.721   1.168
64327W        W36752  27.942  30.517  14.350
64328W        W36753  22.526  14.589  13.779
64329W        W36754  27.447   6.292   0.685
64330W        W36755  11.291  13.053  14.958
64331W        W36756  24.639   7.589  12.131
64332W        W36757   9.806  37.872  10.744
64333W        W36758  33.942  35.936   1.479
64334W        W36759  16.842   7.790   3.154
64335W        W36760  40.097   2.718   1.942
64336W        W36761   1.399  37.389   2.840
64337W        W36762  11.825  13.226   1.257
64338W        W36763  35.945  24.740   1.312
64339W        W36764  42.332   0.413   0.760
64340W        W36765  41.026  14.051  14.502
64341W        W36766  16.632  19.320   1.787
64342W        W36767  23.205  17.249  14.127
64343W        W36768  28.059  42.979   4.635
64344W        W36769   5.919   2.006   1.249
64345W        W36770  15.216   4.636  10.676
64346W        W36771  31.597  11.675  11.584
64347W        W36772  38.580   7.336   4.528
64348W        W36773   4.904   6.533   1.271
64349W        W36774   8.760  26.546   1.705
64350W        W36775  40.556  24.800   0.888
64351W        W36776  21.507  15.804   0.002
64352W        W36777  40.516  34.184  13.314
64353W        W36778   1.427   2.445   0.982
64354W        W36779  18.232  12.633   5.031
64355W        W36780  40.937  14.422   0.336
64356W        W36781  38.034  34.805  14.570
64357W        W36782  10.753  18.100  12.589
64358W        W36783   4.425   5.533  10.738
64359W        W36784  14.881  16.202  13.517
64360W        W36785  36.120   5.752  14.308
64361W        W36786  14.732  27.601  14.609
64362W        W36787  41.795  43.184   5.078
64363W        W36788  11.252  20.762   0.749
64364W        W36789  18.295  31.974  12.416
64365W        W36790  43.961   5.716  14.114
64366W        W36791  23.443   8.157   4.778
64367W        W36792   4.874  22.736   3.827
64368W        W36793  11.615  22.454  12.951
64369W        W36794  19.503   7.188  11.125
64370W        W36795  43.042   8.150   0.031
64371W        W36796  13.900  16.400   2.801
64372W        W36797  11.834  39.670  10.932
64373W        W36798   9.734  41.501   4.644
64374W        W36799   1.873  21.605   2.288
64375W        W36800  30.001  42.298   1.497
64376W        W36801  36.929   6.396   4.184
64377W        W36802  20.616  38.480   1.895
64378W        W36803   6.318   4.219  10.589
64379W        W36804  20.035   1.208   1.822
64380W        W36805   3.039   9.776   4.621
64381W        W36806   2.502   6.963  11.952
64382W        W36807  10.242  20.658   3.217
64383W        W36808  39.459   5.738  12.630
64384W        W36809  23.658  27.132   0.492
64385W        W36810  28.290  38.422   9.665
64386W        W36811  19.373  40.940   0.023
64387W        W36812  18.654  10.585   1.788
64388W        W36813   3.732  17.140   3.217
64389W        W36814  32.650  42.578  12.574
64390W        W36815   6.961  39.809   0.860
64391W        W36816   2.873   9.699  10.667
64392W        W36817  12.886  14.140  13.535
64393W        W36818   0.720  37.594  14.008
64394W        W36819  40.777   8.383   2.676
64395W        W36820  16.536   4.326   3.063
64396W        W36821  21.213  11.415  12.207
64397W        W36822  39.629   5.946  11.518
64398W        W36823  38.313  15.719  11.289
64399W        W36824   0.398   2.884  11.753
64400W        W36825  30.114   9.311   1.380
64401W        W36826  25.990   9.339   1.307
64402W        W36827   1.504  18.199  13.863
64403W        W36828   2.404  41.905  13.498
64404W        W36829  27.662  26.298  13.862
64405W        W36830   3.887  36.136   2.792
64406W        W36831  16.785  16.617  14.810
64407W        W36832   6.677   9.640   2.347
64408W        W36833  32.027  24.049  13.164
64409W        W36834  22.126  41.906  11.616
64410W        W36835   9.297  20.323   4.811
64411W        W36836  10.782  35.419   3.229
64412W        W36837   8.715   2.636  13.272
64413W        W36838  12.313   8.960  14.901
64414W        W36839   3.710  25.934  11.776
64415W        W36840   3.055  24.884  13.426
64416W        W36841  14.054  10.844  13.794
64417W        W36842  41.920  26.578  14.507
64418W        W36843  25.960  39.250   3.678
64419W        W36844  29.666  42.991   3.214
64420W        W36845   4.440  27.476  12.008
64421W        W36846  25.261   2.493   1.742
64422W        W36847  43.061  21.080   5.636
64423W        W36848  23.159  36.495   3.683
64424W        W36849   6.466  23.926   2.835
64425W        W36850  15.786  10.227  11.335
64426W        W36851  29.282   2.294   4.268
64427W        W36852  12.322  42.936  14.919
64428W        W36853  39.444  33.969  14.930
64429W        W36854  33.145  33.151   3.794
64430W        W36855   4.897  17.194  13.273
64431W        W36856   0.021  15.728   4.774
64432W        W36857  44.063  40.779   2.288
64433W        W36858  42.811   8.638   2.186
64434W        W36859  31.245  34.483   9.907
64435W        W36860   7.875  44.142   2.697
64436W        W36861  41.154   3.711  13.091
64437W        W36862  25.067   1.885  13.894
64438W        W36863  20.346   1.780   0.308
64439W        W36864  21.024  21.968  14.880
64440W        W36865  28.922  42.914  10.628
64441W        W36866   6.593  33.906  11.666
64442W        W36867   2.765  16.774  13.718
64443W        W36868  19.364  12.638  13.967
64444W        W36869  27.306   8.403  11.092
64445W        W36870  15.128  31.977   4.673
64446W        W36871  43.591   1.755  10.404
64447W        W36872  24.088   4.161  14.287
64448W        W36873  38.798  34.374  11.074
64449W        W36874   1.480   0.393   4.682
64450W        W36875  23.982  13.252   3.616
64451W        W36876  44.745  32.582   1.430
64452W        W36877  25.163  12.738   3.405
64453W        W36878  35.286  10.811  13.992
64454W        W36879  12.099  25.634  13.343
64455W        W36880  32.473  39.462   0.767
64456W        W36881  17.436  31.824   3.011
64457W        W36882  19.253   3.827  13.751
64458W        W36883   6.198  32.996  13.464
64459W        W36884  12.979  35.571  12.794
64460W        W36885  40.310  43.732   1.464
64461W        W36886   9.212  32.893   2.754
64462W        W36887  11.643  24.298   5.176
64463W        W36888  27.995   1.036  14.399
64464W        W36889  20.692  26.906  14.992
64465W        W36890  30.351  30.061   4.176
64466W        W36891   8.160   7.907  11.632
64467W        W36892   9.107  40.002   0.441
64468W        W36893  10.355  10.320   2.089
64469W        W36894  31.082   0.084  14.276
64470W        W36895  37.208   8.933   4.656
64471W        W36896  28.002  31.467  14.487
64472W        W36897  41.613   1.005   4.616
64473W        W36898  12.351  27.599   0.861
64474W        W36899  30.070  39.282  14.315
64475W        W36900  38.924  15.279   2.428
64476W        W36901  14.644  41.689   4.642
64477W        W36902  33.423  10.894  12.539
64478W        W36903   1.766  41.621   4.085
64479W        W36904  35.904  21.749   1.828
64480W        W36905  21.394  38.976   3.642
64481W        W36906   2.042  34.862  10.907
64482W        W36907  26.550   9.563  11.590
64483W        W36908   5.662  14.855   3.347
64484W        W36909  25.653  32.448  14.532
64485W        W36910  14.649  18.284   4.663
64486W        W36911  28.168  17.269   4.610
64487W        W36912  15.509  38.514   2.666
64488W        W36913  32.590   4.363  14.970
64489W        W36914  17.191   4.390   4.826
64490W        W36915   2.172   6.568   1.803
64491W        W36916  38.284  40.441   0.076
64492W        W36917   8.742  43.507   2.256
64493W        W36918  13.541   3.351   3.687
64494W        W36919  16.901  16.139   1.316
64495W        W36920   8.325  16.207  11.558
64496W        W36921  42.023  11.053  13.333
64497W        W36922  27.256   5.930  14.105
64498W        W36923   5.362   6.286   1.406
64499W        W36924  38.992  20.210  12.501
64500W        W36925  43.835   9.386  12.418
64501W        W36926  24.453  11.162   2.927
64502W        W36927  40.859   4.620   4.770
64503W        W36928  31.066  24.177   2.351
64504W        W36929  36.596   8.560   1.659
64505W        W36930   9.610  36.643   0.108
64506W        W36931  14.681  28.073   2.705
64507W        W36932  20.138  10.171  14.541
64508W        W36933  24.542  30.639  10.261
64509W        W36934  11.031  13.604   2.945
64510W        W36935  31.470  11.019   3.244
64511W        W36936  41.874  10.316  14.956
64512W        W36937   1.316  31.870   3.058
64513W        W36938  29.529   7.221  13.045
64514W        W36939  39.307  25.682  12.538
64515W        W36940  11.254  27.640   4.378
64516W        W36941  15.355  43.334   3.860
64517W        W36942  24.521   1.392   2.510
64518W        W36943  26.596  36.154   1.922
64519W        W36944  36.605  14.589   2.966
64520W        W36945  26.539   6.912   3.059
64521W        W36946  15.096  35.498  10.495
64522W        W36947  21.015  40.303   0.816
64523W        W36948   3.754  12.732   3.680
64524W        W36949  19.591  31.393   3.374
64525W        W36950   2.428  26.617  14.571
64526W        W36951  22.681  40.744   5.014
64527W        W36952  20.704   6.203  12.233
64528W        W36953  36.417  31.900  11.167
64529W        W36954  29.362  16.059   1.955
64530W        W36955   4.459  17.635   1.266
64531W        W36956  31.932  10.014  12.793
64532W        W36957  15.053  35.189  13.117
64533W        W36958  10.787  40.392   3.677
64534W        W36959   5.109  26.878  13.108
64535W        W36960  17.502  19.349  13.762
64536W        W36961   6.999  17.403   3.253
64537W        W36962  10.141  26.433   0.815
64538W        W36963   5.292   0.660  14.650
64539W        W36964   7.492   9.926  12.512
64540W        W36965   8.899  44.306  13.357
64541W        W36966  41.028   9.273  13.304
64542W        W36967  30.644   2.413   0.589
64543W        W36968  42.466  29.079   4.378
64544W        W36969  43.313   0.446   4.702
64545W        W36970   4.137  38.382   0.885
64546W        W36971  11.919   2.736  13.117
64547W        W36972  22.621  30.345   3.765
64548W        W36973  38.515   3.728   2.263
64549W        W36974  44.907  40.292  13.325
64550W        W36975   1.488  22.042   0.150
64551W        W36976  18.173  11.226  13.601
64552W        W36977  34.381  27.605   4.585
64553W        W36978  14.767  16.814   2.842
64554W        W36979  17.236  39.905  11.012
64555W        W36980  26.285  38.970   2.318
64556W        W36981  44.037  12.905   0.326
64557W        W36982   5.206  20.818   0.944
64558W        W36983  43.410  28.955  10.965
64559W        W36984  35.071  41.521  13.407
64560W        W36985  21.716   6.383   2.592
64561W        W36986  32.647  18.660  11.941
64562W        W36987  26.626   8.656   4.597
64563W        W36988  13.886  29.012  13.790
64564W        W36989  41.631  24.948   2.578
64565W        W36990  23.051  15.347   2.689
64566W        W36991   6.930  34.651   2.755
64567W        W36992  40.901   0.204  14.299
64568W        W36993  11.116  22.296  12.940
64569W        W36994   0.771  44.323   1.597
64570W        W36995  18.156  27.959   1.216
64571W        W36996  16.576   6.481   1.448
64572W        W36997   3.081  10.293   2.841
64573W        W36998   4.654  34.424   1.522
64574W        W36999  34.098  35.974  13.043
64575W        W37000   8.754  43.859  11.402
64576W        W37001  24.987  12.681  12.013
64577W        W37002  16.341  26.587   3.309
64578W        W37003  40.690  31.498   1.823
64579W        W37004   8.686  31.060   3.625
64580W        W37005  17.809  40.426  13.555
64581W        W37006  42.841  17.640   1.413
64582W        W37007  24.135  17.305   3.655
64583W        W37008  13.514  20.793   2.127
64584W        W37009  42.496   9.831   2.154
64585W        W37010  17.907  27.916  13.479
64586W        W37011   7.020  11.645  11.355
64587W        W37012   7.391  28.754  14.503
64588W        W37013  12.768  33.595  12.500
64589W        W37014  16.800  44.745  14.398
64590W        W37015  35.844   4.124   2.674
64591W        W37016  16.277  25.544  12.032
64592W        W37017  37.938   7.249  10.181
64593W        W37018   6.238  19.040  11.111
64594W        W37019  15.759  32.482   4.011
64595W        W37020   6.873   9.186  13.480
64596W        W37021  38.929  17.167   1.842
64597W        W37022   9.887  32.431  12.252
64598W        W37023  26.760  14.801  10.499
64599W        W37024  28.442  41.379   3.240
64600W        W37025  14.710  14.631  11.592
64601W        W37026   5.952   1.796   1.773
64602W        W37027   4.291  26.476  10.648
64603W        W37028  26.104  26.531  13.394
64604W        W37029  43.317  18.650   1.355
64605W        W37030   0.319  24.633   4.702
64606W        W37031  39.601   3.393  11.703
64607W        W37032  30.529  42.458   1.682
64608W        W37033  26.514  26.333   4.352
64609W        W37034  28.501  38.486   1.483
64610W        W37035   6.749  22.849   4.093
64611W        W37036  37.926   7.992  10.657
64612W        W37037  38.168  23.358  12.120
64613W        W37038  27.098  44.232   4.083
64614W        W37039  36.497  34.189  12.902
64615W        W37040  13.592   3.753  10.303
64616W        W37041  42.752  44.344  11.885
64617W        W37042   9.599  21.231   2.871
64618W        W37043  30.475  24.139  11.443
64619W        W37044  32.505  25.799  11.335
64620W        W37045   5.962  30.512  11.712
64621W        W37046  44.775   3.168   3.169
64622W        W37047   2.928  12.759  10.679
64623W        W37048  12.233   9.211   1.413
64624W        W37049  29.188  15.267  10.843
64625W        W37050  17.695  15.245   4.145
64626W        W37051   1.658  15.749  10.775
64627W        W37052  12.109  35.315  10.578
64628W        W37053   5.708  11.275  11.643
64629W        W37054  23.604  22.203  11.162
64630W        W37055  15.355  28.091   4.009
64631W        W37056  21.026  26.852  11.152
64632W        W37057   7.170  36.506   0.465
64633W        W37058  37.084   6.966  10.039
64634W        W37059  27.066  21.028   9.984
64635W        W37060  30.806  34.327  14.835
64636W        W37061   6.888  10.086   0.158
64637W        W37062  44.551   9.399   3.644
64638W        W37063  14.167  20.242   1.750
64639W        W37064  31.781  40.782   3.721
64640W        W37065  34.460  23.262  10.397
64641W        W37066  43.530   5.925   1.655
64642W        W37067  21.134  15.567   4.262
64643W        W37068  20.837   6.896  13.456
64644W        W37069  31.390  31.967   3.681
64645W        W37070  33.935  14.198   3.575
64646W        W37071   4.893  34.017   5.033
64647W        W37072  41.582  33.342   3.281
64648W        W37073   1.009  15.619   3.684
64649W        W37074  18.070  14.062  13.919
64650W        W37075  24.677  16.712   4.358
64651W        W37076  27.928  32.438  12.527
64652W        W37077  38.483   4.383   1.267
64653W        W37078  16.402  38.855  10.793
64654W        W37079  36.150  32.014   2.635
64655W        W37080  15.620  31.332  12.554
64656W        W37081  18.780  15.722  12.115
64657W        W37082  22.263  43.390  10.507
64658W        W37083  28.887  28.824  11.127
64659W        W37084  13.904   2.708  14.432
64660W        W37085  18.846  31.147   1.725
64661W        W37086  19.371  39.094   1.687
64662W        W37087   6.244  12.015  13.400
64663W        W37088  27.492  39.778   1.883
64664W        W37089  34.447  31.383   2.687
64665W        W37090  15.209  28.550  11.065
64666W        W37091  33.838   1.426  11.692
64667W        W37092   1.228  33.189   3.336
64668W        W37093  21.294  28.942   0.170
64669W        W37094   5.917  14.333  10.699
64670W        W37095  10.599  30.425   5.049
64671W        W37096  26.028  28.882   2.439
64672W        W37097  34.901  34.818  10.781
64673W        W37098  14.721  18.222   0.972
64674W        W37099   8.718  27.643  10.591
64675W        W37100  19.700  16.221  12.036
64676W        W37101  15.765  39.600  10.725
64677W        W37102  27.766  24.448  14.943
64678W        W37103   2.176  24.477   3.145
64679W        W37104   3.181  18.188   4.587
64680W        W37105  24.439   2.708   0.853
64681W        W37106  26.665  36.534  12.093
64682W        W37107  39.368  33.365  14.228
64683W        W37108  39.888  39.436  14.883
64684W        W37109   4.877  14.512   4.315
64685W        W37110  15.885   1.652   2.184
64686W        W37111   8.766   2.286   2.191
64687W        W37112  26.166  23.605   3.798
64688W        W37113   5.074  30.434   4.429
64689W        W37114  35.343  27.953  10.051
64690W        W37115  11.224  25.368  11.177
64691W        W37116  20.680  26.428   3.824
64692W        W37117   5.848  20.145   1.865
64693W        W37118   8.846  37.541  11.685
64694W        W37119  16.503  13.144  12.774
64695W        W37120  44.358  40.437   4.954
64696W        W37121  37.815   2.769  14.226
64697W        W37122  14.793  22.244   4.110
64698W        W37123  10.180  13.042   2.787
64699W        W37124   8.926   9.774   1.944
64700W        W37125  24.227   5.278  11.096
64701W        W37126   5.136  15.906   4.110
64702W        W37127  27.234  38.478  12.501
64703W        W37128  36.589  26.800   0.207
64704W        W37129   5.956  16.185  13.423
64705W        W37130  11.717  41.934   3.623
64706W        W37131   5.625  35.539  14.955
64707W        W37132  18.208  34.235   5.093
64708W        W37133  30.463  42.798  12.997
64709W        W37134   7.691  14.353  10.868
64710W        W37135   8.710  12.617  14.065
64711W        W37136  23.890  20.592   4.383
64712W        W37137  12.653   9.461  11.955
64713W        W37138  30.966  15.775  12.672
64714W        W37139  11.868  30.880   3.827
64715W        W37140  12.511  18.598   3.937
64716W        W37141  41.726  37.592  11.122
64717W        W37142  25.422  44.693   4.222
64718W        W37143  26.694  17.346   0.417
64719W        W37144  31.352  22.265  12.130
64720W        W37145  22.218   2.670   3.275
64721W        W37146  14.626   1.133   2.200
64722W        W37147   0.701  12.881  12.700
64723W        W37148  41.285  28.835  12.844
64724W        W37149  31.967  20.741   0.418
64725W        W37150  38.530  36.972  14.038
64726W        W37151  37.067  39.954  13.254
64727W        W37152  14.628  35.879  14.376
64728W        W37153  30.448   6.332   4.243
64729W        W37154  25.662  42.012  10.409
64730W        W37155  35.913  33.697   0.437
64731W        W37156  33.378  23.582   0.802
64732W        W37157  25.941  26.511  14.307
64733W        W37158  30.726   3.760   4.326
64734W        W37159  32.146  18.295  14.806
64735W        W37160  42.189   0.745  14.412
64736W        W37161  18.742  44.972  10.529
64737W        W37162  38.283   8.297   5.552
64738W        W37163   6.482  36.817   2.527
64739W        W37164  27.074  42.410  11.523
64740W        W37165  37.319  15.499   1.371
64741W        W37166  42.239  18.809  13.298
64742W        W37167  18.356  31.083   4.515
64743W        W37168   0.551  34.250   1.294
64744W        W37169   6.720   4.970  12.422
64745W        W37170   5.221  22.098   0.296
64746W        W37171  23.524  18.393   3.946
64747W        W37172  26.254  34.645  13.528
64748W        W37173  16.101  16.720   4.095
64749W        W37174  12.934  16.269  13.426
64750W        W37175  30.440  38.379  11.995
64751W        W37176  42.078  39.073  14.335
64752W        W37177  19.032  11.808  11.143
64753W        W37178   4.998  41.828   0.912
64754W        W37179  17.603  17.830   1.815
64755W        W37180  22.521   5.579  14.605
64756W        W37181  30.701  33.861  11.937
64757W        W37182  18.271  10.403  13.565
64758W        W37183  10.460  41.103   3.576
64759W        W37184  35.723  41.792  11.216
64760W        W37185   4.027  42.473   2.645
64761W        W37186  18.022  34.184  14.045
64762W        W37187  35.991  15.405  12.530
64763W        W37188  33.119  17.056   4.356
64764W        W37189  14.742  27.516  11.841
64765W        W37190  33.663  21.181   0.082
64766W        W37191  26.630  31.036   4.778
64767W        W37192  11.176  21.687  12.682
64768W        W37193  20.267   6.700  14.296
64769W        W37194  39.307  35.291   2.748
64770W        W37195  24.496  38.430   4.551
64771W        W37196  15.926   8.829  13.945
64772W        W37197  36.013  18.881   0.898
64773W        W37198  22.116  24.038   4.588
64774W        W37199  42.910  28.579  12.028
64775W        W37200   0.757  33.755   2.172
64776W        W37201   5.916  23.021  13.071
64777W        W37202  23.993  30.345   1.258
64778W        W37203  14.546  23.518   4.987
64779W        W37204  10.260   0.529  12.899
64780W        W37205  24.938  26.504   0.913
64781W        W37206  30.081   5.324  12.576
64782W        W37207  33.956  38.316  11.984
64783W        W37208   3.892  30.643   0.264
64784W        W37209   6.867  26.480   1.184
64785W        W37210  19.200  10.262  14.961
64786W        W37211  34.114  30.959   0.556
64787W        W37212   2.197  31.028   3.292
64788W        W37213  23.517  26.005  14.073
64789W        W37214  32.132  22.169  12.589
64790W        W37215  35.057  21.145  13.321
64791W        W37216   5.163  12.176  14.545
64792W        W37217  42.985   7.881  12.563
64793W        W37218  14.674  38.129   3.765
64794W        W37219  25.878   5.790  10.441
64795W        W37220  38.135  43.303   2.742
64796W        W37221   4.616  38.319   1.878
64797W        W37222  20.551   4.753  13.622
64798W        W37223  12.218  16.493  12.091
64799W        W37224  29.906   6.394   4.177
64800W        W37225  13.706  35.041   3.208
64801W        W37226  37.616   4.052   4.287
64802W        W37227  35.839  31.621  14.723
64803W        W37228  28.142   0.281  13.947
64804W        W37229  40.354  22.201  13.930
64805W        W37230  20.933  27.945   5.050
64806W        W37231  24.715   9.938  11.547
64807W        W37232  24.913   4.050  11.078
64808W        W37233  22.286  33.313  10.464
64809W        W37234  36.331   1.661   4.575
64810W        W37235  23.246  30.481   1.178
64811W        W37236  15.735  19.114  14.970
64812W        W37237  36.470  12.764  13.510
64813W        W37238  29.125  26.025   2.628
64814W        W37239   0.374  11.187  13.526
64815W        W37240  16.360  17.722  14.408
64816W        W37241  31.571  34.148  11.887
64817W        W37242   9.898  10.234   0.703
64818W        W37243  28.845  34.299  13.781
64819W        W37244  29.161  25.756  13.434
64820W        W37245   7.811  36.620   3.336
64821W        W37246  16.855   6.737  10.559
64822W        W37247  26.243   6.779  12.937
64823W        W37248  35.719   7.901   4.638
64824W        W37249  12.133  42.337   0.615
64825W        W37250  11.839   5.324   3.229
64826W        W37251   3.349  15.778  12.875
64827W        W37252  11.595  29.154   3.305
64828W        W37253  42.882  23.598  13.051
64829W        W37254   8.523  39.341   4.557
64830W        W37255   1.305  22.573  12.026
64831W        W37256  39.290  34.165   1.330
64832W        W37257  36.676  32.624  13.216
64833W        W37258   6.120   1.247   1.706
64834W        W37259  21.373   2.900   2.511
64835W        W37260  16.508  27.549  11.177
64836W        W37261   4.847  19.209  12.953
64837W        W37262  21.895  40.080   1.313
64838W        W37263  32.458  43.494   2.369
64839W        W37264  15.695  24.694  13.932
64840W        W37265  13.491  16.622   0.952
64841W        W37266  14.428  30.910  10.674
64842W        W37267  13.817   2.260   1.281
64843W        W37268  23.750   7.250   2.320
64844W        W37269  25.407   2.484   3.724
64845W        W37270  10.289  44.768   0.945
64846W        W37271   3.934  12.104   2.821
64847W        W37272  43.015  22.093  10.616
64848W        W37273   1.731  44.853  13.085
64849W        W37274  11.759  15.068   4.260
64850W        W37275  30.609  23.447  11.647
64851W        W37276  14.957  32.808   1.744
64852W        W37277  22.120  39.493  12.852
64853W        W37278  30.293  34.973   3.568
64854W        W37279   3.634  36.226  13.138
64855W        W37280  15.661  42.252  10.709
64856W        W37281  23.772   7.827   1.068
64857W        W37282  25.453  25.008   0.417
64858W        W37283  24.283  40.636  11.052
64859W        W37284  13.759  30.184   4.215
64860W        W37285   1.539  20.136   3.750
64861W        W37286  43.798   9.812  10.572
64862W        W37287  37.583   8.274  13.425
64863W        W37288  13.348  31.610   3.642
64864W        W37289  21.788  37.896   2.670
64865W        W37290   8.301  13.205   2.682
64866W        W37291   6.664  14.834  11.480
64867W        W37292  43.364  32.636  11.097
64868W        W37293  33.438  26.772  13.940
64869W        W37294  41.750   1.593  11.571
64870W        W37295  16.152  35.645   4.342
64871W        W37296  17.354  25.234   2.449
64872W        W37297  17.282  38.860   4.594
64873W        W37298   3.363   8.553   4.865
64874W        W37299  36.619  25.215   0.813
64875W        W37300  20.078  42.393   4.269
64876W        W37301  44.241  12.914  14.014
64877W        W37302   2.073  31.311  14.567
64878W        W37303  39.348  25.751   4.488
64879W        W37304   0.701  30.178   3.000
64880W        W37305  13.828   7.030   3.652
64881W        W37306  42.857  29.376  12.492
64882W        W37307  40.996  11.284   0.252
64883W        W37308  15.851  44.989   3.887
64884W        W37309   7.199  41.524   1.727
64885W        W37310  36.011   6.614  13.472
64886W        W37311  31.515  38.330  14.962
64887W        W37312  43.064  25.403   0.457
64888W        W37313   6.593   9.651  13.454
64889W        W37314  12.854  43.409  12.879
64890W        W37315  18.488  40.090  14.702
64891W        W37316  30.171  40.917  14.954
64892W        W37317  24.624  34.377   3.668
64893W        W37318  39.329   3.278   3.905
64894W        W37319  33.776  24.465   1.572
64895W        W37320   8.703  19.597  11.059
64896W        W37321  17.606  18.270  11.107
64897W        W37322   3.356  41.480   0.480
64898W        W37323  17.061  24.629  13.786
64899W        W37324   5.382  14.206  11.664
64900W        W37325  35.577  37.326   1.720
64901W        W37326  32.643  18.610   2.903
64902W        W37327  20.439   0.344  12.982
64903W        W37328  17.044  37.364   3.830
64904W        W37329   9.178  29.452  10.716
64905W        W37330  20.081  44.530  14.911
64906W        W37331   3.071  29.165  13.349
64907W        W37332  27.221  30.391   4.254
64908W        W37333  32.714   8.958   4.809
64909W        W37334  30.134   5.358  14.916
64910W        W37335  43.240   7.920  11.713
64911W        W37336  42.112  31.429  11.611
64912W        W37337  35.604   1.446  13.597
64913W        W37338  41.817  20.132   4.302
64914W        W37339  17.271  44.021  13.912
64915W        W37340  34.977   9.511  13.386
64916W        W37341  10.219  32.328  11.165
64917W        W37342   2.314  17.613  12.259
64918W        W37343  12.286  24.420  13.265
64919W        W37344   5.995  14.349   4.403
64920W        W37345  31.003  31.872  12.141
64921W        W37346  30.220  38.278   2.312
64922W        W37347  41.382  21.648   9.991
64923W        W37348  19.010   9.363   0.503
64924W        W37349  19.621  29.915   0.963
64925W        W37350  31.353  28.854   1.489
64926W        W37351   0.329  26.574   2.164
64927W        W37352  35.105  34.491  11.628
64928W        W37353  23.169  33.571   2.295
64929W        W37354   1.007  23.838   4.801
64930W        W37355  24.604   5.915   1.842
64931W        W37356   0.016   9.803   1.735
64932W        W37357  40.728  20.588  13.451
64933W        W37358  12.562  41.390  11.090
64934W        W37359   6.269  24.277   3.240
64935W        W37360  43.686   7.659  10.480
64936W        W37361  36.629  30.140   0.055
64937W        W37362  22.176   1.909   2.355
64938W        W37363  29.112  43.194  11.032
64939W        W37364  21.141   6.721  13.889
64940W        W37365  18.237  40.529  14.553
64941W        W37366  16.759   1.885   1.186
64942W        W37367  44.074  23.583   2.007
64943W        W37368  13.599   8.703   0.467
64944W        W37369   5.950  36.151  11.116
64945W        W37370  13.151  30.665  14.989
64946W        W37371  16.204  40.443  14.430
64947W        W37372   7.874   1.595   2.820
64948W        W37373  36.446  10.409   2.840
64949W        W37374   1.333  10.122  11.446
64950W        W37375  35.007   6.454  14.806
64951W        W37376   5.244   5.480  12.029
64952W        W37377  16.288  17.212  10.740
64953W        W37378  32.824  22.165   0.253
64954W        W37379  29.155  38.973  12.995
64955W        W37380  17.706  35.656  11.709
64956W        W37381   7.179  19.994  11.150
64957W        W37382  38.860   1.315   2.884
64958W        W37383  36.045  19.787   0.867
64959W        W37384   6.748   6.332  14.763
64960W        W37385  39.505  35.057   1.856
64961W        W37386  29.037  44.695   4.319
64962W        W37387  24.067  28.577   2.188
64963W        W37388  12.913  19.904   0.269
64964W        W37389  15.702   4.851  10.582
64965W        W37390  29.544  36.892  10.910
64966W        W37391   6.277   3.833   2.389
64967W        W37392  12.314  39.730   3.673
64968W        W37393  20.181  17.307   3.147
64969W        W37394  16.071  28.016   2.155
64970W        W37395   9.816  11.453  13.929
64971W        W37396  12.604  44.796  14.737
64972W        W37397  38.348  20.723  13.050
64973W        W37398   8.600  38.457   4.130
64974W        W37399   7.363   3.969  13.037
64975W        W37400  36.234  42.038  12.906
64976W        W37401  24.118  23.484  12.104
64977W        W37402  16.089  23.878  11.955
64978W        W37403  38.213  25.415   3.627
64979W        W37404  34.995  27.595   0.430
64980W        W37405  42.920  32.956  12.454
64981W        W37406  10.623  25.941   3.289
64982W        W37407   2.025  17.126   1.868
64983W        W37408  41.530  22.112  10.509
64984W        W37409  43.918  11.175  11.124
64985W        W37410  21.049   8.722  11.649
64986W        W37411  23.680   9.346   3.585
64987W        W37412  41.820  36.295  11.019
64988W        W37413   6.690  13.381  14.051
64989W        W37414  43.891   3.430  12.509
64990W        W37415  14.174  34.575  14.369
64991W        W37416  10.164  27.478  14.393
64992W        W37417  23.421  34.957   2.355
64993W        W37418  33.553  19.183  11.459
64994W        W37419  41.506   3.976  14.020
64995W        W37420  39.529  16.342  13.455
64996W        W37421  14.716  21.713  14.272
64997W        W37422  26.105  32.573   1.518
64998W        W37423   5.302  12.624   3.171
64999W        W37424   3.775  25.517  11.474
65000W        W37425  29.975   9.581   3.822
65001W        W37426  15.258   8.236   3.640
65002W        W37427  32.295  30.617  14.824
65003W        W37428  33.951   4.409   0.356
65004W        W37429  21.161  14.689   4.058
65005W        W37430  21.672  31.001  10.944
65006W        W37431  25.021  43.887  11.195
65007W        W37432  21.069  12.928   2.684
65008W        W37433  15.537   7.829   0.955
65009W        W37434  42.001   2.966   0.242
65010W        W37435   2.062   1.028  13.938
65011W        W37436  35.614   7.658  10.540
65012W        W37437  38.369  28.338  10.776
65013W        W37438   9.452  11.244  10.425
65014W        W37439  38.444  19.468  12.521
65015W        W37440   0.598  32.580   1.743
65016W        W37441  25.949  34.340  14.511
65017W        W37442  44.428  29.604  12.941
65018W        W37443  22.129  15.005   5.013
65019W        W37444  15.334   5.355  13.847
65020W        W37445  31.641  41.540  12.839
65021W        W37446  38.619  41.438  11.726
65022W        W37447  23.666  35.355   1.436
65023W        W37448  37.959  11.065  10.466
65024W        W37449  25.156   9.630  11.568
65025W        W37450  26.421  24.071   0.841
65026W        W37451  21.677  18.692  10.727
65027W        W37452  26.518  23.238   3.979
65028W        W37453  17.527  37.464   4.779
65029W        W37454  36.691  10.676  12.525
65030W        W37455  38.817  22.946   0.427
65031W        W37456  21.278  22.833  12.646
65032W        W37457  22.097  22.350   0.506
65033W        W37458  40.991   1.347  14.568
65034W        W37459  17.093  39.330   4.525
65035W        W37460  20.278  36.382   2.675
65036W        W37461  25.260   5.368  12.045
65037W        W37462  44.230  37.944  13.316
65038W        W37463  31.098  40.979  14.790
65039W        W37464  13.867   0.939   0.308
65040W        W37465  10.956   5.934   2.722
65041W        W37466  24.232   7.499  13.475
65042W        W37467  33.875  27.972  13.937
65043W        W37468  40.269   6.235  10.003
65044W        W37469   2.414  10.191   3.052
65045W        W37470   0.836  11.304   0.484
65046W        W37471  39.076  44.534   3.722
65047W        W37472  18.631  15.429   1.201
65048W        W37473   6.196  30.962  10.906
65049W        W37474  29.955  22.497  11.147
65050W        W37475  33.562  25.456  14.700
65051W        W37476  34.618  41.755  14.833
65052W        W37477  10.348  44.277  10.536
65053W        W37478  34.090  42.005   3.928
65054W        W37479  14.183  13.098  12.532
65055W        W37480  27.619  38.408   3.176
65056W        W37481  42.805  20.733  12.982
65057W        W37482  31.341  32.405  11.173
65058W        W37483   6.675  15.116  12.543
65059W        W37484   5.719  23.576  11.122
65060W        W37485   0.452  43.740  10.387
65061W        W37486  44.994  39.917  14.735
65062W        W37487   6.693  14.620  12.356
65063W        W37488  30.505   5.825   4.050
65064W        W37489  39.057  16.183  13.310
65065W        W37490   9.763  20.066  13.467
65066W        W37491   1.721  32.021  12.101
65067W        W37492  20.511   6.453   3.160
65068W        W37493  25.767  36.210  14.307
65069W        W37494  36.064  20.222   4.778
65070W        W37495  19.189  40.033  14.454
65071W        W37496  12.337  19.734   1.248
65072W        W37497  11.268  15.083  14.925
65073W        W37498   7.346  15.770   2.423
65074W        W37499  10.039  38.351   0.883
65075W        W37500  40.886  36.779  12.580
65076W        W37501  19.224  21.294   3.174
65077W        W37502  39.834   9.712   0.392
65078W        W37503  27.580  14.683  11.411
65079W        W37504   9.966  31.190  13.587
65080W        W37505  13.097  30.741   0.497
65081W        W37506  44.346  16.046   3.115
65082W        W37507  18.764  33.317   3.642
65083W        W37508  17.367  31.668  12.413
65084W        W37509  11.164  23.961  11.203
65085W        W37510  35.010   7.149   4.029
65086W        W37511  24.993  39.632   4.683
65087W        W37512   0.407  39.763  12.581
65088W        W37513  12.950  21.503   5.173
65089W        W37514  23.719   8.716   4.568
65090W        W37515  26.969  38.978   4.563
65091W        W37516  29.693   1.050   3.355
65092W        W37517  16.779   2.806  13.361
65093W        W37518  36.533  18.798  11.684
65094W        W37519  14.192  30.017   3.962
65095W        W37520  17.618  29.848  11.920
65096W        W37521  20.800  27.101  13.240
65097W        W37522  24.975  40.878   4.201
65098W        W37523  13.354  22.631   1.376
65099W        W37524  34.213  19.633  13.248
65100W        W37525   8.365  15.308  12.034
65101W        W37526  18.489  40.913   0.402
65102W        W37527  30.679  13.813  14.979
65103W        W37528  21.808  26.118  12.359
65104W        W37529  40.430  39.872   2.840
65105W        W37530   0.478  35.505   4.267
65106W        W37531  28.425  43.286   0.019
65107W        W37532  20.461  33.895   3.351
65108W        W37533   8.747  26.054   3.338
65109W        W37534  23.247  38.228  13.054
65110W        W37535  38.918  42.764  11.116
65111W        W37536   2.805  30.125  12.443
65112W        W37537   4.732   9.721  12.512
65113W        W37538  16.634  31.598   2.742
65114W        W37539   7.000  35.459  13.983
65115W        W37540  21.847  29.227   2.196
65116W        W37541  17.656   0.871   0.497
65117W        W37542  35.585   9.989  10.359
65118W        W37543  39.007   6.177   0.455
65119W        W37544   2.681   6.434  11.946
65120W        W37545  36.757  33.155  13.144
65121W        W37546  12.007   7.986   3.996
65122W        W37547  34.322  26.472  14.918
65123W        W37548  16.991  41.470  13.967
65124W        W37549  20.209  17.630  10.765
65125W        W37550  37.507  10.365  14.805
65126W        W37551  22.440   1.368   1.752
65127W        W37552  39.126  39.812  14.107
65128W        W37553  26.065   1.238  10.403
65129W        W37554  41.792  38.576   1.431
65130W        W37555   5.601  18.683   1.432
65131W        W37556  26.396  19.776  14.439
65132W        W37557  34.531  39.289   1.810
65133W        W37558   1.712   1.790  13.898
65134W        W37559  19.591   8.319   2.907
65135W        W37560  15.678  22.855  12.823
65136W        W37561  16.684  43.531  13.571
65137W        W37562   4.493  21.239   4.089
65138W        W37563   8.192  34.404   3.429
65139W        W37564  28.339  10.289   2.653
65140W        W37565  34.986  10.434   5.032
65141W        W37566  27.958  34.900   1.175
65142W        W37567  22.116  26.213  12.789
65143W        W37568  29.339  29.968   0.718
65144W        W37569   2.983   3.028   4.016
65145W        W37570   8.434  35.431  14.889
65146W        W37571  43.497  35.915   2.746
65147W        W37572  44.248  17.581  14.286
65148W        W37573  10.836  28.424   4.567
65149W        W37574  33.086   4.080   1.730
65150W        W37575  19.132   0.894  13.836
65151W        W37576  31.678  39.530   5.798
65152W        W37577  34.305   0.867   1.805
65153W        W37578  27.134  35.477  11.181
65154W        W37579  33.736  20.000  12.646
65155W        W37580  25.503   2.682  11.174
65156W        W37581  26.596  28.761   0.362
65157W        W37582   6.844  26.748   2.170
65158W        W37583  22.704  37.171  12.624
65159W        W37584   9.828   9.881   1.491
65160W        W37585  32.596  29.635   4.086
65161W        W37586  12.661  20.579  12.865
65162W        W37587  42.534  13.573  13.868
65163W        W37588  36.817  35.617   2.339
65164W        W37589  14.361  13.386  11.099
65165W        W37590  14.921  26.063   2.814
65166W        W37591  22.658  28.101   3.892
65167W        W37592  11.983   2.839   0.286
65168W        W37593  35.217  30.786   4.274
65169W        W37594  14.670  14.200   1.592
65170W        W37595  17.584  27.132   1.254
65171W        W37596  37.390  22.627   4.854
65172W        W37597  10.071  19.893   4.622
65173W        W37598  28.024  25.935   1.834
65174W        W37599  11.833  30.965   4.386
65175W        W37600  31.857  14.713   3.629
65176W        W37601  44.306   6.275   5.111
65177W        W37602  16.376   4.361   0.329
65178W        W37603   1.975  30.387  10.675
65179W        W37604  22.046  12.476  14.007
65180W        W37605   9.296  38.819   2.466
65181W        W37606   9.453  35.807  12.083
65182W        W37607   6.657   8.239  14.835
65183W        W37608   0.773  20.891   4.603
65184W        W37609  18.203   2.787   4.147
65185W        W37610  30.121   4.842  11.068
65186W        W37611  40.621  30.553  14.743
65187W        W37612  16.693  13.329  10.451
65188W        W37613  10.855  15.119  14.402
65189W        W37614  41.293  37.048  12.448
65190W        W37615  27.701  27.135  10.597
65191W        W37616  21.842  30.440   0.305
65192W        W37617   6.784  29.157   0.095
65193W        W37618  15.359  44.417  12.884
65194W        W37619  25.905  43.011   0.314
65195W        W37620  18.515  31.862   0.189
65196W        W37621  31.314   6.067   3.641
65197W        W37622  13.541  19.094  14.132
65198W        W37623  33.644  41.326   2.627
65199W        W37624  24.134  33.421  13.421
65200W        W37625  36.270  20.048   1.231
65201W        W37626   3.560  19.056  12.471
65202W        W37627   9.382  38.820  13.496
65203W        W37628  36.530  22.908  10.764
65204W        W37629  44.010  28.887   1.028
65205W        W37630  13.155   4.183   2.125
65206W        W37631  12.003  24.009   3.065
65207W        W37632   5.526  29.916   3.178
65208W        W37633  41.904  37.126  11.133
65209W        W37634  34.111   7.344  13.643
65210W        W37635  31.541   3.290   2.921
65211W        W37636   9.258  36.895   0.368
65212W        W37637  30.863   1.271   0.830
65213W        W37638  37.379  30.958  14.296
65214W        W37639  17.549  17.255   2.225
65215W        W37640  34.474  44.964  13.834
65216W        W37641  18.675   6.098  11.487
65217W        W37642  15.003   3.487   1.428
65218W        W37643  18.191  24.034   4.211
65219W        W37644  44.885  20.186  12.441
65220W        W37645  29.913  34.490   2.381
65221W        W37646   4.436  28.012   2.490
65222W        W37647  40.883  18.858  12.898
65223W        W37648  10.843  13.685   4.757
65224W        W37649  43.270  13.306  14.342
65225W        W37650  43.252  28.621  13.801
65226W        W37651   8.058  44.558  11.664
65227W        W37652  40.978  27.472   0.588
65228W        W37653  12.380  11.607   4.203
65229W        W37654  37.080  28.206  12.724
65230W        W37655  15.780   1.284  14.491
65231W        W37656   7.344  12.433   2.701
65232W        W37657  35.476   0.769  14.217
65233W        W37658   6.787  14.716   1.284
65234W        W37659  18.964  11.748  13.390
65235W        W37660  33.452  21.497  12.058
65236W        W37661   7.767  25.429   4.601
65237W        W37662  28.084  26.933  11.935
65238W        W37663  13.326  23.511  11.174
65239W        W37664  42.402   1.250   2.587
65240W        W37665   5.432   9.781   0.807
65241W        W37666   7.394  12.405  12.434
65242W        W37667  44.318  35.914  14.563
65243W        W37668  26.211  27.981  11.471
65244W        W37669   7.675  32.904   2.675
65245W        W37670  20.359  24.542  10.435
65246W        W37671   9.897  10.141  14.794
65247W        W37672  27.752  27.005   2.873
65248W        W37673   3.683  28.517   3.018
65249W        W37674  44.873  15.611  13.149
65250W        W37675  39.860  37.726  10.682
65251W        W37676  15.753   9.123  14.326
65252W        W37677  37.348  23.127  13.853
65253W        W37678  42.222  35.004   0.224
65254W        W37679  10.440   3.028  11.228
65255W        W37680   3.747  20.129   4.058
65256W        W37681   0.745  37.335   1.086
65257W        W37682  17.601  41.888   1.129
65258W        W37683  35.719  26.758  11.106
65259W        W37684  14.247  44.862   4.766
65260W        W37685   7.373   6.284   1.252
65261W        W37686   9.203  26.481   2.841
65262W        W37687  34.465  29.139   0.276
65263W        W37688   7.170  24.498   3.137
65264W        W37689  33.758  20.785   2.780
65265W        W37690  22.239   5.502   3.655
65266W        W37691  29.687  37.206   5.118
65267W        W37692   6.702  30.867   0.847
65268W        W37693  15.592  26.739   1.155
65269W        W37694  44.416  23.167   1.844
65270W        W37695   9.751  13.710  13.769
65271W        W37696  12.891   5.350   1.279
65272W        W37697   9.264  10.102  13.261
65273W        W37698  34.324  33.914  11.726
65274W        W37699   1.779   4.908  12.363
65275W        W37700  12.315  18.013   4.574
65276W        W37701  41.891  26.631  11.692
65277W        W37702   5.165  29.670   3.465
65278W        W37703  15.804  30.471   5.208
65279W        W37704   8.163  27.390   1.230
65280W        W37705   3.187  16.680  14.389
65281W        W37706  26.265  11.729  14.830
65282W        W37707  30.133   1.453  10.530
65283W        W37708   5.452  42.896   0.173
65284W        W37709  34.309  37.841  13.434
65285W        W37710  18.552   1.472   2.695
65286W        W37711   1.703  30.944  13.478
65287W        W37712  32.834  25.745  10.943
65288W        W37713   1.131  42.930  10.162
65289W        W37714  12.824  18.967  13.971
65290W        W37715  35.203  35.637  13.744
65291W        W37716  41.459  21.967  11.436
65292W        W37717  38.557  29.087   3.867
65293W        W37718  29.652  14.175   1.574
65294W        W37719  12.641  21.075  13.036
65295W        W37720  44.692  42.799   3.330
65296W        W37721  23.559   6.948   0.065
65297W        W37722  29.080   5.914   3.263
65298W        W37723   9.362  23.595   4.066
65299W        W37724   1.183  32.615   4.141
65300W        W37725   4.725  20.849   0.772
65301W        W37726  25.853  38.760  11.499
65302W        W37727  39.083   0.826   5.131
65303W        W37728  39.082  27.845   0.870
65304W        W37729  13.117   0.673  11.918
65305W        W37730  44.538  13.218  10.692
65306W        W37731   5.138  30.517  13.427
65307W        W37732  25.042  19.770  12.977
65308W        W37733   1.448  19.590  12.002
65309W        W37734  34.429  36.390  12.980
65310W        W37735   3.803   3.528  11.470
65311W        W37736  16.566  35.857  11.145
65312W        W37737   0.214  15.296  12.904
65313W        W37738  24.000  28.036   0.479
65314W        W37739   3.586  26.111   2.638
65315W        W37740  18.262  27.750   4.687
65316W        W37741  37.697  11.855  13.496
65317W        W37742  40.871  44.684  14.355
65318W        W37743  33.389   4.457   1.198
65319W        W37744  22.842  35.007  11.598
65320W        W37745  41.929  32.489  13.855
65321W        W37746  31.221   7.616  14.506
65322W        W37747  31.493  43.516  13.299
65323W        W37748  30.498  23.490  10.636
65324W        W37749  30.432  40.762   0.449
65325W        W37750  10.934   9.750  11.741
65326W        W37751  43.232  13.602  13.162
65327W        W37752  11.161  13.765   3.422
65328W        W37753  42.252  27.553  14.446
65329W        W37754  17.576  34.680   2.274
65330W        W37755  27.468  35.580  14.811
65331W        W37756   6.644  32.357   2.367
65332W        W37757  38.387  28.211   3.573
65333W        W37758  21.688  27.757  12.624
65334W        W37759  33.373  24.190  14.997
65335W        W37760  19.540  20.597   0.032
65336W        W37761   1.768  20.294  11.042
65337W        W37762  21.590   8.712  11.688
65338W        W37763  11.082  36.906   1.278
65339W        W37764   3.998  11.271   2.199
65340W        W37765  38.752   2.257   3.118
65341W        W37766  36.642  18.042  11.425
65342W        W37767   1.657  37.397  10.751
65343W        W37768  21.294   2.807   3.922
65344W        W37769  44.980  42.222   1.382
65345W        W37770   7.746  20.587  14.336
65346W        W37771  13.986   3.340   4.577
65347W        W37772  12.956  16.285   4.735
65348W        W37773   8.842  33.250  11.434
65349W        W37774  42.365  25.649   2.761
65350W        W37775  20.268  10.740  12.996
65351W        W37776   4.561  12.158  12.603
65352W        W37777  23.699  38.448  12.830
65353W        W37778  26.158  37.139  12.591
65354W        W37779  18.763   5.643   4.386
65355W        W37780  21.161  21.412  10.465
65356W        W37781  40.957  35.484  11.547
65357W        W37782   3.424   1.913  13.469
65358W        W37783   0.419   4.201   0.665
65359W        W37784  42.645  26.135   3.927
65360W        W37785   7.886  14.847  12.064
65361W        W37786  44.579   5.189   3.988
65362W        W37787  22.275  26.318  11.381
65363W        W37788  44.774   1.783   4.597
65364W        W37789  43.921   4.212   0.914
65365W        W37790   7.653   5.727  13.048
65366W        W37791  12.444  18.364  11.022
65367W        W37792  38.658  38.097  11.842
65368W        W37793   9.570  24.989  12.644
65369W        W37794   3.415  12.106   0.678
65370W        W37795  43.222  32.058   0.810
65371W        W37796  20.113  35.131   1.955
65372W        W37797   1.714   4.789  11.853
65373W        W37798  32.621  29.146   4.528
65374W        W37799  40.897  37.621  12.109
65375W        W37800  40.935  32.092  11.482
65376W        W37801  30.017  43.683  10.613
65377W        W37802  40.412  35.649  14.405
65378W        W37803  38.098  44.133   3.602
65379W        W37804  15.340  37.917   1.879
65380W        W37805  37.893   6.461  12.412
65381W        W37806  37.359  16.465  11.562
65382W        W37807  24.314  18.682  13.104
65383W        W37808  43.363  31.695  12.570
65384W        W37809  37.593  16.553  13.536
65385W        W37810  21.555  33.633   4.436
65386W        W37811  10.438  34.213  14.876
65387W        W37812  34.857  17.786  10.711
65388W        W37813  12.571   1.557  11.117
65389W        W37814  11.755  33.112   1.711
65390W        W37815  31.019  22.612  13.357
65391W        W37816  44.845  35.270  13.489
65392W        W37817   9.750  24.275   0.349
65393W        W37818  24.282   9.395  13.489
65394W        W37819   6.300   3.612   3.903
65395W        W37820  33.588   4.051  11.885
65396W        W37821  42.577  34.393   1.426
65397W        W37822  19.421  39.881   3.029
65398W        W37823  23.943   4.010   3.858
65399W        W37824  36.548   5.293  14.557
65400W        W37825  42.289   2.941   0.802
65401W        W37826  36.384   6.986  13.099
65402W        W37827  26.725   0.456   3.432
65403W        W37828  23.571  24.014   3.289
65404W        W37829   8.207  42.048   3.313
65405W        W37830  27.666   9.597  11.145
65406W        W37831   0.564  10.632   0.904
65407W        W37832  39.514  24.137   2.679
65408W        W37833  11.649  40.648  12.419
65409W        W37834  20.700  41.867   3.339
65410W        W37835  42.822  24.254  13.798
65411W        W37836  14.630  19.673   0.919
65412W        W37837  39.252  38.828  14.858
65413W        W37838  40.933  27.980  14.834
65414W        W37839   5.771  21.016   3.164
65415W        W37840  24.758   8.471   0.364
65416W        W37841   1.138  34.946  14.959
65417W        W37842  11.742  10.878   0.866
65418W        W37843  15.305  13.310  14.953
65419W        W37844  22.436  10.629  13.746
65420W        W37845  24.011   4.793   5.072
65421W        W37846  20.391   5.831  14.997
65422W        W37847  22.787  13.175  12.412
65423W        W37848  22.229   4.866  13.945
65424W        W37849  22.980  22.544  10.681
65425W        W37850  18.152  39.721   0.366
65426W        W37851  28.022  34.473  12.031
65427W        W37852  35.501  37.506  13.007
65428W        W37853  30.204   3.472   0.969
65429W        W37854  18.117   1.860   1.084
65430W        W37855  39.525  30.049   2.417
65431W        W37856  33.795  18.727   4.080
65432W        W37857  24.802  17.574   2.435
65433W        W37858   0.702  30.074  14.107
65434W        W37859  38.566  17.568   1.798
65435W        W37860  35.625  36.410  12.470
65436W        W37861  13.870  15.702   3.929
65437W        W37862  35.097   8.542  14.316
65438W        W37863  26.649  40.862   3.295
65439W        W37864   0.420  44.346  11.503
65440W        W37865   1.345  36.659   0.855
65441W        W37866   7.556  44.642  13.933
65442W        W37867  43.262  21.528   2.233
65443W        W37868  26.974  32.290   3.285
65444W        W37869  43.997   2.383  12.838
65445W        W37870   3.504  17.573  11.046
65446W        W37871   6.736  32.860  12.486
65447W        W37872  42.411   2.535   3.289
65448W        W37873  21.170  44.090   3.594
65449W        W37874  26.556   6.862   4.426
65450W        W37875   7.177  21.218   4.176
65451W        W37876  14.153   4.342   2.536
65452W        W37877  19.573   2.891   3.392
65453W        W37878  33.016  32.891  12.439
65454W        W37879  28.458  13.056   1.925
65455W        W37880  35.468  12.038   4.559
65456W        W37881  34.025   7.806  10.571
65457W        W37882  29.631   3.773  14.270
65458W        W37883  26.101  12.520  12.630
65459W        W37884  25.633  24.112  12.628
65460W        W37885  20.255  22.635   1.779
65461W        W37886   9.164  27.316   3.243
65462W        W37887  39.795   1.306  10.944
65463W        W37888  44.733  22.525  14.881
65464W        W37889  44.864  23.904  14.865
65465W        W37890  17.725  31.541  13.818
65466W        W37891  42.367  22.782   4.676
65467W        W37892  43.085  18.097   1.267
65468W        W37893  34.555  29.556   2.490
65469W        W37894  29.806  21.453  13.398
65470W        W37895  34.336  26.410  14.045
65471W        W37896   9.153   5.935   3.268
65472W        W37897  26.050  23.487   0.233
65473W        W37898  38.529  31.349   1.220
65474W        W37899  20.805  37.732   4.140
65475W        W37900  10.479  32.334   4.806
65476W        W37901  41.494  32.166  12.634
65477W        W37902  32.629  20.347  12.379
65478W        W37903   3.880   8.907   1.098
65479W        W37904  14.513  38.140  13.713
65480W        W37905  21.040  26.247   3.018
65481W        W37906  19.789  24.910  11.375
65482W        W37907  44.179  19.191  13.036
65483W        W37908  26.388  37.281  11.536
65484W        W37909  30.502  16.402  10.765
65485W        W37910  15.553   6.457   4.273
65486W        W37911   5.877  44.327   2.935
65487W        W37912  18.804   6.144   4.569
65488W        W37913  28.996  17.797   2.698
65489W        W37914   9.627  26.635   2.595
65490W        W37915  31.118   8.269  13.690
65491W        W37916  12.397  30.598   0.927
65492W        W37917  39.522  34.732  14.173
65493W        W37918  33.205   4.852   3.693
65494W        W37919   3.105  24.439   2.612
65495W        W37920  40.325  36.554  12.886
65496W        W37921  24.323   6.600  11.459
65497W        W37922  43.829  14.783   1.240
65498W        W37923  16.609  16.873   4.022
65499W        W37924  38.014  17.599   0.358
65500W        W37925  37.975  22.934  14.326
65501W        W37926  13.275  38.054   1.245
65502W        W37927   4.436  21.687   4.893
65503W        W37928  31.843  26.902   3.238
65504W        W37929   7.941  20.354  13.924
65505W        W37930  37.755  35.299  11.854
65506W        W37931  38.429  35.902   3.648
65507W        W37932  21.088  27.206   2.871
65508W        W37933  44.943  31.129  13.108
65509W        W37934  29.964  14.980   2.781
65510W        W37935  27.046  29.866   1.579
65511W        W37936  37.870   9.642  11.919
65512W        W37937  10.179  33.574   3.224
65513W        W37938  25.391  17.229  11.003
65514W        W37939  19.214  10.788  10.466
65515W        W37940  36.595  32.317   4.957
65516W        W37941   8.408  31.982   4.661
65517W        W37942  17.436  25.461  14.176
65518W        W37943  26.921  14.174  10.812
65519W        W37944  37.612  16.767   0.856
65520W        W37945  32.371  26.133   2.452
65521W        W37946  44.782   1.873   0.791
65522W        W37947  19.684  13.215  10.446
65523W        W37948  44.313   9.231  14.326
65524W        W37949   6.778  22.835  11.253
65525W        W37950   8.915   5.422  10.477
65526W        W37951  34.859  35.008  14.008
65527W        W37952  34.881  14.519  14.506
65528W        W37953  38.350  40.085   9.931
65529W        W37954  41.672  34.034  14.515
65530W        W37955  13.168  21.740  13.994
65531W        W37956   6.203  39.326   2.848
65532W        W37957  12.277  12.954   1.372
65533W        W37958   5.962   0.504  10.644
65534W        W37959  41.943  22.076   5.026
65535W        W37960  27.208  15.270   0.810
65536W        W37961  15.282  36.004  14.902
65537W        W37962  42.669  28.068  12.094
65538W        W37963  18.709  24.979   0.343
65539W        W37964   7.730  33.813  14.374
65540W        W37965   6.825  31.044   3.564
65541W        W37966  36.419  23.386  13.014
65542W        W37967   4.358  14.230  12.377
65543W        W37968   6.139  10.293  13.855
65544W        W37969  25.214   6.175  12.409
65545W        W37970   4.895  20.499   1.264
65546W        W37971  33.739  14.390  12.910
65547W        W37972  20.684  29.434   2.774
65548W        W37973  38.948  31.019   1.208
65549W        W37974  29.868  18.458   5.323
65550W        W37975   2.341  10.310   0.046
65551W        W37976  43.476  25.470   1.799
65552W        W37977   8.052  44.036   4.661
65553W        W37978  19.161   3.839  14.250
65554W        W37979  13.157  22.261   2.166
65555W        W37980  11.757  22.137   9.990
65556W        W37981   6.259   1.970  13.077
65557W        W37982  40.130   1.940  12.955
65558W        W37983   7.338  32.877  11.954
65559W        W37984  15.361   5.380  13.323
65560W        W37985  15.158  36.112  11.373
65561W        W37986   7.603  14.747  11.196
65562W        W37987  39.039   1.834   3.540
65563W        W37988  13.337   4.536  11.443
65564W        W37989   1.430  14.865  10.952
65565W        W37990   3.971   5.393  11.570
65566W        W37991  31.916  24.956   3.136
65567W        W37992  17.048  23.738   1.519
65568W        W37993  30.883  22.609   4.533
65569W        W37994   0.326  21.081   1.247
65570W        W37995  12.586   5.240   3.959
65571W        W37996  13.994  40.345   2.297
65572W        W37997  42.028  11.103   4.633
65573W        W37998  25.142  29.949   4.743
65574W        W37999  11.646  26.421  10.607
65575W        W38000   2.714  31.426   2.928
65576W        W38001  29.591  14.240  11.663
65577W        W38002  41.691   1.513   3.339
65578W        W38003  33.946  34.395  11.119
65579W        W38004  26.737  22.622   1.699
65580W        W38005  16.560  44.415  11.092
65581W        W38006   9.187  21.529   1.997
65582W        W38007  38.009  33.589  12.348
65583W        W38008   4.001  42.627  11.454
65584W        W38009   1.916  43.813   1.331
65585W        W38010  11.845   7.294  13.971
65586W        W38011  20.055  32.714   2.781
65587W        W38012   2.453   9.929  12.493
65588W        W38013  35.772  33.504  13.272
65589W        W38014  22.960  23.226  12.004
65590W        W38015  32.996  42.957  10.323
65591W        W38016   1.905  29.263  14.017
65592W        W38017  22.105  27.142   3.194
65593W        W38018  21.489   4.790   2.366
65594W        W38019   1.553  16.055  11.607
65595W        W38020  38.053  35.406   1.973
65596W        W38021  17.066   6.730   0.455
65597W        W38022  14.860  40.275   1.824
65598W        W38023  24.751  41.341   0.356
65599W        W38024  23.744  21.702  14.545
65600W        W38025  36.402  16.896   2.943
65601W        W38026  41.781  31.388  10.407
65602W        W38027  29.284  16.542   2.284
65603W        W38028  18.293  38.734   3.058
65604W        W38029   4.889  13.969   3.071
65605W        W38030  22.497  10.189   2.035
65606W        W38031  23.088  26.445  10.733
65607W        W38032  39.808  28.570   0.681
65608W        W38033  42.407   2.574  12.012
65609W        W38034  11.239  41.448   2.918
65610W        W38035  19.013  10.749  12.258
65611W        W38036  37.374  34.142   4.611
65612W        W38037  28.021   8.521  11.752
65613W        W38038  39.493  39.581  13.836
65614W        W38039  32.888  42.868   2.428
65615W        W38040  16.228  36.946  11.886
65616W        W38041  16.596  34.626  12.140
65617W        W38042   7.751  25.910  11.038
65618W        W38043  43.486   0.685  14.085
65619W        W38044  24.550  10.696   3.622
65620W        W38045  31.579  43.083   3.241
65621W        W38046  37.408  24.408  10.763
65622W        W38047   4.425  42.349  11.497
65623W        W38048  39.436  25.138   4.598
65624W        W38049   8.746  32.878  13.874
65625W        W38050   1.986  10.963  11.002
65626W        W38051  25.947  12.265   1.380
65627W        W38052   6.904  39.108  12.461
65628W        W38053  34.899   1.346   4.495
65629W        W38054  10.647  22.767   0.315
65630W        W38055  12.334   5.414   4.944
65631W        W38056  34.465  30.770   4.994
65632W        W38057  23.681  11.750   2.004
65633W        W38058  15.590  33.174  14.790
65634W        W38059  29.086  19.488   2.871
65635W        W38060  14.262  40.531  12.233
65636W        W38061  30.590   4.428   0.733
65637W        W38062  26.438  37.421   1.925
65638W        W38063   1.481  29.001   4.242
65639W        W38064  21.296   7.236  12.158
65640W        W38065  17.050  11.401   4.124
65641W        W38066   3.360  43.837   9.967
65642W        W38067   2.029   1.187  14.915
65643W        W38068  38.478  25.367  11.227
65644W        W38069  39.975  42.724  14.806
65645W        W38070   4.430  32.610  13.803
65646W        W38071  11.157  40.532   2.898
65647W        W38072  17.363   6.903  12.429
65648W        W38073  29.901  11.832  14.346
65649W        W38074  39.550  17.363   4.700
65650W        W38075   0.692  41.458   2.616
65651W        W38076  16.206  23.355  11.832
65652W        W38077  41.651   4.869  14.564
65653W        W38078   0.887  32.595   5.486
65654W        W38079   8.805  26.710   1.195
65655W        W38080  21.017  15.294   1.213
65656W        W38081  28.482   0.659  11.293
65657W        W38082  38.968  31.613   1.103
65658W        W38083  11.717  21.234  10.196
65659W        W38084  33.037  23.012  10.665
65660W        W38085  32.926  16.486   2.898
65661W        W38086  18.688  31.034   0.184
65662W        W38087  39.435  30.314   2.856
65663W        W38088  15.297  20.221   1.055
65664W        W38089   6.660  12.416  12.845
65665W        W38090  27.747  41.252  10.366
65666W        W38091  16.532  44.435  10.567
65667W        W38092  18.866  15.267   4.209
65668W        W38093  43.310  28.610  10.596
65669W        W38094  22.699  14.580   2.944
65670W        W38095   7.384  34.032   0.831
65671W        W38096  38.431  14.849   0.918
65672W        W38097  17.084  22.646  11.946
65673W        W38098  19.728  38.784  14.108
65674W        W38099  41.854  13.400  11.817
65675W        W38100  44.417  23.744   4.554
65676W        W38101   2.823  30.423   3.187
65677W        W38102   8.765  21.946   0.899
65678W        W38103   4.277  30.690  11.139
65679W        W38104  30.426   1.463  12.259
65680W        W38105  35.882  42.780   3.658
65681W        W38106  21.628   3.287  13.397
65682W        W38107   5.959  16.003  11.326
65683W        W38108  14.694   5.435   4.590
65684W        W38109   4.672  36.631   2.587
65685W        W38110  35.810  15.235   0.291
65686W        W38111  29.405  29.130   2.318
65687W        W38112  12.537   3.414   3.642
65688W        W38113   7.278  24.484  11.523
65689W        W38114  20.269  18.403  14.267
65690W        W38115  22.582  15.853  11.489
65691W        W38116  42.085  11.579   2.956
65692W        W38117  24.862  20.873   4.028
65693W        W38118  21.882  40.519   4.081
65694W        W38119  42.251  43.953   2.179
65695W        W38120  12.877   8.325  14.923
65696W        W38121   5.752  18.644   2.895
65697W        W38122  19.800   8.962   3.673
65698W        W38123  12.048   5.741  12.150
65699W        W38124   2.448  37.453  10.378
65700W        W38125   1.458  16.234  12.962
65701W        W38126  25.982  24.610   4.049
65702W        W38127   5.960  10.114  12.412
65703W        W38128  21.784  27.536  13.505
65704W        W38129  29.875  24.668   2.832
65705W        W38130  13.817  32.660   0.583
65706W        W38131  11.478  28.767   3.636
65707W        W38132  15.510  44.000   0.761
65708W        W38133  35.208  38.949  11.598
65709W        W38134  36.379  14.763   0.092
65710W        W38135  16.117  13.590   0.847
65711W        W38136  23.780  16.278  10.330
65712W        W38137   6.100  40.638  11.976
65713W        W38138  32.635  36.586   1.286
65714W        W38139  10.680  29.143  14.433
65715W        W38140   3.864   3.666   3.306
65716W        W38141  44.719  11.338  14.520
65717W        W38142  32.082   7.814  10.864
65718W        W38143  14.810  21.296   4.519
65719W        W38144  28.159  34.297  11.110
65720W        W38145  12.124  13.638   3.927
65721W        W38146  30.203  19.238  14.679
65722W        W38147  38.463  14.722  11.103
65723W        W38148   0.497  10.099   4.118
65724W        W38149  29.207  44.509   2.760
65725W        W38150  16.836  43.887  10.570
65726W        W38151   9.315   3.374   2.182
65727W        W38152  25.290  28.209  14.757
65728W        W38153  27.922   5.417   3.308
65729W        W38154  18.326  15.232  13.536
65730W        W38155   8.167  14.138   0.055
65731W        W38156   5.269  26.879   4.095
65732W        W38157  42.925  12.341   3.249
65733W        W38158  21.682   5.943  14.746
65734W        W38159   6.422  34.496   3.990
65735W        W38160  13.748  24.124   1.237
65736W        W38161  11.796  24.175   0.401
65737W        W38162  42.962  26.175   3.230
65738W        W38163  32.972  41.079   4.723
65739W        W38164  26.619   9.106   3.673
65740W        W38165   0.254  31.443   9.870
65741W        W38166  40.351  11.853  14.898
65742W        W38167  20.532  14.250  11.403
65743W        W38168  35.556  10.186  14.458
65744W        W38169   2.272  43.088   4.020
65745W        W38170  15.398  33.227   4.180
65746W        W38171   3.806  17.723  12.042
65747W        W38172  20.029   9.220  14.853
65748W        W38173  42.339   2.035   3.257
65749W        W38174  38.895  10.622  14.779
65750W        W38175  44.095   2.103   0.225
65751W        W38176  18.519   3.630  11.434
65752W        W38177  19.634  12.705   0.602
65753W        W38178  16.022  27.976   1.286
65754W        W38179  18.191  24.166  10.912
65755W        W38180  24.049  33.601   3.760
65756W        W38181  35.462  12.554   2.402
65757W        W38182  26.680  23.577  13.514
65758W        W38183  10.941  36.680   2.648
65759W        W38184  44.849  32.110   2.581
65760W        W38185  25.946  25.073  12.558
65761W        W38186  26.477  30.172   4.076
65762W        W38187  25.142  43.839  14.735
65763W        W38188  31.435  36.013  14.282
65764W        W38189  34.561   4.295   1.039
65765W        W38190  26.014  24.873   1.782
65766W        W38191   0.437  37.898  11.266
65767W        W38192  14.101  20.673   0.462
65768W        W38193  25.550  13.595   4.608
65769W        W38194  13.399  25.615   0.039
65770W        W38195  21.460  44.836   0.785
65771W        W38196  38.502  21.241  14.140
65772W        W38197  18.103  18.699   3.768
65773W        W38198  23.919  41.023  10.975
65774W        W38199  10.488   5.157  11.662
65775W        W38200  40.496   1.413   2.803
65776W        W38201  22.115  21.049   1.946
65777W        W38202  24.007  16.522  10.741
65778W        W38203  15.973  26.590  14.058
65779W        W38204  34.523  44.317  14.503
65780W        W38205  37.875  20.897  12.964
65781W        W38206  21.213  16.066  10.555
65782W        W38207  41.846  20.722  11.619
65783W        W38208  20.260   8.802  13.066
65784W        W38209  10.941   9.296   0.882
65785W        W38210   1.200  31.029  10.664
65786W        W38211   9.284  22.487   2.692
65787W        W38212   3.747  10.665   0.016
65788W        W38213  15.213   4.502  11.172
65789W        W38214  30.927  33.187  11.574
65790W        W38215  17.671  43.894   3.211
65791W        W38216  31.138  18.257  14.923
65792W        W38217  13.972  19.393  11.143
65793W        W38218  41.768   0.914   1.275
65794W        W38219  37.940   9.434   1.888
65795W        W38220   0.073  23.689  10.647
65796W        W38221  22.591  28.098   4.394
65797W        W38222  22.784  14.669   2.367
65798W        W38223  40.459  28.712   2.858
65799W        W38224  42.879   7.869   2.841
65800W        W38225   9.021  40.210  10.056
65801W        W38226  39.119  13.113   1.502
65802W        W38227  32.634  35.326  14.465
65803W        W38228  43.505  38.435  11.520
65804W        W38229  28.963  26.638   4.789
65805W        W38230  17.986  32.181   3.659
65806W        W38231  26.236  44.801  11.821
65807W        W38232   4.332  14.194  11.036
65808W        W38233  12.230  18.691   0.687
65809W        W38234   6.728   4.303   0.744
65810W        W38235  12.706   5.049  10.985
65811W        W38236  24.097  14.124  13.545
65812W        W38237  41.022  26.127   3.299
65813W        W38238  27.147  34.759  14.934
65814W        W38239  26.238   1.042  12.955
65815W        W38240  44.207   1.201   0.340
65816W        W38241  17.110  28.489  14.832
65817W        W38242  42.541  18.102  14.453
65818W        W38243  26.243  25.831   4.174
65819W        W38244  17.189   2.089   3.739
65820W        W38245  34.041  12.070  12.320
65821W        W38246  17.894   0.514  14.433
65822W        W38247  37.107  19.769   4.160
65823W        W38248  12.790  43.043  10.762
65824W        W38249   8.125   2.757   4.507
65825W        W38250   4.732  25.928   3.379
65826W        W38251  23.903  40.369   3.198
65827W        W38252  12.259  44.852  11.624
65828W        W38253  32.529  13.345   1.926
65829W        W38254   4.748  12.903  12.102
65830W        W38255  14.769  35.752  13.701
65831W        W38256  33.174  29.809  14.429
65832W        W38257  14.550  30.067  13.797
65833W        W38258  23.571  38.410   4.798
65834W        W38259  13.170  36.882   1.335
65835W        W38260   9.366  15.233  13.316
65836W        W38261   9.725  37.131  14.102
65837W        W38262  40.272   9.721  13.917
65838W        W38263   2.753  43.307   0.446
65839W        W38264  38.347  32.576   4.077
65840W        W38265  44.712  38.952  10.385
65841W        W38266  11.254  35.259  11.502
65842W        W38267  17.348   3.185  13.877
65843W        W38268  24.744   8.217   1.185
65844W        W38269  15.832  19.277   2.098
65845W        W38270  27.021  11.867   0.642
65846W        W38271  25.616  22.309  12.548
65847W        W38272  36.818   8.788  11.028
65848W        W38273   7.506   0.551  12.165
65849W        W38274   3.889   6.157   1.255
65850W        W38275   1.957   9.780  12.446
65851W        W38276  20.489   4.164  13.562
65852W        W38277  25.488  39.308   3.095
65853W        W38278  19.686   2.027  11.668
65854W        W38279  44.861  41.964   2.660
65855W        W38280  38.872  38.980  14.211
65856W        W38281  29.174  31.507   1.577
65857W        W38282  20.772   2.825   0.182
65858W        W38283  31.153  25.574  14.762
65859W        W38284  29.109  32.578  14.084
65860W        W38285  21.248  41.976  11.600
65861W        W38286  11.363  21.330   0.871
65862W        W38287  28.405  23.635   4.751
65863W        W38288   8.902  41.357   4.693
65864W        W38289  11.836  18.084   2.269
65865W        W38290  35.633   6.843  11.501
65866W        W38291   0.265  38.605  14.997
65867W        W38292  35.632   7.883  13.570
65868W        W38293   5.492   6.941  12.865
65869W        W38294  30.125  37.944  12.413
65870W        W38295  40.922  30.118   4.140
65871W        W38296  28.473  22.966  13.393
65872W        W38297   1.922  25.725  14.497
65873W        W38298  19.864  35.062   4.100
65874W        W38299   1.863  23.036   3.862
65875W        W38300  40.877  23.382   3.704
65876W        W38301  38.897  28.989   3.142
65877W        W38302  37.030  17.761   2.919
65878W        W38303   8.198   2.327  11.160
65879W        W38304  29.211   0.325  11.988
65880W        W38305  22.039   6.738  13.048
65881W        W38306  24.568   6.230  10.756
65882W        W38307  42.238  21.221  14.074
65883W        W38308  10.410  23.936   1.780
65884W        W38309  29.495  16.051  14.320
65885W        W38310  16.117  29.636   1.977
65886W        W38311   8.468  35.287  13.378
65887W        W38312  16.239   0.453  11.549
65888W        W38313  23.516   1.153   0.459
65889W        W38314  41.431  14.331   0.439
65890W        W38315  24.986   1.684  14.839
65891W        W38316  37.415  23.183   2.801
65892W        W38317  41.883  37.306   0.434
65893W        W38318   4.249  33.729  11.845
65894W        W38319  17.837  44.875  12.199
65895W        W38320  34.822  37.990  13.513
65896W        W38321  12.644   3.196   1.335
65897W        W38322   8.361   2.895   0.639
65898W        W38323   3.322  40.267  14.787
65899W        W38324  33.879  32.604  12.910
65900W        W38325  29.430   8.934  10.654
65901W        W38326   7.940   3.198  10.128
65902W        W38327  17.728   2.423   2.894
65903W        W38328   0.327  29.151   0.002
65904W        W38329  15.155  42.493  12.099
65905W        W38330  22.769  11.313  12.547
65906W        W38331  29.863  29.626  10.633
65907W        W38332  12.746  18.779   4.778
65908W        W38333  31.961  34.569  12.577
65909W        W38334  22.238  35.377   4.237
65910W        W38335   1.320  14.424   2.943
65911W        W38336  16.837  28.044   1.701
65912W        W38337  33.244  22.589   1.539
65913W        W38338  10.652   7.895   0.693
65914W        W38339  31.078   2.076  13.650
65915W        W38340  35.362  44.376  10.433
65916W        W38341  27.656  35.992  12.119
65917W        W38342  27.736  25.900   3.693
65918W        W38343  27.876  16.703   4.469
65919W        W38344  12.881  13.861  10.141
65920W        W38345  37.706  10.575   0.343
65921W        W38346  40.061  27.442  11.940
65922W        W38347   3.285  36.998   2.555
65923W        W38348  20.697  23.268  13.542
65924W        W38349  30.589  37.654   4.975
65925W        W38350  29.906  29.084   4.147
65926W        W38351  25.903  31.103  14.757
65927W        W38352  17.615   5.688  12.914
65928W        W38353  13.702  18.408   0.952
65929W        W38354  29.015   8.791   0.052
65930W        W38355  20.691  37.839   0.652
65931W        W38356  43.476   4.190  10.995
65932W        W38357  14.268  44.881  12.498
65933W        W38358   4.764  24.455  12.561
65934W        W38359  10.053  33.055  12.055
65935W        W38360  14.785  43.402   1.837
65936W        W38361   1.308  42.522   4.081
65937W        W38362  24.299  43.720  12.578
65938W        W38363   5.150  34.374   0.312
65939W        W38364  16.104  20.187   4.853
65940W        W38365  20.118   3.287  11.604
65941W        W38366  21.042  34.536   4.532
65942W        W38367  28.178  37.479   2.620
65943W        W38368  21.239  30.939   1.355
65944W        W38369  26.761  11.368  12.132
65945W        W38370  23.481  36.013  14.882
65946W        W38371  22.235   5.362  12.958
65947W        W38372  30.386   7.961  12.145
65948W        W38373  31.936  21.672  12.479
65949W        W38374   7.662  23.879   1.787
65950W        W38375  32.913  37.968   2.749
65951W        W38376  34.108  20.359   4.496
65952W        W38377  35.796  18.172  13.584
65953W        W38378  29.867  21.657   2.293
65954W        W38379  35.437  34.089  11.899
65955W        W38380  29.543  38.076  10.256
65956W        W38381   9.469   5.258  11.672
65957W        W38382   7.311  21.324   3.196
65958W        W38383  12.424  24.226   9.706
65959W        W38384  18.366   6.857   2.429
65960W        W38385  13.254  19.896   1.231
65961W        W38386   2.860  44.172  12.644
65962W        W38387   2.190  19.684  11.530
65963W        W38388  44.510   8.297  10.298
65964W        W38389  39.525  33.886   0.949
65965W        W38390  31.489   3.734   5.129
65966W        W38391  38.898  22.132   1.233
65967W        W38392  26.873  21.580   4.116
65968W        W38393  41.074  24.620  14.860
65969W        W38394  14.041   3.469   3.707
65970W        W38395  32.113  20.964  11.098
65971W        W38396  23.814   4.322   1.194
65972W        W38397  27.023   7.191  12.345
65973W        W38398   9.773  41.474   3.088
65974W        W38399  10.950  32.196  11.587
65975W        W38400  20.684  39.451   4.692
65976W        W38401  12.572  34.914  14.927
65977W        W38402  39.543  39.791   0.052
65978W        W38403  22.927  44.802   3.802
65979W        W38404  13.698  36.296  10.334
65980W        W38405  11.738   4.932   0.990
65981W        W38406  11.665  15.760   0.953
65982W        W38407  34.864  38.369   3.615
65983W        W38408  35.865   0.061   4.081
65984W        W38409  28.875   4.748   0.918
65985W        W38410  11.125   2.343   0.388
65986W        W38411   9.789  39.340  14.415
65987W        W38412  33.815   9.441  11.928
65988W        W38413  37.545  42.607  13.319
65989W        W38414  14.546  16.825  12.018
65990W        W38415  22.811  44.997  12.917
65991W        W38416  34.605   4.497   3.049
65992W        W38417  39.293  23.485  12.894
65993W        W38418   5.030  35.727   1.225
65994W        W38419  31.060   7.127  13.070
65995W        W38420  24.181  10.727  13.787
65996W        W38421  32.392  35.876   2.287
65997W        W38422  27.104  26.371   0.043
65998W        W38423  33.142   4.371   2.150
65999W        W38424   9.629  23.953  14.892
66000W        W38425  27.250   8.899  11.677
66001W        W38426  42.928  15.673   1.910
66002W        W38427  21.228  25.681   3.698
66003W        W38428   5.304  30.756  11.179
66004W        W38429  11.338   7.770   0.296
66005W        W38430   3.440   6.720  11.695
66006W        W38431  11.046  18.045   4.192
66007W        W38432  34.124  12.276  12.776
66008W        W38433  19.165  28.405   0.966
66009W        W38434  31.992  12.108   4.636
66010W        W38435  43.841  24.986  10.690
66011W        W38436  13.654  19.181   1.546
66012W        W38437  24.950  36.007   3.227
66013W        W38438  39.065  21.167   3.576
66014W        W38439  22.843   5.293  13.859
66015W        W38440  13.136  41.480   2.215
66016W        W38441  16.048   6.948  13.703
66017W        W38442   0.986  41.909  13.814
66018W        W38443  12.096  19.746  12.091
66019W        W38444   3.728  28.523  14.966
66020W        W38445  42.610  43.109   5.111
66021W        W38446  32.268  24.303  12.807
66022W        W38447  21.648  37.454   0.744
66023W        W38448  30.703   1.993  10.964
66024W        W38449  15.626  14.717  12.363
66025W        W38450  16.135   7.185   4.010
66026W        W38451  22.275  13.193   4.120
66027W        W38452  34.570  28.426   2.444
66028W        W38453  23.483   2.166   2.102
66029W        W38454  32.092  24.918  13.807
66030W        W38455   0.149  19.785  10.691
66031W        W38456  43.954  24.228  11.592
66032W        W38457  36.727  41.555   4.685
66033W        W38458  13.796  18.209  12.982
66034W        W38459  15.179  24.022   0.834
66035W        W38460  41.570   8.305   2.810
66036W        W38461  24.066  25.891   1.386
66037W        W38462   5.969  15.513   3.847
66038W        W38463  26.650  39.843   3.346
66039W        W38464  31.551  13.929  12.919
66040W        W38465  41.492  22.460  14.102
66041W        W38466  33.851   9.247  10.561
66042W        W38467  21.973   2.258   1.645
66043W        W38468  33.185  24.453   3.629
66044W        W38469  24.913   8.459   2.432
66045W        W38470  16.593   4.629   2.603
66046W        W38471   4.463  37.035  14.433
66047W        W38472  28.244  41.559   1.326
66048W        W38473  20.219  32.169  14.337
66049W        W38474   8.277  31.380   0.464
66050W        W38475  32.255   8.017  13.479
66051W        W38476   5.696  20.760   4.857
66052W        W38477  12.605  36.459   3.137
66053W        W38478   7.058  24.213  13.823
66054W        W38479  23.841  11.944   5.480
66055W        W38480  17.107   9.877   4.010
66056W        W38481  14.022  16.682   1.178
66057W        W38482  29.213  25.142   3.186
66058W        W38483  26.074  35.414  12.247
66059W        W38484  13.124  30.072  13.506
66060W        W38485  30.840   9.756   3.532
66061W        W38486  22.253  40.763   3.758
66062W        W38487   1.911   1.650   3.366
66063W        W38488  30.935  15.862   3.561
66064W        W38489  18.338  38.822  11.986
66065W        W38490  26.171  37.866   1.795
66066W        W38491  40.984  21.004  11.985
66067W        W38492   0.258  16.808  12.486
66068W        W38493  30.945   6.676  10.728
66069W        W38494  34.303  20.767  12.352
66070W        W38495  21.051   6.299  12.590
66071W        W38496  35.795  29.916  10.347
66072W        W38497  41.459  37.935  10.417
66073W        W38498  36.023   7.220   2.427
66074W        W38499   4.251  19.343   4.575
66075W        W38500  18.857  36.820  11.423
66076W        W38501  15.764   6.389  14.387
66077W        W38502  21.793   9.579  11.017
66078W        W38503  38.302  41.380   3.697
66079W        W38504  32.856   4.814  14.373
66080W        W38505  30.609   4.311   3.533
66081W        W38506  21.595  17.240   3.593
66082W        W38507  24.275  33.537  10.619
66083W        W38508  19.987  37.426   2.419
66084W        W38509  31.966   5.472  11.989
66085W        W38510   5.932  29.954   1.242
66086W        W38511   4.841   8.283   1.761
66087W        W38512  36.536  38.617  10.562
66088W        W38513   3.751   2.638   3.411
66089W        W38514  37.863  38.473  11.961
66090W        W38515  30.577  29.665  11.934
66091W        W38516  40.694  40.965  14.863
66092W        W38517  39.314  43.772  11.874
66093W        W38518  37.951   3.898   0.362
66094W        W38519  20.937   9.884  14.944
66095W        W38520  39.297   8.844  13.883
66096W        W38521  34.214  15.877   3.309
66097W        W38522  35.077  42.734   2.424
66098W        W38523  11.162   2.284  14.410
66099W        W38524  39.608  28.496  11.428
66100W        W38525   2.824  16.611   4.393
66101W        W38526  29.684  29.128  13.524
66102W        W38527  29.996  44.316  14.565
66103W        W38528  21.750  25.111   2.255
66104W        W38529  21.522  26.955   3.713
66105W        W38530  15.769  37.913   0.497
66106W        W38531  21.483  16.771   2.768
66107W        W38532  27.016  31.165  12.452
66108W        W38533  39.050  31.106   2.333
66109W        W38534  35.828  10.845  13.114
66110W        W38535  36.019  24.435  12.550
66111W        W38536  22.327  39.946   2.395
66112W        W38537  24.577   7.686   0.750
66113W        W38538  15.376  15.344   4.224
66114W        W38539  10.826  33.019  14.688
66115W        W38540  28.344  36.918   4.684
66116W        W38541  36.807  22.425   4.137
66117W        W38542  15.618  21.278  10.693
66118W        W38543  39.063   5.228   4.548
66119W        W38544  39.398  15.166   3.700
66120W        W38545  44.282  24.193  10.942
66121W        W38546  30.862  26.615   0.502
66122W        W38547  24.013  14.594  13.751
66123W        W38548   4.680   5.171   0.302
66124W        W38549  31.464  23.564  12.718
66125W        W38550   3.263  15.594  13.765
66126W        W38551  28.615  17.325  12.354
66127W        W38552  19.985  42.879  12.662
66128W        W38553  40.090  12.591  14.166
66129W        W38554  16.545  29.872   3.815
66130W        W38555  25.984  24.870  11.137
66131W        W38556   9.285  16.134   1.864
66132W        W38557  43.944   1.495   0.769
66133W        W38558   3.716  31.744  10.734
66134W        W38559   8.132  20.441   2.878
66135W        W38560  22.108  10.238   3.765
66136W        W38561  26.993  23.258   3.759
66137W        W38562  34.953  18.023  11.168
66138W        W38563  11.147  33.268  14.363
66139W        W38564  28.901  26.549   0.368
66140W        W38565  42.401  34.070  12.742
66141W        W38566  35.785  13.912  11.726
66142W        W38567  20.645  17.871   2.894
66143W        W38568   8.070  37.557   4.627
66144W        W38569  24.221   3.905   4.751
66145W        W38570  39.843   9.643  10.694
66146W        W38571  39.980  33.334  13.183
66147W        W38572  22.921  11.789  12.700
66148W        W38573  22.008   2.431   0.640
66149W        W38574  37.772  40.918  12.069
66150W        W38575   9.405   8.934   3.873
66151W        W38576  25.974   6.358   0.505
66152W        W38577  30.084  41.246   1.328
66153W        W38578  11.632  41.016  14.742
66154W        W38579  35.393  34.012  14.363
66155W        W38580  18.039  11.294   2.312
66156W        W38581  36.283   5.458  11.091
66157W        W38582   4.927  18.746  10.750
66158W        W38583  42.651  11.073   4.574
66159W        W38584  37.090  10.497  12.869
66160W        W38585  16.347  12.375  11.619
66161W        W38586  42.070  25.967   3.727
66162W        W38587  22.249   3.179  11.456
66163W        W38588   6.251  34.480   2.643
66164W        W38589  42.867   6.483   1.294
66165W        W38590  32.862  40.069  12.892
66166W        W38591  10.635  16.831  13.875
66167W        W38592  24.657   7.701   3.796
66168W        W38593  44.721  28.246   1.870
66169W        W38594   4.782   0.882  14.423
66170W        W38595  38.838  26.893   1.759
66171W        W38596  30.952  42.244   1.448
66172W        W38597  24.676   0.667  14.765
66173W        W38598  41.346  18.020  12.977
66174W        W38599  15.183  31.644  13.398
66175W        W38600   2.704  28.756   0.382
66176W        W38601  11.872  29.909  12.404
66177W        W38602   1.827  43.344   0.399
66178W        W38603   1.557   2.709  12.625
66179W        W38604  37.888  32.504   2.362
66180W        W38605  31.036  32.416   2.627
66181W        W38606  26.970  35.342   1.756
66182W        W38607  22.995  24.191   3.289
66183W        W38608   8.193  34.265   3.919
66184W        W38609  19.695  38.115   4.139
66185W        W38610  33.206  39.527   1.311
66186W        W38611  37.832   8.687   2.320
66187W        W38612  42.473  31.500   1.046
66188W        W38613   9.594  17.678   0.475
66189W        W38614  27.546   9.788   2.707
66190W        W38615  32.249  33.642  14.625
66191W        W38616  15.245  31.969  11.947
66192W        W38617  44.140   2.309   5.058
66193W        W38618   5.836   4.218   0.823
66194W        W38619   0.711   6.394   3.324
66195W        W38620  44.272  40.325   2.157
66196W        W38621  13.088  31.105  14.728
66197W        W38622  44.887  13.392   4.633
66198W        W38623  15.481  19.060   1.119
66199W        W38624  44.714  19.164   0.422
66200W        W38625  28.721  16.873  13.395
66201W        W38626  26.233  14.320  13.991
66202W        W38627  40.200  39.895  11.706
66203W        W38628   1.366   9.671   4.429
66204W        W38629   9.909   0.863  12.152
66205W        W38630  10.889  23.625   9.643
66206W        W38631  15.082  12.766   4.947
66207W        W38632  17.725  44.820   3.139
66208W        W38633  38.271  29.494  13.234
66209W        W38634  18.833   1.662   4.598
66210W        W38635  33.461  13.197  11.026
66211W        W38636   2.411  39.185   2.310
66212W        W38637   5.857  43.765   3.674
66213W        W38638   0.298   7.182  12.163
66214W        W38639   1.698  26.369   2.399
66215W        W38640  35.797   5.907   3.707
66216W        W38641  22.559  36.521  11.586
66217W        W38642  13.235  13.610   2.199
66218W        W38643   7.907   2.925  12.989
66219W        W38644  29.591   4.840   2.869
66220W        W38645  16.009  43.961   0.900
66221W        W38646  18.738  23.568   0.690
66222W        W38647  23.538  22.272   3.685
66223W        W38648  40.485   3.584  14.807
66224W        W38649  32.184  12.680  11.043
66225W        W38650  21.560  33.383  12.435
66226W        W38651  41.709  42.893  14.730
66227W        W38652  13.724  28.463   1.275
66228W        W38653  39.421  30.702   1.517
66229W        W38654   9.619  31.994   1.333
66230W        W38655  28.644   4.422   3.118
66231W        W38656  15.589   2.231   3.348
66232W        W38657  15.822  15.512   3.174
66233W        W38658  10.091  16.877  14.582
66234W        W38659  27.045  17.638  10.709
66235W        W38660  23.586   9.346   1.235
66236W        W38661  19.235   2.693   2.272
66237W        W38662  22.382  10.169  10.169
66238W        W38663   5.271  41.861  12.403
66239W        W38664   2.139  40.416  11.149
66240W        W38665  43.793  21.533   2.336
66241W        W38666   1.121   2.312  12.787
66242W        W38667  21.588  28.087  13.396
66243W        W38668  38.326   3.790  12.863
66244W        W38669  38.209   0.425   1.768
66245W        W38670   8.583   1.306  13.418
66246W        W38671   8.567  17.084   2.576
66247W        W38672  25.595  44.588  12.463
66248W        W38673  15.337   7.492   0.048
66249W        W38674   2.408   4.895   4.113
66250W        W38675   0.203  41.783  14.809
66251W        W38676   4.472   3.711   4.732
66252W        W38677   0.258  41.563   4.266
66253W        W38678  11.871  36.142   0.253
66254W        W38679   1.774  42.701  14.820
66255W        W38680   5.027  10.843   4.181
66256W        W38681  19.662  41.338  12.895
66257W        W38682   8.134  10.109  10.655
66258W        W38683  40.827  11.234  14.735
66259W        W38684  31.819   6.885   3.290
66260W        W38685  19.666  35.314   1.770
66261W        W38686  44.450  22.686  13.589
66262W        W38687   4.606   0.421   1.344
66263W        W38688  31.132  20.484   0.891
66264W        W38689   2.384   2.942  13.001
66265W        W38690  25.980  44.882   3.667
66266W        W38691  20.521  25.047   0.945
66267W        W38692   7.443   9.128  14.364
66268W        W38693  27.679   8.321  12.453
66269W        W38694  16.833   7.248  13.176
66270W        W38695  13.603  11.404   1.928
66271W        W38696  10.340  37.306  14.517
66272W        W38697  21.832  18.034   4.871
66273W        W38698   2.355  26.941   2.798
66274W        W38699  17.008   2.885  12.900
66275W        W38700  19.178  28.046   3.202
66276W        W38701  27.557  34.337  10.782
66277W        W38702  13.741   9.983   0.956
66278W        W38703  38.554  14.233   3.247
66279W        W38704  22.037  27.575  13.968
66280W        W38705  42.908  27.678  14.430
66281W        W38706  20.259   8.348   1.005
66282W        W38707   4.763   9.657  10.183
66283W        W38708  30.083  10.889   0.251
66284W        W38709  16.517  38.546  11.825
66285W        W38710  25.708  18.606  12.037
66286W        W38711   3.760  21.242  13.806
66287W        W38712  10.144  22.278  11.056
66288W        W38713  23.079  28.670  14.621
66289W        W38714  29.848  34.760   4.522
66290W        W38715  12.806   8.264  10.664
66291W        W38716  41.800  19.985   3.821
66292W        W38717  14.528  33.639   3.536
66293W        W38718  26.054  22.459  11.832
66294W        W38719   4.704  43.206   2.781
66295W        W38720  33.482  39.070   4.875
66296W        W38721  19.822  23.084   2.454
66297W        W38722  24.432   0.850   2.728
66298W        W38723  13.292  22.069   5.020
66299W        W38724  26.753  40.750  10.660
66300W        W38725  41.511  12.391   5.060
66301W        W38726   8.924  10.925   2.529
66302W        W38727  25.704  44.086  11.601
66303W        W38728  17.856  19.586   3.394
66304W        W38729  32.713  23.170   2.049
66305W        W38730  32.373  23.452   3.331
66306W        W38731  17.025  39.968  13.291
66307W        W38732  43.403   1.925  11.555
66308W        W38733  28.164  14.280   3.338
66309W        W38734  38.830   8.922   2.017
66310W        W38735  36.830   1.263  11.975
66311W        W38736  22.563  21.988   1.198
66312W        W38737  37.810   0.937  14.655
66313W        W38738  30.184  24.189  10.146
66314W        W38739  31.163  25.645  12.453
66315W        W38740  14.817  38.960  10.643
66316W        W38741  43.005  30.309   0.909
66317W        W38742   2.329  30.833   0.844
66318W        W38743  40.400  17.987   1.392
66319W        W38744  25.647  26.800  13.309
66320W        W38745  42.891  24.115   1.795
66321W        W38746  23.016  10.180  12.997
66322W        W38747  17.555  31.478   4.629
66323W        W38748  12.169  18.344   3.577
66324W        W38749  40.480  22.941   2.207
66325W        W38750   2.271   5.713  12.526
66326W        W38751  18.607  23.557   3.546
66327W        W38752  41.533   7.140  13.025
66328W        W38753  13.637  24.903  10.913
66329W        W38754   8.410  33.179  14.095
66330W        W38755  36.869   6.517   9.844
66331W        W38756  14.252  25.429   2.267
66332W        W38757  39.273  12.348  14.511
66333W        W38758  32.406   0.157  14.414
66334W        W38759  14.133   2.885   3.145
66335W        W38760   2.543   5.966  10.831
66336W        W38761   1.691  27.636   4.074
66337W        W38762   8.647  31.064   0.273
66338W        W38763   4.307  27.612   0.656
66339W        W38764  42.573  15.346   4.073
66340W        W38765  33.583   8.373   3.578
66341W        W38766  28.223   7.750  14.548
66342W        W38767  22.066  30.827  12.848
66343W        W38768  27.092  37.242   3.731
66344W        W38769  12.506  36.087  14.497
66345W        W38770  23.199  15.037   2.280
66346W        W38771  15.383  35.969  10.409
66347W        W38772  27.886  44.544   1.145
66348W        W38773  44.411  23.324   3.332
66349W        W38774  15.634   5.944   2.724
66350W        W38775  42.504  16.579   0.584
66351W        W38776  40.687  15.815  10.683
66352W        W38777   3.929  40.084  10.456
66353W        W38778  14.934  19.093  11.977
66354W        W38779  12.113   4.386  11.843
66355W        W38780  27.870  43.890   2.440
66356W        W38781  28.813  26.710  11.471
66357W        W38782  42.538  13.101   4.114
66358W        W38783  34.454  12.673   4.461
66359W        W38784  23.714  10.774  13.556
66360W        W38785  25.162  14.110   0.788
66361W        W38786  21.611  42.862  14.534
66362W        W38787   4.885   2.379   1.297
66363W        W38788  18.826  31.925  14.220
66364W        W38789  43.257  21.781   0.765
66365W        W38790  38.416   4.174  14.388
66366W        W38791   6.509  16.331  12.834
66367W        W38792  40.356   9.577   4.132
66368W        W38793  43.957  41.010  13.592
66369W        W38794  33.609   0.145   2.720
66370W        W38795  23.988   4.896  12.090
66371W        W38796  33.150  23.565  13.344
66372W        W38797  18.710   9.726   0.039
66373W        W38798  18.782  44.613  10.179
66374W        W38799  17.255  37.895   4.645
66375W        W38800  31.404  12.262  14.293
66376W        W38801  12.438  27.163   4.151
66377W        W38802  12.218  21.660   1.823
66378W        W38803   7.849  40.356  10.599
66379W        W38804  19.170  24.756   0.477
66380W        W38805  19.673  14.056   2.336
66381W        W38806  42.448   1.493  10.556
66382W        W38807  16.193  12.732  12.907
66383W        W38808   4.372   1.486   2.249
66384W        W38809  19.150  26.590  13.478
66385W        W38810  34.348  14.500   3.394
66386W        W38811   2.955  14.254  11.329
66387W        W38812  40.331  10.649   1.947
66388W        W38813  13.332  31.707   0.330
66389W        W38814  23.812   3.603   4.651
66390W        W38815   9.685   7.299  14.889
66391W        W38816  20.348  15.900  13.849
66392W        W38817  36.106   5.705  13.433
66393W        W38818  44.976  10.344   3.612
66394W        W38819  40.407  13.260   2.267
66395W        W38820  34.540  39.401   0.673
66396W        W38821  35.846  30.888  13.336
66397W        W38822   3.312   2.102   4.982
66398W        W38823  23.264  43.292   3.112
66399W        W38824  41.085  23.275   4.576
66400W        W38825   4.005  31.468  12.005
66401W        W38826   6.692  11.093  11.686
66402W        W38827  42.909   8.891   3.155
66403W        W38828   9.242   1.366   0.730
66404W        W38829  33.093  29.099  13.894
66405W        W38830  22.458  16.873   0.201
66406W        W38831  22.589   2.440  11.697
66407W        W38832   6.407   4.209  14.430
66408W        W38833   0.959  33.093   2.886
66409W        W38834  39.061  29.255   5.088
66410W        W38835  18.185   5.364  14.954
66411W        W38836   2.711  31.203  14.384
66412W        W38837   5.966   8.799  11.543
66413W        W38838  12.772  37.628   4.541
66414W        W38839   7.496  24.086   3.583
66415W        W38840   4.688  35.540  13.339
66416W        W38841  43.749  16.770  10.646
66417W        W38842   5.729   4.292  13.630
66418W        W38843   8.720  39.977   1.942
66419W        W38844   2.480  11.147  12.007
66420W        W38845  16.821  11.354  14.478
66421W        W38846  33.751  11.591  11.592
66422W        W38847  32.377   6.263  14.308
66423W        W38848  24.385  37.795   1.906
66424W        W38849   5.981  17.584  10.576
66425W        W38850  23.344  34.634  11.143
66426W        W38851  42.622  37.253  12.867
66427W        W38852  14.816  34.882  11.058
66428W        W38853  23.626  33.671   0.626
66429W        W38854   8.533  33.893  11.970
66430W        W38855  35.885  41.258  11.229
66431W        W38856  21.700   6.710  12.590
66432W        W38857  26.218   6.727   2.684
66433W        W38858  40.101   1.563  14.493
66434W        W38859  29.494  14.720   4.549
66435W        W38860   7.299  32.414  11.732
66436W        W38861  40.463  14.465   2.838
66437W        W38862   3.218  21.023   3.004
66438W        W38863  30.653  16.908   3.197
66439W        W38864  39.063  42.789  13.071
66440W        W38865  26.639  24.770   0.304
66441W        W38866  17.608  23.152  14.472
66442W        W38867  33.481  24.205   1.937
66443W        W38868  33.938  19.940   3.663
66444W        W38869   5.812  42.195   1.264
66445W        W38870  22.551   5.169  14.271
66446W        W38871   6.931   2.223   4.573
66447W        W38872   7.264  41.403   4.742
66448W        W38873  11.187  39.268  10.677
66449W        W38874  10.667   6.790   1.244
66450W        W38875  12.461  24.748   5.478
66451W        W38876  18.565  42.188   1.785
66452W        W38877  41.377   3.584  11.221
66453W        W38878  44.233  41.387   3.100
66454W        W38879  30.884  36.800   3.524
66455W        W38880  26.339  12.001   5.020
66456W        W38881   1.437   8.215   1.738
66457W        W38882  34.587  14.644  11.906
66458W        W38883  29.860  38.232  12.760
66459W        W38884  25.036  38.958   4.139
66460W        W38885   7.878   6.916   2.010
66461W        W38886   6.405  41.974   3.839
66462W        W38887   8.071  31.921   1.369
66463W        W38888  12.835  20.537   2.743
66464W        W38889   6.202  11.492  13.269
66465W        W38890  31.990   3.241   0.288
66466W        W38891   9.820  33.133   4.143
66467W        W38892  41.393  43.597   4.512
66468W        W38893  22.242  35.817   0.358
66469W        W38894   7.082  28.971  12.903
66470W        W38895  39.512  38.313   3.717
66471W        W38896  25.179   6.744   3.831
66472W        W38897  41.405  39.864   0.887
66473W        W38898  38.949  33.107  13.231
66474W        W38899   8.385  18.148  14.754
66475W        W38900   3.907   2.205  12.763
66476W        W38901  12.636  13.643   4.011
66477W        W38902  41.031  40.940   0.262
66478W        W38903  44.968  20.169   1.012
66479W        W38904  18.240  27.843   2.881
66480W        W38905   3.833  15.827  12.607
66481W        W38906  19.607   6.830  10.755
66482W        W38907   3.223  21.120  14.871
66483W        W38908  19.688  20.017   4.041
66484W        W38909  37.528  21.237   1.404
66485W        W38910  17.300  34.443  11.494
66486W        W38911  25.677  37.195  12.068
66487W        W38912  36.854  19.913  13.528
66488W        W38913  43.265  25.600   4.815
66489W        W38914  12.353  20.070  14.476
66490W        W38915  37.328  23.494  13.445
66491W        W38916  34.695  14.119   4.565
66492W        W38917  12.570  11.200  14.791
66493W        W38918  35.814   1.739   4.697
66494W        W38919  39.511  19.698  14.796
66495W        W38920  10.745  36.902  12.856
66496W        W38921  16.800   8.432  11.817
66497W        W38922  16.349  38.177   1.734
66498W        W38923  40.005   3.775  14.727
66499W        W38924  37.760  22.524   4.498
66500W        W38925  12.545  13.110  13.958
66501W        W38926  18.734  13.421   3.464
66502W        W38927  38.600  15.142  10.320
66503W        W38928   4.729  23.575   2.859
66504W        W38929  27.554  21.667   4.132
66505W        W38930  39.286  35.980   0.873
66506W        W38931  34.050   5.168   1.863
66507W        W38932  36.922   5.333   4.130
66508W        W38933  14.881  24.128  11.483
66509W        W38934  30.967  18.043   3.417
66510W        W38935  41.535  26.568   4.154
66511W        W38936  41.642  10.123  12.005
66512W        W38937  27.961  38.343   4.755
66513W        W38938  18.165   4.664   0.190
66514W        W38939  15.822  18.630   0.166
66515W        W38940  12.183  14.993   1.453
66516W        W38941  24.606  35.882   1.779
66517W        W38942   7.191  22.527   4.133
66518W        W38943  30.771  27.678   1.234
66519W        W38944  30.087  14.311   3.784
66520W        W38945  26.082  28.427  13.020
66521W        W38946  21.811  14.868   0.235
66522W        W38947  44.013  43.148  14.549
66523W        W38948  22.011  13.807   4.664
66524W        W38949  43.299  26.741   2.276
66525W        W38950  37.895   8.056   2.796
66526W        W38951  41.382  10.538  10.719
66527W        W38952  25.727  34.313  14.021
66528W        W38953  12.605   1.869   1.770
66529W        W38954  43.758  29.597   2.347
66530W        W38955  38.446  37.588   0.085
66531W        W38956  10.233  35.901   3.828
66532W        W38957  23.535  34.189   0.529
66533W        W38958  21.739   1.383   3.685
66534W        W38959  25.225  38.956   1.481
66535W        W38960   5.101  43.550   2.759
66536W        W38961  29.198  10.017   3.719
66537W        W38962   7.197  35.113   4.031
66538W        W38963  33.344  15.017   3.572
66539W        W38964  26.487  21.559  11.918
66540W        W38965  33.785  13.470   4.680
66541W        W38966   9.693   5.728   0.950
66542W        W38967  12.585   8.123  11.093
66543W        W38968  44.555  31.610  11.057
66544W        W38969   8.629  20.510  13.057
66545W        W38970  29.981  21.181   4.639
66546W        W38971  38.986   5.780  13.546
66547W        W38972  26.452   1.178  13.819
66548W        W38973  20.457  42.059   2.919
66549W        W38974  41.345  26.700   1.330
66550W        W38975  35.496   6.646  14.426
66551W        W38976  37.386  26.691  11.424
66552W        W38977  25.288  32.586   5.038
66553W        W38978  33.598  26.778  12.078
66554W        W38979  23.512  21.835  14.995
66555W        W38980  29.190  10.220  13.446
66556W        W38981  31.412  29.173   4.436
66557W        W38982  38.759  37.807  14.029
66558W        W38983   5.405  24.517  11.641
66559W        W38984  41.851  36.103   4.988
66560W        W38985  41.404  20.314   3.699
66561W        W38986   2.184   7.747  13.378
66562W        W38987  40.745  36.873   0.789
66563W        W38988  36.129  28.551  11.924
66564W        W38989  24.151  27.976  11.787
66565W        W38990  40.224  42.284   4.279
66566W        W38991  35.859  20.741   2.258
66567W        W38992  37.583   2.782  11.725
66568W        W38993  26.912  27.417   1.077
66569W        W38994  35.088  41.762   3.629
66570W        W38995   2.509  34.328  10.132
66571W        W38996  25.282  30.431  10.566
66572W        W38997  43.870   3.278  13.200
66573W        W38998  26.720  21.096  11.954
66574W        W38999  30.012  36.060   4.503
66575W        W39000  20.396  14.926  13.491
66576W        W39001  31.069  29.576   2.742
66577W        W39002  35.241  11.545  11.093
66578W        W39003  19.048   5.223  11.241
66579W        W39004   6.412   6.518   3.033
66580W        W39005  41.761  13.855  14.954
66581W        W39006   0.059  13.415   1.164
66582W        W39007  42.914  18.146   2.895
66583W        W39008  44.204  32.071  14.739
66584W        W39009  12.127  29.564   1.991
66585W        W39010  20.295  35.813  14.979
66586W        W39011  44.260  27.656   0.227
66587W        W39012  32.141   6.322   4.775
66588W        W39013  24.774  38.872  14.797
66589W        W39014  30.870  25.416   1.785
66590W        W39015  22.155  23.781  11.972
66591W        W39016   3.748  42.561  11.966
66592W        W39017  36.399  41.610  11.912
66593W        W39018  17.229  44.185   4.134
66594W        W39019   3.013  17.016   4.092
66595W        W39020  15.767   3.880   1.279
66596W        W39021  16.069  32.163   5.031
66597W        W39022  14.169  11.149   0.428
66598W        W39023  12.117  29.414   4.082
66599W        W39024  15.620  43.505   4.283
66600W        W39025  12.732  24.592   1.929
66601W        W39026  24.093  13.097   4.103
66602W        W39027  14.345  37.460   0.963
66603W        W39028  25.449  30.955   0.376
66604W        W39029  40.420  28.815  12.092
66605W        W39030  44.219  29.330  14.311
66606W        W39031  33.064  24.755   2.268
66607W        W39032  24.236  37.868  12.855
66608W        W39033  21.510  10.351   4.663
66609W        W39034  28.341  32.217   0.833
66610W        W39035  22.566  31.180  12.050
66611W        W39036  21.021  11.792  11.241
66612W        W39037   0.052   0.027  14.107
66613W        W39038  18.105  21.060   4.975
66614W        W39039  24.058  40.858   3.261
66615W        W39040  22.820  31.850   1.278
66616W        W39041  14.617  33.648  13.805
66617W        W39042  22.654  12.788  10.205
66618W        W39043  18.811  32.557  12.017
66619W        W39044  26.890  38.486   3.926
66620W        W39045  33.825  16.013  12.550
66621W        W39046  35.402  21.766   1.595
66622W        W39047  43.927  22.670  13.380
66623W        W39048  36.527   6.271   5.030
66624W        W39049  18.151  27.984   0.199
66625W        W39050  14.218  31.612  11.936
66626W        W39051   8.637  23.592   0.976
66627W        W39052  25.342  19.531   1.643
66628W        W39053  17.596   3.775  11.555
66629W        W39054  31.639  12.299   1.268
66630W        W39055  20.369  26.232   5.016
66631W        W39056  38.098  12.588   2.512
66632W        W39057   8.774  29.149   3.074
66633W        W39058   8.482  14.680   0.756
66634W        W39059  20.233  11.803  10.299
66635W        W39060  27.959  26.511   0.514
66636W        W39061  22.308  37.635  13.467
66637W        W39062   4.475  30.175  12.448
66638W        W39063  40.890  43.397   4.479
66639W        W39064  35.032   8.193   1.174
66640W        W39065   0.043   2.683   2.282
66641W        W39066  14.572  31.038  12.493
66642W        W39067  13.647  22.131  11.898
66643W        W39068  27.299  34.553  13.405
66644W        W39069  37.266  35.513   3.204
66645W        W39070  28.164   6.757  14.550
66646W        W39071  34.559  14.708   1.954
66647W        W39072  14.059   9.724  10.612
66648W        W39073   6.795  31.999   1.106
66649W        W39074  20.714  37.662  14.233
66650W        W39075  21.266  28.198   3.034
66651W        W39076  36.558  35.826  10.334
66652W        W39077  11.808  24.559   1.391
66653W        W39078  40.379  29.591   0.371
66654W        W39079  44.517  21.521   3.156
66655W        W39080  37.985  28.606   0.851
66656W        W39081  35.079  20.114  12.988
66657W        W39082  33.499  40.438   3.125
66658W        W39083  33.482  25.935  14.914
66659W        W39084  26.445  19.995  10.965
66660W        W39085  24.600  39.377  14.736
66661W        W39086  17.235  28.498  14.313
66662W        W39087   5.219  11.684   2.945
66663W        W39088   8.652  29.112  14.300
66664W        W39089  32.440  19.042   4.108
66665W        W39090  32.026  19.472   2.849
66666W        W39091  23.390  26.361  10.031
66667W        W39092  34.123  40.958   0.467
66668W        W39093  29.159  26.691   4.297
66669W        W39094  37.563   1.502  12.454
66670W        W39095  40.303  32.102   2.068
66671W        W39096   9.361  17.527  13.420
66672W        W39097  40.571  41.849   3.561
66673W        W39098  12.916  15.800   2.874
66674W        W39099   4.709  30.452   3.447
66675W        W39100   7.175  33.655  13.283
66676W        W39101  25.247  12.719  13.979
66677W        W39102  21.724  25.885  11.837
66678W        W39103  29.907  13.219  14.503
66679W        W39104  14.977  12.194  14.265
66680W        W39105  16.553  12.813  14.555
66681W        W39106   6.544  21.447  12.510
66682W        W39107  42.468  22.547   3.779
66683W        W39108  17.801  36.888  13.002
66684W        W39109  10.211  31.578   1.771
66685W        W39110  13.123  34.482  10.489
66686W        W39111  31.669  19.201  11.447
66687W        W39112  10.766  11.701   2.314
66688W        W39113  28.088  30.164  13.544
66689W        W39114  35.063  12.442   0.054
66690W        W39115  15.811   7.724   3.275
66691W        W39116  25.963  36.450   4.610
66692W        W39117  30.407  36.016  14.352
66693W        W39118  19.416  30.850   0.328
66694W        W39119  36.544  31.065  10.774
66695W        W39120  37.085   2.767  14.875
66696W        W39121  20.174  40.647  14.812
66697W        W39122  21.318  39.321   4.890
66698W        W39123   6.744  37.654  12.447
66699W        W39124  35.084  11.800  13.827
66700W        W39125  20.773  42.912   3.133
66701W        W39126   6.707   9.129   2.310
66702W        W39127  30.449  11.882   1.546
66703W        W39128  41.576   7.381  13.484
66704W        W39129  38.876  24.206  14.443
66705W        W39130  27.478  21.600  10.629
66706W        W39131  30.077  37.481  11.664
66707W        W39132  38.796  27.226  12.237
66708W        W39133  15.053  17.701  13.964
66709W        W39134   1.170  37.751   0.326
66710W        W39135  40.908  38.019   1.227
66711W        W39136   7.786   7.951   2.855
66712W        W39137   9.678  35.650   2.255
66713W        W39138  31.985  28.485  13.523
66714W        W39139  13.120   4.893  12.170
66715W        W39140  19.558  19.986  13.449
66716W        W39141  20.533  33.090  14.683
66717W        W39142   4.321  43.266  12.920
66718W        W39143  29.451   4.496   3.632
66719W        W39144  21.085   0.305  14.530
66720W        W39145  23.810  38.499   1.761
66721W        W39146  26.915  32.059   5.411
66722W        W39147  42.284  42.522  13.546
66723W        W39148  32.683  31.346   3.659
66724W        W39149  19.471  43.854   4.041
66725W        W39150  40.498  34.004  12.841
66726W        W39151  31.003  10.419  10.628
66727W        W39152   9.278  29.290   4.430
66728W        W39153  30.632  18.990  11.644
66729W        W39154   9.715  37.770   1.338
66730W        W39155  37.365  41.253   0.460
66731W        W39156  31.247  41.912  14.405
66732W        W39157  20.793  28.190  14.431
66733W        W39158  12.102   2.415  14.969
66734W        W39159  29.623  16.568  11.304
66735W        W39160  41.629  22.595  10.221
66736W        W39161  13.491  24.946  13.978
66737W        W39162   6.631  40.463  12.827
66738W        W39163  23.160  14.105  13.518
66739W        W39164   2.777  21.768  12.455
66740W        W39165  39.513  34.798   2.761
66741W        W39166  27.611  13.691   0.393
66742W        W39167  31.645  26.603   2.829
66743W        W39168  28.869  43.485  14.401
66744W        W39169  30.251  21.598   4.534
66745W        W39170  30.866   4.398   0.297
66746W        W39171   4.010  13.713   2.740
66747W        W39172  41.083   9.461  14.316
66748W        W39173  12.752  35.892   3.079
66749W        W39174  35.458  40.595   4.184
66750W        W39175  10.692  23.827   2.292
66751W        W39176  41.483   8.456  10.759
66752W        W39177  35.602  39.935   1.823
66753W        W39178  29.858  22.659   4.613
66754W        W39179  31.160  17.513  13.054
66755W        W39180   6.920   9.815  14.746
66756W        W39181  10.751  20.579   2.978
66757W        W39182   5.845  19.880   1.413
66758W        W39183  19.711  21.809   2.770
66759W        W39184  24.329  28.582  12.405
66760W        W39185  39.948  20.590   1.161
66761W        W39186  39.862  19.670  12.497
66762W        W39187  36.064  12.280   3.931
66763W        W39188  16.942  33.466  13.386
66764W        W39189  31.334   5.148  13.796
66765W        W39190  12.656   3.027   4.005
66766W        W39191   1.259  12.345   4.059
66767W        W39192  29.965  37.847  14.247
66768W        W39193  41.091  19.191  14.487
66769W        W39194   8.869  34.600   5.079
66770W        W39195   2.480  26.560  11.112
66771W        W39196  22.182  37.151  13.620
66772W        W39197  15.042  30.705   2.322
66773W        W39198  17.493   7.767   0.462
66774W        W39199  13.335   1.495   1.324
66775W        W39200  21.144  44.512   4.666
66776W        W39201  31.856  33.290   3.414
66777W        W39202   7.637  23.526   0.824
66778W        W39203  14.073  20.115   0.749
66779W        W39204  40.637   7.907   3.733
66780W        W39205  40.340  42.742   1.406
66781W        W39206  24.307   3.024   1.430
66782W        W39207  28.252  38.518   2.464
66783W        W39208  25.614  24.438   2.192
66784W        W39209   1.537  34.914   1.527
66785W        W39210  27.911  43.474  11.998
66786W        W39211   4.660   2.049   1.955
66787W        W39212  10.893  24.115  12.479
66788W        W39213  44.302  21.519   4.965
66789W        W39214  43.339  40.950  14.217
66790W        W39215  10.777  18.395  13.029
66791W        W39216  38.928   5.380  14.476
66792W        W39217  41.351  12.636  13.761
66793W        W39218  21.845  38.011  10.673
66794W        W39219  41.448  24.002  14.240
66795W        W39220   9.738   7.719  12.506
66796W        W39221  37.491  31.110  11.702
66797W        W39222  40.779  43.461   1.287
66798W        W39223   0.639  17.032   1.296
66799W        W39224  20.262  24.735  14.313
66800W        W39225  35.767  20.839  13.520
66801W        W39226  44.861  12.024   3.384
66802W        W39227  29.773  31.011   2.265
66803W        W39228  23.067   4.527   0.886
66804W        W39229  14.484  39.223   0.481
66805W        W39230   2.413  30.710  10.868
66806W        W39231  24.618  12.746   1.061
66807W        W39232  23.818   6.696   4.163
66808W        W39233   6.277   0.815   4.708
66809W        W39234  19.400  30.674  14.809
66810W        W39235   6.236  17.050  10.555
66811W        W39236   1.346   0.222   3.650
66812W        W39237  35.612  40.368   0.282
66813W        W39238  17.778  35.637   3.555
66814W        W39239  21.692  41.711   3.201
66815W        W39240  17.213   8.740   0.306
66816W        W39241  31.632  35.685   1.149
66817W        W39242   8.360   4.535   4.188
66818W        W39243  43.922  43.013   3.776
66819W        W39244  32.888  43.904   3.732
66820W        W39245  36.159  44.158  10.745
66821W        W39246   2.357  30.193  13.594
66822W        W39247  14.180   0.543  13.858
66823W        W39248  41.810   4.004  13.289
66824W        W39249  18.226  38.953  12.949
66825W        W39250  39.023  29.583  10.579
66826W        W39251  27.072  35.972  11.062
66827W        W39252  40.925  14.775   4.613
66828W        W39253  38.204   1.790  12.868
66829W        W39254  37.121  24.001  11.175
66830W        W39255  32.992  29.839  13.422
66831W        W39256  44.497  24.742  14.327
66832W        W39257  38.526  32.882   1.190
66833W        W39258  36.401  12.019   2.422
66834W        W39259  18.715  26.578   4.057
66835W        W39260  32.845  12.630  12.896
66836W        W39261   1.261  26.554  10.417
66837W        W39262  40.593  21.225   1.903
66838W        W39263  23.551  25.154   2.317
66839W        W39264   1.742   6.283   3.322
66840W        W39265  42.536  24.972  13.672
66841W        W39266  44.916   8.160   4.232
66842W        W39267   9.751  11.434   3.862
66843W        W39268   5.327   4.693  10.836
66844W        W39269  12.602  29.451   4.225
66845W        W39270  27.026  17.946  11.117
66846W        W39271  16.802  36.307  12.446
66847W        W39272  15.998  34.912  11.664
66848W        W39273  41.313   5.261   3.723
66849W        W39274  13.166   8.975  10.172
66850W        W39275  21.906  14.541   3.577
66851W        W39276  29.187  34.454   3.237
66852W        W39277  43.554  34.922   3.618
66853W        W39278  18.413  11.715  12.099
66854W        W39279  37.057  13.220  12.417
66855W        W39280  14.779  13.339  13.318
66856W        W39281  32.191  27.415   4.125
66857W        W39282  23.207  22.575  11.139
66858W        W39283  21.097  38.980   4.144
66859W        W39284  40.495  33.394  11.618
66860W        W39285   3.823  22.554  14.374
66861W        W39286  14.412  40.286  12.672
66862W        W39287  17.276  15.344  14.584
66863W        W39288  43.687  42.298  13.482
66864W        W39289  43.411  39.473  12.528
66865W        W39290  24.133  39.537   2.337
66866W        W39291   0.255  19.095   1.869
66867W        W39292  27.018   0.259  12.848
66868W        W39293   8.424   6.911   3.300
66869W        W39294  24.855  15.195  11.008
66870W        W39295  16.224   3.162  12.994
66871W        W39296  31.294  21.130  14.597
66872W        W39297   1.939   3.351  10.648
66873W        W39298   2.325   9.778  12.969
66874W        W39299  22.620  27.678  11.952
66875W        W39300   1.676  37.776   0.339
66876W        W39301  22.134   3.307   4.569
66877W        W39302  43.492   4.926  13.474
66878W        W39303  21.075  26.936  14.394
66879W        W39304  27.587  29.347  12.297
66880W        W39305  24.774   3.058   1.186
66881W        W39306  37.041   6.684  13.407
66882W        W39307   2.824  24.697   1.637
66883W        W39308  13.730  17.770   4.596
66884W        W39309  29.568  18.227   4.760
66885W        W39310  18.977   8.879  14.670
66886W        W39311   3.985  40.537   2.859
66887W        W39312   6.187  33.582   3.626
66888W        W39313  25.391  41.866  11.903
66889W        W39314  12.893  35.492   4.145
66890W        W39315  12.041   7.071  13.340
66891W        W39316  37.086  22.311   0.313
66892W        W39317  11.859  21.688  11.932
66893W        W39318  23.523  19.084   2.212
66894W        W39319   3.962   3.286   0.914
66895W        W39320   6.699  12.121   3.283
66896W        W39321  13.356   3.394  13.827
66897W        W39322   2.224  18.400   1.683
66898W        W39323  15.571  24.935   1.395
66899W        W39324   9.644  29.427   2.763
66900W        W39325  30.691  19.986  14.320
66901W        W39326   8.260  13.344   4.663
66902W        W39327   3.027  19.325  10.727
66903W        W39328  44.289   6.634   0.899
66904W        W39329  20.026  26.293   1.383
66905W        W39330   5.886  36.394  14.786
66906W        W39331  32.583  29.224  13.998
66907W        W39332  26.532  17.187  14.028
66908W        W39333  29.886   0.421  10.667
66909W        W39334  26.542  29.565   2.274
66910W        W39335  11.852  14.661   1.669
66911W        W39336  23.453  16.587   2.497
66912W        W39337  31.333  34.633  11.994
66913W        W39338  38.030  27.116   4.073
66914W        W39339  42.724  20.200   5.162
66915W        W39340  16.692  35.920   1.149
66916W        W39341  17.221  23.686  11.016
66917W        W39342  25.835  38.016   4.682
66918W        W39343  40.962  27.587  12.107
66919W        W39344  28.348  39.423   0.439
66920W        W39345   7.846  18.803   2.296
66921W        W39346  35.871  11.246   0.609
66922W        W39347  11.327  43.955  11.031
66923W        W39348  42.900  15.364  11.723
66924W        W39349  16.645  39.145  13.215
66925W        W39350   0.671  19.592   2.875
66926W        W39351  22.491  20.115   0.453
66927W        W39352  37.434  33.455   5.371
66928W        W39353  27.986  15.101   3.763
66929W        W39354  44.882  27.364  14.972
66930W        W39355  29.130  34.797   0.783
66931W        W39356  22.834   0.272   4.957
66932W        W39357  40.241  32.840  14.957
66933W        W39358   3.289  20.521  13.633
66934W        W39359  29.159   8.312  14.921
66935W        W39360  34.505  26.123   4.317
66936W        W39361  44.855   7.623  12.446
66937W        W39362   6.975  41.973  10.749
66938W        W39363   4.695  41.803  12.478
66939W        W39364   5.216  28.894  10.807
66940W        W39365  43.388  18.424  13.952
66941W        W39366   1.530  29.036  12.422
66942W        W39367   8.854  18.554  14.405
66943W        W39368  37.340  16.830   2.726
66944W        W39369  38.319   7.350   1.266
66945W        W39370   7.723  19.302  11.521
66946W        W39371  39.450   4.881   4.542
66947W        W39372  35.365  31.118  13.333
66948W        W39373  40.875  20.486   3.594
66949W        W39374   0.927  38.961  12.180
66950W        W39375   8.906  24.526  12.953
66951W        W39376  16.066   6.385   1.421
66952W        W39377   6.880  31.886   3.064
66953W        W39378  14.910  11.443   4.909
66954W        W39379  29.625  29.900  11.960
66955W        W39380  39.474  41.475   1.588
66956W        W39381  21.460   3.886  12.550
66957W        W39382  34.610  26.768  11.806
66958W        W39383  29.203  36.101  10.745
66959W        W39384  34.427  20.123  10.622
66960W        W39385  21.934  25.249  12.402
66961W        W39386   0.820  40.497  14.781
66962W        W39387  17.685  37.107  13.468
66963W        W39388  15.839  10.555  14.502
66964W        W39389  25.006  21.002   1.859
66965W        W39390  36.360  31.591   1.909
66966W        W39391  22.983   5.418   1.869
66967W        W39392  42.926   1.827   4.587
66968W        W39393  12.099  38.480   4.521
66969W        W39394  25.270  14.185  13.836
66970W        W39395   4.984  31.921  12.992
66971W        W39396   1.795  11.115   0.680
66972W        W39397  37.400   6.405   1.197
66973W        W39398   9.176  24.591   0.567
66974W        W39399  36.938  38.248  14.291
66975W        W39400  16.151  18.736   4.257
66976W        W39401  15.424   1.692  12.874
66977W        W39402  24.687  44.685   0.974
66978W        W39403   4.956   4.442  14.741
66979W        W39404  17.189   0.890   5.029
66980W        W39405   2.340   7.989  11.929
66981W        W39406   2.890   8.807   4.937
66982W        W39407  20.399   2.831  13.862
66983W        W39408   4.403  17.636   4.869
66984W        W39409  23.249  36.238  13.040
66985W        W39410  41.972  10.555  13.241
66986W        W39411  41.418  24.182   2.129
66987W        W39412   5.621  42.577   0.926
66988W        W39413  30.581  32.919  11.863
66989W        W39414  10.745  21.083  13.268
66990W        W39415  38.384  22.110   1.305
66991W        W39416  19.846  28.571  14.002
66992W        W39417  18.964  43.427  13.171
66993W        W39418  14.786  40.426   2.709
66994W        W39419  21.752  38.596   4.564
66995W        W39420  35.061  28.501   2.255
66996W        W39421  38.026  16.535   4.894
66997W        W39422   4.859  17.632   4.120
66998W        W39423   3.223   2.747  11.808
66999W        W39424  15.119  14.752  12.396
67000W        W39425   6.140  33.663  11.316
67001W        W39426   7.332   5.849  11.594
67002W        W39427  27.813  42.234  12.409
67003W        W39428   8.371  33.832   1.796
67004W        W39429  16.716   3.695   2.935
67005W        W39430  26.982  39.886   4.279
67006W        W39431  22.721   3.054  11.231
67007W        W39432  11.083  43.221  13.085
67008W        W39433   8.747  15.346   4.588
67009W        W39434   8.781  41.406  11.574
67010W        W39435  20.973  40.539   0.339
67011W        W39436  20.210  40.016  10.721
67012W        W39437   5.461  34.925  11.546
67013W        W39438  20.589  18.605   1.697
67014W        W39439  39.234  20.969  11.507
67015W        W39440  15.181  34.860   0.423
67016W        W39441   5.888  22.001  11.165
67017W        W39442  20.634  36.814   2.790
67018W        W39443   4.376  20.017   0.505
67019W        W39444  13.505  42.514  10.701
67020W        W39445  12.610  10.024  11.170
67021W        W39446  11.613  29.945  13.889
67022W        W39447  19.223  44.940  14.826
67023W        W39448  16.347  35.177   5.230
67024W        W39449   6.196  31.751  14.367
67025W        W39450  35.991  18.690   2.745
67026W        W39451   0.291   0.313  11.258
67027W        W39452  33.132   6.270   1.151
67028W        W39453  39.891   6.921   3.887
67029W        W39454  18.568   7.965  13.421
67030W        W39455  27.584  11.395  14.401
67031W        W39456  12.202  37.133  13.449
67032W        W39457  42.827  18.857  10.624
67033W        W39458  43.281   8.572   2.775
67034W        W39459  34.621  11.674   4.877
67035W        W39460  21.522  25.083  13.961
67036W        W39461   7.841  33.304   1.358
67037W        W39462  14.655  23.927  14.528
67038W        W39463  34.508   8.141  12.174
67039W        W39464   6.533  23.141   3.753
67040W        W39465  44.959   6.767  12.050
67041W        W39466  12.042  32.424  10.211
67042W        W39467  26.061  18.744   2.829
67043W        W39468  41.327   0.598   3.296
67044W        W39469  15.197  24.268  13.068
67045W        W39470  39.059  41.136  11.736
67046W        W39471  10.445  32.091  11.594
67047W        W39472  18.719  24.049   2.815
67048W        W39473  30.179   2.715  14.347
67049W        W39474  37.526  36.251   2.782
67050W        W39475  43.962  30.149  13.326
67051W        W39476  34.807  33.069  11.647
67052W        W39477  14.335  30.586   1.792
67053W        W39478  25.829  24.473  14.744
67054W        W39479  24.736  34.214   1.967
67055W        W39480  31.655  26.913   0.419
67056W        W39481  15.826   0.736   0.350
67057W        W39482  30.506  27.751   1.843
67058W        W39483  41.695  35.035   2.489
67059W        W39484  39.029   9.680   2.375
67060W        W39485  13.605  14.567  14.332
67061W        W39486   6.869   1.124   1.292
67062W        W39487  22.538  10.702   1.227
67063W        W39488  15.661   9.830   1.796
67064W        W39489  36.763  10.865   2.807
67065W        W39490  32.199  23.159   1.906
67066W        W39491  28.516  23.923   9.497
67067W        W39492  20.932  20.577   1.782
67068W        W39493  42.913   5.662   0.333
67069W        W39494  23.998  28.422  13.843
67070W        W39495  17.593  42.291   0.332
67071W        W39496   6.885  18.559   1.949
67072W        W39497  15.248  12.849   2.203
67073W        W39498   8.886  16.654   1.294
67074W        W39499   1.780  24.956   1.252
67075W        W39500  14.022   8.243   1.558
67076W        W39501  35.174  36.325   1.262
67077W        W39502  16.919  26.174   1.608
67078W        W39503  35.056   6.867   4.977
67079W        W39504  14.343   9.417   4.647
67080W        W39505  20.959  38.509  12.626
67081W        W39506  25.250   9.356   0.893
67082W        W39507  32.417   0.743   4.099
67083W        W39508  28.468  18.244  12.057
67084W        W39509   6.842  43.898  14.701
67085W        W39510   6.313  13.306   2.825
67086W        W39511   4.301  37.374  12.805
67087W        W39512  13.623  35.126   2.294
67088W        W39513   9.687  22.492  11.969
67089W        W39514  24.410  37.786   0.460
67090W        W39515  43.534  38.802  13.346
67091W        W39516   5.966   0.965  13.916
67092W        W39517  39.450  43.470   0.958
67093W        W39518  32.027  22.490   2.118
67094W        W39519  29.528   9.720   4.036
67095W        W39520  37.319   3.657  11.998
67096W        W39521  30.135  43.845  12.087
67097W        W39522  33.472  15.601   0.327
67098W        W39523  20.326   5.127  14.474
67099W        W39524  17.534   4.244  11.347
67100W        W39525   8.733  18.329   1.339
67101W        W39526  16.627  41.248  11.108
67102W        W39527  40.081   9.740  11.972
67103W        W39528  14.538   1.789  11.109
67104W        W39529   0.935   7.702  11.955
67105W        W39530  34.442   3.475   3.285
67106W        W39531   5.244  40.744   0.355
67107W        W39532  35.402  11.541   2.271
67108W        W39533  44.742  23.060  12.801
67109W        W39534  21.066  17.070  12.608
67110W        W39535  33.585   5.823   9.973
67111W        W39536  28.204  16.308   0.801
67112W        W39537  30.135  10.131  12.062
67113W        W39538  13.322  22.063  11.057
67114W        W39539  17.850  25.439  10.684
67115W        W39540  28.919   6.265  12.369
67116W        W39541   0.930   4.268   2.252
67117W        W39542  18.336   5.931   4.555
67118W        W39543   2.515  35.870   1.728
67119W        W39544  19.622  41.311  11.840
67120W        W39545  27.663  37.424   1.396
67121W        W39546  35.484  41.553   0.685
67122W        W39547  37.558   7.121   1.884
67123W        W39548  29.122   0.169   3.470
67124W        W39549  24.193  43.092   5.155
67125W        W39550  39.386  15.793  11.603
67126W        W39551  32.603  37.611   4.183
67127W        W39552  11.565  12.635   3.884
67128W        W39553  12.214  38.013  14.743
67129W        W39554  13.121   8.958   4.542
67130W        W39555   4.505  26.206  14.850
67131W        W39556  28.164  40.319   3.820
67132W        W39557  27.886   0.099   1.265
67133W        W39558  30.129  14.867   3.759
67134W        W39559  33.186  29.665   4.058
67135W        W39560  23.760  29.454  13.433
67136W        W39561  33.111  13.345  13.513
67137W        W39562  43.481  10.688   3.266
67138W        W39563  22.135  25.645   3.588
67139W        W39564   6.168  35.606   3.236
67140W        W39565  39.576  44.633  12.558
67141W        W39566  34.629   3.205  11.209
67142W        W39567  21.513   8.278   4.209
67143W        W39568  15.474   7.093   1.873
67144W        W39569   9.142  11.329   1.763
67145W        W39570   5.273  26.619   4.550
67146W        W39571  22.865  29.596   0.822
67147W        W39572  20.200  16.793   2.188
67148W        W39573  19.002  23.721  10.778
67149W        W39574  29.024   2.445  11.615
67150W        W39575  39.422   7.060  13.512
67151W        W39576   4.652  14.153  14.245
67152W        W39577   3.411   7.245  11.536
67153W        W39578  35.625  32.829  11.923
67154W        W39579  20.860  21.495  14.626
67155W        W39580  29.948  20.218  11.259
67156W        W39581  38.295   7.935  11.670
67157W        W39582   1.809  15.300  11.514
67158W        W39583  21.065  12.093   2.356
67159W        W39584  26.265  27.557   4.910
67160W        W39585   1.946  41.311   3.635
67161W        W39586  20.797  30.097  13.454
67162W        W39587   6.139  27.438   1.855
67163W        W39588  30.181   0.817  14.026
67164W        W39589  25.152  25.924  10.957
67165W        W39590  22.220  21.641   4.680
67166W        W39591  27.907  31.538   5.377
67167W        W39592  42.959  10.726   3.132
67168W        W39593  15.786  11.676  13.300
67169W        W39594   0.169  27.505   3.901
67170W        W39595  25.192  39.101   2.731
67171W        W39596  31.889  42.731   2.269
67172W        W39597  43.697  31.020   2.575
67173W        W39598  40.800   8.382  11.181
67174W        W39599  32.144   2.129  12.950
67175W        W39600  18.721  29.905  11.567
67176W        W39601  16.359  18.049   0.838
67177W        W39602   5.227   8.715   5.408
67178W        W39603  17.858  13.177  12.339
67179W        W39604  11.217  15.316   1.783
67180W        W39605  27.310  17.064  12.564
67181W        W39606  38.977   7.895   0.452
67182W        W39607  39.411   9.214  12.246
67183W        W39608  33.981  32.396  10.908
67184W        W39609  26.025   4.732  10.997
67185W        W39610  37.999  27.656  10.290
67186W        W39611   6.189   6.310  11.598
67187W        W39612   5.734  38.016   0.331
67188W        W39613  42.014  10.729   2.651
67189W        W39614  19.126  33.617   3.189
67190W        W39615   8.759  17.800   1.419
67191W        W39616   5.737  25.507   3.343
67192W        W39617  37.995  35.543  12.237
67193W        W39618  27.590  32.477  11.553
67194W        W39619  34.633  10.626   4.151
67195W        W39620  19.819   9.814   1.878
67196W        W39621  16.059   8.377  14.879
67197W        W39622  17.033  10.276   3.676
67198W        W39623  26.909  34.017   0.476
67199W        W39624  38.139  20.518   2.122
67200W        W39625   8.155  38.348  13.682
67201W        W39626  21.590  20.533   4.487
67202W        W39627  37.932  14.668  14.290
67203W        W39628  34.428  14.217  10.630
67204W        W39629   8.789  38.411  12.964
67205W        W39630  13.924  26.904   3.304
67206W        W39631  17.755  25.224   2.819
67207W        W39632  11.857  38.542  10.729
67208W        W39633   6.446  27.951  12.859
67209W        W39634  11.420  29.703   0.725
67210W        W39635  27.010  23.994   0.498
67211W        W39636  27.497  29.419  10.977
67212W        W39637  25.542  44.948  10.685
67213W        W39638  14.279  39.274  14.460
67214W        W39639  12.362  11.728  10.767
67215W        W39640  27.773  37.053  10.692
67216W        W39641  16.741  30.537  13.351
67217W        W39642  20.938  24.999  10.354
67218W        W39643   1.001   7.391   0.873
67219W        W39644  29.556  39.261  10.909
67220W        W39645   6.984   6.397   3.667
67221W        W39646   9.627  32.973  13.946
67222W        W39647   8.392  40.853  12.486
67223W        W39648  26.690  38.178   2.742
67224W        W39649  34.008  15.601  14.561
67225W        W39650  18.577   5.020  11.090
67226W        W39651  23.113  11.605   3.157
67227W        W39652  17.214  24.419   4.153
67228W        W39653  37.311  38.292   3.762
67229W        W39654  39.337   4.393  10.882
67230W        W39655  31.876  36.358  12.601
67231W        W39656  28.581  33.542  10.441
67232W        W39657  23.229  21.644   2.257
67233W        W39658   6.178  27.171  11.574
67234W        W39659   6.241   4.424   4.302
67235W        W39660   3.250  29.958   1.291
67236W        W39661  35.350  12.645   4.205
67237W        W39662   5.146   6.165   4.309
67238W        W39663  37.123  42.409   1.688
67239W        W39664  13.440  24.695  12.522
67240W        W39665  44.574  13.294   4.238
67241W        W39666  19.072   5.774   2.156
67242W        W39667  19.044  23.327  13.909
67243W        W39668  34.072  33.346  10.956
67244W        W39669   3.393  24.985  11.594
67245W        W39670   0.984   9.257   2.367
67246W        W39671  20.607  17.577   3.351
67247W        W39672  38.715  37.471   1.687
67248W        W39673  23.583  37.557   3.169
67249W        W39674  10.347  33.034  14.527
67250W        W39675  28.975  25.611  14.977
67251W        W39676   8.193  16.782   0.747
67252W        W39677  27.867  17.086   0.920
67253W        W39678  31.141  23.070   4.547
67254W        W39679   7.668  23.835  10.602
67255W        W39680  15.149   6.920  12.156
67256W        W39681  36.031  42.276  14.333
67257W        W39682  38.250  35.927  12.498
67258W        W39683  14.098  41.413   1.240
67259W        W39684  20.544  39.935   3.836
67260W        W39685   6.592  14.596   2.354
67261W        W39686  20.809  30.476   4.274
67262W        W39687  36.796   2.689  13.834
67263W        W39688  15.936  34.539   4.985
67264W        W39689  16.724  31.378  12.978
67265W        W39690  37.258   8.744   2.397
67266W        W39691  16.156  41.421  12.036
67267W        W39692  41.931  44.695  12.611
67268W        W39693  19.482   0.489  13.916
67269W        W39694  22.404   9.150   4.713
67270W        W39695  28.204  41.608   5.441
67271W        W39696  25.127   3.662  12.512
67272W        W39697  42.336  25.190  12.659
67273W        W39698  29.615  31.205   4.962
67274W        W39699  41.056  44.449   4.612
67275W        W39700  19.752   5.792  13.556
67276W        W39701  19.127   4.981   3.873
67277W        W39702  37.499   9.477  12.920
67278W        W39703  23.485  31.551   2.700
67279W        W39704  10.518  39.965   3.765
67280W        W39705  11.320   2.418  12.798
67281W        W39706  21.450  29.305   0.921
67282W        W39707  38.748  24.484   2.911
67283W        W39708  28.915  18.334   1.790
67284W        W39709  24.632  29.194   4.648
67285W        W39710  41.999  24.463   3.734
67286W        W39711  36.531   1.448  11.124
67287W        W39712  38.897  23.847  11.556
67288W        W39713  19.808  32.567   0.933
67289W        W39714  24.352   7.722  10.486
67290W        W39715  15.531   4.884  13.449
67291W        W39716   2.923  37.873  11.450
67292W        W39717   2.329  31.428  12.574
67293W        W39718  43.361  15.937  10.609
67294W        W39719  13.799  27.258  13.937
67295W        W39720  44.875  12.705   4.160
67296W        W39721   9.617  36.944   4.032
67297W        W39722  20.595  21.634  12.380
67298W        W39723  22.624  32.097  10.678
67299W        W39724  33.112  34.456   0.273
67300W        W39725   5.977  11.060  13.513
67301W        W39726   8.157  11.392   3.187
67302W        W39727  18.953  24.032  12.373
67303W        W39728  10.716  11.295  13.071
67304W        W39729   6.765  16.357   0.443
67305W        W39730  36.002  18.522   4.879
67306W        W39731  23.963  39.354   1.839
67307W        W39732  21.072  17.001  14.277
67308W        W39733  11.154  42.533  13.452
67309W        W39734  40.415  14.326  11.196
67310W        W39735  24.499  43.256   0.997
67311W        W39736  31.293  43.929  13.519
67312W        W39737  42.284  34.060   1.136
67313W        W39738  37.739  20.573  14.453
67314W        W39739  36.537   8.813  12.433
67315W        W39740   5.091   2.488   0.834
67316W        W39741  41.901  16.793  10.723
67317W        W39742  17.241  38.401   2.341
67318W        W39743  38.130   7.566   2.827
67319W        W39744  23.585  11.259   1.755
67320W        W39745  15.970  19.937  10.724
67321W        W39746  25.054  27.759  13.065
67322W        W39747  24.514  26.334  14.273
67323W        W39748  44.880  29.977   1.381
67324W        W39749  40.434  34.370   2.528
67325W        W39750  39.864  44.356   1.869
67326W        W39751  37.429  23.536  10.923
67327W        W39752  26.114   9.914   4.197
67328W        W39753   3.819  29.882   4.262
67329W        W39754   5.830  41.722   4.671
67330W        W39755  16.340  35.648   5.524
67331W        W39756   2.931  36.906  11.617
67332W        W39757   2.552  29.235  13.342
67333W        W39758  40.421  19.057   1.333
67334W        W39759  18.427   0.831  11.734
67335W        W39760  34.130  25.953   3.989
67336W        W39761   4.375   8.935  13.897
67337W        W39762  14.281  41.819  10.553
67338W        W39763  22.641  41.347  13.171
67339W        W39764  14.303  27.533  12.920
67340W        W39765  44.777  16.810  11.536
67341W        W39766   4.879  24.262  10.776
67342W        W39767  27.699  22.411   0.931
67343W        W39768  19.246  17.091  13.829
67344W        W39769  22.722  22.755  11.115
67345W        W39770  19.012  30.099  12.150
67346W        W39771   8.365  43.816   4.310
67347W        W39772  37.049   6.604   4.656
67348W        W39773  22.486  38.307  10.581
67349W        W39774   6.381   2.885   1.247
67350W        W39775  43.283  24.051   3.215
67351W        W39776   3.776  32.252  10.702
67352W        W39777  11.198  22.950   5.098
67353W        W39778  15.128   0.544   3.126
67354W        W39779  24.350  16.251  12.029
67355W        W39780  37.885   4.779   2.581
67356W        W39781  34.962  28.613  13.465
67357W        W39782  17.151   6.440  14.886
67358W        W39783  15.598   9.808   2.690
67359W        W39784   1.942  17.323   2.369
67360W        W39785  22.205  29.396  11.083
67361W        W39786  18.046   2.827   1.900
67362W        W39787  39.886  25.259   4.131
67363W        W39788  14.821  43.383  10.698
67364W        W39789  20.076   2.772   4.255
67365W        W39790  20.650  10.336  14.441
67366W        W39791  31.375   0.317  13.208
67367W        W39792   6.956   4.777  11.124
67368W        W39793  11.557   4.741   1.432
67369W        W39794  14.115  28.049  10.672
67370W        W39795  16.666  41.525   1.343
67371W        W39796  42.867  16.971   0.970
67372W        W39797  40.022  27.140   2.628
67373W        W39798  26.445  11.842   0.723
67374W        W39799  38.346  33.044   3.837
67375W        W39800  18.520  21.743   4.488
67376W        W39801   9.218   7.324   0.302
67377W        W39802  34.687  22.025   1.162
67378W        W39803  10.857   7.678   2.113
67379W        W39804   1.960  40.369   2.863
67380W        W39805  25.199  35.118  10.960
67381W        W39806  20.526  25.937  12.139
67382W        W39807  19.228  34.170   0.322
67383W        W39808  12.854   2.944  13.449
67384W        W39809  31.262   7.943  13.271
67385W        W39810   9.516   8.122   3.755
67386W        W39811  26.156  11.901  14.363
67387W        W39812  31.708  27.596  13.434
67388W        W39813  31.055  20.757   3.801
67389W        W39814   4.772  32.157  10.589
67390W        W39815   1.252  43.027   3.371
67391W        W39816  11.861  40.796  10.208
67392W        W39817  15.543  25.738   4.558
67393W        W39818  23.407  20.183  13.372
67394W        W39819  39.512  30.177   4.120
67395W        W39820  36.947   7.654   3.342
67396W        W39821  32.511   4.454   0.482
67397W        W39822  41.516  34.506  13.429
67398W        W39823   7.446  37.604   3.720
67399W        W39824  38.417  43.312  13.069
67400W        W39825   4.421  42.816   5.078
67401W        W39826  27.177   7.263   2.715
67402W        W39827   2.457  39.940  13.181
67403W        W39828  30.037  38.251   3.645
67404W        W39829  23.928  35.947   3.053
67405W        W39830  13.920  36.372   2.764
67406W        W39831  22.498  13.204  13.425
67407W        W39832  32.535  18.959  13.461
67408W        W39833  27.681  28.667   3.827
67409W        W39834  41.071  30.298  14.929
67410W        W39835   4.139  33.473  14.986
67411W        W39836   8.658  41.117   2.159
67412W        W39837   5.888  35.408   1.898
67413W        W39838  31.112  36.023   2.137
67414W        W39839   2.822  28.005   0.909
67415W        W39840   5.328  20.150  14.638
67416W        W39841  29.660  27.673  14.281
67417W        W39842  37.331   3.285   4.560
67418W        W39843  35.441  22.757  11.580
67419W        W39844  42.038  28.445  11.182
67420W        W39845  44.409  17.866   0.778
67421W        W39846  25.508  30.655   3.590
67422W        W39847  16.834  24.279   0.103
67423W        W39848   5.310   9.663  10.519
67424W        W39849  27.076   3.878   3.662
67425W        W39850  42.894  33.845  11.202
67426W        W39851   3.931  22.714   0.838
67427W        W39852  16.404  34.711   4.091
67428W        W39853  31.006  34.798  10.583
67429W        W39854  14.319  43.591  12.909
67430W        W39855  36.379  14.085   1.699
67431W        W39856  34.084   3.916   0.221
67432W        W39857  25.143  33.714   1.359
67433W        W39858  12.786   3.366  13.848
67434W        W39859  38.110  24.157  12.367
67435W        W39860  14.069  23.638  12.543
67436W        W39861   8.418  21.066  10.657
67437W        W39862  35.551   1.963   2.251
67438W        W39863   1.231  32.150   2.201
67439W        W39864  18.230  10.900  11.402
67440W        W39865   2.900   4.012  13.583
67441W        W39866  25.892  13.408  12.888
67442W        W39867   7.486  40.545  10.928
67443W        W39868  37.129   1.438  14.432
67444W        W39869  18.615  41.323  10.780
67445W        W39870  16.152  31.526   1.966
67446W        W39871  27.262  35.159   2.221
67447W        W39872  38.927  15.727  13.554
67448W        W39873   4.204   4.950   2.441
67449W        W39874  10.384  35.034   4.224
67450W        W39875  40.385   9.890  14.946
67451W        W39876  37.058  34.871  14.390
67452W        W39877  16.573   6.540   0.940
67453W        W39878  20.008  43.415  14.340
67454W        W39879  23.541   8.500  11.234
67455W        W39880  43.952  21.497   9.844
67456W        W39881  23.237  22.656  13.460
67457W        W39882  18.808  32.636   0.750
67458W        W39883  16.274   0.166  12.485
67459W        W39884   4.759  11.570   4.991
67460W        W39885   7.204  34.187   2.743
67461W        W39886   5.452  22.609  13.298
67462W        W39887  31.375   0.590   0.877
67463W        W39888  44.861  30.507   2.082
67464W        W39889  19.084  18.070  14.732
67465W        W39890  37.916   6.623   1.274
67466W        W39891  43.455   8.985  10.820
67467W        W39892   6.777  25.449   1.925
67468W        W39893  28.614  32.071  12.909
67469W        W39894  25.983  20.796  10.580
67470W        W39895  32.666  15.607   3.303
67471W        W39896  28.056  28.611   4.187
67472W        W39897  12.651  12.245   3.132
67473W        W39898  22.177  14.446  10.681
67474W        W39899  12.149  19.390  10.364
67475W        W39900   5.177   4.375   3.385
67476W        W39901  43.500  10.271   0.027
67477W        W39902  41.529  31.219  14.738
67478W        W39903  19.591  37.020   2.344
67479W        W39904  39.501  25.456  13.419
67480W        W39905   5.785  25.724   2.323
67481W        W39906   1.105  37.604  14.834
67482W        W39907  37.898   8.241   4.122
67483W        W39908  22.208  37.841  14.488
67484W        W39909  36.171  39.768   0.063
67485W        W39910  42.012  27.773  13.839
67486W        W39911  38.624   9.347  10.977
67487W        W39912  13.306  33.269   3.966
67488W        W39913   2.221  44.160  11.482
67489W        W39914   9.342  27.065   4.202
67490W        W39915  37.839   6.837   4.180
67491W        W39916  17.308  33.207   4.112
67492W        W39917  10.424  30.161   2.862
67493W        W39918  11.695  32.911   2.691
67494W        W39919   0.362  18.519  14.810
67495W        W39920  12.561  30.440   2.350
67496W        W39921  41.459  40.282   1.245
67497W        W39922  41.990   9.946   2.194
67498W        W39923  12.240  28.588   4.644
67499W        W39924  37.971   7.701   1.381
67500W        W39925  13.556  41.625   4.092
67501W        W39926  20.843  17.065   0.940
67502W        W39927  39.238   0.227  12.945
67503W        W39928  15.039  33.122   3.101
67504W        W39929  29.262  38.589  12.653
67505W        W39930  16.773  19.980  14.972
67506W        W39931  38.399  15.562  13.636
67507W        W39932  12.629   2.699  12.089
67508W        W39933  43.440  17.947   0.180
67509W        W39934  11.020  30.713   2.342
67510W        W39935  37.849  23.052  12.348
67511W        W39936  32.376  18.170  14.227
67512W        W39937   6.989  40.483  11.038
67513W        W39938  34.587  21.830  11.563
67514W        W39939   8.162  36.069   0.466
67515W        W39940  28.508  35.956   0.394
67516W        W39941  35.105  21.902  11.801
67517W        W39942   8.625   7.796   1.444
67518W        W39943  27.195   7.728   3.640
67519W        W39944  36.892  20.239  10.691
67520W        W39945  24.250  29.757   4.181
67521W        W39946  39.779  29.543   1.356
67522W        W39947   4.888  42.596   1.273
67523W        W39948  19.212  24.097   4.500
67524W        W39949  22.683  44.865  11.654
67525W        W39950   0.783  36.151  12.045
67526W        W39951  10.435  13.386   4.610
67527W        W39952  13.839   6.213  11.974
67528W        W39953  29.101   9.160   2.364
67529W        W39954  38.529   9.174   3.146
67530W        W39955  21.981  39.058  13.082
67531W        W39956  44.031   7.710  10.862
67532W        W39957  31.480  32.659  14.398
67533W        W39958  18.065  41.997  10.973
67534W        W39959   5.176  18.645   2.754
67535W        W39960  16.152  31.958   5.483
67536W        W39961  11.254  10.374  13.231
67537W        W39962   9.252  15.330  13.806
67538W        W39963  40.776  27.548  14.050
67539W        W39964  20.055  27.482   4.179
67540W        W39965  17.709   0.030  14.396
67541W        W39966  34.839  39.054   3.199
67542W        W39967  31.312   9.683   4.052
67543W        W39968  21.245  15.658  12.925
67544W        W39969  38.546  26.455   1.907
67545W        W39970   6.630  29.437  12.836
67546W        W39971   1.598  13.546  14.476
67547W        W39972  34.608  35.864  14.891
67548W        W39973  38.885  10.836  12.483
67549W        W39974  21.366  39.948  13.434
67550W        W39975  39.491  11.577  12.513
67551W        W39976  30.327  20.363  13.910
67552W        W39977  24.529  15.383  14.865
67553W        W39978  35.078  34.023  12.828
67554W        W39979  43.331  30.906   1.157
67555W        W39980  10.281  28.003  14.286
67556W        W39981   4.366  40.510   3.268
67557W        W39982   2.937  28.133   3.964
67558W        W39983  37.515  30.477  12.126
67559W        W39984  44.916  17.566  10.563
67560W        W39985  44.989  17.069  10.352
67561W        W39986  18.552  19.607  14.766
67562W        W39987  22.464  41.884   2.724
67563W        W39988  13.191  23.526   3.242
67564W        W39989   8.572  30.715   0.676
67565W        W39990  10.588  34.856   1.491
67566W        W39991  24.715   4.878  10.475
67567W        W39992   6.866   8.246  14.361
67568W        W39993  41.133   8.984   3.873
67569W        W39994  13.576  10.274  14.474
67570W        W39995  12.568  23.450   4.211
67571W        W39996  13.632  14.170   1.713
67572W        W39997  31.921  11.824  14.967
67573W        W39998  13.294   0.549  13.824
67574W        W39999  43.962  14.513  11.592
67575W        W40000   8.417  25.689  14.904
67576W        W40001  22.562  36.349   1.287
67577W        W40002   0.411  30.730   4.179
67578W        W40003   1.887  43.804   4.920
67579W        W40004  23.114  13.288  14.420
67580W        W40005  42.416  10.249  13.351
67581W        W40006   2.866  29.093  12.883
67582W        W40007   3.775  44.243   3.848
67583W        W40008  22.772  14.595   3.460
67584W        W40009   3.752   0.128   3.189
67585W        W40010   4.889   7.609   2.723
67586W        W40011  44.692  32.032   2.122
67587W        W40012  25.743   5.486  11.910
67588W        W40013  42.226  37.854  13.404
67589W        W40014   2.175   9.464   3.795
67590W        W40015  43.514   2.291   0.986
67591W        W40016  42.840  16.189   4.872
67592W        W40017  38.042  33.014   2.323
67593W        W40018  13.223   6.350   3.404
67594W        W40019  26.517  20.494   4.146
67595W        W40020  37.004  22.919  12.523
67596W        W40021  35.976  14.699   3.752
67597W        W40022  39.086  29.470   2.141
67598W        W40023   0.665  29.090  12.147
67599W        W40024  17.251   6.212  13.874
67600W        W40025  31.162  10.303   0.020
67601W        W40026  13.936  18.845   0.229
67602W        W40027   9.944  36.298  12.873
67603W        W40028  38.075  27.983   0.064
67604W        W40029  37.125  42.512   2.203
67605W        W40030  23.748   3.856   2.846
67606W        W40031  12.358  27.309  12.976
67607W        W40032  39.341  18.670  14.301
67608W        W40033  11.396  31.649   0.276
67609W        W40034  26.254  19.172  11.599
67610W        W40035  39.559   8.845   2.310
67611W        W40036   4.415  43.973   4.552
67612W        W40037   6.837  14.652   0.228
67613W        W40038  13.920  40.920   0.524
67614W        W40039  10.676  38.729   4.370
67615W        W40040  10.834  17.807  12.173
67616W        W40041   9.408   3.765   0.831
67617W        W40042  15.286   4.258  13.161
67618W        W40043  32.181  36.663   5.276
67619W        W40044  35.324  37.341   4.044
67620W        W40045  38.509   6.240  10.670
67621W        W40046  22.037  13.497  13.451
67622W        W40047  34.157  29.815  14.742
67623W        W40048  39.004   4.228  14.449
67624W        W40049  38.456  23.558  11.373
67625W        W40050  18.653   2.173  14.394
67626W        W40051   4.289  12.536   2.950
67627W        W40052  10.352  27.467  14.974
67628W        W40053  24.254  13.888  10.656
67629W        W40054  42.070  44.968   1.005
67630W        W40055  10.473  21.575  11.525
67631W        W40056  22.258  36.533  11.997
67632W        W40057  17.283  17.221  10.917
67633W        W40058  23.018   2.805   0.649
67634W        W40059  43.284  30.185   3.576
67635W        W40060  26.371  29.898  11.514
67636W        W40061   5.896   4.995   0.333
67637W        W40062  16.948  22.567  11.015
67638W        W40063  23.255  13.331   3.121
67639W        W40064  19.060  21.149  14.462
67640W        W40065   3.704  14.802   1.268
67641W        W40066  37.430  42.083  13.435
67642W        W40067  15.688  43.416  11.006
67643W        W40068  37.962  18.279   3.190
67644W        W40069  40.830  22.462  12.097
67645W        W40070   6.340  11.128   2.056
67646W        W40071  42.296  28.676   3.538
67647W        W40072   0.628  43.777   3.033
67648W        W40073  44.289  44.281   4.179
67649W        W40074  42.513  40.779   0.221
67650W        W40075  38.988  23.542   2.770
67651W        W40076  10.750   8.449  10.537
67652W        W40077  31.253   3.151  12.139
67653W        W40078  21.283   5.436  14.362
67654W        W40079  12.848  26.717  13.947
67655W        W40080   4.178   0.407  12.582
67656W        W40081  34.398  39.634   4.596
67657W        W40082  12.184   6.984  11.489
67658W        W40083  39.966  26.656  14.574
67659W        W40084   0.774  38.833  10.438
67660W        W40085  18.177  22.141  11.984
67661W        W40086  27.279  27.174  13.890
67662W        W40087  42.286  41.885   2.893
67663W        W40088  37.661   1.946   5.065
67664W        W40089   4.296   4.889  13.883
67665W        W40090  13.808   6.972   2.774
67666W        W40091  44.792   1.732  11.881
67667W        W40092  29.863  15.687  14.391
67668W        W40093  40.827  22.571   2.155
67669W        W40094   1.743  34.597  13.336
67670W        W40095   8.920   6.840   1.957
67671W        W40096  16.886  15.684  14.821
67672W        W40097  30.195   2.842   1.958
67673W        W40098  33.533  23.939  11.426
67674W        W40099  38.713  26.336   0.172
67675W        W40100  30.949   3.360   0.456
67676W        W40101  37.320  37.398   1.452
67677W        W40102  41.527   0.777  11.154
67678W        W40103  38.552  39.905  12.585
67679W        W40104  32.390  36.425  10.594
67680W        W40105  36.397   3.701  12.057
67681W        W40106  41.756   8.009  11.530
67682W        W40107  15.913  35.399   3.614
67683W        W40108  23.558  37.114   2.913
67684W        W40109  41.374  35.074  13.012
67685W        W40110  40.183  28.644  14.991
67686W        W40111  34.348  14.677  10.893
67687W        W40112   8.510  32.145   2.864
67688W        W40113   9.717  10.800  10.364
67689W        W40114  29.567  16.677  10.808
67690W        W40115  11.247  22.746  12.732
67691W        W40116   6.266  25.504  10.355
67692W        W40117   0.210  31.904  10.160
67693W        W40118  25.241   4.353   4.897
67694W        W40119  43.505  20.274   3.038
67695W        W40120   8.690   7.201   0.258
67696W        W40121   8.466   9.289  12.141
67697W        W40122  42.036  39.880   1.770
67698W        W40123  23.228  18.251   0.445
67699W        W40124  28.645  30.578  10.585
67700W        W40125  41.416  15.276   1.276
67701W        W40126  26.001  20.761  13.038
67702W        W40127   6.139  27.716   0.878
67703W        W40128  11.396  16.076  14.821
67704W        W40129  22.710  19.967  10.708
67705W        W40130   1.009  25.909   4.582
67706W        W40131  42.595  16.814   3.114
67707W        W40132   9.865  36.073  13.338
67708W        W40133  20.876  33.558  15.000
67709W        W40134  14.160  14.207   4.781
67710W        W40135  34.501  29.237  11.506
67711W        W40136  24.261  39.420  11.077
67712W        W40137  23.486   9.752   9.781
67713W        W40138  37.289   6.401   3.643
67714W        W40139  26.567   0.649  12.825
67715W        W40140   8.232  39.354   2.632
67716W        W40141  17.826  26.581  13.822
67717W        W40142  27.308  16.829   2.762
67718W        W40143  44.395  20.911  11.503
67719W        W40144  28.427  28.678  13.434
67720W        W40145   6.153  42.293  14.080
67721W        W40146  15.565  43.366  12.919
67722W        W40147  22.435  13.590  12.761
67723W        W40148  44.843   8.798  14.412
67724W        W40149  11.881  40.612   1.173
67725W        W40150  27.702  42.897   1.066
67726W        W40151  34.492  16.209   4.573
67727W        W40152  36.477  16.085  10.888
67728W        W40153  28.037   9.323   4.897
67729W        W40154   8.416   0.564   0.197
67730W        W40155  40.892  35.891   0.158
67731W        W40156  19.176  40.672   2.796
67732W        W40157  36.944  18.820   0.983
67733W        W40158  28.929  31.920   1.844
67734W        W40159  21.367  36.735   1.831
67735W        W40160  12.194  39.621  12.290
67736W        W40161  15.138  38.519   0.309
67737W        W40162  18.894  10.269  12.068
67738W        W40163   8.706  26.061   4.415
67739W        W40164  34.370  26.554   0.805
67740W        W40165  13.391  36.565  14.988
67741W        W40166  42.324  16.109   0.422
67742W        W40167  22.040   0.793  12.078
67743W        W40168  20.695  32.884  11.126
67744W        W40169  20.073   4.104   3.705
67745W        W40170  31.216   0.004  13.786
67746W        W40171  40.304  19.690  13.361
67747W        W40172  14.596  41.245   4.975
67748W        W40173  15.153  16.810  12.407
67749W        W40174  33.602  44.499   0.943
67750W        W40175  40.976  20.055   0.871
67751W        W40176  26.755   6.146  12.084
67752W        W40177  23.330  23.592  14.315
67753W        W40178  13.234  13.121  10.434
67754W        W40179  42.409   7.750  14.561
67755W        W40180  11.646  11.145   3.010
67756W        W40181  40.997  13.192   0.916
67757W        W40182  37.803  34.955   1.800
67758W        W40183  40.180  27.665   4.167
67759W        W40184   8.178   8.434   4.644
67760W        W40185   6.012  43.007  12.520
67761W        W40186  17.798  35.149  11.638
67762W        W40187  30.927  40.899   2.390
67763W        W40188   3.474  18.646   1.535
67764W        W40189  30.366   1.437   0.865
67765W        W40190  31.382  30.206  10.914
67766W        W40191  11.313  39.827   1.694
67767W        W40192  19.462   2.249   1.774
67768W        W40193  30.492  31.862  10.488
67769W        W40194  15.551  35.774   4.473
67770W        W40195   7.222  33.053   2.931
67771W        W40196  21.734   7.186  12.416
67772W        W40197  35.592   2.841   2.282
67773W        W40198  15.158  15.691   4.568
67774W        W40199  28.852  19.571  12.121
67775W        W40200  18.196  28.912   0.459
67776W        W40201  14.870  11.157  13.900
67777W        W40202   3.776  34.847  14.917
67778W        W40203  18.160   5.338   3.916
67779W        W40204  12.300  27.695   2.878
67780W        W40205  27.044  44.911  12.212
67781W        W40206  15.559  26.681   3.735
67782W        W40207   3.644  21.705   1.530
67783W        W40208  32.678  38.056  13.921
67784W        W40209  29.634  41.442  10.045
67785W        W40210  41.396  25.071  13.148
67786W        W40211  32.348  32.982  14.876
67787W        W40212  24.748  20.146   4.717
67788W        W40213  29.175  32.547   3.367
67789W        W40214  10.147  11.819  12.426
67790W        W40215   6.591  28.133  14.208
67791W        W40216  31.402  42.486  14.202
67792W        W40217  39.720  28.983  11.596
67793W        W40218  32.706  14.244   1.790
67794W        W40219  44.109   6.743   5.026
67795W        W40220  16.023  16.684   1.335
67796W        W40221  27.202  19.978   1.833
67797W        W40222   4.122  33.303  14.461
67798W        W40223  20.101  37.176  10.964
67799W        W40224   2.224  21.068   4.551
67800W        W40225  23.037  18.785   1.267
67801W        W40226  37.921  39.869   1.298
67802W        W40227  29.488  40.744  11.234
67803W        W40228  22.318   9.733   1.803
67804W        W40229  16.629  11.579   2.646
67805W        W40230  10.814  29.124   1.231
67806W        W40231   9.419   0.041  13.610
67807W        W40232   9.344  42.038  10.980
67808W        W40233  22.640  21.799   2.848
67809W        W40234  43.479  35.461  14.416
67810W        W40235   7.366   1.683  13.869
67811W        W40236  35.804  44.411  12.436
67812W        W40237  31.435   6.875   0.998
67813W        W40238  27.523  20.025   0.491
67814W        W40239  41.000   2.525   3.177
67815W        W40240  10.592   7.873  14.224
67816W        W40241   9.733  29.090  13.489
67817W        W40242  35.698  42.010  12.996
67818W        W40243  16.418  38.027  14.926
67819W        W40244  25.789  31.361   0.272
67820W        W40245  11.795  42.204   3.119
67821W        W40246  35.010  15.222  10.410
67822W        W40247  15.728  38.968  12.154
67823W        W40248  12.684   8.644  13.239
67824W        W40249  41.538  15.349   2.246
67825W        W40250   1.711  24.478   5.083
67826W        W40251  42.334   7.700   3.173
67827W        W40252  37.502  32.121  14.853
67828W        W40253  12.434  32.120  13.830
67829W        W40254  19.693   7.682   4.282
67830W        W40255   2.732  30.373   0.887
67831W        W40256  23.539   8.280   1.242
67832W        W40257  43.269  26.591   1.383
67833W        W40258  18.803  19.128   1.318
67834W        W40259  14.518  11.110   1.765
67835W        W40260  13.941  38.409   0.833
67836W        W40261  39.188   6.896   4.066
67837W        W40262  10.509   5.919  12.992
67838W        W40263   5.636  13.771  11.555
67839W        W40264  17.926  25.676   3.123
67840W        W40265  38.189  21.400   0.298
67841W        W40266  16.784  35.334   2.425
67842W        W40267  14.271  22.755  12.101
67843W        W40268  37.359  21.622  13.831
67844W        W40269  15.231  14.304  10.671
67845W        W40270   4.695   8.333   4.398
67846W        W40271  44.055  40.234   4.383
67847W        W40272  15.715  43.078   1.391
67848W        W40273  11.554  37.730  12.070
67849W        W40274  35.751  28.238   2.780
67850W        W40275  22.160   1.434   2.183
67851W        W40276  16.654  27.126   1.200
67852W        W40277  34.023  14.143  12.533
67853W        W40278  31.632   4.664   2.622
67854W        W40279  13.832   7.608  11.041
67855W        W40280  42.664  22.041   2.859
67856W        W40281   2.715   9.137   2.743
67857W        W40282   8.339  15.544   1.943
67858W        W40283  10.877  19.587  12.662
67859W        W40284  30.165   5.721   0.287
67860W        W40285  19.075  38.529  14.983
67861W        W40286   2.818  18.420  12.943
67862W        W40287   2.062  23.472   2.616
67863W        W40288  10.871   6.391   3.664
67864W        W40289   3.215  16.072   2.450
67865W        W40290  24.653  21.086  14.561
67866W        W40291   0.487  39.579  12.055
67867W        W40292  32.693  19.312  11.200
67868W        W40293  22.149  43.838   4.629
67869W        W40294  12.041   5.542  14.841
67870W        W40295  11.171  19.154   1.258
67871W        W40296  16.608  10.106   0.286
67872W        W40297  14.865  40.475   3.742
67873W        W40298  32.803  32.187  12.060
67874W        W40299  17.397   5.246  10.260
67875W        W40300  19.805  21.610  11.701
67876W        W40301  31.534  44.288   0.321
67877W        W40302   4.596  40.935  12.108
67878W        W40303  28.611  43.583   0.397
67879W        W40304  34.464  36.661  13.405
67880W        W40305   7.732  34.490  14.225
67881W        W40306  11.617  39.354   0.548
67882W        W40307  22.018  13.337  13.962
67883W        W40308   9.324   6.737  14.331
67884W        W40309   3.231  36.638  14.991
67885W        W40310  11.676  32.023  13.623
67886W        W40311  27.940   3.854   2.005
67887W        W40312  28.324  11.736  12.990
67888W        W40313   4.170  23.563  14.126
67889W        W40314  23.622   3.550  10.350
67890W        W40315  37.657  37.485   0.749
67891W        W40316   1.513  43.896   3.561
67892W        W40317  13.705  14.209   4.549
67893W        W40318  12.568  44.822  13.837
67894W        W40319  23.247  43.390  12.723
67895W        W40320  26.560  20.501  11.070
67896W        W40321  24.411  38.127  11.606
67897W        W40322  33.116  13.583  11.077
67898W        W40323   8.675   1.736  10.518
67899W        W40324  38.661   6.248   3.692
67900W        W40325  27.255  44.380  14.151
67901W        W40326  13.135  32.163   1.131
67902W        W40327   0.217  35.613  12.568
67903W        W40328  44.791  14.177  13.246
67904W        W40329   3.847  17.070   4.134
67905W        W40330  27.197  34.421   1.712
67906W        W40331  37.998  18.084  11.163
67907W        W40332  24.915   9.839   3.685
67908W        W40333  32.492  44.388  10.473
67909W        W40334  39.245   7.508  13.318
67910W        W40335  24.966   4.259  14.180
67911W        W40336   2.168  10.359  12.423
67912W        W40337  44.525  10.754   1.894
67913W        W40338  31.925  16.947  11.242
67914W        W40339  24.466   9.175  13.931
67915W        W40340  23.255  38.452   3.713
67916W        W40341  21.431   6.261  11.312
67917W        W40342  44.226  11.135   1.677
67918W        W40343   4.335  16.085  12.608
67919W        W40344  43.849  36.103   3.579
67920W        W40345  35.930  36.275  12.081
67921W        W40346  37.144  40.806  12.949
67922W        W40347   4.955   5.197  11.632
67923W        W40348  26.709   6.103   2.143
67924W        W40349  17.338   5.294   2.613
67925W        W40350  31.737  37.520   3.135
67926W        W40351   1.816  26.185  13.030
67927W        W40352   7.262  22.522   0.886
67928W        W40353  44.746  39.304   2.325
67929W        W40354   1.801  14.717   4.694
67930W        W40355  36.845  21.667   4.399
67931W        W40356  39.418   9.275  11.526
67932W        W40357  22.245  40.330  11.843
67933W        W40358   2.262  27.686   3.300
67934W        W40359  20.250  26.626  11.624
67935W        W40360  20.594   0.807   4.405
67936W        W40361  26.140  36.116   0.024
67937W        W40362   9.997  27.952   2.099
67938W        W40363  20.299  44.237   3.688
67939W        W40364   3.813   7.537   3.500
67940W        W40365   4.432  12.850   4.299
67941W        W40366   6.520  12.521   1.333
67942W        W40367   1.903  18.307   4.112
67943W        W40368  24.268  20.344  14.998
67944W        W40369  28.419  34.516  14.698
67945W        W40370  41.996  36.129   1.685
67946W        W40371  31.561   0.565   2.156
67947W        W40372   4.726  22.489  11.097
67948W        W40373   8.718  21.224   0.017
67949W        W40374  19.565  12.211   2.485
67950W        W40375  11.847  31.096  14.510
67951W        W40376  42.118   3.936   1.903
67952W        W40377  37.095  37.156  14.700
67953W        W40378   3.376  36.273   1.821
67954W        W40379  18.457  25.435   0.396
67955W        W40380  23.311   3.500   1.881
67956W        W40381  15.141  33.924  11.163
67957W        W40382   3.979  25.214  11.108
67958W        W40383  19.157  23.882   0.063
67959W        W40384   0.022  31.384   1.832
67960W        W40385  19.226  34.508  14.057
67961W        W40386  41.387  36.507  12.463
67962W        W40387  39.356  25.184  12.427
67963W        W40388  12.540   6.632   3.596
67964W        W40389  30.903  39.795   1.501
67965W        W40390  12.754  32.167  10.824
67966W        W40391  42.115   9.344   4.567
67967W        W40392  24.712  35.456   1.392
67968W        W40393  41.990  18.108  10.155
67969W        W40394  14.567  10.417   1.387
67970W        W40395  33.351  21.479  14.616
67971W        W40396  42.627  33.078   0.981
67972W        W40397  14.233  23.689   2.869
67973W        W40398   5.232   1.934  12.129
67974W        W40399  15.765  18.702   1.423
67975W        W40400  17.113  19.623  12.132
67976W        W40401  17.759   2.236  13.934
67977W        W40402   2.947  40.992  13.834
67978W        W40403  26.657  11.178   1.761
67979W        W40404  33.486   4.371   4.056
67980W        W40405  14.548  32.992  12.007
67981W        W40406  33.364  31.378   4.587
67982W        W40407  33.512  24.727   1.952
67983W        W40408  30.448  27.391  13.896
67984W        W40409   1.863  17.835  10.694
67985W        W40410  29.641  25.111   5.064
67986W        W40411   3.677   8.935   4.676
67987W        W40412  37.785  16.349   2.101
67988W        W40413   6.824   7.678   3.306
67989W        W40414  40.471  21.426   5.507
67990W        W40415  25.912  33.066   4.657
67991W        W40416  44.830  44.067  13.083
67992W        W40417  17.281  39.338  10.620
67993W        W40418   5.494  38.961  11.517
67994W        W40419  27.629  11.006  12.104
67995W        W40420   8.803  39.377   5.004
67996W        W40421   4.059   2.685  12.868
67997W        W40422   8.196   9.123  12.563
67998W        W40423  35.797   5.907  13.919
67999W        W40424   3.295  23.828   1.226
68000W        W40425  24.710  22.166  11.496
68001W        W40426  23.913  26.533   1.010
68002W        W40427   8.057  18.241   0.969
68003W        W40428  31.635  37.087   0.469
68004W        W40429  28.524  39.554  10.262
68005W        W40430  30.191  27.711  13.402
68006W        W40431   5.891  39.748  11.758
68007W        W40432  40.891  41.718   3.170
68008W        W40433  20.954   9.245   4.161
68009W        W40434  41.368  36.534  13.352
68010W        W40435  38.916  22.081  11.241
68011W        W40436   9.737  16.741   1.395
68012W        W40437  20.115  16.502  13.018
68013W        W40438   5.371  35.448  12.181
68014W        W40439   0.355  42.093   4.189
68015W        W40440   6.720  10.389  13.032
68016W        W40441  21.659  27.994   1.789
68017W        W40442  11.761  30.498   4.605
68018W        W40443   5.473  39.517   1.260
68019W        W40444  25.192  35.051  12.136
68020W        W40445  29.607   0.010  11.839
68021W        W40446  34.627   7.896   1.007
68022W        W40447   3.179  11.774  13.589
68023W        W40448  33.477  28.843   1.516
68024W        W40449  14.847   4.200  14.418
68025W        W40450  44.713  24.397   0.076
68026W        W40451  29.071  32.323  10.796
68027W        W40452  43.812  31.909  10.254
68028W        W40453  23.965   1.793   0.838
68029W        W40454  26.535  13.797   1.300
68030W        W40455  39.795   3.161   4.095
68031W        W40456  24.270   4.457   1.472
68032W        W40457  23.276  10.087   3.173
68033W        W40458  18.513   9.896   2.801
68034W        W40459   0.251  30.206   3.283
68035W        W40460  14.594  34.790  11.504
68036W        W40461   6.380  18.187   4.524
68037W        W40462  31.243  29.623  11.556
68038W        W40463   1.117  39.056   2.744
68039W        W40464  25.612  22.945   0.230
68040W        W40465  29.857  18.838  14.890
68041W        W40466  23.284  43.815  11.932
68042W        W40467  42.803  19.818  14.399
68043W        W40468  14.914  15.203  12.532
68044W        W40469  33.579  23.402   3.396
68045W        W40470  41.828  21.771  10.265
68046W        W40471  10.364  14.874  11.143
68047W        W40472  31.459   5.801  13.164
68048W        W40473  34.389  33.804   1.280
68049W        W40474  31.128  22.778  12.156
68050W        W40475  26.116   5.246   2.940
68051W        W40476  40.366  26.955   2.226
68052W        W40477  17.327   3.883   0.843
68053W        W40478  25.971  37.462   4.055
68054W        W40479   1.864  15.891  14.228
68055W        W40480  11.354  28.396   1.850
68056W        W40481  14.678  18.912  11.553
68057W        W40482  13.321  18.601  10.879
68058W        W40483  20.163  27.016   4.361
68059W        W40484  36.334  23.553  14.800
68060W        W40485   4.003  42.240  14.912
68061W        W40486   7.748  38.280  11.594
68062W        W40487  40.262  12.672   0.863
68063W        W40488   8.210  27.747   4.650
68064W        W40489  17.150  28.832   4.167
68065W        W40490   2.102  13.645  14.394
68066W        W40491   2.177  27.972   0.255
68067W        W40492   3.565  15.715   3.214
68068W        W40493  16.042  44.395  10.718
68069W        W40494  39.853  36.865  11.599
68070W        W40495  18.773  14.466   1.614
68071W        W40496   6.683  44.665   4.571
68072W        W40497  16.576  26.999   3.112
68073W        W40498  18.973  23.184  11.893
68074W        W40499  29.885   9.641  13.495
68075W        W40500  27.899   1.875   0.122
68076W        W40501   8.090  20.659   2.011
68077W        W40502  15.690  30.901  13.440
68078W        W40503  29.152  20.569   3.833
68079W        W40504  27.931  16.221   4.203
68080W        W40505   5.414  18.980  14.018
68081W        W40506  29.949  30.481   0.397
68082W        W40507  15.697  32.070  11.175
68083W        W40508  43.557   5.808  14.969
68084W        W40509   5.502  43.590  12.121
68085W        W40510  39.945   5.406   0.107
68086W        W40511  32.407  20.674  11.443
68087W        W40512   2.367   5.348   3.865
68088W        W40513   7.336  43.334   4.099
68089W        W40514  37.743  42.486   5.134
68090W        W40515  35.441  12.145  13.728
68091W        W40516  11.440   5.242  14.132
68092W        W40517  25.506  31.976  11.962
68093W        W40518  41.892  10.799   0.215
68094W        W40519  37.000  29.460   2.293
68095W        W40520  44.483  39.522   4.468
68096W        W40521   3.234  21.670   4.169
68097W        W40522  11.544  43.166   2.284
68098W        W40523  10.002  40.022   3.772
68099W        W40524  38.094  21.527   1.246
68100W        W40525  15.066  19.879   0.728
68101W        W40526  37.525  12.732   4.601
68102W        W40527  36.146   1.442   2.371
68103W        W40528  26.170  11.927   1.839
68104W        W40529  32.144  17.577  11.586
68105W        W40530  24.709   1.979   3.279
68106W        W40531  18.915  41.705  14.052
68107W        W40532   6.592  19.045  12.354
68108W        W40533  41.554   1.998  11.100
68109W        W40534  36.847  44.384   2.369
68110W        W40535  30.017  25.564   1.751
68111W        W40536  31.554  36.987   2.389
68112W        W40537   8.275  40.408  13.516
68113W        W40538  13.146   6.383   1.271
68114W        W40539   9.324  16.149   2.391
68115W        W40540  32.332  39.189   3.879
68116W        W40541  43.718  29.955   0.262
68117W        W40542  37.325  10.176   2.330
68118W        W40543   7.039  33.031  10.743
68119W        W40544  40.523  24.762   2.764
68120W        W40545  25.545  21.133   3.671
68121W        W40546   8.233   7.702   3.686
68122W        W40547  44.280  31.181  14.811
68123W        W40548   6.507   2.840   3.050
68124W        W40549  25.642  22.258   2.833
68125W        W40550  12.867  33.134  10.446
68126W        W40551  22.060   7.013   1.355
68127W        W40552   9.595  22.628   4.088
68128W        W40553  42.051   7.746   4.055
68129W        W40554  20.925  44.524   1.472
68130W        W40555  20.239  22.318  11.648
68131W        W40556  29.883  10.764   2.975
68132W        W40557  39.438  22.851  13.824
68133W        W40558   8.859  38.483  10.588
68134W        W40559   8.404   6.930   1.927
68135W        W40560   6.777  12.373  13.941
68136W        W40561  19.098  29.564  11.486
68137W        W40562  30.384  28.268   2.752
68138W        W40563  30.644  17.234   0.872
68139W        W40564  28.025  44.533   4.886
68140W        W40565  36.162  26.136   0.809
68141W        W40566  28.959  36.832   0.020
68142W        W40567  26.913  22.618  10.995
68143W        W40568  36.178  10.655  12.577
68144W        W40569  43.098  16.874  14.819
68145W        W40570  27.966  23.254   9.941
68146W        W40571  31.573  20.774   0.760
68147W        W40572   9.164   4.727  10.279
68148W        W40573  43.111  14.385   2.130
68149W        W40574  35.927  37.845   1.908
68150W        W40575  16.523   2.726  12.909
68151W        W40576  12.712  33.002  13.724
68152W        W40577  27.196  36.823   1.897
68153W        W40578   5.931   3.227   1.848
68154W        W40579   6.134  35.153   4.489
68155W        W40580  44.931  41.900  14.382
68156W        W40581  15.385  24.396  14.287
68157W        W40582  10.583  32.673   3.653
68158W        W40583   8.836  20.373   2.287
68159W        W40584  26.435   1.607  11.147
68160W        W40585   2.931   3.696  13.087
68161W        W40586   3.978  10.739   3.275
68162W        W40587  25.744  29.142  10.760
68163W        W40588   5.836  17.769   1.475
68164W        W40589  41.505  20.497  12.814
68165W        W40590  40.833  15.644   0.670
68166W        W40591  30.392  31.176   0.271
68167W        W40592  26.569  24.255   0.285
68168W        W40593  11.592   6.729  13.190
68169W        W40594   1.390  11.274  12.818
68170W        W40595   0.929  34.584  12.064
68171W        W40596  36.054  44.782   0.971
68172W        W40597  26.005  26.281   4.231
68173W        W40598  27.298  24.628  14.880
68174W        W40599  44.306  42.877   0.559
68175W        W40600  27.080  30.158  12.795
68176W        W40601   6.622   6.812   3.724
68177W        W40602  13.958   4.757   0.438
68178W        W40603  38.606   2.347   1.279
68179W        W40604  35.709  37.969   3.227
68180W        W40605  39.013  43.514  14.210
68181W        W40606  36.823   2.903  12.840
68182W        W40607  32.085  12.612  10.338
68183W        W40608  27.554  42.210  11.940
68184W        W40609  12.233  23.299  12.084
68185W        W40610  25.944  36.020   3.289
68186W        W40611  29.051   7.695   4.190
68187W        W40612  40.840   9.778   4.130
68188W        W40613  40.825   6.616   1.370
68189W        W40614   6.848  11.624   4.787
68190W        W40615  27.198  11.282   1.494
68191W        W40616  17.115  33.833   2.365
68192W        W40617  20.505  10.746  13.462
68193W        W40618  14.441  34.930  10.440
68194W        W40619  23.599  41.042  11.662
68195W        W40620   3.184  16.684  10.859
68196W        W40621  38.616   7.013   0.493
68197W        W40622  32.908  36.991  14.491
68198W        W40623  17.019  36.998   1.431
68199W        W40624   1.325  14.917   4.867
68200W        W40625  12.563  32.570   2.769
68201W        W40626  15.113  40.942  12.189
68202W        W40627  37.306  19.148  13.895
68203W        W40628  33.262  18.031   1.173
68204W        W40629  19.830  10.173  13.744
68205W        W40630   5.906  11.882  14.039
68206W        W40631   0.397  19.791  11.160
68207W        W40632  28.961  32.580   3.934
68208W        W40633   5.147  13.933   4.122
68209W        W40634   5.935  26.654  14.304
68210W        W40635  41.848  37.208  14.922
68211W        W40636   4.690   2.121   0.723
68212W        W40637  15.617  23.668   3.662
68213W        W40638  10.339   2.911   2.985
68214W        W40639  18.874  40.005  12.972
68215W        W40640  24.045  33.892   2.394
68216W        W40641  33.979  41.069   3.743
68217W        W40642  40.344  16.772   0.847
68218W        W40643  36.734  27.994  13.557
68219W        W40644  25.151  16.286  10.709
68220W        W40645  23.478  25.033  11.054
68221W        W40646  17.020  18.727  12.245
68222W        W40647  31.830  34.518  12.105
68223W        W40648  37.040  40.871  11.680
68224W        W40649  27.168   5.291   1.642
68225W        W40650  22.932  14.919  14.053
68226W        W40651  27.539  26.622   1.182
68227W        W40652  24.616  20.313   4.082
68228W        W40653   5.846  19.999   0.887
68229W        W40654  36.381  26.471  10.505
68230W        W40655  29.212  36.386   2.208
68231W        W40656  26.932  41.072  11.852
68232W        W40657   0.451   1.307   4.383
68233W        W40658   8.081   5.976   1.860
68234W        W40659  25.790  10.172  11.775
68235W        W40660  35.336  34.728   1.412
68236W        W40661  24.320  13.681  13.404
68237W        W40662  17.719  17.535  14.970
68238W        W40663  12.816   1.266  12.938
68239W        W40664  42.573  34.402  10.590
68240W        W40665   3.244   3.829  11.171
68241W        W40666  20.475   4.807   2.227
68242W        W40667   7.704  13.416   3.790
68243W        W40668   4.335  38.859   0.924
68244W        W40669  37.075  11.259  10.704
68245W        W40670   5.445  34.395   0.807
68246W        W40671   8.688  41.528  13.956
68247W        W40672  19.428  10.712  12.569
68248W        W40673  19.511  39.932   1.251
68249W        W40674   1.379  36.135   0.936
68250W        W40675  27.211  12.194   3.074
68251W        W40676  38.850  31.770   4.159
68252W        W40677  23.648  15.586  10.989
68253W        W40678  41.420  42.480  13.865
68254W        W40679  25.625   5.322   4.749
68255W        W40680  14.301   3.886   3.865
68256W        W40681  17.382  17.839   3.313
68257W        W40682  31.135  24.970  14.500
68258W        W40683   2.231  19.021   3.784
68259W        W40684  41.316   8.167   0.355
68260W        W40685  25.733   4.380   3.685
68261W        W40686   7.426  20.190   2.387
68262W        W40687   6.406  42.561  10.776
68263W        W40688   4.827  21.499   3.178
68264W        W40689  41.923  36.932  13.664
68265W        W40690   0.223  34.636   4.452
68266W        W40691  11.239  11.934   1.472
68267W        W40692  36.083  39.653   3.278
68268W        W40693  17.722   3.447   3.077
68269W        W40694  42.152   3.704  12.939
68270W        W40695  11.236  36.536  12.265
68271W        W40696  43.355  30.619   1.999
68272W        W40697  11.249   5.222  12.358
68273W        W40698  14.642  25.507  10.731
68274W        W40699  39.524  37.062  12.398
68275W        W40700   2.532  36.491   4.650
68276W        W40701  13.593  33.348   0.977
68277W        W40702  13.219  14.771   3.328
68278W        W40703  29.104  33.583   0.230
68279W        W40704   5.308   2.700  10.552
68280W        W40705  11.412   3.800  11.143
68281W        W40706   4.649  44.476   0.480
68282W        W40707   2.599  35.614   3.855
68283W        W40708   1.701  40.153   4.288
68284W        W40709  23.737  21.223  10.624
68285W        W40710  30.916  37.367   4.696
68286W        W40711  41.740  18.562   0.380
68287W        W40712  30.537  10.873   4.217
68288W        W40713  32.129  44.075   1.873
68289W        W40714  11.758   6.243  11.517
68290W        W40715  36.518  11.060   1.672
68291W        W40716   9.236   1.853  11.200
68292W        W40717  16.586  10.732   0.965
68293W        W40718  15.785  11.125  12.568
68294W        W40719  12.283  36.325  13.056
68295W        W40720  27.974   6.754   1.916
68296W        W40721   4.270  42.722  12.934
68297W        W40722   5.218   9.947  14.914
68298W        W40723   9.337   0.513  12.961
68299W        W40724   4.575  29.097   0.912
68300W        W40725  38.491  28.038   3.097
68301W        W40726   7.380  39.804  12.183
68302W        W40727  32.599  24.266   4.520
68303W        W40728  34.126  22.791   3.822
68304W        W40729  29.086   5.868   4.587
68305W        W40730  30.143  40.802   3.876
68306W        W40731  19.332   2.001  11.146
68307W        W40732  21.779  24.439   2.878
68308W        W40733  32.278   2.316  12.432
68309W        W40734   6.320  27.208   3.718
68310W        W40735   5.982  27.571  13.349
68311W        W40736  25.518  27.793   0.962
68312W        W40737  39.916  33.941  13.977
68313W        W40738  13.281  23.940   5.146
68314W        W40739   5.255  28.160  14.226
68315W        W40740  14.758   2.614  13.637
68316W        W40741  44.378  12.325  12.642
68317W        W40742   9.808  29.008   3.697
68318W        W40743  25.210  19.535   3.317
68319W        W40744  40.375  20.822  10.652
68320W        W40745  25.245  32.154  11.531
68321W        W40746  15.128  18.159  11.796
68322W        W40747  43.862  14.416   2.912
68323W        W40748  32.004  42.813   4.558
68324W        W40749  19.787  44.365   2.808
68325W        W40750  40.019  13.706   0.320
68326W        W40751  10.292  31.086   4.510
68327W        W40752  38.867  33.457   4.994
68328W        W40753  17.106   3.037   1.834
68329W        W40754  16.810   3.748   1.279
68330W        W40755   8.196  19.130  11.474
68331W        W40756  28.010  36.847  11.102
68332W        W40757  44.306  15.563   4.189
68333W        W40758   3.722   6.406  12.000
68334W        W40759  14.037  10.256   4.129
68335W        W40760  40.938  16.107   2.402
68336W        W40761  43.200  43.238   3.411
68337W        W40762   7.105   7.689   0.400
68338W        W40763   9.694  27.145   2.500
68339W        W40764  29.426  42.591   0.277
68340W        W40765   1.653  37.174   4.295
68341W        W40766   6.598   2.974   1.797
68342W        W40767  20.166   6.602   3.719
68343W        W40768  22.072  35.227  13.426
68344W        W40769  24.443  19.530  14.613
68345W        W40770  10.434   9.918   4.487
68346W        W40771  19.108  38.539  13.378
68347W        W40772  20.223  34.943  13.431
68348W        W40773  34.069  30.100  13.536
68349W        W40774   7.433  19.182  13.520
68350W        W40775   0.012   2.304  11.058
68351W        W40776  36.055  26.012   4.116
68352W        W40777  22.828   9.192  10.244
68353W        W40778  29.327  34.392   4.230
68354W        W40779  38.327  26.579   2.374
68355W        W40780  30.994  25.920   4.562
68356W        W40781  43.263  17.541   4.323
68357W        W40782  24.898   2.039  11.837
68358W        W40783  16.552  28.978  13.002
68359W        W40784   2.451  21.490   1.890
68360W        W40785  27.255  31.542   2.103
68361W        W40786   8.346  19.623  11.570
68362W        W40787  18.026  22.690   3.799
68363W        W40788  35.595  24.254  14.441
68364W        W40789  32.142  42.894  10.772
68365W        W40790  43.012   2.883  13.478
68366W        W40791   7.175  22.273   3.152
68367W        W40792  37.098  44.521  11.123
68368W        W40793  27.133  40.080   1.660
68369W        W40794  33.412   2.457   3.752
68370W        W40795   4.310  32.206  11.546
68371W        W40796  19.181  29.070   4.680
68372W        W40797  34.451  11.807  14.509
68373W        W40798  18.520  43.444   3.391
68374W        W40799   1.425  21.154  12.730
68375W        W40800  44.915  33.819   3.198
68376W        W40801   3.750  36.443   4.116
68377W        W40802   9.661  36.571   2.217
68378W        W40803  38.844   4.717  12.056
68379W        W40804  17.006  12.367   3.962
68380W        W40805   1.128  34.341  11.138
68381W        W40806  30.982  25.929   1.200
68382W        W40807   7.139  14.032   4.601
68383W        W40808   0.397  21.962  12.568
68384W        W40809  39.023  35.388   1.881
68385W        W40810  14.705  32.934   1.265
68386W        W40811  10.729  15.613  12.513
68387W        W40812  11.791  20.384   1.775
68388W        W40813  14.523  20.625   1.699
68389W        W40814  18.651  18.818   3.228
68390W        W40815  42.206  15.005   3.852
68391W        W40816   6.273  31.990  10.700
68392W        W40817   3.952  39.818   0.845
68393W        W40818  16.583   3.302   3.719
68394W        W40819  41.627  39.325   4.914
68395W        W40820  10.583  41.949   3.218
68396W        W40821  14.740   2.439  11.983
68397W        W40822  38.380  17.248  11.210
68398W        W40823  35.903  20.105  11.711
68399W        W40824  42.395  42.809   3.614
68400W        W40825  31.105  21.500  13.902
68401W        W40826   5.269  16.738  12.130
68402W        W40827  22.676  18.322  13.952
68403W        W40828   2.052  15.080  12.517
68404W        W40829  25.241   3.233   1.413
68405W        W40830   8.705  39.289   2.245
68406W        W40831  21.055  44.460   2.225
68407W        W40832   9.138  39.080  14.993
68408W        W40833  28.427  39.091   4.258
68409W        W40834   9.270  35.991   5.029
68410W        W40835  27.991   8.111   3.113
68411W        W40836  29.870   6.357   1.400
68412W        W40837   0.846   1.076  13.861
68413W        W40838  29.959   1.744   1.645
68414W        W40839   6.398  17.818  10.868
68415W        W40840  23.152   3.918  14.394
68416W        W40841  17.322  31.114  14.023
68417W        W40842  40.503  26.085  12.857
68418W        W40843   6.241  37.391  10.786
68419W        W40844   9.598  15.154  10.907
68420W        W40845  30.416  21.731   1.966
68421W        W40846   3.789  12.772  11.227
68422W        W40847  11.660  31.414  14.871
68423W        W40848   3.391  23.030  11.200
68424W        W40849  17.124  32.762   3.910
68425W        W40850  10.305   3.429  13.291
68426W        W40851  35.402  17.668  13.921
68427W        W40852   8.952  20.949   0.855
68428W        W40853   5.811   3.967   3.178
68429W        W40854  44.210  23.648   0.972
68430W        W40855  10.368  25.163  14.817
68431W        W40856   8.288  17.209   0.150
68432W        W40857  21.558  21.176  10.699
68433W        W40858  15.431  10.714   1.969
68434W        W40859  12.608  14.878   4.412
68435W        W40860  19.808  43.342  12.509
68436W        W40861  32.786  17.518   3.389
68437W        W40862  28.102   7.734  10.895
68438W        W40863  15.194  26.648   4.302
68439W        W40864   8.653  16.491  14.926
68440W        W40865  27.448  21.551   0.199
68441W        W40866  22.923   7.338   2.733
68442W        W40867   5.610  36.562  11.094
68443W        W40868  28.526  38.565  13.812
68444W        W40869  28.472  14.210   2.667
68445W        W40870   1.404  25.617   4.758
68446W        W40871  27.718  11.309  11.604
68447W        W40872  15.702  11.891   3.214
68448W        W40873  11.479  36.044  11.894
68449W        W40874   3.430   2.913   4.262
68450W        W40875  16.277  15.690  14.779
68451W        W40876  26.206  43.580   3.342
68452W        W40877  12.061  41.193  11.176
68453W        W40878   5.917  33.941  14.464
68454W        W40879  14.191  33.818   1.261
68455W        W40880  28.650  13.315  13.110
68456W        W40881  21.478  23.597   0.784
68457W        W40882   9.838   4.428   1.373
68458W        W40883  36.541  33.013   2.679
68459W        W40884  22.760   8.714  14.035
68460W        W40885  20.248  11.096  11.033
68461W        W40886  30.658  31.531  14.990
68462W        W40887  36.394   6.797  12.620
68463W        W40888  22.663  38.299   4.327
68464W        W40889  24.806  18.110  10.478
68465W        W40890   9.923   5.218   1.000
68466W        W40891  36.039   7.772   3.177
68467W        W40892  30.992  13.865   1.938
68468W        W40893  44.339  28.268   0.450
68469W        W40894  14.832  41.774   2.840
68470W        W40895   9.682  15.725  12.562
68471W        W40896   2.401  14.609   0.469
68472W        W40897   8.910  24.454  14.368
68473W        W40898  21.472  11.629   1.152
68474W        W40899  39.319  26.682   2.244
68475W        W40900   3.829  22.165  11.164
68476W        W40901  27.638  30.198   1.202
68477W        W40902  16.625  30.041   4.950
68478W        W40903   4.318  30.882  13.561
68479W        W40904  24.755  39.542  13.560
68480W        W40905   0.355  23.534   0.906
68481W        W40906  14.008   9.803   0.559
68482W        W40907  19.940  13.804   4.597
68483W        W40908  34.788   3.295  10.455
68484W        W40909  28.104   5.781  10.516
68485W        W40910  30.288  44.989  14.326
68486W        W40911  14.208  28.053  12.888
68487W        W40912  38.994   5.217  14.990
68488W        W40913   9.966  27.398   2.855
68489W        W40914   0.981  20.958   3.212
68490W        W40915  23.962  30.528   2.662
68491W        W40916  26.926   1.310  14.810
68492W        W40917   4.171   6.892  10.686
68493W        W40918   1.414  18.285  14.956
68494W        W40919  41.345  27.377   2.730
68495W        W40920   8.826  37.037   4.528
68496W        W40921  17.288   3.285  13.073
68497W        W40922  37.162  15.444  11.947
68498W        W40923  19.866  27.607   4.680
68499W        W40924  25.129  30.248   4.303
68500W        W40925  40.554   5.771  13.491
68501W        W40926  10.260  19.932  13.572
68502W        W40927  34.095  28.376  13.015
68503W        W40928  24.079  44.225  11.884
68504W        W40929  30.251   5.854  13.450
68505W        W40930  36.868  44.273   3.200
68506W        W40931   8.982  13.010  14.790
68507W        W40932  29.860   6.060   1.818
68508W        W40933   0.465  32.883   2.942
68509W        W40934  31.011  31.971  12.686
68510W        W40935  28.672  41.836   3.232
68511W        W40936  42.322  38.165  12.990
68512W        W40937  23.265   7.949  11.509
68513W        W40938  43.927  22.566   0.952
68514W        W40939  37.335   8.984   0.968
68515W        W40940  13.967  27.699   4.165
68516W        W40941  26.127   6.254   2.946
68517W        W40942  44.456  20.142  12.059
68518W        W40943   7.276   8.420   2.194
68519W        W40944   8.299  32.167  13.913
68520W        W40945  18.672  44.912   0.666
68521W        W40946  30.923  15.766   0.995
68522W        W40947   5.087  41.584  13.010
68523W        W40948  34.413  29.150  12.952
68524W        W40949   5.939  27.235  10.743
68525W        W40950  26.646  29.268   0.450
68526W        W40951  10.908  31.669   2.378
68527W        W40952  38.969  15.786   4.161
68528W        W40953  16.712   3.318  11.123
68529W        W40954   2.690  42.449   3.769
68530W        W40955  20.775  21.592   0.134
68531W        W40956  14.252  10.905   3.620
68532W        W40957  35.227  29.096   4.566
68533W        W40958  34.768  12.165   2.765
68534W        W40959  42.173  25.477  11.718
68535W        W40960  27.610  17.626   1.485
68536W        W40961  20.752  36.854  10.671
68537W        W40962  18.600  42.329  12.444
68538W        W40963  24.598  20.170  14.215
68539W        W40964  29.851   1.951  13.819
68540W        W40965   3.765  33.818  11.575
68541W        W40966  14.642  38.868   2.711
68542W        W40967  12.837  39.670   3.735
68543W        W40968   5.280  31.291  11.052
68544W        W40969  17.190   4.988  12.594
68545W        W40970   2.246  22.855  11.664
68546W        W40971  19.057   2.231   1.417
68547W        W40972  29.937  21.994  11.008
68548W        W40973  42.449  17.206   0.728
68549W        W40974  36.237  36.002   1.983
68550W        W40975  21.611  31.322   1.916
68551W        W40976  15.836   4.090  14.466
68552W        W40977  12.381  42.733   2.431
68553W        W40978   5.520  31.115   4.201
68554W        W40979   0.799   1.572  11.765
68555W        W40980  34.270  37.650   0.409
68556W        W40981  20.736  16.332  12.989
68557W        W40982  38.652  36.118  11.654
68558W        W40983  18.529   3.327   0.836
68559W        W40984  34.548   5.753  12.601
68560W        W40985  27.791  11.139  13.468
68561W        W40986   1.765  26.579   1.925
68562W        W40987  41.177  42.958  10.982
68563W        W40988  20.508  19.243   3.706
68564W        W40989  43.061   2.045  11.173
68565W        W40990  25.768  41.817  13.320
68566W        W40991  42.132   6.700   2.760
68567W        W40992  41.419  38.141  14.918
68568W        W40993  14.928  11.695   9.775
68569W        W40994  17.709  34.041  10.653
68570W        W40995  42.727  35.128   2.476
68571W        W40996  33.109  20.692   1.806
68572W        W40997  33.077  13.209  12.040
68573W        W40998   7.206  28.436  14.880
68574W        W40999   7.849  26.080  10.567
68575W        W41000  10.800  23.563   1.839
68576W        W41001  29.188   7.107   1.943
68577W        W41002  38.523  35.910   1.344
68578W        W41003  16.800  33.686  12.459
68579W        W41004  14.116  25.347  11.492
68580W        W41005  10.143  20.419   4.643
68581W        W41006  23.644  40.679   0.820
68582W        W41007   9.370   4.486   3.265
68583W        W41008  17.726  35.968   4.386
68584W        W41009  13.499   6.430  11.639
68585W        W41010  16.818  43.034  12.931
68586W        W41011  34.763  38.824  10.171
68587W        W41012  25.971  25.859   3.735
68588W        W41013  40.561  29.220   2.800
68589W        W41014  27.608   3.989   0.475
68590W        W41015  41.632  34.506   2.414
68591W        W41016   2.573  28.679  11.017
68592W        W41017  14.554  30.589  13.843
68593W        W41018   4.867  38.845   3.253
68594W        W41019  44.204  29.740  12.488
68595W        W41020  20.089  24.216  14.369
68596W        W41021  27.175   5.216  10.664
68597W        W41022  12.581  24.727  13.569
68598W        W41023  38.311   6.928  14.794
68599W        W41024  29.525   2.024   2.953
68600W        W41025  32.827  20.701   2.245
68601W        W41026  23.267  20.535   3.195
68602W        W41027  13.218   1.213  10.193
68603W        W41028  10.321  22.033   1.624
68604W        W41029  25.133  31.874  14.374
68605W        W41030  12.738  26.226  13.866
68606W        W41031  34.892   4.444   4.527
68607W        W41032  27.644  19.609   2.809
68608W        W41033  27.032  40.965   0.196
68609W        W41034  25.932  11.748   4.812
68610W        W41035  22.234   1.709  14.396
68611W        W41036  25.436   7.789   4.606
68612W        W41037   2.257  11.373   4.130
68613W        W41038  37.020  26.511   0.329
68614W        W41039  25.201  18.807   0.900
68615W        W41040  22.628  23.695   0.371
68616W        W41041  40.452   0.735  13.972
68617W        W41042   0.855  21.403  13.382
68618W        W41043  21.226  32.336   0.427
68619W        W41044   7.604   4.923   3.677
68620W        W41045   6.753  24.420   1.768
68621W        W41046  27.746  40.348   2.583
68622W        W41047  28.123   4.424  11.900
68623W        W41048  32.651   1.252   4.721
68624W        W41049  38.927   8.934   4.126
68625W        W41050  27.729   4.034   3.055
68626W        W41051  44.894   1.513  13.924
68627W        W41052  15.769  18.058  10.455
68628W        W41053   9.313  24.267   1.858
68629W        W41054  36.219  13.173   0.777
68630W        W41055  41.024  11.880  11.553
68631W        W41056  38.149  15.757   2.783
68632W        W41057  34.639  17.089   3.625
68633W        W41058  14.337   6.733  14.007
68634W        W41059  25.596  22.003   4.858
68635W        W41060  38.071  13.867   1.660
68636W        W41061  19.721  34.292   1.970
68637W        W41062   6.424   5.407   1.279
68638W        W41063  34.798  35.905  12.435
68639W        W41064  38.513   7.929   0.676
68640W        W41065  20.369   8.401  11.132
68641W        W41066  21.262   5.112  12.971
68642W        W41067  17.526  12.924  12.974
68643W        W41068   9.543  12.646   4.480
68644W        W41069  35.100  15.275   3.549
68645W        W41070  31.351  39.532   3.391
68646W        W41071  24.017  19.332  11.546
68647W        W41072  40.097   4.443  13.845
68648W        W41073  19.262  35.000  14.313
68649W        W41074  37.368  42.460  12.434
68650W        W41075  14.376  24.706  14.283
68651W        W41076  22.748  40.099   4.154
68652W        W41077  35.108   0.381  13.400
68653W        W41078  39.230  30.093   3.270
68654W        W41079   8.194  35.993   1.387
68655W        W41080  38.461   0.203   0.376
68656W        W41081  17.040   6.867   2.270
68657W        W41082   6.127   1.964  11.905
68658W        W41083   8.323   9.747  14.394
68659W        W41084  30.918   3.903   2.289
68660W        W41085  33.931  29.999   0.167
68661W        W41086  32.073   1.609  13.041
68662W        W41087   0.753   5.874   2.590
68663W        W41088  12.112  27.830  13.084
68664W        W41089  24.316  39.685  11.517
68665W        W41090  42.823  23.992  10.851
68666W        W41091  12.827  12.174   0.399
68667W        W41092  15.642  40.778   1.843
68668W        W41093  17.688  25.780   1.711
68669W        W41094  27.436  12.302   1.449
68670W        W41095  39.578  27.692   0.809
68671W        W41096  37.355  36.874   1.502
68672W        W41097  12.845   6.830   1.372
68673W        W41098   5.374  13.345  11.656
68674W        W41099  12.129  13.350  12.967
68675W        W41100   6.440  24.125  11.126
68676W        W41101  34.060  41.051  14.913
68677W        W41102  37.107  33.609   0.000
68678W        W41103  36.724  33.491  13.533
68679W        W41104   2.002  43.229   2.189
68680W        W41105  27.644  44.609  13.281
68681W        W41106   5.384  25.627  14.359
68682W        W41107   5.215  14.748   3.618
68683W        W41108  12.096  42.232   3.811
68684W        W41109  42.444   5.255  12.007
68685W        W41110  30.109   6.939  11.992
68686W        W41111  33.681   9.434  13.371
68687W        W41112  33.627   9.657  14.400
68688W        W41113  17.845  22.687   4.711
68689W        W41114   3.263  26.373   4.565
68690W        W41115  34.881  13.392   1.880
68691W        W41116  36.599  13.727  14.321
68692W        W41117  41.986  30.058   2.232
68693W        W41118  32.471   5.851  13.195
68694W        W41119  10.626  32.189  13.071
68695W        W41120   5.651  37.385   5.007
68696W        W41121   2.151  37.928  12.532
68697W        W41122  30.199  12.420   2.059
68698W        W41123  40.388   6.389  10.472
68699W        W41124  38.444  20.783  13.891
68700W        W41125  17.830  28.512   0.432
68701W        W41126  41.398  36.690  11.983
68702W        W41127   7.780  22.467  10.428
68703W        W41128   5.812   9.859   2.818
68704W        W41129  42.842  43.820  12.095
68705W        W41130  22.714  23.264   4.174
68706W        W41131  38.911  30.606   1.582
68707W        W41132  17.644  41.069   4.931
68708W        W41133  28.156  39.068   2.582
68709W        W41134  25.299  11.183   1.085
68710W        W41135   0.044  43.334  12.547
68711W        W41136  40.707  22.613   2.644
68712W        W41137   7.717   8.671   4.684
68713W        W41138  23.988  36.839   4.229
68714W        W41139  43.996  22.952  11.766
68715W        W41140  35.459  14.676  11.841
68716W        W41141  23.063   9.606   1.369
68717W        W41142   0.323  33.620   1.884
68718W        W41143  37.648   6.169  14.857
68719W        W41144  29.008  24.294  10.578
68720W        W41145  13.915   3.463  12.498
68721W        W41146  31.932   5.748   0.825
68722W        W41147  20.772  12.319  11.991
68723W        W41148  42.313  44.408  11.080
68724W        W41149  28.617  31.565  13.155
68725W        W41150  14.668  36.941   4.106
68726W        W41151  13.146  10.206   0.292
68727W        W41152  11.459   1.311  11.400
68728W        W41153   4.448  16.730   3.250
68729W        W41154  11.591   3.012  13.425
68730W        W41155  14.545  14.104  12.814
68731W        W41156  16.103   5.194  10.594
68732W        W41157   5.143  21.581  12.897
68733W        W41158  23.493   9.800  14.379
68734W        W41159  34.942  18.433   5.136
68735W        W41160  23.866  42.824  12.972
68736W        W41161   1.891  13.351  14.021
68737W        W41162  42.867  42.508  12.971
68738W        W41163  31.760  24.626  10.805
68739W        W41164  20.741  12.622   4.030
68740W        W41165  12.640   5.971  12.952
68741W        W41166  33.618  16.761  13.211
68742W        W41167  19.238  29.058   0.264
68743W        W41168   2.401   3.198   2.776
68744W        W41169  35.464  12.617   0.385
68745W        W41170  28.822   8.133  12.072
68746W        W41171   8.217   4.669   1.351
68747W        W41172  39.478  39.247   4.888
68748W        W41173  11.370   5.715  12.504
68749W        W41174  43.933  34.503   5.590
68750W        W41175  23.081  29.403   0.374
68751W        W41176  31.358  20.603  13.870
68752W        W41177  36.114  31.109   1.876
68753W        W41178   5.171  37.378   4.243
68754W        W41179  27.755  31.447  13.874
68755W        W41180  17.204   0.544   3.643
68756W        W41181   5.669  28.094  10.773
68757W        W41182  28.481  23.496   3.344
68758W        W41183   8.671  22.714  11.889
68759W        W41184  17.273  40.418   2.216
68760W        W41185  31.122  22.147   2.266
68761W        W41186  37.304  42.904   1.728
68762W        W41187  35.651  31.360  11.404
68763W        W41188  11.792  43.537   4.010
68764W        W41189  24.734  13.230   2.192
68765W        W41190  15.425  32.634   2.236
68766W        W41191   9.515  23.994  10.589
68767W        W41192  39.758  20.810  14.396
68768W        W41193  44.360  33.534  12.081
68769W        W41194  37.356  38.533  10.561
68770W        W41195  41.174  16.170  13.928
68771W        W41196  13.864  26.524  10.832
68772W        W41197  41.941  38.227  14.988
68773W        W41198  39.554   8.183  11.640
68774W        W41199  34.987   3.767  13.609
68775W        W41200   9.379  11.223   3.592
68776W        W41201  10.363  37.938   4.694
68777W        W41202   0.400  40.399   4.022
68778W        W41203   0.911  27.508  14.998
68779W        W41204  34.125   3.434   4.159
68780W        W41205  12.792  12.717   2.317
68781W        W41206  19.885  32.932  13.846
68782W        W41207  23.569   7.915  10.501
68783W        W41208  19.265   2.433  11.428
68784W        W41209  19.753  29.610   3.681
68785W        W41210  18.074  38.407   4.612
68786W        W41211   4.870  13.509   5.034
68787W        W41212  35.277  35.961  13.327
68788W        W41213  32.609  32.952  13.882
68789W        W41214  40.449  13.927  12.128
68790W        W41215   2.505  17.220   1.681
68791W        W41216  13.815  18.705   1.524
68792W        W41217  43.466   6.211   4.106
68793W        W41218  31.907   5.517  10.129
68794W        W41219  28.197   0.530   3.252
68795W        W41220   9.149  28.347  14.821
68796W        W41221  36.333  27.190  11.113
68797W        W41222  10.731  31.233   3.178
68798W        W41223  13.104  17.801  13.862
68799W        W41224  37.555  35.803  13.068
68800W        W41225  35.971  23.700  13.914
68801W        W41226  36.579   3.523  11.593
68802W        W41227  16.822  23.466  11.255
68803W        W41228  21.198  24.635   2.131
68804W        W41229  31.349   6.680  13.057
68805W        W41230  37.456  41.155  14.011
68806W        W41231  31.500  23.104  14.763
68807W        W41232   2.350  22.739   3.363
68808W        W41233  39.522   9.695   4.314
68809W        W41234  35.949  11.391  13.994
68810W        W41235   9.265  24.522   3.687
68811W        W41236  28.507   4.546  12.666
68812W        W41237  24.962  31.520   2.591
68813W        W41238   2.833  35.530  14.414
68814W        W41239  12.930  40.578   0.366
68815W        W41240  38.915  28.505  10.686
68816W        W41241  22.837  12.312  10.339
68817W        W41242  11.674  23.002  14.367
68818W        W41243  43.934  11.192   4.094
68819W        W41244   0.064  12.579   2.214
68820W        W41245  37.523  21.502  10.673
68821W        W41246   1.042  15.783   4.971
68822W        W41247  43.493  12.034  14.451
68823W        W41248  41.787  13.691   3.407
68824W        W41249  19.829  40.680   0.193
68825W        W41250  24.621  23.579  10.890
68826W        W41251   3.318  26.943  11.985
68827W        W41252  32.412  30.971  11.479
68828W        W41253  26.199  27.329   2.319
68829W        W41254  33.945  33.102  11.551
68830W        W41255  15.298  10.565   3.098
68831W        W41256  15.813  40.055  11.935
68832W        W41257   9.254  10.153  10.985
68833W        W41258  37.109  17.024  12.834
68834W        W41259   8.864  10.098  11.332
68835W        W41260  19.376  12.585  10.585
68836W        W41261  31.472  18.755  11.624
68837W        W41262  10.327  30.042   1.448
68838W        W41263  42.381   5.355   2.775
68839W        W41264   8.120  34.876  14.409
68840W        W41265   9.134  27.915   4.599
68841W        W41266  44.323  26.905   3.931
68842W        W41267   3.672   9.923   1.774
68843W        W41268  18.904   0.392  11.188
68844W        W41269  10.654  29.844  14.019
68845W        W41270   3.320  13.429   1.150
68846W        W41271  41.295  22.065   5.583
68847W        W41272  19.139  18.187   1.276
68848W        W41273  17.083  32.218   3.714
68849W        W41274  39.976  37.323  12.550
68850W        W41275   8.947  25.828   1.956
68851W        W41276  11.113  36.899   0.768
68852W        W41277  28.509  18.608  12.995
68853W        W41278  31.843  42.515  13.905
68854W        W41279  39.610  30.929  10.815
68855W        W41280  38.939  37.941   3.809
68856W        W41281   0.229  25.686  14.842
68857W        W41282  20.874  41.693   2.184
68858W        W41283  40.347  40.950  13.935
68859W        W41284   5.878  34.658   0.969
68860W        W41285  18.539  30.764  13.536
68861W        W41286  24.172  32.148   4.549
68862W        W41287  24.459  24.621  14.539
68863W        W41288  24.016  33.587  14.979
68864W        W41289  14.272  22.780  10.377
68865W        W41290  33.332   4.192   3.107
68866W        W41291  23.621   6.909  10.733
68867W        W41292  24.075  19.114  14.668
68868W        W41293   2.829  38.145   3.527
68869W        W41294   0.899  19.815   0.784
68870W        W41295  10.989  40.600  10.717
68871W        W41296  41.412   9.630  12.960
68872W        W41297  37.116  44.522   2.819
68873W        W41298  40.785  29.540   4.600
68874W        W41299  39.240  42.284   1.535
68875W        W41300  21.648  13.415   2.220
68876W        W41301  30.928  31.370  11.926
68877W        W41302  15.176   6.722   2.810
68878W        W41303  16.314  11.208  14.453
68879W        W41304  32.001  31.107   2.801
68880W        W41305  40.139  21.573   1.349
68881W        W41306   4.261  28.975   2.282
68882W        W41307  40.048  18.261  10.993
68883W        W41308  31.166  20.036   3.390
68884W        W41309   4.959   4.528   4.147
68885W        W41310  30.460  33.574  10.721
68886W        W41311  35.540  22.986   2.675
68887W        W41312  39.654  38.259  11.620
68888W        W41313   3.198   3.750   3.575
68889W        W41314  23.587  34.063  10.622
68890W        W41315  29.090   9.407   0.446
68891W        W41316   2.754  24.238   0.395
68892W        W41317  21.502  28.697  12.411
68893W        W41318  40.016  18.548   0.060
68894W        W41319  16.923  18.034   0.029
68895W        W41320  43.812  40.725   1.411
68896W        W41321  25.638  16.560   4.024
68897W        W41322  22.953  31.058  12.417
68898W        W41323  38.814  25.977  13.459
68899W        W41324   4.157  37.922  13.962
68900W        W41325  10.332  44.053  12.399
68901W        W41326  28.311  13.657  11.757
68902W        W41327   3.296   5.252  10.605
68903W        W41328  42.952  10.446   1.595
68904W        W41329  34.901   6.490  12.282
68905W        W41330  41.321  18.362   2.437
68906W        W41331   7.449   8.733   1.801
68907W        W41332  17.539  15.429  12.293
68908W        W41333  25.506  35.180   3.547
68909W        W41334  40.462  27.047   3.176
68910W        W41335   7.197   9.228  10.709
68911W        W41336  40.569  36.562  14.345
68912W        W41337  30.142   7.608   1.016
68913W        W41338  22.071  18.843   1.992
68914W        W41339   5.924  25.899   0.012
68915W        W41340  12.916   9.965  13.047
68916W        W41341  23.200  44.371  11.162
68917W        W41342  32.530  36.053  13.306
68918W        W41343  17.573  25.944  12.366
68919W        W41344  37.566  34.292  11.655
68920W        W41345  19.148  31.502   2.643
68921W        W41346   6.224  22.129   4.106
68922W        W41347   6.272  17.132  12.580
68923W        W41348  38.200  42.950  14.021
68924W        W41349  41.246   8.709   2.736
68925W        W41350  17.263  16.589  10.251
68926W        W41351  39.025  23.214   2.317
68927W        W41352   5.818   8.258   0.316
68928W        W41353  41.883  35.218   2.022
68929W        W41354   1.211  16.318   3.291
68930W        W41355  22.070   8.346  10.581
68931W        W41356  33.548  19.721   1.313
68932W        W41357  10.881  15.365   2.651
68933W        W41358  43.933  32.687  11.467
68934W        W41359  43.306  19.816   2.873
68935W        W41360  36.306  34.636   0.563
68936W        W41361  10.751  43.277   3.186
68937W        W41362   1.779  27.924  14.310
68938W        W41363  36.532  33.628  14.394
68939W        W41364   9.974  16.647   2.863
68940W        W41365  17.717  17.504  13.059
68941W        W41366  41.065  26.067   1.846
68942W        W41367  36.321  24.755   1.726
68943W        W41368   8.657  22.918   4.778
68944W        W41369   5.030  41.999   3.589
68945W        W41370   6.410  39.289   2.390
68946W        W41371  19.195  35.804  11.999
68947W        W41372   1.364  40.288  13.647
68948W        W41373  39.920  44.384   3.231
68949W        W41374  32.618   0.339  10.396
68950W        W41375  38.841  42.300  12.053
68951W        W41376  16.780   2.096  11.803
68952W        W41377  29.327  42.104   0.381
68953W        W41378   4.386   2.277  13.021
68954W        W41379  20.019  11.902  10.763
68955W        W41380  39.118   2.486   2.822
68956W        W41381  32.167   4.845   3.680
68957W        W41382  10.236  30.977   3.118
68958W        W41383  40.636  35.422   2.806
68959W        W41384   2.161  31.820   3.601
68960W        W41385  28.717  14.319   1.230
68961W        W41386  38.888  25.151   4.043
68962W        W41387  17.127  18.256  14.562
68963W        W41388  10.352   0.534  13.875
68964W        W41389  40.568   9.607   0.988
68965W        W41390  29.945  24.071  13.406
68966W        W41391  15.866   1.414  10.583
68967W        W41392  25.993  36.636  14.534
68968W        W41393  28.717  39.230   0.816
68969W        W41394   6.443   3.440   2.036
68970W        W41395  28.082  21.023   1.882
68971W        W41396  42.444   4.851  13.309
68972W        W41397  31.687  36.939  10.763
68973W        W41398  12.104   8.396  10.992
68974W        W41399  34.495  28.915  12.440
68975W        W41400   8.151  27.515  11.417
68976W        W41401   3.538  15.075   0.297
68977W        W41402  36.620   3.798   2.667
68978W        W41403  22.798  33.075  10.337
68979W        W41404  41.334  20.012   4.103
68980W        W41405  10.481   0.596   4.255
68981W        W41406   9.381  21.809  11.550
68982W        W41407  28.555  11.151   0.856
68983W        W41408  42.867  27.884  13.063
68984W        W41409  17.458  31.561  14.871
68985W        W41410  42.327  33.458  13.947
68986W        W41411  34.516  42.417   2.936
68987W        W41412  27.654  19.459  13.972
68988W        W41413  22.771  19.214   0.357
68989W        W41414  41.500  42.122   4.959
68990W        W41415  11.339  30.037   1.325
68991W        W41416  43.036  11.215   4.194
68992W        W41417   1.446  22.230  14.659
68993W        W41418   2.861  37.018   1.392
68994W        W41419  15.409  43.580   3.424
68995W        W41420  19.230  25.249   2.586
68996W        W41421  25.613  18.259  11.528
68997W        W41422  35.842  41.294   2.731
68998W        W41423  37.882   6.741  11.972
68999W        W41424  18.157   6.868  13.075
69000W        W41425  20.228  37.254  11.535
69001W        W41426   6.455  43.263  12.914
69002W        W41427  44.756   0.301  14.478
69003W        W41428   7.258  23.289   1.097
69004W        W41429  11.235  25.207   2.408
69005W        W41430  11.366  15.429   3.115
69006W        W41431   4.193  14.137   1.802
69007W        W41432  30.618   0.048  11.501
69008W        W41433  12.205  16.301   2.167
69009W        W41434   2.935  26.075   4.130
69010W        W41435  30.553   0.553  11.743
69011W        W41436  39.273  21.187   3.082
69012W        W41437  37.965  16.009  12.864
69013W        W41438  32.053  17.987   2.840
69014W        W41439   7.773  38.021   3.823
69015W        W41440  41.111  42.394   0.892
69016W        W41441   1.059  16.839   1.036
69017W        W41442  18.859  36.054  14.801
69018W        W41443  18.247  28.460   3.047
69019W        W41444  41.557  21.733  12.799
69020W        W41445  27.210  12.821  13.558
69021W        W41446  12.415  31.738   4.560
69022W        W41447   7.353  22.018   0.038
69023W        W41448  18.815  26.206   4.774
69024W        W41449  44.259   9.408   1.966
69025W        W41450   5.358   3.959   4.859
69026W        W41451  30.606  38.157  12.494
69027W        W41452   1.912   5.980   2.890
69028W        W41453  17.709  21.345  12.262
69029W        W41454  42.038  32.072   4.445
69030W        W41455  39.012  18.783   1.871
69031W        W41456  39.066  33.343  10.702
69032W        W41457  29.966   1.715   3.625
69033W        W41458  42.095  30.496   1.189
69034W        W41459  15.049  20.449   1.867
69035W        W41460  29.093  13.425  11.075
69036W        W41461  22.561  23.456   3.655
69037W        W41462  30.647  43.821  13.061
69038W        W41463   8.851  26.750  12.024
69039W        W41464   5.278  11.063  10.993
69040W        W41465  18.764  36.931  11.917
69041W        W41466   8.795  30.379  12.948
69042W        W41467  31.525   2.301  13.511
69043W        W41468  33.120  34.895  13.489
69044W        W41469   1.739  42.740  12.400
69045W        W41470   9.304  40.989  12.836
69046W        W41471  21.636  13.520  11.578
69047W        W41472  37.165  20.653  10.517
69048W        W41473  32.236   3.856   2.790
69049W        W41474  33.571  18.799  13.442
69050W        W41475  36.858  25.774   4.828
69051W        W41476  19.701   4.245   3.376
69052W        W41477  16.337  33.809  10.340
69053W        W41478  34.917  12.646  12.395
69054W        W41479  40.906  22.523  10.920
69055W        W41480  12.373  33.523   2.794
69056W        W41481  12.267  42.478  11.543
69057W        W41482  34.671  15.851  12.072
69058W        W41483  18.503  16.104  13.908
69059W        W41484  15.105  27.811  12.405
69060W        W41485  14.171  38.854   1.768
69061W        W41486   7.428  43.318  14.368
69062W        W41487  37.163   1.428   0.384
69063W        W41488   1.483  16.753  14.213
69064W        W41489  10.306  10.803   0.701
69065W        W41490   6.769   9.914   0.616
69066W        W41491  23.440  40.061  11.255
69067W        W41492  25.908  13.697  11.053
69068W        W41493  22.247  14.211  13.987
69069W        W41494   0.232  18.295   3.162
69070W        W41495  10.985  20.488   2.123
69071W        W41496  23.125  41.319   4.798
69072W        W41497  11.051   3.782   2.761
69073W        W41498  21.514  41.866  14.416
69074W        W41499  43.009  24.606   2.640
69075W        W41500  30.625   2.231   1.209
69076W        W41501  27.070  24.528  14.411
69077W        W41502  37.086  31.394   5.037
69078W        W41503  27.911  43.348  14.973
69079W        W41504  20.629  30.511   2.924
69080W        W41505   2.401   7.258   4.629
69081W        W41506   2.219   7.606   1.265
69082W        W41507   3.816  39.934   4.518
69083W        W41508  35.443  14.129   2.315
69084W        W41509  19.089  10.315  12.540
69085W        W41510  35.014  22.618   0.940
69086W        W41511   2.673  17.131   3.125
69087W        W41512  12.276  12.298  12.087
69088W        W41513  24.689   2.791   0.371
69089W        W41514  27.241  23.776   2.756
69090W        W41515  20.781  32.941   2.283
69091W        W41516  17.042  39.409  13.458
69092W        W41517  33.940  27.484   1.846
69093W        W41518  44.344  24.748  13.391
69094W        W41519  43.105  41.896   2.305
69095W        W41520   3.686  12.565  12.662
69096W        W41521  10.326  19.252   0.864
69097W        W41522  33.369   2.843   1.972
69098W        W41523   9.390  35.456  12.496
69099W        W41524  40.452  14.675   2.372
69100W        W41525  28.963  10.843  11.128
69101W        W41526  24.492  25.571   1.249
69102W        W41527  35.262  24.096  11.951
69103W        W41528  28.492  12.920  12.428
69104W        W41529   9.514  27.446   4.584
69105W        W41530  25.683   7.324  11.903
69106W        W41531  16.045  25.857   1.147
69107W        W41532  44.737  32.061  10.233
69108W        W41533  11.816  28.893  11.566
69109W        W41534  41.891  19.090   3.447
69110W        W41535  26.994   9.507   3.119
69111W        W41536  29.092  38.936  11.915
69112W        W41537  42.551  11.865   0.885
69113W        W41538  24.117  21.710   3.226
69114W        W41539  25.725  15.779  13.052
69115W        W41540   5.272  24.498  12.630
69116W        W41541  32.124  34.477  13.073
69117W        W41542  18.624  13.785   2.348
69118W        W41543  36.532  17.841   3.203
69119W        W41544  27.084  14.959   2.744
69120W        W41545  44.755  11.161   1.708
69121W        W41546  18.440   8.743  12.939
69122W        W41547  32.130  21.494   1.831
69123W        W41548  11.270  15.352  11.194
69124W        W41549  17.277  19.063  13.401
69125W        W41550  13.775   9.419   1.831
69126W        W41551  13.167  44.079  14.920
69127W        W41552  26.247  29.351  12.941
69128W        W41553  35.072  21.674   4.893
69129W        W41554  33.835  32.318  13.306
69130W        W41555  38.563  32.930  12.919
69131W        W41556  28.236  38.989  14.806
69132W        W41557  25.276  31.466   0.345
69133W        W41558  33.351  40.328  12.365
69134W        W41559  12.817  28.992  11.527
69135W        W41560  18.281  39.315   2.205
69136W        W41561  41.327   2.796   4.768
69137W        W41562   6.785   0.423   2.621
69138W        W41563  32.644  44.990  13.977
69139W        W41564  44.198  24.626   3.361
69140W        W41565  39.590   8.166   3.276
69141W        W41566  10.061  28.469  13.337
69142W        W41567   1.791  18.267   3.154
69143W        W41568  21.101  44.223  10.316
69144W        W41569  25.515  23.055   1.579
69145W        W41570  38.701  30.459   4.538
69146W        W41571  14.276  12.093  12.142
69147W        W41572  14.682  32.184   4.495
69148W        W41573  34.412  19.331   4.482
69149W        W41574  24.153  39.462  13.771
69150W        W41575  19.207  35.571   1.800
69151W        W41576  35.131   1.539  12.596
69152W        W41577   0.388  27.513  14.961
69153W        W41578  29.041   5.694  14.489
69154W        W41579  18.740  25.753   1.922
69155W        W41580  40.267  26.732  12.713
69156W        W41581  15.324  20.084  12.584
69157W        W41582  40.776  16.213   4.075
69158W        W41583  21.082  15.611   0.180
69159W        W41584  27.364  21.696   2.946
69160W        W41585  16.781  22.873   0.048
69161W        W41586  36.887  20.672   4.734
69162W        W41587   9.835  33.593  10.274
69163W        W41588  41.068  14.609  14.864
69164W        W41589  29.680  30.392   1.910
69165W        W41590  24.157  22.162   4.593
69166W        W41591  38.384   3.523  11.910
69167W        W41592  19.572  30.033  14.533
69168W        W41593  37.119  25.187   0.731
69169W        W41594  33.914  15.316  11.924
69170W        W41595  38.420  17.068   1.732
69171W        W41596  20.654   5.479   3.656
69172W        W41597  16.118  34.798   0.292
69173W        W41598  33.698  15.822   4.944
69174W        W41599  12.090   7.410  12.361
69175W        W41600  37.308  41.456   4.687
69176W        W41601  33.187  14.748   2.295
69177W        W41602  40.955  18.166   2.120
69178W        W41603  30.920  37.581  11.190
69179W        W41604  32.416  17.767   3.132
69180W        W41605  30.650  15.663  11.914
69181W        W41606   2.374  42.957   4.509
69182W        W41607  31.438   7.398   1.013
69183W        W41608  13.862  34.990  12.367
69184W        W41609  22.058  38.114  13.491
69185W        W41610  18.703  26.106   3.380
69186W        W41611  14.383   0.834  11.401
69187W        W41612  37.417   8.858   2.908
69188W        W41613  27.042  29.688   2.409
69189W        W41614  22.185  39.417   0.303
69190W        W41615  37.783  11.358   9.962
69191W        W41616   4.408  33.149   4.120
69192W        W41617  14.355  20.241   0.318
69193W        W41618  15.430  19.187  12.025
69194W        W41619  43.229  14.116   0.217
69195W        W41620   8.429  23.566  14.343
69196W        W41621  12.684  44.459   2.882
69197W        W41622   0.111  19.060   1.387
69198W        W41623   8.120  28.538  12.921
69199W        W41624  42.272  31.929  11.450
69200W        W41625  42.654  14.539   0.892
69201W        W41626  44.762  29.199  11.723
69202W        W41627  28.488  16.388  12.090
69203W        W41628  36.875  24.691   4.550
69204W        W41629  30.568  32.840  14.554
69205W        W41630  27.934   4.670   0.042
69206W        W41631   3.302   2.204   2.199
69207W        W41632  44.342  30.575  13.072
69208W        W41633   3.900  10.164  11.833
69209W        W41634   6.806   1.470  14.819
69210W        W41635  32.408  40.053  12.551
69211W        W41636  40.855  33.179   2.355
69212W        W41637  17.310  16.564  13.441
69213W        W41638  17.733  30.223  13.947
69214W        W41639  43.903  36.393  12.514
69215W        W41640  29.114  12.639   2.714
69216W        W41641  15.436  10.673  12.069
69217W        W41642  22.203   6.780   2.675
69218W        W41643  36.535  41.615   1.311
69219W        W41644  20.782  39.816  13.410
69220W        W41645  42.762  33.924   1.284
69221W        W41646  42.851  23.169  11.513
69222W        W41647   4.258  27.757  13.847
69223W        W41648  24.793   6.675   3.096
69224W        W41649  36.177  26.063   2.157
69225W        W41650   7.256  14.510  11.513
69226W        W41651  14.351  37.264  13.361
69227W        W41652  11.851  11.659   9.995
69228W        W41653  25.186  17.189   1.888
69229W        W41654  15.303  41.325   3.620
69230W        W41655   6.881  21.987  14.750
69231W        W41656  27.234  40.926   2.334
69232W        W41657  22.379   8.804  12.266
69233W        W41658  27.162  29.135   4.589
69234W        W41659  16.704  31.951  10.919
69235W        W41660  39.869  16.173   3.248
69236W        W41661   5.747  26.534  12.017
69237W        W41662   7.299  11.878  12.444
69238W        W41663   8.140  24.815   3.235
69239W        W41664  36.987  17.741   0.118
69240W        W41665   3.986  20.036  13.925
69241W        W41666   1.518   2.419   3.385
69242W        W41667   6.742  16.333  13.886
69243W        W41668   5.773  22.716  11.318
69244W        W41669  39.246  27.656   3.793
69245W        W41670  16.493  37.193  12.550
69246W        W41671  29.997  28.575   4.130
69247W        W41672   0.891  41.345   0.891
69248W        W41673  31.192   0.809  13.416
69249W        W41674  20.102  42.399  13.412
69250W        W41675  27.446  14.544  13.927
69251W        W41676  25.925  20.664  12.118
69252W        W41677  30.383  23.966   4.498
69253W        W41678   9.762   7.797  14.859
69254W        W41679   1.446  19.206   0.224
69255W        W41680   8.554  39.492   1.780
69256W        W41681  23.024   5.474   2.407
69257W        W41682  18.790  41.506   2.612
69258W        W41683  29.169   5.866   0.463
69259W        W41684  12.926  38.542   0.957
69260W        W41685  40.269   4.714  13.426
69261W        W41686  42.945  37.923  12.759
69262W        W41687  30.781   6.793   0.382
69263W        W41688  21.262  42.509   4.628
69264W        W41689  34.657  14.658   4.679
69265W        W41690  24.582  24.062  10.716
69266W        W41691  10.291   4.607  14.195
69267W        W41692  27.060   1.986   0.857
69268W        W41693  14.998   0.779  12.671
69269W        W41694  25.145  20.071  12.026
69270W        W41695   4.804  14.286   0.956
69271W        W41696  25.891  18.666   4.177
69272W        W41697  20.765  11.287   1.137
69273W        W41698  42.487   1.710   2.840
69274W        W41699  40.879   5.743  10.849
69275W        W41700  38.284  26.856   2.821
69276W        W41701  32.012   8.340  12.750
69277W        W41702  23.416   6.751   4.476
69278W        W41703   0.007  16.168  12.691
69279W        W41704  11.999  32.198   3.858
69280W        W41705  20.495   2.476   1.725
69281W        W41706  32.834  36.352   3.704
69282W        W41707  44.498  36.503   3.148
69283W        W41708  21.272  32.880  11.307
69284W        W41709   6.434  30.333  13.119
69285W        W41710  31.433  26.024   1.972
69286W        W41711   5.526  37.008   4.185
69287W        W41712  25.256   1.266  13.391
69288W        W41713  33.638   8.158  14.929
69289W        W41714  41.486   5.244  12.486
69290W        W41715  34.130  39.500   2.846
69291W        W41716  33.517  12.330   4.147
69292W        W41717  42.261  33.450   3.761
69293W        W41718  33.826  15.289   2.547
69294W        W41719  35.086  21.141  11.829
69295W        W41720  42.521  40.451  13.356
69296W        W41721  24.263  38.300   3.848
69297W        W41722  13.703   9.764  14.579
69298W        W41723  16.166  15.885   3.826
69299W        W41724  16.583  31.421   3.697
69300W        W41725  24.237  35.792   0.820
69301W        W41726   1.904  17.244  12.042
69302W        W41727   5.787  28.109  14.960
69303W        W41728  22.590  13.969   0.696
69304W        W41729  28.259  24.078   3.339
69305W        W41730   7.220  27.575  13.041
69306W        W41731   2.723  20.285  13.070
69307W        W41732   1.441  14.065  11.515
69308W        W41733   5.863  27.939   2.241
69309W        W41734   2.897  26.797   0.270
69310W        W41735  38.127  28.980  14.159
69311W        W41736  31.684  31.903   4.105
69312W        W41737   0.756  39.994   4.341
69313W        W41738  40.071  13.472  11.602
69314W        W41739  19.818   8.151   4.623
69315W        W41740  44.126  41.993  13.379
69316W        W41741  28.859  42.899   2.342
69317W        W41742  40.526  10.658   0.740
69318W        W41743  36.467   1.233  10.650
69319W        W41744  28.944  38.944   2.799
69320W        W41745  12.286  40.362  11.337
69321W        W41746  29.428   7.894   4.973
69322W        W41747  24.164  40.422   1.363
69323W        W41748  36.427  13.142  10.759
69324W        W41749  24.468  22.793  14.065
69325W        W41750   0.869  44.464   2.625
69326W        W41751  27.459   7.710   0.865
69327W        W41752  14.299  29.428  12.403
69328W        W41753  38.193  36.457   3.868
69329W        W41754  44.792  13.000  14.907
69330W        W41755   7.139  29.532  12.938
69331W        W41756  16.273  22.367  11.526
69332W        W41757   5.020  44.863   2.170
69333W        W41758  26.432  36.799   5.156
69334W        W41759  39.474  26.257   3.286
69335W        W41760   6.923  42.515  14.159
69336W        W41761  14.357   6.444  11.189
69337W        W41762  14.529   8.364   1.476
69338W        W41763  31.976  44.003  11.491
69339W        W41764  28.970  12.304  14.076
69340W        W41765   3.448  10.619  11.706
69341W        W41766  42.055   4.537  14.509
69342W        W41767  13.220  17.691   3.280
69343W        W41768   0.410  35.852   0.511
69344W        W41769  43.516  34.009   2.725
69345W        W41770  27.668   9.330  13.527
69346W        W41771  43.480  31.042  10.835
69347W        W41772  30.707  25.076   4.239
69348W        W41773  20.195  21.693  10.484
69349W        W41774   9.572  12.209  10.510
69350W        W41775  29.186  42.026   4.573
69351W        W41776  18.016  30.687   1.430
69352W        W41777  25.971  11.200   4.921
69353W        W41778  23.456  15.509   4.440
69354W        W41779  23.454  36.484   0.354
69355W        W41780  26.418  23.473  10.811
69356W        W41781  30.827  16.372  12.487
69357W        W41782  21.240  16.210  12.872
69358W        W41783   1.130  41.197  10.319
69359W        W41784  23.625  35.013   3.283
69360W        W41785  28.469  41.179   1.000
69361W        W41786   9.708  34.133  14.045
69362W        W41787   2.499  31.083  13.052
69363W        W41788  44.086  10.369   0.013
69364W        W41789  15.694  24.756  12.059
69365W        W41790   6.919   3.312   3.377
69366W        W41791  39.395  15.159  14.519
69367W        W41792  24.541   0.105  13.412
69368W        W41793   8.971  30.475   5.039
69369W        W41794  25.230  35.474  12.405
69370W        W41795  15.774  16.095  12.102
69371W        W41796   6.376   7.500  14.909
69372W        W41797  22.643  35.468   4.568
69373W        W41798   1.846  20.680   0.309
69374W        W41799  10.101  22.725   3.930
69375W        W41800  11.332  29.785  14.303
69376W        W41801  12.106  18.751   1.703
69377W        W41802   3.483  17.560   3.405
69378W        W41803   5.309   3.908   1.928
69379W        W41804  16.422   7.188   0.895
69380W        W41805  25.114   5.193   1.861
69381W        W41806  31.073  39.436   5.575
69382W        W41807  26.489  35.479  11.966
69383W        W41808  39.531  22.310   4.487
69384W        W41809   0.464  20.479  12.623
69385W        W41810   3.472   8.677   3.020
69386W        W41811  21.317  19.317  14.878
69387W        W41812   1.155   9.516  12.151
69388W        W41813  29.376  17.467  13.365
69389W        W41814  11.174   5.266   1.939
69390W        W41815  13.197   7.565  14.334
69391W        W41816  10.831  21.054  14.332
69392W        W41817  36.921  41.756  14.383
69393W        W41818  26.510  23.258   0.553
69394W        W41819  40.208  35.338  14.030
69395W        W41820  20.081  15.565  11.966
69396W        W41821  39.363  13.611  14.848
69397W        W41822  32.617  44.322   3.531
69398W        W41823   5.871  40.515  14.324
69399W        W41824  44.787  30.660   2.602
69400W        W41825  29.387  41.405   1.940
69401W        W41826   8.436   2.390   0.878
69402W        W41827  23.422  34.618   4.237
69403W        W41828  21.986  26.627   3.137
69404W        W41829  27.551  43.988   2.824
69405W        W41830  23.099  42.488  10.761
69406W        W41831  38.396  10.594   4.255
69407W        W41832  20.684   6.130  13.303
69408W        W41833  14.922  38.102  13.033
69409W        W41834  23.199   6.483   0.889
69410W        W41835  34.627  10.173  11.016
69411W        W41836  43.508  24.731  13.376
69412W        W41837  11.159  41.631   0.269
69413W        W41838   4.928  31.788  11.973
69414W        W41839  33.578  28.437  14.916
69415W        W41840  32.571   8.146  10.297
69416W        W41841   4.000  11.250   3.286
69417W        W41842  19.806  24.173  14.823
69418W        W41843  28.010  41.325   0.834
69419W        W41844   6.339  40.087   3.051
69420W        W41845  24.988  35.157   0.942
69421W        W41846  11.848   8.588  12.978
69422W        W41847   3.716  10.146  14.935
69423W        W41848  31.118   3.400   4.975
69424W        W41849  27.917  11.076   2.133
69425W        W41850  36.846   3.447   0.462
69426W        W41851  24.974  40.779   1.455
69427W        W41852  17.761  43.352   4.133
69428W        W41853  11.764  40.238  12.123
69429W        W41854   7.985   8.752   4.244
69430W        W41855  44.565  34.996  12.262
69431W        W41856   2.020  42.015  12.767
69432W        W41857  16.533   7.731   0.930
69433W        W41858  35.506  18.147  12.329
69434W        W41859   9.996  29.223  10.708
69435W        W41860  24.965   8.146  12.553
69436W        W41861  34.329  39.085   3.103
69437W        W41862  11.847  26.678   2.372
69438W        W41863  35.047  10.888   0.400
69439W        W41864  20.753  14.827   1.728
69440W        W41865  14.168  16.735  13.823
69441W        W41866  20.424  21.061  13.584
69442W        W41867  36.450  19.730   5.058
69443W        W41868  41.064  28.074   4.078
69444W        W41869  33.047  23.987   2.717
69445W        W41870  11.630  17.096   1.723
69446W        W41871  12.260   7.412  13.667
69447W        W41872  21.806  14.029  11.550
69448W        W41873  17.167  29.906  12.713
69449W        W41874  39.101  11.712   1.717
69450W        W41875  10.984  24.657  10.329
69451W        W41876  13.812  12.404   0.665
69452W        W41877  34.708   7.314  10.128
69453W        W41878  36.904   1.509  10.588
69454W        W41879  16.725  13.262  11.453
69455W        W41880  38.099  13.502   0.554
69456W        W41881   6.090  32.397   1.263
69457W        W41882  39.881  39.105   3.674
69458W        W41883  27.692  12.751  14.297
69459W        W41884  17.746  14.991   1.893
69460W        W41885  23.955  14.236   1.883
69461W        W41886  23.108  10.790   4.031
69462W        W41887  44.376  16.673   2.241
69463W        W41888   0.006   1.339   4.797
69464W        W41889  17.027   2.986   0.297
69465W        W41890  21.225  27.114   0.266
69466W        W41891  11.133  24.128  13.661
69467W        W41892   4.778   9.371   0.392
69468W        W41893  43.034  24.049   2.767
69469W        W41894  26.680  40.274  10.440
69470W        W41895  21.145  33.015  14.525
69471W        W41896   5.910  12.700  12.828
69472W        W41897  15.487  17.838   0.858
69473W        W41898  30.727  29.041   5.236
69474W        W41899  25.664  14.260  14.513
69475W        W41900  43.872  13.908   2.895
69476W        W41901  29.968   4.788   2.392
69477W        W41902  38.983  22.362   5.436
69478W        W41903  13.661  40.253  10.563
69479W        W41904  43.869  23.394   1.268
69480W        W41905  13.320   5.769   4.129
69481W        W41906  31.102  18.643  12.938
69482W        W41907   8.566  29.580   2.534
69483W        W41908  13.069  42.746  12.173
69484W        W41909  25.462  41.960  12.423
69485W        W41910  41.071   3.192  12.001
69486W        W41911  34.960  16.736   0.797
69487W        W41912   7.419   7.918   2.178
69488W        W41913  17.728  36.047   1.621
69489W        W41914  40.529  30.687  13.835
69490W        W41915  30.149  19.086  12.548
69491W        W41916  43.818  22.229  12.691
69492W        W41917  42.859  31.519  14.291
69493W        W41918  44.378  44.785  14.850
69494W        W41919  28.055  19.043   4.335
69495W        W41920  23.503  32.494  13.294
69496W        W41921  41.800  15.766   4.073
69497W        W41922  34.129  40.884   3.253
69498W        W41923   6.412   2.467   2.368
69499W        W41924  44.998  30.569   5.062
69500W        W41925  40.947  42.107  13.340
69501W        W41926  34.524  18.298  12.043
69502W        W41927  11.004  14.122   2.987
69503W        W41928   1.261  20.490  13.921
69504W        W41929   1.950   9.131  13.008
69505W        W41930  40.527  24.696   1.871
69506W        W41931   4.970  30.459   1.859
69507W        W41932  24.001  27.692   2.299
69508W        W41933  31.211  21.226  12.122
69509W        W41934   4.313  11.742   2.303
69510W        W41935  25.073  10.599   1.284
69511W        W41936   0.151  34.576   3.032
69512W        W41937  32.067  10.154   3.487
69513W        W41938  40.300  16.033  10.987
69514W        W41939  36.956  25.079   1.309
69515W        W41940  18.298  35.949  14.108
69516W        W41941  13.127  10.963  10.668
69517W        W41942  13.573  31.051  12.110
69518W        W41943  17.638  36.617   1.711
69519W        W41944   9.161  39.398   1.158
69520W        W41945  33.025  43.405  10.640
69521W        W41946  43.220  21.635  10.659
69522W        W41947  41.805   6.953  11.605
69523W        W41948  25.201  28.159  10.706
69524W        W41949  10.872  23.142  10.926
69525W        W41950  10.796  13.058   0.368
69526W        W41951  30.043   2.089   4.938
69527W        W41952  38.998  28.058  13.854
69528W        W41953   8.646  13.086   0.169
69529W        W41954   6.159  38.927   0.211
69530W        W41955  42.383  19.094   1.055
69531W        W41956   1.757  44.945   4.678
69532W        W41957  17.827  19.801  12.478
69533W        W41958  15.347   9.430  12.268
69534W        W41959  28.915  13.067  14.358
69535W        W41960  43.411  15.278   3.696
69536W        W41961  37.588  22.837   4.113
69537W        W41962  17.612  28.878  14.310
69538W        W41963  13.628  28.616  13.553
69539W        W41964  44.939  44.907   3.821
69540W        W41965  22.513  16.364   3.820
69541W        W41966  16.731  11.880  10.332
69542W        W41967  14.700  35.419   4.216
69543W        W41968  37.083  33.462  11.867
69544W        W41969   8.399  41.082  13.929
69545W        W41970  20.565  17.226  12.632
69546W        W41971  27.736  32.390   4.848
69547W        W41972   5.933  32.340  13.290
69548W        W41973  20.077   4.654   3.784
69549W        W41974  40.530   5.167  12.540
69550W        W41975  19.121  14.446  14.899
69551W        W41976  37.704   8.947   4.649
69552W        W41977  35.185   0.407  10.662
69553W        W41978  36.875  42.953  14.568
69554W        W41979  16.507  27.041   2.231
69555W        W41980   3.878  24.485  14.963
69556W        W41981  36.677  38.537  12.382
69557W        W41982  41.795  34.963  10.620
69558W        W41983   3.983   9.856   0.276
69559W        W41984  22.712  21.562   0.208
69560W        W41985  35.518  18.114   0.812
69561W        W41986  44.336   5.216  13.891
69562W        W41987  35.478  19.043  11.849
69563W        W41988  42.257  44.454   3.257
69564W        W41989  17.170  34.031  12.531
69565W        W41990  24.330  36.645   3.352
69566W        W41991  24.972  43.218  12.077
69567W        W41992  27.219  24.067   0.011
69568W        W41993   1.129   3.687   0.776
69569W        W41994   4.111  44.738  13.481
69570W        W41995  36.532  43.352  12.075
69571W        W41996  27.194  25.859   0.831
69572W        W41997  29.809   9.373  10.768
69573W        W41998  26.079  32.734  11.905
69574W        W41999  31.488  21.968  14.883
69575W        W42000  42.841  31.017   1.372
69576W        W42001   2.447  10.665   3.241
69577W        W42002  11.858  34.773  13.282
69578W        W42003  29.682  26.223   1.309
69579W        W42004  41.308   3.336   3.443
69580W        W42005  23.953  22.251  10.107
69581W        W42006  13.430  12.618   4.076
69582W        W42007  25.580  39.044  13.782
69583W        W42008  17.580   5.172  12.910
69584W        W42009  26.682   4.627   2.278
69585W        W42010  31.592   6.375   3.308
69586W        W42011  40.763  23.688  14.072
69587W        W42012  13.555  27.469   4.398
69588W        W42013  42.265  42.114  14.844
69589W        W42014   4.347  15.160  13.103
69590W        W42015  34.499   7.258  13.959
69591W        W42016  24.132  37.849  13.791
69592W        W42017   4.863  13.509   3.954
69593W        W42018  32.130  16.115  10.946
69594W        W42019  13.789  40.180   1.847
69595W        W42020   5.816   4.888  14.430
69596W        W42021  23.292  20.996  14.432
69597W        W42022   1.667  23.748  11.600
69598W        W42023  21.046  38.177   4.238
69599W        W42024  33.093  29.467   0.270
69600W        W42025  30.893   6.173  14.464
69601W        W42026  43.759  38.792  11.932
69602W        W42027   3.204  42.893  14.907
69603W        W42028  16.728   3.300  13.064
69604W        W42029  22.195  14.454  13.366
69605W        W42030  39.666  31.670   2.020
69606W        W42031  34.594   9.836  13.489
69607W        W42032  37.493   7.826  10.919
69608W        W42033  16.484  32.840   1.465
69609W        W42034   8.620  33.473   0.835
69610W        W42035  10.277  32.647  12.982
69611W        W42036  32.423   7.516   4.382
69612W        W42037   2.490   2.340   3.749
69613W        W42038  25.654  16.109   0.812
69614W        W42039  14.429   0.219   2.263
69615W        W42040  37.768  13.960  13.396
69616W        W42041  33.846  44.692   1.343
69617W        W42042  27.261  22.119  11.884
69618W        W42043   1.861  35.818  12.953
69619W        W42044   2.969  22.361   2.843
69620W        W42045  31.614  32.525   1.835
69621W        W42046  20.162  26.552  13.480
69622W        W42047   6.096   4.691   4.750
69623W        W42048  20.032  15.765  13.431
69624W        W42049  44.056  20.749   3.405
69625W        W42050  21.437  30.993   0.356
69626W        W42051  39.316  19.196   4.370
69627W        W42052  15.639  19.276  12.960
69628W        W42053  18.291  38.883   4.590
69629W        W42054  15.013   4.662   4.048
69630W        W42055  42.612  43.994   1.797
69631W        W42056  24.460  16.540   3.270
69632W        W42057   0.845  12.757   1.672
69633W        W42058  26.972  29.723  10.441
69634W        W42059  12.087   1.684  10.901
69635W        W42060   8.239  39.485   4.142
69636W        W42061  39.178   0.850   1.741
69637W        W42062  14.259  24.935   4.990
69638W        W42063  40.313  40.977   1.967
69639W        W42064   1.601  42.209  12.517
69640W        W42065  11.545  26.525  12.778
69641W        W42066  18.027  33.964   0.018
69642W        W42067  38.811  30.380   4.031
69643W        W42068  30.168  30.507   0.854
69644W        W42069   2.686  37.847  12.462
69645W        W42070  36.851   6.866   0.672
69646W        W42071  40.733  16.320   0.257
69647W        W42072  13.060  37.111   2.228
69648W        W42073  17.992  33.462  11.934
69649W        W42074  40.243  25.723   4.308
69650W        W42075  18.635  36.627  10.641
69651W        W42076  36.987  28.663   2.726
69652W        W42077  15.702  30.159   4.329
69653W        W42078  27.585   5.195  11.475
69654W        W42079  39.947  44.934  11.856
69655W        W42080  14.176   7.963  11.885
69656W        W42081   4.602  28.562   2.650
69657W        W42082  20.596  26.644   2.309
69658W        W42083  29.365   6.805  11.550
69659W        W42084   1.458  41.294  14.745
69660W        W42085  34.755  43.443   2.192
69661W        W42086  41.998   5.715  11.259
69662W        W42087  38.485  37.501  14.522
69663W        W42088  39.970  43.075  11.611
69664W        W42089  38.491   7.607  12.937
69665W        W42090   8.623  40.093   0.619
69666W        W42091  15.704   4.461  14.118
69667W        W42092  15.230  21.141   0.653
69668W        W42093  34.056  44.435  14.762
69669W        W42094  40.041  21.159   5.459
69670W        W42095  35.347  42.498  13.019
69671W        W42096  25.907  41.826  12.680
69672W        W42097  20.904  34.494  13.130
69673W        W42098  42.721  43.956   4.510
69674W        W42099  30.399   3.362  12.576
69675W        W42100  15.662   7.831  14.032
69676W        W42101  17.532  15.361  12.861
69677W        W42102  21.116  23.530  11.465
69678W        W42103  17.802  13.739   0.721
69679W        W42104  37.076  36.063   2.364
69680W        W42105  36.963   6.215   3.280
69681W        W42106   6.867  40.031   3.558
69682W        W42107  37.436   7.165   5.194
69683W        W42108  44.265  11.995  13.010
69684W        W42109  18.831   6.588   2.262
69685W        W42110  39.124   8.709  10.722
69686W        W42111  36.803  17.157   3.610
69687W        W42112  39.288  35.039  11.981
69688W        W42113  11.743  34.394   3.072
69689W        W42114  16.766   7.512   1.384
69690W        W42115  42.789   0.160   2.304
69691W        W42116  20.164  12.598   4.757
69692W        W42117  13.829  42.959  10.753
69693W        W42118  36.150  22.997   1.742
69694W        W42119  30.514   7.462   2.320
69695W        W42120  27.020  19.295   1.209
69696W        W42121   3.906   3.790   2.424
69697W        W42122   4.267  35.422   1.730
69698W        W42123   3.924  25.027  11.598
69699W        W42124   0.942  15.407  12.393
69700W        W42125  21.196  36.135  13.322
69701W        W42126  35.823  35.822  13.374
69702W        W42127  17.363  18.371   4.137
69703W        W42128  34.670  27.801  11.496
69704W        W42129  24.053  38.470   2.327
69705W        W42130  13.845  41.402   3.734
69706W        W42131  16.028  32.026   1.154
69707W        W42132  30.507  35.621  11.586
69708W        W42133  26.160  18.548  13.953
69709W        W42134   4.341   2.265  12.480
69710W        W42135  33.277  17.629   0.402
69711W        W42136  22.723  42.945   3.626
69712W        W42137  27.914  10.479  11.565
69713W        W42138  18.585   3.504   3.149
69714W        W42139   4.037  36.275  13.642
69715W        W42140   4.823   7.765   1.966
69716W        W42141  35.626  33.038  10.655
69717W        W42142  33.633  11.697   4.566
69718W        W42143  10.787   2.106   0.001
69719W        W42144  40.320  14.932   1.946
69720W        W42145  38.976  14.848   0.926
69721W        W42146  19.882   5.358  13.822
69722W        W42147  37.424  42.979   3.691
69723W        W42148   0.837  34.121  13.388
69724W        W42149  22.770   0.431   4.459
69725W        W42150  17.650  26.984  11.594
69726W        W42151  18.671  18.193  11.992
69727W        W42152  18.525  13.980  12.562
69728W        W42153   2.483  20.103  14.243
69729W        W42154  33.474  11.812  13.264
69730W        W42155   8.869  28.219  14.389
69731W        W42156   7.012  18.221   2.327
69732W        W42157  13.214  22.762  14.993
69733W        W42158  16.840  22.865   0.560
69734W        W42159   2.749  33.338   3.772
69735W        W42160  16.337  27.543   2.300
69736W        W42161  18.740  38.781   3.745
69737W        W42162  38.747  13.274  14.304
69738W        W42163  30.022  40.474  11.521
69739W        W42164  33.914  10.619  14.990
69740W        W42165  37.829  36.380   4.221
69741W        W42166  44.771  27.156   3.722
69742W        W42167   4.641  29.035   1.915
69743W        W42168  37.061   5.325  14.778
69744W        W42169   6.720   2.578  12.613
69745W        W42170  34.974  16.488   1.285
69746W        W42171   0.145   8.763  10.762
69747W        W42172  18.303  10.185   0.456
69748W        W42173  38.897  40.249   2.528
69749W        W42174   7.739   1.723   5.196
69750W        W42175   3.611   0.502  14.748
69751W        W42176  28.643   5.677   2.831
69752W        W42177  26.499  40.012  14.912
69753W        W42178  15.463  11.441  11.205
69754W        W42179  25.105  20.725   2.777
69755W        W42180  31.716  22.304   0.999
69756W        W42181  31.505  28.911   3.772
69757W        W42182  17.339   7.339   2.288
69758W        W42183  12.315  28.093  13.997
69759W        W42184   6.805  33.367  12.525
69760W        W42185  32.461  33.071  12.502
69761W        W42186  41.853   4.897  10.348
69762W        W42187  27.154  41.490  12.099
69763W        W42188  21.503  11.490   3.856
69764W        W42189   5.942  27.999  13.001
69765W        W42190  25.979  31.152   1.718
69766W        W42191   8.406   5.429   3.229
69767W        W42192  41.978  18.220  13.887
69768W        W42193  10.137  38.170  14.413
69769W        W42194  38.370  34.846  13.543
69770W        W42195  16.776   8.610  13.528
69771W        W42196   0.248  27.057  14.749
69772W        W42197  13.784  41.909   4.743
69773W        W42198  17.006  22.165  13.739
69774W        W42199  17.648  28.051  11.652
69775W        W42200  26.468  36.601  13.380
69776W        W42201   0.345  36.889  14.872
69777W        W42202  33.936  21.938  14.013
69778W        W42203  30.163  13.191   3.964
69779W        W42204  22.731  15.787   5.100
69780W        W42205  41.228  34.853   3.290
69781W        W42206  18.048  15.707   3.345
69782W        W42207  32.520  39.583   0.262
69783W        W42208  33.495  13.332  10.056
69784W        W42209  25.259  20.023   1.820
69785W        W42210  19.221  17.858  14.287
69786W        W42211  36.097  18.136  10.713
69787W        W42212  30.371  19.311   4.073
69788W        W42213  23.593  31.426  13.538
69789W        W42214  39.901  27.655   2.618
69790W        W42215  33.981  15.676  11.064
69791W        W42216  18.549   4.413   1.889
69792W        W42217  36.293  20.006  12.045
69793W        W42218   4.471  23.469  13.316
69794W        W42219  28.517  43.114  14.550
69795W        W42220  41.448  33.860   3.327
69796W        W42221  21.117  15.099   3.735
69797W        W42222  31.692   9.073  10.715
69798W        W42223  11.612  38.477  11.180
69799W        W42224   0.809   1.873   0.510
69800W        W42225  40.509  27.002  10.825
69801W        W42226  28.211   8.501  14.777
69802W        W42227  11.134  11.080  11.477
69803W        W42228  36.413  19.041   2.514
69804W        W42229  34.157  25.591   1.843
69805W        W42230  42.312  38.130  10.717
69806W        W42231  22.442  43.896   4.126
69807W        W42232  44.022  14.771  12.045
69808W        W42233   6.941  43.984   1.146
69809W        W42234   7.567  44.494  11.548
69810W        W42235  21.332  43.919  11.946
69811W        W42236  44.842   8.759  13.835
69812W        W42237  41.755  41.773   2.830
69813W        W42238  22.742  26.439  12.507
69814W        W42239   7.390  15.047  14.680
69815W        W42240  29.031  15.228   0.927
69816W        W42241  29.655  18.709   1.685
69817W        W42242  21.789  33.980   0.237
69818W        W42243  41.559  35.082   5.094
69819W        W42244   1.822  35.830   0.743
69820W        W42245  30.678  21.692   0.081
69821W        W42246  12.576  41.764  13.750
69822W        W42247   1.377   9.938  11.984
69823W        W42248  36.827  23.164  13.863
69824W        W42249  36.156   6.647   4.982
69825W        W42250  41.762  21.531   2.209
69826W        W42251  27.756  13.083  11.179
69827W        W42252  21.686   0.950   1.926
69828W        W42253  31.614  10.762   2.822
69829W        W42254  32.032  25.730  11.110
69830W        W42255  39.963  12.703   1.750
69831W        W42256  12.732   7.149   4.869
69832W        W42257  13.124  31.039  12.583
69833W        W42258  22.634  25.689   2.300
69834W        W42259  21.079   0.307  10.756
69835W        W42260   6.217  44.622   2.259
69836W        W42261  31.580  36.495  11.651
69837W        W42262   2.684  12.077  11.128
69838W        W42263  23.857  24.059   4.268
69839W        W42264  41.618  16.834  14.656
69840W        W42265   8.288  24.731  11.416
69841W        W42266  12.432  37.060  12.181
69842W        W42267  23.007   0.734   4.806
69843W        W42268  19.287  24.690  14.029
69844W        W42269  20.651  26.134   0.734
69845W        W42270  27.721  13.173   1.268
69846W        W42271   0.484  42.485  10.593
69847W        W42272   4.142  22.756  13.998
69848W        W42273  33.215  11.773   0.401
69849W        W42274  12.629  41.481  13.027
69850W        W42275  15.592  26.450  11.014
69851W        W42276   5.334  16.142   3.624
69852W        W42277  34.420   0.341   0.055
69853W        W42278  39.045  39.332   1.714
69854W        W42279  26.020  10.171  13.435
69855W        W42280  14.711   6.836   4.494
69856W        W42281  36.096  40.628   3.240
69857W        W42282  29.007  35.555  12.581
69858W        W42283  22.299  26.176   0.352
69859W        W42284  19.268  29.153  13.513
69860W        W42285  34.034   1.827   4.209
69861W        W42286  40.606  25.712   3.940
69862W        W42287  24.610   0.064   3.270
69863W        W42288  19.585   1.761   1.054
69864W        W42289  22.528  44.908   0.468
69865W        W42290  31.012  37.370  12.576
69866W        W42291   8.356  17.012   3.415
69867W        W42292  42.707  37.882  13.230
69868W        W42293  21.796  26.665  10.101
69869W        W42294  44.924  15.995   0.903
69870W        W42295  18.765  42.466  13.441
69871W        W42296  35.493  33.965   0.257
69872W        W42297  40.761  38.799  11.153
69873W        W42298   6.980  24.190   3.677
69874W        W42299  41.969  25.099   1.427
69875W        W42300  43.163  10.067   9.821
69876W        W42301   8.475  34.126   3.118
69877W        W42302  11.267  25.154   1.261
69878W        W42303  28.106  14.883  13.063
69879W        W42304  27.179  43.775  11.353
69880W        W42305  43.565   5.054   0.519
69881W        W42306  31.491  40.894  10.670
69882W        W42307  41.997   1.744  11.113
69883W        W42308  21.280  30.137  12.520
69884W        W42309  44.016  21.605  11.134
69885W        W42310  41.374  13.440   1.683
69886W        W42311  29.840  37.645  12.098
69887W        W42312  32.486  44.021   2.233
69888W        W42313   5.924   1.181   4.266
69889W        W42314  36.967  17.552   1.059
69890W        W42315  28.812   4.728  11.689
69891W        W42316  41.484  42.986  11.383
69892W        W42317  29.336  23.653   3.397
69893W        W42318  13.711  42.236   0.760
69894W        W42319  15.748  27.728   0.849
69895W        W42320  31.166   1.392  11.547
69896W        W42321  33.203  12.228  13.899
69897W        W42322  20.784   0.257   1.177
69898W        W42323   0.621  38.806   2.655
69899W        W42324  34.902  31.106   3.253
69900W        W42325  14.551  42.977   1.488
69901W        W42326  32.491  30.469   0.927
69902W        W42327   5.295  33.430   2.745
69903W        W42328  31.709   4.425  10.794
69904W        W42329   7.651   2.766   1.808
69905W        W42330  21.522  38.622  14.414
69906W        W42331  33.351   7.725  11.179
69907W        W42332  18.366  24.174   2.412
69908W        W42333   2.330  44.008  10.718
69909W        W42334  30.047  27.241   1.042
69910W        W42335  32.904   0.244   2.220
69911W        W42336  19.920  14.561   1.441
69912W        W42337  22.176  18.526  10.680
69913W        W42338  30.526   2.303  11.533
69914W        W42339  24.570  37.688  10.684
69915W        W42340   6.896  14.407   3.663
69916W        W42341  40.814  43.701   4.062
69917W        W42342  22.523  29.154  10.738
69918W        W42343   4.106   9.373  11.298
69919W        W42344  23.647  25.232  13.346
69920W        W42345  32.511   0.903  13.632
69921W        W42346  43.430  12.221   2.342
69922W        W42347   9.757  11.705   2.322
69923W        W42348  23.833  22.833   2.671
69924W        W42349  42.941  33.771   3.185
69925W        W42350  10.145  21.591   0.372
69926W        W42351  32.011   3.380  11.235
69927W        W42352  19.272  19.389  12.338
69928W        W42353  11.377  17.265   0.341
69929W        W42354   2.205  42.686  10.184
69930W        W42355  30.162  38.958  13.901
69931W        W42356  32.359   0.965   3.237
69932W        W42357  19.343  43.761   2.102
69933W        W42358  35.052  23.770   2.257
69934W        W42359  19.082  28.628  11.522
69935W        W42360  14.109  20.188  13.451
69936W        W42361   2.887  39.017  13.049
69937W        W42362  11.317  13.297   4.755
69938W        W42363   7.665  16.246   3.232
69939W        W42364  17.211  10.096   5.023
69940W        W42365  19.542  21.074  14.248
69941W        W42366  29.564  38.424   5.337
69942W        W42367  27.257  22.521   1.511
69943W        W42368  42.858  18.066  12.352
69944W        W42369  16.651   0.736  11.707
69945W        W42370   9.190   9.354   3.666
69946W        W42371  14.376  41.480  14.791
69947W        W42372  42.208   1.535   3.359
69948W        W42373  14.806   5.871   4.322
69949W        W42374  43.841  29.004  10.654
69950W        W42375  33.871  39.053  10.200
69951W        W42376  29.560  39.995   4.574
69952W        W42377   2.406   1.365   2.777
69953W        W42378   4.721  35.133   4.138
69954W        W42379  14.711   2.521  11.032
69955W        W42380  21.723  44.079  10.591
69956W        W42381  33.381   1.520  11.031
69957W        W42382  30.078  34.373  13.766
69958W        W42383   3.415  36.573   4.875
69959W        W42384   9.366  18.540   2.392
69960W        W42385  40.842  37.895   3.228
69961W        W42386  17.343  35.548   3.796
69962W        W42387  16.678  32.877  11.184
69963W        W42388   7.492  13.314  13.411
69964W        W42389  36.648   6.323   0.747
69965W        W42390  18.180  41.347   0.393
69966W        W42391  40.784   2.877   2.330
69967W        W42392  14.570  11.298  12.895
69968W        W42393  18.223  23.119   3.544
69969W        W42394  11.051  44.880  14.799
69970W        W42395  22.678  34.528   9.786
69971W        W42396  13.300  36.370  13.245
69972W        W42397  37.014  22.031   3.162
69973W        W42398  24.285  36.616  11.171
69974W        W42399  41.920  41.016  13.949
69975W        W42400   5.386  16.766  10.397
69976W        W42401  30.584   1.515   0.396
69977W        W42402  21.167  40.378  14.810
69978W        W42403  39.342  43.064   4.052
69979W        W42404  38.954  44.576   4.518
69980W        W42405   8.598   5.940   1.884
69981W        W42406   1.498  38.812  10.985
69982W        W42407  32.462  34.118  13.375
69983W        W42408  30.382  28.592  12.390
69984W        W42409  25.239  36.564   1.866
69985W        W42410   3.816  39.796  11.473
69986W        W42411  40.813   4.710  11.364
69987W        W42412  34.734  21.718   0.492
69988W        W42413  29.042  13.572  14.276
69989W        W42414  36.546   3.998  14.821
69990W        W42415  24.603  23.348   0.304
69991W        W42416  10.208   1.869  13.584
69992W        W42417  34.005   1.571  13.978
69993W        W42418  32.690   2.992   3.635
69994W        W42419  20.175  44.829   2.680
69995W        W42420  40.039  18.524   0.932
69996W        W42421   8.657  27.915   0.175
69997W        W42422  41.335  11.000   0.711
69998W        W42423   0.805   6.898   0.231
69999W        W42424  25.336  23.893   5.017
70000W        W42425  26.598  19.781  14.985
70001W        W42426  33.605  33.610   0.094
70002W        W42427  38.921   7.662   3.727
70003W        W42428   6.851  13.395  11.151
70004W        W42429  15.515  25.640  14.316
70005W        W42430   7.267  35.403   0.403
70006W        W42431  42.188  39.814   0.382
70007W        W42432   8.929  38.149  14.006
70008W        W42433  36.014  12.796   1.058
70009W        W42434  33.032  34.414  12.584
70010W        W42435  19.928  14.086   3.615
70011W        W42436   4.967  26.418  14.585
70012W        W42437  43.811  33.925   1.296
70013W        W42438  15.845  24.017  13.370
70014W        W42439   8.250  24.581  12.357
70015W        W42440   4.450  41.971   2.335
70016W        W42441  19.632  11.649   0.725
70017W        W42442  33.508  39.892   3.734
70018W        W42443  20.414   3.158   3.733
70019W        W42444  24.159  18.887  11.347
70020W        W42445   1.885  10.149  12.816
70021W        W42446  38.999  32.693   2.340
70022W        W42447  36.166  32.501   1.454
70023W        W42448   0.322  15.265   1.185
70024W        W42449  25.177  11.774   3.080
70025W        W42450  20.647  29.342   0.284
70026W        W42451   1.258   0.890  12.011
70027W        W42452  18.712   7.337  10.767
70028W        W42453  38.475  27.403   1.706
70029W        W42454   6.272  16.152  13.802
70030W        W42455  25.111  13.245  13.961
70031W        W42456  16.075  34.067  12.550
70032W        W42457  38.918  40.318  10.717
70033W        W42458   3.161  39.518   0.723
70034W        W42459   3.666  17.536   2.877
70035W        W42460  33.656  37.543   2.691
70036W        W42461  38.055   6.978   4.630
70037W        W42462  42.652  10.238  12.832
70038W        W42463  40.531  29.518   1.021
70039W        W42464  32.621  44.780   3.751
70040W        W42465  17.386   5.785  11.507
70041W        W42466  34.960  42.085   1.716
70042W        W42467  13.739  15.673  10.050
70043W        W42468  12.863  36.333  12.495
70044W        W42469  29.420  24.836  11.108
70045W        W42470  20.054  20.745  12.441
70046W        W42471  30.732   5.004   1.326
70047W        W42472  43.899  22.499   2.405
70048W        W42473  13.741  43.988   4.560
70049W        W42474   1.555  43.921   3.048
70050W        W42475   8.378   0.092   0.423
70051W        W42476  38.029  34.434  10.360
70052W        W42477   6.508  38.498  12.121
70053W        W42478  18.797  16.661   4.226
70054W        W42479  25.630  10.264   0.935
70055W        W42480  40.266   1.598   0.001
70056W        W42481  21.795  31.330  14.045
70057W        W42482  44.862  27.184  12.129
70058W        W42483  27.624  20.538   1.503
70059W        W42484   1.239  32.888   4.603
70060W        W42485  35.120  17.226  13.933
70061W        W42486  30.497  23.470  13.929
70062W        W42487  26.356  27.188  14.183
70063W        W42488  44.840  28.179   3.647
70064W        W42489   1.163  15.625  10.649
70065W        W42490  13.355  15.589  11.961
70066W        W42491  39.795  36.967   2.318
70067W        W42492  10.611  17.855   2.174
70068W        W42493  25.718  31.555  12.691
70069W        W42494   8.285  12.017  13.328
70070W        W42495  14.753  26.083  11.639
70071W        W42496  38.457  38.606  12.539
70072W        W42497  21.586  22.698   4.797
70073W        W42498  16.283  41.441  12.528
70074W        W42499  42.836  24.741   3.139
70075W        W42500   4.971  34.607   0.785
70076W        W42501  30.416  13.717  10.605
70077W        W42502  40.631  10.004   4.985
70078W        W42503  31.433   3.139   2.436
70079W        W42504  25.575  23.151   2.605
70080W        W42505  41.829  17.553  11.429
70081W        W42506  35.947   3.002   1.780
70082W        W42507  25.144   1.850  13.357
70083W        W42508  28.495  17.923   2.882
70084W        W42509  23.783  36.282  11.953
70085W        W42510  11.631  16.084  12.376
70086W        W42511  39.418  12.902   1.131
70087W        W42512  12.698  30.148  13.814
70088W        W42513  38.496   1.772   3.614
70089W        W42514   2.652  38.044   4.699
70090W        W42515  19.857   5.364  13.279
70091W        W42516   5.886  34.791   4.176
70092W        W42517   7.230  20.660   0.886
70093W        W42518   9.727  42.413   0.750
70094W        W42519   4.939   7.796  12.641
70095W        W42520  14.883  42.975  11.636
70096W        W42521  36.460  31.512   1.404
70097W        W42522  30.030  16.566  10.571
70098W        W42523  40.162  27.443   1.279
70099W        W42524  37.948  14.366   1.666
70100W        W42525  33.102  37.543   2.310
70101W        W42526  24.508  11.290  13.427
70102W        W42527  29.510  38.435   1.275
70103W        W42528  18.737  17.084   2.861
70104W        W42529   4.681   3.538   4.294
70105W        W42530   1.812  17.716   4.180
70106W        W42531  15.197  19.820  14.738
70107W        W42532  32.448  29.627   4.675
70108W        W42533  35.172  17.562  14.785
70109W        W42534  36.321  18.685   2.162
70110W        W42535  22.483  23.907   1.691
70111W        W42536   0.147   8.401   0.818
70112W        W42537  33.561  26.773   4.226
70113W        W42538   0.636  29.246  11.663
70114W        W42539  44.036  15.682  11.901
70115W        W42540  38.003  25.779  10.605
70116W        W42541  17.340  27.163   3.713
70117W        W42542  21.593  37.558  10.557
70118W        W42543  34.217   0.020   1.494
70119W        W42544  24.095   2.168  12.475
70120W        W42545  33.981  34.428   1.252
70121W        W42546  16.610  20.219   3.301
70122W        W42547  31.504  21.102  10.262
70123W        W42548  19.122   9.328  14.442
70124W        W42549   3.191  31.537  11.535
70125W        W42550  16.642  10.907  10.667
70126W        W42551  19.118  18.512  13.831
70127W        W42552   2.021  41.958  12.250
70128W        W42553   6.314  36.612   3.379
70129W        W42554  12.234  24.456   0.798
70130W        W42555  15.155   3.408   4.995
70131W        W42556  34.276  25.619   2.359
70132W        W42557  27.486  42.343   3.156
70133W        W42558  25.600  11.788   2.726
70134W        W42559  32.432   8.916   4.064
70135W        W42560  32.592  14.683  10.603
70136W        W42561  30.201   7.795   0.372
70137W        W42562  18.339  41.299   2.631
70138W        W42563  15.284  28.926   3.744
70139W        W42564   7.531  30.169  12.419
70140W        W42565  14.062  21.167   2.760
70141W        W42566  38.524   9.127   3.876
70142W        W42567  27.126   3.870  14.036
70143W        W42568  38.748  17.835   3.704
70144W        W42569  41.826  12.875  12.918
70145W        W42570  25.279  39.419   4.282
70146W        W42571  15.282  32.955   2.658
70147W        W42572  27.998  36.575  13.354
70148W        W42573  38.501  24.127   1.296
70149W        W42574  11.654   7.634  11.055
70150W        W42575  10.757   6.161  10.548
70151W        W42576   5.843  10.424  10.597
70152W        W42577  22.801  22.068  12.623
70153W        W42578   8.499  35.868  11.727
70154W        W42579  41.429  10.386  13.304
70155W        W42580  22.678  44.881  13.929
70156W        W42581  39.990   0.971  14.690
70157W        W42582  14.241  37.106  12.382
70158W        W42583  33.399  21.980   4.264
70159W        W42584  42.495  22.257  10.051
70160W        W42585  29.584  39.294  13.299
70161W        W42586   0.047  34.671  12.240
70162W        W42587  43.820  34.801  12.543
70163W        W42588  21.607   7.959  10.783
70164W        W42589  37.544  41.982  12.511
70165W        W42590  26.096   1.895   4.596
70166W        W42591   2.685  39.755   1.286
70167W        W42592  13.368  40.444  12.620
70168W        W42593  32.063  21.717  13.612
70169W        W42594   2.674   3.869  10.605
70170W        W42595   0.209  22.094   1.355
70171W        W42596  15.051  33.695   1.444
70172W        W42597  13.646   8.025  11.937
70173W        W42598  41.106  33.846  12.272
70174W        W42599  34.514  30.954  12.519
70175W        W42600  25.215  13.730  13.000
70176W        W42601  21.665   8.415  12.896
70177W        W42602  41.829  21.300   4.643
70178W        W42603  25.217  36.025   1.854
70179W        W42604  39.041  29.661  11.813
70180W        W42605  20.990  19.044  12.523
70181W        W42606  16.699  10.714   1.474
70182W        W42607  37.361  36.742   2.863
70183W        W42608  17.219  17.684   0.270
70184W        W42609   4.493  36.831   3.255
70185W        W42610  36.593  34.977   0.256
70186W        W42611  18.541   9.258   0.260
70187W        W42612  26.684  41.112   5.329
70188W        W42613  37.934   1.377   2.355
70189W        W42614  15.349  32.991  10.243
70190W        W42615   5.726  37.041   0.418
70191W        W42616  11.135  22.103   5.153
70192W        W42617  37.984   2.252  10.703
70193W        W42618  20.273  34.942  11.544
70194W        W42619  44.544  14.214   0.664
70195W        W42620  35.621  14.082  13.011
70196W        W42621  14.484  42.822   5.030
70197W        W42622  26.026  40.843   0.746
70198W        W42623   8.698  32.098  12.033
70199W        W42624   9.871   3.628   1.571
70200W        W42625  13.112  11.584   1.802
70201W        W42626  39.411  11.854   1.220
70202W        W42627  26.175  34.408   1.019
70203W        W42628   4.829  23.199   4.601
70204W        W42629  22.688  11.668  14.942
70205W        W42630  18.292  17.160  10.913
70206W        W42631  23.926  41.922   3.997
70207W        W42632  41.505  17.651   0.091
70208W        W42633   2.542  33.375   0.740
70209W        W42634  27.723  14.074   4.862
70210W        W42635   2.320  26.924   4.827
70211W        W42636  36.974  26.458  11.610
70212W        W42637  17.139  16.737   3.908
70213W        W42638  29.613   1.807   0.279
70214W        W42639  32.656  41.991  11.123
70215W        W42640  11.811  25.559  12.325
70216W        W42641   7.414  32.425   1.780
70217W        W42642   1.934  20.758   3.163
70218W        W42643  31.666   3.857  13.374
70219W        W42644   7.940   7.481  13.503
70220W        W42645   1.012   2.367  10.694
70221W        W42646  25.212  20.475   3.200
70222W        W42647   1.461  40.940  11.548
70223W        W42648  31.013  44.789  12.923
70224W        W42649  14.968   7.802   2.324
70225W        W42650  22.201  30.727   2.321
70226W        W42651   3.669  40.463  13.861
70227W        W42652  19.635  25.547   1.260
70228W        W42653  44.842  24.024   0.385
70229W        W42654  19.828  22.203  12.549
70230W        W42655  11.713  16.169  11.489
70231W        W42656   9.128  33.185   4.592
70232W        W42657  26.567  18.318   2.228
70233W        W42658  33.909  41.582  14.361
70234W        W42659  16.711   3.722   4.867
70235W        W42660  15.727  16.888  11.408
70236W        W42661   3.368  10.118  11.667
70237W        W42662  26.266  25.065   2.686
70238W        W42663  31.080  34.462  10.963
70239W        W42664  16.667  21.661   1.754
70240W        W42665   6.873   7.603  11.799
70241W        W42666  17.945  21.136   1.198
70242W        W42667   3.954  19.387  12.684
70243W        W42668  23.737  31.602   0.850
70244W        W42669  28.648  21.418  12.637
70245W        W42670  30.395  29.881  12.967
70246W        W42671  26.958  34.970   4.273
70247W        W42672  41.222  40.253   1.705
70248W        W42673   4.744  30.608  13.777
70249W        W42674  21.581  41.290   4.116
70250W        W42675  38.563  33.440  10.604
70251W        W42676  41.328  20.114   1.259
70252W        W42677  34.065  38.354  13.908
70253W        W42678   2.437  22.685  14.801
70254W        W42679  14.551  12.130  11.711
70255W        W42680  13.463  25.985   1.801
70256W        W42681  39.866  38.663  11.006
70257W        W42682  16.060  38.515  10.442
70258W        W42683   1.682  17.217   3.291
70259W        W42684   8.590  20.144  12.183
70260W        W42685  17.842   3.720   4.224
70261W        W42686  31.123  42.129  13.960
70262W        W42687  17.888  36.894  11.563
70263W        W42688   2.564  30.110  14.046
70264W        W42689   9.911  28.014  13.569
70265W        W42690  15.598  13.631   4.230
70266W        W42691  30.040  38.248  10.237
70267W        W42692  24.574  44.710   0.475
70268W        W42693  20.356   6.430  11.581
70269W        W42694  23.764  11.382  10.101
70270W        W42695  39.011   8.806   0.315
70271W        W42696  14.744  17.803  14.362
70272W        W42697  43.961  40.228   3.122
70273W        W42698  20.343  27.753  10.573
70274W        W42699   9.746  10.717  11.402
70275W        W42700   5.740  29.359  12.267
70276W        W42701  20.218  40.178  14.586
70277W        W42702  33.880  22.562   0.323
70278W        W42703   0.797  35.624   3.693
70279W        W42704  35.147  20.278  13.918
70280W        W42705  24.904  31.315  14.497
70281W        W42706  44.007  14.170   2.461
70282W        W42707  20.728  44.786   4.048
70283W        W42708  44.814  36.292   0.884
70284W        W42709  42.941  39.087  13.321
70285W        W42710   0.498  20.673   0.462
70286W        W42711   8.486  21.836  12.770
70287W        W42712  23.142  29.156   2.624
70288W        W42713  14.367  44.475  13.069
70289W        W42714   0.143   6.970   2.845
70290W        W42715  11.393  43.131   4.070
70291W        W42716  22.554  40.891   0.120
70292W        W42717  42.966   0.283   1.381
70293W        W42718  23.651  17.486   2.899
70294W        W42719   1.045   3.483   1.699
70295W        W42720  40.143  28.164  12.986
70296W        W42721   1.872  11.722   2.824
70297W        W42722  23.240   4.814   2.929
70298W        W42723  10.544   5.770   4.080
70299W        W42724   2.491  32.640  12.091
70300W        W42725   4.362   0.767   2.848
70301W        W42726   4.020   2.700   0.908
70302W        W42727  11.834   6.049  12.537
70303W        W42728  26.391  26.981   2.668
70304W        W42729  21.297   7.777  13.896
70305W        W42730  21.068  11.080   2.269
70306W        W42731  41.954   2.316  11.071
70307W        W42732   0.730  18.344   3.436
70308W        W42733  33.419  18.953   0.459
70309W        W42734  43.942  32.473   0.937
70310W        W42735   9.730   3.175  12.634
70311W        W42736  29.598  33.965   4.138
70312W        W42737   2.006  21.223   4.103
70313W        W42738  33.062   4.418  13.493
70314W        W42739  10.301  40.815   0.707
70315W        W42740  38.735  10.312   2.777
70316W        W42741  39.210  35.068  13.900
70317W        W42742  23.078  28.241   2.175
70318W        W42743  39.901  13.929  12.566
70319W        W42744  38.342   5.130   4.028
70320W        W42745  27.400  30.543   3.782
70321W        W42746  25.403  20.829   4.107
70322W        W42747  21.600   7.751   3.733
70323W        W42748  20.274  32.830  12.554
70324W        W42749   5.641  14.161  14.484
70325W        W42750   6.726  43.658   3.498
70326W        W42751  17.306  32.376   4.178
70327W        W42752   3.236   6.819   1.503
70328W        W42753   6.850  41.505   2.453
70329W        W42754   6.341  18.053  13.390
70330W        W42755  42.878  19.160   0.745
70331W        W42756  23.581   7.680   2.018
70332W        W42757  26.242  22.054  11.060
70333W        W42758   2.399  44.898  14.253
70334W        W42759  22.301  44.857  12.057
70335W        W42760  34.221  34.149  13.941
70336W        W42761   0.041   9.220   4.375
70337W        W42762   9.840  40.625   4.747
70338W        W42763   0.714  41.854   1.014
70339W        W42764  10.770  28.681   3.080
70340W        W42765  35.069  26.729  14.407
70341W        W42766   2.786  26.257   0.320
70342W        W42767  20.092   8.257  14.955
70343W        W42768  28.049   5.677  14.484
70344W        W42769  43.275  31.554  11.013
70345W        W42770  33.910  35.069  10.423
70346W        W42771  31.693  38.555   1.387
70347W        W42772  25.366  32.372   2.896
70348W        W42773   0.521  32.108  14.668
70349W        W42774   9.558  20.147  12.022
70350W        W42775   7.776  21.407  13.894
70351W        W42776  13.180   4.733  14.415
70352W        W42777  29.880   5.366  14.071
70353W        W42778  25.965  16.121   3.611
70354W        W42779   4.318   2.995  14.825
70355W        W42780  35.513  20.795  12.497
70356W        W42781  38.072  34.825   4.373
70357W        W42782  15.972  38.026  11.157
70358W        W42783  28.196  13.647  14.656
70359W        W42784   3.427  39.805  12.143
70360W        W42785  21.257   6.773  11.386
70361W        W42786  16.427  20.163  11.576
70362W        W42787  29.442   2.965   0.002
70363W        W42788   9.812  21.688   4.573
70364W        W42789  14.312  30.458  11.659
70365W        W42790  37.919  27.960  12.511
70366W        W42791  23.291  29.904   2.257
70367W        W42792  30.942  34.135  14.364
70368W        W42793  28.989   0.491  14.628
70369W        W42794   9.440  26.020  13.381
70370W        W42795   2.882  12.027   0.714
70371W        W42796  39.056  16.211   1.762
70372W        W42797   0.063  25.555  13.017
70373W        W42798   5.864  29.475  14.736
70374W        W42799  44.331  43.994   4.615
70375W        W42800  27.525   1.353   4.157
70376W        W42801  39.804   2.973   3.286
70377W        W42802   8.163  43.853   3.783
70378W        W42803  27.672  21.900   0.822
70379W        W42804  28.403  26.122  12.571
70380W        W42805  13.532   9.408  14.943
70381W        W42806  32.932  20.245   1.978
70382W        W42807  33.498  43.444  11.334
70383W        W42808   8.851  36.514   4.555
70384W        W42809  33.546  13.052   0.755
70385W        W42810  32.448  16.979  14.594
70386W        W42811  15.230  23.102  14.013
70387W        W42812  15.922  23.507  13.091
70388W        W42813  36.779  37.562  10.909
70389W        W42814  10.324   7.251   3.152
70390W        W42815  37.065  30.979  11.458
70391W        W42816   5.150  27.924  11.628
70392W        W42817   3.988  15.375   3.295
70393W        W42818   4.385   9.721  13.081
70394W        W42819  25.128  11.358   0.616
70395W        W42820  39.948   9.165  11.443
70396W        W42821  23.258  27.927   3.213
70397W        W42822   0.190  23.173  14.371
70398W        W42823   8.295  10.637   1.320
70399W        W42824  16.244  32.251  12.455
70400W        W42825  25.227  20.026   0.919
70401W        W42826  33.515  36.595  12.982
70402W        W42827  22.503  31.686  12.086
70403W        W42828   4.501   9.804   0.357
70404W        W42829   7.100   1.502   1.864
70405W        W42830   7.667  41.564  13.484
70406W        W42831  11.988  21.583  11.033
70407W        W42832  39.345   5.682  14.497
70408W        W42833  25.513   3.495  14.314
70409W        W42834   0.319  25.174   1.815
70410W        W42835  37.458  34.508  13.606
70411W        W42836  14.160  10.451   4.573
70412W        W42837  11.140  38.433   2.154
70413W        W42838  36.411  20.168   4.088
70414W        W42839   6.990  19.880   2.413
70415W        W42840  31.049  43.936  10.536
70416W        W42841  10.355   6.276  11.514
70417W        W42842  39.834  38.076   0.660
70418W        W42843   2.764  38.540  13.985
70419W        W42844  26.164   9.897  11.307
70420W        W42845  44.456   4.904   3.508
70421W        W42846  17.758  14.375   4.674
70422W        W42847  21.645  25.589   3.415
70423W        W42848  24.104  11.256  11.414
70424W        W42849  30.976   0.245  12.550
70425W        W42850  15.085  33.027   2.182
70426W        W42851   9.715  14.646  12.243
70427W        W42852  14.724  35.106   0.473
70428W        W42853  11.120   0.542   1.813
70429W        W42854  30.054  18.646  13.371
70430W        W42855  10.791  17.573  11.016
70431W        W42856  30.622  38.534   4.664
70432W        W42857  36.853  10.210  11.544
70433W        W42858  38.940   8.781  10.234
70434W        W42859  32.989   8.231   4.545
70435W        W42860  27.041  41.460   0.441
70436W        W42861  24.169  33.267   2.323
70437W        W42862   0.423  16.175   4.178
70438W        W42863  27.604   8.484  13.909
70439W        W42864   1.986  14.821  10.699
70440W        W42865  39.485   2.692  12.088
70441W        W42866   4.777  32.343  13.228
70442W        W42867   7.707  23.102   4.518
70443W        W42868  38.837   3.347   2.723
70444W        W42869  34.923  26.492   2.121
70445W        W42870  35.105  42.487  14.426
70446W        W42871  24.645  22.188   2.880
70447W        W42872  43.955  36.120   4.094
70448W        W42873  18.153  37.093   0.968
70449W        W42874  42.403   8.423   2.437
70450W        W42875  17.274   6.975   3.168
70451W        W42876   4.570  14.214   4.607
70452W        W42877  22.338   0.461   1.948
70453W        W42878   1.728   0.781   0.032
70454W        W42879  22.127  21.788   1.408
70455W        W42880  11.499  31.151  13.386
70456W        W42881  13.144  22.502  12.841
70457W        W42882  13.748  24.974  13.311
70458W        W42883  37.301  41.798   4.269
70459W        W42884  28.240  39.368  14.406
70460W        W42885  20.236  20.564   0.448
70461W        W42886   3.348   7.667   3.298
70462W        W42887  12.425  14.116   4.157
70463W        W42888  12.660  30.680  13.916
70464W        W42889  32.900  27.101   1.669
70465W        W42890  41.515  16.178  12.559
70466W        W42891  10.793  34.432   1.190
70467W        W42892  26.480  30.231   9.934
70468W        W42893  39.556  18.749   2.789
70469W        W42894  29.142  29.696   3.215
70470W        W42895  40.529  25.105  11.574
70471W        W42896  29.505   0.419  11.461
70472W        W42897  28.007  23.558  11.607
70473W        W42898  41.302  31.402  11.990
70474W        W42899  27.437   9.226  13.063
70475W        W42900  19.651  23.492  12.877
70476W        W42901  44.130  29.790   4.569
70477W        W42902  11.106  14.809  12.610
70478W        W42903  18.695   1.596   3.724
70479W        W42904  23.582  25.649   1.477
70480W        W42905  32.296  41.483   0.200
70481W        W42906  13.664   6.411  14.992
70482W        W42907  13.273   6.146  12.005
70483W        W42908  43.000  16.507   0.760
70484W        W42909  29.887   1.558   0.706
70485W        W42910  21.521  29.647  12.456
70486W        W42911  23.506  19.734  14.719
70487W        W42912  24.649   5.364   2.777
70488W        W42913   8.231  35.574   4.809
70489W        W42914  40.960  40.328  13.958
70490W        W42915  32.988  25.362  13.270
70491W        W42916  32.738  14.945  13.100
70492W        W42917   1.441  33.296   5.527
70493W        W42918   7.704  43.192   4.645
70494W        W42919  15.772  36.538   2.280
70495W        W42920   3.985  14.782  13.062
70496W        W42921  39.995  44.975  13.787
70497W        W42922  10.702   9.489   1.736
70498W        W42923   0.303  31.474  13.226
70499W        W42924   6.637  20.112  10.470
70500W        W42925   7.829  23.382   1.732
70501W        W42926  25.644  32.078  13.480
70502W        W42927   7.931  33.055  10.274
70503W        W42928  32.318   0.488   3.648
70504W        W42929   9.906  37.367   4.182
70505W        W42930  38.384   9.413  11.463
70506W        W42931  33.348  10.711   4.457
70507W        W42932  16.534  33.898   0.873
70508W        W42933  27.927  41.791   2.752
70509W        W42934   1.014  33.150   0.311
70510W        W42935   7.831  25.800  13.824
70511W        W42936   1.867  20.599  11.683
70512W        W42937  25.346  25.645  11.354
70513W        W42938  10.166  29.001  14.512
70514W        W42939  21.483   5.363   0.189
70515W        W42940  25.593  25.769  13.481
70516W        W42941  35.349   2.219  13.015
70517W        W42942   8.092  24.608  12.850
70518W        W42943  43.893   4.926  13.081
70519W        W42944  12.544   7.345  12.622
70520W        W42945  15.853  37.126  14.378
70521W        W42946  36.860  20.706  11.987
70522W        W42947  32.395   5.760   2.780
70523W        W42948  14.780  18.062   4.196
70524W        W42949  44.793   2.577  14.162
70525W        W42950   3.708  18.681  10.580
70526W        W42951  43.450   9.270   3.919
70527W        W42952   4.936  20.896   2.209
70528W        W42953  31.375  18.267   2.893
70529W        W42954  14.877  18.293  12.894
70530W        W42955  10.381  14.339   0.816
70531W        W42956  23.004   8.610   2.295
70532W        W42957  27.459   7.399   1.279
70533W        W42958  21.087  15.359  10.323
70534W        W42959  35.423  32.527   3.289
70535W        W42960  28.571   5.221  13.810
70536W        W42961   1.812   2.563  12.185
70537W        W42962  10.380  35.351   2.883
70538W        W42963   3.421  29.013   3.052
70539W        W42964   4.827  33.594   0.542
70540W        W42965  11.833  31.885   0.492
70541W        W42966  25.654  20.777   0.035
70542W        W42967  29.585   0.857  10.211
70543W        W42968  15.771   8.609  13.511
70544W        W42969  13.694  28.173   1.702
70545W        W42970  11.139  14.857   4.874
70546W        W42971   8.641  29.387  13.056
70547W        W42972   0.278  33.990  11.004
70548W        W42973  13.528   0.960  12.087
70549W        W42974  27.065   3.460   1.658
70550W        W42975  32.434   0.768  13.144
70551W        W42976  12.901  29.191  10.670
70552W        W42977  17.736  25.605   4.464
70553W        W42978  12.068   3.634   3.686
70554W        W42979  37.528  24.935  13.435
70555W        W42980  33.447  10.149  14.426
70556W        W42981  15.308   8.251  10.901
70557W        W42982   5.934   8.226   1.915
70558W        W42983  12.601  10.416   2.718
70559W        W42984  24.279  33.181  12.511
70560W        W42985   5.435  21.449   0.266
70561W        W42986  40.463  38.826   2.750
70562W        W42987  42.456   5.732   3.633
70563W        W42988  35.927  23.952   3.637
70564W        W42989  12.374  37.952  11.189
70565W        W42990  39.247  27.158  14.917
70566W        W42991  11.158  33.187  12.524
70567W        W42992   0.779  43.489  12.020
70568W        W42993  33.141  19.320   4.256
70569W        W42994  20.321  25.581  10.682
70570W        W42995   3.144  44.613  14.529
70571W        W42996  15.118  25.899   3.283
70572W        W42997  34.180  21.250  11.264
70573W        W42998   1.456  40.794   2.052
70574W        W42999  23.698  34.851   3.771
70575W        W43000  35.820  42.246   0.005
70576W        W43001  34.793  43.353  13.865
70577W        W43002  31.636  21.916  13.317
70578W        W43003  41.105  29.928  10.953
70579W        W43004  12.699  17.604  14.748
70580W        W43005  12.594  27.967   3.377
70581W        W43006  32.368  35.454   2.768
70582W        W43007  18.368  30.079   4.066
70583W        W43008  43.434  29.512   9.939
70584W        W43009  31.484  10.414  10.902
70585W        W43010  31.204  24.596   3.247
70586W        W43011  23.947  25.307   4.553
70587W        W43012  21.980  35.840  11.876
70588W        W43013  10.735   8.502   1.685
70589W        W43014   1.766  41.624   0.493
70590W        W43015   0.433  12.730  10.803
70591W        W43016  21.745  20.666   2.050
70592W        W43017   7.878  43.791  11.511
70593W        W43018   6.167  30.480   1.233
70594W        W43019  27.912  30.500   0.769
70595W        W43020  20.607   0.306   3.099
70596W        W43021  15.770  41.082  11.985
70597W        W43022  23.151  17.565   1.238
70598W        W43023   9.788  36.323  10.617
70599W        W43024  25.996  21.792   0.967
70600W        W43025  38.114  41.649   4.086
70601W        W43026  42.940  24.307   3.711
70602W        W43027  23.088  28.421  12.110
70603W        W43028  14.049   8.687  13.330
70604W        W43029  34.367  43.284  12.929
70605W        W43030   7.237  10.191   0.759
70606W        W43031  11.724   4.658  14.447
70607W        W43032   2.428  13.298  12.676
70608W        W43033  30.487  41.110   4.644
70609W        W43034   4.208  34.434   3.523
70610W        W43035  41.311   7.276  12.578
70611W        W43036  12.935  26.748   0.857
70612W        W43037  14.033  25.736   2.700
70613W        W43038  30.849  20.458  13.919
70614W        W43039   3.256   2.436  10.525
70615W        W43040   7.183  35.119  14.812
70616W        W43041  11.337  16.758  14.446
70617W        W43042   9.635  26.537   0.863
70618W        W43043  32.494  33.854   3.166
70619W        W43044   8.593  10.818   3.356
70620W        W43045  37.623  29.502   3.096
70621W        W43046  19.176  31.891  13.333
70622W        W43047   8.770  16.838  13.003
70623W        W43048  26.937  38.073  12.407
70624W        W43049  35.917  30.887   3.258
70625W        W43050   8.728  18.795   0.446
70626W        W43051  12.268  34.691  11.635
70627W        W43052   3.714  13.158  13.905
70628W        W43053  10.224  23.652  11.473
70629W        W43054  39.836  16.639  13.913
70630W        W43055  18.320   3.294   1.323
70631W        W43056  23.979  31.196   0.042
70632W        W43057   8.881  20.875   2.306
70633W        W43058  29.090  17.276   0.353
70634W        W43059  24.537  34.966   1.301
70635W        W43060  35.151  22.226   1.287
70636W        W43061  18.700  35.562  14.862
70637W        W43062  44.393  22.622   0.258
70638W        W43063  12.444   0.889   4.199
70639W        W43064  33.211   4.824  13.988
70640W        W43065  13.185  25.057  14.399
70641W        W43066   5.453  32.516   3.755
70642W        W43067  15.053  26.624   3.791
70643W        W43068  37.657  35.642   0.873
70644W        W43069   1.948  20.897  12.665
70645W        W43070  15.722  33.663  14.763
70646W        W43071  37.028   8.494   2.901
70647W        W43072  31.358   1.199  12.654
70648W        W43073  44.271  42.873  13.921
70649W        W43074  14.432  15.463   0.110
70650W        W43075  11.733   9.436  12.709
70651W        W43076   2.882   7.042  11.429
70652W        W43077   9.955  35.184   2.232
70653W        W43078  40.977   7.693  10.697
70654W        W43079  10.416  34.334   2.595
70655W        W43080  40.835  31.846   2.669
70656W        W43081  41.333  29.510  11.164
70657W        W43082  24.632   3.571  14.779
70658W        W43083  30.937  33.541  13.423
70659W        W43084  16.082  20.002  11.230
70660W        W43085   5.014  17.523  12.885
70661W        W43086  17.697  31.663   4.169
70662W        W43087   3.977  15.075  10.765
70663W        W43088  34.894  26.550  14.904
70664W        W43089  33.864   8.886   3.609
70665W        W43090   5.184   1.968   0.819
70666W        W43091  20.174  21.592   2.796
70667W        W43092  34.799  10.202  14.402
70668W        W43093  25.749  19.959  11.518
70669W        W43094  13.443  19.964   3.791
70670W        W43095  24.642   9.826   4.142
70671W        W43096  13.063  40.349   4.204
70672W        W43097   0.192  31.399  12.734
70673W        W43098  30.624  40.654  14.893
70674W        W43099  28.587  30.192   1.391
70675W        W43100  27.521   6.355   4.386
70676W        W43101  29.902  44.795   2.136
70677W        W43102  43.377  34.570  13.988
70678W        W43103  18.836  11.167   3.626
70679W        W43104   6.748  29.637   1.356
70680W        W43105   8.173  40.357   4.502
70681W        W43106  11.604  13.994   3.734
70682W        W43107   3.581  41.230   0.916
70683W        W43108  35.556  44.957   1.272
70684W        W43109  19.752  30.855  13.972
70685W        W43110   2.183  10.241   1.831
70686W        W43111  33.360  43.248   0.244
70687W        W43112  35.601  17.765  13.352
70688W        W43113   0.657  34.331  10.918
70689W        W43114  14.300  26.126   4.125
70690W        W43115  41.935  33.809  10.098
70691W        W43116  34.388  34.618  11.002
70692W        W43117   4.713   2.919   2.446
70693W        W43118  38.418  23.613   0.460
70694W        W43119  42.289  10.752  11.576
70695W        W43120  38.425  20.670  11.670
70696W        W43121  21.170  38.072  13.495
70697W        W43122  16.792  19.014   0.905
70698W        W43123  36.346  22.777  11.633
70699W        W43124  16.189  22.367  13.414
70700W        W43125  24.648  22.834   0.329
70701W        W43126  21.656   6.455  14.731
70702W        W43127   8.471   3.532   1.895
70703W        W43128  42.088  37.581   2.782
70704W        W43129  41.597  11.887  11.621
70705W        W43130  18.322  31.067  13.885
70706W        W43131  39.884   8.338   2.846
70707W        W43132  28.117  35.439   2.402
70708W        W43133   1.842  22.634  14.276
70709W        W43134   7.023  32.381  14.409
70710W        W43135  27.984  30.997  11.672
70711W        W43136  42.628  23.646   1.734
70712W        W43137  44.356   3.885   4.586
70713W        W43138  29.225  36.545  12.838
70714W        W43139  22.681  23.740   3.203
70715W        W43140  31.630  21.200   2.154
70716W        W43141  21.710  15.707  14.507
70717W        W43142  17.875   3.219   4.047
70718W        W43143   3.705  32.475  13.516
70719W        W43144  16.677  43.760   4.907
70720W        W43145  35.548  38.960   4.545
70721W        W43146  38.317  42.541   1.684
70722W        W43147  31.605  16.726  11.614
70723W        W43148  14.875  20.212   2.350
70724W        W43149  16.265  20.160  14.778
70725W        W43150  17.314   2.990   3.324
70726W        W43151  31.367  44.546  13.984
70727W        W43152  20.329  16.058   0.487
70728W        W43153  31.949  31.528  13.467
70729W        W43154  34.999   6.138  13.298
70730W        W43155  23.009   9.214  10.723
70731W        W43156  20.572  39.020  14.018
70732W        W43157  25.202  10.248   3.710
70733W        W43158   0.854   0.829  13.415
70734W        W43159  27.903  11.242  13.997
70735W        W43160  42.453  13.406   2.735
70736W        W43161  19.741  39.913   1.704
70737W        W43162  21.170  28.604   2.343
70738W        W43163  41.921  23.286   4.476
70739W        W43164  17.162   9.798  13.223
70740W        W43165  28.441  19.972   1.291
70741W        W43166  41.314  27.608  14.734
70742W        W43167  44.387  25.964   3.152
70743W        W43168   8.955  44.727  12.853
70744W        W43169  16.240  35.060  10.139
70745W        W43170  13.319   5.397   4.756
70746W        W43171  30.302   2.347   3.998
70747W        W43172  13.849  38.451  14.526
70748W        W43173   9.414   2.424   4.908
70749W        W43174  14.196  11.444   0.001
70750W        W43175  23.463  31.163   2.334
70751W        W43176  18.356  22.589   4.794
70752W        W43177  23.173  44.355  11.707
70753W        W43178   8.116  22.780   4.050
70754W        W43179  35.832  14.907  11.606
70755W        W43180  31.284  35.892  12.375
70756W        W43181   0.725  27.431   4.301
70757W        W43182   7.895  14.824  14.714
70758W        W43183  21.632  26.030   3.685
70759W        W43184   8.632  24.016  14.060
70760W        W43185  15.720  10.304   3.393
70761W        W43186  27.564   2.214  14.903
70762W        W43187  43.341  20.620  12.033
70763W        W43188   3.412  10.647  12.955
70764W        W43189  31.985   2.982   2.395
70765W        W43190   9.092   7.009  14.906
70766W        W43191  43.295  41.738  14.018
70767W        W43192  18.534  37.233   0.385
70768W        W43193  37.524  26.526   2.170
70769W        W43194  25.520  15.303   1.248
70770W        W43195  40.105   4.786  14.846
70771W        W43196  34.587  10.247   2.426
70772W        W43197  18.167  33.144   0.369
70773W        W43198  27.620  40.000  10.196
70774W        W43199  13.643  19.142  10.756
70775W        W43200  25.199  21.583  11.265
70776W        W43201  29.221  13.124   4.295
70777W        W43202   1.319  16.050  12.482
70778W        W43203  12.825  40.941   4.556
70779W        W43204  42.819  36.061   1.308
70780W        W43205  36.341  34.011  14.705
70781W        W43206  37.837   6.000  13.327
70782W        W43207  24.209  28.044   3.296
70783W        W43208   7.354  43.838  10.775
70784W        W43209   7.886   6.356  14.538
70785W        W43210   1.178  15.195   0.680
70786W        W43211  30.395  20.618   1.070
70787W        W43212  14.366   6.796   4.075
70788W        W43213  24.112   5.617   0.595
70789W        W43214  35.912  36.513   3.678
70790W        W43215  43.434  29.408   4.204
70791W        W43216  40.824  39.821  14.391
70792W        W43217  10.308  38.332   1.331
70793W        W43218  31.614   2.427   4.012
70794W        W43219   7.040  10.909   4.105
70795W        W43220  10.670  19.249   1.428
70796W        W43221  15.637  16.296  13.055
70797W        W43222  27.616   0.330   2.729
70798W        W43223  27.175  43.333   1.939
70799W        W43224  36.038  32.695   4.321
70800W        W43225   0.836   7.158  12.017
70801W        W43226  10.320  12.124   2.946
70802W        W43227  41.289  43.562   1.379
70803W        W43228   5.942   1.688   4.229
70804W        W43229  40.927  38.472   2.082
70805W        W43230   6.327  30.363   4.913
70806W        W43231  33.124  32.524  10.465
70807W        W43232  39.751  16.931  13.493
70808W        W43233  24.171  34.769  11.547
70809W        W43234  19.998  30.443   4.672
70810W        W43235   4.867  31.855   9.892
70811W        W43236   0.963   1.329  13.287
70812W        W43237  23.522   0.435  14.321
70813W        W43238  20.503  18.823  12.548
70814W        W43239  18.082  27.504  11.103
70815W        W43240  23.703   3.485   3.199
70816W        W43241  22.189  40.351   0.710
70817W        W43242   9.351  32.865   0.472
70818W        W43243  43.848  20.246  10.967
70819W        W43244  40.418  13.076   4.515
70820W        W43245  32.907  14.773  14.093
70821W        W43246  24.504  44.255  13.888
70822W        W43247  27.223   6.881  14.028
70823W        W43248  21.023  10.631  11.495
70824W        W43249   5.723  39.566   1.865
70825W        W43250   1.218  37.966   4.296
70826W        W43251  15.045  33.577  11.929
70827W        W43252  15.290  32.224  10.644
70828W        W43253  44.179  11.355  10.699
70829W        W43254  31.183  30.849   1.291
70830W        W43255   7.833  30.229   2.842
70831W        W43256  42.277  22.656   2.406
70832W        W43257  36.117  19.257  11.185
70833W        W43258  44.135  39.428   4.840
70834W        W43259  23.612  37.300   1.372
70835W        W43260  33.886  12.745  12.883
70836W        W43261  29.076  24.161   2.794
70837W        W43262   4.953  35.135  11.645
70838W        W43263  15.081   4.815   1.206
70839W        W43264  21.108  19.458  13.416
70840W        W43265   1.045  39.068   5.050
70841W        W43266  20.240   8.625   3.667
70842W        W43267  25.759  12.281  12.106
70843W        W43268   8.650  27.633   1.505
70844W        W43269  26.567   8.856   2.020
70845W        W43270  43.796  39.362   4.469
70846W        W43271   5.662   2.246   1.855
70847W        W43272  27.657   5.437   2.854
70848W        W43273  41.243  13.497  10.675
70849W        W43274  32.053  18.757   4.637
70850W        W43275  43.980  19.171  11.089
70851W        W43276   8.147  38.064   0.410
70852W        W43277  39.316   4.534  13.518
70853W        W43278  33.495   1.710  10.566
70854W        W43279   1.592  40.066   2.224
70855W        W43280  37.921  42.526  13.902
70856W        W43281   0.938  21.331   0.492
70857W        W43282  24.866  10.956   3.276
70858W        W43283   5.436   9.326  12.363
70859W        W43284  22.433  40.878  13.140
70860W        W43285  12.576  13.724  13.471
70861W        W43286   6.354  12.110  13.944
70862W        W43287  33.083   1.085   4.420
70863W        W43288  19.783  21.109  10.964
70864W        W43289   4.374  12.588  11.871
70865W        W43290   2.108   5.739  14.361
70866W        W43291  14.083  14.019   0.941
70867W        W43292   3.497   5.165   0.823
70868W        W43293  23.959   0.392  10.667
70869W        W43294  16.638  43.858   4.381
70870W        W43295  28.675  26.578   3.794
70871W        W43296  33.038  28.101  11.000
70872W        W43297   6.150  26.113   2.374
70873W        W43298  14.756  36.001  11.073
70874W        W43299  23.999  41.726   0.040
70875W        W43300  33.971  28.213   4.071
70876W        W43301  11.203   3.799  11.643
70877W        W43302   3.827  28.892   4.938
70878W        W43303  12.575  14.083   2.826
70879W        W43304   1.781  31.519   0.292
70880W        W43305   6.404  28.011   1.621
70881W        W43306  39.918  31.928   2.372
70882W        W43307  30.570  22.541   1.684
70883W        W43308  24.504   8.660  11.964
70884W        W43309  18.366  11.706   4.687
70885W        W43310  27.409  43.376   0.011
70886W        W43311  37.530   4.451   1.406
70887W        W43312  25.099  23.011   3.573
70888W        W43313   7.220  41.951  13.290
70889W        W43314   2.779  21.249   3.136
70890W        W43315  28.918   4.456   3.584
70891W        W43316   8.814  27.538   0.535
70892W        W43317  37.802  37.563   1.760
70893W        W43318   2.778  42.827   2.283
70894W        W43319  43.071  26.242  10.713
70895W        W43320  29.408  44.514  13.599
70896W        W43321   6.808  25.592  12.596
70897W        W43322  25.483  41.323  12.579
70898W        W43323  14.305  27.232  14.582
70899W        W43324   2.268  28.620   4.365
70900W        W43325  33.926  28.473   2.770
70901W        W43326  32.092  30.940   5.013
70902W        W43327  32.221  44.218   3.215
70903W        W43328  39.946  31.180  11.185
70904W        W43329   8.922  24.242  11.072
70905W        W43330  32.643  20.224  11.068
70906W        W43331  33.834   5.951   4.284
70907W        W43332  36.131  16.072   4.441
70908W        W43333  20.331  44.404  12.798
70909W        W43334   1.564  35.384  13.984
70910W        W43335  31.023  32.946  11.117
70911W        W43336  43.419  27.036   2.695
70912W        W43337  27.553   6.305   2.424
70913W        W43338  33.058  32.352   0.412
70914W        W43339   1.454  23.307   3.696
70915W        W43340   1.248   1.195   3.715
70916W        W43341  21.665  13.296  12.071
70917W        W43342  36.843  41.342  11.552
70918W        W43343   5.042   2.228   4.639
70919W        W43344   1.747  24.595  10.539
70920W        W43345  16.583  14.848  12.655
70921W        W43346  30.434  31.489   2.707
70922W        W43347  21.218   6.199  14.784
70923W        W43348  43.337   1.205  12.914
70924W        W43349   8.046  40.603  14.536
70925W        W43350  27.982  25.672   4.539
70926W        W43351  18.352   7.876  13.887
70927W        W43352  31.877  20.801  11.511
70928W        W43353  40.704  14.351   4.980
70929W        W43354   6.266  17.801  11.827
70930W        W43355  28.633  34.437   0.150
70931W        W43356  21.165  38.342  12.189
70932W        W43357  41.152  30.595   1.624
70933W        W43358   6.856  33.233   2.584
70934W        W43359  29.758  22.157  10.251
70935W        W43360  35.089  40.417  11.040
70936W        W43361  44.512  35.402  13.095
70937W        W43362  31.168  11.487  12.631
70938W        W43363  12.820   2.131   1.360
70939W        W43364  41.273   0.097   3.258
70940W        W43365  36.770  15.735  12.131
70941W        W43366  34.038  24.087   3.844
70942W        W43367  36.856  41.334  12.930
70943W        W43368   2.727  30.635  12.414
70944W        W43369  43.443   1.307   0.894
70945W        W43370   3.351  15.231  12.845
70946W        W43371  31.421   5.750   0.808
70947W        W43372   6.403  26.001   4.178
70948W        W43373  41.614  26.968  10.722
70949W        W43374   6.448  44.607  10.167
70950W        W43375  22.583  13.839   1.650
70951W        W43376  40.131  31.604   0.415
70952W        W43377  22.945  40.945  12.042
70953W        W43378  33.853  37.080  12.229
70954W        W43379  42.315  15.303  14.764
70955W        W43380  10.825  13.228   1.407
70956W        W43381   3.172  23.033   0.927
70957W        W43382  39.952  38.605   3.673
70958W        W43383   9.030  11.120   3.214
70959W        W43384   0.972  39.249  10.687
70960W        W43385   9.864  21.454  12.583
70961W        W43386   4.277  29.419   0.638
70962W        W43387  14.625  39.028   3.592
70963W        W43388   6.623   9.278   0.924
70964W        W43389  30.153  35.567   0.559
70965W        W43390   2.480   7.873  11.160
70966W        W43391  35.492   5.894   0.042
70967W        W43392  31.305  31.375   0.843
70968W        W43393  33.569   2.239  10.528
70969W        W43394  36.790  26.154  10.548
70970W        W43395  32.273  33.613  13.375
70971W        W43396  44.356   3.959   4.062
70972W        W43397  42.385  28.813   2.727
70973W        W43398   3.742  36.900   2.321
70974W        W43399  33.957  42.976   4.209
70975W        W43400  21.757  23.368   4.209
70976W        W43401  17.163  32.669   2.887
70977W        W43402  44.210  15.133  10.666
70978W        W43403  38.950  16.848  11.682
70979W        W43404  40.452  34.130   0.876
70980W        W43405   7.325  32.481   3.829
70981W        W43406   8.872   0.323  11.675
70982W        W43407  18.184  41.033  12.501
70983W        W43408  25.612  42.766   4.234
70984W        W43409  25.755  13.588   0.837
70985W        W43410  17.674   2.260   0.393
70986W        W43411  25.162  21.644   3.657
70987W        W43412   0.709  26.599   3.911
70988W        W43413  40.336  19.513  11.165
70989W        W43414   4.171  20.064  13.411
70990W        W43415  36.797  43.396  14.858
70991W        W43416  24.452  38.668   3.097
70992W        W43417  17.287  17.801   0.896
70993W        W43418  17.559  18.634  13.390
70994W        W43419   6.761   5.813   2.784
70995W        W43420  42.739  30.539  12.902
70996W        W43421  40.426  24.234   3.650
70997W        W43422  42.847  21.504  11.911
70998W        W43423   2.236  42.454   0.739
70999W        W43424   9.823   8.344   4.973
71000W        W43425  29.699  26.999   0.718
71001W        W43426  37.357  44.969  12.836
71002W        W43427  11.314   0.805   0.226
71003W        W43428  19.323  19.854  12.553
71004W        W43429  12.176  26.276   1.274
71005W        W43430  24.440   6.860  11.026
71006W        W43431   6.693  23.947   1.958
71007W        W43432  29.463   2.279  10.723
71008W        W43433  40.420  16.494   2.664
71009W        W43434   9.628  17.578   0.979
71010W        W43435   6.342  27.193   0.938
71011W        W43436  30.614  24.469   1.219
71012W        W43437  23.683   0.191   3.722
71013W        W43438  42.060  28.999  11.145
71014W        W43439  25.278   1.875   4.279
71015W        W43440  35.474  26.748   5.091
71016W        W43441  33.180  40.545   2.693
71017W        W43442  42.723   3.478  14.145
71018W        W43443  35.965  38.018   0.986
71019W        W43444  26.380   5.805   4.145
71020W        W43445  35.116  14.421   4.690
71021W        W43446  14.177   8.435  11.073
71022W        W43447   3.653  26.013  14.962
71023W        W43448  20.003  23.606   1.363
71024W        W43449  27.583  14.790   3.887
71025W        W43450  12.547  44.779  12.964
71026W        W43451  23.935  40.283   1.911
71027W        W43452  43.043  25.686  13.366
71028W        W43453  14.057   3.956  12.472
71029W        W43454  27.095  34.444  10.955
71030W        W43455  25.741  20.586   0.494
71031W        W43456  26.252  13.185  12.107
71032W        W43457  35.618  42.380   1.840
71033W        W43458  30.594  44.460   3.875
71034W        W43459  34.932   4.666  11.074
71035W        W43460  35.482  30.588   0.907
71036W        W43461  41.548   2.423  11.362
71037W        W43462   6.014  23.504  12.924
71038W        W43463  17.739  43.168  12.158
71039W        W43464  44.352   2.922  10.689
71040W        W43465   0.010  24.789   5.198
71041W        W43466  39.196  31.368   0.275
71042W        W43467  31.156  23.102   5.056
71043W        W43468  11.545  32.489  13.457
71044W        W43469  33.917  19.870  11.361
71045W        W43470  36.805  14.236  13.558
71046W        W43471   6.185  36.866   0.304
71047W        W43472   6.087  18.654   2.353
71048W        W43473  43.915  10.355   4.053
71049W        W43474   7.377   5.617   4.216
71050W        W43475   4.635  25.709  14.892
71051W        W43476  30.445   9.469  13.499
71052W        W43477  25.460  31.497   2.621
71053W        W43478  15.845  21.294  11.689
71054W        W43479  19.782   7.849   0.038
71055W        W43480  25.027  28.557   4.237
71056W        W43481  10.143   2.893  12.549
71057W        W43482  28.024   6.379  12.593
71058W        W43483   0.071   7.812   2.808
71059W        W43484  43.967   3.284   2.834
71060W        W43485   1.745  25.136  11.114
71061W        W43486   5.680  36.983  11.462
71062W        W43487   7.926  16.308   2.795
71063W        W43488  38.074  10.533  10.345
71064W        W43489  28.212   8.398   2.741
71065W        W43490  14.494  41.612   2.076
71066W        W43491  10.649  28.686  12.451
71067W        W43492   7.795  24.476  13.740
71068W        W43493  18.434  10.573   1.311
71069W        W43494  35.586   3.654  11.561
71070W        W43495  20.156  32.128  11.574
71071W        W43496  33.112   8.738  12.536
71072W        W43497  17.033  21.557   4.505
71073W        W43498  44.561  16.811   2.730
71074W        W43499  21.766   4.088  14.311
71075W        W43500  10.640   7.870   4.836
71076W        W43501  33.452  25.206   3.273
71077W        W43502  34.007  14.869   3.444
71078W        W43503  16.694  37.119  12.081
71079W        W43504  34.840  43.502  12.950
71080W        W43505  39.038  31.636  11.777
71081W        W43506  38.280   8.729   3.238
71082W        W43507  25.901  14.148  11.286
71083W        W43508  26.527  28.009   0.860
71084W        W43509   8.501  31.665   1.274
71085W        W43510  10.333  11.757   0.777
71086W        W43511  19.145  10.391   2.316
71087W        W43512  22.413  29.235  14.509
71088W        W43513  33.925  38.020  12.443
71089W        W43514  20.546  19.105  12.125
71090W        W43515   4.945   5.703  11.616
71091W        W43516  22.260  39.355   1.699
71092W        W43517  28.332  23.296   5.137
71093W        W43518  16.656  11.991   0.506
71094W        W43519  18.630  31.064   1.241
71095W        W43520   4.183  44.940   3.957
71096W        W43521   6.395  39.846  14.000
71097W        W43522   5.753  11.177  11.148
71098W        W43523  35.649  36.780   1.833
71099W        W43524  11.860   9.065   9.909
71100W        W43525   0.807  11.297  14.967
71101W        W43526  31.361  24.840   0.384
71102W        W43527  20.674  17.942   0.423
71103W        W43528  30.403   4.196   1.784
71104W        W43529  22.070  34.002  14.302
71105W        W43530  20.385  23.730   0.393
71106W        W43531   1.806  21.916  12.425
71107W        W43532  31.599   9.371  11.129
71108W        W43533   0.816  20.772  13.847
71109W        W43534  15.049  29.020   4.192
71110W        W43535  12.279  42.052   4.269
71111W        W43536  37.497   5.408   1.244
71112W        W43537  13.118  28.555   4.766
71113W        W43538  29.984  19.659   3.353
71114W        W43539  38.277   9.853   0.215
71115W        W43540  15.720  13.199   0.293
71116W        W43541   0.975  30.116   0.911
71117W        W43542  10.717  35.298  14.490
71118W        W43543  26.565  25.727  12.778
71119W        W43544  11.212  30.907   1.207
71120W        W43545  25.718  25.898  11.102
71121W        W43546   4.653  36.388   4.514
71122W        W43547  37.799  34.006  11.124
71123W        W43548  12.338   9.419   4.441
71124W        W43549  21.696  15.816   3.674
71125W        W43550  30.161  33.450  12.100
71126W        W43551  17.263  35.997   2.466
71127W        W43552  29.229   6.188  11.980
71128W        W43553  42.334  37.597   4.076
71129W        W43554  32.569  19.227   0.059
71130W        W43555  28.186  25.944   1.249
71131W        W43556  14.926  30.505  14.921
71132W        W43557  32.085  26.054  12.125
71133W        W43558   7.326  26.111  10.545
71134W        W43559  31.014  23.167  14.579
71135W        W43560  30.323  23.717   5.077
71136W        W43561  31.842  25.973   3.657
71137W        W43562  43.838  29.456   0.298
71138W        W43563   1.656  32.511   2.588
71139W        W43564  26.569  11.257   2.910
71140W        W43565  23.131  16.771   1.731
71141W        W43566  25.532  35.243   1.667
71142W        W43567  18.141  26.936   1.295
71143W        W43568  44.478  30.647  11.015
71144W        W43569  17.228  14.595   4.901
71145W        W43570   0.783   5.433   4.614
71146W        W43571  42.269  21.239   3.850
71147W        W43572  25.166  39.373  14.496
71148W        W43573  22.785  43.721  12.372
71149W        W43574  27.510  19.297  12.143
71150W        W43575  30.744  11.191  12.880
71151W        W43576  14.185  43.920   2.463
71152W        W43577  12.392  28.472   0.982
71153W        W43578  43.428   7.948   4.518
71154W        W43579  12.804  18.143  11.869
71155W        W43580  44.840  21.306   1.706
71156W        W43581  38.957  27.559  10.756
71157W        W43582  44.906  35.413   4.119
71158W        W43583  38.141  31.871   3.564
71159W        W43584  32.361  14.719  11.090
71160W        W43585  25.165  35.623  12.886
71161W        W43586   4.694   9.659   4.196
71162W        W43587  14.686  15.617   2.790
71163W        W43588  16.014  42.331   2.311
71164W        W43589  32.589  19.750   4.577
71165W        W43590  36.383  37.876  13.063
71166W        W43591  20.718   6.942   3.340
71167W        W43592   8.248  31.811  12.007
71168W        W43593  35.018  27.952   2.337
71169W        W43594  32.833  44.973   1.252
71170W        W43595  37.051  37.859   2.846
71171W        W43596   8.217  17.576  10.421
71172W        W43597  13.625  25.145   0.904
71173W        W43598  15.772  28.904   3.608
71174W        W43599  19.100  23.493  14.719
71175W        W43600  12.293   8.220   3.198
71176W        W43601   4.322   8.688   0.820
71177W        W43602  28.566  21.996  10.703
71178W        W43603  19.552  35.731  11.192
71179W        W43604  10.716  36.588  14.914
71180W        W43605  39.090  40.535   1.750
71181W        W43606  13.737  26.055   0.950
71182W        W43607  38.255  30.918  14.752
71183W        W43608  36.324   6.291  11.226
71184W        W43609  23.994  44.771   0.118
71185W        W43610  40.798   3.265   3.528
71186W        W43611  39.981  37.104  11.159
71187W        W43612  37.895  32.680   0.452
71188W        W43613  12.698  26.031   1.808
71189W        W43614   1.459  15.084  13.214
71190W        W43615  36.126  23.750   3.149
71191W        W43616  41.481  32.448   2.251
71192W        W43617  21.565  19.331   3.767
71193W        W43618   5.227   8.267   2.783
71194W        W43619  18.082  24.172  10.420
71195W        W43620  33.592   7.843   0.419
71196W        W43621  14.830   0.887  14.240
71197W        W43622  23.629  31.966  10.510
71198W        W43623   5.850  33.876   3.190
71199W        W43624  38.087  22.187  10.744
71200W        W43625  12.125   9.448  14.868
71201W        W43626  36.327  25.206   2.155
71202W        W43627  38.780  12.396  14.424
71203W        W43628  39.142  30.469   1.141
71204W        W43629  12.320  10.731   4.017
71205W        W43630   5.213  26.721  14.958
71206W        W43631  33.591  39.584  13.369
71207W        W43632  37.020  27.987   1.219
71208W        W43633  28.389  39.930   1.189
71209W        W43634   1.209  12.359   2.639
71210W        W43635   3.238  12.611   3.734
71211W        W43636   5.323   2.696   1.286
71212W        W43637  12.129  16.228   4.374
71213W        W43638   8.283  37.660   1.686
71214W        W43639  16.766  41.994   3.855
71215W        W43640  26.663   3.702   3.919
71216W        W43641   5.953   0.972   1.291
71217W        W43642   6.852   8.118  11.734
71218W        W43643   5.654   1.850   2.206
71219W        W43644  19.628  23.983   1.853
71220W        W43645  35.699   2.260   0.930
71221W        W43646  11.191  12.913  14.425
71222W        W43647  11.746  22.321  11.590
71223W        W43648  36.731   7.261  10.297
71224W        W43649  41.852  16.157  11.074
71225W        W43650   7.018  19.669   3.278
71226W        W43651  38.467  39.468  11.879
71227W        W43652  27.421   0.789   1.851
71228W        W43653   8.202  36.501   1.522
71229W        W43654  32.179  20.155  13.806
71230W        W43655  12.352  19.496  14.812
71231W        W43656  33.967  29.489   4.475
71232W        W43657  13.096   7.803   1.410
71233W        W43658   5.702   9.718  11.511
71234W        W43659  19.187   6.976  12.654
71235W        W43660  30.108   6.152  10.675
71236W        W43661  25.105  19.152  10.736
71237W        W43662  41.907  23.932   3.701
71238W        W43663  43.411   5.215   2.484
71239W        W43664  21.476  34.501  10.673
71240W        W43665   3.957   6.756   2.817
71241W        W43666  21.511   9.954   0.385
71242W        W43667  44.510  26.213  10.402
71243W        W43668  44.254  12.121   3.803
71244W        W43669  24.360  36.898   4.579
71245W        W43670  12.614  16.249   3.099
71246W        W43671  37.423  13.618  11.540
71247W        W43672  36.926  21.527   3.294
71248W        W43673   4.251  11.504  13.148
71249W        W43674  33.357  42.124   0.969
71250W        W43675   6.134  37.536   5.252
71251W        W43676  17.138  29.394  14.326
71252W        W43677  44.097  32.577   4.192
71253W        W43678  14.723  17.086   3.278
71254W        W43679  31.241  20.134  14.954
71255W        W43680  31.865  16.572  10.841
71256W        W43681  18.910  14.907   1.872
71257W        W43682  30.841   9.285   2.745
71258W        W43683  44.479  24.982   4.140
71259W        W43684   0.841   0.669   0.926
71260W        W43685  22.515  10.285   4.577
71261W        W43686  26.507   9.811   3.870
71262W        W43687  35.517  42.863   2.118
71263W        W43688  29.090  36.587   3.806
71264W        W43689   2.758  44.935   1.457
71265W        W43690  39.719  21.066  13.737
71266W        W43691  32.426  43.249  13.334
71267W        W43692   6.259   9.709  14.520
71268W        W43693  16.560  34.948  13.511
71269W        W43694  33.578  34.196   1.006
71270W        W43695  10.268  11.405  10.449
71271W        W43696  27.838  29.967  14.964
71272W        W43697  40.873  36.396   3.730
71273W        W43698   8.957  36.487  13.790
71274W        W43699  11.364  31.140   0.219
71275W        W43700   6.727   8.353   4.988
71276W        W43701   7.908  37.557  14.792
71277W        W43702  29.356  17.583  11.146
71278W        W43703   1.648  38.592  11.474
71279W        W43704  19.145   2.023  14.489
71280W        W43705   1.104  40.744   1.697
71281W        W43706   2.456  40.254   4.570
71282W        W43707  25.947   2.367   4.771
71283W        W43708  35.124  14.837  12.624
71284W        W43709  34.355  13.340   1.741
71285W        W43710  15.393  31.130   2.548
71286W        W43711  17.362  21.660  13.538
71287W        W43712  40.247   2.281   2.176
71288W        W43713  22.015  30.852  14.003
71289W        W43714   9.528  32.477  11.406
71290W        W43715   5.712   8.332  11.679
71291W        W43716   4.678  35.819   2.392
71292W        W43717  24.844  19.693  14.264
71293W        W43718  30.033  16.782  11.040
71294W        W43719  42.623  18.725   5.001
71295W        W43720  39.102  41.575  13.894
71296W        W43721   0.775  41.548  14.213
71297W        W43722  19.852  18.794   1.254
71298W        W43723   7.077  21.337  12.429
71299W        W43724  25.168  17.753  10.354
71300W        W43725   5.099  16.519   2.255
71301W        W43726  42.803  30.645   2.796
71302W        W43727  42.010  26.924   1.284
71303W        W43728   8.704  10.858  10.650
71304W        W43729  34.829  12.134  14.669
71305W        W43730  10.281   0.865   0.527
71306W        W43731  14.349  11.269   3.240
71307W        W43732  15.202  20.830  14.383
71308W        W43733  16.045  41.985   0.722
71309W        W43734  24.646   2.874  10.796
71310W        W43735  23.642  13.849  12.355
71311W        W43736  22.772   0.068  12.115
71312W        W43737  44.364  44.188  13.384
71313W        W43738  31.597   4.926   3.140
71314W        W43739  19.282   2.195   2.316
71315W        W43740  15.546  12.657  10.735
71316W        W43741  24.927   8.626  11.627
71317W        W43742  27.636  31.702   0.208
71318W        W43743  14.608  10.171   0.934
71319W        W43744   1.248  31.211   2.313
71320W        W43745  43.790  31.011  12.500
71321W        W43746  14.237  18.814   2.165
71322W        W43747  30.227  28.553   1.097
71323W        W43748  27.619   6.932  12.744
71324W        W43749  36.181  13.875  10.820
71325W        W43750  11.089  32.380   0.434
71326W        W43751  16.333   5.106  13.737
71327W        W43752   9.907   2.398   4.718
71328W        W43753  10.106  40.313   2.878
71329W        W43754  30.583   1.711  10.550
71330W        W43755  35.896  44.055  11.183
71331W        W43756  35.379  22.788   3.804
71332W        W43757   8.372  34.803   2.124
71333W        W43758  33.273  25.575  11.871
71334W        W43759   3.445  36.141   4.418
71335W        W43760  25.749  42.778   3.289
71336W        W43761   5.230   3.783  11.517
71337W        W43762  34.832   5.374  13.933
71338W        W43763   0.745  44.001  14.862
71339W        W43764  39.414   4.836  11.151
71340W        W43765  32.914   8.436  13.910
71341W        W43766  41.216  17.698   4.764
71342W        W43767  41.563  25.223   3.025
71343W        W43768  14.788   6.153  12.893
71344W        W43769  38.450   4.667   3.199
71345W        W43770   9.579   3.827  14.808
71346W        W43771  19.058  27.482   3.357
71347W        W43772   3.200  15.752  14.756
71348W        W43773  21.182   8.287  13.927
71349W        W43774   7.226  41.046   3.267
71350W        W43775  12.666  43.351  14.911
71351W        W43776   3.215  17.508  11.584
71352W        W43777  23.084  25.751   1.596
71353W        W43778   4.191  21.087  12.070
71354W        W43779  25.436   6.240  14.000
71355W        W43780  25.122  23.721  11.081
71356W        W43781  10.791   3.185  10.904
71357W        W43782   7.583  36.164  12.568
71358W        W43783   4.780   5.738  12.522
71359W        W43784   7.343  41.371  12.080
71360W        W43785  39.950  37.078  14.033
71361W        W43786   5.772  31.857  14.076
71362W        W43787  41.342  41.333   1.354
71363W        W43788  14.819  11.673  11.648
71364W        W43789  40.861   3.284  13.004
71365W        W43790   4.186   2.711   0.241
71366W        W43791  42.494  20.797   0.725
71367W        W43792  23.727  32.864   4.695
71368W        W43793  12.705  43.523   0.477
71369W        W43794  40.660  15.816   1.956
71370W        W43795  41.008  33.971   2.572
71371W        W43796   7.937  16.777  10.099
71372W        W43797  32.950  40.767   0.405
71373W        W43798  25.747  30.807   4.410
71374W        W43799   4.465   8.120  14.301
71375W        W43800  42.617  15.961  14.941
71376W        W43801  22.100  21.544  11.547
71377W        W43802  24.767  37.208   4.513
71378W        W43803  42.411  35.264  14.346
71379W        W43804  30.113   4.445   3.330
71380W        W43805  38.618  37.303   0.939
71381W        W43806  29.113  41.977   0.848
71382W        W43807  20.169  42.913  13.633
71383W        W43808  29.098  41.526   5.045
71384W        W43809   4.233  32.742  11.421
71385W        W43810  18.387   4.221   0.150
71386W        W43811  28.148   8.874   3.577
71387W        W43812  37.095  22.721  10.598
71388W        W43813  43.639   2.940  10.628
71389W        W43814  24.664  40.339   1.284
71390W        W43815   7.735  13.125  12.999
71391W        W43816  34.979  37.049  12.494
71392W        W43817  16.395  33.889  12.933
71393W        W43818  44.270   1.972   4.301
71394W        W43819  39.532  32.349  11.511
71395W        W43820  11.418  22.491   4.970
71396W        W43821  44.269  20.587  11.862
71397W        W43822  41.494  23.016  11.561
71398W        W43823  34.557  28.582   1.957
71399W        W43824  18.982  43.982  14.891
71400W        W43825  29.904   4.780   1.052
71401W        W43826  19.880  30.479  14.745
71402W        W43827  29.675  43.418  10.935
71403W        W43828  26.006  24.449   3.542
71404W        W43829   3.682   6.555   1.599
71405W        W43830  35.087  44.827   1.048
71406W        W43831  28.203  32.198   5.053
71407W        W43832  27.681  14.364   4.187
71408W        W43833  36.344   1.342  12.170
71409W        W43834  23.656  43.998   2.748
71410W        W43835  33.547  17.835  13.404
71411W        W43836  41.743   9.877   1.729
71412W        W43837  12.995  16.220  12.550
71413W        W43838   2.174  32.988   3.309
71414W        W43839  13.266  14.251  11.363
71415W        W43840  19.993   8.429  10.751
71416W        W43841  37.854   1.473  14.988
71417W        W43842   0.392  28.265  13.865
71418W        W43843   1.026  24.543   2.752
71419W        W43844  12.139   3.141   3.806
71420W        W43845  31.477  33.504   2.279
71421W        W43846  36.028  35.572   3.687
71422W        W43847  26.919  40.500  11.072
71423W        W43848   0.338  26.975   1.616
71424W        W43849   9.889  43.916   2.759
71425W        W43850   4.058  32.864  13.517
71426W        W43851  34.945  37.053   4.729
71427W        W43852  43.848  39.722   3.190
71428W        W43853   8.333   7.919  14.894
71429W        W43854  44.700   2.508  10.706
71430W        W43855  34.026   2.259  14.044
71431W        W43856  34.328  31.639  12.884
71432W        W43857  37.034  35.406   1.912
71433W        W43858  12.597   5.130  11.493
71434W        W43859  18.246  25.462   4.523
71435W        W43860  22.487  11.654   0.920
71436W        W43861   9.032  27.919   1.679
71437W        W43862  26.640   2.520   1.504
71438W        W43863   7.071  37.529   4.731
71439W        W43864   5.079  20.207  11.725
71440W        W43865   7.972  36.247  14.873
71441W        W43866   2.672  14.904  13.738
71442W        W43867  28.661  22.965  12.369
71443W        W43868  25.781  35.341  13.941
71444W        W43869  22.309   7.381   0.470
71445W        W43870  15.752  21.215  14.107
71446W        W43871  44.548  31.352  11.511
71447W        W43872   0.034  31.656   3.313
71448W        W43873  27.018  11.367   4.241
71449W        W43874   2.253   9.274  11.227
71450W        W43875   4.557  44.390  14.418
71451W        W43876  11.297  39.990  12.220
71452W        W43877  17.287   2.536   0.629
71453W        W43878  32.639  20.103   2.979
71454W        W43879  25.350  43.873   4.519
71455W        W43880  37.444  25.180  12.563
71456W        W43881  22.749  16.119  14.894
71457W        W43882  43.719   2.459  10.757
71458W        W43883  27.926   4.466  14.255
71459W        W43884  13.763  28.469  10.689
71460W        W43885   8.718  20.968  11.138
71461W        W43886  10.360  27.498  11.382
71462W        W43887   9.203  41.331   3.457
71463W        W43888  10.290  43.374  11.542
71464W        W43889  36.321  22.877  13.803
71465W        W43890  40.837  20.179   4.067
71466W        W43891  39.386  41.995   0.747
71467W        W43892   9.115   5.996  11.990
71468W        W43893   0.348  24.479  14.945
71469W        W43894   5.490   1.873  11.184
71470W        W43895  37.366  23.684  14.680
71471W        W43896  35.615  18.841   4.110
71472W        W43897  32.065  33.930  12.085
71473W        W43898   2.782  26.694   4.768
71474W        W43899   8.813  17.573  13.486
71475W        W43900  13.788  34.123  11.479
71476W        W43901  18.847   5.265   2.591
71477W        W43902  23.200  17.328   2.708
71478W        W43903  36.182   1.209  14.392
71479W        W43904  38.486  39.962  13.528
71480W        W43905  28.545  25.426   1.212
71481W        W43906  34.848   7.816   5.141
71482W        W43907  44.865  17.765  13.116
71483W        W43908  44.261   6.483  11.598
71484W        W43909  22.463  34.565  12.918
71485W        W43910   0.744  16.068   0.954
71486W        W43911  20.131  38.089   4.443
71487W        W43912  26.549  24.050  12.577
71488W        W43913  21.270  33.542  12.823
71489W        W43914  42.767  37.010   0.342
71490W        W43915   4.923   7.256   1.820
71491W        W43916  35.991  38.423   3.703
71492W        W43917  36.626  43.382   3.648
71493W        W43918  24.212  32.758   2.115
71494W        W43919  29.413  34.152  10.345
71495W        W43920  14.065  39.383   1.602
71496W        W43921  33.599   2.503  10.980
71497W        W43922  43.800   9.771  12.817
71498W        W43923   1.232  43.779   2.266
71499W        W43924   2.700  16.242  12.377
71500W        W43925  31.043  41.111   3.297
71501W        W43926  31.614   3.166  12.574
71502W        W43927  24.509  41.506  12.904
71503W        W43928  38.880  15.189  14.412
71504W        W43929   3.056  29.636   4.602
71505W        W43930  13.242  36.097   1.812
71506W        W43931  22.217  38.049   4.262
71507W        W43932  10.003  23.214  13.564
71508W        W43933  17.391  17.106   3.647
71509W        W43934   5.654  11.848   3.221
71510W        W43935  26.561  16.282   3.719
71511W        W43936   3.781   1.295  12.394
71512W        W43937  37.587  19.625  13.932
71513W        W43938   8.697  13.942   2.259
71514W        W43939  20.683   0.781   2.909
71515W        W43940  33.458   2.397   4.640
71516W        W43941  21.740  10.448   0.217
71517W        W43942   8.710  33.537   3.883
71518W        W43943  15.181   6.462  10.762
71519W        W43944   5.928  12.389  13.983
71520W        W43945   4.380   8.919   1.281
71521W        W43946   2.913  19.727   0.323
71522W        W43947  40.924  15.120   1.345
71523W        W43948  29.913  17.857   4.690
71524W        W43949  18.748  37.989   4.633
71525W        W43950   2.446  12.590   1.818
71526W        W43951  14.882  30.228   4.587
71527W        W43952  21.562  44.145  10.053
71528W        W43953  16.279  12.219  13.787
71529W        W43954  21.023   0.957   0.647
71530W        W43955  41.042  13.766  13.501
71531W        W43956   8.975  31.030  12.581
71532W        W43957  15.686  15.552  10.754
71533W        W43958  34.538  35.081  14.407
71534W        W43959   0.324  19.545   4.084
71535W        W43960  36.497  42.537   5.168
71536W        W43961  39.899  39.971   0.951
71537W        W43962  16.600  38.483   0.185
71538W        W43963  19.507  40.669   0.608
71539W        W43964  40.487   3.339   4.503
71540W        W43965  26.504  36.539   3.697
71541W        W43966  25.503  20.451  11.867
71542W        W43967  31.424  21.589  11.006
71543W        W43968   5.445  41.248   0.415
71544W        W43969  12.668   1.476  14.967
71545W        W43970  25.172  17.860   2.209
71546W        W43971  39.424   4.547   2.385
71547W        W43972   8.744  21.462  13.882
71548W        W43973  15.200   9.226  11.819
71549W        W43974   5.765  10.384  12.019
71550W        W43975  18.823  27.646  12.972
71551W        W43976  39.360   5.465   2.864
71552W        W43977  28.645   1.412  12.010
71553W        W43978  16.317  14.574   2.729
71554W        W43979   8.967   6.643   2.840
71555W        W43980  19.563  27.666   4.262
71556W        W43981  35.607  18.724  11.100
71557W        W43982  24.693  18.730  12.195
71558W        W43983  17.235  25.320   1.485
71559W        W43984  27.213  13.340  12.135
71560W        W43985  40.550  32.143  12.099
71561W        W43986  20.751  10.056  14.009
71562W        W43987  15.141  22.042  13.969
71563W        W43988   3.994  44.339   2.749
71564W        W43989  12.329  36.601   1.465
71565W        W43990  14.877  33.903   9.682
71566W        W43991  12.335  37.311  10.620
71567W        W43992   5.829   9.393   3.577
71568W        W43993  16.363   4.779  12.050
71569W        W43994   5.243  16.211  12.436
71570W        W43995  27.334  33.925  11.049
71571W        W43996  25.664  12.681  12.433
71572W        W43997  30.216  13.628   1.418
71573W        W43998  16.891  10.901  11.147
71574W        W43999  20.222  12.368   0.984
71575W        W44000  19.065   1.725   2.336
71576W        W44001   7.638  28.603   4.124
71577W        W44002  41.983  44.502  10.654
71578W        W44003  17.592  35.763  14.380
71579W        W44004  44.822  21.601  14.888
71580W        W44005   4.429  18.350   4.331
71581W        W44006  26.235  27.230  10.772
71582W        W44007   7.718  39.039  11.038
71583W        W44008  17.095  35.052   2.813
71584W        W44009  11.255  41.806   4.650
71585W        W44010  41.735  36.055   2.198
71586W        W44011  24.972  34.016   2.876
71587W        W44012  20.274  28.733  13.099
71588W        W44013  30.702  14.254   3.137
71589W        W44014  30.420  22.980   1.434
71590W        W44015  43.308  28.187   1.903
71591W        W44016  13.116   3.301  14.268
71592W        W44017  38.666   0.644   1.695
71593W        W44018  39.090  25.899  11.690
71594W        W44019  32.467  31.403   4.123
71595W        W44020  25.096  42.216   4.015
71596W        W44021  14.211  17.022   3.346
71597W        W44022  40.566   0.694   1.833
71598W        W44023  32.344  43.965  10.738
71599W        W44024   0.652  34.551   3.171
71600W        W44025  11.056  33.413  10.744
71601W        W44026  44.552  42.859  12.135
71602W        W44027  41.598  35.399   4.554
71603W        W44028  40.001   6.590  10.739
71604W        W44029  40.523   7.589  14.346
71605W        W44030  19.995  28.068   0.759
71606W        W44031  13.855   3.811  13.386
71607W        W44032  35.080  42.117  11.569
71608W        W44033  35.093  18.519  14.388
71609W        W44034  29.373  42.330   4.200
71610W        W44035  37.490  29.199   1.443
71611W        W44036   2.094  31.497   1.412
71612W        W44037  21.148   1.578  13.949
71613W        W44038  25.285  37.596  10.033
71614W        W44039   6.707  39.002  11.960
71615W        W44040   8.274  15.643   3.431
71616W        W44041  18.964  33.229   2.431
71617W        W44042   2.666   4.780  11.560
71618W        W44043  23.150  39.432   4.635
71619W        W44044  11.708  18.607  10.887
71620W        W44045  13.382  29.589  14.367
71621W        W44046   3.368  17.584  12.561
71622W        W44047  44.996  33.098   2.175
71623W        W44048  33.810  29.115   2.356
71624W        W44049  41.359  14.145  14.048
71625W        W44050  15.399  18.176  13.734
71626W        W44051  43.921  30.697   2.949
71627W        W44052  18.033  14.755  12.434
71628W        W44053  16.096   0.043   1.714
71629W        W44054  42.495  29.174   0.321
71630W        W44055  14.348  19.084   4.894
71631W        W44056  21.509  25.598   4.390
71632W        W44057  10.156   6.988   2.169
71633W        W44058  24.462  28.748  13.845
71634W        W44059  39.197  24.566   1.230
71635W        W44060  28.877  13.673  12.592
71636W        W44061  35.469  15.255  11.712
71637W        W44062  11.693  11.876  12.482
71638W        W44063   8.474   3.903   0.414
71639W        W44064  44.939  38.102  12.980
71640W        W44065  13.260  33.608  13.963
71641W        W44066  43.151  39.099  10.808
71642W        W44067   3.858  31.113   2.347
71643W        W44068  26.384  36.973   3.239
71644W        W44069  20.694  34.123  11.455
71645W        W44070  32.077  12.135   2.646
71646W        W44071  41.005  17.840   0.261
71647W        W44072  25.494  11.311  13.795
71648W        W44073  42.359   8.500   3.732
71649W        W44074  12.590  42.027  11.570
71650W        W44075  27.933  33.566   0.733
71651W        W44076   9.680   5.124  11.201
71652W        W44077  43.391  29.910   2.628
71653W        W44078  35.640  19.060  13.511
71654W        W44079  22.083  26.139  14.360
71655W        W44080  22.874  30.463  10.849
71656W        W44081  20.507  18.445   0.468
71657W        W44082  20.249   3.335   3.277
71658W        W44083  39.233   7.831  11.425
71659W        W44084   7.769  41.787  13.991
71660W        W44085   7.359   1.173  13.934
71661W        W44086   7.465   8.718   4.213
71662W        W44087  15.122  16.091  14.336
71663W        W44088  26.132  42.015  13.623
71664W        W44089  19.749  34.105  14.565
71665W        W44090   8.876   6.466  14.317
71666W        W44091  22.078  42.266   1.832
71667W        W44092   5.616  40.745   3.008
71668W        W44093  42.872  22.163  11.635
71669W        W44094  17.597  40.933   2.772
71670W        W44095  21.095  32.375  12.676
71671W        W44096  26.968  16.138  13.397
71672W        W44097  13.796  12.934  13.541
71673W        W44098  14.319  14.084   3.852
71674W        W44099   9.455  17.384  11.037
71675W        W44100  32.783  36.121  14.848
71676W        W44101   7.291  18.521  12.040
71677W        W44102  11.043  34.512   1.638
71678W        W44103  34.995  19.679  14.751
71679W        W44104   5.691  32.705   1.260
71680W        W44105   5.870  25.605  14.574
71681W        W44106  30.829  31.400   0.505
71682W        W44107  23.124  13.793   3.320
71683W        W44108  29.703  34.944  12.894
71684W        W44109  34.920   3.924  12.087
71685W        W44110  31.682  15.834  10.459
71686W        W44111  39.088  24.684  10.704
71687W        W44112  37.797   6.752   2.803
71688W        W44113  34.122   3.191  11.097
71689W        W44114  11.253  28.501   4.028
71690W        W44115  35.864  17.150  10.779
71691W        W44116  14.621  23.496   3.172
71692W        W44117  10.314  30.024   0.864
71693W        W44118  32.967  30.121  13.845
71694W        W44119  16.263  18.080   1.882
71695W        W44120  28.543  38.143   1.917
71696W        W44121  18.677  10.657   3.751
71697W        W44122  30.958  37.530   1.381
71698W        W44123  27.117   7.232   1.834
71699W        W44124   5.761   9.227   4.514
71700W        W44125  32.045  23.021  11.162
71701W        W44126  24.644  17.207   3.675
71702W        W44127  36.827  42.180  14.679
71703W        W44128  42.561  27.656   1.881
71704W        W44129  39.700  30.426   1.190
71705W        W44130   6.014   2.878   4.922
71706W        W44131  37.807  44.440  13.430
71707W        W44132  32.919  25.550   0.636
71708W        W44133  13.758  12.650  11.190
71709W        W44134  37.842   5.850   1.767
71710W        W44135  32.549  15.371   2.498
71711W        W44136   9.176  21.755   0.614
71712W        W44137  23.195  43.725  13.355
71713W        W44138   6.469  42.070  14.410
71714W        W44139   3.976  16.138  14.504
71715W        W44140  10.595  41.527   5.076
71716W        W44141  39.541  32.459   0.294
71717W        W44142  23.090  19.300   1.287
71718W        W44143   4.240  44.939   4.956
71719W        W44144  27.447  43.684  12.138
71720W        W44145  30.598  15.745  11.410
71721W        W44146  32.545  16.793  11.974
71722W        W44147  24.759   1.230   4.240
71723W        W44148   7.354  37.946   4.139
71724W        W44149   1.826   7.326   3.871
71725W        W44150   1.709   7.749  10.725
71726W        W44151  39.961  28.014   4.841
71727W        W44152  17.380  28.563  10.673
71728W        W44153  22.975  21.107  12.513
71729W        W44154  16.445  27.475   3.285
71730W        W44155  41.436   3.201   1.397
71731W        W44156  24.932   9.286  14.117
71732W        W44157  40.083  39.398   0.932
71733W        W44158   5.353  33.125  13.580
71734W        W44159  18.638   1.854   4.158
71735W        W44160  32.957   7.135  10.725
71736W        W44161  11.368  34.909   0.705
71737W        W44162   1.386  39.277   4.177
71738W        W44163  21.204  38.908   1.357
71739W        W44164   8.436  25.043   2.379
71740W        W44165  30.110  12.074  14.831
71741W        W44166   0.731  35.102  13.066
71742W        W44167  22.513  37.494  12.981
71743W        W44168  37.561   3.315  12.942
71744W        W44169  10.958  37.466  14.967
71745W        W44170  41.490  43.567  10.696
71746W        W44171  44.704  11.600  10.836
71747W        W44172   1.235  37.365  11.588
71748W        W44173  21.760  18.067  11.005
71749W        W44174   7.092   8.307   0.744
71750W        W44175  16.686  13.546   0.307
71751W        W44176  20.363  42.397   3.605
71752W        W44177  22.037   8.867  14.825
71753W        W44178  33.397  12.617   1.002
71754W        W44179  30.845  36.611   1.829
71755W        W44180  17.272  20.840  11.600
71756W        W44181  27.139  15.804  14.894
71757W        W44182   9.643   0.931  11.683
71758W        W44183  14.010  27.411   1.755
71759W        W44184  27.131   2.337  11.095
71760W        W44185  36.386   4.621   3.776
71761W        W44186  11.422   7.593  11.520
71762W        W44187  39.467  38.008   3.113
71763W        W44188  14.814  37.907   1.856
71764W        W44189  23.035  25.479   3.616
71765W        W44190  23.297  16.172   3.447
71766W        W44191  14.836  29.692   3.606
71767W        W44192  27.586  23.330   0.811
71768W        W44193   6.963  18.357   4.122
71769W        W44194  23.407  37.069   4.348
71770W        W44195  29.520  37.965  13.496
71771W        W44196  20.377  12.102   5.420
71772W        W44197  14.726  16.521   2.394
71773W        W44198   3.237  23.300   4.007
71774W        W44199  27.559  26.172   2.401
71775W        W44200  17.653  17.603   0.563
71776W        W44201   2.239  20.570  12.957
71777W        W44202  34.393  31.627   1.675
71778W        W44203  33.468  27.792  11.907
71779W        W44204  16.847   5.826  14.905
71780W        W44205  43.220  18.423   3.843
71781W        W44206   6.321  30.385  10.689
71782W        W44207  39.920   5.720   3.276
71783W        W44208  35.998  10.045   3.647
71784W        W44209  19.820   5.224  12.765
71785W        W44210   7.707  22.507   2.060
71786W        W44211  14.712  24.426  10.107
71787W        W44212  19.214  12.521   0.341
71788W        W44213  12.124  17.512  11.059
71789W        W44214  19.563   7.203  12.415
71790W        W44215   4.974  38.032   0.743
71791W        W44216  26.077   4.265  14.377
71792W        W44217  29.619  18.948  13.472
71793W        W44218  22.052  32.440  11.924
71794W        W44219  41.585  22.138   9.498
71795W        W44220   6.971  33.286   1.554
71796W        W44221   5.954  25.565   3.814
71797W        W44222   3.951  38.303  12.555
71798W        W44223  19.731   6.394   2.164
71799W        W44224   9.884   8.368   3.388
71800W        W44225  22.041   5.218  13.410
71801W        W44226  25.798  32.569   4.922
71802W        W44227  20.124  28.756  12.582
71803W        W44228  15.249  44.939  10.847
71804W        W44229  19.965  33.856   3.181
71805W        W44230   1.271  26.118  13.078
71806W        W44231  34.935  11.321   2.108
71807W        W44232  29.422  25.063   4.190
71808W        W44233  37.357  20.075  13.708
71809W        W44234  35.433  12.798  12.031
71810W        W44235  21.929  40.080  11.474
71811W        W44236  20.039  26.410   3.170
71812W        W44237   7.509  25.633  10.670
71813W        W44238  10.630  43.891  10.709
71814W        W44239  37.364  25.125   0.255
71815W        W44240  13.800  29.154   0.769
71816W        W44241   5.586  40.627  12.042
71817W        W44242  14.580  41.864   0.067
71818W        W44243   9.961  25.179   5.401
71819W        W44244  26.981   2.960   2.786
71820W        W44245  12.328  39.407   4.624
71821W        W44246  36.456  24.726  13.494
71822W        W44247  22.684  32.736   2.160
71823W        W44248  42.340  12.903   2.784
71824W        W44249  14.505  38.917  13.688
71825W        W44250  36.418   1.796   0.509
71826W        W44251  28.340  41.782  13.506
71827W        W44252  30.963  33.503   3.081
71828W        W44253   0.682  32.651   4.203
71829W        W44254  10.099  17.663   1.587
71830W        W44255  27.037  30.327  13.296
71831W        W44256  20.281  43.459  11.075
71832W        W44257  33.304   7.751  14.952
71833W        W44258  36.220   4.938   4.714
71834W        W44259  34.521  29.207  13.866
71835W        W44260  37.076  13.018  11.057
71836W        W44261  16.047  33.431   0.474
71837W        W44262  13.525   1.760   5.464
71838W        W44263  30.661  41.829   0.872
71839W        W44264  10.072  21.649  13.884
71840W        W44265  27.507  32.342  10.153
71841W        W44266  26.238   6.171  12.159
71842W        W44267  14.536  30.894   4.238
71843W        W44268  18.554  22.251   0.055
71844W        W44269  25.503  15.588   0.790
71845W        W44270   9.941   7.362   4.105
71846W        W44271  18.111  33.426   2.234
71847W        W44272  35.903  31.664  13.860
71848W        W44273  42.799  10.694   1.144
71849W        W44274  13.760  43.842   2.154
71850W        W44275  36.355   6.974  12.152
71851W        W44276   4.497  16.769  10.718
71852W        W44277  18.969   3.498   3.542
71853W        W44278   9.035  22.356   2.206
71854W        W44279   7.928  43.867   1.062
71855W        W44280   3.494  41.800   2.305
71856W        W44281   5.139  35.968  12.891
71857W        W44282  35.410  33.723   1.275
71858W        W44283  13.733  34.625  11.644
71859W        W44284  38.563  17.602   0.322
71860W        W44285  24.144  29.479   3.305
71861W        W44286  39.523  24.301   4.187
71862W        W44287  32.396  37.003   3.015
71863W        W44288   9.951   9.841   0.338
71864W        W44289   4.964  12.448  11.953
71865W        W44290   5.388  23.178  13.934
71866W        W44291  24.196  28.610   0.189
71867W        W44292  30.432  13.826  13.446
71868W        W44293   5.216  17.949  13.971
71869W        W44294  30.520  14.617  12.630
71870W        W44295  31.508  28.069   1.905
71871W        W44296  41.751  36.782   0.563
71872W        W44297  37.566  35.378  12.535
71873W        W44298  31.554  23.506   0.881
71874W        W44299  32.129  13.068   3.570
71875W        W44300  17.525  22.799  11.674
71876W        W44301   4.843  28.413  12.614
71877W        W44302   9.254  23.463   5.102
71878W        W44303  20.582  24.275  11.632
71879W        W44304  38.545  38.535   2.181
71880W        W44305  22.300  32.847   4.545
71881W        W44306  39.967  12.895  12.467
71882W        W44307   7.973   2.635   0.859
71883W        W44308  43.441   3.383   3.714
71884W        W44309  30.297   3.824   4.588
71885W        W44310   5.375  26.135  14.241
71886W        W44311  38.460  23.741   4.544
71887W        W44312   4.542   1.295   2.712
71888W        W44313  22.950  37.904  14.059
71889W        W44314  36.544  28.098  14.050
71890W        W44315  31.836  37.471  10.730
71891W        W44316  17.062  30.119   2.585
71892W        W44317  19.087   5.743  11.237
71893W        W44318  33.125  31.091   0.913
71894W        W44319  40.378  10.367  10.675
71895W        W44320  20.622   2.075   1.344
71896W        W44321  43.833  22.057   1.606
71897W        W44322  43.775  26.637   1.312
71898W        W44323  11.644  29.370   1.781
71899W        W44324  43.294  31.666  14.536
71900W        W44325  12.676  28.483   3.861
71901W        W44326  25.929  26.167   3.287
71902W        W44327  21.085  10.549  10.147
71903W        W44328  37.475  18.760  10.923
71904W        W44329  28.894  35.498   2.925
71905W        W44330   4.241   3.468  11.902
71906W        W44331   6.567  13.770   2.737
71907W        W44332  13.315  27.165   1.239
71908W        W44333  22.276  41.943  14.021
71909W        W44334  11.232  29.416  12.877
71910W        W44335  42.531  33.252  11.213
71911W        W44336  27.100   1.905   1.787
71912W        W44337  12.711   7.967   3.021
71913W        W44338  28.618  37.338   4.768
71914W        W44339  19.486   0.594  12.161
71915W        W44340  11.332  21.503  11.571
71916W        W44341   2.236  12.675   2.851
71917W        W44342   4.926   1.515  11.999
71918W        W44343  14.727  32.064  14.054
71919W        W44344  39.029  36.393   2.186
71920W        W44345  40.318  19.979  12.486
71921W        W44346  36.093  30.147   1.446
71922W        W44347  39.028  36.568   3.384
71923W        W44348  41.081  35.970  13.858
71924W        W44349  39.193  37.184  10.637
71925W        W44350  17.799  39.324  10.699
71926W        W44351  36.193   5.006   0.276
71927W        W44352   3.764   5.765   2.174
71928W        W44353  23.961  14.990  12.934
71929W        W44354  24.941  25.236   1.197
71930W        W44355  30.958  37.547  12.073
71931W        W44356  33.520  41.306  13.112
71932W        W44357  23.151  29.950  12.005
71933W        W44358  18.710  25.711   4.613
71934W        W44359  12.861  26.592   2.191
71935W        W44360  33.892  38.170  13.436
71936W        W44361  18.220  29.879   0.516
71937W        W44362   6.849  40.065  14.856
71938W        W44363  37.631  42.301  12.018
71939W        W44364  37.947  39.768  12.601
71940W        W44365  20.575  42.373  11.679
71941W        W44366  31.606  19.610  12.995
71942W        W44367  10.239  13.790   4.340
71943W        W44368  44.219  33.597   0.331
71944W        W44369   2.403  20.328   1.283
71945W        W44370  40.955  42.338   4.148
71946W        W44371  17.647  40.595  13.072
71947W        W44372  43.043  42.930  12.097
71948W        W44373  32.640  44.912  14.855
71949W        W44374  27.794  10.067  11.314
71950W        W44375  39.481  12.098  12.577
71951W        W44376  10.805  20.305  10.982
71952W        W44377  32.520  27.061  14.351
71953W        W44378   2.199  15.373   2.430
71954W        W44379  19.082  43.728  10.933
71955W        W44380  20.707  13.672  11.134
71956W        W44381  42.591  13.645   3.870
71957W        W44382  37.498  20.503  10.875
71958W        W44383  37.899  30.730  11.851
71959W        W44384   2.810   7.427  12.792
71960W        W44385  12.736  36.314   1.776
71961W        W44386  24.719  32.373  13.788
71962W        W44387  18.597  21.016  11.859
71963W        W44388   5.207   0.926   2.226
71964W        W44389  32.455   1.342  11.454
71965W        W44390  19.031  41.847  11.119
71966W        W44391   5.848  36.937   4.612
71967W        W44392   0.598  10.825  13.070
71968W        W44393  25.564  18.837   2.948
71969W        W44394  36.609   2.461   0.017
71970W        W44395  13.078  32.920   4.972
71971W        W44396   9.628   0.927   3.244
71972W        W44397  37.450   7.343  11.547
71973W        W44398  38.850  26.591  11.455
71974W        W44399   8.498  29.018  11.968
71975W        W44400  19.129  10.309  10.724
71976W        W44401  44.560   2.868   0.017
71977W        W44402   8.028  10.519  10.347
71978W        W44403   6.939  44.435   0.859
71979W        W44404  29.937  24.644   9.917
71980W        W44405  22.296   9.215  10.183
71981W        W44406  38.945   5.032   1.711
71982W        W44407  13.753  20.595   3.219
71983W        W44408  24.083  42.854  13.449
71984W        W44409  15.165  19.300  10.567
71985W        W44410  43.496  28.898   1.147
71986W        W44411  12.613  44.791   3.281
71987W        W44412  23.719  40.072   0.430
71988W        W44413  16.155  35.321  14.349
71989W        W44414  11.409   6.336   2.462
71990W        W44415   9.366  18.892   0.858
71991W        W44416  27.413  27.181   3.814
71992W        W44417  32.802  13.016   2.854
71993W        W44418   8.936  29.034  13.885
71994W        W44419  24.249  30.794   1.325
71995W        W44420  13.241  14.186  10.850
71996W        W44421   0.779  43.753   0.710
71997W        W44422  37.926   6.333   0.363
71998W        W44423   9.842  20.382   2.977
71999W        W44424   6.844  22.440   0.610
72000W        W44425  34.019   2.432   0.540
72001W        W44426  19.454  17.598  13.914
72002W        W44427  29.074  16.603   1.396
72003W        W44428  15.301  39.873  10.689
72004W        W44429  13.155  26.478   4.057
72005W        W44430   2.828   3.333   1.829
72006W        W44431  28.546  13.398   1.330
72007W        W44432   7.673  26.066   0.699
72008W        W44433  13.292  16.905  10.743
72009W        W44434  12.680  10.195   0.021
72010W        W44435  36.408  31.496   4.600
72011W        W44436  14.533   2.680  12.391
72012W        W44437  23.761  32.070  11.548
72013W        W44438  23.754   6.199  11.241
72014W        W44439  41.044   3.907   3.483
72015W        W44440  19.511  42.319   3.547
72016W        W44441  41.382  16.077   4.078
72017W        W44442  29.624  41.512   5.027
72018W        W44443  17.150  24.125  12.833
72019W        W44444  39.242  31.480   1.802
72020W        W44445  36.010  38.130   4.149
72021W        W44446  36.473  26.473   1.036
72022W        W44447  13.780  26.195   3.401
72023W        W44448  24.199   2.214  13.331
72024W        W44449  15.054   3.188  14.831
72025W        W44450  13.851   0.845   9.825
72026W        W44451  12.339  14.020  11.296
72027W        W44452  23.579  34.977   0.852
72028W        W44453   5.259  12.248   3.859
72029W        W44454  24.898   8.156   3.765
72030W        W44455   1.716  14.304   1.795
72031W        W44456   3.134  22.717  14.032
72032W        W44457  30.166  38.017  11.491
72033W        W44458  37.232  24.510   2.670
72034W        W44459  16.879  25.643  14.889
72035W        W44460  31.546  37.850  14.784
72036W        W44461  23.067  21.066   1.842
72037W        W44462  34.543   4.145  10.638
72038W        W44463  39.912  43.478  11.215
72039W        W44464  11.003  37.930  13.494
72040W        W44465   4.979   9.943   0.980
72041W        W44466  29.351  40.319   3.202
72042W        W44467  19.829  12.804  10.737
72043W        W44468  15.019  42.949   1.780
72044W        W44469  24.455  27.652  10.720
72045W        W44470  28.093  24.785  14.213
72046W        W44471  36.280  22.236  12.999
72047W        W44472  17.249  28.478   2.235
72048W        W44473  41.339  28.070   1.853
72049W        W44474   9.385  25.047   0.433
72050W        W44475   0.003   3.782   4.934
72051W        W44476  43.263  36.781   1.260
72052W        W44477  28.579  23.079   4.245
72053W        W44478  33.389  34.646  12.293
72054W        W44479  40.309  21.644  12.066
72055W        W44480  44.449  20.184   0.234
72056W        W44481  11.274   9.306  13.904
72057W        W44482  19.190  32.490  14.785
72058W        W44483  39.422  37.810   3.600
72059W        W44484  11.292  10.316   4.895
72060W        W44485   7.694   0.445   0.751
72061W        W44486  24.695  40.463   3.834
72062W        W44487  14.746  12.900   0.349
72063W        W44488  43.660  41.930  14.950
72064W        W44489  13.615  40.469   1.333
72065W        W44490   9.993  22.550  12.387
72066W        W44491  10.045  18.086   1.272
72067W        W44492  36.040  43.848   3.233
72068W        W44493  16.534  40.515  12.194
72069W        W44494  41.101   7.113   2.268
72070W        W44495   7.893  27.989  12.443
72071W        W44496  16.688  32.603   3.670
72072W        W44497  15.565   4.171   3.442
72073W        W44498  26.383   4.869   2.697
72074W        W44499  26.207   7.234   0.780
72075W        W44500   2.482  38.073  12.907
72076W        W44501  34.525   2.554  10.717
72077W        W44502  33.472  44.161   4.628
72078W        W44503  44.043   5.923  14.909
72079W        W44504   6.928  43.908  11.741
72080W        W44505  29.918  18.297   1.869
72081W        W44506  11.166   5.983   1.248
72082W        W44507  33.629  30.361   2.215
72083W        W44508  11.787  28.384   4.442
72084W        W44509   4.377  35.478   4.356
72085W        W44510   8.389  38.967   4.204
72086W        W44511  19.243  17.623  10.670
72087W        W44512   4.928  22.258  12.325
72088W        W44513  28.111   8.894  14.038
72089W        W44514   4.974  21.225  14.497
72090W        W44515  23.187  44.581   3.020
72091W        W44516  37.439  24.708   1.754
72092W        W44517  26.548   5.902  12.480
72093W        W44518  33.592  15.361  11.044
72094W        W44519  31.195  38.102   2.491
72095W        W44520  13.277   1.702   0.853
72096W        W44521  28.472  29.529   1.203
72097W        W44522   6.975   3.801   0.222
72098W        W44523  36.895   6.797   2.160
72099W        W44524   3.047  33.242   0.730
72100W        W44525  19.529  44.728   3.694
72101W        W44526   5.311  32.711  13.912
72102W        W44527   1.803  43.421   4.059
72103W        W44528  27.408   9.125   2.669
72104W        W44529  30.483  12.263  11.532
72105W        W44530  26.313  13.367   1.484
72106W        W44531  29.012  35.886  13.804
72107W        W44532   9.311  32.905  12.113
72108W        W44533  38.376  34.645  11.181
72109W        W44534  41.146  42.314  12.269
72110W        W44535  27.527   8.812  13.451
72111W        W44536  11.489  36.339   0.580
72112W        W44537   1.289   6.007   0.978
72113W        W44538  41.845  13.080   2.711
72114W        W44539  37.258  33.953  11.861
72115W        W44540  14.773  22.453   0.615
72116W        W44541  15.237  44.712   0.018
72117W        W44542  22.106  36.334   3.353
72118W        W44543  30.944   9.819  14.907
72119W        W44544   1.330  42.026  10.619
72120W        W44545   0.517   5.112   3.781
72121W        W44546  32.035  38.982  10.684
72122W        W44547  28.208  31.099  13.591
72123W        W44548  33.422  21.402  13.481
72124W        W44549  16.935  22.953   1.792
72125W        W44550  41.915  15.085   1.411
72126W        W44551  28.077  23.010   5.502
72127W        W44552  25.233  36.128  11.113
72128W        W44553  28.077  13.230   3.200
72129W        W44554  12.145  24.278  11.976
72130W        W44555  36.637  34.637   2.289
72131W        W44556  27.726  13.129   4.821
72132W        W44557  30.010   8.090   1.932
72133W        W44558  25.011  31.610  13.284
72134W        W44559   7.364  23.181   3.172
72135W        W44560  30.559  11.874  13.279
72136W        W44561  24.484  40.836   4.123
72137W        W44562   4.589  16.046   1.241
72138W        W44563  11.938  10.758   4.758
72139W        W44564  10.779  27.061   0.996
72140W        W44565  40.946  28.675  11.252
72141W        W44566  42.685  42.580  11.976
72142W        W44567  10.965   0.382   4.216
72143W        W44568  24.981  38.292   2.326
72144W        W44569   1.212   1.736   4.633
72145W        W44570  25.410  24.650  10.471
72146W        W44571   0.271  10.321  13.863
72147W        W44572  24.948   9.085   1.221
72148W        W44573  32.968  15.348   3.735
72149W        W44574  27.164   5.680  12.622
72150W        W44575  20.624   1.798  14.865
72151W        W44576  27.545  12.391  14.641
72152W        W44577  44.516  43.788   0.429
72153W        W44578  13.877  15.412   0.200
72154W        W44579  10.957  34.886   1.025
72155W        W44580  17.375  41.374   1.792
72156W        W44581  22.524  20.744   2.886
72157W        W44582  38.843   1.232   4.243
72158W        W44583  18.140  21.470   0.791
72159W        W44584  33.140  28.912  14.440
72160W        W44585  21.786  24.319   1.389
72161W        W44586  34.835  23.553   1.864
72162W        W44587  23.710  11.436   5.544
72163W        W44588  35.056  27.664   3.039
72164W        W44589  29.153   9.087  13.811
72165W        W44590  39.296  16.667  10.711
72166W        W44591  29.987  16.086  13.418
72167W        W44592  32.385  39.938  13.907
72168W        W44593  26.104  15.830  14.949
72169W        W44594  27.957  39.337   5.161
72170W        W44595  18.476   6.655   3.793
72171W        W44596  38.994  43.357  10.481
72172W        W44597  43.430   7.006   3.853
72173W        W44598  16.701  11.590   0.900
72174W        W44599   5.754  22.533   3.715
72175W        W44600  23.358  28.932  14.281
72176W        W44601  34.566  42.900  14.064
72177W        W44602  22.937   0.921   1.284
72178W        W44603  20.693  43.067  13.060
72179W        W44604  40.836  27.561  14.554
72180W        W44605  20.057  35.487  14.610
72181W        W44606  39.071  39.816   1.416
72182W        W44607  22.602  10.593   0.706
72183W        W44608  33.674  15.313  12.868
72184W        W44609   9.589  36.289  11.108
72185W        W44610  11.737  17.362   4.189
72186W        W44611  13.814  36.337   3.782
72187W        W44612  28.178  33.907  12.522
72188W        W44613  22.496  33.703  11.051
72189W        W44614  19.168  42.448  10.623
72190W        W44615  10.910  37.329   4.048
72191W        W44616   5.042  19.900  11.179
72192W        W44617  18.317  44.701   1.351
72193W        W44618   0.052  16.833  11.981
72194W        W44619   8.378  11.493  13.334
72195W        W44620  32.171  43.711  11.138
72196W        W44621  39.324  39.971   0.921
72197W        W44622  32.642  17.450  11.503
72198W        W44623  20.137  15.086   3.647
72199W        W44624  33.930  40.148   0.289
72200W        W44625  43.882   8.872  12.512
72201W        W44626  11.215   8.405  11.100
72202W        W44627  11.754  26.183   1.005
72203W        W44628  35.024  20.167   4.012
72204W        W44629  14.248   1.972   3.149
72205W        W44630   2.369  34.874   2.581
72206W        W44631  21.943   2.854  13.106
72207W        W44632   4.364   0.903   1.317
72208W        W44633  31.338  26.752   3.202
72209W        W44634  42.900  10.201  14.129
72210W        W44635   2.052  18.120  11.115
72211W        W44636  23.304  25.479  14.829
72212W        W44637  12.325  34.209   4.670
72213W        W44638  13.341  21.729  11.585
72214W        W44639  18.259  15.311  11.157
72215W        W44640  36.801  16.285   1.410
72216W        W44641  12.906  21.954   3.742
72217W        W44642  30.626   7.680  14.046
72218W        W44643   4.813  23.434   5.284
72219W        W44644  31.503  34.165   1.229
72220W        W44645  40.102   9.866   2.748
72221W        W44646  44.012  26.149  14.503
72222W        W44647  44.581  26.471   1.871
72223W        W44648   1.363  32.863   3.719
72224W        W44649   9.848  30.102   4.937
72225W        W44650  13.308   1.720  10.184
72226W        W44651  21.104   6.428   0.229
72227W        W44652  10.931   7.234   4.288
72228W        W44653  38.316  37.129   3.120
72229W        W44654  34.075  12.537  11.862
72230W        W44655  40.278  25.965   2.191
72231W        W44656  31.166  35.067   4.508
72232W        W44657   0.783  24.753  12.888
72233W        W44658  33.404   8.825  14.019
72234W        W44659  12.909  18.263   3.171
72235W        W44660  37.292  27.086   1.828
72236W        W44661  10.078  43.913   0.521
72237W        W44662  30.141  31.580   0.010
72238W        W44663   6.422  38.955  12.380
72239W        W44664  13.810   5.947   2.748
72240W        W44665  10.915   6.726   1.688
72241W        W44666  17.347   2.872   1.285
72242W        W44667  10.367  24.616   3.625
72243W        W44668  34.844  15.229  12.417
72244W        W44669  30.379  29.988  10.623
72245W        W44670  36.399  19.415  12.883
72246W        W44671  16.229  19.565   2.982
72247W        W44672  29.460  19.285  11.047
72248W        W44673  26.574  17.108  12.097
72249W        W44674   5.262  38.149   5.058
72250W        W44675  34.918   0.264   2.882
72251W        W44676  14.442   8.222  11.506
72252W        W44677  33.105   8.831  14.565
72253W        W44678  14.669  15.103  14.822
72254W        W44679  32.899  37.802  13.460
72255W        W44680  19.129  26.784  12.992
72256W        W44681  15.694  41.236  13.833
72257W        W44682  22.529  14.218   2.418
72258W        W44683  27.243  10.571   1.795
72259W        W44684   9.617  17.098  13.256
72260W        W44685  29.957  41.475   2.808
72261W        W44686  43.836  34.202  11.528
72262W        W44687  27.076  44.757  14.457
72263W        W44688  20.516  11.886   1.184
72264W        W44689  34.326  10.824  11.843
72265W        W44690  36.795  10.254   1.155
72266W        W44691  44.621  10.224  14.978
72267W        W44692  43.993   7.447  11.896
72268W        W44693  38.577   2.438  14.009
72269W        W44694  21.271   3.349  12.459
72270W        W44695  37.345  25.668   0.740
72271W        W44696  19.898   7.809   3.256
72272W        W44697  25.478   2.862   2.707
72273W        W44698  10.787  25.484  13.260
72274W        W44699  36.074   4.367  14.161
72275W        W44700  30.889  17.715  11.082
72276W        W44701  30.442  16.489  14.563
72277W        W44702   8.864  43.881   2.604
72278W        W44703  13.505  36.138   4.165
72279W        W44704   7.940  40.433   0.468
72280W        W44705  43.658   2.877  14.916
72281W        W44706  13.559  15.382   3.646
72282W        W44707  21.901  12.442  11.635
72283W        W44708  17.920  12.102   3.767
72284W        W44709  14.102  39.060   4.564
72285W        W44710  31.254  33.334   4.114
72286W        W44711   1.266  33.385   3.818
72287W        W44712  44.221   3.530  12.893
72288W        W44713  34.923  15.687   2.933
72289W        W44714  31.347  14.658   3.614
72290W        W44715  13.305  19.749  14.935
72291W        W44716  12.158  31.629   1.689
72292W        W44717  23.599  28.790  14.720
72293W        W44718  19.597  12.690   1.125
72294W        W44719   0.512  22.772  14.295
72295W        W44720   3.630   4.245   2.380
72296W        W44721   9.853  17.245   1.297
72297W        W44722  32.945  22.889  14.296
72298W        W44723  44.196  32.019  11.088
72299W        W44724  44.984   5.219   2.260
72300W        W44725  44.228  27.993  14.426
72301W        W44726  21.435  21.114   2.706
72302W        W44727  31.131   1.143  11.093
72303W        W44728   4.193  14.039   4.932
72304W        W44729  15.436   7.462   5.156
72305W        W44730  29.643   5.230   0.981
72306W        W44731  42.065  36.210  11.544
72307W        W44732  39.530  19.150   2.320
72308W        W44733  34.146   3.812   4.583
72309W        W44734  35.176  18.358   3.793
72310W        W44735   2.156  29.229   1.738
72311W        W44736   7.610   7.923  10.780
72312W        W44737  37.575   1.883   0.977
72313W        W44738  20.650  10.585  13.945
72314W        W44739  17.144  11.299   0.235
72315W        W44740  20.727  26.366  14.836
72316W        W44741  22.150  32.821  11.597
72317W        W44742   0.959  20.775  12.550
72318W        W44743  28.859  28.709   3.125
72319W        W44744  38.430  32.374   1.187
72320W        W44745   7.209   9.898   1.237
72321W        W44746  13.591  11.252  10.740
72322W        W44747  17.802  11.772   2.278
72323W        W44748  26.516  27.511   0.675
72324W        W44749  28.514  21.279   0.873
72325W        W44750  19.181  39.864   0.335
72326W        W44751   1.938  13.107   2.300
72327W        W44752  34.499  34.144  12.154
72328W        W44753  15.599  36.394   0.316
72329W        W44754  35.378  44.519   3.117
72330W        W44755   8.781  34.168   1.252
72331W        W44756  29.449   6.270  12.430
72332W        W44757   8.907  20.038  11.782
72333W        W44758  13.410   2.747  10.963
72334W        W44759  39.872   7.102  10.620
72335W        W44760   5.223  28.021  11.114
72336W        W44761   6.879  31.014  14.415
72337W        W44762  41.489  37.048  13.393
72338W        W44763  26.421  28.509   0.793
72339W        W44764  34.052  43.318   0.900
72340W        W44765   0.166  11.100  14.344
72341W        W44766  41.453  21.568   4.361
72342W        W44767  18.544  36.530  11.688
72343W        W44768  21.995   7.130  10.974
72344W        W44769  11.801   3.352  11.963
72345W        W44770  28.434  26.756  14.787
72346W        W44771   0.373  42.918   1.775
72347W        W44772  15.276  21.055  13.919
72348W        W44773  17.103  34.463  14.349
72349W        W44774  19.859  33.055  11.587
72350W        W44775  28.028  14.234   2.363
72351W        W44776  38.823  26.475   4.581
72352W        W44777  39.396  37.944  13.467
72353W        W44778   3.214   9.125   1.897
72354W        W44779  44.448  25.807   3.807
72355W        W44780  37.978  36.490   2.904
72356W        W44781  42.768   0.394   3.332
72357W        W44782  21.546   0.745  13.945
72358W        W44783  27.034   4.819   3.208
72359W        W44784  21.441  20.124   2.755
72360W        W44785  36.847  31.483  14.770
72361W        W44786  19.554  30.203   0.028
72362W        W44787  43.488  14.218  11.611
72363W        W44788  24.165  16.824   0.881
72364W        W44789   0.229   3.820  14.809
72365W        W44790  30.888   4.665  10.651
72366W        W44791   5.720  32.879  12.445
72367W        W44792  23.084  23.389   1.787
72368W        W44793   4.697   5.772   2.624
72369W        W44794  16.775   0.396   4.188
72370W        W44795   0.469  31.256   4.128
72371W        W44796  16.478  10.227   0.872
72372W        W44797   4.693  27.580   1.420
72373W        W44798  18.217  23.062   4.602
72374W        W44799   5.187   6.867   3.483
72375W        W44800   6.002  27.981   1.297
72376W        W44801  42.772  17.293  10.728
72377W        W44802  40.363   7.916  12.857
72378W        W44803  37.285  20.835  14.423
72379W        W44804  14.613  34.836   4.891
72380W        W44805  19.866  19.585  13.411
72381W        W44806   1.740  19.587   2.788
72382W        W44807  38.803  39.030   0.924
72383W        W44808  43.056  19.854   4.472
72384W        W44809  25.730  28.100   3.852
72385W        W44810  24.497  18.606   1.446
72386W        W44811  26.547  30.779   0.348
72387W        W44812  28.486   3.229  10.817
72388W        W44813   0.259  19.858   4.516
72389W        W44814  16.639   7.414   0.492
72390W        W44815  28.623  12.390   3.375
72391W        W44816   2.200  14.084  11.990
72392W        W44817  34.177  14.122  13.431
72393W        W44818  29.792  44.662  10.962
72394W        W44819   2.825  19.709  14.306
72395W        W44820  13.375  26.960   0.311
72396W        W44821   9.940   5.837  10.729
72397W        W44822  33.121   3.614   2.635
72398W        W44823   8.171  34.551   1.078
72399W        W44824  15.361  37.953  12.089
72400W        W44825  23.924  43.387   4.345
72401W        W44826  43.456   0.359  10.671
72402W        W44827  23.573  34.593  10.671
72403W        W44828  32.067  35.581  11.585
72404W        W44829  41.522   8.944   4.201
72405W        W44830  26.243  12.257   0.935
72406W        W44831   9.957   2.404  12.597
72407W        W44832  44.975  39.332  10.646
72408W        W44833  23.121  27.104  12.466
72409W        W44834  26.524  43.532  11.194
72410W        W44835   3.789  22.120  12.059
72411W        W44836  32.135   4.028  13.589
72412W        W44837  14.580  36.311   3.333
72413W        W44838   9.627  38.126   0.509
72414W        W44839  36.856  24.155   0.429
72415W        W44840  16.146  18.229  10.803
72416W        W44841  10.333  27.747   3.826
72417W        W44842  34.267  28.404   3.616
72418W        W44843  24.124   6.839  10.617
72419W        W44844   6.207  21.582  14.291
72420W        W44845   0.820   4.676  10.760
72421W        W44846  27.909  31.589   2.664
72422W        W44847  37.512   0.911   4.044
72423W        W44848  11.899  28.976  13.857
72424W        W44849  12.791  34.473  11.422
72425W        W44850  29.244  30.426  14.933
72426W        W44851   6.738  16.350   0.961
72427W        W44852  39.273  36.128  14.314
72428W        W44853  43.386  42.033   1.016
72429W        W44854  34.617  20.732  12.753
72430W        W44855  21.645  20.025   0.383
72431W        W44856  37.035   8.922  14.898
72432W        W44857  41.428   1.451  14.289
72433W        W44858   2.330  36.424   4.189
72434W        W44859  38.382  42.747   1.204
72435W        W44860   0.278  20.822   4.749
72436W        W44861  26.642  24.399  12.207
72437W        W44862  19.605  13.497   0.484
72438W        W44863  26.610  13.597  11.168
72439W        W44864  42.225   7.359  11.546
72440W        W44865  41.274  14.233  13.552
72441W        W44866   3.604   7.820  12.210
72442W        W44867  31.778  17.021   3.230
72443W        W44868  40.602  15.267  10.650
72444W        W44869  23.186  44.062   0.890
72445W        W44870  16.256  13.934  11.642
72446W        W44871  36.033  18.232  14.954
72447W        W44872   3.914  34.671  11.054
72448W        W44873  16.863  17.721  14.616
72449W        W44874   8.100  20.673  10.934
72450W        W44875  14.830   4.279   4.850
72451W        W44876  16.680  39.414  14.363
72452W        W44877  40.890  29.960  13.759
72453W        W44878   9.097  19.165   0.440
72454W        W44879  38.273  16.232   1.267
72455W        W44880  43.562  40.432  12.479
72456W        W44881  34.212  14.907  12.114
72457W        W44882  30.126  30.640  14.502
72458W        W44883  37.769  26.579  13.822
72459W        W44884  21.842  37.404   1.239
72460W        W44885   0.808  32.509  14.513
72461W        W44886   5.750  22.403  11.982
72462W        W44887   4.724  20.851  11.545
72463W        W44888  11.697  14.324  14.922
72464W        W44889  10.539  19.774  13.984
72465W        W44890  15.628  42.293   1.852
72466W        W44891   0.622  23.839   3.804
72467W        W44892   7.033  41.991   1.858
72468W        W44893  15.090  26.474  11.717
72469W        W44894   9.719  12.749  13.242
72470W        W44895  32.242  15.631  14.789
72471W        W44896  23.088  19.557   0.032
72472W        W44897  38.999   7.406   1.882
72473W        W44898  31.516   8.591  10.725
72474W        W44899  29.076  36.735  14.542
72475W        W44900  10.612  40.512  11.545
72476W        W44901  41.956  19.521  14.453
72477W        W44902  31.812  12.401   0.751
72478W        W44903   6.962  38.958  14.887
72479W        W44904   9.018  25.959   0.760
72480W        W44905  39.415   8.531  13.464
72481W        W44906  39.861   7.851   1.003
72482W        W44907  12.175  19.298  12.355
72483W        W44908  12.278  37.510  11.455
72484W        W44909   9.338   3.296   4.542
72485W        W44910  29.449  32.866   2.364
72486W        W44911   0.952  22.211  14.439
72487W        W44912   7.916  42.290   4.935
72488W        W44913  44.623  20.201  14.715
72489W        W44914   2.829  39.006   0.773
72490W        W44915  27.171  16.482   3.144
72491W        W44916  27.138   5.894  11.066
72492W        W44917  14.302   2.408  11.727
72493W        W44918  44.156  19.615  13.345
72494W        W44919  24.061  40.228  13.821
72495W        W44920   7.399   3.591  10.481
72496W        W44921  26.906  22.229   1.267
72497W        W44922  34.169  35.140  12.161
72498W        W44923  12.223  16.088  14.372
72499W        W44924  20.149  23.514  11.892
72500W        W44925   6.684   3.748   3.116
72501W        W44926  12.342  38.918   3.328
72502W        W44927   3.515  21.042  14.455
72503W        W44928   7.833  32.844  14.262
72504W        W44929   6.946  22.060   3.564
72505W        W44930  16.132  21.192   2.274
72506W        W44931  20.091   5.351  14.877
72507W        W44932  22.684   3.653  14.452
72508W        W44933   0.297  11.339   4.666
72509W        W44934  39.947  28.608   4.119
72510W        W44935  19.009  22.175   0.310
72511W        W44936   8.095  11.527   2.398
72512W        W44937   1.484  44.941  10.749
72513W        W44938  43.501   1.691  11.995
72514W        W44939   7.292   5.382   2.393
72515W        W44940   7.443  37.936  10.644
72516W        W44941  15.760   8.636  10.173
72517W        W44942  16.772  30.072   3.005
72518W        W44943  27.981  38.878   4.126
72519W        W44944  32.690  22.580  10.688
72520W        W44945   8.874  31.195  11.561
72521W        W44946  22.057  27.077  14.775
72522W        W44947   0.292  44.247   3.271
72523W        W44948  14.340   8.691   4.187
72524W        W44949  41.015  29.096   3.856
72525W        W44950  15.312  32.405   1.771
72526W        W44951  11.683  23.343   4.427
72527W        W44952  13.286  41.381  10.091
72528W        W44953  19.054  40.741   4.545
72529W        W44954  38.504  28.418   1.876
72530W        W44955  25.987   9.714  10.419
72531W        W44956  33.555  10.305   4.168
72532W        W44957  43.385  31.853   4.251
72533W        W44958  10.222   8.800  11.997
72534W        W44959  16.586  44.261  12.033
72535W        W44960  40.318  31.317   0.829
72536W        W44961  12.290   7.922   1.783
72537W        W44962  12.593  35.955   4.721
72538W        W44963   7.690   7.259   2.381
72539W        W44964  29.652  27.861   0.074
72540W        W44965  18.058  20.828  13.027
72541W        W44966  28.515  15.234   3.744
72542W        W44967   6.158  24.310   2.742
72543W        W44968  33.522  21.009  10.779
72544W        W44969   0.643  15.611   2.879
72545W        W44970  40.718   8.836  13.670
72546W        W44971  31.416   7.124  12.397
72547W        W44972  36.286  42.889   3.350
72548W        W44973  22.196  29.591   1.293
72549W        W44974  32.395  28.921  11.255
72550W        W44975  32.576  43.039  13.867
72551W        W44976  31.454   8.320   0.478
72552W        W44977  44.143  28.684  11.397
72553W        W44978  28.107  16.566   2.165
72554W        W44979   9.153  15.099   3.258
72555W        W44980  14.787  34.008  10.510
72556W        W44981   3.274  23.162   2.624
72557W        W44982  19.535  39.911  11.428
72558W        W44983  35.466  37.912   2.791
72559W        W44984  17.290   1.266  11.125
72560W        W44985  18.241  35.003   3.155
72561W        W44986  35.450  20.528  12.050
72562W        W44987  41.779  21.439   3.616
72563W        W44988  23.641  34.296   1.334
72564W        W44989  16.089  32.019  11.582
72565W        W44990  39.466  11.140  14.402
72566W        W44991  10.054  12.073  12.987
72567W        W44992  14.122  19.094   4.329
72568W        W44993  42.343  18.105  13.072
72569W        W44994  44.747  37.997   0.268
72570W        W44995  28.576  26.405  11.139
72571W        W44996  36.184  44.896   3.004
72572W        W44997  27.380   9.833   3.220
72573W        W44998  27.957  34.610   3.270
72574W        W44999   2.443  40.118   1.662
72575W        W45000  39.073  22.044   3.658
72576W        W45001  30.841  12.907   0.880
72577W        W45002  30.373  44.675  12.442
72578W        W45003  27.479  11.606   0.752
72579W        W45004  25.023  39.900  12.003
72580W        W45005  15.810  16.087   4.184
72581W        W45006   7.316   6.393  13.928
72582W        W45007  12.698  18.997   1.322
72583W        W45008  40.780  26.156  10.789
72584W        W45009   3.143   7.641   0.505
72585W        W45010  16.523  15.293  14.995
72586W        W45011   6.980   1.660  11.433
72587W        W45012  20.702  12.593   4.529
72588W        W45013  29.856  28.654   0.757
72589W        W45014  38.059  13.226   3.361
72590W        W45015  15.134  14.552   3.431
72591W        W45016   9.273  16.310  14.306
72592W        W45017   5.494  10.666   2.240
72593W        W45018  44.379  26.268  13.452
72594W        W45019  32.828  37.224  12.607
72595W        W45020  13.471   5.302   1.480
72596W        W45021   1.351   9.143  11.198
72597W        W45022  28.654  27.187  12.059
72598W        W45023  17.994  34.981  12.090
72599W        W45024  41.152  37.056  12.993
72600W        W45025   8.117   5.723  10.374
72601W        W45026  13.840   1.493   2.471
72602W        W45027  15.134  19.354  13.026
72603W        W45028  30.194  29.406  12.829
72604W        W45029  30.805  38.151   3.327
72605W        W45030  39.341  37.261   3.885
72606W        W45031   3.774  30.196  14.369
72607W        W45032  33.807  37.917   4.224
72608W        W45033  16.698  18.221   0.460
72609W        W45034  14.030   7.252   4.806
72610W        W45035  23.913  12.248   2.797
72611W        W45036  16.158  21.541   1.719
72612W        W45037  44.715  32.735  11.141
72613W        W45038  44.436  21.775   1.709
72614W        W45039  31.273  34.346   0.568
72615W        W45040   8.885   4.785   3.735
72616W        W45041  16.803  30.344   3.730
72617W        W45042  10.102  41.035   3.203
72618W        W45043  33.934   9.535  11.069
72619W        W45044  21.780  38.977   0.011
72620W        W45045   1.127  18.111   2.665
72621W        W45046  26.105   7.114  12.118
72622W        W45047   8.715   8.402   4.068
72623W        W45048  26.237  20.311   4.545
72624W        W45049  20.668   2.561  12.532
72625W        W45050  34.941  12.664   1.405
72626W        W45051  29.495  31.412  11.565
72627W        W45052  23.299  20.211  14.897
72628W        W45053  17.616  28.966   2.209
72629W        W45054  27.267   9.631  11.997
72630W        W45055  37.656  38.012   0.194
72631W        W45056  16.546  26.160  11.470
72632W        W45057   2.314  23.035   4.720
72633W        W45058  30.595  34.344  11.051
72634W        W45059   3.223  14.749  14.354
72635W        W45060  10.308  34.449  11.183
72636W        W45061  40.381  44.792  14.080
72637W        W45062  21.758  31.697  14.999
72638W        W45063   5.331  38.076   4.525
72639W        W45064   0.446  29.948   1.724
72640W        W45065  37.413  40.312   4.660
72641W        W45066  18.797  17.228  11.908
72642W        W45067  43.405  15.850   1.908
72643W        W45068  19.544  25.934  11.140
72644W        W45069  14.247  43.983  12.480
72645W        W45070   0.737  34.625  13.289
72646W        W45071  39.351  43.845  14.889
72647W        W45072  35.196  27.188  13.486
72648W        W45073  22.723   2.392  14.880
72649W        W45074   0.428  43.862  12.368
72650W        W45075  36.458  24.718   4.212
72651W        W45076  34.974  29.023  12.160
72652W        W45077  17.251   5.015   3.624
72653W        W45078  37.956  38.900   1.403
72654W        W45079  14.163  10.760   3.140
72655W        W45080  38.216  16.801  12.012
72656W        W45081   0.886  13.679   1.672
72657W        W45082  39.740  12.729   0.759
72658W        W45083  41.513  29.782   0.024
72659W        W45084  18.003   8.723  12.676
72660W        W45085   4.913  17.861  11.087
72661W        W45086   5.900  43.208  11.258
72662W        W45087  40.344  40.275   4.615
72663W        W45088  41.890   3.579  11.498
72664W        W45089  39.103  37.558   0.722
72665W        W45090  33.489  41.091   0.453
72666W        W45091  18.709   2.334  12.480
72667W        W45092  31.388   3.229  14.484
72668W        W45093  26.479  30.341   3.594
72669W        W45094  42.738  27.916   1.349
72670W        W45095  20.799   6.711   0.550
72671W        W45096   8.577  17.130   0.804
72672W        W45097  43.301  36.801   3.867
72673W        W45098  28.360  15.700   3.628
72674W        W45099  20.202  17.233   2.612
72675W        W45100  39.077  26.100  13.040
72676W        W45101  26.091   7.236   2.962
72677W        W45102  41.736  34.590  13.905
72678W        W45103   3.939  12.149   1.199
72679W        W45104   6.955  42.498   1.744
72680W        W45105  42.220   0.902   0.990
72681W        W45106  21.441   7.615  11.124
72682W        W45107   5.649   1.841  11.810
72683W        W45108  33.491  34.571  10.878
72684W        W45109  35.483  20.345   0.248
72685W        W45110  32.107  41.319  13.732
72686W        W45111  24.711  38.566  14.384
72687W        W45112   0.067  37.084   1.088
72688W        W45113  22.945  13.915   4.939
72689W        W45114  39.735  18.730  12.156
72690W        W45115   3.232  35.011   3.158
72691W        W45116   7.784  40.818  10.370
72692W        W45117  28.368  41.061   3.646
72693W        W45118  39.471  16.770  12.466
72694W        W45119   3.836  22.433   2.583
72695W        W45120  43.302  30.407   4.484
72696W        W45121  42.451  21.159   1.465
72697W        W45122  31.958   1.855   4.660
72698W        W45123   7.746  10.155   3.183
72699W        W45124   8.317   6.010   4.747
72700W        W45125   8.361   4.168   1.312
72701W        W45126  14.108  11.396   3.710
72702W        W45127  43.233  29.656   3.458
72703W        W45128  36.794  31.158  11.836
72704W        W45129   3.558  34.135   1.667
72705W        W45130  37.516   1.691   2.413
72706W        W45131   7.602  20.140  11.406
72707W        W45132  37.446  27.474  11.020
72708W        W45133  17.580  27.151   0.379
72709ION    NA+45134  17.382   4.116   0.373
72710ION    NA+45135  31.617   5.169   2.678
72711ION    NA+45136  16.531   6.405  12.521
72712ION    NA+45137  26.712  14.146   4.251
72713ION    NA+45138  20.663  26.937   2.759
72714ION    NA+45139  11.381  17.924   1.522
72715ION    NA+45140  16.276   0.978   1.151
72716ION    NA+45141   5.774  41.657   2.975
72717ION    NA+45142  34.371  18.284   0.915
72718ION    NA+45143  13.337  41.915  11.132
72719ION    NA+45144  25.569  43.945  13.572
72720ION    NA+45145  26.548   9.790  14.765
72721ION    NA+45146  42.216  14.584   2.241
72722ION    NA+45147  14.212  21.706  14.408
72723ION    NA+45148  10.016   8.639   5.366
72724ION    NA+45149  11.594   7.824   4.271
72725ION    NA+45150  28.097  19.407  13.197
72726ION    NA+45151  13.791  30.509  10.795
72727ION    NA+45152  44.704  35.026   5.405
72728ION    NA+45153  23.759   0.759  11.461
72729ION    NA+45154  30.935   5.316  12.618
72730ION    NA+45155   2.301  18.514  14.902
72731ION    NA+45156  14.377  14.366   1.144
72732ION    NA+45157  36.769  39.577   3.820
72733ION    NA+45158  36.189  11.423   1.900
72734ION    NA+45159  15.124  20.055   1.535
72735ION    NA+45160  16.268   7.106  11.606
72736ION    NA+45161  15.925   3.694  10.888
72737ION    NA+45162  35.492  10.357   2.491
72738ION    NA+45163  40.656  22.638   4.092
72739ION    NA+45164   4.981  12.021  12.329
72740ION    NA+45165  23.841  27.282   3.537
72741ION    NA+45166   3.737  26.246   0.419
72742ION    NA+45167  36.608  32.858  14.396
72743ION    NA+45168  34.076  19.601  12.743
72744ION    NA+45169  10.061   1.579   2.142
72745ION    NA+45170   9.501  41.053   3.858
72746ION    NA+45171  33.508  37.181  10.663
72747ION    NA+45172  30.199  32.692   2.124
72748ION    NA+45173  10.113  27.985   5.452
72749ION    NA+45174  22.879   7.583  11.150
72750ION    NA+45175   1.292  31.159   1.390
72751ION    NA+45176  28.561   2.029   2.912
72752ION    NA+45177  36.611  35.224  11.178
72753ION    NA+45178  31.278  26.427   3.617
72754ION    NA+45179  28.538  22.319  11.121
72755ION    NA+45180  21.685  20.519   3.988
72756ION    NA+45181  18.845  15.093  13.480
72757ION    NA+45182  44.220   5.119   4.382
72758ION    NA+45183  23.757  27.274   2.129
72759ION    NA+45184  20.983  18.476   0.942
72760ION    NA+45185  16.415   0.089   1.290
72761ION    NA+45186   2.298   5.752   4.685
72762ION    NA+45187  39.634  30.547   2.396
72763ION    NA+45188  17.487  28.576   1.378
72764ION    NA+45189   1.112  29.866   0.045
72765ION    NA+45190   9.282  34.039  13.686
72766ION    NA+45191  28.869  16.409   2.705
72767ION    NA+45192  27.674   6.033  10.451
72768ION    NA+45193   3.194   3.919   4.077
72769ION    NA+45194  13.012   4.015  12.177
72770ION    NA+45195   6.808   5.007  14.710
72771ION    NA+45196  10.062  27.007   0.012
72772ION    NA+45197  34.968  36.287   2.136
72773ION    NA+45198  23.164  31.113   3.743
72774ION    NA+45199   4.017  18.400  13.925
72775ION    NA+45200  28.931   6.250  10.951
72776ION    NA+45201  10.249   5.293   2.786
72777ION    NA+45202  24.010  23.997  13.446
72778ION    NA+45203  32.936  13.644   1.849
72779ION    NA+45204  21.785  14.055  12.418
72780ION    NA+45205  21.374   6.524   1.013
72781ION    NA+45206  21.139   4.113   4.382
72782ION    NA+45207  32.456  17.609  12.370
72783ION    NA+45208   7.374  22.216  13.006
72784ION    NA+45209   3.047   1.367   2.893
72785ION    NA+45210  44.732  13.081   3.795
72786ION    NA+45211  43.304   3.557  11.679
72787ION    NA+45212   7.956  24.030  13.504
72788ION    NA+45213  18.533  15.908   4.489
72789ION    NA+45214   8.594   7.938   2.340
72790ION    NA+45215  43.284   7.445   4.553
72791ION    NA+45216  40.519  26.166   2.712
72792ION    NA+45217  31.630  34.003  10.926
72793ION    NA+45218   9.960  11.823  13.553
72794ION    NA+45219  27.785  34.630   2.413
72795ION    NA+45220   0.294  37.459   1.341
72796ION    NA+45221   5.372  19.493  11.975
72797ION    NA+45222  42.073  37.820   0.414
72798ION    NA+45223  21.318  37.165   2.695
72799ION    NA+45224   3.987   9.784  11.022
72800ION    NA+45225  27.009  28.616   4.362
72801ION    NA+45226  34.839   8.282  13.033
72802ION    NA+45227  11.676  35.904   4.593
72803ION    NA+45228  21.236  41.881   2.936
72804ION    NA+45229  39.203  28.755  13.273
72805ION    NA+45230  21.366   7.560  12.552
72806ION    NA+45231   8.256   4.414   1.842
72807ION    NA+45232  34.574  16.992   1.861
72808ION    NA+45233  35.780  25.060   0.556
72809ION    NA+45234  12.743   5.586   2.888
72810ION    NA+45235  13.901  17.286   2.881
72811ION    NA+45236  44.489  12.593  13.655
72812ION    NA+45237  37.942  30.668  11.329
72813ION    NA+45238   5.068  35.835   3.750
72814ION    NA+45239  44.780  31.243   3.126
72815ION    NA+45240  16.244  31.218  14.736
72816ION    NA+45241  43.257  27.918  11.189
72817ION    NA+45242  38.661  43.354   2.751
72818ION    NA+45243  15.308  26.176   3.709
72819ION    NA+45244  21.405  26.654   1.121
72820ION    NA+45245  26.729  21.360   5.279
72821ION    NA+45246   4.865   2.707  10.879
72822ION    NA+45247  11.224  29.541  13.813
72823ION    NA+45248  25.014  37.720   3.935
72824ION    NA+45249  38.081  25.090  13.887
72825ION    NA+45250  37.724  26.610   2.986
72826ION    NA+45251  16.998  20.693  13.322
72827ION    NA+45252  16.526  13.751  14.252
72828ION    NA+45253  22.071  35.904  11.111
72829ION    NA+45254  32.766  33.524   0.819
72830ION    NA+45255  42.184  11.664  14.003
72831ION    NA+45256  35.469  25.143   1.524
72832ION    NA+45257  36.084   4.502   0.343
72833ION    NA+45258   1.293  18.538  13.510
72834ION    NA+45259  19.221   2.469  12.383
72835ION    NA+45260   6.923  22.637   4.534
72836ION    NA+45261  23.014  14.104   2.215
72837ION    NA+45262  35.405   2.187  10.546
72838ION    NA+45263  25.377  43.402   0.715
72839ION    NA+45264  41.110  17.702   2.826
72840ION    NA+45265  31.455  37.689   3.531
72841ION    NA+45266  18.532   8.328  11.006
72842ION    NA+45267   9.798   0.726  13.008
72843ION    NA+45268   2.988  26.490   3.783
72844ION    NA+45269  27.808  26.264   1.476
72845ION    NA+45270  15.713  21.767  11.510
72846ION    NA+45271  27.485  16.329  12.100
72847ION    NA+45272   3.353   6.843   0.992
72848ION    NA+45273   2.763  22.975  14.523
72849ION    NA+45274  30.855  42.748   1.326
72850ION    NA+45275   7.475  22.527  11.448
72851ION    NA+45276   1.475  25.157  12.317
72852ION    NA+45277  25.336  35.546   0.843
72853ION    NA+45278  15.705  28.839  14.951
72854ION    NA+45279   2.345  41.118   4.196
72855ION    NA+45280  31.871   3.803   3.690
72856ION    NA+45281  15.241  12.936  11.052
72857ION    NA+45282  37.766  33.412   1.058
72858ION    NA+45283  33.276   6.238   2.793
72859ION    NA+45284  13.328   0.113   1.999
72860ION    NA+45285   7.568  40.916  12.295
72861ION    NA+45286  40.114  15.652  12.105
72862ION    NA+45287  12.532  43.981   1.974
72863ION    NA+45288  44.283   1.687  10.965
72864ION    NA+45289  41.165   1.403   4.481
72865ION    NA+45290  44.053  31.030   3.490
72866ION    NA+45291  27.816   0.718  13.968
72867ION    NA+45292  30.038  23.012  11.094
72868ION    NA+45293  11.779  35.429  13.838
72869ION    NA+45294  37.861  33.813   1.813
72870ION    NA+45295  27.091  18.450  11.048
72871ION    NA+45296   6.870   7.381   1.801
72872ION    NA+45297   5.729  41.005   3.481
72873ION    NA+45298  11.585  16.106  13.858
72874ION    NA+45299  35.802  42.948  11.851
72875ION    NA+45300  24.124   3.737  14.620
72876ION    NA+45301  16.886  12.124  12.870
72877ION    NA+45302  42.700  22.513   2.143
72878ION    NA+45303  44.783  35.906  13.956
72879ION    NA+45304   5.941  44.806  12.475
72880ION    NA+45305  21.033   1.315   2.785
72881ION    NA+45306  23.929  10.674   2.538
72882ION    NA+45307  27.107   0.773  12.958
72883ION    NA+45308  44.544  42.733   1.507
72884ION    NA+45309  25.585  21.359   4.119
72885ION    NA+45310   0.913  40.075  14.487
72886ION    NA+45311  26.899  44.963   3.483
72887ION    NA+45312  35.237  11.225  11.608
72888ION    NA+45313   1.380   7.156  10.951
72889ION    NA+45314  20.344  19.087  14.390
72890ION    NA+45315  27.602  37.919   4.012
72891ION    NA+45316  20.088   7.353  10.232
72892ION    NA+45317   4.817  26.603  11.565
72893ION    NA+45318  10.424  37.460   1.697
72894ION    NA+45319  15.512  21.675   3.213
72895ION    NA+45320  16.543  38.578   2.712
72896ION    NA+45321  33.882  21.280  12.243
72897ION    NA+45322  32.282  13.218  14.074
72898ION    NA+45323  15.454  14.238  11.161
72899ION    NA+45324  24.382  42.884  13.006
72900ION    NA+45325  32.371  24.635   4.214
72901ION    NA+45326   9.843  27.075   4.296
72902ION    NA+45327   5.172  37.098  13.652
72903ION    NA+45328  11.843  14.770   2.722
72904ION    NA+45329  14.574   7.334  10.276
72905ION    NA+45330  16.094  27.071   4.535
72906ION    NA+45331  16.733  44.621   3.399
72907ION    NA+45332   3.330   9.300  12.150
72908ION    NA+45333   8.073  41.633  12.115
72909ION    NA+45334  25.051  29.784   3.464
72910ION    NA+45335  18.809  32.228   9.586
72911ION    NA+45336  21.082  28.442   0.079
72912ION    NA+45337  43.999   0.077  13.625
72913ION    NA+45338  33.317  25.589  11.015
72914ION    NA+45339  15.963  44.385   4.584
72915ION    NA+45340  17.039  23.637  14.820
72916ION    NA+45341  18.181  21.662  10.738
72917ION    NA+45342  20.630  44.739   4.689
72918ION    NA+45343  37.718  21.779   4.595
72919ION    NA+45344  21.654  12.842   3.654
72920ION    NA+45345  24.334  31.623  12.256
72921ION    NA+45346  15.305  36.552   4.687
72922ION    NA+45347   2.431   1.276  12.179
72923ION    NA+45348  31.793  19.206   0.163
72924ION    NA+45349  19.250  17.723   2.683
72925ION    NA+45350  13.554  38.397   3.044
72926ION    NA+45351  15.463  43.160   0.768
72927ION    NA+45352  31.327  44.298  11.572
72928ION    NA+45353  29.033   6.663  11.964
72929ION    NA+45354  15.830   2.061   1.203
72930ION    NA+45355  43.257  33.642  12.858
72931ION    NA+45356  28.971  24.012   2.306
72932ION    NA+45357  37.313   8.656  13.645
72933ION    NA+45358  42.606   0.483   1.710
72934ION    NA+45359  29.924  37.912  10.613
72935ION    NA+45360  26.936  11.413   3.241
72936ION    NA+45361  12.717   9.746  14.318
72937ION    NA+45362  28.613  17.094   1.900
72938ION    NA+45363  44.736  21.504  11.058
72939ION    NA+45364  33.371  20.192  11.678
72940ION    NA+45365  30.802  39.867   3.629
72941ION    NA+45366  16.272  38.252  10.814
72942ION    NA+45367  44.804  19.788   4.810
72943ION    NA+45368   8.594  19.449   5.405
72944ION    NA+45369   4.986  25.355   1.204
72945ION    NA+45370  22.047  20.757  12.854
72946ION    NA+45371  28.612   9.778  14.154
72947ION    NA+45372  17.617  20.984   4.057
72948ION    NA+45373  22.523  39.425  11.723
72949ION    NA+45374  11.253  15.037   1.335
72950ION    NA+45375   3.734  25.165  14.341
72951ION    NA+45376  20.587  18.055   2.248
72952ION    NA+45377  15.770  10.208   3.932
72953ION    NA+45378  35.406   6.498  13.538
72954ION    NA+45379   5.370  12.660  14.629
72955ION    NA+45380  18.357   9.563   3.140
72956ION    NA+45381  28.203  17.843   2.225
72957ION    NA+45382  17.826  24.662  12.970
72958ION    NA+45383  24.295  17.212  12.558
72959ION    NA+45384   0.205  32.392  13.628
72960ION    NA+45385  35.899  34.267   3.175
72961ION    NA+45386   5.277   6.986   2.459
72962ION    NA+45387  24.721  24.604  13.913
72963ION    NA+45388  33.470  26.904   2.250
72964ION    NA+45389  25.575  19.526   4.601
72965ION    NA+45390  12.236  39.754   1.187
72966ION    NA+45391  14.069  30.203  12.075
72967ION    NA+45392  16.430  15.316   1.294
72968ION    NA+45393  19.601   9.772  13.962
72969ION    NA+45394  36.000  26.646   0.882
72970ION    NA+45395   2.521  10.525   4.676
72971ION    NA+45396  21.763  16.082  10.506
72972ION    NA+45397  43.556  35.808   4.208
72973ION    NA+45398  42.948   1.662   4.069
72974ION    NA+45399  16.776  43.259   0.813
72975ION    NA+45400  18.114   1.240  13.396
72976ION    NA+45401   9.176  22.620  13.764
72977ION    NA+45402   6.161  11.124  12.309
72978ION    NA+45403  32.937   7.704  11.968
72979ION    NA+45404  24.476  15.087  12.933
72980ION    NA+45405  41.829  32.427   3.204
72981ION    NA+45406  12.530  34.369  10.970
72982ION    NA+45407  43.354  31.094  11.866
72983ION    NA+45408  36.462  16.153  11.958
72984ION    NA+45409   0.877  31.813  14.180
72985ION    NA+45410   7.579  13.760  13.164
72986ION    NA+45411  19.636  37.352   3.803
72987ION    NA+45412   4.604  16.224  13.629
72988ION    NA+45413  28.584   3.819   0.446
72989ION    NA+45414   4.670  17.937  14.602
72990ION    NA+45415   2.874  25.188   4.179
72991ION    NA+45416  23.759  30.429   2.174
72992ION    NA+45417   4.077   5.282   3.989
72993ION    NA+45418  39.901  27.146   2.085
72994ION    NA+45419  17.237  19.615  14.117
72995ION    NA+45420  36.440   5.426   5.683
72996ION    NA+45421  14.196  14.074  12.378
72997ION    NA+45422  10.292  41.794   2.784
72998ION    NA+45423  17.290   8.856   4.083
72999ION    NA+45424  42.917   6.456  10.910
73000ION    NA+45425  31.935  26.478   1.163
73001ION    NA+45426  30.451   3.380  10.658
73002ION    NA+45427  38.548  28.835  10.882
73003ION    NA+45428   6.301  40.738   2.078
73004ION    NA+45429  26.453  25.666   3.734
73005ION    NA+45430  43.529  15.576  14.924
73006ION    NA+45431  16.111  37.839   1.327
73007ION    NA+45432  22.970  39.212   4.153
73008ION    NA+45433   3.334  33.838   2.005
73009ION    NA+45434  41.083  19.225  12.548
73010ION    NA+45435  35.769   3.271  10.640
73011ION    NA+45436  44.705   8.202   0.662
73012ION    NA+45437  12.822  28.888   3.583
73013ION    NA+45438  41.081  14.596  13.047
73014ION    NA+45439  18.769  14.192   2.053
73015ION    NA+45440  21.729  34.388  13.473
73016ION    NA+45441  30.580  16.166   0.957
73017ION    NA+45442  25.731  41.310   0.750
73018ION    NA+45443  12.183   0.362   3.613
73019ION    NA+45444  43.816   9.219   1.717
73020ION    NA+45445  36.484   6.842  14.887
73021ION    NA+45446  26.835  13.138  13.329
73022ION    NA+45447  34.707  36.407  14.394
73023ION    NA+45448  12.829  28.086  13.911
73024ION    NA+45449  30.009   6.661   3.733
73025ION    NA+45450   6.016  10.150   4.154
73026ION    NA+45451  10.904  35.887  11.079
73027ION    NA+45452   8.294  30.390   0.381
73028ION    NA+45453  22.623  20.116  13.360
73029ION    NA+45454  26.625  13.202   5.511
73030ION    NA+45455  13.559   6.184  11.188
73031ION    NA+45456  29.826  25.093   1.985
73032ION    NA+45457   2.207   0.222   4.115
73033ION    NA+45458  37.532   6.428   4.938
73034ION    NA+45459   3.221  35.346   1.932
73035ION    NA+45460  12.802  41.624  12.211
73036ION    NA+45461  13.208   1.194  11.055
73037ION    NA+45462  28.156  25.024   2.900
73038ION    NA+45463  41.746  17.393  13.416
73039ION    NA+45464  36.449  22.145  12.516
73040ION    NA+45465  22.195  26.717  11.700
73041ION    NA+45466  31.873  10.959  10.895
73042ION    NA+45467   7.096  33.634   2.379
73043ION    NA+45468  40.874  31.469  13.018
73044ION    NA+45469  27.538  15.793   1.869
73045ION    NA+45470   0.199  39.076  14.266
73046ION    NA+45471   6.869  11.300   3.823
73047ION    NA+45472  22.512  41.018   2.142
73048ION    NA+45473  25.595  21.309  14.169
73049ION    NA+45474  35.943  21.497  12.894
73050ION    NA+45475  28.584  39.781   2.707
73051ION    NA+45476  18.416  17.276  13.686
73052ION    NA+45477  40.925  15.107  14.820
73053ION    NA+45478   8.508  20.531  10.683
73054ION    NA+45479  33.314  28.653   3.603
73055ION    NA+45480  32.578  18.998   0.926
73056ION    NA+45481  38.608   3.237  14.397
73057ION    NA+45482  27.041  10.426   9.754
73058ION    NA+45483  11.450  34.255  10.701
73059ION    NA+45484  34.616  32.433   3.770
73060ION    NA+45485  44.476   9.578  13.957
73061ION    NA+45486   1.529  18.057  12.530
73062ION    NA+45487  34.126   3.932   4.078
73063ION    NA+45488  26.711  41.649   1.689
73064ION    NA+45489   6.069  11.713  11.610
73065ION    NA+45490   2.979  23.179   1.390
73066ION    NA+45491  31.182   2.733  12.913
73067ION    NA+45492  20.030  14.151   5.323
73068ION    NA+45493  23.797   6.881   1.947
73069ION    NA+45494  37.579   3.173   1.227
73070ION    NA+45495  36.989  20.942  13.420
73071ION    NA+45496  12.765  17.717  14.255
73072ION    NA+45497  27.470   4.505   0.220
73073ION    NA+45498  23.722   1.228  13.809
73074ION    NA+45499  26.673  43.905   1.287
73075ION    NA+45500  27.890  31.570  12.449
73076ION    NA+45501  19.770  44.228  12.773
73077ION    NA+45502  21.240  36.005   1.944
73078ION    NA+45503  31.904   3.728   0.058
73079ION    NA+45504  12.508  24.087   5.504
73080ION    NA+45505  24.155  13.144  13.531
73081ION    NA+45506   9.376  25.150  14.898
73082ION    NA+45507  36.017   8.652  13.758
73083ION    NA+45508  19.887  26.474  12.272
73084ION    NA+45509  11.158   7.182   4.742
73085ION    NA+45510  10.056  41.138  11.305
73086ION    NA+45511   9.758   8.387   0.900
73087ION    NA+45512  11.783  17.031   2.219
73088ION    NA+45513   9.768  29.950  13.657
73089ION    NA+45514  42.046  13.175   0.678
73090ION    NA+45515  34.636   8.177   2.649
73091ION    NA+45516  18.207  15.912   1.035
73092ION    NA+45517  30.352   9.969  13.517
73093ION    NA+45518  21.964  39.398  14.776
73094ION    NA+45519  15.984  33.188   3.321
73095ION    NA+45520   9.510  40.072   3.665
73096ION    NA+45521  18.919  34.201   0.758
73097ION    NA+45522  16.789  23.439   1.955
73098ION    NA+45523  23.058   8.463  11.029
73099ION    NA+45524   9.004  16.415  12.144
73100ION    NA+45525  15.474   2.572   4.837
73101ION    NA+45526   5.429   0.018   1.315
73102ION    NA+45527  15.002  18.822  12.788
73103ION    NA+45528  22.552  41.245  10.798
73104ION    NA+45529   7.230  39.965  12.661
73105ION    NA+45530  24.056   7.645  12.622
73106ION    NA+45531  26.658  38.688   0.085
73107ION    NA+45532  35.532  16.645   0.825
73108ION    NA+45533  38.434  43.031  13.559
73109ION    NA+45534  28.185  15.085   1.586
73110ION    NA+45535  38.327   4.160   3.098
73111ION    NA+45536  22.911  19.450  11.179
73112ION    NA+45537  10.703  20.279   2.553
73113ION    NA+45538   8.197  31.177   3.491
73114ION    NA+45539  37.744  18.076   3.614
73115ION    NA+45540  42.693  28.445   3.833
73116ION    NA+45541  21.028  26.418  13.303
73117ION    NA+45542   4.430   9.817   2.600
73118ION    NA+45543  33.953  33.262  13.688
73119ION    NA+45544  15.006  22.146  12.108
73120ION    NA+45545  13.100   4.502   5.579
73121ION    NA+45546  10.854  14.964  12.170
73122ION    NA+45547  17.634  19.589   4.519
73123ION    NA+45548  21.009  41.721   3.777
73124ION    NA+45549  11.818  29.977  10.770
73125ION    NA+45550  18.952  23.663   4.322
73126ION    NA+45551  38.817  11.272   1.580
73127ION    NA+45552   1.727  33.531  10.997
73128ION    NA+45553  18.822  37.086   1.931
73129ION    NA+45554  29.704  13.688   1.394
73130ION    NA+45555  44.776   9.772  12.451
73131ION    NA+45556  25.546   4.678   3.278
73132ION    NA+45557   1.377   3.802   1.217
73133ION    NA+45558  15.149   0.714  13.154
73134ION    NA+45559  27.950  13.305   0.511
73135ION    NA+45560  42.194   9.616  14.880
73136ION    NA+45561  21.734   5.959   4.137
73137ION    NA+45562  36.017  21.739  14.064
73138ION    NA+45563  35.320  13.059   1.237
73139ION    NA+45564   1.390   1.277   4.782
73140ION    NA+45565  39.958  31.380  14.970
73141ION    NA+45566  32.242  27.959   1.276
73142ION    NA+45567  39.934  14.538  10.579
73143ION    NA+45568  23.805  36.797  12.088
73144ION    NA+45569  20.409  12.994   4.069
73145ION    NA+45570  29.061  26.824  11.907
73146ION    NA+45571   1.346  30.456   4.096
73147ION    NA+45572  17.354  29.669   2.578
73148ION    NA+45573  37.928  36.006  14.356
73149ION    NA+45574  15.834   9.616  13.513
73150ION    NA+45575  30.178   7.895   2.389
73151ION    NA+45576  32.865  29.779   0.649
73152ION    NA+45577  34.526   6.929   5.087
73153ION    NA+45578  30.830   7.380   2.949
73154ION    NA+45579   4.926  17.265   2.896
73155ION    NA+45580  38.177  41.320  11.453
73156ION    NA+45581  30.186  38.188  14.969
73157ION    NA+45582  11.578   3.496  13.213
73158ION    NA+45583  16.484  15.118  11.207
73159ION    NA+45584  13.257  24.665   1.961
73160ION    NA+45585  44.637  44.616   3.119
73161ION    NA+45586   1.285   2.790  10.660
73162ION    NA+45587  23.009   3.362  14.079
73163ION    NA+45588  35.157   0.647   3.778
73164ION    NA+45589  40.502  36.959  11.013
73165ION    NA+45590  11.692   2.118   4.102
73166ION    NA+45591  18.941  24.431   1.870
73167ION    NA+45592  41.515   4.317  11.919
73168ION    NA+45593   6.028   6.218   3.231
73169ION    NA+45594  10.713  10.634   0.973
73170ION    NA+45595  36.486  27.639   3.582
73171ION    NA+45596  16.375   3.008   3.338
73172ION    NA+45597  33.750  34.203   2.723
73173ION    NA+45598  34.602  26.038  14.814
73174ION    NA+45599   4.469  18.177   3.040
73175ION    NA+45600   2.428  22.670  11.207
73176ION    NA+45601  35.804  12.376   2.916
73177ION    NA+45602  32.604  22.929  13.897
73178ION    NA+45603  35.922  37.872  11.192
73179ION    NA+45604  11.512  18.833  12.656
73180ION    NA+45605  19.012  28.689  14.357
73181ION    NA+45606  30.490  25.778   1.684
73182ION    NA+45607  11.742  43.870   1.571
73183ION    NA+45608  11.043  26.576  10.614
73184ION    NA+45609  14.544  13.430  11.817
73185ION    NA+45610  18.612  11.918  12.624
73186ION    NA+45611  36.993  37.852   0.842
73187ION    NA+45612   8.242  25.540   4.369
73188ION    NA+45613  37.468  38.050   2.628
73189ION    NA+45614  22.623  38.193  12.463
73190ION    NA+45615  29.565  25.826  11.883
73191ION    NA+45616   8.085  29.163  14.783
73192ION    NA+45617  44.490  34.054   2.728
73193ION    NA+45618  20.657  34.059  14.824
73194ION    NA+45619  38.540  16.936   2.651
73195ION    NA+45620  35.458  28.636   4.295
73196ION    NA+45621  20.421  33.548  12.331
73197ION    NA+45622  28.160   0.629   1.967
73198ION    NA+45623  17.524  18.703  12.136
73199ION    NA+45624  35.748  30.588  12.845
73200ION    NA+45625  33.609  27.979  14.412
73201ION    NA+45626  36.419   6.661   2.807
73202ION    NA+45627   8.539  22.589  12.354
73203ION    NA+45628  34.515  19.650   4.084
73204ION    NA+45629  15.355   3.492  11.395
73205ION    NA+45630   5.138  22.505   1.697
73206ION    NA+45631   8.057  16.682   0.256
73207ION    NA+45632  29.888  22.995   3.705
73208ION    NA+45633   0.515   4.601   2.850
73209ION    NA+45634  35.611  25.184   4.443
73210ION    NA+45635  34.443  33.249   4.078
73211ION    NA+45636  31.578  29.624   1.692
73212ION    NA+45637  26.919  43.285  14.303
73213ION    NA+45638  44.827   3.088  14.334
73214ION    NA+45639  20.870  32.290   2.920
73215ION    NA+45640   1.510  17.591  14.348
73216ION    NA+45641   7.986   4.187  14.276
73217ION    NA+45642  27.089   5.473  11.659
73218ION    NA+45643  25.016  28.715   2.492
73219ION    NA+45644  34.053  44.307   3.206
73220ION    NA+45645   2.564   7.939   1.516
73221ION    NA+45646   4.912  44.572   2.897
73222ION    NA+45647  39.598   9.084  12.687
73223ION    NA+45648  28.278  18.381  13.431
73224ION    NA+45649  35.235  17.796   3.471
73225ION    NA+45650  19.685  16.688  12.679
73226ION    NA+45651  29.219  42.069  13.218
73227ION    NA+45652  15.385  29.325  12.388
73228ION    NA+45653   1.233  19.042  10.796
73229ION    NA+45654  32.018  28.956   3.796
73230ION    NA+45655  15.886   0.774  13.828
73231ION    NA+45656   4.516  40.769  13.895
73232ION    NA+45657   0.992  39.448   1.454
73233ION    NA+45658   1.511   3.984  13.478
73234ION    NA+45659  32.399   0.271  12.993
73235ION    NA+45660  16.009  42.825   0.136
73236ION    NA+45661  31.525  39.324   5.348
73237ION    NA+45662  35.675   9.390   0.351
73238ION    NA+45663  34.385  35.571   0.274
73239ION    NA+45664  21.735  42.394   3.635
73240ION    NA+45665  14.428  40.154   2.396
73241ION    NA+45666  27.053  22.130   3.899
73242ION    NA+45667  17.043   1.678   0.120
73243ION    NA+45668  10.059  36.516   0.289
73244ION    NA+45669  26.006  23.497  11.806
73245ION    NA+45670  31.373  20.121   4.274
73246ION    NA+45671  10.890  31.598   4.217
73247ION    NA+45672  24.146   8.086   3.168
73248ION    NA+45673  15.871  28.615   4.845
73249ION    NA+45674  35.529  25.090  11.656
73250ION    NA+45675  18.312  42.289   2.733
73251ION    NA+45676  23.831  41.571   4.344
73252ION    NA+45677  42.011  13.296  10.870
73253ION    NA+45678   0.724  16.201   1.502
73254ION    NA+45679  38.519  29.091  14.465
73255ION    NA+45680  18.920  39.766   2.908
73256ION    NA+45681   4.044  24.539   1.380
73257ION    NA+45682   6.224  15.889   5.187
73258ION    NA+45683  15.204  10.197  14.028
73259ION    NA+45684  31.422  30.511  12.362
73260ION    NA+45685  42.904  39.557   0.417
73261ION    NA+45686   7.313   8.971   4.668
73262ION    NA+45687  38.283   7.926   3.139
73263ION    NA+45688  28.991  14.752   0.665
73264ION    NA+45689  16.478  24.247   1.655
73265ION    NA+45690  32.799   9.428   4.599
73266ION    NA+45691   7.988  36.024  13.923
73267ION    NA+45692   2.449  30.091  14.891
73268ION    NA+45693  19.982  29.959  14.844
73269ION    NA+45694  29.071  38.461  10.823
73270ION    NA+45695  36.430   3.233  12.976
73271ION    NA+45696  13.070  38.436  12.064
73272ION    NA+45697  21.484  39.978   3.652
73273ION    NA+45698   1.610  42.998  11.391
73274ION    NA+45699  16.150  28.577  13.859
73275ION    NA+45700  22.242  38.330   1.717
73276ION    NA+45701  40.079  40.125  14.031
73277ION    NA+45702  41.410  26.779   3.675
73278ION    NA+45703  14.314   8.734   3.306
73279ION    NA+45704  16.951  37.926  12.413
73280ION    NA+45705   1.723  14.438  10.963
73281ION    NA+45706   3.353  37.828  13.099
73282ION    NA+45707  36.118  24.886  14.635
73283ION    NA+45708  39.763  19.627   2.221
73284ION    NA+45709  18.259  19.577  11.126
73285ION    NA+45710  35.583  19.125   0.746
73286ION    NA+45711  21.372   3.801   0.837
73287ION    NA+45712  37.905  21.596   3.517
73288ION    NA+45713  18.017  23.308   3.083
73289ION    NA+45714  16.876  13.701   4.157
73290ION    NA+45715  30.225   5.925  12.043
73291ION    NA+45716   0.761  17.686   0.005
73292ION    NA+45717   5.639  31.863   2.590
73293ION    NA+45718  12.188  43.202   1.672
73294ION    NA+45719  43.842  42.692  12.694
73295ION    NA+45720  26.803  40.638  13.370
73296ION    NA+45721   3.180   8.649   3.898
73297ION    NA+45722  28.981  40.294  11.794
73298ION    NA+45723   9.830  29.850  12.664
73299ION    NA+45724  31.710  15.486   3.812
73300ION    NA+45725  24.725  16.932   0.240
73301ION    NA+45726  18.029  16.213  14.847
73302ION    NA+45727  17.728   3.846   1.645
73303ION    NA+45728  18.076  10.746   3.675
73304ION    NA+45729  13.070   8.043  12.910
73305ION    NA+45730   9.287  35.247  14.951
73306ION    NA+45731  13.913  13.135  11.053
73307ION    NA+45732  24.991  33.064   3.737
73308ION    NA+45733   7.399  12.794   5.246
73309ION    NA+45734  12.207  31.201  14.877
73310ION    NA+45735  23.274  39.579  11.081
73311ION    NA+45736  42.229  12.550  13.811
73312ION    NA+45737   8.093  14.914   3.832
73313ION    NA+45738  29.433   4.468   5.057
73314ION    NA+45739   5.577  20.329  12.484
73315ION    NA+45740   3.877  33.153   4.094
73316ION    NA+45741  37.862  16.551   0.414
73317ION    NA+45742  36.351  23.374   0.538
73318ION    NA+45743  25.800  11.185   3.607
73319ION    NA+45744  24.717  10.358   0.414
73320ION    NA+45745  44.203  28.847   9.840
73321ION    NA+45746  18.331  41.560   1.662
73322ION    NA+45747  16.154   7.511   2.954
73323ION    NA+45748  34.896   6.117   4.457
73324ION    NA+45749  15.474  21.208  14.620
73325ION    NA+45750   4.259  19.851   1.600
73326ION    NA+45751  13.761   4.878  11.335
73327ION    NA+45752  42.740  16.797  10.913
73328ION    NA+45753  34.628  40.017  14.095
73329ION    NA+45754  19.157  20.747  13.539
73330ION    NA+45755  26.590  21.701   2.224
73331ION    NA+45756   8.606  38.072   1.732
73332ION    NA+45757   3.620  11.655   2.900
73333ION    NA+45758  39.031   4.195   2.337
73334ION    NA+45759  38.868  27.199  13.589
73335ION    NA+45760  20.424  13.826   4.464
73336ION    NA+45761   9.822  18.104  11.387
73337ION    NA+45762  25.174  34.004  14.992
73338ION    NA+45763  15.064  22.235   2.789
73339ION    NA+45764  22.826  36.967  11.785
73340ION    NA+45765  31.709  42.977   4.149
73341ION    NA+45766   6.070  18.309   3.705
73342ION    NA+45767  37.118  33.365  11.376
73343ION    NA+45768  29.517  44.847   3.683
73344ION    NA+45769  33.564  26.970  11.142
73345ION    NA+45770  17.418  23.935  12.413
73346ION    NA+45771  23.082  16.575  11.937
73347ION    NA+45772  22.779  10.457   0.249
73348ION    NA+45773  12.700  32.205  11.851
73349ION    NA+45774  21.932  19.757  12.177
73350ION    NA+45775  27.825  10.407   4.268
73351ION    NA+45776   0.717   7.541   1.689
73352ION    NA+45777   4.242   2.817  11.970
73353ION    NA+45778  13.069  32.108   5.259
73354ION    NA+45779  31.276  17.279  12.358
73355ION    NA+45780  10.863  26.586   1.191
73356ION    NA+45781  28.534   9.871   3.982
73357ION    NA+45782   7.855   4.444   4.049
73358ION    NA+45783  19.054  38.788   2.259
73359ION    NA+45784  41.401  31.154   5.066
73360ION    NA+45785  19.407  22.534   3.894
73361ION    NA+45786  12.174  43.392   2.798
73362ION    NA+45787  28.801   7.549   2.113
73363ION    NA+45788  20.536  34.631   2.297
73364ION    NA+45789   2.311  14.877   2.251
73365ION    NA+45790  26.568  42.552  10.725
73366ION    NA+45791  26.902  22.502  11.509
73367ION    NA+45792  22.762  37.482   2.571
73368ION    NA+45793  40.952   4.342  11.043
73369ION    NA+45794  26.082  33.400  12.501
73370ION    NA+45795   0.822   8.577   1.587
73371ION    NA+45796  17.475   4.442   2.908
73372ION    NA+45797   2.241  38.482   0.727
73373ION    NA+45798  29.683   4.241  12.970
73374ION    NA+45799   1.382   7.190   1.816
73375ION    NA+45800   6.485  42.240  12.075
73376ION    NA+45801  36.719  13.932   4.677
73377ION    NA+45802  22.577  16.380   2.159
73378ION    NA+45803   6.167  24.480  12.449
73379ION    NA+45804  36.978  40.102   4.479
73380ION    NA+45805  44.047  31.212  13.551
73381ION    NA+45806   8.293   7.257  12.530
73382ION    NA+45807   6.250  19.533   9.746
73383ION    NA+45808  43.096  14.889  11.620
73384ION    NA+45809  26.381  15.803   1.645
73385ION    NA+45810   2.739  34.909   4.359
73386ION    NA+45811  13.156  38.903  10.728
73387ION    NA+45812  41.079  34.338   1.287
73388ION    NA+45813  13.489  27.941  12.901
73389ION    NA+45814  25.351  37.632   1.343
73390ION    NA+45815  23.827   4.028  11.787
73391ION    NA+45816  23.945   8.809   0.910
73392ION    NA+45817  16.755   6.942   3.175
73393ION    NA+45818  23.750  41.174  13.984
73394ION    NA+45819  16.857  11.038  14.027
73395ION    NA+45820  22.729  35.023   1.713
73396ION    NA+45821  20.642  17.042   2.401
73397ION    NA+45822  15.773   3.892   3.868
73398ION    NA+45823  42.067  27.877  10.763
73399ION    NA+45824   2.998  22.223  12.462
73400ION    NA+45825  36.876  30.225   4.154
73401ION    NA+45826  19.146  13.402   0.219
73402ION    NA+45827   8.954  11.743  10.153
73403ION    NA+45828  13.347  14.570   1.044
73404ION    NA+45829   1.414  25.191   1.885
73405ION    NA+45830  38.057  38.875  13.850
73406ION    NA+45831  40.510  26.224   0.720
73407ION    NA+45832  10.021  22.536  13.196
73408ION    NA+45833  42.519  36.984   3.571
73409ION    NA+45834  33.255  22.407  11.993
73410ION    NA+45835  12.152  25.847  12.021
73411ION    NA+45836  28.125  15.100   2.585
73412ION    NA+45837  23.281   4.010   1.729
73413ION    NA+45838   4.232  38.098   0.400
73414ION    NA+45839  20.579  24.783   1.409
73415ION    NA+45840  29.359   4.555  14.728
73416ION    NA+45841  33.764   2.034   0.307
73417ION    NA+45842  22.018   1.926  10.816
73418ION    NA+45843  37.540  41.411  12.181
73419ION    NA+45844  18.565  36.054   4.358
73420ION    NA+45845  38.020   1.894   1.712
73421ION    NA+45846  34.608  31.560   3.281
73422ION    NA+45847  23.417   2.993   1.776
73423ION    NA+45848  40.846  13.157   1.989
73424ION    NA+45849   1.429  22.714  11.168
73425ION    NA+45850  13.606  18.922  11.212
73426ION    NA+45851  33.183  42.684  11.931
73427ION    NA+45852   0.021  35.183  12.134
73428ION    NA+45853  38.931  15.261   3.434
73429ION    NA+45854  14.401  17.163   1.956
73430ION    NA+45855  22.354  43.012  10.114
73431ION    NA+45856  15.219  34.752   9.830
73432ION    NA+45857  32.387  25.556  14.410
73433ION    NA+45858   4.809  34.124   0.640
73434ION    NA+45859  10.716  21.521  14.526
73435ION    NA+45860  28.233  34.212   3.095
73436ION    NA+45861   9.808  13.264  13.482
73437ION    NA+45862   9.876   7.279  10.955
73438ION    NA+45863  38.706  17.327   3.556
73439ION    NA+45864  24.035  15.687   0.685
73440ION    NA+45865  10.899  42.357   3.390
73441ION    NA+45866  14.493  26.288  12.735
73442ION    NA+45867   4.476   9.273   3.924
73443ION    NA+45868  31.306  19.307  14.295
73444ION    NA+45869  22.736  35.873   2.240
73445ION    NA+45870  14.243  41.336   1.730
73446ION    NA+45871  41.557  41.743   3.766
73447ION    NA+45872   9.712   1.302   2.915
73448ION    NA+45873  35.535   0.582   2.204
73449ION    NA+45874  32.669  28.256   2.147
73450ION    NA+45875  10.546  27.993   0.786
73451ION    NA+45876  24.899  25.890   1.781
73452ION    NA+45877  21.433  20.567   3.022
73453ION    NA+45878  37.013  24.182   4.771
73454ION    NA+45879  10.009  26.556  10.884
73455ION    NA+45880  38.637  44.603  12.734
73456ION    NA+45881  18.286  28.458   0.692
73457ION    NA+45882  33.042  10.958   3.074
73458ION    NA+45883  37.432  10.722   4.430
73459ION    NA+45884   7.233  17.350  11.056
73460ION    NA+45885  20.239   0.792  11.679
73461ION    NA+45886  23.683   2.351   2.565
73462ION    NA+45887  18.551  31.383  13.550
73463ION    NA+45888   5.237   3.220  11.666
73464ION    NA+45889  38.995  36.434  10.700
73465ION    NA+45890  34.017  25.265  14.421
73466ION    NA+45891  37.415  29.540  13.274
73467ION    NA+45892   5.139  33.781  12.099
73468ION    NA+45893  16.392  38.822  13.531
73469ION    NA+45894  15.203   1.018  11.727
73470ION    NA+45895  34.330  42.888   2.771
73471ION    NA+45896  32.890  19.944   1.084
73472ION    NA+45897  14.591  23.307  12.730
73473ION    NA+45898  17.733  33.346   1.212
73474ION    NA+45899   6.529  18.797  11.518
73475ION    NA+45900   4.365  22.712   1.285
73476ION    NA+45901  14.573  18.709  14.680
73477ION    NA+45902  17.807   5.073   0.213
73478ION    NA+45903  37.783  16.597   3.012
73479ION    NA+45904  44.143  36.548  11.997
73480ION    NA+45905   8.346  13.300  13.371
73481ION    NA+45906   1.552  13.571  10.834
73482ION    NA+45907  34.983  35.650  11.567
73483ION    NA+45908  24.950  11.503   4.692
73484ION    NA+45909  26.900  41.244   4.911
73485ION    NA+45910  11.876  12.660   4.300
73486ION    NA+45911  28.095  29.040   3.148
73487ION    NA+45912   6.274  10.578   4.673
73488ION    NA+45913  31.610  14.773   3.118
73489ION    NA+45914   8.835  42.077  12.172
73490ION    NA+45915  18.565  26.880   0.428
73491ION    NA+45916  13.269  15.162  13.859
73492ION    NA+45917  21.320   2.945  12.084
73493ION    NA+45918  26.515  41.587  13.504
73494ION    NA+45919  13.949   9.666  11.510
73495ION    NA+45920  11.734  33.957   3.405
73496ION    NA+45921  26.948  18.761   1.196
73497ION    NA+45922   1.246  17.519  13.386
73498ION    NA+45923  41.888  25.047  11.884
73499ION    NA+45924  36.029  19.691   1.532
73500ION    NA+45925  16.698   7.685   4.635
73501ION    NA+45926   8.562   9.683  11.232
73502ION    NA+45927  30.536  28.503   3.439
73503ION    NA+45928  14.699   9.554   0.933
73504ION    NA+45929   9.245   5.737  11.542
73505ION    NA+45930   6.817  12.725   3.283
73506ION    NA+45931  14.761  38.677   4.652
73507ION    NA+45932  35.343   5.238   3.208
73508ION    NA+45933  39.560  43.934  14.427
73509ION    NA+45934  20.255   9.189   2.882
73510ION    NA+45935  36.635   5.438  13.040
73511ION    NA+45936  23.128  38.318   4.572
73512ION    NA+45937  19.103   5.445  10.788
73513ION    NA+45938   3.050   4.610   1.387
73514ION    NA+45939  24.169   2.412   1.463
73515ION    NA+45940  26.909  43.471   2.918
73516ION    NA+45941   9.825   0.963   0.047
73517ION    NA+45942  21.123  27.395  12.982
73518ION    NA+45943  15.505  35.789  12.732
73519ION    NA+45944  13.233  12.661  11.614
73520ION    NA+45945   1.344   5.139   2.650
73521ION    NA+45946   4.861  32.792   0.924
73522ION    NA+45947  20.787   8.958  12.012
73523ION    NA+45948  14.064   0.036  13.917
73524ION    NA+45949  27.682   6.138  14.702
73525ION    NA+45950  32.134  44.989   3.758
73526ION    NA+45951  28.072  44.675   1.623
73527ION    NA+45952  44.776  31.106  10.871
73528ION    NA+45953  18.048  15.744  13.363
73529ION    NA+45954   8.908  41.093  12.011
73530ION    NA+45955  31.207  25.625  11.135
73531ION    NA+45956  23.134  18.363  13.094
73532ION    NA+45957  14.448  32.800   1.796
73533ION    NA+45958  42.911   6.683   4.586
73534ION    NA+45959  42.762  21.820   3.323
73535ION    NA+45960  43.967  38.277  14.347
73536ION    NA+45961  19.737  15.548   3.595
73537ION    NA+45962  33.462  42.251   1.464
73538ION    NA+45963  14.341   4.784   4.818
73539ION    NA+45964  16.209   0.936  14.760
73540ION    NA+45965   8.098  41.556   1.209
73541ION    NA+45966  16.253  29.287   2.787
73542ION    NA+45967  21.519  25.134  11.046
73543ION    NA+45968   7.617  39.774   2.897
73544ION    NA+45969  30.937  24.676  11.306
73545ION    NA+45970  18.325  11.086  14.073
73546ION    NA+45971  12.226  30.804   4.689
73547ION    NA+45972  12.784  32.359   3.275
73548ION    NA+45973  36.861  13.245   0.113
73549ION    NA+45974  30.488  12.306  12.034
73550ION    NA+45975  30.316  25.743  11.287
73551ION    NA+45976  22.366  32.077  13.902
73552ION    NA+45977  30.960   0.028   4.685
73553ION    NA+45978  32.264  13.248   0.982
73554ION    NA+45979  29.416  42.436   0.838
73555ION    NA+45980   0.954   5.246   1.735
73556ION    NA+45981  30.287  30.581   1.561
73557ION    NA+45982  38.584  33.898   5.090
73558ION    NA+45983  20.549  16.542   3.309
73559ION    NA+45984   9.041   8.105   4.363
73560ION    NA+45985  31.455  18.967   3.670
73561ION    NA+45986  35.772  37.480   3.817
73562ION    NA+45987  15.075  40.586  10.790
73563ION    NA+45988  37.458  39.786  14.516
73564ION    NA+45989  19.467  40.442  14.307
73565ION    NA+45990  32.179  44.206  12.458
73566ION    NA+45991  26.995  15.125   5.064
73567ION    NA+45992   4.643   4.701  11.562
73568ION    NA+45993  10.680  31.735  14.993
73569ION    NA+45994  24.251  34.968  12.041
73570ION    NA+45995  44.329  19.261  12.033
73571ION    NA+45996  29.893  20.164  13.632
73572ION    NA+45997   3.274   4.885   2.424
73573ION    NA+45998  37.827  36.635   1.354
73574ION    NA+45999   1.413  23.645   0.881
73575ION    NA+46000  19.807  13.647  13.589
73576ION    NA+46001  34.811  26.435   1.221
73577ION    NA+46002  23.901  31.221   2.577
73578ION    NA+46003   8.533  17.811   2.980
73579ION    NA+46004  23.816   1.057  14.977
73580ION    NA+46005  10.058   3.440  12.086
73581ION    NA+46006   7.626  30.711   2.950
73582ION    NA+46007  14.810  23.251  13.705
73583ION    NA+46008  32.430  38.046   3.375
73584ION    NA+46009   1.425  16.114  13.472
73585ION    NA+46010  44.502  39.385  11.894
73586ION    NA+46011   2.242   9.124   2.974
73587ION    NA+46012  31.067  32.484   3.137
73588ION    NA+46013  11.878  16.216   0.272
73589ION    NA+46014  10.482  15.304  11.467
73590ION    NA+46015  28.473  28.528  12.032
73591ION    NA+46016  22.971  20.134   3.647
73592ION    NA+46017  42.932  16.548   3.426
73593ION    NA+46018  34.799  25.092   0.748
73594ION    NA+46019  11.865   1.132   2.017
73595ION    NA+46020  14.019  43.369   4.297
73596ION    NA+46021  17.220  29.055  10.730
73597ION    NA+46022  26.955   2.961  12.114
73598ION    NA+46023  25.881   3.731   0.685
73599ION    NA+46024   2.087  12.387   0.222
73600ION    NA+46025  32.453  35.103  14.896
73601ION    NA+46026  42.242  44.517  12.990
73602ION    NA+46027  34.222  18.021   4.478
73603ION    NA+46028  30.000   3.208  14.317
73604ION    NA+46029  38.503  12.504  13.531
73605ION    NA+46030  15.445  44.914  14.083
73606ION    NA+46031  38.990   6.913  10.356
73607ION    NA+46032  12.625  29.729   4.660
73608ION    NA+46033   1.343   8.428   2.313
73609ION    NA+46034   7.615  39.432  13.414
73610ION    NA+46035  18.092  15.199   2.684
73611ION    NA+46036  25.037  33.966   4.709
73612ION    NA+46037   1.384  12.529  12.552
73613ION    NA+46038  16.482   5.426   2.399
73614ION    NA+46039  10.790  39.861   1.793
73615ION    NA+46040  13.759  32.180  12.006
73616ION    NA+46041  43.076  36.802  10.731
73617ION    NA+46042  31.122  38.759   4.478
73618ION    NA+46043   5.997  34.925  13.381
73619ION    NA+46044   7.345  20.671   4.168
73620ION    NA+46045  32.621  42.710  10.616
73621ION    NA+46046  14.710   9.140  14.934
73622ION    NA+46047  31.390  29.931   3.928
73623ION    NA+46048  26.054  43.376   3.772
73624ION    NA+46049  31.424   5.337   0.491
73625ION    NA+46050  14.528  29.561   4.906
73626ION    NA+46051  27.876  10.340  10.672
73627ION    NA+46052  42.020  27.100  14.511
73628ION    NA+46053  25.185   1.295   2.887
73629ION    NA+46054  24.417   1.880  11.029
73630ION    NA+46055   9.983  33.984  13.101
73631ION    NA+46056  14.004  15.855  10.474
73632ION    NA+46057  16.704   6.578   0.113
73633ION    NA+46058  20.041  42.966  14.659
73634ION    NA+46059  17.603  32.967  13.301
73635ION    NA+46060  34.839   5.608  13.291
73636ION    NA+46061  15.634  42.793   3.117
73637ION    NA+46062  21.454  26.297  12.021
73638ION    NA+46063  13.843  21.957   9.862
73639ION    NA+46064  26.587  28.623   1.264
73640ION    NA+46065   0.209  40.693   5.040
73641ION    NA+46066  38.860  20.034   2.360
73642ION    NA+46067   2.912  15.780  11.134
73643ION    NA+46068   3.806  36.905   4.353
73644ION    NA+46069  28.761   7.843  14.570
73645ION    NA+46070  26.244  43.434   1.938
73646ION    NA+46071  14.546  29.443   0.291
73647ION    NA+46072  13.177  33.670   3.525
73648ION    NA+46073   1.132  11.726  12.931
73649ION    NA+46074  16.667   9.163  11.132
73650ION    NA+46075  12.917   9.801  11.576
73651ION    NA+46076  10.663  20.793   1.231
73652ION    NA+46077   6.777   4.516  11.535
73653ION    NA+46078  26.145  18.001  13.021
73654ION    NA+46079  15.574  41.421  11.022
73655ION    NA+46080  12.278  33.186   0.050
73656ION    NA+46081  31.159  15.291   0.879
73657ION    NA+46082  19.649  15.227  10.571
73658ION    NA+46083  42.865  19.023  12.709
73659ION    NA+46084  43.736  20.011   1.361
73660ION    NA+46085   3.533  11.257   3.728
73661ION    NA+46086  36.239  29.844   3.216
73662ION    NA+46087  10.805   3.892   1.385
73663ION    NA+46088   7.762  17.570  14.683
73664ION    NA+46089   6.862  41.036   0.080
73665ION    NA+46090  33.755   7.116   2.788
73666ION    NA+46091  29.743  40.760  14.355
73667ION    NA+46092  34.147  27.191  13.384
73668ION    NA+46093  17.075  29.559  14.832
73669ION    NA+46094   2.286   1.428   0.313
73670ION    NA+46095  11.297  10.186   2.207
73671ION    NA+46096   9.158  30.611  12.268
73672ION    NA+46097  29.382  31.980   2.308
73673ION    NA+46098  17.697  34.386   4.723
73674ION    NA+46099  21.423  11.909  10.934
73675ION    NA+46100   9.710  33.388   3.365
73676ION    NA+46101   9.425  22.638  12.482
73677ION    NA+46102   9.492  37.793   4.622
73678ION    NA+46103  10.128  10.341   4.530
73679ION    NA+46104  21.634   4.351   3.471
73680ION    NA+46105  34.358  17.736  13.782
73681ION    NA+46106  21.372  41.732   2.029
73682ION    NA+46107  26.564   4.339   0.730
73683ION    NA+46108   5.425   5.540  14.819
73684ION    NA+46109  39.589  20.260   1.357
73685ION    NA+46110  10.834  27.736  12.623
73686ION    NA+46111  14.337  17.101  12.807
73687ION    NA+46112  42.906  37.088  13.358
73688ION    NA+46113  16.136  28.655  12.863
73689ION    NA+46114  35.897  24.730  12.980
73690ION    NA+46115  42.739  28.147  14.590
73691ION    NA+46116  28.332  41.147  11.727
73692ION    NA+46117   2.527  10.175  11.039
73693ION    NA+46118   0.070   2.157  10.566
73694ION    NA+46119  33.059  34.325  14.724
73695ION    NA+46120  30.450  12.007  10.988
73696ION    NA+46121  17.052  42.391   2.224
73697ION    NA+46122  38.794  39.896  13.108
73698ION    NA+46123  10.516  44.051   3.663
73699ION    NA+46124  31.604  38.489  11.489
73700ION    NA+46125  22.475  36.341   0.426
73701ION    NA+46126   9.347  14.700  13.136
73702ION    NA+46127   4.935  31.631   3.442
73703ION    NA+46128  35.209  17.186   2.609
73704ION    NA+46129  42.407  30.327  12.080
73705ION    NA+46130  14.122  25.204   0.467
73706ION    NA+46131   1.333   2.093   1.835
73707ION    NA+46132  43.827  34.086  10.118
73708ION    NA+46133   7.176   5.160  12.568
73709ION    NA+46134  31.990  30.711  10.240
73710ION    NA+46135   3.785   3.947   1.532
73711ION    NA+46136  19.578  35.507  10.721
73712ION    NA+46137  26.906   0.317   1.397
73713ION    NA+46138  35.913  30.727   4.265
73714ION    NA+46139  31.014  11.616   4.538
73715ION    NA+46140  29.871   6.375  13.358
73716ION    NA+46141  32.820  29.804  11.211
73717ION    NA+46142  33.932  41.429  13.443
73718ION    NA+46143  28.463  20.742   4.840
73719ION    NA+46144  13.635  37.447   4.511
73720ION    NA+46145  32.568   0.655  12.085
73721ION    NA+46146  43.763  18.223   0.479
73722ION    NA+46147  16.853  16.466  11.205
73723ION    NA+46148  22.092   3.014  13.884
73724ION    NA+46149   8.918  32.565  12.138
73725ION    NA+46150  29.115  31.469   3.693
73726ION    NA+46151  41.794  38.886   3.608
73727ION    NA+46152  14.236  10.146   0.233
73728ION    NA+46153  34.287   5.924   2.718
73729ION    NA+46154   6.432  20.818  14.848
73730ION    NA+46155  40.058  29.662   4.695
73731ION    NA+46156  31.516  11.777  12.908
73732ION    NA+46157  40.320  26.613  14.036
73733ION    NA+46158  13.139  10.571  10.978
73734ION    NA+46159  26.703  19.144  12.817
73735ION    NA+46160  34.427  28.420   0.951
73736ION    NA+46161   5.160   9.887   1.818
73737ION    NA+46162  17.962  13.399   4.049
73738ION    NA+46163  34.994   2.251   1.473
73739ION    NA+46164  40.349  31.194   4.649
73740ION    NA+46165  28.227   3.762  12.459
73741ION    NA+46166  35.899  28.145  11.224
73742ION    NA+46167  34.880  27.554  12.719
73743ION    NA+46168  26.093  35.360   1.852
73744ION    NA+46169  33.501   3.191  13.779
73745ION    NA+46170  36.334  35.979   5.197
73746ION    NA+46171  31.784  13.309  13.328
73747ION    NA+46172  26.748  21.025   4.174
73748ION    NA+46173  22.956  34.537   4.739
73749ION    NA+46174  23.721  13.582   2.815
73750ION    NA+46175   1.196  12.303  11.738
73751ION    NA+46176  26.949  25.750   1.297
73752ION    NA+46177  22.562  30.029   3.358
73753ION    NA+46178   0.154  41.901  11.215
73754ION    NA+46179  33.975   8.129   4.715
73755ION    NA+46180   0.909   2.421   2.568
73756ION    NA+46181  16.050  28.312   2.879
73757ION    NA+46182  15.616  14.017  13.933
73758ION    NA+46183  15.372   2.348   2.796
73759ION    NA+46184  13.253   8.862  11.504
73760ION    NA+46185  37.404  19.352   4.021
73761ION    NA+46186   4.779  21.085   3.660
73762ION    NA+46187  21.035   2.680  14.253
73763ION    NA+46188   5.180   7.679   1.007
73764ION    NA+46189   8.958  12.551   0.006
73765ION    NA+46190  10.382   7.918   1.966
73766ION    NA+46191  18.600  36.267  13.413
73767ION    NA+46192  22.517   9.853  11.475
73768ION    NA+46193  38.164  14.392   4.046
73769ION    NA+46194  18.731  33.360   1.280
73770ION    NA+46195  27.025  41.309   3.842
73771ION    NA+46196  26.643  40.942  11.157
73772ION    NA+46197  33.723  20.277   0.640
73773ION    NA+46198  27.795   3.767  14.834
73774ION    NA+46199  20.002  30.274   1.875
73775ION    NA+46200   4.872  40.168   5.073
73776ION    NA+46201   3.833  38.900  14.954
73777ION    NA+46202  38.288  33.370   2.928
73778ION    NA+46203  22.254   4.851  13.004
73779ION    NA+46204  26.968   7.644  10.767
73780ION    NA+46205  27.559  15.179  13.300
73781ION    NA+46206  17.598  28.682  13.817
73782ION    NA+46207  39.018  14.150  10.684
73783ION    NA+46208  17.797   7.360   0.432
73784ION    NA+46209  37.041  27.593   4.443
73785ION    NA+46210   8.990  38.922   3.526
73786ION    NA+46211  23.557  33.876   0.114
73787ION    NA+46212  41.945   7.152   0.872
73788ION    NA+46213  34.948  24.436   3.306
73789ION    NA+46214  36.377  42.708   0.133
73790ION    NA+46215   9.693  18.987   4.641
73791ION    NA+46216  12.118  35.930   1.044
73792ION    NA+46217   7.138  15.035  11.580
73793ION    NA+46218   7.181  38.791  12.782
73794ION    NA+46219  38.130   4.509   5.002
73795ION    NA+46220  41.468  27.992   0.833
73796ION    NA+46221  40.946  29.585   4.104
73797ION    NA+46222  15.195  35.745   4.084
73798ION    NA+46223  32.099  36.936   1.688
73799ION    NA+46224  16.950  18.079   1.486
73800ION    NA+46225  11.291  39.233   0.176
73801ION    NA+46226  36.058   8.808   2.529
73802ION    NA+46227   3.010  35.040  14.393
73803ION    NA+46228  16.205  43.715  11.696
73804ION    NA+46229  30.594  15.307  13.291
73805ION    NA+46230   4.547  15.001   4.774
73806ION    NA+46231  24.842   4.373   2.636
73807ION    NA+46232  20.599  28.835   4.631
73808ION    NA+46233  24.975   6.434   0.794
73809ION    NA+46234  18.746  12.965   4.204
73810ION    NA+46235  10.839   4.921  12.459
73811ION    NA+46236   0.662   7.719   4.123
73812ION    NA+46237  29.838  26.411  11.431
73813ION    NA+46238  17.297  35.137  14.476
73814ION    NA+46239   9.662  11.224   1.717
73815ION    NA+46240  37.358  10.377   0.672
73816ION    NA+46241  21.965  10.335  13.706
73817ION    NA+46242  26.628  30.027   1.307
73818ION    NA+46243  39.127  10.018  11.018
73819ION    NA+46244  23.476  42.461  12.988
73820ION    NA+46245   7.080  37.306   3.467
73821ION    NA+46246   8.207  40.579   1.391
73822ION    NA+46247  27.532  27.782   0.811
73823ION    NA+46248  17.839   6.211   4.653
73824ION    NA+46249  28.999   3.125  12.438
73825ION    NA+46250  30.151   6.164   0.910
73826ION    NA+46251  33.264  42.803  13.511
73827ION    NA+46252  35.413  19.287   4.330
73828ION    NA+46253   3.493  35.411   4.782
73829ION    NA+46254  33.474  44.671  10.747
73830ION    NA+46255   1.319  29.593  12.849
73831ION    NA+46256  25.972  41.089   3.001
73832ION    NA+46257  29.884   2.598   4.158
73833ION    NA+46258   0.995   3.586   4.399
73834ION    NA+46259  32.099   5.932  11.081
73835ION    NA+46260  36.802  16.469   4.652
73836ION    NA+46261  34.215  34.420  11.615
73837ION    NA+46262  34.544  18.039   1.887
73838ION    NA+46263   4.853  14.271   3.863
73839ION    NA+46264  16.578  13.890  12.559
73840ION    NA+46265   4.438   3.207   1.211
73841ION    NA+46266  39.273  28.094  10.728
73842ION    NA+46267  13.847  17.761   1.282
73843ION    NA+46268  17.158  31.878   4.145
73844ION    NA+46269  15.908  15.007   4.879
73845ION    NA+46270   5.297  30.628  14.510
73846ION    NA+46271   4.982  10.719   0.272
73847ION    NA+46272  18.512  21.216   0.314
73848ION    NA+46273  38.907  38.982   2.900
73849ION    NA+46274  29.456  42.376  12.003
73850ION    NA+46275   0.105  18.527  11.193
73851ION    NA+46276  37.334   9.042  12.723
73852ION    NA+46277  22.539  30.973  14.690
73853ION    NA+46278  41.758  26.174  11.363
73854ION    NA+46279  24.039  16.323  12.938
73855ION    NA+46280  34.784  19.085  13.225
73856ION    NA+46281  33.906  40.810   1.362
73857ION    NA+46282  30.236  18.224   1.464
73858ION    NA+46283  26.014  27.505   3.326
73859ION    NA+46284  29.657  15.943  11.172
73860ION    NA+46285  41.269  19.807   0.424
73861ION    NA+46286  34.410  42.796  14.937
73862ION    NA+46287  11.495  20.040   0.547
73863ION    NA+46288  26.600   2.044  11.711
73864ION    NA+46289  26.916   9.202  11.981
73865ION    NA+46290  12.706   9.007  12.877
73866ION    NA+46291  37.755  29.246  11.335
73867ION    NA+46292  41.507  33.181   2.788
73868ION    NA+46293   3.722  16.737  12.783
73869ION    NA+46294  25.521  30.375   4.970
73870ION    NA+46295  12.179   4.465   2.311
73871ION    NA+46296  19.209  23.628  12.082
73872ION    NA+46297  20.120  38.817  14.752
73873ION    NA+46298   7.017  28.003  12.178
73874ION    NA+46299  16.970  19.094  11.400
73875ION    NA+46300   4.375  34.404  14.593
73876ION    NA+46301  24.968  28.016  13.853
73877ION    NA+46302  17.923  37.573  11.976
73878ION    NA+46303  15.824  27.561   2.239
73879ION    NA+46304  26.119   1.462   2.569
73880ION    NA+46305   0.215   1.380   2.353
73881ION    NA+46306  24.214  26.918   1.251
73882ION    NA+46307  43.501  37.502   1.844
73883ION    NA+46308  18.997  35.236   4.739
73884ION    NA+46309  14.912  41.273  11.497
73885ION    NA+46310  17.851   8.035  14.814
73886ION    NA+46311  20.868  26.359  11.214
73887ION    NA+46312  42.258  13.750  14.887
73888ION    NA+46313  16.627  43.886  12.777
73889ION    NA+46314  34.815  27.712  13.704
73890ION    NA+46315  33.291  39.713  10.899
73891ION    NA+46316  21.800  24.172   3.757
73892ION    NA+46317  12.552  23.010   3.080
73893ION    NA+46318  35.431  13.196  14.083
73894ION    NA+46319  30.319  34.407   2.686
73895ION    NA+46320  36.177  39.537   1.056
73896ION    NA+46321  18.088   3.669   3.376
73897ION    NA+46322  28.551   8.598   0.192
73898ION    NA+46323  12.744   1.119  11.937
73899ION    NA+46324  26.091  11.589  12.156
73900ION    NA+46325  34.794  38.336  11.045
73901ION    NA+46326  25.768  29.514  12.931
73902ION    NA+46327  17.575  14.015   0.246
73903ION    NA+46328  10.786  11.481   1.847
73904ION    NA+46329  41.332   9.055  14.070
73905ION    NA+46330  28.108  14.376  12.988
73906ION    NA+46331  37.172  10.310  12.011
73907ION    NA+46332  18.496  25.300  14.126
73908ION    NA+46333  24.743  44.350  14.750
73909ION    NA+46334  12.115  40.209   3.636
73910ION    NA+46335  17.343  22.179  13.341
73911ION    NA+46336  21.199  39.368   0.421
73912ION    NA+46337   4.669  44.448  11.423
73913ION    NA+46338  31.141  12.707  11.264
73914ION    NA+46339  39.263  17.195   1.431
73915ION    NA+46340  42.033  36.332   3.148
73916ION    NA+46341  19.488  32.675   0.203
73917ION    NA+46342  32.064  44.273   1.150
73918ION    NA+46343  33.661  23.023  11.459
73919ION    NA+46344  33.920  29.100   0.261
73920ION    NA+46345  18.134  12.517  14.873
73921ION    NA+46346  41.816   2.293  14.822
73922ION    NA+46347  21.685  12.778  14.531
73923ION    NA+46348  29.025  40.944  11.035
73924ION    NA+46349  33.792   1.857  13.607
73925ION    NA+46350  16.895  24.069  11.706
73926ION    NA+46351  15.550  38.091  13.785
73927ION    NA+46352   5.898  23.474  13.864
73928ION    NA+46353  14.385  14.870  12.787
73929ION    NA+46354  25.660  42.954  10.843
73930ION    NA+46355  31.143  13.552   2.928
73931ION    NA+46356   1.927  18.363   0.943
73932ION    NA+46357  26.973  25.512  14.999
73933ION    NA+46358  20.496  29.700   0.976
73934ION    NA+46359  23.266  15.493   1.139
73935ION    NA+46360   2.736  34.421   3.100
73936ION    NA+46361  26.538  26.732   4.715
73937ION    NA+46362  38.141  37.310   2.622
73938ION    NA+46363  18.973  40.836   1.409
73939ION    NA+46364  24.746   8.696   4.579
73940ION    NA+46365   4.380  11.114  10.884
73941ION    NA+46366  38.050  44.417  11.946
73942ION    NA+46367  36.168  14.759  10.822
73943ION    NA+46368   3.891  15.485   4.171
73944ION    NA+46369  31.773  39.759  10.459
73945ION    NA+46370   4.633  10.864   4.509
73946ION    NA+46371  34.443  38.860  13.539
73947ION    NA+46372  35.888   2.209   3.775
73948ION    NA+46373  37.357  25.752  13.264
73949ION    NA+46374  20.364   3.893   0.795
73950ION    NA+46375  38.689  43.227  14.505
73951ION    NA+46376   3.168  31.838  12.106
73952ION    NA+46377  21.530  27.092  12.238
73953ION    NA+46378  19.550  39.955  13.438
73954ION    NA+46379  44.061  30.238  12.810
73955ION    NA+46380  33.735  36.846   3.397
73956ION    NA+46381  17.890  24.783  11.980
73957ION    NA+46382  43.584  16.977   2.764
73958ION    NA+46383  41.532  17.674  12.481
73959ION    NA+46384  28.115   6.900  10.219
73960ION    NA+46385  43.794  25.897  14.947
73961ION    NA+46386  23.208  27.986   1.536
73962ION    NA+46387  28.604   8.045  13.603
73963ION    NA+46388  14.903  14.044   9.602
73964ION    NA+46389  42.995  43.393  11.473
73965ION    NA+46390  17.161  25.291   3.302
73966ION    NA+46391  27.899  35.175  13.404
73967ION    NA+46392  32.564  21.213   3.804
73968ION    NA+46393  44.179  18.510   4.603
73969ION    NA+46394  36.290  14.041  11.697
73970ION    NA+46395  22.745  16.252  13.555
73971ION    NA+46396  19.152  24.073  11.187
73972ION    NA+46397   4.654  33.391   3.011
73973ION    NA+46398  17.723  40.825  12.571
73974ION    NA+46399  24.389  29.820  14.409
73975ION    NA+46400   0.778   3.260  13.462
73976ION    NA+46401  32.888   4.781   4.859
73977ION    NA+46402  43.416  30.127  10.717
73978ION    NA+46403  32.553   9.149   2.138
73979ION    NA+46404  42.173  26.903   0.381
73980ION    NA+46405   5.011  23.211   3.572
73981ION    NA+46406  36.388  26.209  14.486
73982ION    NA+46407  33.770  38.725   1.001
73983ION    NA+46408  21.417   9.614  13.588
73984ION    NA+46409  43.073  22.422  13.868
73985ION    NA+46410  14.630  37.496  12.008
73986ION    NA+46411  14.183  43.841   1.204
73987ION    NA+46412   8.643  27.657   4.390
73988ION    NA+46413  33.077   0.783   3.572
73989ION    NA+46414  28.615  17.057  14.445
73990ION    NA+46415  23.213  32.593   0.491
73991ION    NA+46416  27.406  11.608  12.942
73992ION    NA+46417   1.380  24.944   3.366
73993ION    NA+46418   9.936  39.791   1.276
73994ION    NA+46419  37.563   7.173  10.582
73995ION    NA+46420  18.435   2.527   0.639
73996ION    NA+46421  17.325  42.856   5.191
73997ION    NA+46422   3.888   6.387   0.430
73998ION    NA+46423  12.530  26.874   3.340
73999ION    NA+46424  15.438  25.230   4.445
74000ION    NA+46425  44.010  23.377  10.688
74001ION    NA+46426  16.063  12.430   3.522
74002ION    NA+46427  15.289  23.488  12.008
74003ION    NA+46428   4.094  44.858  12.131
74004ION    NA+46429  32.305  19.265  14.269
74005ION    NA+46430   9.781  33.985   1.002
74006ION    NA+46431   5.838   4.942   3.523
74007ION    NA+46432   9.583  37.238   3.610
74008ION    NA+46433  23.517   8.949   2.916
74009ION    NA+46434  22.101  28.050   0.516
74010ION    NA+46435  10.304  23.837   2.927
74011ION    NA+46436  21.360   2.764  11.027
74012ION    NA+46437  13.578  17.679  14.842
74013ION    NA+46438  39.284  38.892   4.526
74014ION    NA+46439   7.645   3.136  12.187
74015ION    NA+46440  12.402   0.649   0.450
74016ION    NA+46441   9.664  12.744  14.324
74017ION    NA+46442  42.028  17.334   1.006
74018ION    NA+46443   1.172  35.599  11.592
74019ION    NA+46444   4.056  36.405  11.140
74020ION    NA+46445   1.697  40.548   4.702
74021ION    NA+46446  35.393  44.342  11.441
74022ION    NA+46447  22.267  15.890   0.431
74023ION    NA+46448  33.150   6.967  13.751
74024ION    NA+46449   5.084  34.677  14.123
74025ION    NA+46450   6.241   0.845   1.991
74026ION    NA+46451   3.730   3.524   2.835
74027ION    NA+46452   2.734  12.730  14.709
74028ION    NA+46453   4.408  11.640   0.575
74029ION    NA+46454  44.529   3.155  11.152
74030ION    NA+46455  38.530  41.391  14.825
74031ION    NA+46456  33.042  44.505  12.990
74032ION    NA+46457  29.163   7.387   3.298
74033ION    NA+46458  38.753  22.268   2.143
74034ION    NA+46459   0.953   7.520   2.467
74035ION    NA+46460  22.258  19.037   3.152
74036ION    NA+46461  33.203  28.577  11.662
74037ION    NA+46462   1.050  44.301  13.280
74038ION    NA+46463  13.576   4.828   4.175
74039ION    NA+46464  40.046  20.596  14.800
74040ION    NA+46465   7.422  37.265   2.688
74041ION    NA+46466  16.036   4.951  13.335
74042ION    NA+46467  18.377   1.888   2.931
74043ION    NA+46468  43.916  27.145  10.589
74044ION    NA+46469  41.748  27.516   4.804
74045ION    NA+46470  34.027  36.925   0.959
74046ION    NA+46471  27.980  22.069   1.965
74047ION    NA+46472  37.467  19.095   0.281
74048ION    NA+46473  36.542  36.159  13.814
74049ION    NA+46474  43.478  29.744   1.443
74050ION    NA+46475  42.760  10.980  13.978
74051ION    NA+46476  13.439  35.573  13.002
74052ION    NA+46477  43.575  16.964  14.704
74053ION    NA+46478  34.420  37.922  14.966
74054ION    NA+46479   2.274  28.603   3.350
74055ION    NA+46480   2.839  27.069   0.720
74056ION    NA+46481  33.348  18.622  12.443
74057ION    NA+46482   0.798  33.512   1.710
74058ION    NA+46483   3.940  41.324   0.033
74059ION    NA+46484  10.115   8.606  12.458
74060ION    NA+46485   9.497  38.931  10.746
74061ION    NA+46486   9.212   1.875   0.905
74062ION    NA+46487  24.247  10.930   1.625
74063ION    NA+46488  19.304  23.610   2.751
74064ION    NA+46489   1.417  22.424   1.344
74065ION    NA+46490   6.779  44.218   3.382
74066ION    NA+46491  35.527  32.392   1.718
74067ION    NA+46492  17.998  43.975   0.929
74068ION    NA+46493   5.284  21.592   4.698
74069ION    NA+46494  31.421  41.191  12.516
74070ION    NA+46495  19.722  33.091  14.325
74071ION    NA+46496   1.220  22.276   3.638
74072ION    NA+46497  34.263  26.565  11.464
74073ION    NA+46498  38.332  42.202  11.675
74074ION    NA+46499  26.677  17.298   1.949
74075ION    NA+46500  10.797  39.819  11.120
74076ION    NA+46501   1.043  20.552   2.356
74077ION    NA+46502  12.926  20.726  12.419
74078ION    NA+46503  22.521  23.212   3.069
74079ION    NA+46504  36.426  10.639   0.922
74080ION    NA+46505  22.768   2.556  11.020
74081ION    NA+46506  31.751   7.677   5.419
74082ION    NA+46507   6.556  42.801   3.355
74083ION    NA+46508   8.933  41.727   4.075
74084ION    NA+46509  23.956   3.130  13.792
74085ION    NA+46510  28.700  23.082   0.308
74086ION    NA+46511   3.261  31.362   2.769
74087ION    NA+46512  14.009  42.257  13.737
74088ION    NA+46513   9.806  40.486   1.984
74089ION    NA+46514   2.114  25.900   3.580
74090ION    NA+46515   8.596   4.943   1.064
74091ION    NA+46516  11.922  38.836  11.417
74092ION    NA+46517  44.719  26.648  13.464
74093ION    NA+46518  23.069  27.159  13.425
74094ION    NA+46519  11.678  39.954   4.500
74095ION    NA+46520  19.609  42.994   0.560
74096ION    NA+46521  12.227  22.500   0.003
74097ION    NA+46522   4.372  32.748   2.023
74098ION    NA+46523  32.982  14.015   5.063
74099ION    NA+46524  27.089   5.167   2.183
74100ION    NA+46525  14.777  34.581  14.760
74101ION    NA+46526  28.653   8.068   1.745
74102ION    NA+46527  11.170  18.554   4.157
74103ION    NA+46528   3.521  36.504   1.389
74104ION    NA+46529  43.246   6.241  14.846
74105ION    NA+46530  29.375  12.384  12.563
74106ION    NA+46531  25.624  26.874  14.154
74107ION    NA+46532   9.616  43.712  11.172
74108ION    NA+46533  44.525  29.507  11.015
74109ION    NA+46534  35.360   5.692  14.140
74110ION    NA+46535  38.915   5.258   2.719
74111ION    NA+46536   5.741   5.456   2.652
74112ION    NA+46537   0.040  44.655  11.793
74113ION    NA+46538  35.387  39.700  12.177
74114ION    NA+46539  16.830  21.278  12.022
74115ION    NA+46540  30.676  13.868   5.127
74116ION    NA+46541  14.319  33.539   0.821
74117ION    NA+46542   8.909   9.698   3.940
74118ION    NA+46543  15.197  14.172   1.683
74119ION    NA+46544  29.538   2.453  13.103
74120ION    NA+46545  41.390  33.401   1.449
74121ION    NA+46546   3.671  30.223   1.157
74122ION    NA+46547  32.739  17.269   2.439
74123ION    NA+46548   4.944   9.175  10.920
74124ION    NA+46549  36.962  35.804  14.514
74125ION    NA+46550  19.284  40.144   0.758
74126ION    NA+46551  28.583  39.926  14.307
74127ION    NA+46552  42.463  26.751   2.242
74128ION    NA+46553  27.423  30.919  14.950
74129ION    NA+46554  10.074  18.439  13.798
74130ION    NA+46555  29.039  21.137   9.350
74131ION    NA+46556  41.750  12.491   0.011
74132ION    NA+46557  42.844  25.845   0.257
74133ION    NA+46558  43.406  29.235   3.717
74134ION    NA+46559  10.114  39.159   0.521
74135ION    NA+46560   4.851  32.425   2.840
74136ION    NA+46561   0.232  27.329   4.429
74137ION    NA+46562   6.033  22.476   4.420
74138ION    NA+46563   8.791   3.322  10.650
74139ION    NA+46564   6.574  22.371  11.327
74140ION    NA+46565  21.406  12.267   4.978
74141ION    NA+46566  26.181  17.578   0.322
74142ION    NA+46567   1.475  42.917   0.956
74143ION    NA+46568  34.966  37.934   2.864
74144ION    NA+46569   3.391  23.041  10.679
74145ION    NA+46570  27.181  33.084  14.226
74146ION    NA+46571  23.641  44.344  12.993
74147ION    NA+46572  17.559  22.612  12.176
74148ION    NA+46573  10.847  42.435   1.955
74149ION    NA+46574  40.573  10.247  13.922
74150ION    NA+46575  33.908  33.577  12.740
74151ION    NA+46576  20.759   4.718  11.275
74152ION    NA+46577   1.254  29.282  10.780
74153ION    NA+46578   7.373  12.222   1.938
74154ION    NA+46579  17.111   5.846   0.480
74155ION    NA+46580  24.249  17.684  14.728
74156ION    NA+46581  17.546  36.386   0.743
74157ION    NA+46582  14.656  14.664   3.232
74158ION    NA+46583  28.267   9.878   4.946
74159ION    NA+46584  26.166  34.953   0.766
74160ION    NA+46585  39.363  17.137   0.438
74161ION    NA+46586  31.054  40.917  10.973
74162ION    NA+46587   8.212   5.733  11.408
74163ION    NA+46588  40.973  43.995  12.151
74164ION    NA+46589  24.950  37.135  12.821
74165ION    NA+46590  18.054  19.418   0.575
74166ION    NA+46591  15.948   9.724   3.075
74167ION    NA+46592  23.617  21.480  12.660
74168ION    NA+46593  26.283  33.201   4.296
74169ION    NA+46594  20.303  41.034   0.867
74170ION    NA+46595  17.282  13.612  13.044
74171ION    NA+46596  22.417  31.717   2.435
74172ION    NA+46597  14.433  30.527   4.666
74173ION    NA+46598   8.637  35.773  14.540
74174ION    NA+46599  25.700  12.557  11.509
74175ION    NA+46600   8.203  10.890  12.138
74176ION    NA+46601  14.823  27.414  10.385
74177ION    NA+46602  14.556  43.440   2.308
74178ION    NA+46603  37.884   7.076  13.245
74179ION    NA+46604  20.652  23.603  12.066
74180ION    NA+46605  44.428  28.038  13.445
74181ION    NA+46606  20.793  33.634   1.316
74182ION    NA+46607  14.523  43.420  13.536
74183ION    NA+46608  33.713  30.239   2.782
74184ION    NA+46609  10.662   4.677  11.444
74185ION    NA+46610   3.436   0.063  11.133
74186ION    NA+46611  27.094  39.826   2.626
74187ION    NA+46612   6.342  19.043   0.373
74188ION    NA+46613  24.005  37.798  11.709
74189ION    NA+46614  35.179   4.902   0.489
74190ION    NA+46615   8.279  16.212  10.993
74191ION    NA+46616  23.212  22.978   2.070
74192ION    NA+46617  24.669   1.431  14.487
74193ION    NA+46618  21.091   1.869   4.783
74194ION    NA+46619   3.736  18.540   4.907
74195ION    NA+46620  17.622  35.516   1.715
74196ION    NA+46621  10.686  29.211  11.543
74197ION    NA+46622  39.465  41.846   2.393
74198ION    NA+46623  10.804   5.278   4.772
74199ION    NA+46624  34.738  17.594   0.291
74200ION    NA+46625  11.475  23.789   4.592
74201ION    NA+46626  44.316  32.817  12.448
74202ION    NA+46627  16.076  16.317   0.964
74203ION    NA+46628   8.899  39.754   1.481
74204ION    NA+46629  29.198   5.512   3.602
74205ION    NA+46630   1.731   9.449   4.097
74206ION    NA+46631  30.814  44.859  13.462
74207ION    NA+46632   3.287  33.378  11.134
74208ION    NA+46633  35.271  35.490   0.443
74209ION    NA+46634   1.854  22.866   4.406
74210ION    NA+46635   3.308  14.180   1.834
74211ION    NA+46636  15.943   5.940   5.085
74212ION    NA+46637   9.423  25.512   1.803
74213ION    NA+46638  22.123   2.731  11.764
74214ION    NA+46639  17.765  18.481   0.332
74215ION    NA+46640   2.798  27.440   2.858
74216ION    NA+46641  44.448   6.816   0.442
74217ION    NA+46642  11.114  34.542   5.058
74218ION    NA+46643   4.980  18.876  14.450
74219ION    NA+46644  43.052  40.454  12.384
74220ION    NA+46645  23.389  15.053   0.459
74221ION    NA+46646  18.348   0.086   0.048
74222ION    NA+46647  32.416  31.426  14.760
74223ION    NA+46648  19.776   6.391  12.177
74224ION    NA+46649   9.441  34.499   4.272
74225ION    NA+46650   9.397  29.633  11.168
74226ION    NA+46651  35.076  42.015   4.140
74227ION    NA+46652  10.745  19.053  11.496
74228ION    NA+46653  13.687  16.380  14.787
74229ION    NA+46654  30.713  20.121   3.176
74230ION    NA+46655  18.950  39.122  14.148
74231ION    NA+46656  21.265  14.106   0.700
74232ION    NA+46657   1.162  11.756   3.408
74233ION    NA+46658  16.275   2.178  10.896
74234ION    NA+46659  40.333  18.861  11.735
74235ION    NA+46660  28.719  15.240   3.257
74236ION    NA+46661  10.118  15.542   0.760
74237ION    NA+46662  25.057  43.283   3.778
74238ION    NA+46663  29.152  23.124  12.410
74239ION    NA+46664   9.170  13.037   1.452
74240ION    NA+46665  34.191  44.948  14.787
74241ION    NA+46666   9.669  13.754   1.192
74242ION    NA+46667   8.709  19.999  12.965
74243ION    NA+46668   0.411  43.988   1.776
74244ION    NA+46669  28.964  21.299   4.353
74245ION    NA+46670  20.235   1.481  13.743
74246ION    NA+46671  33.607  11.651  14.307
74247ION    NA+46672  23.484  36.391   4.415
74248ION    NA+46673  37.457  35.332  10.401
74249ION    NA+46674   7.834  36.532  11.968
74250ION    NA+46675  11.144  33.669  11.701
74251ION    NA+46676  36.656  39.061   4.723
74252ION    NA+46677  42.871  23.920   1.319
74253ION    NA+46678  26.480  27.118  12.007
74254ION    NA+46679  11.931  36.932  10.179
74255ION    NA+46680  30.895  39.751  12.445
74256ION    NA+46681   1.316   9.130   3.352
74257ION    NA+46682  30.153  18.858   2.890
74258ION    NA+46683  19.608  44.317   1.485
74259ION    NA+46684  27.743   2.858  13.320
74260ION    NA+46685   4.931  39.041  12.321
74261ION    NA+46686  11.390  40.466   1.268
74262ION    NA+46687  24.545   0.017  12.347
74263ION    NA+46688  18.397   4.212   2.595
74264ION    NA+46689  34.343   7.123  14.905
74265ION    NA+46690  14.502  43.960   0.232
74266ION    NA+46691  32.920  30.122   2.119
74267ION    NA+46692  39.740  37.871   2.323
74268ION    NA+46693   7.667  24.526   0.822
74269ION    NA+46694  40.976  28.880  13.964
74270ION    NA+46695  25.093  31.006  12.305
74271ION    NA+46696   3.471   9.495   3.838
74272ION    NA+46697  38.727  36.500  12.064
74273ION    NA+46698   8.333  22.516   3.656
74274ION    NA+46699  15.961  39.600   3.780
74275ION    NA+46700  38.868  33.068  11.503
74276ION    NA+46701  37.992  14.825  13.322
74277ION    NA+46702  14.810   1.740   9.689
74278ION    NA+46703  13.848  22.471  13.876
74279ION    NA+46704  30.036  24.146  10.664
74280ION    NA+46705   4.439  12.841   0.073
74281ION    NA+46706  42.160  13.693   2.130
74282ION    NA+46707   2.155   0.912   2.814
74283ION    NA+46708  21.040  33.306  13.811
74284ION    NA+46709  39.351  13.648   3.820
74285ION    NA+46710  20.075  42.238   2.637
74286ION    NA+46711  16.895  21.079   1.129
74287ION    NA+46712  13.309  43.226   1.860
74288ION    NA+46713   2.749   2.677  14.928
74289ION    NA+46714  43.088   0.376  13.911
74290ION    NA+46715   2.359   2.001  11.494
74291ION    NA+46716  25.051  34.372  11.900
74292ION    NA+46717  38.427   5.647   4.131
74293ION    NA+46718  28.284   8.086  10.405
74294ION    NA+46719   4.455  42.051   0.098
74295ION    NA+46720  27.627  23.940  11.628
74296ION    NA+46721  23.645  32.968  10.613
74297ION    NA+46722  12.912  12.792   4.165
74298ION    NA+46723  22.523  14.900   1.861
74299ION    NA+46724  23.312  19.435  13.752
74300ION    NA+46725  20.548  28.595   3.196
74301ION    NA+46726  43.078  10.219  11.007
74302ION    NA+46727  28.857  18.840   5.066
74303ION    NA+46728  33.913  10.943   0.428
74304ION    NA+46729  24.604   6.399  14.347
74305ION    NA+46730   1.540   7.982   5.027
74306ION    NA+46731   8.763  11.048   1.317
74307ION    NA+46732  43.198  21.596   0.020
74308ION    NA+46733  10.200  32.399   2.462
74309ION    NA+46734   1.823  21.055   1.390
74310ION    NA+46735   2.277  13.524   5.064
74311ION    NA+46736   7.245  30.560  12.614
74312ION    NA+46737  34.896  31.589  10.026
74313ION    NA+46738  11.667  19.212  14.274
74314ION    NA+46739  14.098   4.206  12.018
74315ION    NA+46740   8.281  26.800  13.238
74316ION    NA+46741  29.691  23.920   5.514
74317ION    NA+46742   5.495  39.406   4.634
74318ION    NA+46743  40.590  36.458   3.301
74319ION    NA+46744  37.336  12.859   3.138
74320ION    NA+46745  31.169  35.329   4.067
74321ION    NA+46746  13.373  28.873   2.161
74322ION    NA+46747  28.917  44.266   3.133
74323ION    NA+46748  25.563   0.999  12.950
74324ION    NA+46749  41.261   4.128  14.921
74325ION    NA+46750   6.985  24.949   4.163
74326ION    NA+46751  38.887   9.767   1.432
74327ION    NA+46752  36.338  29.529   1.389
74328ION    NA+46753  42.124  27.450  12.551
74329ION    NA+46754   1.011  37.097   0.689
74330ION    NA+46755  31.491  14.556   4.202
74331ION    NA+46756  28.656   4.671  13.638
74332ION    NA+46757  33.204  36.092   1.054
74333ION    NA+46758  37.026   6.272   2.113
74334ION    NA+46759  14.307  18.199   2.843
74335ION    NA+46760  42.088  31.253   1.690
74336ION    NA+46761   0.614  30.615   5.482
74337ION    NA+46762  26.390   8.157  14.407
74338ION    NA+46763  17.885  20.131   3.608
74339ION    NA+46764  16.102  20.900  10.927
74340ION    NA+46765  30.769   5.933  13.387
74341ION    NA+46766  28.117  10.342   1.003
74342ION    NA+46767  14.555  22.646  14.561
74343ION    NA+46768  15.523  24.734   0.492
74344ION    NA+46769  36.556  24.009  14.987
74345ION    NA+46770  12.983  31.379   3.222
74346ION    NA+46771  30.280  38.611   5.070
74347ION    NA+46772  37.550  33.622  10.541
74348ION    NA+46773   2.967  27.765  14.394
74349ION    NA+46774  17.406   0.090   1.158
74350ION    NA+46775  11.825  32.518   0.771
74351ION    NA+46776   9.938  41.451  13.409
74352ION    NA+46777  39.803  30.576   0.293
74353ION    NA+46778  19.944  20.291  13.688
74354ION    NA+46779  37.886  13.636  13.013
74355ION    NA+46780  26.150   7.602  13.610
74356ION    NA+46781  21.362   9.642  12.169
74357ION    NA+46782  20.443  39.942   3.337
74358ION    NA+46783  20.694  37.811   3.174
74359ION    NA+46784  32.922   7.998  13.014
74360ION    NA+46785  27.874  42.303   3.495
74361ION    NA+46786  31.321   8.330   0.983
74362ION    NA+46787   1.826  14.144  13.465
74363ION    NA+46788  13.057  38.065   0.769
74364ION    NA+46789   9.148   1.501  14.384
74365ION    NA+46790  37.300  14.221  12.450
74366ION    NA+46791  33.353  36.757   4.318
74367ION    NA+46792   3.984  31.833   3.079
74368ION    NA+46793  39.306  43.746  13.040
74369ION    NA+46794  13.859  21.987   9.337
74370ION    NA+46795  36.380  13.368   4.099
74371ION    NA+46796   2.851  14.778   0.730
74372ION    NA+46797  43.712   4.783  13.950
74373ION    NA+46798  43.025   9.759  14.341
74374ION    NA+46799  10.914  18.078  11.708
74375ION    NA+46800   1.394  30.455   3.232
74376ION    NA+46801  25.799  36.515   3.231
74377ION    NA+46802  43.972  34.624  13.519
74378ION    NA+46803  40.716  17.615   4.609
74379ION    NA+46804  20.304  22.900  14.648
74380ION    NA+46805  19.300   7.789  14.834
74381ION    NA+46806  26.108  29.244  14.536
74382ION    NA+46807   7.625  40.885   3.577
74383ION    NA+46808   7.252  31.964  14.711
74384ION    NA+46809  23.856  26.525   5.437
74385ION    NA+46810  11.297  42.463   1.171
74386ION    NA+46811  16.748  23.532  13.036
74387ION    NA+46812   8.866   7.423  13.394
74388ION    NA+46813  25.663   8.442  13.372
74389ION    NA+46814  13.720  12.446   4.641
74390ION    NA+46815  44.989   7.868  12.015
74391ION    NA+46816  10.738  23.019  14.429
74392ION    NA+46817  43.025  34.976  13.399
74393ION    NA+46818  33.986  35.989   4.415
74394ION    NA+46819  35.154   6.422   2.688
74395ION    NA+46820  38.063  39.145  11.974
74396ION    NA+46821  29.450  21.687   1.909
74397ION    NA+46822  16.244  34.251   1.136
74398ION    NA+46823  23.993  28.344  12.086
74399ION    NA+46824  43.760  16.265  10.797
74400ION    NA+46825   7.070  17.634   0.237
74401ION    NA+46826  28.714  15.415  10.698
74402ION    NA+46827   0.345   9.299   2.557
74403ION    NA+46828  38.385  42.462  12.738
74404ION    NA+46829   8.164  28.217   0.850
74405ION    NA+46830  35.682   9.312   1.377
74406ION    NA+46831  25.317  26.154  11.405
74407ION    NA+46832  25.075   7.815  14.546
74408ION    NA+46833  16.913   2.823   2.383
74409ION    NA+46834  12.574  44.506  13.411
74410ION    NA+46835  38.505  31.383   4.292
74411ION    NA+46836   1.241  34.889   4.352
74412ION    NA+46837  30.830  21.578  11.435
74413ION    NA+46838  27.033  29.762  13.142
74414ION    NA+46839  26.239  37.670   5.047
74415ION    NA+46840  16.997  37.323  11.696
74416ION    NA+46841   2.660  40.606   3.171
74417ION    NA+46842  24.037  11.892  10.811
74418ION    NA+46843   5.891  42.505  10.803
74419ION    NA+46844  41.130  42.888  14.029
74420ION    NA+46845  24.283  43.022  14.391
74421ION    NA+46846  18.569  36.090  11.431
74422ION    NA+46847  28.734   7.619  12.812
74423ION    NA+46848  11.984  32.868  14.149
74424ION    NA+46849   5.798   6.624  14.762
74425ION    NA+46850  16.973   4.984   4.047
74426ION    NA+46851  40.362  23.470  11.113
74427ION    NA+46852   7.001  20.863   2.836
74428ION    NA+46853  42.432  31.076  11.417
74429ION    NA+46854  15.612  21.754   2.423
74430ION    NA+46855  12.276  13.537  13.988
74431ION    NA+46856  32.269   5.590  13.666
74432ION    NA+46857  27.122  25.065  11.989
74433ION    NA+46858  24.872  22.268   4.162
74434ION    NA+46859   1.825  43.424  14.353
74435ION    NA+46860  38.336  17.002  10.755
74436ION    NA+46861  34.083  19.692  14.731
74437ION    NA+46862  13.002  21.268  13.879
74438ION    NA+46863  10.851  27.377   2.724
74439ION    NA+46864  11.783  31.272  11.112
74440ION    NA+46865  40.702  33.516   4.704
74441ION    NA+46866   6.379   9.833  14.019
74442ION    NA+46867  29.497  29.478   0.937
74443ION    NA+46868  16.304  37.265  10.977
74444ION    NA+46869  44.383   4.419   3.275
74445ION    NA+46870  11.685  22.444   4.525
74446ION    NA+46871  20.050  10.335   1.753
74447ION    NA+46872  18.493  33.223   2.684
74448ION    NA+46873   2.393  36.321   2.849
74449ION    NA+46874  31.460  23.485  12.209
74450ION    NA+46875  42.422  33.032  11.783
74451ION    NA+46876   2.238  24.542  10.726
74452ION    NA+46877  18.488  39.605  13.523
74453ION    NA+46878   1.755  28.658   1.701
74454ION    NA+46879  40.925  13.499  14.468
74455ION    NA+46880  23.764  31.749  10.933
74456ION    NA+46881  18.545  37.476   2.809
74457ION    NA+46882  16.726  13.400   2.474
74458ION    NA+46883  39.939  11.439   1.807
74459ION    NA+46884  33.990  19.541  13.738
74460ION    NA+46885  43.758   7.679  12.935
74461ION    NA+46886   3.117  16.172   1.444
74462ION    NA+46887   3.954  34.894   3.726
74463ION    NA+46888  14.835  19.735   4.782
74464ION    NA+46889  43.720  30.769  14.386
74465ION    NA+46890  27.141  33.171   0.993
74466ION    NA+46891  41.495   8.414  11.740
74467ION    NA+46892  31.904  19.781   1.065
74468ION    NA+46893  10.530  17.573  14.956
74469ION    NA+46894   3.049  24.299   1.333
74470ION    NA+46895  40.306  28.216   2.844
74471ION    NA+46896  20.551   9.891  13.173
74472ION    NA+46897  40.948  31.081   3.257
74473ION    NA+46898  21.533   5.140   2.876
74474ION    NA+46899  19.624  11.524  11.728
74475ION    NA+46900  37.964  42.290  10.710
74476ION    NA+46901  13.138  34.039   4.364
74477ION    NA+46902  24.289  11.424  14.552
74478ION    NA+46903  23.461  36.629  13.707
74479ION    NA+46904   6.738  40.324  14.314
74480ION    NA+46905  33.771  17.506   0.531
74481ION    NA+46906  43.300  44.336   4.256
74482ION    NA+46907   7.608  35.188   1.851
74483ION    NA+46908  36.744  19.538  14.293
74484ION    NA+46909  22.458  23.387   1.882
74485ION    NA+46910  36.091  13.386  12.464
74486ION    NA+46911  30.494  26.912   0.856
74487ION    NA+46912  25.076  41.065  14.032
74488ION    NA+46913   0.126  39.782   3.603
74489ION    NA+46914  12.716   1.910   2.671
74490ION    NA+46915  19.277   8.071  13.772
74491ION    NA+46916  16.342  26.738  11.854
74492ION    NA+46917   5.202  40.289  11.957
74493ION    NA+46918  35.951   1.588  14.671
74494ION    NA+46919  40.751  27.168   4.320
74495ION    NA+46920  32.620  34.389  12.935
74496ION    NA+46921  17.178   1.752   1.938
74497ION    NA+46922  11.620  41.575  12.903
74498ION    NA+46923  15.482   6.640   2.149
74499ION    NA+46924  10.705  37.293  12.040
74500ION    NA+46925  22.156  21.963   4.248
74501ION    NA+46926  20.797   1.154   1.436
74502ION    NA+46927  10.476  24.569   1.203
74503ION    NA+46928  15.737   1.683  13.426
74504ION    NA+46929  14.546   2.138   0.028
74505ION    NA+46930  13.573   7.296  12.393
74506ION    NA+46931   9.220  40.830  14.567
74507ION    NA+46932  33.110   3.450   0.906
74508ION    NA+46933  38.702  18.871   1.069
74509ION    NA+46934  28.870  32.468   0.854
74510ION    NA+46935   5.875  11.358   3.917
74511ION    NA+46936  40.304  23.732  13.830
74512ION    NA+46937  44.096   6.373  14.618
74513ION    NA+46938  29.536  19.157   3.467
74514ION    NA+46939  24.588  30.911  11.601
74515ION    NA+46940  29.737  40.250  11.141
74516ION    NA+46941  34.587  37.037  11.728
74517ION    NA+46942  35.569  29.072  14.505
74518ION    NA+46943   9.921  15.207   2.763
74519ION    NA+46944  20.947  24.466   3.649
74520ION    NA+46945  38.506  40.282   4.354
74521ION    NA+46946  11.752  20.507   3.263
74522ION    NA+46947   9.761   1.743   4.947
74523ION    NA+46948  35.328  19.004  12.358
74524ION    NA+46949  22.041  16.962  13.426
74525ION    NA+46950  26.370   7.387   1.265
74526ION    NA+46951  35.816  23.451  11.919
74527ION    NA+46952  24.912  36.847   4.170
74528ION    NA+46953  19.903  15.156   0.398
74529ION    NA+46954  25.064  29.699   5.898
74530ION    NA+46955  12.905  40.491   3.733
74531ION    NA+46956  11.347  11.550  11.513
74532ION    NA+46957  26.990  20.636  11.848
74533ION    NA+46958   1.452  41.901  14.045
74534ION    NA+46959  16.884  32.395  13.163
74535ION    NA+46960  41.888  21.795  11.684
74536ION    NA+46961  24.928  32.580   9.546
74537ION    NA+46962  37.101  14.291  11.106
74538ION    NA+46963  17.963  14.546   1.847
74539ION    NA+46964  35.067  38.978  12.614
74540ION    NA+46965  25.922   9.804   0.544
74541ION    NA+46966   2.140  34.347   0.263
74542ION    CL-46967   7.024  22.391  11.450
74543ION    CL-46968  15.661  44.395   1.657
74544ION    CL-46969  39.641  28.655  13.271
74545ION    CL-46970   3.836  16.977   1.348
74546ION    CL-46971  31.586  18.083  13.551
74547ION    CL-46972  23.511  13.206   2.696
74548ION    CL-46973  44.905   7.432  11.961
74549ION    CL-46974  24.168  19.229   0.909
74550ION    CL-46975  28.679  20.989  14.433
74551ION    CL-46976   4.710  32.260  11.887
74552ION    CL-46977  31.237  38.062  13.846
74553ION    CL-46978  29.374   7.263   9.780
74554ION    CL-46979  12.431  41.912   2.879
74555ION    CL-46980  10.266   0.535  11.908
74556ION    CL-46981  27.964  34.434   2.782
74557ION    CL-46982  31.509  17.215   5.008
74558ION    CL-46983  10.547  15.149  11.890
74559ION    CL-46984  22.673  10.899   0.212
74560ION    CL-46985  28.993  33.098   3.225
74561ION    CL-46986  18.099   8.215  13.581
74562ION    CL-46987  41.182  20.527  14.186
74563ION    CL-46988  31.372  36.161  12.820
74564ION    CL-46989  24.639  11.913  11.919
74565ION    CL-46990  29.147  19.396   3.448
74566ION    CL-46991  44.976  36.673   4.942
74567ION    CL-46992  31.533  34.659   3.253
74568ION    CL-46993  21.348   5.992   3.918
74569ION    CL-46994   8.730  10.706   1.031
74570ION    CL-46995  18.115  32.084   2.362
74571ION    CL-46996  10.941  36.527   3.744
74572ION    CL-46997  21.692   5.720  10.676
74573ION    CL-46998   2.919  31.167   2.537
74574ION    CL-46999   8.359  35.475   3.758
74575ION    CL-47000  20.337  23.268  14.376
74576ION    CL-47001  30.045  16.460   2.744
74577ION    CL-47002   5.355   1.425   3.767
74578ION    CL-47003  27.574   4.138  14.973
74579ION    CL-47004  23.500  17.227   1.050
74580ION    CL-47005  30.547  32.248   0.391
74581ION    CL-47006  10.780  36.937  13.366
74582ION    CL-47007  28.789  32.108   0.584
74583ION    CL-47008  41.065  29.953  13.269
74584ION    CL-47009   8.711  40.058   0.100
74585ION    CL-47010  36.844  17.737  14.581
74586ION    CL-47011  27.916   2.502  12.082
74587ION    CL-47012  10.839  22.232  12.446
74588ION    CL-47013  35.934  39.303   0.750
74589ION    CL-47014   1.527  15.046  12.504
74590ION    CL-47015  32.796  42.542  11.736
74591ION    CL-47016  14.775  27.408  10.834
74592ION    CL-47017  29.199  37.393  13.912
74593ION    CL-47018   4.572  38.622   9.768
74594ION    CL-47019   0.185   5.711  12.906
74595ION    CL-47020   5.654  27.624   2.617
74596ION    CL-47021  21.805  39.016   2.747
74597ION    CL-47022  37.047  15.741   3.631
74598ION    CL-47023   7.410  17.483  14.977
74599ION    CL-47024   9.697   2.880  13.485
74600ION    CL-47025   4.481   8.250   3.432
74601ION    CL-47026  40.767  32.496  14.263
74602ION    CL-47027   1.444  41.018  10.717
74603ION    CL-47028  43.848  33.516   4.363
74604ION    CL-47029  13.278  26.119  14.350
74605ION    CL-47030  44.516  17.483   4.075
74606ION    CL-47031  27.056  35.271  14.879
74607ION    CL-47032   8.871  11.306  13.502
74608ION    CL-47033  28.359  37.282  12.565
74609ION    CL-47034  12.677  22.772   3.436
74610ION    CL-47035  32.549   9.882   3.246
74611ION    CL-47036  38.043   2.396   0.710
74612ION    CL-47037  11.011  31.854   3.871
74613ION    CL-47038   2.214  14.972  14.501
74614ION    CL-47039   1.947  38.196   0.550
74615ION    CL-47040   1.476  44.463  13.292
74616ION    CL-47041  42.396  27.116  12.430
74617ION    CL-47042  40.485   9.180  11.522
74618ION    CL-47043  18.910  38.037  14.935
74619ION    CL-47044   1.047   7.452   2.009
74620ION    CL-47045  32.351  23.464  11.121
74621ION    CL-47046  26.738  15.248  14.474
74622ION    CL-47047  42.279   6.603   3.238
74623ION    CL-47048  38.641  11.075   1.218
74624ION    CL-47049  20.350  22.683   0.051
74625ION    CL-47050  15.264   6.443   1.813
74626ION    CL-47051   8.809  11.789  10.588
74627ION    CL-47052  36.442  36.447   2.773
74628ION    CL-47053   8.689  23.879   9.969
74629ION    CL-47054   4.859  41.141  12.951
74630ION    CL-47055  26.884  11.831   2.285
74631ION    CL-47056  16.371  13.560   2.694
74632ION    CL-47057  37.592  34.093  13.870
74633ION    CL-47058   4.744   4.125   3.238
74634ION    CL-47059  12.624  41.315  11.936
74635ION    CL-47060  28.478  19.935   2.176
74636ION    CL-47061   4.257   6.713   4.148
74637ION    CL-47062  30.004   4.449   2.803
74638ION    CL-47063  25.540  10.974  10.701
74639ION    CL-47064  18.542  13.180  13.717
74640ION    CL-47065  34.458  12.763  12.627
74641ION    CL-47066  21.751  10.649   3.180
74642ION    CL-47067  14.634  14.181   0.830
74643ION    CL-47068  34.652  24.916  12.548
74644ION    CL-47069   9.113   0.302   3.802
74645ION    CL-47070   0.076  44.673   3.012
74646ION    CL-47071  21.545  37.315  12.862
74647ION    CL-47072   8.927  28.207  11.903
74648ION    CL-47073  38.277   4.489  14.796
74649ION    CL-47074  31.869  39.452   3.360
74650ION    CL-47075  29.897  18.949   3.257
74651ION    CL-47076  10.659  24.057  13.466
74652ION    CL-47077  24.205  33.031   1.122
74653ION    CL-47078   7.454  38.285  14.983
74654ION    CL-47079  28.080   0.515  10.945
74655ION    CL-47080  38.847  17.964  13.418
74656ION    CL-47081  28.989   3.955  11.160
74657ION    CL-47082  43.378  15.233  11.576
74658ION    CL-47083  34.315  29.160   2.265
74659ION    CL-47084   8.774  34.548   1.914
74660ION    CL-47085   3.528  16.056   1.586
74661ION    CL-47086  37.277  26.494   3.094
74662ION    CL-47087  13.028  41.888  14.972
74663ION    CL-47088  22.279  33.522   3.201
74664ION    CL-47089  35.215  13.020   1.669
74665ION    CL-47090  13.586  38.899  13.797
74666ION    CL-47091  28.231  26.732   2.884
74667ION    CL-47092  43.312   7.677   4.968
74668ION    CL-47093  24.008  12.167  11.164
74669ION    CL-47094  32.510   8.168  13.002
74670ION    CL-47095   6.849   1.157  13.082
74671ION    CL-47096  32.095  22.011   1.923
74672ION    CL-47097  29.182  31.611   4.459
74673ION    CL-47098  29.047  25.534  11.229
74674ION    CL-47099   0.253  40.210   3.566
74675ION    CL-47100  40.026  15.263   2.405
74676ION    CL-47101   7.842  21.562   2.252
74677ION    CL-47102  27.448  28.024  10.696
74678ION    CL-47103   3.660  15.427  14.062
74679ION    CL-47104   7.738   2.063   2.649
74680ION    CL-47105  44.410  40.458   2.627
74681ION    CL-47106  21.559   0.228  13.978
74682ION    CL-47107  12.787  19.751  13.812
74683ION    CL-47108  31.383   7.439  13.362
74684ION    CL-47109  24.581  42.595  13.281
74685ION    CL-47110   8.538  17.173  13.345
74686ION    CL-47111  26.639  25.465   4.090
74687ION    CL-47112  40.681  29.866   0.024
74688ION    CL-47113  17.455  14.395   0.042
74689ION    CL-47114   8.922  37.211  12.546
74690ION    CL-47115   4.656  41.682  11.591
74691ION    CL-47116   1.285  43.230  11.187
74692ION    CL-47117  24.960  14.085   3.137
74693ION    CL-47118  37.145   3.315   3.243
74694ION    CL-47119   3.427   8.341   3.658
74695ION    CL-47120  31.915  40.704   1.549
74696ION    CL-47121  33.976  24.641   2.494
74697ION    CL-47122  12.859   5.954   1.295
74698ION    CL-47123   8.551  20.166  10.416
74699ION    CL-47124  30.934   9.727  10.671
74700ION    CL-47125  21.032  43.496   3.066
74701ION    CL-47126   6.007  43.555  12.913
74702ION    CL-47127  44.437   4.820   4.652
74703ION    CL-47128  27.356  21.854   5.430
74704ION    CL-47129  28.649  39.734   0.776
74705ION    CL-47130  17.134  23.907  12.061
74706ION    CL-47131   6.498   4.226  11.333
74707ION    CL-47132  39.423   2.621   3.279
74708ION    CL-47133  10.740  43.535   0.923
74709ION    CL-47134  28.821  14.981  10.643
74710ION    CL-47135   7.367  15.254  11.264
74711ION    CL-47136   7.767  22.871  11.386
74712ION    CL-47137   3.674   6.610   0.767
74713ION    CL-47138  17.290  32.632  13.286
74714ION    CL-47139  36.828  38.360  11.912
74715ION    CL-47140  13.671  28.780   2.480
74716ION    CL-47141  21.136  28.141  13.732
74717ION    CL-47142  11.696  11.972   1.731
74718ION    CL-47143   2.712  14.829   4.459
74719ION    CL-47144  39.270   3.278   0.582
74720ION    CL-47145  27.715  23.713  13.309
74721ION    CL-47146  13.486  31.570   1.778
74722ION    CL-47147  16.334  24.677   1.721
74723ION    CL-47148  23.059  30.011  11.491
74724ION    CL-47149  19.452  11.852  11.467
74725ION    CL-47150  18.260  37.535  14.270
74726ION    CL-47151  17.701   0.698   3.470
74727ION    CL-47152   8.914  35.932  13.007
74728ION    CL-47153  22.695  13.638   3.081
74729ION    CL-47154  10.354  11.658   3.218
74730ION    CL-47155  28.467  15.149   2.890
74731ION    CL-47156  30.742  11.493   4.896
74732ION    CL-47157   9.586  14.288   4.985
74733ION    CL-47158  43.498  17.415   2.790
74734ION    CL-47159  11.048  44.789  13.837
74735ION    CL-47160  15.551  29.153  12.013
74736ION    CL-47161  16.653  32.228  12.793
74737ION    CL-47162  24.088   9.632  12.576
74738ION    CL-47163   3.244   5.656  10.277
74739ION    CL-47164   7.915  42.830  11.598
74740ION    CL-47165  43.871   8.953   1.360
74741ION    CL-47166  18.407  31.971   3.312
74742ION    CL-47167  44.102  39.934   0.015
74743ION    CL-47168   7.940  23.723   4.342
74744ION    CL-47169  43.327  12.197  12.297
74745ION    CL-47170  21.259  26.227   1.270
74746ION    CL-47171  39.902  30.451   2.739
74747ION    CL-47172  30.942  35.324  11.553
74748ION    CL-47173  29.758  42.309   0.580
74749ION    CL-47174  11.815   5.726  13.462
74750ION    CL-47175   3.881  41.843  13.220
74751ION    CL-47176  10.755  43.940  14.490
74752ION    CL-47177  11.049  18.241   1.502
74753ION    CL-47178  39.265  25.184  10.752
74754ION    CL-47179  33.546  38.643   0.623
74755ION    CL-47180   3.542  29.921   0.852
74756ION    CL-47181  19.829  36.511   0.399
74757ION    CL-47182  35.625   9.773  13.519
74758ION    CL-47183  44.066  16.628  13.393
74759ION    CL-47184  17.010  25.644  13.340
74760ION    CL-47185  29.190  33.439  12.985
74761ION    CL-47186  29.744   8.679  11.038
74762ION    CL-47187  33.167  20.208   2.909
74763ION    CL-47188  40.986  40.013  10.696
74764ION    CL-47189  31.985  32.870  14.400
74765ION    CL-47190  15.991  12.333   3.092
74766ION    CL-47191  31.783  36.337  14.981
74767ION    CL-47192  40.881  19.019   3.571
74768ION    CL-47193   1.273   0.258  10.390
74769ION    CL-47194  22.799  27.051   4.017
74770ION    CL-47195   6.919  27.523  10.717
74771ION    CL-47196  40.065  14.796   4.206
74772ION    CL-47197  40.128   4.538   1.428
74773ION    CL-47198  35.443  23.989   5.168
74774ION    CL-47199  34.776  43.960   4.088
74775ION    CL-47200  23.139  30.597  12.298
74776ION    CL-47201  20.887   5.722  12.514
74777ION    CL-47202  10.198   8.307  13.489
74778ION    CL-47203  26.769  13.725   4.111
74779ION    CL-47204  13.270  43.356   3.211
74780ION    CL-47205   1.715  25.540  12.384
74781ION    CL-47206  36.012  21.168  11.806
74782ION    CL-47207  29.969  36.568   3.334
74783ION    CL-47208  18.827  22.774   2.299
74784ION    CL-47209  21.065   7.679  12.241
74785ION    CL-47210  35.595   6.981   1.407
74786ION    CL-47211  20.717  25.009  12.977
74787ION    CL-47212  35.473  13.616   2.531
74788ION    CL-47213  39.853   8.620   3.289
74789ION    CL-47214   6.334  36.945   1.231
74790ION    CL-47215  40.510  25.047   5.016
74791ION    CL-47216   3.477   1.251   4.963
74792ION    CL-47217  10.596  41.886  14.877
74793ION    CL-47218  21.169   6.512   1.418
74794ION    CL-47219  17.609  14.288  11.771
74795ION    CL-47220  29.925  36.838  14.605
74796ION    CL-47221  42.127  14.143   2.173
74797ION    CL-47222  15.887  25.984   0.104
74798ION    CL-47223  42.180  27.105  14.086
74799ION    CL-47224  31.007  24.084   1.276
74800ION    CL-47225  22.119  34.603  13.522
74801ION    CL-47226  44.954  26.215  10.694
74802ION    CL-47227  11.537  24.230   4.613
74803ION    CL-47228  34.560  43.248   2.636
74804ION    CL-47229   8.526  41.744  12.156
74805ION    CL-47230   9.618  29.656  11.555
74806ION    CL-47231  35.822   5.849   1.860
74807ION    CL-47232   1.970  24.145   1.861
74808ION    CL-47233  15.149  24.462   0.565
74809ION    CL-47234  38.529  26.684  10.673
74810ION    CL-47235   6.231  30.008  11.868
74811ION    CL-47236  37.672  23.269   1.854
74812ION    CL-47237  42.607  15.647  10.972
74813ION    CL-47238  24.739  31.556   4.563
74814ION    CL-47239  19.165  16.730   3.612
74815ION    CL-47240  34.118  28.185   1.172
74816ION    CL-47241  14.338  13.727  12.097
74817ION    CL-47242   9.125   4.937   4.184
74818ION    CL-47243  22.938   8.031  11.096
74819ION    CL-47244  15.827  24.623  14.957
74820ION    CL-47245   5.297  23.442   3.829
74821ION    CL-47246  39.471  39.064  13.860
74822ION    CL-47247  10.877  27.369   3.172
74823ION    CL-47248   7.144   5.252  14.879
74824ION    CL-47249  26.537  38.875  14.694
74825ION    CL-47250  16.361   0.540   1.241
74826ION    CL-47251  31.469  27.028  12.461
74827ION    CL-47252   2.911  44.027   1.737
74828ION    CL-47253  28.700   0.763  10.202
74829ION    CL-47254  33.329  36.373   4.568
74830ION    CL-47255  26.336   4.947   4.652
74831ION    CL-47256  26.498  20.627  12.937
74832ION    CL-47257  27.594  12.563  12.066
74833ION    CL-47258  16.862   5.582   2.583
74834ION    CL-47259   4.983  33.373  11.966
74835ION    CL-47260  23.737  10.575  12.373
74836ION    CL-47261  32.975  14.332  11.859
74837ION    CL-47262  31.075  21.161   3.477
74838ION    CL-47263  42.987  39.342   3.345
74839ION    CL-47264   0.910   4.480  11.634
74840ION    CL-47265   0.205   8.933   2.776
74841ION    CL-47266   9.411  13.421   1.383
74842ION    CL-47267   2.965  18.128   2.170
74843ION    CL-47268  10.379  22.291  13.332
74844ION    CL-47269  26.899  33.174  10.229
74845ION    CL-47270  40.803  30.342  14.152
74846ION    CL-47271  40.556  41.913   0.255
74847ION    CL-47272  39.968   2.149   4.118
74848ION    CL-47273  14.882  21.977  12.502
74849ION    CL-47274  10.644   0.387   0.198
74850ION    CL-47275  38.036  10.319  13.995
74851ION    CL-47276  42.811   6.615  13.112
74852ION    CL-47277  17.711   1.082  11.950
74853ION    CL-47278  32.812  28.740  11.493
74854ION    CL-47279  42.483  31.412   1.556
74855ION    CL-47280  23.734   5.812   4.272
74856ION    CL-47281  44.288  40.953   1.391
74857ION    CL-47282  17.512  11.208  11.940
74858ION    CL-47283  39.424  14.801  13.031
74859ION    CL-47284   1.656  22.250   1.010
74860ION    CL-47285   0.487  12.876   2.307
74861ION    CL-47286  20.109   7.333   1.875
74862ION    CL-47287  43.669   6.237  14.681
74863ION    CL-47288  42.644  37.401   3.705
74864ION    CL-47289  34.460   4.342  14.001
74865ION    CL-47290  28.675  23.580   4.326
74866ION    CL-47291  21.176  23.545  14.846
74867ION    CL-47292  36.124  23.246  10.701
74868ION    CL-47293  35.917  11.946  13.006
74869ION    CL-47294  20.555  42.749   1.381
74870ION    CL-47295  19.514  22.461   3.459
74871ION    CL-47296  33.047  14.477   4.965
74872ION    CL-47297  37.836  26.711   2.546
74873ION    CL-47298  34.716   9.635   3.840
74874ION    CL-47299   6.810  18.508  11.300
74875ION    CL-47300  37.387  43.883  14.386
74876ION    CL-47301  25.438  26.463  14.220
74877ION    CL-47302  44.715  39.773  13.335
74878ION    CL-47303  40.691  14.760  13.192
74879ION    CL-47304  34.869  11.257  11.358
74880ION    CL-47305  20.885  38.602  13.981
74881ION    CL-47306  33.598  33.673  12.436
74882ION    CL-47307  34.625   8.371  12.652
74883ION    CL-47308  43.869   4.718   9.834
74884ION    CL-47309   0.380  35.033  12.373
74885ION    CL-47310  40.575  13.130  13.349
74886ION    CL-47311  13.885  44.840  10.815
74887ION    CL-47312  43.414  30.459  14.291
74888ION    CL-47313  15.089  35.628  12.753
74889ION    CL-47314  30.523  21.415  11.717
74890ION    CL-47315  40.861   0.080  13.416
74891ION    CL-47316  25.650  42.632  11.153
74892ION    CL-47317  33.181   0.050   0.344
74893ION    CL-47318  29.102  32.844   0.967
74894ION    CL-47319  33.127  41.452  12.534
74895ION    CL-47320  34.399  22.088  12.906
74896ION    CL-47321  16.720  34.049   2.688
74897ION    CL-47322  11.256  23.495  10.392
74898ION    CL-47323  32.627  42.304  10.406
74899ION    CL-47324  28.967  44.131   1.824
74900ION    CL-47325  12.863   5.298   0.198
74901ION    CL-47326  11.803  42.504  13.914
74902ION    CL-47327   3.141  12.774  14.511
74903ION    CL-47328  17.489  39.886  14.942
74904ION    CL-47329  33.531   6.782  13.899
74905ION    CL-47330  15.559  30.793  10.386
74906ION    CL-47331  20.385  20.334  13.801
74907ION    CL-47332  12.089  11.169   3.305
74908ION    CL-47333   7.297   6.635   0.263
74909ION    CL-47334  17.675   9.089  12.806
74910ION    CL-47335  17.375  25.683   3.219
74911ION    CL-47336  23.240  33.924  14.804
74912ION    CL-47337  24.397  13.130   0.823
74913ION    CL-47338  28.071  39.866   1.665
74914ION    CL-47339  25.722  12.346  11.116
74915ION    CL-47340  10.786   2.619   0.779
74916ION    CL-47341  31.975  35.626  13.978
74917ION    CL-47342  11.660  41.717   2.273
74918ION    CL-47343  31.303  22.282   4.627
74919ION    CL-47344  14.357   0.692   2.055
74920ION    CL-47345  41.320  19.032   2.620
74921ION    CL-47346   4.938  14.345   3.431
74922ION    CL-47347  16.096  14.719  14.860
74923ION    CL-47348   4.218  41.668   0.126
74924ION    CL-47349  35.503  25.490   4.767
74925ION    CL-47350  22.747  11.329  13.073
74926ION    CL-47351  30.324  10.052   0.361
74927ION    CL-47352  16.186   4.659  10.686
74928ION    CL-47353  13.261  39.773   0.254
74929ION    CL-47354  16.904   6.214   0.303
74930ION    CL-47355  15.016  12.845   2.873
74931ION    CL-47356   6.722  23.295  14.842
74932ION    CL-47357   6.777  25.443   0.962
74933ION    CL-47358  41.640   9.080  12.833
74934ION    CL-47359  20.536   0.098   4.978
74935ION    CL-47360   9.616  33.900  13.387
74936ION    CL-47361  12.600  38.306   1.923
74937ION    CL-47362  40.911  19.389  12.925
74938ION    CL-47363  13.151  35.829  13.233
74939ION    CL-47364   3.952  32.140   0.465
74940ION    CL-47365  37.668  29.624   1.699
74941ION    CL-47366  38.342  30.461  12.959
74942ION    CL-47367   9.770  44.141  11.199
74943ION    CL-47368   0.451  22.557  11.609
74944ION    CL-47369  31.117  39.153  12.974
74945ION    CL-47370  28.806  31.759   3.545
74946ION    CL-47371  34.630  33.461  14.986
74947ION    CL-47372  12.746  28.026   1.167
74948ION    CL-47373  10.248  20.102   5.050
74949ION    CL-47374  17.686  37.540   1.182
74950ION    CL-47375  43.727   5.933   2.567
74951ION    CL-47376  18.400  15.087   0.847
74952ION    CL-47377  21.628  15.296  13.821
74953ION    CL-47378  23.530  15.510  14.032
74954ION    CL-47379  14.638   1.705  14.916
74955ION    CL-47380  39.698  21.294   3.350
74956ION    CL-47381  14.526   7.664   5.155
74957ION    CL-47382  25.816   0.480   3.629
74958ION    CL-47383   8.245  12.379  11.950
74959ION    CL-47384   1.162  19.894  12.848
74960ION    CL-47385  14.595  44.181   3.712
74961ION    CL-47386   8.612  27.096  13.195
74962ION    CL-47387   3.640   0.451   1.243
74963ION    CL-47388   8.682  42.843   0.425
74964ION    CL-47389  16.244   3.551  11.175
74965ION    CL-47390  28.917  24.260   9.484
74966ION    CL-47391  20.550  24.860   2.765
74967ION    CL-47392  42.017   2.685  14.726
74968ION    CL-47393   5.437  34.178   4.873
74969ION    CL-47394  39.086  10.257   0.366
74970ION    CL-47395  10.179  44.201   3.917
74971ION    CL-47396  28.998  22.776   0.173
74972ION    CL-47397  17.160  39.117   9.971
74973ION    CL-47398  14.031   5.151  11.108
74974ION    CL-47399  12.863  34.136   4.742
74975ION    CL-47400   4.104  19.904   2.019
74976ION    CL-47401  23.641  22.158  10.627
74977ION    CL-47402  30.941  40.563  13.601
74978ION    CL-47403  18.663  41.272  12.593
74979ION    CL-47404  28.502  33.998  10.782
74980ION    CL-47405  22.572  38.131   1.494
74981ION    CL-47406   0.254   7.847   3.991
74982ION    CL-47407  14.419  30.465   0.090
74983ION    CL-47408  23.462  27.265   3.299
74984ION    CL-47409  13.017   1.031  12.280
74985ION    CL-47410   3.393  32.216   4.820
74986ION    CL-47411  38.001  24.046   2.750
74987ION    CL-47412  43.667   3.805  11.750
74988ION    CL-47413  40.582  11.755  12.989
74989ION    CL-47414  15.670  17.951   3.502
74990ION    CL-47415   3.325  17.730  13.075
74991ION    CL-47416  44.986  42.751   1.436
74992ION    CL-47417  24.789  31.102  11.974
74993ION    CL-47418  40.068   3.930   0.636
74994ION    CL-47419  35.403  16.186  12.484
74995ION    CL-47420  22.602  32.388  14.136
74996ION    CL-47421  23.407  21.448  13.862
74997ION    CL-47422  35.374  44.684  11.722
74998ION    CL-47423  21.820   7.693   0.968
74999ION    CL-47424  23.633  24.236  13.466
75000ION    CL-47425   0.674  20.068  14.808
75001ION    CL-47426  26.964   4.865   1.866
75002ION    CL-47427  20.213  11.608   5.247
75003ION    CL-47428  17.759  17.825   3.681
75004ION    CL-47429  11.588  37.625   0.507
75005ION    CL-47430  11.956  18.871  12.603
75006ION    CL-47431  41.588  40.326  13.333
75007ION    CL-47432  25.212  31.252   1.321
75008ION    CL-47433  22.681  12.900  11.123
75009ION    CL-47434   8.375  31.370   3.867
75010ION    CL-47435   7.902  33.799   1.500
75011ION    CL-47436  28.031   1.120   4.735
75012ION    CL-47437  16.559  17.604  12.101
75013ION    CL-47438  23.813   0.696   3.672
75014ION    CL-47439  26.340  33.148  12.236
75015ION    CL-47440  15.785  42.981   0.500
75016ION    CL-47441   2.961  15.424  10.856
75017ION    CL-47442  24.762   0.803  11.703
75018ION    CL-47443  29.998  39.128  11.179
75019ION    CL-47444  14.519   4.608  14.333
75020ION    CL-47445   6.478  22.580   4.434
75021ION    CL-47446  32.045  36.113   3.286
75022ION    CL-47447  37.576  44.047   1.389
75023ION    CL-47448  43.466  20.629   4.624
75024ION    CL-47449  34.914  24.027   0.252
75025ION    CL-47450   5.140  26.304  11.488
75026ION    CL-47451  41.341  37.554  13.512
75027ION    CL-47452  12.470  35.030   4.986
75028ION    CL-47453   7.086  37.326   3.012
75029ION    CL-47454  35.931  29.586   3.020
75030ION    CL-47455  15.703  29.989   4.866
75031ION    CL-47456  38.496  12.890  12.580
75032ION    CL-47457  21.534  24.039   2.568
75033ION    CL-47458   7.742   4.043   3.890
75034ION    CL-47459  33.518  28.306  11.850
75035ION    CL-47460  12.095   3.025   2.210
75036ION    CL-47461  34.870  16.101   3.262
75037ION    CL-47462  17.135  15.235   5.141
75038ION    CL-47463  40.966  24.234   4.774
75039ION    CL-47464  16.690  11.404   3.137
75040ION    CL-47465  33.749  37.473   5.094
75041ION    CL-47466   1.846   3.047  12.359
75042ION    CL-47467  44.673  24.921  14.979
75043ION    CL-47468  20.482  14.284   4.562
75044ION    CL-47469  33.171  36.004  12.011
75045ION    CL-47470   2.410   2.037   4.164
75046ION    CL-47471  21.370  27.326  12.608
75047ION    CL-47472  10.609  10.240   1.158
75048ION    CL-47473  28.446   7.845   2.093
75049ION    CL-47474  43.183   7.011   4.416
75050ION    CL-47475  22.481   1.945   1.319
75051ION    CL-47476  31.326  36.134   2.590
75052ION    CL-47477  37.652   7.300  12.937
75053ION    CL-47478  40.876  17.150   1.622
75054ION    CL-47479  24.767  43.268   1.861
75055ION    CL-47480  42.131  27.751  10.328
75056ION    CL-47481  43.424  35.344  11.978
75057ION    CL-47482  29.993  23.553   2.263
75058ION    CL-47483  26.311  24.549  10.896
75059ION    CL-47484  13.331  16.312   1.353
75060ION    CL-47485  25.828  27.253  14.296
75061ION    CL-47486  17.236  35.615  11.996
75062ION    CL-47487   7.751   0.167   2.830
75063ION    CL-47488  22.842  32.784   2.693
75064ION    CL-47489  35.934  37.388   3.410
75065ION    CL-47490  30.070  31.629  14.496
75066ION    CL-47491  32.553  37.867   1.927
75067ION    CL-47492  37.970  37.943  10.693
75068ION    CL-47493  22.607  19.149   4.575
75069ION    CL-47494  15.633   8.345  13.961
75070ION    CL-47495   5.448  25.466   3.770
75071ION    CL-47496  39.976  12.093  10.940
75072ION    CL-47497  21.087   9.290  12.081
75073ION    CL-47498  23.314  31.767  10.905
75074ION    CL-47499  23.208   4.686  10.390
75075ION    CL-47500  22.172  12.167  12.548
75076ION    CL-47501  12.682  33.099  12.333
75077ION    CL-47502  21.214  22.960   5.059
75078ION    CL-47503  30.117   2.954   4.307
75079ION    CL-47504  42.029  39.214   3.822
75080ION    CL-47505  39.509   4.123  13.935
75081ION    CL-47506  12.739  15.614  14.956
75082ION    CL-47507  19.275  12.688  12.567
75083ION    CL-47508  30.686  42.469   0.246
75084ION    CL-47509  36.028  43.132  11.514
75085ION    CL-47510   8.991  22.635  12.301
75086ION    CL-47511  37.085  19.453  11.649
75087ION    CL-47512  10.014  18.263   4.788
75088ION    CL-47513  43.340  20.462   0.477
75089ION    CL-47514  24.299   8.375  13.333
75090ION    CL-47515  17.539  30.032   2.762
75091ION    CL-47516  16.604  27.099  11.846
75092ION    CL-47517  11.104  37.478  11.960
75093ION    CL-47518   5.431  32.353  11.108
75094ION    CL-47519   4.582  18.151   3.472
75095ION    CL-47520  27.399  42.007  11.459
75096ION    CL-47521  24.215  37.992  12.053
75097ION    CL-47522  27.388  43.223  14.370
75098ION    CL-47523  24.573   7.631   4.372
75099ION    CL-47524  12.126  30.445   1.377
75100ION    CL-47525   5.252   4.465  13.798
75101ION    CL-47526  23.796  33.214   2.780
75102ION    CL-47527  33.559  42.653  12.192
75103ION    CL-47528  31.464  10.414   1.843
75104ION    CL-47529   8.399  34.964  12.195
75105ION    CL-47530  29.267  30.779   1.778
75106ION    CL-47531   0.799   6.236   0.855
75107ION    CL-47532   0.713   2.303   2.957
75108ION    CL-47533  24.188  22.536   0.310
75109ION    CL-47534  20.000   4.912   4.218
75110ION    CL-47535  10.734  14.188   2.148
75111ION    CL-47536  43.790  16.277   5.202
75112ION    CL-47537  31.406  12.749  11.620
75113ION    CL-47538   6.462  44.369  13.434
75114ION    CL-47539  12.324  36.997   1.798
75115ION    CL-47540  24.284  17.267   1.670
75116ION    CL-47541  12.313  42.447  13.053
75117ION    CL-47542  36.976  22.303   1.172
75118ION    CL-47543   7.921   2.572   3.490
75119ION    CL-47544  19.212   8.883   2.034
75120ION    CL-47545   1.554   9.283   3.712
75121ION    CL-47546  19.785  26.483   1.880
75122ION    CL-47547  17.557  24.635  14.006
75123ION    CL-47548  15.975  12.087  14.501
75124ION    CL-47549  27.359  10.304  13.830
75125ION    CL-47550  22.145  31.755  13.668
75126ION    CL-47551   2.820  21.470  11.475
75127ION    CL-47552   8.195   0.531   0.695
75128ION    CL-47553  26.528  42.056   1.732
75129ION    CL-47554  42.274  18.776   3.754
75130ION    CL-47555   5.930   3.930   0.389
75131ION    CL-47556   7.730  37.111   2.390
75132ION    CL-47557  17.172   9.425  14.784
75133ION    CL-47558   2.114  11.939  13.874
75134ION    CL-47559  33.605  33.008  10.272
75135ION    CL-47560  38.010  19.834  11.652
75136ION    CL-47561  40.522  24.041   0.371
75137ION    CL-47562   3.859  30.349  10.042
75138ION    CL-47563  15.483   4.160   4.081
75139ION    CL-47564  12.316  25.179   3.168
75140ION    CL-47565  15.646  31.684  10.840
75141ION    CL-47566  18.334  43.946   2.416
75142ION    CL-47567   9.303  14.909  10.564
75143ION    CL-47568  23.199  13.120  14.906
75144ION    CL-47569  23.874   4.481  11.741
75145ION    CL-47570  38.491  11.617   3.325
75146ION    CL-47571  15.611  31.074   3.819
75147ION    CL-47572   7.967  29.241  11.945
75148ION    CL-47573  44.287   8.742  11.192
75149ION    CL-47574  14.008  23.288   1.377
75150ION    CL-47575  29.428  44.657  14.077
75151ION    CL-47576  38.931  39.350   3.150
75152ION    CL-47577  31.666  26.399   3.392
75153ION    CL-47578  18.921   0.340   0.491
75154ION    CL-47579  37.991   5.351   3.238
75155ION    CL-47580  20.553   1.598  13.455
75156ION    CL-47581  13.610  31.091  14.797
75157ION    CL-47582  38.996  13.068   2.824
75158ION    CL-47583  41.259  40.382  12.037
75159ION    CL-47584  25.671   6.802   3.612
75160ION    CL-47585  26.478  14.334  13.527
75161ION    CL-47586  20.819  29.669   0.669
75162ION    CL-47587  13.235  10.196   3.006
75163ION    CL-47588  33.710  42.804  13.476
75164ION    CL-47589  12.953  41.845  12.575
75165ION    CL-47590  17.167  27.643  12.469
75166ION    CL-47591  17.485  16.970   4.229
75167ION    CL-47592  11.751   3.505  13.624
75168ION    CL-47593  34.005  17.945  13.606
75169ION    CL-47594  25.588  27.462   3.456
75170ION    CL-47595  28.383  21.866  14.054
75171ION    CL-47596  42.394   8.045   2.777
75172ION    CL-47597  14.194   0.081   3.884
75173ION    CL-47598  16.821  27.968   3.960
75174ION    CL-47599  41.474  30.122   0.577
75175ION    CL-47600  42.739  17.719  12.009
75176ION    CL-47601  28.548  26.134   0.517
75177ION    CL-47602  37.026  32.856   2.786
75178ION    CL-47603  34.475  32.800   3.998
75179ION    CL-47604   1.486  30.330   3.678
75180ION    CL-47605  19.521  20.483  13.625
75181ION    CL-47606   8.937  30.404   4.102
75182ION    CL-47607  37.033  35.378  12.436
75183ION    CL-47608  22.662  16.772   1.960
75184ION    CL-47609   9.177   7.811   4.057
75185ION    CL-47610  10.101  36.871   0.021
75186ION    CL-47611  40.993  29.264   0.758
75187ION    CL-47612  20.397  22.820   3.153
75188ION    CL-47613  27.391  34.314   4.573
75189ION    CL-47614  21.198  38.594  11.262
75190ION    CL-47615   8.855   5.302  13.584
75191ION    CL-47616  13.109  23.162  14.368
75192ION    CL-47617   1.333   5.277  14.517
75193ION    CL-47618  22.447  27.999   4.892
75194ION    CL-47619  17.560   4.214  13.833
75195ION    CL-47620   7.244   7.609   1.706
75196ION    CL-47621  30.424   8.409  14.455
75197ION    CL-47622  16.301  44.054  13.031
75198ION    CL-47623  42.345  36.610   3.341
75199ION    CL-47624  22.768  23.120   2.082
75200ION    CL-47625  15.720   9.244  11.925
75201ION    CL-47626   1.167  23.316   2.888
75202ION    CL-47627  22.139  23.557  12.858
75203ION    CL-47628   7.626  17.478   4.067
75204ION    CL-47629   1.532  14.027  10.949
75205ION    CL-47630  44.948  17.898   1.953
75206ION    CL-47631  35.250  39.346  12.424
75207ION    CL-47632   4.178   2.912   3.669
75208ION    CL-47633   2.379  25.711  14.923
75209ION    CL-47634  35.383   2.721  12.781
75210ION    CL-47635  42.055  21.879  13.484
75211ION    CL-47636  19.786  29.095   3.616
75212ION    CL-47637  43.051  32.231   1.472
75213ION    CL-47638  28.512  25.450  14.762
75214ION    CL-47639  27.739  11.565  14.866
75215ION    CL-47640  39.583  36.350   4.066
75216ION    CL-47641  16.838  34.803  11.386
75217ION    CL-47642  28.733  23.804   2.623
75218ION    CL-47643  41.103  15.274  10.455
75219ION    CL-47644  17.677   1.033   4.412
75220ION    CL-47645  26.835   1.107  12.843
75221ION    CL-47646  25.039  27.596   1.749
75222ION    CL-47647  35.871  16.070  14.237
75223ION    CL-47648  24.646  43.919  14.857
75224ION    CL-47649  32.170  25.601   3.921
75225ION    CL-47650   9.190  44.626  10.198
75226ION    CL-47651   1.722   8.119  12.930
75227ION    CL-47652  28.636  21.037   4.533
75228ION    CL-47653  35.555  19.445  13.924
75229ION    CL-47654  30.092  24.923  13.073
75230ION    CL-47655  36.622   0.498   3.712
75231ION    CL-47656  18.597  24.865  14.106
75232ION    CL-47657  10.356  17.383   4.277
75233ION    CL-47658  34.822  35.502   0.382
75234ION    CL-47659  31.428   1.823   1.165
75235ION    CL-47660  17.781  34.575   5.136
75236ION    CL-47661  36.314  23.739   0.268
75237ION    CL-47662  37.770  33.491  10.165
75238ION    CL-47663  28.515  33.973   3.359
75239ION    CL-47664  18.312  13.123   4.161
75240ION    CL-47665  37.209   0.367   0.918
75241ION    CL-47666  35.013  20.769  10.750
75242ION    CL-47667  44.027  33.963   5.354
75243ION    CL-47668  24.044  16.462  13.360
75244ION    CL-47669  15.671  19.653   9.909
75245ION    CL-47670   0.266  12.733   5.021
75246ION    CL-47671  37.937  39.565  12.043
75247ION    CL-47672  44.208   9.196   3.339
75248ION    CL-47673  28.292  27.927   2.314
75249ION    CL-47674  17.005  39.721   2.182
75250ION    CL-47675  25.492  34.095   2.689
75251ION    CL-47676  18.069  22.245   0.284
75252ION    CL-47677  38.982  19.050  11.735
75253ION    CL-47678  29.789  18.642  12.028
75254ION    CL-47679  43.894  11.738   3.299
75255ION    CL-47680  26.599   1.371   5.180
75256ION    CL-47681  10.991   3.974   0.979
75257ION    CL-47682   8.035  17.876  14.489
75258ION    CL-47683   6.759  24.124   3.225
75259ION    CL-47684  12.292  39.838  11.138
75260ION    CL-47685  31.393  20.539  11.480
75261ION    CL-47686  22.062   5.680  14.988
75262ION    CL-47687   7.294  10.136  13.320
75263ION    CL-47688   6.200  22.405  11.074
75264ION    CL-47689  11.805  27.893  12.410
75265ION    CL-47690  19.077   8.936   4.171
75266ION    CL-47691  43.103  30.505   3.200
75267ION    CL-47692  16.228  19.498   4.672
75268ION    CL-47693   3.935  20.566  13.905
75269ION    CL-47694  34.390  25.858  12.338
75270ION    CL-47695  11.832  31.646  10.860
75271ION    CL-47696   0.331  10.339   0.437
75272ION    CL-47697  11.178  12.307   3.209
75273ION    CL-47698  25.774  23.264  11.503
75274ION    CL-47699  37.433  28.585   3.803
75275ION    CL-47700   9.805  41.495  11.399
75276ION    CL-47701   6.399   2.889  12.908
75277ION    CL-47702   5.366  39.781  14.121
75278ION    CL-47703  21.365  24.280   3.681
75279ION    CL-47704   7.958  30.949   3.155
75280ION    CL-47705  17.197  20.738   1.087
75281ION    CL-47706   1.084  29.725  13.220
75282ION    CL-47707  19.277   7.633  12.034
75283ION    CL-47708  14.316  13.096  13.453
75284ION    CL-47709  42.514  41.463  14.488
75285ION    CL-47710   6.661  33.628   2.257
75286ION    CL-47711  40.784  33.273   4.337
75287ION    CL-47712  36.958  16.271  10.782
75288ION    CL-47713  10.311  34.120  12.813
75289ION    CL-47714  19.406  31.911   3.334
75290ION    CL-47715  37.765   6.811   5.029
75291ION    CL-47716  31.084  17.007   0.069
75292ION    CL-47717  41.548  35.493  13.362
75293ION    CL-47718  10.845  30.651  11.747
75294ION    CL-47719  36.970   8.168   3.325
75295ION    CL-47720  13.927   6.235  11.440
75296ION    CL-47721  34.211  44.592   2.888
75297ION    CL-47722  10.527  24.485   1.639
75298ION    CL-47723  13.227   4.852   3.897
75299ION    CL-47724  28.940  22.165  10.995
75300ION    CL-47725  23.499  15.408   0.743
75301ION    CL-47726  42.101  13.224  10.438
75302ION    CL-47727  42.037  16.762  14.269
75303ION    CL-47728  18.532  23.086  14.442
75304ION    CL-47729  11.849  17.309   4.961
75305ION    CL-47730  18.478  35.101  14.976
75306ION    CL-47731   5.746  15.365   2.919
75307ION    CL-47732  31.255   7.520   2.966
75308ION    CL-47733  19.656  35.507   1.287
75309ION    CL-47734   5.882  17.911   3.626
75310ION    CL-47735  35.498  34.384   1.014
75311ION    CL-47736   0.154  36.568  12.980
75312ION    CL-47737   4.507  21.588  12.114
75313ION    CL-47738  35.815  11.021  12.640
75314ION    CL-47739   3.476  18.920  11.602
75315ION    CL-47740   8.618  22.507   1.900
75316ION    CL-47741  21.277  41.862   2.457
75317ION    CL-47742  13.992   8.437  10.105
75318ION    CL-47743  24.716  24.939  14.210
75319ION    CL-47744   7.670  15.057   3.831
75320ION    CL-47745   3.784  44.478   0.477
75321ION    CL-47746  30.056  34.899  13.810
75322ION    CL-47747  23.198  19.155  14.083
75323ION    CL-47748   0.837  20.703   2.721
75324ION    CL-47749  16.843  44.805  11.353
75325ION    CL-47750   5.989   5.832  11.738
75326ION    CL-47751  42.421  29.822   2.941
75327ION    CL-47752  29.569  11.587   3.612
75328ION    CL-47753  10.726  23.473  14.426
75329ION    CL-47754  44.475   0.756   2.767
75330ION    CL-47755  16.147  19.512  13.852
75331ION    CL-47756   3.344  44.721   5.006
75332ION    CL-47757  17.542  22.100  13.735
75333ION    CL-47758  44.394  39.937   1.393
75334ION    CL-47759  19.981  18.836  14.312
75335ION    CL-47760  36.345  26.820   0.660
75336ION    CL-47761  18.728   9.417   2.937
75337ION    CL-47762   3.201  33.757  14.046
75338ION    CL-47763  31.331   6.697   4.545
75339ION    CL-47764  35.388  35.128   4.846
75340ION    CL-47765  29.881  25.972  11.564
75341ION    CL-47766  43.037  28.307  14.885
75342ION    CL-47767  15.275  41.153  11.243
75343ION    CL-47768  32.595  30.368   1.939
75344ION    CL-47769   7.543  12.888   3.627
75345ION    CL-47770  10.274  25.556   3.684
75346ION    CL-47771  11.203   7.255  12.372
75347ION    CL-47772   3.713  14.304  13.110
75348ION    CL-47773   8.965  35.527  14.780
75349ION    CL-47774  22.850  10.062   0.465
75350ION    CL-47775  38.223  41.758  11.655
75351ION    CL-47776  22.262  22.053  12.503
75352ION    CL-47777  20.121  33.235  12.212
75353ION    CL-47778   0.064  15.271   5.058
75354ION    CL-47779  16.333  10.903  11.101
75355ION    CL-47780  38.140   9.686  10.592
75356ION    CL-47781  35.236  21.480  10.083
75357ION    CL-47782   4.284  36.561  14.477
75358ION    CL-47783  31.685   7.100  10.973
75359ION    CL-47784   3.564  12.140  12.374
75360ION    CL-47785  34.520  37.028  12.173
75361ION    CL-47786  19.639   3.803   3.674
75362ION    CL-47787  26.220   4.040   0.697
75363ION    CL-47788  34.293  43.780   0.985
75364ION    CL-47789  34.899  33.095  12.907
75365ION    CL-47790  31.990  18.949  12.434
75366ION    CL-47791  19.490  23.287  12.011
75367ION    CL-47792   0.539  24.352   3.696
75368ION    CL-47793  41.393  28.650   2.642
75369ION    CL-47794  37.603  42.885   0.019
75370ION    CL-47795  32.172   8.477   2.962
75371ION    CL-47796  22.242  38.385  12.334
75372ION    CL-47797   7.333  27.689  12.125
75373ION    CL-47798  35.346  31.893  12.177
75374ION    CL-47799   3.144  44.713  11.124
75375ION    CL-47800  42.855   2.064   1.560
75376ION    CL-47801  35.808  23.097  11.648
75377ION    CL-47802  14.678  34.863  14.430
75378ION    CL-47803  18.773  16.994  13.657
75379ION    CL-47804   3.467  10.909   4.018
75380ION    CL-47805   7.801  22.880  13.983
75381ION    CL-47806  16.791  25.951   4.650
75382ION    CL-47807  11.601   3.226   3.821
75383ION    CL-47808  35.702   1.227  14.577
75384ION    CL-47809  28.880  19.325  11.603
75385ION    CL-47810   1.250  23.900   1.211
75386ION    CL-47811  31.576  37.925   2.858
75387ION    CL-47812  23.882  31.407   2.991
75388ION    CL-47813  12.859   8.254   2.289
75389ION    CL-47814  23.783  21.889  12.737
75390ION    CL-47815  42.879   2.408   2.499
75391ION    CL-47816  16.445  28.214   3.064
75392ION    CL-47817  35.564  15.173  10.269
75393ION    CL-47818   9.518  43.273  11.087
75394ION    CL-47819  38.182  16.718   2.831
75395ION    CL-47820  44.532  21.523   1.263
75396ION    CL-47821   3.147  44.387  13.809
75397ION    CL-47822  34.857  11.171  13.031
75398ION    CL-47823  40.914   3.851  14.873
75399ION    CL-47824  26.115  14.633   2.783
75400ION    CL-47825  13.787  34.385   4.449
75401ION    CL-47826  26.559  33.834  13.513
75402ION    CL-47827  21.114   3.121  14.240
75403ION    CL-47828  36.489   8.717   2.454
75404ION    CL-47829  17.988  17.398  13.584
75405ION    CL-47830  42.211  18.613   2.365
75406ION    CL-47831  13.880  41.952   3.865
75407ION    CL-47832  24.884  17.053   2.442
75408ION    CL-47833   3.860  27.445   4.194
75409ION    CL-47834  26.047   8.411   4.501
75410ION    CL-47835  11.370   7.471   4.450
75411ION    CL-47836  17.525   3.730   0.201
75412ION    CL-47837  21.184  21.811  13.467
75413ION    CL-47838  36.885  39.111  13.274
75414ION    CL-47839   2.962   8.438   4.538
75415ION    CL-47840  31.692  43.140  14.782
75416ION    CL-47841   1.869  42.568   3.373
75417ION    CL-47842  26.801  44.097   9.760
75418ION    CL-47843   9.294  38.613  13.971
75419ION    CL-47844  14.470  17.120  10.364
75420ION    CL-47845  18.677  29.505   1.220
75421ION    CL-47846  35.586  44.342   3.642
75422ION    CL-47847  41.367   9.406  13.780
75423ION    CL-47848   1.088   2.284   2.165
75424ION    CL-47849   3.772   5.004   3.791
75425ION    CL-47850  13.403  16.798   4.199
75426ION    CL-47851   0.730  14.386   3.338
75427ION    CL-47852  26.248  33.896   3.314
75428ION    CL-47853   4.047   1.286  12.870
75429ION    CL-47854  26.705   9.200  13.399
75430ION    CL-47855  41.724  35.916  14.519
75431ION    CL-47856  21.182  35.951  14.257
75432ION    CL-47857  24.567  23.327   4.957
75433ION    CL-47858  17.850   3.769   5.145
75434ION    CL-47859  18.340  35.176   9.966
75435ION    CL-47860  32.007   2.322  13.769
75436ION    CL-47861   8.211   0.013  10.685
75437ION    CL-47862  32.726  19.411  14.239
75438ION    CL-47863  42.165  27.079  14.961
75439ION    CL-47864  28.392  17.419   2.136
75440ION    CL-47865  37.178  25.295   4.083
75441ION    CL-47866  26.582  32.172  12.580
75442ION    CL-47867   7.262  37.925  12.140
75443ION    CL-47868  42.141   0.811   0.461
75444ION    CL-47869   8.149  41.801  11.036
75445ION    CL-47870  29.658  33.470  11.225
75446ION    CL-47871  31.494  42.584   4.132
75447ION    CL-47872   0.869  15.887   1.803
75448ION    CL-47873  41.485   8.433  13.581
75449ION    CL-47874   3.270  28.068  10.927
75450ION    CL-47875   8.891  40.646  11.988
75451ION    CL-47876  21.538  43.611   1.899
75452ION    CL-47877  24.203  11.409  12.667
75453ION    CL-47878   9.444  14.261  14.869
75454ION    CL-47879  39.150  18.727  14.789
75455ION    CL-47880  36.408  39.728   1.402
75456ION    CL-47881  37.458  41.683  14.078
75457ION    CL-47882  39.582  13.471   2.061
75458ION    CL-47883  14.729  37.239  14.839
75459ION    CL-47884  21.197  18.096   3.172
75460ION    CL-47885  36.531   4.210  13.959
75461ION    CL-47886  32.227   5.412  14.075
75462ION    CL-47887  34.141  16.816  11.336
75463ION    CL-47888  38.635  36.667   4.021
75464ION    CL-47889  24.913  17.992  12.144
75465ION    CL-47890  27.060  21.424  12.715
75466ION    CL-47891   2.411  41.329  10.819
75467ION    CL-47892  13.562   6.177  13.746
75468ION    CL-47893   1.392  12.101   3.579
75469ION    CL-47894   5.613  25.483   0.008
75470ION    CL-47895  16.903   5.357  10.390
75471ION    CL-47896   8.471  19.104  10.999
75472ION    CL-47897  30.123  41.608  12.285
75473ION    CL-47898   2.922  28.042  14.047
75474ION    CL-47899  24.773  12.455   2.661
75475ION    CL-47900  27.797  27.541   1.081
75476ION    CL-47901  32.053   7.342   2.100
75477ION    CL-47902  10.302  29.977  10.211
75478ION    CL-47903   6.974   9.341  11.837
75479ION    CL-47904  35.525  24.972  13.033
75480ION    CL-47905  21.020  22.510  11.406
75481ION    CL-47906  17.691  28.904  13.440
75482ION    CL-47907  20.798   4.449  10.911
75483ION    CL-47908  25.494  24.768  11.682
75484ION    CL-47909  31.911   7.451   0.198
75485ION    CL-47910  34.065  15.177  10.867
75486ION    CL-47911  38.862  23.712  13.635
75487ION    CL-47912   9.883  43.535  10.193
75488ION    CL-47913  13.360   0.519   2.186
75489ION    CL-47914  39.853  15.823   0.609
75490ION    CL-47915  16.357   7.108   3.030
75491ION    CL-47916  36.442  25.971  12.101
75492ION    CL-47917   3.508  34.220   2.172
75493ION    CL-47918  23.093  38.488  11.165
75494ION    CL-47919  19.219  21.855   2.269
75495ION    CL-47920  25.339  40.610   1.850
75496ION    CL-47921  23.832  18.502   4.670
75497ION    CL-47922  13.557  10.994  13.878
75498ION    CL-47923  11.437  23.158   0.442
75499ION    CL-47924  22.096   7.998  14.448
75500ION    CL-47925  27.912  43.968   3.825
75501ION    CL-47926  27.302  40.172   2.820
75502ION    CL-47927  26.402  32.959   4.666
75503ION    CL-47928  41.642  20.757   0.044
75504ION    CL-47929  19.605  22.463  12.960
75505ION    CL-47930  26.647  30.439  13.947
75506ION    CL-47931   5.385  13.732  11.103
75507ION    CL-47932   5.461  40.522  13.456
75508ION    CL-47933  40.727  10.661  13.839
75509ION    CL-47934  17.326  30.252   3.714
75510ION    CL-47935  12.629  41.496   1.709
75511ION    CL-47936  31.633  23.877  12.334
75512ION    CL-47937   0.789  35.938   3.291
75513ION    CL-47938  41.338   3.727   2.226
75514ION    CL-47939  34.490  27.506  13.452
75515ION    CL-47940  25.745  37.810   1.466
75516ION    CL-47941   5.408  34.097  12.293
75517ION    CL-47942  32.199  39.475  13.345
75518ION    CL-47943  26.882  20.254   0.007
75519ION    CL-47944  33.481  22.713  11.742
75520ION    CL-47945  20.092  17.129  10.945
75521ION    CL-47946  17.429  18.825  12.552
75522ION    CL-47947  27.491  20.678  10.545
75523ION    CL-47948  31.842  14.552   4.992
75524ION    CL-47949   4.956  21.202  10.626
75525ION    CL-47950  39.160  19.487  12.956
75526ION    CL-47951  23.777   9.271   3.084
75527ION    CL-47952   6.987  25.884   3.315
75528ION    CL-47953  29.345  14.266  12.467
75529ION    CL-47954  10.383  42.158   4.563
75530ION    CL-47955  29.167   2.601  13.325
75531ION    CL-47956   2.888  20.968   2.203
75532ION    CL-47957  41.213   2.466   0.279
75533ION    CL-47958  44.518  15.343  12.519
75534ION    CL-47959  10.219  18.851  13.935
75535ION    CL-47960  12.979   9.309  12.691
75536ION    CL-47961  24.937  26.922  14.954
75537ION    CL-47962  10.370  21.245  14.570
75538ION    CL-47963   0.960  36.520   4.853
75539ION    CL-47964  11.359  39.057   3.723
75540ION    CL-47965  13.778   3.488   0.910
75541ION    CL-47966   9.209  11.382  11.455
75542ION    CL-47967  38.364  36.240  12.081
75543ION    CL-47968   3.198   9.128   3.855
75544ION    CL-47969  19.015  28.518   2.009
75545ION    CL-47970  33.988   3.509   2.662
75546ION    CL-47971  38.052   7.764  12.136
75547ION    CL-47972  26.803  38.040   1.188
75548ION    CL-47973  25.848  21.139  13.839
75549ION    CL-47974  28.146  29.540  13.814
75550ION    CL-47975   4.015  11.176  13.539
75551ION    CL-47976  15.526  26.540  14.336
75552ION    CL-47977  32.259  26.246   0.957
75553ION    CL-47978   7.613  21.274   9.900
75554ION    CL-47979  43.799  41.079   3.193
75555ION    CL-47980  24.536  22.579  10.778
75556ION    CL-47981   9.070  13.937  10.621
75557ION    CL-47982  43.763  43.886   2.403
75558ION    CL-47983  37.631   1.938   1.497
75559ION    CL-47984  11.723   4.234   4.098
75560ION    CL-47985  25.897   0.782   0.825
75561ION    CL-47986   3.405  33.165   0.328
75562ION    CL-47987  25.465   4.672   0.871
75563ION    CL-47988  35.316  42.276   1.390
75564ION    CL-47989  36.212  35.024  11.164
75565ION    CL-47990  44.355  15.340   3.702
75566ION    CL-47991  10.829  33.925   1.458
75567ION    CL-47992  39.436  40.544  12.043
75568ION    CL-47993   0.228  38.112   2.198
75569ION    CL-47994  28.325  43.810  10.616
75570ION    CL-47995  10.850  30.801  13.556
75571ION    CL-47996  27.622  43.809  10.014
75572ION    CL-47997  19.467   4.031   1.776
75573ION    CL-47998  10.164  13.603  11.571
75574ION    CL-47999  36.920  39.932   4.057
75575ION    CL-48000   7.622  38.497   1.119
75576ION    CL-48001  39.440  14.456   2.160
75577ION    CL-48002  36.312  42.609   0.569
75578ION    CL-48003  11.843  20.622   3.698
75579ION    CL-48004  23.564  44.738   1.868
75580ION    CL-48005  43.176  29.726   1.774
75581ION    CL-48006  14.361  39.745  14.271
75582ION    CL-48007  18.359  35.915  13.577
75583ION    CL-48008  25.557  16.107  14.894
75584ION    CL-48009  43.576   6.778   1.437
75585ION    CL-48010  32.003  10.648   4.911
75586ION    CL-48011   6.601  27.404   2.949
75587ION    CL-48012  38.153  31.156   4.115
75588ION    CL-48013  23.156  27.069   0.319
75589ION    CL-48014  41.873   7.172  11.157
75590ION    CL-48015   4.986  39.281  14.930
75591ION    CL-48016   8.786  30.798   1.525
75592ION    CL-48017  32.741  25.424   1.324
75593ION    CL-48018   7.913  41.834  14.485
75594ION    CL-48019  23.773  27.953   5.255
75595ION    CL-48020  39.588  19.786  13.851
75596ION    CL-48021  23.690  41.623  13.951
75597ION    CL-48022  32.876  39.619  11.038
75598ION    CL-48023   2.878  40.523   0.866
75599ION    CL-48024  14.198  25.245   2.754
75600ION    CL-48025  24.252  24.229   4.662
75601ION    CL-48026  35.143  10.126  11.898
75602ION    CL-48027   1.358  40.603   0.891
75603ION    CL-48028   3.503  26.602  11.068
75604ION    CL-48029   9.106  27.606   1.234
75605ION    CL-48030  18.583  15.978   1.263
75606ION    CL-48031  43.528  41.323   0.856
75607ION    CL-48032  10.823  31.781  13.353
75608ION    CL-48033  33.656   1.887  13.181
75609ION    CL-48034  27.670   7.813  13.289
75610ION    CL-48035  25.007  22.611   3.910
75611ION    CL-48036   7.019  12.587  11.289
75612ION    CL-48037  20.658  23.773  11.653
75613ION    CL-48038  19.133  19.329  14.513
75614ION    CL-48039  37.478  41.233  11.773
75615ION    CL-48040  34.790  14.120  14.181
75616ION    CL-48041  13.807  34.117   2.335
75617ION    CL-48042  34.641  34.292  11.667
75618ION    CL-48043  18.860  26.562   3.576
75619ION    CL-48044  15.481   2.181   0.952
75620ION    CL-48045  16.395  32.493  13.709
75621ION    CL-48046  27.442  40.923   0.956
75622ION    CL-48047  15.421   5.890   5.034
75623ION    CL-48048  24.837  24.068   5.013
75624ION    CL-48049  24.044  28.487   1.212
75625ION    CL-48050  15.650  10.248  11.854
75626ION    CL-48051  41.040   0.287   4.992
75627ION    CL-48052  27.892  26.086  12.649
75628ION    CL-48053  10.916   0.743   3.544
75629ION    CL-48054  32.164   8.266  10.633
75630ION    CL-48055  16.256  40.899   4.411
75631ION    CL-48056  14.002  11.621  11.074
75632ION    CL-48057   7.968  13.539  13.268
75633ION    CL-48058  25.631  15.082   5.044
75634ION    CL-48059   5.803  33.004  13.827
75635ION    CL-48060   1.779  14.633   3.389
75636ION    CL-48061  32.104  13.276  13.655
75637ION    CL-48062  31.835  24.138   0.096
75638ION    CL-48063   9.211  26.771   1.809
75639ION    CL-48064  23.855   3.590  11.907
75640ION    CL-48065  32.147  41.560   1.086
75641ION    CL-48066   0.228  14.306  10.397
75642ION    CL-48067  36.321  14.065   5.064
75643ION    CL-48068   2.149  37.308   4.316
75644ION    CL-48069   1.661  25.807  11.034
75645ION    CL-48070  17.125  33.005  14.515
75646ION    CL-48071   6.407  16.128  11.068
75647ION    CL-48072  35.864  13.217  13.942
75648ION    CL-48073  25.374  39.484  13.956
75649ION    CL-48074  18.004  22.638  12.134
75650ION    CL-48075   9.960   1.451   2.565
75651ION    CL-48076  24.029   0.664  14.967
75652ION    CL-48077  28.407   9.032   3.137
75653ION    CL-48078  41.251   8.836  14.466
75654ION    CL-48079  40.959  28.226  12.491
75655ION    CL-48080   5.614  30.508  14.799
75656ION    CL-48081  41.280  31.255  13.027
75657ION    CL-48082  43.034  24.734  13.633
75658ION    CL-48083  30.092  26.729   0.906
75659ION    CL-48084  44.341  17.243  11.584
75660ION    CL-48085  25.616  17.734  10.738
75661ION    CL-48086  35.828  34.909   1.799
75662ION    CL-48087  27.192   5.376   2.573
75663ION    CL-48088   7.016  30.189  12.517
75664ION    CL-48089  43.014  34.343   0.492
75665ION    CL-48090  41.306   1.219  12.880
75666ION    CL-48091  21.303  26.827   0.694
75667ION    CL-48092  31.704   6.101  10.956
75668ION    CL-48093  30.168  13.526  11.413
75669ION    CL-48094   1.308  31.804  14.059
75670ION    CL-48095   3.473  13.176  11.278
75671ION    CL-48096   4.521  15.789  13.706
75672ION    CL-48097  21.249   9.650   1.865
75673ION    CL-48098  17.460   2.375  12.273
75674ION    CL-48099  12.746  10.072   4.875
75675ION    CL-48100   2.489  27.128   0.449
75676ION    CL-48101  30.775   9.866  13.656
75677ION    CL-48102  16.601  23.807   1.764
75678ION    CL-48103  42.066  27.708   2.005
75679ION    CL-48104   7.905   2.837  11.975
75680ION    CL-48105  43.065  13.245  12.559
75681ION    CL-48106  22.957   9.875   3.528
75682ION    CL-48107  37.355  43.423   2.307
75683ION    CL-48108   6.815   2.800   2.249
75684ION    CL-48109  19.444   9.995   5.031
75685ION    CL-48110   8.311  35.899  14.223
75686ION    CL-48111  12.030  40.462   2.191
75687ION    CL-48112  24.464  15.771  10.306
75688ION    CL-48113  15.883  31.392  11.767
75689ION    CL-48114  41.235  26.370   3.720
75690ION    CL-48115  39.796   8.267   0.224
75691ION    CL-48116  30.723   3.560   0.955
75692ION    CL-48117   4.635  35.799   3.641
75693ION    CL-48118  44.328  38.507  14.484
75694ION    CL-48119   6.110  20.042   3.306
75695ION    CL-48120  12.069  35.809   1.471
75696ION    CL-48121  17.994   2.589   0.655
75697ION    CL-48122  19.157  14.310  11.195
75698ION    CL-48123  44.854  27.535   4.313
75699ION    CL-48124  28.087  10.089   4.467
75700ION    CL-48125   6.670  23.119   2.889
75701ION    CL-48126  24.203  44.053  10.717
75702ION    CL-48127   3.905   8.230  13.543
75703ION    CL-48128  12.077   6.218   0.723
75704ION    CL-48129  42.156  12.100  13.839
75705ION    CL-48130  12.493  19.068   0.457
75706ION    CL-48131   3.553  11.480   3.315
75707ION    CL-48132   4.710  22.563   1.544
75708ION    CL-48133  31.052  14.202  11.222
75709ION    CL-48134   5.695  23.389   0.715
75710ION    CL-48135  19.090  22.117  11.510
75711ION    CL-48136  15.903  27.268  13.764
75712ION    CL-48137  11.784  20.526   2.806
75713ION    CL-48138  10.063  18.020  13.619
75714ION    CL-48139  36.673  13.636   4.320
75715ION    CL-48140  31.825  39.472  10.809
75716ION    CL-48141  33.845  42.447   1.585
75717ION    CL-48142  39.830  30.956   0.049
75718ION    CL-48143  20.456  15.694  11.066
75719ION    CL-48144  14.982   0.672   4.941
75720ION    CL-48145  21.698  29.648  14.230
75721ION    CL-48146  39.861  15.419   5.154
75722ION    CL-48147   9.195  41.366   3.978
75723ION    CL-48148   6.322  10.484   4.217
75724ION    CL-48149  29.220  38.247   5.673
75725ION    CL-48150  21.225  41.879   3.401
75726ION    CL-48151   1.060   8.475   1.960
75727ION    CL-48152  22.296  23.957  14.784
75728ION    CL-48153  38.056  22.209  12.950
75729ION    CL-48154  42.533   9.436  13.105
75730ION    CL-48155   0.542  32.924   5.209
75731ION    CL-48156  26.480  43.639   1.605
75732ION    CL-48157  34.658  16.672   4.284
75733ION    CL-48158  41.182  15.727   2.154
75734ION    CL-48159  44.466  25.605  11.698
75735ION    CL-48160  35.419   4.006  13.470
75736ION    CL-48161  10.445  36.534   2.743
75737ION    CL-48162  18.629  17.298  10.546
75738ION    CL-48163   0.675  44.048  13.231
75739ION    CL-48164   6.371  10.180  14.299
75740ION    CL-48165   3.151  31.867   1.316
75741ION    CL-48166  34.117  32.479  14.867
75742ION    CL-48167  23.582  36.761  14.115
75743ION    CL-48168   2.917   5.003   2.666
75744ION    CL-48169   5.822  41.204   3.068
75745ION    CL-48170  31.465  20.662  13.038
75746ION    CL-48171  31.448  29.908   2.011
75747ION    CL-48172  19.747  16.750   0.270
75748ION    CL-48173   3.230   5.866  14.065
75749ION    CL-48174  23.905   1.290  13.404
75750ION    CL-48175  25.450  26.045  11.819
75751ION    CL-48176  20.371  13.387   4.294
75752ION    CL-48177  25.133  25.137   1.658
75753ION    CL-48178  42.283   0.811  10.703
75754ION    CL-48179  17.982  11.854  11.227
75755ION    CL-48180  40.744  22.866   3.716
75756ION    CL-48181  28.574  24.443  10.320
75757ION    CL-48182  10.853  41.841  11.941
75758ION    CL-48183   8.946  34.252  13.904
75759ION    CL-48184  36.703  27.752   4.699
75760ION    CL-48185  28.373  13.795  10.629
75761ION    CL-48186  41.787   5.652  12.950
75762ION    CL-48187  19.324  44.480  14.559
75763ION    CL-48188  11.854  36.848  11.576
75764ION    CL-48189  38.293  31.243   0.482
75765ION    CL-48190   4.056   5.697   4.195
75766ION    CL-48191   4.072   3.111  12.260
75767ION    CL-48192   9.736  22.591  12.831
75768ION    CL-48193  24.555  20.257  13.693
75769ION    CL-48194   3.640  31.548   2.986
75770ION    CL-48195  39.615  10.072  13.550
75771ION    CL-48196  42.506  11.340  14.096
75772ION    CL-48197   1.258  12.163  12.854
75773ION    CL-48198   2.025  13.612   2.480
75774ION    CL-48199  28.987   7.746   1.743
75775ION    CL-48200  25.655  19.846  13.848
75776ION    CL-48201  43.504  40.124   2.892
75777ION    CL-48202  43.461  22.633  13.939
75778ION    CL-48203  18.981  42.136  12.019
75779ION    CL-48204  11.474  23.209  13.455
75780ION    CL-48205  43.868  44.766   1.247
75781ION    CL-48206  28.939  31.976   2.356
75782ION    CL-48207  23.842  28.451  11.671
75783ION    CL-48208  41.622   7.260   2.681
75784ION    CL-48209  39.805  22.533   1.545
75785ION    CL-48210  29.186  42.131  13.662
75786ION    CL-48211  16.579  21.319   1.357
75787ION    CL-48212  33.146  18.425   2.095
75788ION    CL-48213  21.765   2.857  12.017
75789ION    CL-48214  12.295   1.424  13.071
75790ION    CL-48215   5.001  33.630   3.159
75791ION    CL-48216  24.039  33.934  11.938
75792ION    CL-48217   5.183   3.201  12.966
75793ION    CL-48218  36.689  35.890  14.163
75794ION    CL-48219  44.692  35.263  11.821
75795ION    CL-48220  30.721   2.869   0.232
75796ION    CL-48221  19.114  38.573   0.856
75797ION    CL-48222  37.118  12.853   2.749
75798ION    CL-48223  18.531  27.522   3.441
75799ION    CL-48224   6.233  24.701   0.080
75800ION    CL-48225  33.980  36.758   3.034
75801ION    CL-48226   5.717  44.812   4.921
75802ION    CL-48227  44.805  44.726   4.865
75803ION    CL-48228  33.799  41.236   1.282
75804ION    CL-48229   3.773  22.986  10.453
75805ION    CL-48230  18.052   2.326   1.651
75806ION    CL-48231  20.749   1.247   1.002
75807ION    CL-48232  21.719   9.956  13.644
75808ION    CL-48233  31.515  12.138  14.801
75809ION    CL-48234   4.699  34.620  14.357
75810ION    CL-48235  42.581  13.942   0.135
75811ION    CL-48236  13.117  25.181   2.570
75812ION    CL-48237   9.433  29.436  14.748
75813ION    CL-48238  32.530  34.814  13.037
75814ION    CL-48239   1.672  29.556  12.562
75815ION    CL-48240   8.326   2.706   2.158
75816ION    CL-48241  33.181  23.693   1.317
75817ION    CL-48242  21.777   9.683   5.479
75818ION    CL-48243  18.679  13.602   1.205
75819ION    CL-48244  16.834  38.889  13.592
75820ION    CL-48245   1.072  41.772   4.107
75821ION    CL-48246  19.767   1.497   4.613
75822ION    CL-48247   7.361  39.251  14.734
75823ION    CL-48248  37.528  31.965   3.203
75824ION    CL-48249  41.696  32.815   2.980
75825ION    CL-48250  25.597   8.649   3.618
75826ION    CL-48251  15.008  11.706  11.172
75827ION    CL-48252  40.929  25.436  12.155
75828ION    CL-48253  23.905  17.685  14.445
75829ION    CL-48254  28.180   8.248  10.814
75830ION    CL-48255  13.838  35.160   0.416
75831ION    CL-48256  33.946  28.546   4.499
75832ION    CL-48257  15.306  20.620   3.313
75833ION    CL-48258  28.663  13.691   3.053
75834ION    CL-48259   8.845  13.084  11.572
75835ION    CL-48260  33.932  26.707  11.185
75836ION    CL-48261  31.723  33.592  10.780
75837ION    CL-48262   6.114  11.376  11.932
75838ION    CL-48263  43.017  33.735   2.190
75839ION    CL-48264   6.241  35.706  11.746
75840ION    CL-48265  30.663   6.814  11.137
75841ION    CL-48266  32.458  42.830   0.706
75842ION    CL-48267   3.101  11.349  14.539
75843ION    CL-48268  32.030  14.045  12.956
75844ION    CL-48269   0.628  16.519   1.188
75845ION    CL-48270  25.757  13.114   4.528
75846ION    CL-48271  18.016  43.488  14.456
75847ION    CL-48272  37.917  37.052  13.366
75848ION    CL-48273   1.285  30.716   2.874
75849ION    CL-48274  29.441  12.516   1.449
75850ION    CL-48275  28.664   7.859  13.191
75851ION    CL-48276   0.604   4.165   2.905
75852ION    CL-48277   2.980  16.024  11.511
75853ION    CL-48278  16.950  24.893   3.376
75854ION    CL-48279  31.198  43.123   2.809
75855ION    CL-48280  10.793   7.862  10.474
75856ION    CL-48281   1.331  12.570  12.079
75857ION    CL-48282  34.176  24.034  13.927
75858ION    CL-48283   4.803  17.303   0.427
75859ION    CL-48284  18.766  36.632  13.194
75860ION    CL-48285  32.509  16.506   0.358
75861ION    CL-48286  19.295   0.451   1.468
75862ION    CL-48287  18.986  40.208   2.884
75863ION    CL-48288   8.477  24.259   1.787
75864ION    CL-48289  24.600  36.370   1.141
75865ION    CL-48290  25.809  17.115  12.484
75866ION    CL-48291   2.989  21.880   1.218
75867ION    CL-48292  38.681  40.617   4.116
75868ION    CL-48293  17.688  36.116   2.753
75869ION    CL-48294   8.417   0.981  10.835
75870ION    CL-48295  33.788  43.382   5.007
75871ION    CL-48296   4.981   6.920  12.988
75872ION    CL-48297  17.307  35.730   4.560
75873ION    CL-48298  37.839  31.980   2.252
75874ION    CL-48299  28.237  33.612  11.906
75875ION    CL-48300  39.708   1.055  11.398
75876ION    CL-48301  34.990  36.172   3.202
75877ION    CL-48302   6.391  16.689   3.227
75878ION    CL-48303  25.019   3.365   3.344
75879ION    CL-48304   5.339   6.537  11.456
75880ION    CL-48305  34.663   1.351  11.193
75881ION    CL-48306   0.913  25.360   4.757
75882ION    CL-48307   3.246  27.483   2.850
75883ION    CL-48308  31.042  37.788   3.692
75884ION    CL-48309   9.413  25.096   1.964
75885ION    CL-48310   8.138  37.865   5.012
75886ION    CL-48311  44.437  26.604  11.733
75887ION    CL-48312   9.171   6.460  14.769
75888ION    CL-48313  31.975  37.985   0.685
75889ION    CL-48314  42.353  17.016  10.861
75890ION    CL-48315  21.619  20.628   0.362
75891ION    CL-48316   3.592   0.492  11.122
75892ION    CL-48317   2.772  21.156   3.654
75893ION    CL-48318   6.675   0.835   2.097
75894ION    CL-48319   8.799  18.205   4.174
75895ION    CL-48320  38.577  18.708   0.671
75896ION    CL-48321  23.442   4.110   2.132
75897ION    CL-48322  29.347  19.228  12.706
75898ION    CL-48323   1.238   1.026   0.893
75899ION    CL-48324  38.608  29.668   2.203
75900ION    CL-48325  10.701   3.619   1.734
75901ION    CL-48326  24.509  18.467  10.748
75902ION    CL-48327  13.746  14.497  11.468
75903ION    CL-48328  24.476  15.595   0.640
75904ION    CL-48329  43.319  16.866  14.347
75905ION    CL-48330  31.526  35.251   2.101
75906ION    CL-48331  22.968  25.137  11.103
75907ION    CL-48332  26.482   0.332   1.530
75908ION    CL-48333  40.010  20.320   0.148
75909ION    CL-48334   5.353   7.009   2.018
75910ION    CL-48335  39.918  18.709  11.654
75911ION    CL-48336  38.717  31.490   4.698
75912ION    CL-48337  24.446  36.670   2.082
75913ION    CL-48338  24.069   3.618   0.049
75914ION    CL-48339  28.490   1.893  12.712
75915ION    CL-48340  15.793  41.540   3.616
75916ION    CL-48341  26.478  15.347   3.382
75917ION    CL-48342  15.025  33.620   3.260
75918ION    CL-48343  34.350   0.287  14.543
75919ION    CL-48344   5.603   3.065  11.462
75920ION    CL-48345  30.945  40.826  10.550
75921ION    CL-48346  41.283  19.348  10.110
75922ION    CL-48347   0.782  25.789  11.513
75923ION    CL-48348  12.123  35.821   2.487
75924ION    CL-48349   4.755   3.007   0.967
75925ION    CL-48350  13.641  37.201   0.452
75926ION    CL-48351   7.922  42.783  12.988
75927ION    CL-48352  43.822  13.758  12.156
75928ION    CL-48353  30.759  25.678  11.187
75929ION    CL-48354   8.341  13.835   1.386
75930ION    CL-48355  35.309  31.354  10.153
75931ION    CL-48356  17.265  38.226  12.568
75932ION    CL-48357  17.693  42.902   4.889
75933ION    CL-48358  27.968  42.492   3.098
75934ION    CL-48359  44.549  23.847   3.416
75935ION    CL-48360  12.006   0.365   4.025
75936ION    CL-48361  32.795   9.351   4.149
75937ION    CL-48362  18.680  42.597   4.081
75938ION    CL-48363  32.617  15.436  14.088
75939ION    CL-48364  36.571  32.638  14.009
75940ION    CL-48365   7.851   1.491  13.903
75941ION    CL-48366  33.788  26.910  13.395
75942ION    CL-48367  23.595   5.035   4.885
75943ION    CL-48368  32.622  10.837   2.958
75944ION    CL-48369  21.473   6.577   0.570
75945ION    CL-48370  29.050   4.774  14.966
75946ION    CL-48371   1.714   4.073  10.000
75947ION    CL-48372  23.728  36.913   0.144
75948ION    CL-48373   0.524  21.642   0.530
75949ION    CL-48374  34.563  15.647  12.550
75950ION    CL-48375   7.836  28.130   1.141
75951ION    CL-48376  36.057  10.675  13.548
75952ION    CL-48377  42.837  29.602  12.991
75953ION    CL-48378  26.758  25.304  11.876
75954ION    CL-48379  31.901  39.961  10.023
75955ION    CL-48380   8.574  16.291  12.127
75956ION    CL-48381  33.953   6.383  12.373
75957ION    CL-48382  13.930  40.055   2.765
75958ION    CL-48383   5.669  17.162  10.570
75959ION    CL-48384   2.354  12.653  14.966
75960ION    CL-48385  40.669  35.357  13.818
75961ION    CL-48386  41.756  32.055   3.459
75962ION    CL-48387  23.650  22.956   1.943
75963ION    CL-48388  44.332  31.280   3.204
75964ION    CL-48389  18.283  21.821   3.199
75965ION    CL-48390  27.039  35.992   1.331
75966ION    CL-48391  20.002  16.985  12.789
75967ION    CL-48392   8.157   9.494  11.220
75968ION    CL-48393  33.727  24.666  12.024
75969ION    CL-48394  20.165  39.060   9.756
75970ION    CL-48395  19.377  13.024   0.290
75971ION    CL-48396  14.611  16.998  14.414
75972ION    CL-48397  10.719  23.752  11.564
75973ION    CL-48398  25.057  14.941   3.992
75974ION    CL-48399  20.651  41.301  10.413
75975ION    CL-48400  16.183  20.336   4.103
75976ION    CL-48401  33.985   2.473   2.656
75977ION    CL-48402   1.329  24.832  11.155
75978ION    CL-48403   4.285  28.842   1.303
75979ION    CL-48404  20.504   1.121  11.540
75980ION    CL-48405  39.404  19.577  10.870
75981ION    CL-48406  42.836  27.005   2.301
75982ION    CL-48407  23.126  19.303  12.390
75983ION    CL-48408   6.321   6.909   4.975
75984ION    CL-48409  21.493  43.979  11.079
75985ION    CL-48410   2.834   9.869  13.003
75986ION    CL-48411  16.876  11.640  14.945
75987ION    CL-48412  32.476  30.196   3.843
75988ION    CL-48413  31.298  16.307  11.561
75989ION    CL-48414   6.582  18.520   2.393
75990ION    CL-48415   1.399  34.323  12.014
75991ION    CL-48416  43.313  23.381  11.817
75992ION    CL-48417  13.156  33.779   3.965
75993ION    CL-48418  16.906  13.808  12.880
75994ION    CL-48419  16.387  25.611  10.750
75995ION    CL-48420  23.286   2.145   2.570
75996ION    CL-48421  16.338  22.596  14.859
75997ION    CL-48422  13.699  29.900  14.660
75998ION    CL-48423  22.645  36.982  11.375
75999ION    CL-48424  44.059  42.249   4.235
76000ION    CL-48425  13.166  21.470  13.515
76001ION    CL-48426  43.632  30.207  12.933
76002ION    CL-48427   5.836  10.086   4.581
76003ION    CL-48428  37.597  17.249  12.338
76004ION    CL-48429  41.666  38.698   3.213
76005ION    CL-48430  21.955  31.740  11.166
76006ION    CL-48431   4.167  34.941   3.337
76007ION    CL-48432  36.920  41.101   2.872
76008ION    CL-48433  39.173   9.573  11.026
76009ION    CL-48434  28.694  41.775   5.448
76010ION    CL-48435  42.324   3.186  10.333
76011ION    CL-48436  17.751   5.940   1.351
76012ION    CL-48437  15.482   3.683  11.003
76013ION    CL-48438  12.772   3.850  13.563
76014ION    CL-48439  17.319  25.791  10.434
76015ION    CL-48440  23.235  36.141   4.140
76016ION    CL-48441  44.759  19.770  14.441
76017ION    CL-48442   6.338  34.691  11.521
76018ION    CL-48443   0.920  30.271   0.022
76019ION    CL-48444  41.254   1.436   4.039
76020ION    CL-48445  27.924  31.162  12.628
76021ION    CL-48446  25.148  21.307   4.054
76022ION    CL-48447  19.314  24.168  14.083
76023ION    CL-48448  15.623  32.205   9.792
76024ION    CL-48449  35.247  14.842  14.700
76025ION    CL-48450  36.071   7.387  12.978
76026ION    CL-48451  13.637   6.772  14.558
76027ION    CL-48452  16.287  38.031  12.639
76028ION    CL-48453   9.337  26.088  11.042
76029ION    CL-48454  23.095  29.028  13.837
76030ION    CL-48455  17.630   6.029   4.292
76031ION    CL-48456   0.276  24.769  11.980
76032ION    CL-48457   1.198  24.802  12.367
76033ION    CL-48458  19.763   8.900  10.670
76034ION    CL-48459   7.045  30.519  10.224
76035ION    CL-48460  35.042  33.381   1.847
76036ION    CL-48461  25.712  39.683   1.876
76037ION    CL-48462  11.070   1.247  12.509
76038ION    CL-48463   6.154  12.079  11.353
76039ION    CL-48464  21.253  37.680  13.861
76040ION    CL-48465   1.710  17.561   1.963
76041ION    CL-48466  41.645  29.796  14.107
76042ION    CL-48467  38.458   8.391  11.062
76043ION    CL-48468  35.819   8.674   3.657
76044ION    CL-48469  39.319  38.550   0.736
76045ION    CL-48470  21.747  42.736   2.336
76046ION    CL-48471  18.368   9.176  12.006
76047ION    CL-48472  39.790   4.992  11.464
76048ION    CL-48473  43.803   4.109   1.830
76049ION    CL-48474   8.934  13.096   3.231
76050ION    CL-48475  36.977   6.745  11.955
76051ION    CL-48476  25.004  37.276   4.051
76052ION    CL-48477  13.423  22.406  13.755
76053ION    CL-48478  30.896  35.563  13.866
76054ION    CL-48479   7.688  37.304   0.322
76055ION    CL-48480  10.050  26.564  12.911
76056ION    CL-48481   2.713  13.455   4.888
76057ION    CL-48482  11.842  37.083  10.605
76058ION    CL-48483  21.930  18.553  11.147
76059ION    CL-48484  26.834  43.596  13.949
76060ION    CL-48485   0.330  12.434   0.393
76061ION    CL-48486  15.364  21.869   2.808
76062ION    CL-48487  23.871  30.861   2.277
76063ION    CL-48488  11.940  20.014   0.591
76064ION    CL-48489  10.733  22.623  14.207
76065ION    CL-48490  35.518  44.474  14.798
76066ION    CL-48491   5.631  12.189  10.259
76067ION    CL-48492  19.738   2.470   2.212
76068ION    CL-48493  29.257  27.199  12.050
76069ION    CL-48494   8.661   8.378   2.285
76070ION    CL-48495  14.228  14.483  12.598
76071ION    CL-48496   8.948  35.453   2.950
76072ION    CL-48497  25.704   3.239  11.944
76073ION    CL-48498  11.345  26.484   3.808
76074ION    CL-48499  12.179  27.402  11.623
76075ION    CL-48500  42.534   6.421  11.139
76076ION    CL-48501  20.902  28.047  14.970
76077ION    CL-48502  18.706  39.360  13.841
76078ION    CL-48503  40.297  37.299   0.336
76079ION    CL-48504   2.276  10.972  14.068
76080ION    CL-48505  40.985   3.187   1.087
76081ION    CL-48506  11.745  30.934  11.415
76082ION    CL-48507  35.905  23.137   2.240
76083ION    CL-48508  14.704  10.792   3.842
76084ION    CL-48509   4.754   1.425  11.484
76085ION    CL-48510  19.839  11.281  12.044
76086ION    CL-48511  17.410   4.980   4.140
76087ION    CL-48512  21.517   4.676   3.012
76088ION    CL-48513  40.556   6.332   4.220
76089ION    CL-48514  19.171  15.116  13.787
76090ION    CL-48515  31.905  39.244   2.219
76091ION    CL-48516  18.811   5.247  12.991
76092ION    CL-48517  41.525  23.112   1.363
76093ION    CL-48518   1.715  13.174  10.990
76094ION    CL-48519  13.908  41.890  13.976
76095ION    CL-48520  11.427  29.367  13.451
76096ION    CL-48521  28.177  33.534  12.903
76097ION    CL-48522  12.442  21.539   9.839
76098ION    CL-48523  44.202  44.583   3.256
76099ION    CL-48524  16.931  18.066   4.190
76100ION    CL-48525  27.997  18.252   2.201
76101ION    CL-48526  38.239  40.952  11.189
76102ION    CL-48527  26.611  43.044  14.570
76103ION    CL-48528  21.708  26.869   1.409
76104ION    CL-48529  13.314  40.368  13.493
76105ION    CL-48530   3.024   6.835   9.723
76106ION    CL-48531  29.400  44.334  10.934
76107ION    CL-48532   5.541   5.726   2.956
76108ION    CL-48533  12.572  15.643   1.959
76109ION    CL-48534  21.471  14.157  11.146
76110ION    CL-48535  18.380  44.628   0.045
76111ION    CL-48536  13.695  35.262  14.279
76112ION    CL-48537  20.584  29.097  10.474
76113ION    CL-48538  29.078  18.396  11.292
76114ION    CL-48539  20.835   5.008  11.616
76115ION    CL-48540  36.276   3.533  13.268
76116ION    CL-48541  27.594  26.010  10.993
76117ION    CL-48542  25.574   9.652   0.305
76118ION    CL-48543  18.731  31.769  13.692
76119ION    CL-48544   8.346  25.512   4.811
76120ION    CL-48545   1.311  29.710  10.900
76121ION    CL-48546  44.423   4.524   5.340
76122ION    CL-48547   6.619  44.978   9.840
76123ION    CL-48548  25.036  40.473  12.649
76124ION    CL-48549  12.787   5.154   2.990
76125ION    CL-48550  36.936  40.170   4.947
76126ION    CL-48551  19.463  37.765   3.788
76127ION    CL-48552  32.534  12.674  10.631
76128ION    CL-48553  21.187  19.316   2.331
76129ION    CL-48554  34.425   4.516  13.017
76130ION    CL-48555  30.345  33.076   1.950
76131ION    CL-48556  14.903   0.368  13.016
76132ION    CL-48557  43.954  18.415   4.220
76133ION    CL-48558  36.488  36.504  13.524
76134ION    CL-48559   1.422   7.148  11.396
76135ION    CL-48560  35.457  39.097   1.604
76136ION    CL-48561   1.700   6.975   0.013
76137ION    CL-48562  42.709  43.372   1.172
76138ION    CL-48563  24.190  31.760  10.775
76139ION    CL-48564   4.307  28.009  14.301
76140ION    CL-48565  40.654  31.037   2.070
76141ION    CL-48566  22.322  26.809  11.276
76142ION    CL-48567  31.190  42.554   1.105
76143ION    CL-48568  32.349   4.419  13.095
76144ION    CL-48569  35.114  17.365   4.842
76145ION    CL-48570   7.830  41.238  12.112
76146ION    CL-48571  25.057   1.841   0.950
76147ION    CL-48572   1.448   7.388  13.585
76148ION    CL-48573  29.080  17.376   3.622
76149ION    CL-48574  37.067  15.078   4.382
76150ION    CL-48575   5.745   5.111   3.927
76151ION    CL-48576  27.108   6.364   2.701
76152ION    CL-48577   8.790  18.122   3.178
76153ION    CL-48578  38.094  26.581   3.279
76154ION    CL-48579  14.381  20.289  14.378
76155ION    CL-48580   1.111  13.542  12.166
76156ION    CL-48581  16.692  23.915  14.764
76157ION    CL-48582  22.264  31.297   2.437
76158ION    CL-48583  31.122  21.266   2.484
76159ION    CL-48584  21.037  19.550  12.608
76160ION    CL-48585  32.244  22.673  13.820
76161ION    CL-48586   9.885  39.019   0.160
76162ION    CL-48587  29.102  17.342   4.984
76163ION    CL-48588  16.069  34.322   1.541
76164ION    CL-48589  28.461  11.097  14.105
76165ION    CL-48590   0.267  30.105  13.830
76166ION    CL-48591  14.145   2.924  11.723
76167ION    CL-48592  14.532  27.424   3.338
76168ION    CL-48593  25.048  34.352   0.240
76169ION    CL-48594  29.376  30.440  12.552
76170ION    CL-48595  26.201   1.923   4.090
76171ION    CL-48596  29.863  11.084  12.064
76172ION    CL-48597   0.405   5.068   4.611
76173ION    CL-48598  11.740  26.094  14.550
76174ION    CL-48599  32.068  15.643  12.416
76175ION    CL-48600  25.084  21.212   0.751
76176ION    CL-48601  33.452  11.131   2.989
76177ION    CL-48602   4.294   0.357   0.492
76178ION    CL-48603  30.355  32.513  11.063
76179ION    CL-48604   0.439  17.018   3.667
76180ION    CL-48605  19.272  24.292   1.604
76181ION    CL-48606  31.046  26.151  12.231
76182ION    CL-48607  31.017  29.150  11.451
76183ION    CL-48608  37.957  25.999   4.950
76184ION    CL-48609  14.278   1.388   2.769
76185ION    CL-48610  39.787  16.808  10.815
76186ION    CL-48611  11.473  17.499   1.383
76187ION    CL-48612  19.748  23.632  13.359
76188ION    CL-48613  28.752  10.010  13.794
76189ION    CL-48614  41.446  32.348  11.609
76190ION    CL-48615  19.360  41.262  10.335
76191ION    CL-48616  41.212  35.508  10.712
76192ION    CL-48617  17.754  43.722   1.204
76193ION    CL-48618  38.778  32.016   5.160
76194ION    CL-48619  16.113  31.434   9.855
76195ION    CL-48620   4.739   4.985   4.032
76196ION    CL-48621  32.338  37.430  10.771
76197ION    CL-48622  32.515  24.830   2.096
76198ION    CL-48623   1.806  27.102   1.908
76199ION    CL-48624   0.394  25.338   3.603
76200ION    CL-48625   5.742  42.107   2.983
76201ION    CL-48626  13.170  21.662   1.657
76202ION    CL-48627  43.701  25.710  12.500
76203ION    CL-48628  11.835   0.993   1.594
76204ION    CL-48629  39.737   0.334  12.090
76205ION    CL-48630  33.570  13.193  12.831
76206ION    CL-48631  14.050  35.085   1.390
76207ION    CL-48632   8.203  27.222  12.291
76208ION    CL-48633  40.425  28.391   2.451
76209ION    CL-48634  29.842   2.410  12.765
76210ION    CL-48635  22.183  32.712  11.099
76211ION    CL-48636  39.556  36.572   0.491
76212ION    CL-48637  40.938  11.433   5.098
76213ION    CL-48638  34.988  13.111  14.125
76214ION    CL-48639  18.374  14.386   1.942
76215ION    CL-48640  27.420  15.827  10.730
76216ION    CL-48641  39.309  18.580  10.856
76217ION    CL-48642  19.301  44.034   1.646
76218ION    CL-48643  30.457  39.655  12.415
76219ION    CL-48644   0.257  40.572  12.048
76220ION    CL-48645  18.872  23.926   3.967
76221ION    CL-48646  19.324   6.952   3.824
76222ION    CL-48647   6.312  13.141  13.780
76223ION    CL-48648  34.962  20.233   3.012
76224ION    CL-48649  42.431  31.773   4.617
76225ION    CL-48650  30.377   7.114   0.467
76226ION    CL-48651  39.480   8.684  12.525
76227ION    CL-48652  40.472  31.686  13.027
76228ION    CL-48653  21.696  26.685  12.046
76229ION    CL-48654  24.860  28.130   3.768
76230ION    CL-48655  19.518  30.751  12.038
76231ION    CL-48656   2.427   5.244  11.658
76232ION    CL-48657   8.320  30.451   5.089
76233ION    CL-48658  21.817  42.991  12.480
76234ION    CL-48659  36.361   9.282  11.664
76235ION    CL-48660  26.054  20.204   3.544
76236ION    CL-48661  11.247  43.719  11.509
76237ION    CL-48662  22.203   4.273   0.230
76238ION    CL-48663  23.938   3.430  10.734
76239ION    CL-48664  28.483  44.350   3.065
76240ION    CL-48665  21.263  33.468  14.167
76241ION    CL-48666  18.144  21.207  12.029
76242ION    CL-48667  27.803   7.903  14.276
76243ION    CL-48668   2.447   8.024   1.941
76244ION    CL-48669  19.749  29.733  12.968
76245ION    CL-48670  24.866  44.756  14.582
76246ION    CL-48671  24.272   8.665   0.638
76247ION    CL-48672  33.381   0.771  11.488
76248ION    CL-48673   9.121  42.982   9.858
76249ION    CL-48674  27.679  21.787   2.140
76250ION    CL-48675   0.225  42.537   4.836
76251ION    CL-48676  11.735  32.844  13.779
76252ION    CL-48677   6.920  12.390  14.985
76253ION    CL-48678   2.212  42.027  11.507
76254ION    CL-48679  12.151  43.672   1.702
76255ION    CL-48680  28.109  13.740   2.223
76256ION    CL-48681   0.860  34.068   3.235
76257ION    CL-48682  38.271   1.987   3.183
76258ION    CL-48683   5.032   5.065   1.211
76259ION    CL-48684  37.875  33.484   1.495
76260ION    CL-48685  43.988   1.971   1.602
76261ION    CL-48686   2.679  32.715  10.868
76262ION    CL-48687  13.780  44.939   0.239
76263ION    CL-48688  37.054  40.298   2.292
76264ION    CL-48689  27.651  21.440  13.521
76265ION    CL-48690   9.951  23.058  10.715
76266ION    CL-48691  17.297  37.016   4.932
76267ION    CL-48692  30.761  35.227   4.221
76268ION    CL-48693  19.279  22.706   4.296
76269ION    CL-48694  14.872   9.109  14.519
76270ION    CL-48695   0.910   4.699  12.610
76271ION    CL-48696  41.527  16.822   2.307
76272ION    CL-48697  14.654  26.664  12.916
76273ION    CL-48698  31.930  23.430   3.612
76274ION    CL-48699  18.121   0.460  14.903
76275ION    CL-48700  43.895  30.711   3.775
76276ION    CL-48701   5.624  41.054   3.923
76277ION    CL-48702  25.623  31.584   5.106
76278ION    CL-48703  40.419   0.781   0.549
76279ION    CL-48704  13.873  23.602  14.839
76280ION    CL-48705  16.976  37.590  12.064
76281ION    CL-48706  11.960   8.470  14.298
76282ION    CL-48707  21.191  44.388   0.753
76283ION    CL-48708  37.415  28.367   2.345
76284ION    CL-48709  22.328  37.593   2.582
76285ION    CL-48710  42.154  26.422   2.212
76286ION    CL-48711  29.737  19.836  12.014
76287ION    CL-48712  38.179  35.070  13.050
76288ION    CL-48713  37.900  27.336   5.019
76289ION    CL-48714  29.421  37.217   1.865
76290ION    CL-48715  11.045  42.417   1.547
76291ION    CL-48716  39.604   3.676   4.055
76292ION    CL-48717  16.166  39.862  13.057
76293ION    CL-48718  37.105  39.915  14.760
76294ION    CL-48719   8.653   6.777   0.564
76295ION    CL-48720  40.395  38.020   1.446
76296ION    CL-48721  22.993  22.382  13.101
76297ION    CL-48722  16.594  22.174  10.373
76298ION    CL-48723  27.935  26.469   1.851
76299ION    CL-48724  20.407   6.835   0.857
76300ION    CL-48725   0.470  22.427  10.430
76301ION    CL-48726   4.852  37.785   4.970
76302ION    CL-48727   9.140  37.532   4.749
76303ION    CL-48728  15.452  13.171  11.367
76304ION    CL-48729  14.589  42.452   0.792
76305ION    CL-48730  13.513  36.054  11.115
76306ION    CL-48731  19.273  20.771   1.420
76307ION    CL-48732   1.747   3.976  11.844
76308ION    CL-48733  31.248  34.453   0.057
76309ION    CL-48734  41.972  31.626   0.305
76310ION    CL-48735  18.185  24.625  13.227
76311ION    CL-48736  14.398  32.520   2.142
76312ION    CL-48737   8.094   0.997   3.328
76313ION    CL-48738  10.852   0.988   1.850
76314ION    CL-48739  14.434   2.538   0.221
76315ION    CL-48740   6.782   2.432  10.752
76316ION    CL-48741  30.074  43.946  11.563
76317ION    CL-48742  19.519  20.278  11.623
76318ION    CL-48743  14.440  18.769   0.102
76319ION    CL-48744  32.517  38.656  10.402
76320ION    CL-48745  44.526  10.822  14.524
76321ION    CL-48746  29.044  37.364   0.005
76322ION    CL-48747  33.907  44.011   3.521
76323ION    CL-48748  10.770  13.806  10.746
76324ION    CL-48749  42.539  19.557   2.265
76325ION    CL-48750  27.085  22.899  11.411
76326ION    CL-48751  23.102  16.395  13.782
76327ION    CL-48752  16.789  19.447   2.273
76328ION    CL-48753  42.815   5.784   2.139
76329ION    CL-48754  18.612  43.963  10.201
76330ION    CL-48755  21.384   5.581   2.833
76331ION    CL-48756  42.254  13.823  12.467
76332ION    CL-48757  23.359  42.887  12.909
76333ION    CL-48758  19.155  36.971   0.977
76334ION    CL-48759  38.781  21.983  12.298
76335ION    CL-48760  12.538  40.230   3.806
76336ION    CL-48761  29.955  10.156  13.387
76337ION    CL-48762  11.713   0.424  14.379
76338ION    CL-48763  16.338  13.882  12.174
76339ION    CL-48764   8.380  17.548   2.644
76340ION    CL-48765  28.426  31.557  13.613
76341ION    CL-48766  24.147  28.003  12.342
76342ION    CL-48767   1.072  13.476  14.744
76343ION    CL-48768  20.072   4.491  13.693
76344ION    CL-48769  43.305  41.673   5.034
76345ION    CL-48770  30.902  24.515  14.462
76346ION    CL-48771  17.835   7.665   0.085
76347ION    CL-48772   4.845   6.396  13.856
76348ION    CL-48773  28.152  16.029  14.373
76349ION    CL-48774  36.067  28.507   0.686
76350ION    CL-48775  35.304  44.119   4.923
76351ION    CL-48776  26.723  17.201  10.713
76352ION    CL-48777  14.281  33.068   3.636
76353ION    CL-48778  23.911  40.774  13.827
76354ION    CL-48779  16.059  25.673   2.395
76355ION    CL-48780  33.313  34.109   2.763
76356ION    CL-48781  38.854   1.378   2.359
76357ION    CL-48782  28.360  20.168  14.950
76358ION    CL-48783  44.761   2.222  13.317
76359ION    CL-48784   5.971  33.147  12.092
76360ION    CL-48785  16.753  31.113   0.848
76361ION    CL-48786  20.188  19.800   4.136
76362ION    CL-48787  36.769  29.794   4.078
76363ION    CL-48788  30.504  35.208   5.251
76364ION    CL-48789  15.634  25.101   0.768
76365ION    CL-48790  16.538   7.349   4.370
76366ION    CL-48791  44.525  19.376  11.649
76367ION    CL-48792   8.699  13.781   4.063
76368ION    CL-48793  36.221  21.805  12.711
76369ION    CL-48794  16.160   2.862   0.675
76370ION    CL-48795  29.503  34.014   3.208
76371ION    CL-48796  11.495  33.896  11.859
76372ION    CL-48797   6.535  19.125  11.833
76373ION    CL-48798  35.267   0.270   2.378
76374ION    CL-48799  42.382  41.999   0.816
  45.00000  45.00000  15.00000
